<event>
 4    1  0.1252123E+000  0.3102522E+03  0.7546771E-02  0.1080225E+00
         21   -1    0    0  501  502  0.00000000000E+00  0.00000000000E+00  0.60537708856E+03  0.60537708856E+03  0.00000000000E+00 0.  1.
         21   -1    0    0  502  503 -0.00000000000E+00 -0.00000000000E+00 -0.16115222179E+03  0.16115222179E+03  0.00000000000E+00 0.  1.
          6    1    1    2  501    0 -0.55045997514E+02  0.25158964591E+03  0.26637958261E+03  0.40891868850E+03  0.17300000000E+03 0.  1.
         -6    1    1    2    0  503  0.55045997514E+02 -0.25158964591E+03  0.17784528416E+03  0.35761062186E+03  0.17300000000E+03 0.  1.
<mgrwt>
<rscale>  2 0.31025217E+03</rscale>
<asrwt>0</asrwt>
<pdfrwt beam="1">  1       21 0.93134936E-01 0.31025217E+03</pdfrwt>
<pdfrwt beam="2">  1       21 0.24792650E-01 0.31025217E+03</pdfrwt>
<totfact> 0.14030385E+04</totfact>
</mgrwt>
</event>
<event>
 4    1  0.1252123E+000  0.2976049E+03  0.7546771E-02  0.1086444E+00
         21   -1    0    0  503  502  0.00000000000E+00  0.00000000000E+00  0.34846630183E+03  0.34846630183E+03  0.00000000000E+00 0. -1.
         21   -1    0    0  501  503 -0.00000000000E+00 -0.00000000000E+00 -0.26017570065E+03  0.26017570065E+03  0.00000000000E+00 0.  1.
          6    1    1    2  501    0 -0.17139125427E+03  0.17106934496E+03 -0.21017279668E+01  0.29761233188E+03  0.17300000000E+03 0. -1.
         -6    1    1    2    0  502  0.17139125427E+03 -0.17106934496E+03  0.90392329153E+02  0.31102967060E+03  0.17300000000E+03 0.  1.
<mgrwt>
<rscale>  2 0.29760491E+03</rscale>
<asrwt>0</asrwt>
<pdfrwt beam="1">  1       21 0.53610201E-01 0.29760491E+03</pdfrwt>
<pdfrwt beam="2">  1       21 0.40027031E-01 0.29760491E+03</pdfrwt>
<totfact> 0.18789655E+04</totfact>
</mgrwt>
</event>
<event>
 4    1  0.1252123E+000  0.2751987E+03  0.7546771E-02  0.1098341E+00
         21   -1    0    0  501  502  0.00000000000E+00  0.00000000000E+00  0.77771688586E+03  0.77771688586E+03  0.00000000000E+00 0. -1.
         21   -1    0    0  502  503 -0.00000000000E+00 -0.00000000000E+00 -0.14615728913E+03  0.14615728913E+03  0.00000000000E+00 0. -1.
          6    1    1    2  501    0 -0.45015669586E+02  0.20923416283E+03  0.58263756541E+03  0.64436082907E+03  0.17300000000E+03 0. -1.
         -6    1    1    2    0  503  0.45015669586E+02 -0.20923416283E+03  0.48922031317E+02  0.27951334592E+03  0.17300000000E+03 0. -1.
<mgrwt>
<rscale>  2 0.27519874E+03</rscale>
<asrwt>0</asrwt>
<pdfrwt beam="1">  1       21 0.11964875E+00 0.27519874E+03</pdfrwt>
<pdfrwt beam="2">  1       21 0.22485737E-01 0.27519874E+03</pdfrwt>
<totfact> 0.93578800E+03</totfact>
</mgrwt>
</event>
<event>
 4    1  0.1252123E+000  0.1752819E+03  0.7546771E-02  0.1172449E+00
         21   -1    0    0  503  502  0.00000000000E+00  0.00000000000E+00  0.62183850034E+03  0.62183850034E+03  0.00000000000E+00 0. -1.
         21   -1    0    0  501  503 -0.00000000000E+00 -0.00000000000E+00 -0.65996265422E+02  0.65996265422E+02  0.00000000000E+00 0. -1.
          6    1    1    2  501    0 -0.73579943393E+01 -0.27213786910E+02  0.10549766709E+03  0.20458125046E+03  0.17300000000E+03 0. -1.
         -6    1    1    2    0  502  0.73579943393E+01  0.27213786910E+02  0.45034456782E+03  0.48325351530E+03  0.17300000000E+03 0. -1.
<mgrwt>
<rscale>  2 0.17528186E+03</rscale>
<asrwt>0</asrwt>
<pdfrwt beam="1">  1       21 0.95667457E-01 0.17528186E+03</pdfrwt>
<pdfrwt beam="2">  1       21 0.10153272E-01 0.17528186E+03</pdfrwt>
<totfact> 0.72551476E+04</totfact>
</mgrwt>
</event>
<event>
 4    1  0.1252123E+000  0.2382235E+03  0.7546771E-02  0.1120982E+00
         21   -1    0    0  501  502  0.00000000000E+00  0.00000000000E+00  0.14193656063E+04  0.14193656063E+04  0.00000000000E+00 0.  1.
         21   -1    0    0  502  503 -0.00000000000E+00 -0.00000000000E+00 -0.52309956616E+02  0.52309956616E+02  0.00000000000E+00 0. -1.
          6    1    1    2  501    0 -0.58028713392E+02  0.15314739701E+03  0.10407334680E+04  0.10676500402E+04  0.17300000000E+03 0.  1.
         -6    1    1    2    0  503  0.58028713392E+02 -0.15314739701E+03  0.32632218162E+03  0.40402552272E+03  0.17300000000E+03 0. -1.
<mgrwt>
<rscale>  2 0.23822354E+03</rscale>
<asrwt>0</asrwt>
<pdfrwt beam="1">  1       21 0.21836391E+00 0.23822354E+03</pdfrwt>
<pdfrwt beam="2">  1       21 0.80476867E-02 0.23822354E+03</pdfrwt>
<totfact> 0.11792486E+04</totfact>
</mgrwt>
</event>
<event>
 4    1  0.1252123E+000  0.1789999E+03  0.7546771E-02  0.1168774E+00
         21   -1    0    0  503  502  0.00000000000E+00  0.00000000000E+00  0.22548157443E+02  0.22548157443E+02  0.00000000000E+00 0. -1.
         21   -1    0    0  501  503 -0.00000000000E+00 -0.00000000000E+00 -0.14334000681E+04  0.14334000681E+04  0.00000000000E+00 0.  1.
          6    1    1    2  501    0  0.24822727061E+02  0.38675508791E+02 -0.77313086419E+03  0.79358194027E+03  0.17300000000E+03 0.  1.
         -6    1    1    2    0  502 -0.24822727061E+02 -0.38675508791E+02 -0.63772104648E+03  0.66236628528E+03  0.17300000000E+03 0. -1.
<mgrwt>
<rscale>  2 0.17899990E+03</rscale>
<asrwt>0</asrwt>
<pdfrwt beam="1">  1       21 0.34689469E-02 0.17899990E+03</pdfrwt>
<pdfrwt beam="2">  1       21 0.22052311E+00 0.17899990E+03</pdfrwt>
<totfact> 0.50128158E+04</totfact>
</mgrwt>
</event>
<event>
 4    1  0.1252123E+000  0.2225392E+03  0.7546771E-02  0.1132004E+00
         21   -1    0    0  503  502  0.00000000000E+00  0.00000000000E+00  0.84003076666E+03  0.84003076666E+03  0.00000000000E+00 0.  1.
         21   -1    0    0  501  503 -0.00000000000E+00 -0.00000000000E+00 -0.77368196338E+02  0.77368196338E+02  0.00000000000E+00 0. -1.
          6    1    1    2  501    0 -0.69946617410E+02  0.12125256660E+03  0.15755409736E+03  0.27266647720E+03  0.17300000000E+03 0. -1.
         -6    1    1    2    0  502  0.69946617410E+02 -0.12125256660E+03  0.60510847297E+03  0.64473248580E+03  0.17300000000E+03 0.  1.
<mgrwt>
<rscale>  2 0.22253924E+03</rscale>
<asrwt>0</asrwt>
<pdfrwt beam="1">  1       21 0.12923550E+00 0.22253924E+03</pdfrwt>
<pdfrwt beam="2">  1       21 0.11902800E-01 0.22253924E+03</pdfrwt>
<totfact> 0.25660806E+04</totfact>
</mgrwt>
</event>
<event>
 4    1  0.1252123E+000  0.1731439E+03  0.7546771E-02  0.1174608E+00
         21   -1    0    0  503  502  0.00000000000E+00  0.00000000000E+00  0.51374997265E+02  0.51374997265E+02  0.00000000000E+00 0.  1.
         21   -1    0    0  501  503 -0.00000000000E+00 -0.00000000000E+00 -0.68268193133E+03  0.68268193133E+03  0.00000000000E+00 0.  1.
          6    1    1    2  501    0 -0.16122891371E+01  0.68713079729E+01 -0.17577761567E+03  0.24673180687E+03  0.17300000000E+03 0.  1.
         -6    1    1    2    0  502  0.16122891371E+01 -0.68713079729E+01 -0.45552931840E+03  0.48732512173E+03  0.17300000000E+03 0.  1.
<mgrwt>
<rscale>  2 0.17314391E+03</rscale>
<asrwt>0</asrwt>
<pdfrwt beam="1">  1       21 0.79038456E-02 0.17314391E+03</pdfrwt>
<pdfrwt beam="2">  1       21 0.10502799E+00 0.17314391E+03</pdfrwt>
<totfact> 0.90245154E+04</totfact>
</mgrwt>
</event>
<event>
 4    1  0.1252123E+000  0.1855723E+03  0.7546771E-02  0.1162517E+00
         21   -1    0    0  501  502  0.00000000000E+00  0.00000000000E+00  0.88340693404E+02  0.88340693404E+02  0.00000000000E+00 0.  1.
         21   -1    0    0  502  503 -0.00000000000E+00 -0.00000000000E+00 -0.39404956691E+03  0.39404956691E+03  0.00000000000E+00 0.  1.
          6    1    1    2  501    0  0.66936799742E+02  0.52477208395E+01 -0.12786938569E+03  0.22536116243E+03  0.17300000000E+03 0. -1.
         -6    1    1    2    0  503 -0.66936799742E+02 -0.52477208395E+01 -0.17783948782E+03  0.25702909789E+03  0.17300000000E+03 0. -1.
<mgrwt>
<rscale>  2 0.18557229E+03</rscale>
<asrwt>0</asrwt>
<pdfrwt beam="1">  1       21 0.13590876E-01 0.18557229E+03</pdfrwt>
<pdfrwt beam="2">  1       21 0.60623009E-01 0.18557229E+03</pdfrwt>
<totfact> 0.11919891E+05</totfact>
</mgrwt>
</event>
<event>
 4    1  0.1252123E+000  0.2764400E+03  0.7546771E-02  0.1097649E+00
         21   -1    0    0  503  502  0.00000000000E+00  0.00000000000E+00  0.22126693116E+03  0.22126693116E+03  0.00000000000E+00 0. -1.
         21   -1    0    0  501  503 -0.00000000000E+00 -0.00000000000E+00 -0.40708743115E+03  0.40708743115E+03  0.00000000000E+00 0.  1.
          6    1    1    2  501    0  0.19552465945E+03 -0.90885635237E+02 -0.21524015190E+03  0.35035327048E+03  0.17300000000E+03 0.  1.
         -6    1    1    2    0  502 -0.19552465945E+03  0.90885635237E+02  0.29419651907E+02  0.27800109184E+03  0.17300000000E+03 0. -1.
<mgrwt>
<rscale>  2 0.27644003E+03</rscale>
<asrwt>0</asrwt>
<pdfrwt beam="1">  1       21 0.34041067E-01 0.27644003E+03</pdfrwt>
<pdfrwt beam="2">  1       21 0.62628834E-01 0.27644003E+03</pdfrwt>
<totfact> 0.18799249E+04</totfact>
</mgrwt>
</event>
<event>
 4    1  0.1252123E+000  0.2003623E+03  0.7546771E-02  0.1149434E+00
         21   -1    0    0  501  502  0.00000000000E+00  0.00000000000E+00  0.36893494860E+03  0.36893494860E+03  0.00000000000E+00 0. -1.
         21   -1    0    0  502  503 -0.00000000000E+00 -0.00000000000E+00 -0.24010690260E+03  0.24010690260E+03  0.00000000000E+00 0. -1.
          6    1    1    2  501    0  0.10090177277E+03  0.59062467959E+01  0.28959748997E+03  0.35215303164E+03  0.17300000000E+03 0. -1.
         -6    1    1    2    0  503 -0.10090177277E+03 -0.59062467959E+01 -0.16076944397E+03  0.25688881956E+03  0.17300000000E+03 0. -1.
<mgrwt>
<rscale>  2 0.20036230E+03</rscale>
<asrwt>0</asrwt>
<pdfrwt beam="1">  1       21 0.56759223E-01 0.20036230E+03</pdfrwt>
<pdfrwt beam="2">  1       21 0.36939523E-01 0.20036230E+03</pdfrwt>
<totfact> 0.20526986E+04</totfact>
</mgrwt>
</event>
<event>
 4    1  0.1252123E+000  0.2590138E+03  0.7546771E-02  0.1107737E+00
         21   -1    0    0  503  502  0.00000000000E+00  0.00000000000E+00  0.15217823442E+03  0.15217823442E+03  0.00000000000E+00 0.  1.
         21   -1    0    0  501  503 -0.00000000000E+00 -0.00000000000E+00 -0.44395027634E+03  0.44395027634E+03  0.00000000000E+00 0.  1.
          6    1    1    2  501    0  0.19269903579E+03  0.51228804361E+01 -0.12098802222E+03  0.28587805760E+03  0.17300000000E+03 0. -1.
         -6    1    1    2    0  502 -0.19269903579E+03 -0.51228804361E+01 -0.17078401970E+03  0.31025045315E+03  0.17300000000E+03 0. -1.
<mgrwt>
<rscale>  2 0.25901383E+03</rscale>
<asrwt>0</asrwt>
<pdfrwt beam="1">  1       21 0.23412036E-01 0.25901383E+03</pdfrwt>
<pdfrwt beam="2">  1       21 0.68300042E-01 0.25901383E+03</pdfrwt>
<totfact> 0.32498544E+04</totfact>
</mgrwt>
</event>
<event>
 4    1  0.1252123E+000  0.1821286E+03  0.7546771E-02  0.1165759E+00
         21   -1    0    0  503  502  0.00000000000E+00  0.00000000000E+00  0.83037917913E+02  0.83037917913E+02  0.00000000000E+00 0. -1.
         21   -1    0    0  501  503 -0.00000000000E+00 -0.00000000000E+00 -0.80605342371E+03  0.80605342371E+03  0.00000000000E+00 0. -1.
          6    1    1    2  501    0 -0.35681303282E+02  0.44369667943E+02 -0.67723455859E+03  0.70129699143E+03  0.17300000000E+03 0. -1.
         -6    1    1    2    0  502  0.35681303282E+02 -0.44369667943E+02 -0.45780947206E+02  0.18779435019E+03  0.17300000000E+03 0. -1.
<mgrwt>
<rscale>  2 0.18212859E+03</rscale>
<asrwt>0</asrwt>
<pdfrwt beam="1">  1       21 0.12775064E-01 0.18212859E+03</pdfrwt>
<pdfrwt beam="2">  1       21 0.12400822E+00 0.18212859E+03</pdfrwt>
<totfact> 0.25688178E+04</totfact>
</mgrwt>
</event>
<event>
 4    1  0.1252123E+000  0.2056543E+03  0.7546771E-02  0.1145054E+00
         21   -1    0    0  503  502  0.00000000000E+00  0.00000000000E+00  0.63384590202E+02  0.63384590202E+02  0.00000000000E+00 0.  1.
         21   -1    0    0  501  503 -0.00000000000E+00 -0.00000000000E+00 -0.72288533347E+03  0.72288533347E+03  0.00000000000E+00 0.  1.
          6    1    1    2  501    0 -0.85006613653E+02  0.71683739426E+02 -0.43880972238E+03  0.48461082872E+03  0.17300000000E+03 0.  1.
         -6    1    1    2    0  502  0.85006613653E+02 -0.71683739426E+02 -0.22069102089E+03  0.30165909494E+03  0.17300000000E+03 0.  1.
<mgrwt>
<rscale>  2 0.20565428E+03</rscale>
<asrwt>0</asrwt>
<pdfrwt beam="1">  1       21 0.97514758E-02 0.20565428E+03</pdfrwt>
<pdfrwt beam="2">  1       21 0.11121312E+00 0.20565428E+03</pdfrwt>
<totfact> 0.53591920E+04</totfact>
</mgrwt>
</event>
<event>
 4    1  0.1252123E+000  0.2010386E+03  0.7546771E-02  0.1148866E+00
         21   -1    0    0  503  502  0.00000000000E+00  0.00000000000E+00  0.15561141943E+03  0.15561141943E+03  0.00000000000E+00 0. -1.
         21   -1    0    0  501  503 -0.00000000000E+00 -0.00000000000E+00 -0.28056543460E+03  0.28056543460E+03  0.00000000000E+00 0. -1.
          6    1    1    2  501    0 -0.82920633339E+02  0.60097170243E+02 -0.12191267368E+03  0.23511529365E+03  0.17300000000E+03 0. -1.
         -6    1    1    2    0  502  0.82920633339E+02 -0.60097170243E+02 -0.30413414977E+01  0.20106156038E+03  0.17300000000E+03 0. -1.
<mgrwt>
<rscale>  2 0.20103856E+03</rscale>
<asrwt>0</asrwt>
<pdfrwt beam="1">  1       21 0.23940219E-01 0.20103856E+03</pdfrwt>
<pdfrwt beam="2">  1       21 0.43163913E-01 0.20103856E+03</pdfrwt>
<totfact> 0.84588246E+04</totfact>
</mgrwt>
</event>
<event>
 4    1  0.1252123E+000  0.2813739E+03  0.7546771E-02  0.1094941E+00
         21   -1    0    0  503  502  0.00000000000E+00  0.00000000000E+00  0.88201163963E+03  0.88201163963E+03  0.00000000000E+00 0.  1.
         21   -1    0    0  501  503 -0.00000000000E+00 -0.00000000000E+00 -0.92901919831E+02  0.92901919831E+02  0.00000000000E+00 0. -1.
          6    1    1    2  501    0 -0.78192787800E+02  0.20767318169E+03  0.30494153929E+03  0.41492240822E+03  0.17300000000E+03 0. -1.
         -6    1    1    2    0  502  0.78192787800E+02 -0.20767318169E+03  0.48416818051E+03  0.55999115125E+03  0.17300000000E+03 0.  1.
<mgrwt>
<rscale>  2 0.28137388E+03</rscale>
<asrwt>0</asrwt>
<pdfrwt beam="1">  1       21 0.13569409E+00 0.28137388E+03</pdfrwt>
<pdfrwt beam="2">  1       21 0.14292604E-01 0.28137388E+03</pdfrwt>
<totfact> 0.15771591E+04</totfact>
</mgrwt>
</event>
<event>
 4    1  0.1252123E+000  0.1863905E+03  0.7546771E-02  0.1161758E+00
         21   -1    0    0  501  502  0.00000000000E+00  0.00000000000E+00  0.15673106654E+04  0.15673106654E+04  0.00000000000E+00 0.  1.
         21   -1    0    0  502  503 -0.00000000000E+00 -0.00000000000E+00 -0.26344194494E+02  0.26344194494E+02  0.00000000000E+00 0.  1.
          6    1    1    2  501    0  0.65709583631E+02  0.22241143633E+02  0.10878069694E+04  0.11036600113E+04  0.17300000000E+03 0.  1.
         -6    1    1    2    0  503 -0.65709583631E+02 -0.22241143633E+02  0.45315950151E+03  0.48999484860E+03  0.17300000000E+03 0.  1.
<mgrwt>
<rscale>  2 0.18639050E+03</rscale>
<asrwt>0</asrwt>
<pdfrwt beam="1">  1       21 0.24112464E+00 0.18639050E+03</pdfrwt>
<pdfrwt beam="2">  1       21 0.40529542E-02 0.18639050E+03</pdfrwt>
<totfact> 0.28904818E+04</totfact>
</mgrwt>
</event>
<event>
 4    1  0.1252123E+000  0.1986815E+03  0.7546771E-02  0.1150856E+00
         21   -1    0    0  501  502  0.00000000000E+00  0.00000000000E+00  0.20186831830E+03  0.20186831830E+03  0.00000000000E+00 0.  1.
         21   -1    0    0  502  503 -0.00000000000E+00 -0.00000000000E+00 -0.21055355982E+03  0.21055355982E+03  0.00000000000E+00 0.  1.
          6    1    1    2  501    0 -0.94362675197E+02  0.25318198002E+02  0.50712911847E+02  0.20505151804E+03  0.17300000000E+03 0.  1.
         -6    1    1    2    0  503  0.94362675197E+02 -0.25318198002E+02 -0.59398153367E+02  0.20737036009E+03  0.17300000000E+03 0.  1.
<mgrwt>
<rscale>  2 0.19868147E+03</rscale>
<asrwt>0</asrwt>
<pdfrwt beam="1">  1       21 0.31056664E-01 0.19868147E+03</pdfrwt>
<pdfrwt beam="2">  1       21 0.32392855E-01 0.19868147E+03</pdfrwt>
<totfact> 0.91100877E+04</totfact>
</mgrwt>
</event>
<event>
 4    1  0.1252123E+000  0.2193250E+03  0.7546771E-02  0.1134387E+00
         21   -1    0    0  501  502  0.00000000000E+00  0.00000000000E+00  0.34740746909E+03  0.34740746909E+03  0.00000000000E+00 0. -1.
         21   -1    0    0  502  503 -0.00000000000E+00 -0.00000000000E+00 -0.15376687396E+03  0.15376687396E+03  0.00000000000E+00 0. -1.
          6    1    1    2  501    0 -0.13479847037E+03 -0.19617461014E+01  0.17587213534E+03  0.28113072413E+03  0.17300000000E+03 0. -1.
         -6    1    1    2    0  503  0.13479847037E+03  0.19617461014E+01  0.17768459787E+02  0.22004361892E+03  0.17300000000E+03 0. -1.
<mgrwt>
<rscale>  2 0.21932505E+03</rscale>
<asrwt>0</asrwt>
<pdfrwt beam="1">  1       21 0.53447303E-01 0.21932505E+03</pdfrwt>
<pdfrwt beam="2">  1       21 0.23656442E-01 0.21932505E+03</pdfrwt>
<totfact> 0.55068363E+04</totfact>
</mgrwt>
</event>
<event>
 4    1  0.1252123E+000  0.1752751E+03  0.7546771E-02  0.1172456E+00
         21   -1    0    0  503  502  0.00000000000E+00  0.00000000000E+00  0.10677985067E+03  0.10677985067E+03  0.00000000000E+00 0. -1.
         21   -1    0    0  501  503 -0.00000000000E+00 -0.00000000000E+00 -0.31016145381E+03  0.31016145381E+03  0.00000000000E+00 0. -1.
          6    1    1    2  501    0  0.21891868157E+02  0.17694725173E+02 -0.15778242790E+03  0.23583182937E+03  0.17300000000E+03 0. -1.
         -6    1    1    2    0  502 -0.21891868157E+02 -0.17694725173E+02 -0.45599175234E+02  0.18110947510E+03  0.17300000000E+03 0. -1.
<mgrwt>
<rscale>  2 0.17527509E+03</rscale>
<asrwt>0</asrwt>
<pdfrwt beam="1">  1       21 0.16427670E-01 0.17527509E+03</pdfrwt>
<pdfrwt beam="2">  1       21 0.47717146E-01 0.17527509E+03</pdfrwt>
<totfact> 0.14032100E+05</totfact>
</mgrwt>
</event>
<event>
 4    1  0.1252123E+000  0.2270035E+03  0.7546771E-02  0.1128767E+00
         21   -1    0    0  501  502  0.00000000000E+00  0.00000000000E+00  0.14437263183E+03  0.14437263183E+03  0.00000000000E+00 0.  1.
         21   -1    0    0  502  503 -0.00000000000E+00 -0.00000000000E+00 -0.37469500796E+03  0.37469500796E+03  0.00000000000E+00 0.  1.
          6    1    1    2  501    0  0.12917118207E+03  0.70117008746E+02 -0.58645891731E+02  0.23445666937E+03  0.17300000000E+03 0.  1.
         -6    1    1    2    0  503 -0.12917118207E+03 -0.70117008746E+02 -0.17167648439E+03  0.28461097043E+03  0.17300000000E+03 0.  1.
<mgrwt>
<rscale>  2 0.22700350E+03</rscale>
<asrwt>0</asrwt>
<pdfrwt beam="1">  1       21 0.22211175E-01 0.22700350E+03</pdfrwt>
<pdfrwt beam="2">  1       21 0.57645385E-01 0.22700350E+03</pdfrwt>
<totfact> 0.52674683E+04</totfact>
</mgrwt>
</event>
<event>
 4    1  0.1252123E+000  0.1836262E+03  0.7546771E-02  0.1164339E+00
         21   -1    0    0  501  502  0.00000000000E+00  0.00000000000E+00  0.87897351935E+02  0.87897351935E+02  0.00000000000E+00 0.  1.
         21   -1    0    0  502  503 -0.00000000000E+00 -0.00000000000E+00 -0.59079760929E+03  0.59079760929E+03  0.00000000000E+00 0.  1.
          6    1    1    2  501    0  0.51763743490E+02 -0.33318034585E+02 -0.50492779048E+02  0.19044184757E+03  0.17300000000E+03 0. -1.
         -6    1    1    2    0  503 -0.51763743490E+02  0.33318034585E+02 -0.45240747831E+03  0.48825311366E+03  0.17300000000E+03 0. -1.
<mgrwt>
<rscale>  2 0.18362619E+03</rscale>
<asrwt>0</asrwt>
<pdfrwt beam="1">  1       21 0.13522669E-01 0.18362619E+03</pdfrwt>
<pdfrwt beam="2">  1       21 0.90891943E-01 0.18362619E+03</pdfrwt>
<totfact> 0.48830773E+04</totfact>
</mgrwt>
</event>
<event>
 4    1  0.1252123E+000  0.2123298E+03  0.7546771E-02  0.1139734E+00
         21   -1    0    0  503  502  0.00000000000E+00  0.00000000000E+00  0.93519876693E+03  0.93519876693E+03  0.00000000000E+00 0.  1.
         21   -1    0    0  501  503 -0.00000000000E+00 -0.00000000000E+00 -0.52464925037E+02  0.52464925037E+02  0.00000000000E+00 0.  1.
          6    1    1    2  501    0  0.11075646542E+03 -0.53739762315E+02  0.30069794728E+03  0.36810760952E+03  0.17300000000E+03 0.  1.
         -6    1    1    2    0  502 -0.11075646542E+03  0.53739762315E+02  0.58203589461E+03  0.61955608245E+03  0.17300000000E+03 0.  1.
<mgrwt>
<rscale>  2 0.21232983E+03</rscale>
<asrwt>0</asrwt>
<pdfrwt beam="1">  1       21 0.14387672E+00 0.21232983E+03</pdfrwt>
<pdfrwt beam="2">  1       21 0.80715276E-02 0.21232983E+03</pdfrwt>
<totfact> 0.38941422E+04</totfact>
</mgrwt>
</event>
<event>
 4    1  0.1252123E+000  0.1754614E+03  0.7546771E-02  0.1172269E+00
         21   -1    0    0  501  502  0.00000000000E+00  0.00000000000E+00  0.10779011843E+03  0.10779011843E+03  0.00000000000E+00 0.  1.
         21   -1    0    0  502  503 -0.00000000000E+00 -0.00000000000E+00 -0.29204572847E+03  0.29204572847E+03  0.00000000000E+00 0.  1.
          6    1    1    2  501    0 -0.10336499604E+02 -0.27402060127E+02 -0.12178846007E+03  0.21358638798E+03  0.17300000000E+03 0. -1.
         -6    1    1    2    0  503  0.10336499604E+02  0.27402060127E+02 -0.62467149970E+02  0.18624945892E+03  0.17300000000E+03 0. -1.
<mgrwt>
<rscale>  2 0.17546144E+03</rscale>
<asrwt>0</asrwt>
<pdfrwt beam="1">  1       21 0.16583095E-01 0.17546144E+03</pdfrwt>
<pdfrwt beam="2">  1       21 0.44930112E-01 0.17546144E+03</pdfrwt>
<totfact> 0.15608812E+05</totfact>
</mgrwt>
</event>
<event>
 4    1  0.1252123E+000  0.1817615E+03  0.7546771E-02  0.1166109E+00
         21   -1    0    0  503  502  0.00000000000E+00  0.00000000000E+00  0.53760490496E+02  0.53760490496E+02  0.00000000000E+00 0. -1.
         21   -1    0    0  501  503 -0.00000000000E+00 -0.00000000000E+00 -0.69911108995E+03  0.69911108995E+03  0.00000000000E+00 0. -1.
          6    1    1    2  501    0 -0.54307283701E+02  0.12608378418E+02 -0.45361252699E+03  0.48867328238E+03  0.17300000000E+03 0.  1.
         -6    1    1    2    0  502  0.54307283701E+02 -0.12608378418E+02 -0.19173807246E+03  0.26419829807E+03  0.17300000000E+03 0.  1.
<mgrwt>
<rscale>  2 0.18176153E+03</rscale>
<asrwt>0</asrwt>
<pdfrwt beam="1">  1       21 0.82708449E-02 0.18176153E+03</pdfrwt>
<pdfrwt beam="2">  1       21 0.10755555E+00 0.18176153E+03</pdfrwt>
<totfact> 0.78464240E+04</totfact>
</mgrwt>
</event>
<event>
 4    1  0.1252123E+000  0.1892472E+03  0.7546771E-02  0.1159142E+00
         21   -1    0    0  501  502  0.00000000000E+00  0.00000000000E+00  0.81361722790E+03  0.81361722790E+03  0.00000000000E+00 0.  1.
         21   -1    0    0  502  503 -0.00000000000E+00 -0.00000000000E+00 -0.54354975283E+02  0.54354975283E+02  0.00000000000E+00 0.  1.
          6    1    1    2  501    0 -0.23837392424E+02  0.72919613052E+02  0.19038145145E+03  0.26843917058E+03  0.17300000000E+03 0.  1.
         -6    1    1    2    0  503  0.23837392424E+02 -0.72919613052E+02  0.56888080117E+03  0.59953303261E+03  0.17300000000E+03 0.  1.
<mgrwt>
<rscale>  2 0.18924717E+03</rscale>
<asrwt>0</asrwt>
<pdfrwt beam="1">  1       21 0.12517187E+00 0.18924717E+03</pdfrwt>
<pdfrwt beam="2">  1       21 0.83623045E-02 0.18924717E+03</pdfrwt>
<totfact> 0.52902115E+04</totfact>
</mgrwt>
</event>
<event>
 4    1  0.1252123E+000  0.2067354E+03  0.7546771E-02  0.1144178E+00
         21   -1    0    0  501  502  0.00000000000E+00  0.00000000000E+00  0.19269758342E+03  0.19269758342E+03  0.00000000000E+00 0. -1.
         21   -1    0    0  502  503 -0.00000000000E+00 -0.00000000000E+00 -0.23205237573E+03  0.23205237573E+03  0.00000000000E+00 0.  1.
          6    1    1    2  501    0 -0.52841856930E+02 -0.10009133121E+03  0.24971337516E+02  0.20823809480E+03  0.17300000000E+03 0. -1.
         -6    1    1    2    0  503  0.52841856930E+02  0.10009133121E+03 -0.64326129822E+02  0.21651186435E+03  0.17300000000E+03 0. -1.
<mgrwt>
<rscale>  2 0.20673543E+03</rscale>
<asrwt>0</asrwt>
<pdfrwt beam="1">  1       21 0.29645782E-01 0.20673543E+03</pdfrwt>
<pdfrwt beam="2">  1       21 0.35700365E-01 0.20673543E+03</pdfrwt>
<totfact> 0.82014393E+04</totfact>
</mgrwt>
</event>
<event>
 4    1  0.1252123E+000  0.1925299E+03  0.7546771E-02  0.1156199E+00
         21   -1    0    0  503  502  0.00000000000E+00  0.00000000000E+00  0.20214978563E+03  0.20214978563E+03  0.00000000000E+00 0.  1.
         21   -1    0    0  501  503 -0.00000000000E+00 -0.00000000000E+00 -0.18337835284E+03  0.18337835284E+03  0.00000000000E+00 0. -1.
          6    1    1    2  501    0  0.70235359624E+02  0.46965438484E+02  0.79222819149E+01  0.19269281436E+03  0.17300000000E+03 0. -1.
         -6    1    1    2    0  502 -0.70235359624E+02 -0.46965438484E+02  0.10849150878E+02  0.19283532412E+03  0.17300000000E+03 0. -1.
<mgrwt>
<rscale>  2 0.19252989E+03</rscale>
<asrwt>0</asrwt>
<pdfrwt beam="1">  1       21 0.31099967E-01 0.19252989E+03</pdfrwt>
<pdfrwt beam="2">  1       21 0.28212054E-01 0.19252989E+03</pdfrwt>
<totfact> 0.11927216E+05</totfact>
</mgrwt>
</event>
<event>
 4    1  0.1252123E+000  0.1762311E+03  0.7546771E-02  0.1171501E+00
         21   -1    0    0  503  502  0.00000000000E+00  0.00000000000E+00  0.64708249183E+02  0.64708249183E+02  0.00000000000E+00 0. -1.
         21   -1    0    0  501  503 -0.00000000000E+00 -0.00000000000E+00 -0.69316711147E+03  0.69316711147E+03  0.00000000000E+00 0. -1.
          6    1    1    2  501    0 -0.48175584845E+01 -0.33244331955E+02 -0.52438906153E+03  0.55320998032E+03  0.17300000000E+03 0. -1.
         -6    1    1    2    0  502  0.48175584845E+01  0.33244331955E+02 -0.10406980076E+03  0.20466538033E+03  0.17300000000E+03 0. -1.
<mgrwt>
<rscale>  2 0.17623108E+03</rscale>
<asrwt>0</asrwt>
<pdfrwt beam="1">  1       21 0.99551156E-02 0.17623108E+03</pdfrwt>
<pdfrwt beam="2">  1       21 0.10664109E+00 0.17623108E+03</pdfrwt>
<totfact> 0.58036935E+04</totfact>
</mgrwt>
</event>
<event>
 4    1  0.1252123E+000  0.1759768E+03  0.7546771E-02  0.1171754E+00
         21   -1    0    0  501  502  0.00000000000E+00  0.00000000000E+00  0.24653047967E+03  0.24653047967E+03  0.00000000000E+00 0. -1.
         21   -1    0    0  502  503 -0.00000000000E+00 -0.00000000000E+00 -0.14810134930E+03  0.14810134930E+03  0.00000000000E+00 0. -1.
          6    1    1    2  501    0  0.46165022036E+01 -0.31898692721E+02  0.12610025432E+03  0.21649275468E+03  0.17300000000E+03 0. -1.
         -6    1    1    2    0  503 -0.46165022036E+01  0.31898692721E+02 -0.27671123944E+02  0.17813907429E+03  0.17300000000E+03 0. -1.
<mgrwt>
<rscale>  2 0.17597681E+03</rscale>
<asrwt>0</asrwt>
<pdfrwt beam="1">  1       21 0.37927766E-01 0.17597681E+03</pdfrwt>
<pdfrwt beam="2">  1       21 0.22784823E-01 0.17597681E+03</pdfrwt>
<totfact> 0.12183643E+05</totfact>
</mgrwt>
</event>
<event>
 4    1  0.1252123E+000  0.1869251E+03  0.7546771E-02  0.1161264E+00
         21   -1    0    0  501  502  0.00000000000E+00  0.00000000000E+00  0.41927598165E+02  0.41927598165E+02  0.00000000000E+00 0. -1.
         21   -1    0    0  502  503 -0.00000000000E+00 -0.00000000000E+00 -0.10115913104E+04  0.10115913104E+04  0.00000000000E+00 0. -1.
          6    1    1    2  501    0 -0.29075134396E+02  0.64549440040E+02 -0.26372832480E+03  0.32325473384E+03  0.17300000000E+03 0. -1.
         -6    1    1    2    0  503  0.29075134396E+02 -0.64549440040E+02 -0.70593538744E+03  0.73026417473E+03  0.17300000000E+03 0. -1.
<mgrwt>
<rscale>  2 0.18692510E+03</rscale>
<asrwt>0</asrwt>
<pdfrwt beam="1">  1       21 0.64503998E-02 0.18692510E+03</pdfrwt>
<pdfrwt beam="2">  1       21 0.15562943E+00 0.18692510E+03</pdfrwt>
<totfact> 0.47373113E+04</totfact>
</mgrwt>
</event>
<event>
 4    1  0.1252123E+000  0.1744928E+03  0.7546771E-02  0.1173242E+00
         21   -1    0    0  501  502  0.00000000000E+00  0.00000000000E+00  0.72571149547E+03  0.72571149547E+03  0.00000000000E+00 0. -1.
         21   -1    0    0  502  503 -0.00000000000E+00 -0.00000000000E+00 -0.42616561609E+02  0.42616561609E+02  0.00000000000E+00 0. -1.
          6    1    1    2  501    0 -0.17118436730E+02  0.15023364077E+02  0.29370882061E+03  0.34163227841E+03  0.17300000000E+03 0.  1.
         -6    1    1    2    0  503  0.17118436730E+02 -0.15023364077E+02  0.38938611325E+03  0.42669577867E+03  0.17300000000E+03 0.  1.
<mgrwt>
<rscale>  2 0.17449281E+03</rscale>
<asrwt>0</asrwt>
<pdfrwt beam="1">  1       21 0.11164791E+00 0.17449281E+03</pdfrwt>
<pdfrwt beam="2">  1       21 0.65563947E-02 0.17449281E+03</pdfrwt>
<totfact> 0.10749699E+05</totfact>
</mgrwt>
</event>
<event>
 4    1  0.1252123E+000  0.1915597E+03  0.7546771E-02  0.1157062E+00
         21   -1    0    0  501  502  0.00000000000E+00  0.00000000000E+00  0.73291374524E+02  0.73291374524E+02  0.00000000000E+00 0.  1.
         21   -1    0    0  502  503 -0.00000000000E+00 -0.00000000000E+00 -0.58525615292E+03  0.58525615292E+03  0.00000000000E+00 0. -1.
          6    1    1    2  501    0  0.62880557412E+02  0.53029689345E+02 -0.13080595890E+03  0.23195971921E+03  0.17300000000E+03 0.  1.
         -6    1    1    2    0  503 -0.62880557412E+02 -0.53029689345E+02 -0.38115881951E+03  0.42658780824E+03  0.17300000000E+03 0. -1.
<mgrwt>
<rscale>  2 0.19155968E+03</rscale>
<asrwt>0</asrwt>
<pdfrwt beam="1">  1       21 0.11275596E-01 0.19155968E+03</pdfrwt>
<pdfrwt beam="2">  1       21 0.90039409E-01 0.19155968E+03</pdfrwt>
<totfact> 0.68864802E+04</totfact>
</mgrwt>
</event>
<event>
 4    1  0.1252123E+000  0.1934645E+03  0.7546771E-02  0.1155373E+00
         21   -1    0    0  503  502  0.00000000000E+00  0.00000000000E+00  0.57470646569E+03  0.57470646569E+03  0.00000000000E+00 0. -1.
         21   -1    0    0  501  503 -0.00000000000E+00 -0.00000000000E+00 -0.74236801112E+02  0.74236801112E+02  0.00000000000E+00 0. -1.
          6    1    1    2  501    0 -0.39486764047E+02 -0.77073452851E+02  0.13656699930E+03  0.23681019186E+03  0.17300000000E+03 0. -1.
         -6    1    1    2    0  502  0.39486764047E+02  0.77073452851E+02  0.36390266528E+03  0.41213307495E+03  0.17300000000E+03 0. -1.
<mgrwt>
<rscale>  2 0.19346452E+03</rscale>
<asrwt>0</asrwt>
<pdfrwt beam="1">  1       21 0.88416377E-01 0.19346452E+03</pdfrwt>
<pdfrwt beam="2">  1       21 0.11421047E-01 0.19346452E+03</pdfrwt>
<totfact> 0.70139763E+04</totfact>
</mgrwt>
</event>
<event>
 4    1  0.1252123E+000  0.1742508E+03  0.7546771E-02  0.1173486E+00
         21   -1    0    0  501  502  0.00000000000E+00  0.00000000000E+00  0.24023124126E+03  0.24023124126E+03  0.00000000000E+00 0. -1.
         21   -1    0    0  502  503 -0.00000000000E+00 -0.00000000000E+00 -0.13073437295E+03  0.13073437295E+03  0.00000000000E+00 0. -1.
          6    1    1    2  501    0  0.16361417070E+02  0.12909676031E+02  0.88551975248E+02  0.19546050247E+03  0.17300000000E+03 0. -1.
         -6    1    1    2    0  503 -0.16361417070E+02 -0.12909676031E+02  0.20944893062E+02  0.17550511175E+03  0.17300000000E+03 0. -1.
<mgrwt>
<rscale>  2 0.17425084E+03</rscale>
<asrwt>0</asrwt>
<pdfrwt beam="1">  1       21 0.36958652E-01 0.17425084E+03</pdfrwt>
<pdfrwt beam="2">  1       21 0.20112981E-01 0.17425084E+03</pdfrwt>
<totfact> 0.16221089E+05</totfact>
</mgrwt>
</event>
<event>
 4    1  0.1252123E+000  0.2129533E+03  0.7546771E-02  0.1139248E+00
         21   -1    0    0  503  502  0.00000000000E+00  0.00000000000E+00  0.29289832810E+03  0.29289832810E+03  0.00000000000E+00 0. -1.
         21   -1    0    0  501  503 -0.00000000000E+00 -0.00000000000E+00 -0.16738730974E+03  0.16738730974E+03  0.00000000000E+00 0. -1.
          6    1    1    2  501    0 -0.12417469388E+03 -0.86550185013E+00 -0.28283567957E+00  0.21295347776E+03  0.17300000000E+03 0. -1.
         -6    1    1    2    0  502  0.12417469388E+03  0.86550185013E+00  0.12579385404E+03  0.24733216008E+03  0.17300000000E+03 0. -1.
<mgrwt>
<rscale>  2 0.21295329E+03</rscale>
<asrwt>0</asrwt>
<pdfrwt beam="1">  1       21 0.45061281E-01 0.21295329E+03</pdfrwt>
<pdfrwt beam="2">  1       21 0.25751894E-01 0.21295329E+03</pdfrwt>
<totfact> 0.67023061E+04</totfact>
</mgrwt>
</event>
<event>
 4    1  0.1252123E+000  0.1966699E+03  0.7546771E-02  0.1152579E+00
         21   -1    0    0  503  502  0.00000000000E+00  0.00000000000E+00  0.68573916796E+02  0.68573916796E+02  0.00000000000E+00 0.  1.
         21   -1    0    0  501  503 -0.00000000000E+00 -0.00000000000E+00 -0.69644465480E+03  0.69644465480E+03  0.00000000000E+00 0.  1.
          6    1    1    2  501    0  0.40479410950E+02 -0.84329460470E+02 -0.48071221214E+03  0.51938740023E+03  0.17300000000E+03 0.  1.
         -6    1    1    2    0  502 -0.40479410950E+02  0.84329460470E+02 -0.14715852587E+03  0.24563117137E+03  0.17300000000E+03 0.  1.
<mgrwt>
<rscale>  2 0.19666988E+03</rscale>
<asrwt>0</asrwt>
<pdfrwt beam="1">  1       21 0.10549834E-01 0.19666988E+03</pdfrwt>
<pdfrwt beam="2">  1       21 0.10714532E+00 0.19666988E+03</pdfrwt>
<totfact> 0.51260919E+04</totfact>
</mgrwt>
</event>
<event>
 4    1  0.1252123E+000  0.1800027E+03  0.7546771E-02  0.1167800E+00
         21   -1    0    0  501  502  0.00000000000E+00  0.00000000000E+00  0.29078952633E+03  0.29078952633E+03  0.00000000000E+00 0. -1.
         21   -1    0    0  502  503 -0.00000000000E+00 -0.00000000000E+00 -0.16412789961E+03  0.16412789961E+03  0.00000000000E+00 0. -1.
          6    1    1    2  501    0 -0.44338067426E+02 -0.22496709646E+02  0.19222468387E+03  0.26334634088E+03  0.17300000000E+03 0. -1.
         -6    1    1    2    0  503  0.44338067426E+02  0.22496709646E+02 -0.65563057142E+02  0.19157108506E+03  0.17300000000E+03 0. -1.
<mgrwt>
<rscale>  2 0.18000268E+03</rscale>
<asrwt>0</asrwt>
<pdfrwt beam="1">  1       21 0.44736850E-01 0.18000268E+03</pdfrwt>
<pdfrwt beam="2">  1       21 0.25250446E-01 0.18000268E+03</pdfrwt>
<totfact> 0.71655804E+04</totfact>
</mgrwt>
</event>
<event>
 4    1  0.1252123E+000  0.1895147E+03  0.7546771E-02  0.1158900E+00
         21   -1    0    0  501  502  0.00000000000E+00  0.00000000000E+00  0.10484145252E+03  0.10484145252E+03  0.00000000000E+00 0.  1.
         21   -1    0    0  502  503 -0.00000000000E+00 -0.00000000000E+00 -0.35236240494E+03  0.35236240494E+03  0.00000000000E+00 0.  1.
          6    1    1    2  501    0 -0.77246683945E+02 -0.44471690700E+01 -0.85656683158E+02  0.20797330325E+03  0.17300000000E+03 0.  1.
         -6    1    1    2    0  503  0.77246683945E+02  0.44471690700E+01 -0.16186426926E+03  0.24923055422E+03  0.17300000000E+03 0.  1.
<mgrwt>
<rscale>  2 0.18951472E+03</rscale>
<asrwt>0</asrwt>
<pdfrwt beam="1">  1       21 0.16129454E-01 0.18951472E+03</pdfrwt>
<pdfrwt beam="2">  1       21 0.54209601E-01 0.18951472E+03</pdfrwt>
<totfact> 0.11062527E+05</totfact>
</mgrwt>
</event>
<event>
 4    1  0.1252123E+000  0.2571515E+03  0.7546771E-02  0.1108867E+00
         21   -1    0    0  503  502  0.00000000000E+00  0.00000000000E+00  0.12905385314E+04  0.12905385314E+04  0.00000000000E+00 0.  1.
         21   -1    0    0  501  503 -0.00000000000E+00 -0.00000000000E+00 -0.77643899848E+02  0.77643899848E+02  0.00000000000E+00 0.  1.
          6    1    1    2  501    0 -0.16633452823E+03 -0.92361971037E+02  0.20751777201E+03  0.33043991084E+03  0.17300000000E+03 0.  1.
         -6    1    1    2    0  502  0.16633452823E+03  0.92361971037E+02  0.10053768596E+04  0.10377425205E+04  0.17300000000E+03 0.  1.
<mgrwt>
<rscale>  2 0.25715153E+03</rscale>
<asrwt>0</asrwt>
<pdfrwt beam="1">  1       21 0.19854437E+00 0.25715153E+03</pdfrwt>
<pdfrwt beam="2">  1       21 0.11945216E-01 0.25715153E+03</pdfrwt>
<totfact> 0.77245104E+03</totfact>
</mgrwt>
</event>
<event>
 4    1  0.1252123E+000  0.2058007E+03  0.7546771E-02  0.1144935E+00
         21   -1    0    0  503  502  0.00000000000E+00  0.00000000000E+00  0.29281322051E+03  0.29281322051E+03  0.00000000000E+00 0.  1.
         21   -1    0    0  501  503 -0.00000000000E+00 -0.00000000000E+00 -0.16386484585E+03  0.16386484585E+03  0.00000000000E+00 0.  1.
          6    1    1    2  501    0  0.69534481979E+02  0.87119920502E+02 -0.13727097999E+02  0.20625798882E+03  0.17300000000E+03 0. -1.
         -6    1    1    2    0  502 -0.69534481979E+02 -0.87119920502E+02  0.14267547266E+03  0.25042007753E+03  0.17300000000E+03 0. -1.
<mgrwt>
<rscale>  2 0.20580069E+03</rscale>
<asrwt>0</asrwt>
<pdfrwt beam="1">  1       21 0.45048188E-01 0.20580069E+03</pdfrwt>
<pdfrwt beam="2">  1       21 0.25209976E-01 0.20580069E+03</pdfrwt>
<totfact> 0.70070693E+04</totfact>
</mgrwt>
</event>
<event>
 4    1  0.1252123E+000  0.1838435E+03  0.7546771E-02  0.1164134E+00
         21   -1    0    0  503  502  0.00000000000E+00  0.00000000000E+00  0.35955111893E+03  0.35955111893E+03  0.00000000000E+00 0.  1.
         21   -1    0    0  501  503 -0.00000000000E+00 -0.00000000000E+00 -0.94431812273E+02  0.94431812273E+02  0.00000000000E+00 0.  1.
          6    1    1    2  501    0  0.24340183857E+02  0.57244930355E+02  0.11724077444E+03  0.21804546726E+03  0.17300000000E+03 0.  1.
         -6    1    1    2    0  502 -0.24340183857E+02 -0.57244930355E+02  0.14787853223E+03  0.23593746395E+03  0.17300000000E+03 0.  1.
<mgrwt>
<rscale>  2 0.18384348E+03</rscale>
<asrwt>0</asrwt>
<pdfrwt beam="1">  1       21 0.55315556E-01 0.18384348E+03</pdfrwt>
<pdfrwt beam="2">  1       21 0.14527971E-01 0.18384348E+03</pdfrwt>
<totfact> 0.12851688E+05</totfact>
</mgrwt>
</event>
<event>
 4    1  0.1252123E+000  0.1789017E+03  0.7546771E-02  0.1168870E+00
         21   -1    0    0  501  502  0.00000000000E+00  0.00000000000E+00  0.15420496255E+03  0.15420496255E+03  0.00000000000E+00 0. -1.
         21   -1    0    0  502  503 -0.00000000000E+00 -0.00000000000E+00 -0.21204603761E+03  0.21204603761E+03  0.00000000000E+00 0.  1.
          6    1    1    2  501    0 -0.53637846381E+00  0.45568801133E+02 -0.22659361013E+01  0.17891600768E+03  0.17300000000E+03 0. -1.
         -6    1    1    2    0  503  0.53637846381E+00 -0.45568801133E+02 -0.55575138960E+02  0.18733499248E+03  0.17300000000E+03 0.  1.
<mgrwt>
<rscale>  2 0.17890166E+03</rscale>
<asrwt>0</asrwt>
<pdfrwt beam="1">  1       21 0.23723840E-01 0.17890166E+03</pdfrwt>
<pdfrwt beam="2">  1       21 0.32622467E-01 0.17890166E+03</pdfrwt>
<totfact> 0.15201176E+05</totfact>
</mgrwt>
</event>
<event>
 4    1  0.1252123E+000  0.1773706E+03  0.7546771E-02  0.1170372E+00
         21   -1    0    0  501  502  0.00000000000E+00  0.00000000000E+00  0.16784581642E+04  0.16784581642E+04  0.00000000000E+00 0. -1.
         21   -1    0    0  502  503 -0.00000000000E+00 -0.00000000000E+00 -0.19956149445E+02  0.19956149445E+02  0.00000000000E+00 0. -1.
          6    1    1    2  501    0  0.39125702972E+02 -0.71396124506E+00  0.10385788168E+04  0.10536158166E+04  0.17300000000E+03 0. -1.
         -6    1    1    2    0  503 -0.39125702972E+02  0.71396124506E+00  0.61992319797E+03  0.64479849702E+03  0.17300000000E+03 0. -1.
<mgrwt>
<rscale>  2 0.17737060E+03</rscale>
<asrwt>0</asrwt>
<pdfrwt beam="1">  1       21 0.25822422E+00 0.17737060E+03</pdfrwt>
<pdfrwt beam="2">  1       21 0.30701781E-02 0.17737060E+03</pdfrwt>
<totfact> 0.36713551E+04</totfact>
</mgrwt>
</event>
<event>
 4    1  0.1252123E+000  0.1905599E+03  0.7546771E-02  0.1157957E+00
         21   -1    0    0  501  502  0.00000000000E+00  0.00000000000E+00  0.14349032645E+03  0.14349032645E+03  0.00000000000E+00 0.  1.
         21   -1    0    0  502  503 -0.00000000000E+00 -0.00000000000E+00 -0.27723438895E+03  0.27723438895E+03  0.00000000000E+00 0. -1.
          6    1    1    2  501    0  0.31381250962E+02 -0.73479943136E+02 -0.47660915795E+01  0.19061951785E+03  0.17300000000E+03 0.  1.
         -6    1    1    2    0  503 -0.31381250962E+02  0.73479943136E+02 -0.12897797092E+03  0.23010519755E+03  0.17300000000E+03 0. -1.
<mgrwt>
<rscale>  2 0.19055992E+03</rscale>
<asrwt>0</asrwt>
<pdfrwt beam="1">  1       21 0.22075435E-01 0.19055992E+03</pdfrwt>
<pdfrwt beam="2">  1       21 0.42651444E-01 0.19055992E+03</pdfrwt>
<totfact> 0.10149897E+05</totfact>
</mgrwt>
</event>
<event>
 4    1  0.1252123E+000  0.3560373E+03  0.7546771E-02  0.1060164E+00
         21   -1    0    0  501  502  0.00000000000E+00  0.00000000000E+00  0.70716186304E+03  0.70716186304E+03  0.00000000000E+00 0.  1.
         21   -1    0    0  502  503 -0.00000000000E+00 -0.00000000000E+00 -0.24193234128E+03  0.24193234128E+03  0.00000000000E+00 0.  1.
          6    1    1    2  501    0 -0.29725237696E+02 -0.30975797314E+03  0.47415317708E+03  0.59294504553E+03  0.17300000000E+03 0.  1.
         -6    1    1    2    0  503  0.29725237696E+02  0.30975797314E+03 -0.89236553153E+01  0.35614915879E+03  0.17300000000E+03 0.  1.
<mgrwt>
<rscale>  2 0.35603735E+03</rscale>
<asrwt>0</asrwt>
<pdfrwt beam="1">  1       21 0.10879413E+00 0.35603735E+03</pdfrwt>
<pdfrwt beam="2">  1       21 0.37220360E-01 0.35603735E+03</pdfrwt>
<totfact> 0.42328263E+03</totfact>
</mgrwt>
</event>
<event>
 4    1  0.1252123E+000  0.2488813E+03  0.7546771E-02  0.1114014E+00
         21   -1    0    0  501  502  0.00000000000E+00  0.00000000000E+00  0.13468043397E+03  0.13468043397E+03  0.00000000000E+00 0. -1.
         21   -1    0    0  502  503 -0.00000000000E+00 -0.00000000000E+00 -0.55752952218E+03  0.55752952218E+03  0.00000000000E+00 0.  1.
          6    1    1    2  501    0 -0.59234119606E+02  0.16883187792E+03 -0.66605511602E+02  0.25763962836E+03  0.17300000000E+03 0. -1.
         -6    1    1    2    0  503  0.59234119606E+02 -0.16883187792E+03 -0.35624357661E+03  0.43457032780E+03  0.17300000000E+03 0.  1.
<mgrwt>
<rscale>  2 0.24888126E+03</rscale>
<asrwt>0</asrwt>
<pdfrwt beam="1">  1       21 0.20720067E-01 0.24888126E+03</pdfrwt>
<pdfrwt beam="2">  1       21 0.85773772E-01 0.24888126E+03</pdfrwt>
<totfact> 0.24605863E+04</totfact>
</mgrwt>
</event>
<event>
 4    1  0.1252123E+000  0.2212464E+03  0.7546771E-02  0.1132957E+00
         21   -1    0    0  501  502  0.00000000000E+00  0.00000000000E+00  0.40776524472E+03  0.40776524472E+03  0.00000000000E+00 0. -1.
         21   -1    0    0  502  503 -0.00000000000E+00 -0.00000000000E+00 -0.16661749457E+03  0.16661749457E+03  0.00000000000E+00 0. -1.
          6    1    1    2  501    0 -0.10257165252E+03 -0.92195512045E+02  0.27241114242E+03  0.35093843742E+03  0.17300000000E+03 0. -1.
         -6    1    1    2    0  503  0.10257165252E+03  0.92195512045E+02 -0.31263392273E+02  0.22344430187E+03  0.17300000000E+03 0. -1.
<mgrwt>
<rscale>  2 0.22124637E+03</rscale>
<asrwt>0</asrwt>
<pdfrwt beam="1">  1       21 0.62733114E-01 0.22124637E+03</pdfrwt>
<pdfrwt beam="2">  1       21 0.25633461E-01 0.22124637E+03</pdfrwt>
<totfact> 0.33485754E+04</totfact>
</mgrwt>
</event>
<event>
 4    1  0.1252123E+000  0.2690381E+03  0.7546771E-02  0.1101831E+00
         21   -1    0    0  501  502  0.00000000000E+00  0.00000000000E+00  0.14327794789E+04  0.14327794789E+04  0.00000000000E+00 0.  1.
         21   -1    0    0  502  503 -0.00000000000E+00 -0.00000000000E+00 -0.67292171307E+02  0.67292171307E+02  0.00000000000E+00 0. -1.
          6    1    1    2  501    0  0.15019209106E+01  0.20603460526E+03  0.30827366685E+03  0.40916276469E+03  0.17300000000E+03 0. -1.
         -6    1    1    2    0  503 -0.15019209106E+01 -0.20603460526E+03  0.10572136407E+04  0.10909088855E+04  0.17300000000E+03 0.  1.
<mgrwt>
<rscale>  2 0.26903813E+03</rscale>
<asrwt>0</asrwt>
<pdfrwt beam="1">  1       21 0.22042759E+00 0.26903813E+03</pdfrwt>
<pdfrwt beam="2">  1       21 0.10352643E-01 0.26903813E+03</pdfrwt>
<totfact> 0.71821999E+03</totfact>
</mgrwt>
</event>
<event>
 4    1  0.1252123E+000  0.2019973E+03  0.7546771E-02  0.1148065E+00
         21   -1    0    0  501  502  0.00000000000E+00  0.00000000000E+00  0.76746218019E+03  0.76746218019E+03  0.00000000000E+00 0.  1.
         21   -1    0    0  502  503 -0.00000000000E+00 -0.00000000000E+00 -0.80966319541E+02  0.80966319541E+02  0.00000000000E+00 0. -1.
          6    1    1    2  501    0  0.11550632499E+02  0.10363630449E+03  0.59182317875E+03  0.62534596474E+03  0.17300000000E+03 0.  1.
         -6    1    1    2    0  503 -0.11550632499E+02 -0.10363630449E+03  0.94672681904E+02  0.22308253499E+03  0.17300000000E+03 0. -1.
<mgrwt>
<rscale>  2 0.20199728E+03</rscale>
<asrwt>0</asrwt>
<pdfrwt beam="1">  1       21 0.11807110E+00 0.20199728E+03</pdfrwt>
<pdfrwt beam="2">  1       21 0.12456357E-01 0.20199728E+03</pdfrwt>
<totfact> 0.30004782E+04</totfact>
</mgrwt>
</event>
<event>
 4    1  0.1252123E+000  0.2135010E+03  0.7546771E-02  0.1138823E+00
         21   -1    0    0  501  502  0.00000000000E+00  0.00000000000E+00  0.81692815672E+03  0.81692815672E+03  0.00000000000E+00 0. -1.
         21   -1    0    0  502  503 -0.00000000000E+00 -0.00000000000E+00 -0.12461887442E+03  0.12461887442E+03  0.00000000000E+00 0.  1.
          6    1    1    2  501    0 -0.20642693203E+02 -0.12340006349E+03  0.69600410372E+03  0.72801401693E+03  0.17300000000E+03 0. -1.
         -6    1    1    2    0  503  0.20642693203E+02  0.12340006349E+03 -0.36948214245E+01  0.21353301421E+03  0.17300000000E+03 0.  1.
<mgrwt>
<rscale>  2 0.21350105E+03</rscale>
<asrwt>0</asrwt>
<pdfrwt beam="1">  1       21 0.12568125E+00 0.21350105E+03</pdfrwt>
<pdfrwt beam="2">  1       21 0.19172135E-01 0.21350105E+03</pdfrwt>
<totfact> 0.11583848E+04</totfact>
</mgrwt>
</event>
<event>
 4    1  0.1252123E+000  0.1846223E+03  0.7546771E-02  0.1163403E+00
         21   -1    0    0  501  502  0.00000000000E+00  0.00000000000E+00  0.82593036184E+03  0.82593036184E+03  0.00000000000E+00 0.  1.
         21   -1    0    0  502  503 -0.00000000000E+00 -0.00000000000E+00 -0.44290449117E+02  0.44290449117E+02  0.00000000000E+00 0.  1.
          6    1    1    2  501    0 -0.12245222478E+02 -0.63296516941E+02  0.50446371609E+03  0.53718622040E+03  0.17300000000E+03 0.  1.
         -6    1    1    2    0  503  0.12245222478E+02  0.63296516941E+02  0.27717619663E+03  0.33303459056E+03  0.17300000000E+03 0.  1.
<mgrwt>
<rscale>  2 0.18462230E+03</rscale>
<asrwt>0</asrwt>
<pdfrwt beam="1">  1       21 0.12706620E+00 0.18462230E+03</pdfrwt>
<pdfrwt beam="2">  1       21 0.68139159E-02 0.18462230E+03</pdfrwt>
<totfact> 0.72827663E+04</totfact>
</mgrwt>
</event>
<event>
 4    1  0.1252123E+000  0.2135287E+03  0.7546771E-02  0.1138802E+00
         21   -1    0    0  501  502  0.00000000000E+00  0.00000000000E+00  0.28901140992E+04  0.28901140992E+04  0.00000000000E+00 0.  1.
         21   -1    0    0  502  503 -0.00000000000E+00 -0.00000000000E+00 -0.22691220896E+02  0.22691220896E+02  0.00000000000E+00 0. -1.
          6    1    1    2  501    0  0.50954292512E+02  0.11432037736E+03  0.22377095580E+04  0.22478742302E+04  0.17300000000E+03 0.  1.
         -6    1    1    2    0  503 -0.50954292512E+02 -0.11432037736E+03  0.62971332024E+03  0.66493108988E+03  0.17300000000E+03 0. -1.
<mgrwt>
<rscale>  2 0.21352866E+03</rscale>
<asrwt>0</asrwt>
<pdfrwt beam="1">  1       21 0.44463265E+00 0.21352866E+03</pdfrwt>
<pdfrwt beam="2">  1       21 0.34909593E-02 0.21352866E+03</pdfrwt>
<totfact> 0.21558386E+03</totfact>
</mgrwt>
</event>
<event>
 4    1  0.1252123E+000  0.1836807E+03  0.7546771E-02  0.1164288E+00
         21   -1    0    0  501  502  0.00000000000E+00  0.00000000000E+00  0.51390075647E+02  0.51390075647E+02  0.00000000000E+00 0.  1.
         21   -1    0    0  502  503 -0.00000000000E+00 -0.00000000000E+00 -0.66448695802E+03  0.66448695802E+03  0.00000000000E+00 0.  1.
          6    1    1    2  501    0  0.56302489175E+02  0.25291059661E+02 -0.26735495970E+03  0.32437213577E+03  0.17300000000E+03 0.  1.
         -6    1    1    2    0  503 -0.56302489175E+02 -0.25291059661E+02 -0.34574192267E+03  0.39150489790E+03  0.17300000000E+03 0.  1.
<mgrwt>
<rscale>  2 0.18368072E+03</rscale>
<asrwt>0</asrwt>
<pdfrwt beam="1">  1       21 0.79061661E-02 0.18368072E+03</pdfrwt>
<pdfrwt beam="2">  1       21 0.10222876E+00 0.18368072E+03</pdfrwt>
<totfact> 0.95772247E+04</totfact>
</mgrwt>
</event>
<event>
 4    1  0.1252123E+000  0.2151194E+03  0.7546771E-02  0.1137575E+00
         21   -1    0    0  501  502  0.00000000000E+00  0.00000000000E+00  0.23086861516E+03  0.23086861516E+03  0.00000000000E+00 0.  1.
         21   -1    0    0  502  503 -0.00000000000E+00 -0.00000000000E+00 -0.29852801057E+03  0.29852801057E+03  0.00000000000E+00 0.  1.
          6    1    1    2  501    0  0.11941276360E+03 -0.45694230928E+02  0.11789503267E+03  0.24530717392E+03  0.17300000000E+03 0.  1.
         -6    1    1    2    0  503 -0.11941276360E+03  0.45694230928E+02 -0.18555442808E+03  0.28408945181E+03  0.17300000000E+03 0.  1.
<mgrwt>
<rscale>  2 0.21511943E+03</rscale>
<asrwt>0</asrwt>
<pdfrwt beam="1">  1       21 0.35518249E-01 0.21511943E+03</pdfrwt>
<pdfrwt beam="2">  1       21 0.45927386E-01 0.21511943E+03</pdfrwt>
<totfact> 0.34323331E+04</totfact>
</mgrwt>
</event>
<event>
 4    1  0.1252123E+000  0.2463093E+03  0.7546771E-02  0.1115660E+00
         21   -1    0    0  501  502  0.00000000000E+00  0.00000000000E+00  0.24834122839E+03  0.24834122839E+03  0.00000000000E+00 0. -1.
         21   -1    0    0  502  503 -0.00000000000E+00 -0.00000000000E+00 -0.24933131487E+03  0.24933131487E+03  0.00000000000E+00 0. -1.
          6    1    1    2  501    0  0.33369770049E+01  0.17529438285E+03  0.34874348720E+02  0.24876590657E+03  0.17300000000E+03 0. -1.
         -6    1    1    2    0  503 -0.33369770049E+01 -0.17529438285E+03 -0.35864435206E+02  0.24890663669E+03  0.17300000000E+03 0. -1.
<mgrwt>
<rscale>  2 0.24630927E+03</rscale>
<asrwt>0</asrwt>
<pdfrwt beam="1">  1       21 0.38206343E-01 0.24630927E+03</pdfrwt>
<pdfrwt beam="2">  1       21 0.38358664E-01 0.24630927E+03</pdfrwt>
<totfact> 0.42229376E+04</totfact>
</mgrwt>
</event>
<event>
 4    1  0.1252123E+000  0.2553278E+03  0.7546771E-02  0.1109983E+00
         21   -1    0    0  501  502  0.00000000000E+00  0.00000000000E+00  0.86970852937E+03  0.86970852937E+03  0.00000000000E+00 0.  1.
         21   -1    0    0  502  503 -0.00000000000E+00 -0.00000000000E+00 -0.85890262902E+02  0.85890262902E+02  0.00000000000E+00 0. -1.
          6    1    1    2  501    0  0.55011047848E+02  0.17954690844E+03  0.22145294478E+03  0.33798478437E+03  0.17300000000E+03 0.  1.
         -6    1    1    2    0  503 -0.55011047848E+02 -0.17954690844E+03  0.56236532170E+03  0.61761400791E+03  0.17300000000E+03 0. -1.
<mgrwt>
<rscale>  2 0.25532784E+03</rscale>
<asrwt>0</asrwt>
<pdfrwt beam="1">  1       21 0.13380131E+00 0.25532784E+03</pdfrwt>
<pdfrwt beam="2">  1       21 0.13213887E-01 0.25532784E+03</pdfrwt>
<totfact> 0.19113769E+04</totfact>
</mgrwt>
</event>
<event>
 4    1  0.1252123E+000  0.2268533E+03  0.7546771E-02  0.1128874E+00
         21   -1    0    0  503  502  0.00000000000E+00  0.00000000000E+00  0.10496539122E+03  0.10496539122E+03  0.00000000000E+00 0. -1.
         21   -1    0    0  501  503 -0.00000000000E+00 -0.00000000000E+00 -0.51400855836E+03  0.51400855836E+03  0.00000000000E+00 0. -1.
          6    1    1    2  501    0  0.12170790398E+03 -0.81979167957E+02 -0.27101763442E+03  0.35343027040E+03  0.17300000000E+03 0. -1.
         -6    1    1    2    0  502 -0.12170790398E+03  0.81979167957E+02 -0.13802553272E+03  0.26554367918E+03  0.17300000000E+03 0. -1.
<mgrwt>
<rscale>  2 0.22685325E+03</rscale>
<asrwt>0</asrwt>
<pdfrwt beam="1">  1       21 0.16148522E-01 0.22685325E+03</pdfrwt>
<pdfrwt beam="2">  1       21 0.79078240E-01 0.22685325E+03</pdfrwt>
<totfact> 0.47607513E+04</totfact>
</mgrwt>
</event>
<event>
 4    1  0.1252123E+000  0.2344481E+03  0.7546771E-02  0.1123548E+00
         21   -1    0    0  501  502  0.00000000000E+00  0.00000000000E+00  0.75439061667E+03  0.75439061667E+03  0.00000000000E+00 0. -1.
         21   -1    0    0  502  503 -0.00000000000E+00 -0.00000000000E+00 -0.73838071299E+02  0.73838071299E+02  0.00000000000E+00 0. -1.
          6    1    1    2  501    0 -0.76953147709E+02 -0.13825743152E+03  0.38790507796E+03  0.45325076263E+03  0.17300000000E+03 0. -1.
         -6    1    1    2    0  503  0.76953147709E+02  0.13825743152E+03  0.29264746741E+03  0.37497792535E+03  0.17300000000E+03 0. -1.
<mgrwt>
<rscale>  2 0.23444808E+03</rscale>
<asrwt>0</asrwt>
<pdfrwt beam="1">  1       21 0.11606009E+00 0.23444808E+03</pdfrwt>
<pdfrwt beam="2">  1       21 0.11359704E-01 0.23444808E+03</pdfrwt>
<totfact> 0.36285503E+04</totfact>
</mgrwt>
</event>
<event>
 4    1  0.1252123E+000  0.2300288E+03  0.7546771E-02  0.1126619E+00
         21   -1    0    0  503  502  0.00000000000E+00  0.00000000000E+00  0.20724939462E+03  0.20724939462E+03  0.00000000000E+00 0.  1.
         21   -1    0    0  501  503 -0.00000000000E+00 -0.00000000000E+00 -0.26795234240E+03  0.26795234240E+03  0.00000000000E+00 0. -1.
          6    1    1    2  501    0 -0.34548632840E+02  0.14761656555E+03  0.21254333799E+02  0.23100866902E+03  0.17300000000E+03 0.  1.
         -6    1    1    2    0  502  0.34548632840E+02 -0.14761656555E+03 -0.81957281583E+02  0.24419306800E+03  0.17300000000E+03 0. -1.
<mgrwt>
<rscale>  2 0.23002882E+03</rscale>
<asrwt>0</asrwt>
<pdfrwt beam="1">  1       21 0.31884522E-01 0.23002882E+03</pdfrwt>
<pdfrwt beam="2">  1       21 0.41223438E-01 0.23002882E+03</pdfrwt>
<totfact> 0.52697404E+04</totfact>
</mgrwt>
</event>
<event>
 4    1  0.1252123E+000  0.2422421E+03  0.7546771E-02  0.1118308E+00
         21   -1    0    0  503  502  0.00000000000E+00  0.00000000000E+00  0.34246246543E+03  0.34246246543E+03  0.00000000000E+00 0.  1.
         21   -1    0    0  501  503 -0.00000000000E+00 -0.00000000000E+00 -0.19092140433E+03  0.19092140433E+03  0.00000000000E+00 0.  1.
          6    1    1    2  501    0 -0.14948002268E+03  0.80049777519E+02 -0.96149107622E+01  0.24243285786E+03  0.17300000000E+03 0.  1.
         -6    1    1    2    0  502  0.14948002268E+03 -0.80049777519E+02  0.16115597186E+03  0.29095101190E+03  0.17300000000E+03 0.  1.
<mgrwt>
<rscale>  2 0.24224212E+03</rscale>
<asrwt>0</asrwt>
<pdfrwt beam="1">  1       21 0.52686533E-01 0.24224212E+03</pdfrwt>
<pdfrwt beam="2">  1       21 0.29372524E-01 0.24224212E+03</pdfrwt>
<totfact> 0.37016722E+04</totfact>
</mgrwt>
</event>
<event>
 4    1  0.1252123E+000  0.2153076E+03  0.7546771E-02  0.1137431E+00
         21   -1    0    0  503  502  0.00000000000E+00  0.00000000000E+00  0.96607134616E+03  0.96607134616E+03  0.00000000000E+00 0. -1.
         21   -1    0    0  501  503 -0.00000000000E+00 -0.00000000000E+00 -0.48005888114E+02  0.48005888114E+02  0.00000000000E+00 0. -1.
          6    1    1    2  501    0 -0.11518453044E+03  0.56221712214E+02  0.44856774808E+03  0.49756444969E+03  0.17300000000E+03 0. -1.
         -6    1    1    2    0  502  0.11518453044E+03 -0.56221712214E+02  0.46949770996E+03  0.51651278458E+03  0.17300000000E+03 0. -1.
<mgrwt>
<rscale>  2 0.21530759E+03</rscale>
<asrwt>0</asrwt>
<pdfrwt beam="1">  1       21 0.14862635E+00 0.21530759E+03</pdfrwt>
<pdfrwt beam="2">  1       21 0.73855220E-02 0.21530759E+03</pdfrwt>
<totfact> 0.41671303E+04</totfact>
</mgrwt>
</event>
<event>
 4    1  0.1252123E+000  0.2101997E+03  0.7546771E-02  0.1141408E+00
         21   -1    0    0  501  502  0.00000000000E+00  0.00000000000E+00  0.10905033757E+03  0.10905033757E+03  0.00000000000E+00 0.  1.
         21   -1    0    0  502  503 -0.00000000000E+00 -0.00000000000E+00 -0.41203661566E+03  0.41203661566E+03  0.00000000000E+00 0.  1.
          6    1    1    2  501    0  0.18057317151E+02 -0.11802052946E+03 -0.11785844395E+03  0.24098656578E+03  0.17300000000E+03 0. -1.
         -6    1    1    2    0  503 -0.18057317151E+02  0.11802052946E+03 -0.18512783414E+03  0.28010038745E+03  0.17300000000E+03 0. -1.
<mgrwt>
<rscale>  2 0.21019970E+03</rscale>
<asrwt>0</asrwt>
<pdfrwt beam="1">  1       21 0.16776975E-01 0.21019970E+03</pdfrwt>
<pdfrwt beam="2">  1       21 0.63390247E-01 0.21019970E+03</pdfrwt>
<totfact> 0.72994427E+04</totfact>
</mgrwt>
</event>
<event>
 4    1  0.1252123E+000  0.2253609E+03  0.7546771E-02  0.1129948E+00
         21   -1    0    0  503  502  0.00000000000E+00  0.00000000000E+00  0.47419794662E+02  0.47419794662E+02  0.00000000000E+00 0. -1.
         21   -1    0    0  501  503 -0.00000000000E+00 -0.00000000000E+00 -0.11198211228E+04  0.11198211228E+04  0.00000000000E+00 0.  1.
          6    1    1    2  501    0  0.13516144014E+03 -0.50891239103E+02 -0.65803579342E+03  0.69555635180E+03  0.17300000000E+03 0. -1.
         -6    1    1    2    0  502 -0.13516144014E+03  0.50891239103E+02 -0.41436553475E+03  0.47168456569E+03  0.17300000000E+03 0.  1.
<mgrwt>
<rscale>  2 0.22536090E+03</rscale>
<asrwt>0</asrwt>
<pdfrwt beam="1">  1       21 0.72953542E-02 0.22536090E+03</pdfrwt>
<pdfrwt beam="2">  1       21 0.17228015E+00 0.22536090E+03</pdfrwt>
<totfact> 0.28366149E+04</totfact>
</mgrwt>
</event>
<event>
 4    1  0.1252123E+000  0.1776989E+03  0.7546771E-02  0.1170049E+00
         21   -1    0    0  501  502  0.00000000000E+00  0.00000000000E+00  0.94981634303E+02  0.94981634303E+02  0.00000000000E+00 0.  1.
         21   -1    0    0  502  503 -0.00000000000E+00 -0.00000000000E+00 -0.34827376510E+03  0.34827376510E+03  0.00000000000E+00 0.  1.
          6    1    1    2  501    0 -0.40001667795E+01 -0.40396656273E+02 -0.79409000497E+02  0.19463473619E+03  0.17300000000E+03 0.  1.
         -6    1    1    2    0  503  0.40001667795E+01  0.40396656273E+02 -0.17388313030E+03  0.24862066321E+03  0.17300000000E+03 0.  1.
<mgrwt>
<rscale>  2 0.17769888E+03</rscale>
<asrwt>0</asrwt>
<pdfrwt beam="1">  1       21 0.14612559E-01 0.17769888E+03</pdfrwt>
<pdfrwt beam="2">  1       21 0.53580579E-01 0.17769888E+03</pdfrwt>
<totfact> 0.13630169E+05</totfact>
</mgrwt>
</event>
<event>
 4    1  0.1252123E+000  0.2523219E+03  0.7546771E-02  0.1111846E+00
         21   -1    0    0  503  502  0.00000000000E+00  0.00000000000E+00  0.37985557487E+03  0.37985557487E+03  0.00000000000E+00 0.  1.
         21   -1    0    0  501  503 -0.00000000000E+00 -0.00000000000E+00 -0.29836425823E+03  0.29836425823E+03  0.00000000000E+00 0.  1.
          6    1    1    2  501    0 -0.13239286581E+03  0.12731648082E+03 -0.18374610678E+03  0.31213617055E+03  0.17300000000E+03 0.  1.
         -6    1    1    2    0  502  0.13239286581E+03 -0.12731648082E+03  0.26523742342E+03  0.36608366255E+03  0.17300000000E+03 0.  1.
<mgrwt>
<rscale>  2 0.25232193E+03</rscale>
<asrwt>0</asrwt>
<pdfrwt beam="1">  1       21 0.58439320E-01 0.25232193E+03</pdfrwt>
<pdfrwt beam="2">  1       21 0.45902193E-01 0.25232193E+03</pdfrwt>
<totfact> 0.12034615E+04</totfact>
</mgrwt>
</event>
<event>
 4    1  0.1252123E+000  0.3168052E+03  0.7546771E-02  0.1077129E+00
         21   -1    0    0  503  502  0.00000000000E+00  0.00000000000E+00  0.49732755158E+02  0.49732755158E+02  0.00000000000E+00 0. -1.
         21   -1    0    0  501  503 -0.00000000000E+00 -0.00000000000E+00 -0.22406266689E+04  0.22406266689E+04  0.00000000000E+00 0.  1.
          6    1    1    2  501    0  0.18653970899E+03 -0.18878416526E+03 -0.14563436096E+04  0.14904033794E+04  0.17300000000E+03 0. -1.
         -6    1    1    2    0  502 -0.18653970899E+03  0.18878416526E+03 -0.73455030416E+03  0.79995604468E+03  0.17300000000E+03 0. -1.
<mgrwt>
<rscale>  2 0.31680518E+03</rscale>
<asrwt>0</asrwt>
<pdfrwt beam="1">  1       21 0.76511953E-02 0.31680518E+03</pdfrwt>
<pdfrwt beam="2">  1       21 0.34471169E+00 0.31680518E+03</pdfrwt>
<totfact> 0.21420813E+03</totfact>
</mgrwt>
</event>
<event>
 4    1  0.1252123E+000  0.2246834E+03  0.7546771E-02  0.1130439E+00
         21   -1    0    0  501  502  0.00000000000E+00  0.00000000000E+00  0.62887619616E+02  0.62887619616E+02  0.00000000000E+00 0. -1.
         21   -1    0    0  502  503 -0.00000000000E+00 -0.00000000000E+00 -0.83244210601E+03  0.83244210601E+03  0.00000000000E+00 0. -1.
          6    1    1    2  501    0  0.14739455190E+02 -0.14260561286E+03 -0.30022097161E+03  0.37498699198E+03  0.17300000000E+03 0. -1.
         -6    1    1    2    0  503 -0.14739455190E+02  0.14260561286E+03 -0.46933351479E+03  0.52034273365E+03  0.17300000000E+03 0. -1.
<mgrwt>
<rscale>  2 0.22468336E+03</rscale>
<asrwt>0</asrwt>
<pdfrwt beam="1">  1       21 0.96750185E-02 0.22468336E+03</pdfrwt>
<pdfrwt beam="2">  1       21 0.12806801E+00 0.22468336E+03</pdfrwt>
<totfact> 0.37935725E+04</totfact>
</mgrwt>
</event>
<event>
 4    1  0.1252123E+000  0.2186373E+03  0.7546771E-02  0.1134903E+00
         21   -1    0    0  501  502  0.00000000000E+00  0.00000000000E+00  0.78413277498E+02  0.78413277498E+02  0.00000000000E+00 0. -1.
         21   -1    0    0  502  503 -0.00000000000E+00 -0.00000000000E+00 -0.67824318819E+03  0.67824318819E+03  0.00000000000E+00 0.  1.
          6    1    1    2  501    0  0.11596702030E+03 -0.66520085361E+02 -0.42025570565E+03  0.47372685134E+03  0.17300000000E+03 0.  1.
         -6    1    1    2    0  503 -0.11596702030E+03  0.66520085361E+02 -0.17957420504E+03  0.28292961434E+03  0.17300000000E+03 0. -1.
<mgrwt>
<rscale>  2 0.21863731E+03</rscale>
<asrwt>0</asrwt>
<pdfrwt beam="1">  1       21 0.12063581E-01 0.21863731E+03</pdfrwt>
<pdfrwt beam="2">  1       21 0.10434511E+00 0.21863731E+03</pdfrwt>
<totfact> 0.42532294E+04</totfact>
</mgrwt>
</event>
<event>
 4    1  0.1252123E+000  0.1734804E+03  0.7546771E-02  0.1174266E+00
         21   -1    0    0  501  502  0.00000000000E+00  0.00000000000E+00  0.80055211580E+02  0.80055211580E+02  0.00000000000E+00 0. -1.
         21   -1    0    0  502  503 -0.00000000000E+00 -0.00000000000E+00 -0.48166903395E+03  0.48166903395E+03  0.00000000000E+00 0. -1.
          6    1    1    2  501    0 -0.14903224379E+01 -0.12815583910E+02 -0.69215159903E+02  0.18677847470E+03  0.17300000000E+03 0. -1.
         -6    1    1    2    0  503  0.14903224379E+01  0.12815583910E+02 -0.33239866247E+03  0.37494577083E+03  0.17300000000E+03 0. -1.
<mgrwt>
<rscale>  2 0.17348043E+03</rscale>
<asrwt>0</asrwt>
<pdfrwt beam="1">  1       21 0.12316187E-01 0.17348043E+03</pdfrwt>
<pdfrwt beam="2">  1       21 0.74102927E-01 0.17348043E+03</pdfrwt>
<totfact> 0.92191665E+04</totfact>
</mgrwt>
</event>
<event>
 4    1  0.1252123E+000  0.1850182E+03  0.7546771E-02  0.1163033E+00
         21   -1    0    0  501  502  0.00000000000E+00  0.00000000000E+00  0.17192369630E+03  0.17192369630E+03  0.00000000000E+00 0. -1.
         21   -1    0    0  502  503 -0.00000000000E+00 -0.00000000000E+00 -0.20792547579E+03  0.20792547579E+03  0.00000000000E+00 0. -1.
          6    1    1    2  501    0  0.55343295776E+02 -0.35211418971E+02  0.21105759862E+02  0.18621809126E+03  0.17300000000E+03 0. -1.
         -6    1    1    2    0  503 -0.55343295776E+02  0.35211418971E+02 -0.57107539357E+02  0.19363108083E+03  0.17300000000E+03 0. -1.
<mgrwt>
<rscale>  2 0.18501817E+03</rscale>
<asrwt>0</asrwt>
<pdfrwt beam="1">  1       21 0.26449799E-01 0.18501817E+03</pdfrwt>
<pdfrwt beam="2">  1       21 0.31988535E-01 0.18501817E+03</pdfrwt>
<totfact> 0.12812905E+05</totfact>
</mgrwt>
</event>
<event>
 4    1  0.1252123E+000  0.3527676E+03  0.7546771E-02  0.1061485E+00
         21   -1    0    0  503  502  0.00000000000E+00  0.00000000000E+00  0.12332356902E+04  0.12332356902E+04  0.00000000000E+00 0. -1.
         21   -1    0    0  501  503 -0.00000000000E+00 -0.00000000000E+00 -0.11896234766E+03  0.11896234766E+03  0.00000000000E+00 0. -1.
          6    1    1    2  501    0 -0.29796494797E+03 -0.75715825781E+02  0.29375814950E+03  0.45906300972E+03  0.17300000000E+03 0. -1.
         -6    1    1    2    0  502  0.29796494797E+03  0.75715825781E+02  0.82051519304E+03  0.89313502815E+03  0.17300000000E+03 0. -1.
<mgrwt>
<rscale>  2 0.35276762E+03</rscale>
<asrwt>0</asrwt>
<pdfrwt beam="1">  1       21 0.18972856E+00 0.35276762E+03</pdfrwt>
<pdfrwt beam="2">  1       21 0.18301901E-01 0.35276762E+03</pdfrwt>
<totfact> 0.38186905E+03</totfact>
</mgrwt>
</event>
<event>
 4    1  0.1252123E+000  0.1740157E+03  0.7546771E-02  0.1173724E+00
         21   -1    0    0  503  502  0.00000000000E+00  0.00000000000E+00  0.72786617485E+03  0.72786617485E+03  0.00000000000E+00 0. -1.
         21   -1    0    0  501  503 -0.00000000000E+00 -0.00000000000E+00 -0.51382629690E+02  0.51382629690E+02  0.00000000000E+00 0. -1.
          6    1    1    2  501    0  0.18669001053E+02  0.19866577570E+01  0.16826197754E+03  0.24206109042E+03  0.17300000000E+03 0.  1.
         -6    1    1    2    0  502 -0.18669001053E+02 -0.19866577570E+01  0.50822156762E+03  0.53718771412E+03  0.17300000000E+03 0.  1.
<mgrwt>
<rscale>  2 0.17401574E+03</rscale>
<asrwt>0</asrwt>
<pdfrwt beam="1">  1       21 0.11197940E+00 0.17401574E+03</pdfrwt>
<pdfrwt beam="2">  1       21 0.79050205E-02 0.17401574E+03</pdfrwt>
<totfact> 0.77296867E+04</totfact>
</mgrwt>
</event>
<event>
 4    1  0.1252123E+000  0.2520745E+03  0.7546771E-02  0.1112001E+00
         21   -1    0    0  501  502  0.00000000000E+00  0.00000000000E+00  0.81502689027E+03  0.81502689027E+03  0.00000000000E+00 0.  1.
         21   -1    0    0  502  503 -0.00000000000E+00 -0.00000000000E+00 -0.78117076034E+02  0.78117076034E+02  0.00000000000E+00 0. -1.
          6    1    1    2  501    0 -0.15362987197E+03 -0.10005195101E+03  0.34858958815E+03  0.43018162609E+03  0.17300000000E+03 0.  1.
         -6    1    1    2    0  503  0.15362987197E+03  0.10005195101E+03  0.38832022608E+03  0.46296234021E+03  0.17300000000E+03 0. -1.
<mgrwt>
<rscale>  2 0.25207445E+03</rscale>
<asrwt>0</asrwt>
<pdfrwt beam="1">  1       21 0.12538875E+00 0.25207445E+03</pdfrwt>
<pdfrwt beam="2">  1       21 0.12018012E-01 0.25207445E+03</pdfrwt>
<totfact> 0.26809026E+04</totfact>
</mgrwt>
</event>
<event>
 4    1  0.1252123E+000  0.2896192E+03  0.7546771E-02  0.1090548E+00
         21   -1    0    0  501  502  0.00000000000E+00  0.00000000000E+00  0.32209885374E+03  0.32209885374E+03  0.00000000000E+00 0.  1.
         21   -1    0    0  502  503 -0.00000000000E+00 -0.00000000000E+00 -0.26269796770E+03  0.26269796770E+03  0.00000000000E+00 0. -1.
          6    1    1    2  501    0  0.51170494839E+02  0.22656541356E+03  0.56959841607E+02  0.29516729107E+03  0.17300000000E+03 0.  1.
         -6    1    1    2    0  503 -0.51170494839E+02 -0.22656541356E+03  0.24410444267E+01  0.28962953037E+03  0.17300000000E+03 0. -1.
<mgrwt>
<rscale>  2 0.28961924E+03</rscale>
<asrwt>0</asrwt>
<pdfrwt beam="1">  1       21 0.49553670E-01 0.28961924E+03</pdfrwt>
<pdfrwt beam="2">  1       21 0.40415072E-01 0.28961924E+03</pdfrwt>
<totfact> 0.21831374E+04</totfact>
</mgrwt>
</event>
<event>
 4    1  0.1252123E+000  0.1811189E+03  0.7546771E-02  0.1166725E+00
         21   -1    0    0  501  502  0.00000000000E+00  0.00000000000E+00  0.35636120185E+03  0.35636120185E+03  0.00000000000E+00 0.  1.
         21   -1    0    0  502  503 -0.00000000000E+00 -0.00000000000E+00 -0.12653898210E+03  0.12653898210E+03  0.00000000000E+00 0.  1.
          6    1    1    2  501    0  0.12869080267E+02  0.52052343147E+02  0.24095956637E+03  0.30143916846E+03  0.17300000000E+03 0.  1.
         -6    1    1    2    0  503 -0.12869080267E+02 -0.52052343147E+02 -0.11137346623E+02  0.18146101549E+03  0.17300000000E+03 0.  1.
<mgrwt>
<rscale>  2 0.18111891E+03</rscale>
<asrwt>0</asrwt>
<pdfrwt beam="1">  1       21 0.54824800E-01 0.18111891E+03</pdfrwt>
<pdfrwt beam="2">  1       21 0.19467536E-01 0.18111891E+03</pdfrwt>
<totfact> 0.76595992E+04</totfact>
</mgrwt>
</event>
<event>
 4    1  0.1252123E+000  0.1835518E+03  0.7546771E-02  0.1164409E+00
         21   -1    0    0  503  502  0.00000000000E+00  0.00000000000E+00  0.63560885271E+03  0.63560885271E+03  0.00000000000E+00 0. -1.
         21   -1    0    0  501  503 -0.00000000000E+00 -0.00000000000E+00 -0.12197204009E+03  0.12197204009E+03  0.00000000000E+00 0. -1.
          6    1    1    2  501    0 -0.32575401404E+02  0.51972191707E+02 -0.28011517348E+02  0.18567689838E+03  0.17300000000E+03 0. -1.
         -6    1    1    2    0  502  0.32575401404E+02 -0.51972191707E+02  0.54164832996E+03  0.57190399443E+03  0.17300000000E+03 0. -1.
<mgrwt>
<rscale>  2 0.18355181E+03</rscale>
<asrwt>0</asrwt>
<pdfrwt beam="1">  1       21 0.97785975E-01 0.18355181E+03</pdfrwt>
<pdfrwt beam="2">  1       21 0.18764930E-01 0.18355181E+03</pdfrwt>
<totfact> 0.22620669E+04</totfact>
</mgrwt>
</event>
<event>
 4    1  0.1252123E+000  0.2159985E+03  0.7546771E-02  0.1136902E+00
         21   -1    0    0  501  502  0.00000000000E+00  0.00000000000E+00  0.11362068815E+03  0.11362068815E+03  0.00000000000E+00 0.  1.
         21   -1    0    0  502  503 -0.00000000000E+00 -0.00000000000E+00 -0.42746674533E+03  0.42746674533E+03  0.00000000000E+00 0. -1.
          6    1    1    2  501    0 -0.11146939473E+03  0.65581378943E+02 -0.10322021208E+03  0.23939456010E+03  0.17300000000E+03 0.  1.
         -6    1    1    2    0  503  0.11146939473E+03 -0.65581378943E+02 -0.21062584509E+03  0.30169287338E+03  0.17300000000E+03 0. -1.
<mgrwt>
<rscale>  2 0.21599848E+03</rscale>
<asrwt>0</asrwt>
<pdfrwt beam="1">  1       21 0.17480106E-01 0.21599848E+03</pdfrwt>
<pdfrwt beam="2">  1       21 0.65764115E-01 0.21599848E+03</pdfrwt>
<totfact> 0.62300776E+04</totfact>
</mgrwt>
</event>
<event>
 4    1  0.1252123E+000  0.2624178E+03  0.7546771E-02  0.1105699E+00
         21   -1    0    0  501  502  0.00000000000E+00  0.00000000000E+00  0.77684347783E+02  0.77684347783E+02  0.00000000000E+00 0.  1.
         21   -1    0    0  502  503 -0.00000000000E+00 -0.00000000000E+00 -0.15087372565E+04  0.15087372565E+04  0.00000000000E+00 0. -1.
          6    1    1    2  501    0  0.18287941684E+03  0.74089449625E+02 -0.12249488054E+04  0.12527420738E+04  0.17300000000E+03 0. -1.
         -6    1    1    2    0  503 -0.18287941684E+03 -0.74089449625E+02 -0.20610410331E+03  0.33367953047E+03  0.17300000000E+03 0.  1.
<mgrwt>
<rscale>  2 0.26241785E+03</rscale>
<asrwt>0</asrwt>
<pdfrwt beam="1">  1       21 0.11951439E-01 0.26241785E+03</pdfrwt>
<pdfrwt beam="2">  1       21 0.23211340E+00 0.26241785E+03</pdfrwt>
<totfact> 0.47249074E+03</totfact>
</mgrwt>
</event>
<event>
 4    1  0.1252123E+000  0.1783783E+03  0.7546771E-02  0.1169382E+00
         21   -1    0    0  501  502  0.00000000000E+00  0.00000000000E+00  0.44478023978E+02  0.44478023978E+02  0.00000000000E+00 0. -1.
         21   -1    0    0  502  503 -0.00000000000E+00 -0.00000000000E+00 -0.71789578722E+03  0.71789578722E+03  0.00000000000E+00 0. -1.
          6    1    1    2  501    0 -0.42152753351E+02  0.10629011314E+02 -0.31415771254E+03  0.36126707413E+03  0.17300000000E+03 0.  1.
         -6    1    1    2    0  503  0.42152753351E+02 -0.10629011314E+02 -0.35926005070E+03  0.40110673707E+03  0.17300000000E+03 0.  1.
<mgrwt>
<rscale>  2 0.17837834E+03</rscale>
<asrwt>0</asrwt>
<pdfrwt beam="1">  1       21 0.68427735E-02 0.17837834E+03</pdfrwt>
<pdfrwt beam="2">  1       21 0.11044550E+00 0.17837834E+03</pdfrwt>
<totfact> 0.10235532E+05</totfact>
</mgrwt>
</event>
<event>
 4    1  0.1252123E+000  0.1964140E+03  0.7546771E-02  0.1152800E+00
         21   -1    0    0  503  502  0.00000000000E+00  0.00000000000E+00  0.30128026975E+03  0.30128026975E+03  0.00000000000E+00 0.  1.
         21   -1    0    0  501  503 -0.00000000000E+00 -0.00000000000E+00 -0.17101373109E+03  0.17101373109E+03  0.00000000000E+00 0.  1.
          6    1    1    2  501    0  0.56339705092E+02 -0.73995239118E+02 -0.53232466442E+02  0.20349976232E+03  0.17300000000E+03 0.  1.
         -6    1    1    2    0  502 -0.56339705092E+02  0.73995239118E+02  0.18349900510E+03  0.26879423851E+03  0.17300000000E+03 0.  1.
<mgrwt>
<rscale>  2 0.19641400E+03</rscale>
<asrwt>0</asrwt>
<pdfrwt beam="1">  1       21 0.46350811E-01 0.19641400E+03</pdfrwt>
<pdfrwt beam="2">  1       21 0.26309805E-01 0.19641400E+03</pdfrwt>
<totfact> 0.61142393E+04</totfact>
</mgrwt>
</event>
<event>
 4    1  0.1252123E+000  0.2675059E+03  0.7546771E-02  0.1102716E+00
         21   -1    0    0  501  502  0.00000000000E+00  0.00000000000E+00  0.10208431746E+04  0.10208431746E+04  0.00000000000E+00 0. -1.
         21   -1    0    0  502  503 -0.00000000000E+00 -0.00000000000E+00 -0.70124469981E+02  0.70124469981E+02  0.00000000000E+00 0.  1.
          6    1    1    2  501    0 -0.16623797955E+03 -0.11830200942E+03  0.48588525038E+03  0.55465656745E+03  0.17300000000E+03 0.  1.
         -6    1    1    2    0  503  0.16623797955E+03  0.11830200942E+03  0.46483345427E+03  0.53631107717E+03  0.17300000000E+03 0. -1.
<mgrwt>
<rscale>  2 0.26750595E+03</rscale>
<asrwt>0</asrwt>
<pdfrwt beam="1">  1       21 0.15705278E+00 0.26750595E+03</pdfrwt>
<pdfrwt beam="2">  1       21 0.10788381E-01 0.26750595E+03</pdfrwt>
<totfact> 0.17934397E+04</totfact>
</mgrwt>
</event>
<event>
 4    1  0.1252123E+000  0.2857476E+03  0.7546771E-02  0.1092590E+00
         21   -1    0    0  501  502  0.00000000000E+00  0.00000000000E+00  0.98290810755E+02  0.98290810755E+02  0.00000000000E+00 0. -1.
         21   -1    0    0  502  503 -0.00000000000E+00 -0.00000000000E+00 -0.85601918361E+03  0.85601918361E+03  0.00000000000E+00 0.  1.
          6    1    1    2  501    0 -0.16017249157E+03  0.16145423026E+03 -0.29682714437E+03  0.41201704960E+03  0.17300000000E+03 0. -1.
         -6    1    1    2    0  503  0.16017249157E+03 -0.16145423026E+03 -0.46090122849E+03  0.54229294477E+03  0.17300000000E+03 0.  1.
<mgrwt>
<rscale>  2 0.28574761E+03</rscale>
<asrwt>0</asrwt>
<pdfrwt beam="1">  1       21 0.15121663E-01 0.28574761E+03</pdfrwt>
<pdfrwt beam="2">  1       21 0.13169526E+00 0.28574761E+03</pdfrwt>
<totfact> 0.15328053E+04</totfact>
</mgrwt>
</event>
<event>
 4    1  0.1252123E+000  0.2121471E+03  0.7546771E-02  0.1139877E+00
         21   -1    0    0  501  502  0.00000000000E+00  0.00000000000E+00  0.19316017427E+03  0.19316017427E+03  0.00000000000E+00 0.  1.
         21   -1    0    0  502  503 -0.00000000000E+00 -0.00000000000E+00 -0.29048547978E+03  0.29048547978E+03  0.00000000000E+00 0.  1.
          6    1    1    2  501    0 -0.10884854173E+03 -0.56827578405E+02  0.58912760643E+02  0.22017513954E+03  0.17300000000E+03 0.  1.
         -6    1    1    2    0  503  0.10884854173E+03  0.56827578405E+02 -0.15623806616E+03  0.26347051452E+03  0.17300000000E+03 0.  1.
<mgrwt>
<rscale>  2 0.21214707E+03</rscale>
<asrwt>0</asrwt>
<pdfrwt beam="1">  1       21 0.29716950E-01 0.21214707E+03</pdfrwt>
<pdfrwt beam="2">  1       21 0.44690074E-01 0.21214707E+03</pdfrwt>
<totfact> 0.51688963E+04</totfact>
</mgrwt>
</event>
<event>
 4    1  0.1252123E+000  0.2429908E+03  0.7546771E-02  0.1117816E+00
         21   -1    0    0  501  502  0.00000000000E+00  0.00000000000E+00  0.85982038738E+03  0.85982038738E+03  0.00000000000E+00 0. -1.
         21   -1    0    0  502  503 -0.00000000000E+00 -0.00000000000E+00 -0.69097382140E+02  0.69097382140E+02  0.00000000000E+00 0.  1.
          6    1    1    2  501    0 -0.15050269119E+03 -0.80401833705E+02  0.43185713261E+03  0.49552507293E+03  0.17300000000E+03 0.  1.
         -6    1    1    2    0  503  0.15050269119E+03  0.80401833705E+02  0.35886587263E+03  0.43339269659E+03  0.17300000000E+03 0. -1.
<mgrwt>
<rscale>  2 0.24299077E+03</rscale>
<asrwt>0</asrwt>
<pdfrwt beam="1">  1       21 0.13228005E+00 0.24299077E+03</pdfrwt>
<pdfrwt beam="2">  1       21 0.10630367E-01 0.24299077E+03</pdfrwt>
<totfact> 0.29286646E+04</totfact>
</mgrwt>
</event>
<event>
 4    1  0.1252123E+000  0.1757093E+03  0.7546771E-02  0.1172021E+00
         21   -1    0    0  503  502  0.00000000000E+00  0.00000000000E+00  0.66432522284E+02  0.66432522284E+02  0.00000000000E+00 0.  1.
         21   -1    0    0  501  503 -0.00000000000E+00 -0.00000000000E+00 -0.53971159425E+03  0.53971159425E+03  0.00000000000E+00 0.  1.
          6    1    1    2  501    0  0.15318811000E+02  0.26647454262E+02 -0.34959770744E+03  0.39127012388E+03  0.17300000000E+03 0.  1.
         -6    1    1    2    0  502 -0.15318811000E+02 -0.26647454262E+02 -0.12368136452E+03  0.21487399265E+03  0.17300000000E+03 0.  1.
<mgrwt>
<rscale>  2 0.17570928E+03</rscale>
<asrwt>0</asrwt>
<pdfrwt beam="1">  1       21 0.10220388E-01 0.17570928E+03</pdfrwt>
<pdfrwt beam="2">  1       21 0.83032557E-01 0.17570928E+03</pdfrwt>
<totfact> 0.99364853E+04</totfact>
</mgrwt>
</event>
<event>
 4    1  0.1252123E+000  0.1823228E+03  0.7546771E-02  0.1165574E+00
         21   -1    0    0  501  502  0.00000000000E+00  0.00000000000E+00  0.17070285053E+03  0.17070285053E+03  0.00000000000E+00 0.  1.
         21   -1    0    0  502  503 -0.00000000000E+00 -0.00000000000E+00 -0.20090051004E+03  0.20090051004E+03  0.00000000000E+00 0.  1.
          6    1    1    2  501    0 -0.49894605440E+01  0.57338527138E+02  0.17453991567E+02  0.18315633550E+03  0.17300000000E+03 0.  1.
         -6    1    1    2    0  503  0.49894605440E+01 -0.57338527138E+02 -0.47651651076E+02  0.18844702508E+03  0.17300000000E+03 0.  1.
<mgrwt>
<rscale>  2 0.18232279E+03</rscale>
<asrwt>0</asrwt>
<pdfrwt beam="1">  1       21 0.26261977E-01 0.18232279E+03</pdfrwt>
<pdfrwt beam="2">  1       21 0.30907771E-01 0.18232279E+03</pdfrwt>
<totfact> 0.13905598E+05</totfact>
</mgrwt>
</event>
<event>
 4    1  0.1252123E+000  0.2810475E+03  0.7546771E-02  0.1095118E+00
         21   -1    0    0  503  502  0.00000000000E+00  0.00000000000E+00  0.14930883970E+03  0.14930883970E+03  0.00000000000E+00 0. -1.
         21   -1    0    0  501  503 -0.00000000000E+00 -0.00000000000E+00 -0.54122257507E+03  0.54122257507E+03  0.00000000000E+00 0. -1.
          6    1    1    2  501    0  0.10170692320E+03  0.19675972018E+03 -0.24779540014E+03  0.37468686398E+03  0.17300000000E+03 0. -1.
         -6    1    1    2    0  502 -0.10170692320E+03 -0.19675972018E+03 -0.14411833523E+03  0.31584455079E+03  0.17300000000E+03 0. -1.
<mgrwt>
<rscale>  2 0.28104748E+03</rscale>
<asrwt>0</asrwt>
<pdfrwt beam="1">  1       21 0.22970590E-01 0.28104748E+03</pdfrwt>
<pdfrwt beam="2">  1       21 0.83265012E-01 0.28104748E+03</pdfrwt>
<totfact> 0.21354480E+04</totfact>
</mgrwt>
</event>
<event>
 4    1  0.1252123E+000  0.2175247E+03  0.7546771E-02  0.1135742E+00
         21   -1    0    0  503  502  0.00000000000E+00  0.00000000000E+00  0.54632107590E+02  0.54632107590E+02  0.00000000000E+00 0.  1.
         21   -1    0    0  501  503 -0.00000000000E+00 -0.00000000000E+00 -0.10507499201E+04  0.10507499201E+04  0.00000000000E+00 0.  1.
          6    1    1    2  501    0 -0.12679296750E+03  0.36215180452E+02 -0.72974743815E+03  0.76147772088E+03  0.17300000000E+03 0.  1.
         -6    1    1    2    0  502  0.12679296750E+03 -0.36215180452E+02 -0.26637037433E+03  0.34390430678E+03  0.17300000000E+03 0.  1.
<mgrwt>
<rscale>  2 0.21752470E+03</rscale>
<asrwt>0</asrwt>
<pdfrwt beam="1">  1       21 0.84049399E-02 0.21752470E+03</pdfrwt>
<pdfrwt beam="2">  1       21 0.16165383E+00 0.21752470E+03</pdfrwt>
<totfact> 0.26526820E+04</totfact>
</mgrwt>
</event>
<event>
 4    1  0.1252123E+000  0.2635611E+03  0.7546771E-02  0.1105022E+00
         21   -1    0    0  503  502  0.00000000000E+00  0.00000000000E+00  0.93033792871E+02  0.93033792871E+02  0.00000000000E+00 0. -1.
         21   -1    0    0  501  503 -0.00000000000E+00 -0.00000000000E+00 -0.84714384327E+03  0.84714384327E+03  0.00000000000E+00 0.  1.
          6    1    1    2  501    0 -0.10887722098E+03 -0.16637676909E+03 -0.53895715248E+03  0.59994940682E+03  0.17300000000E+03 0.  1.
         -6    1    1    2    0  502  0.10887722098E+03  0.16637676909E+03 -0.21515289791E+03  0.34022822931E+03  0.17300000000E+03 0.  1.
<mgrwt>
<rscale>  2 0.26356115E+03</rscale>
<asrwt>0</asrwt>
<pdfrwt beam="1">  1       21 0.14312892E-01 0.26356115E+03</pdfrwt>
<pdfrwt beam="2">  1       21 0.13032982E+00 0.26356115E+03</pdfrwt>
<totfact> 0.17601321E+04</totfact>
</mgrwt>
</event>
<event>
 4    1  0.1252123E+000  0.2150200E+03  0.7546771E-02  0.1137651E+00
         21   -1    0    0  501  502  0.00000000000E+00  0.00000000000E+00  0.31920567521E+03  0.31920567521E+03  0.00000000000E+00 0. -1.
         21   -1    0    0  502  503 -0.00000000000E+00 -0.00000000000E+00 -0.15653072927E+03  0.15653072927E+03  0.00000000000E+00 0. -1.
          6    1    1    2  501    0 -0.18679416443E+02  0.12631581504E+03  0.16329626031E+02  0.21563919498E+03  0.17300000000E+03 0. -1.
         -6    1    1    2    0  503  0.18679416443E+02 -0.12631581504E+03  0.14634531991E+03  0.26009720949E+03  0.17300000000E+03 0. -1.
<mgrwt>
<rscale>  2 0.21502001E+03</rscale>
<asrwt>0</asrwt>
<pdfrwt beam="1">  1       21 0.49108565E-01 0.21502001E+03</pdfrwt>
<pdfrwt beam="2">  1       21 0.24081651E-01 0.21502001E+03</pdfrwt>
<totfact> 0.63702185E+04</totfact>
</mgrwt>
</event>
<event>
 4    1  0.1252123E+000  0.2086170E+03  0.7546771E-02  0.1142666E+00
         21   -1    0    0  501  502  0.00000000000E+00  0.00000000000E+00  0.43014803103E+02  0.43014803103E+02  0.00000000000E+00 0. -1.
         21   -1    0    0  502  503 -0.00000000000E+00 -0.00000000000E+00 -0.12610318022E+04  0.12610318022E+04  0.00000000000E+00 0.  1.
          6    1    1    2  501    0 -0.91966857941E+02 -0.71653083066E+02 -0.31912174688E+03  0.38126074621E+03  0.17300000000E+03 0. -1.
         -6    1    1    2    0  503  0.91966857941E+02  0.71653083066E+02 -0.89889525220E+03  0.92278585907E+03  0.17300000000E+03 0. -1.
<mgrwt>
<rscale>  2 0.20861703E+03</rscale>
<asrwt>0</asrwt>
<pdfrwt beam="1">  1       21 0.66176613E-02 0.20861703E+03</pdfrwt>
<pdfrwt beam="2">  1       21 0.19400491E+00 0.20861703E+03</pdfrwt>
<totfact> 0.24188888E+04</totfact>
</mgrwt>
</event>
<event>
 4    1  0.1252123E+000  0.2119392E+03  0.7546771E-02  0.1140039E+00
         21   -1    0    0  503  502  0.00000000000E+00  0.00000000000E+00  0.25867396827E+03  0.25867396827E+03  0.00000000000E+00 0. -1.
         21   -1    0    0  501  503 -0.00000000000E+00 -0.00000000000E+00 -0.19975470709E+03  0.19975470709E+03  0.00000000000E+00 0.  1.
          6    1    1    2  501    0  0.12238238893E+03  0.34326152790E+01 -0.53404932265E+02  0.21856422113E+03  0.17300000000E+03 0. -1.
         -6    1    1    2    0  502 -0.12238238893E+03 -0.34326152790E+01  0.11232419345E+03  0.23986445423E+03  0.17300000000E+03 0. -1.
<mgrwt>
<rscale>  2 0.21193922E+03</rscale>
<asrwt>0</asrwt>
<pdfrwt beam="1">  1       21 0.39795995E-01 0.21193922E+03</pdfrwt>
<pdfrwt beam="2">  1       21 0.30731493E-01 0.21193922E+03</pdfrwt>
<totfact> 0.61333412E+04</totfact>
</mgrwt>
</event>
<event>
 4    1  0.1252123E+000  0.1916128E+03  0.7546771E-02  0.1157015E+00
         21   -1    0    0  503  502  0.00000000000E+00  0.00000000000E+00  0.14467065612E+03  0.14467065612E+03  0.00000000000E+00 0.  1.
         21   -1    0    0  501  503 -0.00000000000E+00 -0.00000000000E+00 -0.41319103265E+03  0.41319103265E+03  0.00000000000E+00 0. -1.
          6    1    1    2  501    0 -0.80140931360E+02 -0.19076273652E+02 -0.30750941409E+03  0.36232238800E+03  0.17300000000E+03 0. -1.
         -6    1    1    2    0  502  0.80140931360E+02  0.19076273652E+02  0.38989037551E+02  0.19553930077E+03  0.17300000000E+03 0.  1.
<mgrwt>
<rscale>  2 0.19161282E+03</rscale>
<asrwt>0</asrwt>
<pdfrwt beam="1">  1       21 0.22257024E-01 0.19161282E+03</pdfrwt>
<pdfrwt beam="2">  1       21 0.63567851E-01 0.19161282E+03</pdfrwt>
<totfact> 0.43224553E+04</totfact>
</mgrwt>
</event>
<event>
 4    1  0.1252123E+000  0.2619705E+03  0.7546771E-02  0.1105965E+00
         21   -1    0    0  503  502  0.00000000000E+00  0.00000000000E+00  0.59538627363E+02  0.59538627363E+02  0.00000000000E+00 0. -1.
         21   -1    0    0  501  503 -0.00000000000E+00 -0.00000000000E+00 -0.17242884532E+04  0.17242884532E+04  0.00000000000E+00 0. -1.
          6    1    1    2  501    0 -0.18979471422E+03 -0.51744673095E+02 -0.13459097700E+04  0.13711679889E+04  0.17300000000E+03 0. -1.
         -6    1    1    2    0  502  0.18979471422E+03  0.51744673095E+02 -0.31884005582E+03  0.41265909166E+03  0.17300000000E+03 0. -1.
<mgrwt>
<rscale>  2 0.26197050E+03</rscale>
<asrwt>0</asrwt>
<pdfrwt beam="1">  1       21 0.91597904E-02 0.26197050E+03</pdfrwt>
<pdfrwt beam="2">  1       21 0.26527510E+00 0.26197050E+03</pdfrwt>
<totfact> 0.48077272E+03</totfact>
</mgrwt>
</event>
<event>
 4    1  0.1252123E+000  0.2500223E+03  0.7546771E-02  0.1113291E+00
         21   -1    0    0  503  502  0.00000000000E+00  0.00000000000E+00  0.70112881573E+03  0.70112881573E+03  0.00000000000E+00 0. -1.
         21   -1    0    0  501  503 -0.00000000000E+00 -0.00000000000E+00 -0.90158851946E+02  0.90158851946E+02  0.00000000000E+00 0. -1.
          6    1    1    2  501    0 -0.17860383637E+03  0.26130911435E+02  0.34717310860E+03  0.42783211922E+03  0.17300000000E+03 0. -1.
         -6    1    1    2    0  502  0.17860383637E+03 -0.26130911435E+02  0.26379685518E+03  0.36345554845E+03  0.17300000000E+03 0. -1.
<mgrwt>
<rscale>  2 0.25002231E+03</rscale>
<asrwt>0</asrwt>
<pdfrwt beam="1">  1       21 0.10786597E+00 0.25002231E+03</pdfrwt>
<pdfrwt beam="2">  1       21 0.13870593E-01 0.25002231E+03</pdfrwt>
<totfact> 0.30041857E+04</totfact>
</mgrwt>
</event>
<event>
 4    1  0.1252123E+000  0.1800009E+03  0.7546771E-02  0.1167802E+00
         21   -1    0    0  501  502  0.00000000000E+00  0.00000000000E+00  0.67683303833E+02  0.67683303833E+02  0.00000000000E+00 0.  1.
         21   -1    0    0  502  503 -0.00000000000E+00 -0.00000000000E+00 -0.50443727935E+03  0.50443727935E+03  0.00000000000E+00 0.  1.
          6    1    1    2  501    0 -0.26130241406E+02 -0.42291132485E+02 -0.28298612417E+03  0.33538258136E+03  0.17300000000E+03 0.  1.
         -6    1    1    2    0  503  0.26130241406E+02  0.42291132485E+02 -0.15376785135E+03  0.23673800183E+03  0.17300000000E+03 0.  1.
<mgrwt>
<rscale>  2 0.18000092E+03</rscale>
<asrwt>0</asrwt>
<pdfrwt beam="1">  1       21 0.10412816E-01 0.18000092E+03</pdfrwt>
<pdfrwt beam="2">  1       21 0.77605733E-01 0.18000092E+03</pdfrwt>
<totfact> 0.11179331E+05</totfact>
</mgrwt>
</event>
<event>
 4    1  0.1252123E+000  0.2301554E+03  0.7546771E-02  0.1126530E+00
         21   -1    0    0  503  502  0.00000000000E+00  0.00000000000E+00  0.46409654805E+03  0.46409654805E+03  0.00000000000E+00 0. -1.
         21   -1    0    0  501  503 -0.00000000000E+00 -0.00000000000E+00 -0.14815799167E+03  0.14815799167E+03  0.00000000000E+00 0.  1.
          6    1    1    2  501    0  0.13885228296E+03 -0.61339463822E+02  0.11279246424E+02  0.23043156838E+03  0.17300000000E+03 0.  1.
         -6    1    1    2    0  502 -0.13885228296E+03  0.61339463822E+02  0.30465930995E+03  0.38182297134E+03  0.17300000000E+03 0. -1.
<mgrwt>
<rscale>  2 0.23015535E+03</rscale>
<asrwt>0</asrwt>
<pdfrwt beam="1">  1       21 0.71399469E-01 0.23015535E+03</pdfrwt>
<pdfrwt beam="2">  1       21 0.22793537E-01 0.23015535E+03</pdfrwt>
<totfact> 0.31398604E+04</totfact>
</mgrwt>
</event>
<event>
 4    1  0.1252123E+000  0.2076895E+03  0.7546771E-02  0.1143409E+00
         21   -1    0    0  501  502  0.00000000000E+00  0.00000000000E+00  0.17362134322E+03  0.17362134322E+03  0.00000000000E+00 0. -1.
         21   -1    0    0  502  503 -0.00000000000E+00 -0.00000000000E+00 -0.26424724495E+03  0.26424724495E+03  0.00000000000E+00 0. -1.
          6    1    1    2  501    0 -0.11469348320E+03  0.71633076037E+01  0.82301224994E+01  0.20785245484E+03  0.17300000000E+03 0. -1.
         -6    1    1    2    0  503  0.11469348320E+03 -0.71633076037E+01 -0.98856024234E+02  0.23001613333E+03  0.17300000000E+03 0. -1.
<mgrwt>
<rscale>  2 0.20768945E+03</rscale>
<asrwt>0</asrwt>
<pdfrwt beam="1">  1       21 0.26710976E-01 0.20768945E+03</pdfrwt>
<pdfrwt beam="2">  1       21 0.40653422E-01 0.20768945E+03</pdfrwt>
<totfact> 0.77274496E+04</totfact>
</mgrwt>
</event>
<event>
 4    1  0.1252123E+000  0.2143785E+03  0.7546771E-02  0.1138145E+00
         21   -1    0    0  503  502  0.00000000000E+00  0.00000000000E+00  0.66149200761E+03  0.66149200761E+03  0.00000000000E+00 0.  1.
         21   -1    0    0  501  503 -0.00000000000E+00 -0.00000000000E+00 -0.11231506392E+03  0.11231506392E+03  0.00000000000E+00 0.  1.
          6    1    1    2  501    0 -0.19306258742E+02 -0.12512564997E+03  0.35641755877E+02  0.21732117860E+03  0.17300000000E+03 0.  1.
         -6    1    1    2    0  502  0.19306258742E+02  0.12512564997E+03  0.51353518781E+03  0.55648589292E+03  0.17300000000E+03 0.  1.
<mgrwt>
<rscale>  2 0.21437854E+03</rscale>
<asrwt>0</asrwt>
<pdfrwt beam="1">  1       21 0.10176800E+00 0.21437854E+03</pdfrwt>
<pdfrwt beam="2">  1       21 0.17279241E-01 0.21437854E+03</pdfrwt>
<totfact> 0.23534040E+04</totfact>
</mgrwt>
</event>
<event>
 4    1  0.1252123E+000  0.2249084E+03  0.7546771E-02  0.1130276E+00
         21   -1    0    0  501  502  0.00000000000E+00  0.00000000000E+00  0.29597996325E+03  0.29597996325E+03  0.00000000000E+00 0.  1.
         21   -1    0    0  502  503 -0.00000000000E+00 -0.00000000000E+00 -0.17142143295E+03  0.17142143295E+03  0.00000000000E+00 0.  1.
          6    1    1    2  501    0 -0.14366746107E+03  0.38026232838E+01  0.49424481163E+02  0.23027500658E+03  0.17300000000E+03 0.  1.
         -6    1    1    2    0  503  0.14366746107E+03 -0.38026232838E+01  0.75134049143E+02  0.23712638962E+03  0.17300000000E+03 0.  1.
<mgrwt>
<rscale>  2 0.22490842E+03</rscale>
<asrwt>0</asrwt>
<pdfrwt beam="1">  1       21 0.45535379E-01 0.22490842E+03</pdfrwt>
<pdfrwt beam="2">  1       21 0.26372528E-01 0.22490842E+03</pdfrwt>
<totfact> 0.62340167E+04</totfact>
</mgrwt>
</event>
<event>
 4    1  0.1252123E+000  0.3240565E+03  0.7546771E-02  0.1073797E+00
         21   -1    0    0  503  502  0.00000000000E+00  0.00000000000E+00  0.57253424287E+02  0.57253424287E+02  0.00000000000E+00 0.  1.
         21   -1    0    0  501  503 -0.00000000000E+00 -0.00000000000E+00 -0.19827544769E+04  0.19827544769E+04  0.00000000000E+00 0. -1.
          6    1    1    2  501    0 -0.96853389921E+02 -0.25632602826E+03 -0.68352727149E+03  0.75645366202E+03  0.17300000000E+03 0.  1.
         -6    1    1    2    0  502  0.96853389921E+02  0.25632602826E+03 -0.12419737812E+04  0.12835542392E+04  0.17300000000E+03 0. -1.
<mgrwt>
<rscale>  2 0.32405649E+03</rscale>
<asrwt>0</asrwt>
<pdfrwt beam="1">  1       21 0.88082187E-02 0.32405649E+03</pdfrwt>
<pdfrwt beam="2">  1       21 0.30503916E+00 0.32405649E+03</pdfrwt>
<totfact> 0.28645212E+03</totfact>
</mgrwt>
</event>
<event>
 4    1  0.1252123E+000  0.1957423E+03  0.7546771E-02  0.1153382E+00
         21   -1    0    0  503  502  0.00000000000E+00  0.00000000000E+00  0.19290354405E+04  0.19290354405E+04  0.00000000000E+00 0.  1.
         21   -1    0    0  501  503 -0.00000000000E+00 -0.00000000000E+00 -0.28798040786E+02  0.28798040786E+02  0.00000000000E+00 0.  1.
          6    1    1    2  501    0  0.40199831757E+02  0.82280189768E+02  0.40482576055E+03  0.44966537837E+03  0.17300000000E+03 0.  1.
         -6    1    1    2    0  502 -0.40199831757E+02 -0.82280189768E+02  0.14954116392E+04  0.15081681029E+04  0.17300000000E+03 0.  1.
<mgrwt>
<rscale>  2 0.19574232E+03</rscale>
<asrwt>0</asrwt>
<pdfrwt beam="1">  1       21 0.29677458E+00 0.19574232E+03</pdfrwt>
<pdfrwt beam="2">  1       21 0.44304693E-02 0.19574232E+03</pdfrwt>
<totfact> 0.11718462E+04</totfact>
</mgrwt>
</event>
<event>
 4    1  0.1252123E+000  0.1982428E+03  0.7546771E-02  0.1151230E+00
         21   -1    0    0  501  502  0.00000000000E+00  0.00000000000E+00  0.62819467429E+03  0.62819467429E+03  0.00000000000E+00 0.  1.
         21   -1    0    0  502  503 -0.00000000000E+00 -0.00000000000E+00 -0.64133599297E+02  0.64133599297E+02  0.00000000000E+00 0.  1.
          6    1    1    2  501    0 -0.69048825072E+01 -0.96558400605E+02  0.33624447057E+03  0.39033389056E+03  0.17300000000E+03 0.  1.
         -6    1    1    2    0  503  0.69048825072E+01  0.96558400605E+02  0.22781660442E+03  0.30199438303E+03  0.17300000000E+03 0.  1.
<mgrwt>
<rscale>  2 0.19824279E+03</rscale>
<asrwt>0</asrwt>
<pdfrwt beam="1">  1       21 0.96645330E-01 0.19824279E+03</pdfrwt>
<pdfrwt beam="2">  1       21 0.98667080E-02 0.19824279E+03</pdfrwt>
<totfact> 0.73740830E+04</totfact>
</mgrwt>
</event>
<event>
 4    1  0.1252123E+000  0.1818414E+03  0.7546771E-02  0.1166033E+00
         21   -1    0    0  503  502  0.00000000000E+00  0.00000000000E+00  0.20719019460E+03  0.20719019460E+03  0.00000000000E+00 0.  1.
         21   -1    0    0  501  503 -0.00000000000E+00 -0.00000000000E+00 -0.16389711234E+03  0.16389711234E+03  0.00000000000E+00 0.  1.
          6    1    1    2  501    0  0.43722521778E+02  0.35009179678E+02 -0.84179816511E+01  0.18203616121E+03  0.17300000000E+03 0. -1.
         -6    1    1    2    0  502 -0.43722521778E+02 -0.35009179678E+02  0.51711063916E+02  0.18905114573E+03  0.17300000000E+03 0. -1.
<mgrwt>
<rscale>  2 0.18184142E+03</rscale>
<asrwt>0</asrwt>
<pdfrwt beam="1">  1       21 0.31875415E-01 0.18184142E+03</pdfrwt>
<pdfrwt beam="2">  1       21 0.25214940E-01 0.18184142E+03</pdfrwt>
<totfact> 0.14153178E+05</totfact>
</mgrwt>
</event>
<event>
 4    1  0.1252123E+000  0.1837581E+03  0.7546771E-02  0.1164215E+00
         21   -1    0    0  501  502  0.00000000000E+00  0.00000000000E+00  0.51774501645E+03  0.51774501645E+03  0.00000000000E+00 0. -1.
         21   -1    0    0  502  503 -0.00000000000E+00 -0.00000000000E+00 -0.14811638485E+03  0.14811638485E+03  0.00000000000E+00 0. -1.
          6    1    1    2  501    0 -0.28166291711E+02 -0.55178820600E+02  0.43388438671E+03  0.47119285146E+03  0.17300000000E+03 0. -1.
         -6    1    1    2    0  503  0.28166291711E+02  0.55178820600E+02 -0.64255755115E+02  0.19466854984E+03  0.17300000000E+03 0. -1.
<mgrwt>
<rscale>  2 0.18375811E+03</rscale>
<asrwt>0</asrwt>
<pdfrwt beam="1">  1       21 0.79653078E-01 0.18375811E+03</pdfrwt>
<pdfrwt beam="2">  1       21 0.22787136E-01 0.18375811E+03</pdfrwt>
<totfact> 0.25216533E+04</totfact>
</mgrwt>
</event>
<event>
 4    1  0.1252123E+000  0.3316237E+03  0.7546771E-02  0.1070421E+00
         21   -1    0    0  503  502  0.00000000000E+00  0.00000000000E+00  0.30032648079E+03  0.30032648079E+03  0.00000000000E+00 0.  1.
         21   -1    0    0  501  503 -0.00000000000E+00 -0.00000000000E+00 -0.49255033162E+03  0.49255033162E+03  0.00000000000E+00 0. -1.
          6    1    1    2  501    0 -0.28115171486E+03 -0.31606996107E+02 -0.29691425746E+03  0.44512061878E+03  0.17300000000E+03 0. -1.
         -6    1    1    2    0  502  0.28115171486E+03  0.31606996107E+02  0.10469040663E+03  0.34775619364E+03  0.17300000000E+03 0.  1.
<mgrwt>
<rscale>  2 0.33162372E+03</rscale>
<asrwt>0</asrwt>
<pdfrwt beam="1">  1       21 0.46204075E-01 0.33162372E+03</pdfrwt>
<pdfrwt beam="2">  1       21 0.75776973E-01 0.33162372E+03</pdfrwt>
<totfact> 0.64381186E+03</totfact>
</mgrwt>
</event>
<event>
 4    1  0.1252123E+000  0.2492489E+03  0.7546771E-02  0.1113780E+00
         21   -1    0    0  503  502  0.00000000000E+00  0.00000000000E+00  0.52076941993E+03  0.52076941993E+03  0.00000000000E+00 0. -1.
         21   -1    0    0  501  503 -0.00000000000E+00 -0.00000000000E+00 -0.13352795152E+03  0.13352795152E+03  0.00000000000E+00 0. -1.
          6    1    1    2  501    0 -0.16912533527E+03 -0.59938573689E+02  0.86810778067E+02  0.26393393650E+03  0.17300000000E+03 0. -1.
         -6    1    1    2    0  502  0.16912533527E+03  0.59938573689E+02  0.30043069035E+03  0.39036343495E+03  0.17300000000E+03 0. -1.
<mgrwt>
<rscale>  2 0.24924889E+03</rscale>
<asrwt>0</asrwt>
<pdfrwt beam="1">  1       21 0.80118371E-01 0.24924889E+03</pdfrwt>
<pdfrwt beam="2">  1       21 0.20542762E-01 0.24924889E+03</pdfrwt>
<totfact> 0.29234948E+04</totfact>
</mgrwt>
</event>
<event>
 4    1  0.1252123E+000  0.1746351E+03  0.7546771E-02  0.1173099E+00
         21   -1    0    0  501  502  0.00000000000E+00  0.00000000000E+00  0.33491549171E+02  0.33491549171E+02  0.00000000000E+00 0. -1.
         21   -1    0    0  502  503 -0.00000000000E+00 -0.00000000000E+00 -0.98121870476E+03  0.98121870476E+03  0.00000000000E+00 0. -1.
          6    1    1    2  501    0  0.15560249664E+02  0.18063378627E+02 -0.33775396358E+03  0.38023038665E+03  0.17300000000E+03 0. -1.
         -6    1    1    2    0  503 -0.15560249664E+02 -0.18063378627E+02 -0.60997319200E+03  0.63447986728E+03  0.17300000000E+03 0. -1.
<mgrwt>
<rscale>  2 0.17463507E+03</rscale>
<asrwt>0</asrwt>
<pdfrwt beam="1">  1       21 0.51525458E-02 0.17463507E+03</pdfrwt>
<pdfrwt beam="2">  1       21 0.15095673E+00 0.17463507E+03</pdfrwt>
<totfact> 0.75839528E+04</totfact>
</mgrwt>
</event>
<event>
 4    1  0.1252123E+000  0.2908355E+03  0.7546771E-02  0.1089914E+00
         21   -1    0    0  501  502  0.00000000000E+00  0.00000000000E+00  0.17079501543E+03  0.17079501543E+03  0.00000000000E+00 0.  1.
         21   -1    0    0  502  503 -0.00000000000E+00 -0.00000000000E+00 -0.57959693030E+03  0.57959693030E+03  0.00000000000E+00 0. -1.
          6    1    1    2  501    0  0.16148227388E+03  0.16905542786E+03 -0.34753547389E+03  0.45317344150E+03  0.17300000000E+03 0. -1.
         -6    1    1    2    0  503 -0.16148227388E+03 -0.16905542786E+03 -0.61266440987E+02  0.29721850423E+03  0.17300000000E+03 0.  1.
<mgrwt>
<rscale>  2 0.29083546E+03</rscale>
<asrwt>0</asrwt>
<pdfrwt beam="1">  1       21 0.26276157E-01 0.29083546E+03</pdfrwt>
<pdfrwt beam="2">  1       21 0.89168757E-01 0.29083546E+03</pdfrwt>
<totfact> 0.14006543E+04</totfact>
</mgrwt>
</event>
<event>
 4    1  0.1252123E+000  0.3385808E+03  0.7546771E-02  0.1067402E+00
         21   -1    0    0  503  502  0.00000000000E+00  0.00000000000E+00  0.50361565432E+03  0.50361565432E+03  0.00000000000E+00 0.  1.
         21   -1    0    0  501  503 -0.00000000000E+00 -0.00000000000E+00 -0.22816207782E+03  0.22816207782E+03  0.00000000000E+00 0.  1.
          6    1    1    2  501    0 -0.19994659295E+03  0.21149304784E+03  0.15543155256E+03  0.37255324029E+03  0.17300000000E+03 0.  1.
         -6    1    1    2    0  502  0.19994659295E+03 -0.21149304784E+03  0.12002202394E+03  0.35922449185E+03  0.17300000000E+03 0.  1.
<mgrwt>
<rscale>  2 0.33858079E+03</rscale>
<asrwt>0</asrwt>
<pdfrwt beam="1">  1       21 0.77479331E-01 0.33858079E+03</pdfrwt>
<pdfrwt beam="2">  1       21 0.35101858E-01 0.33858079E+03</pdfrwt>
<totfact> 0.10718086E+04</totfact>
</mgrwt>
</event>
<event>
 4    1  0.1252123E+000  0.1808465E+03  0.7546771E-02  0.1166986E+00
         21   -1    0    0  501  502  0.00000000000E+00  0.00000000000E+00  0.12556205675E+03  0.12556205675E+03  0.00000000000E+00 0. -1.
         21   -1    0    0  502  503 -0.00000000000E+00 -0.00000000000E+00 -0.26847996519E+03  0.26847996519E+03  0.00000000000E+00 0. -1.
          6    1    1    2  501    0  0.11751698215E+02  0.51364941536E+02 -0.37433430236E+02  0.18468005125E+03  0.17300000000E+03 0. -1.
         -6    1    1    2    0  503 -0.11751698215E+02 -0.51364941536E+02 -0.10548447820E+03  0.20936197069E+03  0.17300000000E+03 0. -1.
<mgrwt>
<rscale>  2 0.18084651E+03</rscale>
<asrwt>0</asrwt>
<pdfrwt beam="1">  1       21 0.19317240E-01 0.18084651E+03</pdfrwt>
<pdfrwt beam="2">  1       21 0.41304609E-01 0.18084651E+03</pdfrwt>
<totfact> 0.13955664E+05</totfact>
</mgrwt>
</event>
<event>
 4    1  0.1252123E+000  0.2404935E+03  0.7546771E-02  0.1119465E+00
         21   -1    0    0  503  502  0.00000000000E+00  0.00000000000E+00  0.41929402571E+03  0.41929402571E+03  0.00000000000E+00 0.  1.
         21   -1    0    0  501  503 -0.00000000000E+00 -0.00000000000E+00 -0.21496727182E+03  0.21496727182E+03  0.00000000000E+00 0. -1.
          6    1    1    2  501    0  0.53649167846E+02 -0.15820835250E+03 -0.87671642648E+02  0.25597545377E+03  0.17300000000E+03 0.  1.
         -6    1    1    2    0  502 -0.53649167846E+02  0.15820835250E+03  0.29199839654E+03  0.37828584376E+03  0.17300000000E+03 0.  1.
<mgrwt>
<rscale>  2 0.24049348E+03</rscale>
<asrwt>0</asrwt>
<pdfrwt beam="1">  1       21 0.64506773E-01 0.24049348E+03</pdfrwt>
<pdfrwt beam="2">  1       21 0.33071888E-01 0.24049348E+03</pdfrwt>
<totfact> 0.18985942E+04</totfact>
</mgrwt>
</event>
<event>
 4    1  0.1252123E+000  0.2234207E+03  0.7546771E-02  0.1131358E+00
         21   -1    0    0  501  502  0.00000000000E+00  0.00000000000E+00  0.26355120555E+02  0.26355120555E+02  0.00000000000E+00 0. -1.
         21   -1    0    0  502  503 -0.00000000000E+00 -0.00000000000E+00 -0.19123529289E+04  0.19123529289E+04  0.00000000000E+00 0. -1.
          6    1    1    2  501    0  0.19014701504E+02  0.14009365468E+03 -0.84805554510E+03  0.87699201737E+03  0.17300000000E+03 0. -1.
         -6    1    1    2    0  503 -0.19014701504E+02 -0.14009365468E+03 -0.10379422632E+04  0.10617160321E+04  0.17300000000E+03 0. -1.
<mgrwt>
<rscale>  2 0.22342066E+03</rscale>
<asrwt>0</asrwt>
<pdfrwt beam="1">  1       21 0.40546345E-02 0.22342066E+03</pdfrwt>
<pdfrwt beam="2">  1       21 0.29420810E+00 0.22342066E+03</pdfrwt>
<totfact> 0.13703391E+04</totfact>
</mgrwt>
</event>
<event>
 4    1  0.1252123E+000  0.2295727E+03  0.7546771E-02  0.1126941E+00
         21   -1    0    0  503  502  0.00000000000E+00  0.00000000000E+00  0.13740357826E+04  0.13740357826E+04  0.00000000000E+00 0. -1.
         21   -1    0    0  501  503 -0.00000000000E+00 -0.00000000000E+00 -0.41098789078E+02  0.41098789078E+02  0.00000000000E+00 0.  1.
          6    1    1    2  501    0 -0.50249461527E+02  0.14230114788E+03  0.84923034980E+03  0.87971348295E+03  0.17300000000E+03 0. -1.
         -6    1    1    2    0  502  0.50249461527E+02 -0.14230114788E+03  0.48370664374E+03  0.53542108874E+03  0.17300000000E+03 0.  1.
<mgrwt>
<rscale>  2 0.22957270E+03</rscale>
<asrwt>0</asrwt>
<pdfrwt beam="1">  1       21 0.21139009E+00 0.22957270E+03</pdfrwt>
<pdfrwt beam="2">  1       21 0.63228917E-02 0.22957270E+03</pdfrwt>
<totfact> 0.19945484E+04</totfact>
</mgrwt>
</event>
<event>
 4    1  0.1252123E+000  0.1840018E+03  0.7546771E-02  0.1163985E+00
         21   -1    0    0  501  502  0.00000000000E+00  0.00000000000E+00  0.59806606266E+02  0.59806606266E+02  0.00000000000E+00 0.  1.
         21   -1    0    0  502  503 -0.00000000000E+00 -0.00000000000E+00 -0.79456193702E+03  0.79456193702E+03  0.00000000000E+00 0.  1.
          6    1    1    2  501    0 -0.17746957125E+02 -0.60105670724E+02 -0.13831395274E+03  0.23018991217E+03  0.17300000000E+03 0.  1.
         -6    1    1    2    0  503  0.17746957125E+02  0.60105670724E+02 -0.59644137801E+03  0.62417863112E+03  0.17300000000E+03 0.  1.
<mgrwt>
<rscale>  2 0.18400176E+03</rscale>
<asrwt>0</asrwt>
<pdfrwt beam="1">  1       21 0.92010168E-02 0.18400176E+03</pdfrwt>
<pdfrwt beam="2">  1       21 0.12224029E+00 0.18400176E+03</pdfrwt>
<totfact> 0.47609887E+04</totfact>
</mgrwt>
</event>
<event>
 4    1  0.1252123E+000  0.1851265E+03  0.7546771E-02  0.1162932E+00
         21   -1    0    0  503  502  0.00000000000E+00  0.00000000000E+00  0.10099220994E+04  0.10099220994E+04  0.00000000000E+00 0. -1.
         21   -1    0    0  501  503 -0.00000000000E+00 -0.00000000000E+00 -0.53569665802E+02  0.53569665802E+02  0.00000000000E+00 0.  1.
          6    1    1    2  501    0  0.52750536255E+02 -0.39499396622E+02  0.15625087526E+03  0.24225225991E+03  0.17300000000E+03 0.  1.
         -6    1    1    2    0  502 -0.52750536255E+02  0.39499396622E+02  0.80010155829E+03  0.82123950526E+03  0.17300000000E+03 0. -1.
<mgrwt>
<rscale>  2 0.18512650E+03</rscale>
<asrwt>0</asrwt>
<pdfrwt beam="1">  1       21 0.15537262E+00 0.18512650E+03</pdfrwt>
<pdfrwt beam="2">  1       21 0.82414878E-02 0.18512650E+03</pdfrwt>
<totfact> 0.31175861E+04</totfact>
</mgrwt>
</event>
<event>
 4    1  0.1252123E+000  0.2180690E+03  0.7546771E-02  0.1135331E+00
         21   -1    0    0  503  502  0.00000000000E+00  0.00000000000E+00  0.18566294187E+03  0.18566294187E+03  0.00000000000E+00 0.  1.
         21   -1    0    0  501  503 -0.00000000000E+00 -0.00000000000E+00 -0.30674234272E+03  0.30674234272E+03  0.00000000000E+00 0. -1.
          6    1    1    2  501    0 -0.10104365239E+03  0.86111894376E+02 -0.16054632717E+03  0.27079365061E+03  0.17300000000E+03 0. -1.
         -6    1    1    2    0  502  0.10104365239E+03 -0.86111894376E+02  0.39466926321E+02  0.22161163398E+03  0.17300000000E+03 0.  1.
<mgrwt>
<rscale>  2 0.21806898E+03</rscale>
<asrwt>0</asrwt>
<pdfrwt beam="1">  1       21 0.28563530E-01 0.21806898E+03</pdfrwt>
<pdfrwt beam="2">  1       21 0.47191129E-01 0.21806898E+03</pdfrwt>
<totfact> 0.49758626E+04</totfact>
</mgrwt>
</event>
<event>
 4    1  0.1252123E+000  0.1762895E+03  0.7546771E-02  0.1171443E+00
         21   -1    0    0  501  502  0.00000000000E+00  0.00000000000E+00  0.34827776474E+03  0.34827776474E+03  0.00000000000E+00 0. -1.
         21   -1    0    0  502  503 -0.00000000000E+00 -0.00000000000E+00 -0.10441000513E+03  0.10441000513E+03  0.00000000000E+00 0. -1.
          6    1    1    2  501    0 -0.12688172079E+02  0.31432294530E+02  0.20822900576E+03  0.27283199536E+03  0.17300000000E+03 0.  1.
         -6    1    1    2    0  503  0.12688172079E+02 -0.31432294530E+02  0.35638753847E+02  0.17985577451E+03  0.17300000000E+03 0.  1.
<mgrwt>
<rscale>  2 0.17628947E+03</rscale>
<asrwt>0</asrwt>
<pdfrwt beam="1">  1       21 0.53581194E-01 0.17628947E+03</pdfrwt>
<pdfrwt beam="2">  1       21 0.16063078E-01 0.17628947E+03</pdfrwt>
<totfact> 0.11478785E+05</totfact>
</mgrwt>
</event>
<event>
 4    1  0.1252123E+000  0.2097533E+03  0.7546771E-02  0.1141762E+00
         21   -1    0    0  503  502  0.00000000000E+00  0.00000000000E+00  0.51859412561E+03  0.51859412561E+03  0.00000000000E+00 0. -1.
         21   -1    0    0  501  503 -0.00000000000E+00 -0.00000000000E+00 -0.12102454745E+03  0.12102454745E+03  0.00000000000E+00 0.  1.
          6    1    1    2  501    0  0.81356408885E+02 -0.86305119178E+02  0.23909456736E+02  0.21111158420E+03  0.17300000000E+03 0.  1.
         -6    1    1    2    0  502 -0.81356408885E+02  0.86305119178E+02  0.37366012142E+03  0.42850708886E+03  0.17300000000E+03 0. -1.
<mgrwt>
<rscale>  2 0.20975328E+03</rscale>
<asrwt>0</asrwt>
<pdfrwt beam="1">  1       21 0.79783710E-01 0.20975328E+03</pdfrwt>
<pdfrwt beam="2">  1       21 0.18619161E-01 0.20975328E+03</pdfrwt>
<totfact> 0.36161760E+04</totfact>
</mgrwt>
</event>
<event>
 4    1  0.1252123E+000  0.1926943E+03  0.7546771E-02  0.1156053E+00
         21   -1    0    0  503  502  0.00000000000E+00  0.00000000000E+00  0.10688730078E+03  0.10688730078E+03  0.00000000000E+00 0. -1.
         21   -1    0    0  501  503 -0.00000000000E+00 -0.00000000000E+00 -0.34752729609E+03  0.34752729609E+03  0.00000000000E+00 0. -1.
          6    1    1    2  501    0  0.69928281066E+02 -0.48084628331E+02 -0.12490981146E+03  0.22963788227E+03  0.17300000000E+03 0. -1.
         -6    1    1    2    0  502 -0.69928281066E+02  0.48084628331E+02 -0.11573018385E+03  0.22477671460E+03  0.17300000000E+03 0. -1.
<mgrwt>
<rscale>  2 0.19269431E+03</rscale>
<asrwt>0</asrwt>
<pdfrwt beam="1">  1       21 0.16444200E-01 0.19269431E+03</pdfrwt>
<pdfrwt beam="2">  1       21 0.53465737E-01 0.19269431E+03</pdfrwt>
<totfact> 0.10980797E+05</totfact>
</mgrwt>
</event>
<event>
 4    1  0.1252123E+000  0.1786790E+03  0.7546771E-02  0.1169088E+00
         21   -1    0    0  501  502  0.00000000000E+00  0.00000000000E+00  0.10393716668E+03  0.10393716668E+03  0.00000000000E+00 0. -1.
         21   -1    0    0  502  503 -0.00000000000E+00 -0.00000000000E+00 -0.34718267437E+03  0.34718267437E+03  0.00000000000E+00 0. -1.
          6    1    1    2  501    0 -0.41517488555E+02  0.16536940653E+02 -0.45046781429E+02  0.18426986943E+03  0.17300000000E+03 0. -1.
         -6    1    1    2    0  503  0.41517488555E+02 -0.16536940653E+02 -0.19819872627E+03  0.26684997162E+03  0.17300000000E+03 0. -1.
<mgrwt>
<rscale>  2 0.17867896E+03</rscale>
<asrwt>0</asrwt>
<pdfrwt beam="1">  1       21 0.15990333E-01 0.17867896E+03</pdfrwt>
<pdfrwt beam="2">  1       21 0.53412719E-01 0.17867896E+03</pdfrwt>
<totfact> 0.11640872E+05</totfact>
</mgrwt>
</event>
<event>
 4    1  0.1252123E+000  0.1807845E+03  0.7546771E-02  0.1167046E+00
         21   -1    0    0  501  502  0.00000000000E+00  0.00000000000E+00  0.40874837711E+03  0.40874837711E+03  0.00000000000E+00 0.  1.
         21   -1    0    0  502  503 -0.00000000000E+00 -0.00000000000E+00 -0.86448818527E+02  0.86448818527E+02  0.00000000000E+00 0.  1.
          6    1    1    2  501    0  0.24557536544E+02 -0.46378554898E+02  0.93309045632E+02  0.20344439278E+03  0.17300000000E+03 0. -1.
         -6    1    1    2    0  503 -0.24557536544E+02  0.46378554898E+02  0.22899051295E+03  0.29175280286E+03  0.17300000000E+03 0. -1.
<mgrwt>
<rscale>  2 0.18078452E+03</rscale>
<asrwt>0</asrwt>
<pdfrwt beam="1">  1       21 0.62884365E-01 0.18078452E+03</pdfrwt>
<pdfrwt beam="2">  1       21 0.13299818E-01 0.18078452E+03</pdfrwt>
<totfact> 0.11473914E+05</totfact>
</mgrwt>
</event>
<event>
 4    1  0.1252123E+000  0.2131957E+03  0.7546771E-02  0.1139060E+00
         21   -1    0    0  501  502  0.00000000000E+00  0.00000000000E+00  0.35031921656E+03  0.35031921656E+03  0.00000000000E+00 0.  1.
         21   -1    0    0  502  503 -0.00000000000E+00 -0.00000000000E+00 -0.13453247714E+03  0.13453247714E+03  0.00000000000E+00 0.  1.
          6    1    1    2  501    0  0.56547956764E+02  0.11102125016E+03  0.15362217753E+03  0.26277778222E+03  0.17300000000E+03 0.  1.
         -6    1    1    2    0  503 -0.56547956764E+02 -0.11102125016E+03  0.62164561898E+02  0.22207391147E+03  0.17300000000E+03 0.  1.
<mgrwt>
<rscale>  2 0.21319566E+03</rscale>
<asrwt>0</asrwt>
<pdfrwt beam="1">  1       21 0.53895264E-01 0.21319566E+03</pdfrwt>
<pdfrwt beam="2">  1       21 0.20697304E-01 0.21319566E+03</pdfrwt>
<totfact> 0.69847707E+04</totfact>
</mgrwt>
</event>
<event>
 4    1  0.1252123E+000  0.1806664E+03  0.7546771E-02  0.1167160E+00
         21   -1    0    0  501  502  0.00000000000E+00  0.00000000000E+00  0.12365529958E+04  0.12365529958E+04  0.00000000000E+00 0. -1.
         21   -1    0    0  502  503 -0.00000000000E+00 -0.00000000000E+00 -0.52449481990E+02  0.52449481990E+02  0.00000000000E+00 0.  1.
          6    1    1    2  501    0 -0.39738163224E+02  0.33648733973E+02  0.10462902967E+04  0.10617738666E+04  0.17300000000E+03 0. -1.
         -6    1    1    2    0  503  0.39738163224E+02 -0.33648733973E+02  0.13781321711E+03  0.22722861115E+03  0.17300000000E+03 0.  1.
<mgrwt>
<rscale>  2 0.18066643E+03</rscale>
<asrwt>0</asrwt>
<pdfrwt beam="1">  1       21 0.19023890E+00 0.18066643E+03</pdfrwt>
<pdfrwt beam="2">  1       21 0.80691520E-02 0.18066643E+03</pdfrwt>
<totfact> 0.18539772E+04</totfact>
</mgrwt>
</event>
<event>
 4    1  0.1252123E+000  0.1859173E+03  0.7546771E-02  0.1162196E+00
         21   -1    0    0  503  502  0.00000000000E+00  0.00000000000E+00  0.71219943832E+03  0.71219943832E+03  0.00000000000E+00 0.  1.
         21   -1    0    0  501  503 -0.00000000000E+00 -0.00000000000E+00 -0.55110729143E+02  0.55110729143E+02  0.00000000000E+00 0.  1.
          6    1    1    2  501    0  0.57563952503E+02 -0.36368072124E+02  0.46108760878E+03  0.49715895674E+03  0.17300000000E+03 0.  1.
         -6    1    1    2    0  502 -0.57563952503E+02  0.36368072124E+02  0.19600110040E+03  0.27015121072E+03  0.17300000000E+03 0.  1.
<mgrwt>
<rscale>  2 0.18591731E+03</rscale>
<asrwt>0</asrwt>
<pdfrwt beam="1">  1       21 0.10956914E+00 0.18591731E+03</pdfrwt>
<pdfrwt beam="2">  1       21 0.84785742E-02 0.18591731E+03</pdfrwt>
<totfact> 0.71719793E+04</totfact>
</mgrwt>
</event>
<event>
 4    1  0.1252123E+000  0.1928571E+03  0.7546771E-02  0.1155909E+00
         21   -1    0    0  503  502  0.00000000000E+00  0.00000000000E+00  0.35811347491E+02  0.35811347491E+02  0.00000000000E+00 0. -1.
         21   -1    0    0  501  503 -0.00000000000E+00 -0.00000000000E+00 -0.16014078533E+04  0.16014078533E+04  0.00000000000E+00 0. -1.
          6    1    1    2  501    0 -0.71327364193E+02 -0.46661035816E+02 -0.12680912179E+04  0.12826726714E+04  0.17300000000E+03 0. -1.
         -6    1    1    2    0  502  0.71327364193E+02  0.46661035816E+02 -0.29750528797E+03  0.35454652941E+03  0.17300000000E+03 0. -1.
<mgrwt>
<rscale>  2 0.19285706E+03</rscale>
<asrwt>0</asrwt>
<pdfrwt beam="1">  1       21 0.55094376E-02 0.19285706E+03</pdfrwt>
<pdfrwt beam="2">  1       21 0.24637046E+00 0.19285706E+03</pdfrwt>
<totfact> 0.15929820E+04</totfact>
</mgrwt>
</event>
<event>
 4    1  0.1252123E+000  0.2086010E+03  0.7546771E-02  0.1142679E+00
         21   -1    0    0  503  502  0.00000000000E+00  0.00000000000E+00  0.33274574940E+02  0.33274574940E+02  0.00000000000E+00 0.  1.
         21   -1    0    0  501  503 -0.00000000000E+00 -0.00000000000E+00 -0.13099462137E+04  0.13099462137E+04  0.00000000000E+00 0.  1.
          6    1    1    2  501    0  0.77443445979E+02 -0.87108411459E+02 -0.61074919622E+03  0.64539053554E+03  0.17300000000E+03 0.  1.
         -6    1    1    2    0  502 -0.77443445979E+02  0.87108411459E+02 -0.66592244251E+03  0.69783025308E+03  0.17300000000E+03 0.  1.
<mgrwt>
<rscale>  2 0.20860097E+03</rscale>
<asrwt>0</asrwt>
<pdfrwt beam="1">  1       21 0.51191653E-02 0.20860097E+03</pdfrwt>
<pdfrwt beam="2">  1       21 0.20153019E+00 0.20860097E+03</pdfrwt>
<totfact> 0.33554045E+04</totfact>
</mgrwt>
</event>
<event>
 4    1  0.1252123E+000  0.2375134E+03  0.7546771E-02  0.1121460E+00
         21   -1    0    0  501  502  0.00000000000E+00  0.00000000000E+00  0.13416863074E+03  0.13416863074E+03  0.00000000000E+00 0.  1.
         21   -1    0    0  502  503 -0.00000000000E+00 -0.00000000000E+00 -0.49548315308E+03  0.49548315308E+03  0.00000000000E+00 0.  1.
          6    1    1    2  501    0  0.41937352660E+02 -0.15724143850E+03 -0.58152727095E+02  0.24452883510E+03  0.17300000000E+03 0.  1.
         -6    1    1    2    0  503 -0.41937352660E+02  0.15724143850E+03 -0.30316179525E+03  0.38512294872E+03  0.17300000000E+03 0.  1.
<mgrwt>
<rscale>  2 0.23751339E+03</rscale>
<asrwt>0</asrwt>
<pdfrwt beam="1">  1       21 0.20641328E-01 0.23751339E+03</pdfrwt>
<pdfrwt beam="2">  1       21 0.76228177E-01 0.23751339E+03</pdfrwt>
<totfact> 0.32603471E+04</totfact>
</mgrwt>
</event>
<event>
 4    1  0.1252123E+000  0.1999455E+03  0.7546771E-02  0.1149785E+00
         21   -1    0    0  503  502  0.00000000000E+00  0.00000000000E+00  0.33384134129E+03  0.33384134129E+03  0.00000000000E+00 0. -1.
         21   -1    0    0  501  503 -0.00000000000E+00 -0.00000000000E+00 -0.12183679259E+03  0.12183679259E+03  0.00000000000E+00 0.  1.
          6    1    1    2  501    0  0.28412114233E+02 -0.96135009469E+02  0.76198987820E+02  0.21397306846E+03  0.17300000000E+03 0.  1.
         -6    1    1    2    0  502 -0.28412114233E+02  0.96135009469E+02  0.13580556088E+03  0.24170506541E+03  0.17300000000E+03 0. -1.
<mgrwt>
<rscale>  2 0.19994546E+03</rscale>
<asrwt>0</asrwt>
<pdfrwt beam="1">  1       21 0.51360206E-01 0.19994546E+03</pdfrwt>
<pdfrwt beam="2">  1       21 0.18744122E-01 0.19994546E+03</pdfrwt>
<totfact> 0.93552337E+04</totfact>
</mgrwt>
</event>
<event>
 4    1  0.1252123E+000  0.2884531E+03  0.7546771E-02  0.1091160E+00
         21   -1    0    0  503  502  0.00000000000E+00  0.00000000000E+00  0.18532283415E+03  0.18532283415E+03  0.00000000000E+00 0. -1.
         21   -1    0    0  501  503 -0.00000000000E+00 -0.00000000000E+00 -0.88119734626E+03  0.88119734626E+03  0.00000000000E+00 0.  1.
          6    1    1    2  501    0  0.19350510042E+03  0.12582525187E+03 -0.72140781798E+03  0.77693915961E+03  0.17300000000E+03 0.  1.
         -6    1    1    2    0  502 -0.19350510042E+03 -0.12582525187E+03  0.25533305873E+02  0.28958102080E+03  0.17300000000E+03 0. -1.
<mgrwt>
<rscale>  2 0.28845315E+03</rscale>
<asrwt>0</asrwt>
<pdfrwt beam="1">  1       21 0.28511205E-01 0.28845315E+03</pdfrwt>
<pdfrwt beam="2">  1       21 0.13556882E+00 0.28845315E+03</pdfrwt>
<totfact> 0.42758121E+03</totfact>
</mgrwt>
</event>
<event>
 4    1  0.1252123E+000  0.1750136E+03  0.7546771E-02  0.1172718E+00
         21   -1    0    0  503  502  0.00000000000E+00  0.00000000000E+00  0.33681883161E+02  0.33681883161E+02  0.00000000000E+00 0.  1.
         21   -1    0    0  501  503 -0.00000000000E+00 -0.00000000000E+00 -0.91986210426E+03  0.91986210426E+03  0.00000000000E+00 0.  1.
          6    1    1    2  501    0 -0.43673103751E+01 -0.26109023855E+02 -0.39220419813E+03  0.42948095133E+03  0.17300000000E+03 0.  1.
         -6    1    1    2    0  502  0.43673103751E+01  0.26109023855E+02 -0.49397602297E+03  0.52406303609E+03  0.17300000000E+03 0.  1.
<mgrwt>
<rscale>  2 0.17501358E+03</rscale>
<asrwt>0</asrwt>
<pdfrwt beam="1">  1       21 0.51818289E-02 0.17501358E+03</pdfrwt>
<pdfrwt beam="2">  1       21 0.14151723E+00 0.17501358E+03</pdfrwt>
<totfact> 0.88851482E+04</totfact>
</mgrwt>
</event>
<event>
 4    1  0.1252123E+000  0.1882954E+03  0.7546771E-02  0.1160008E+00
         21   -1    0    0  501  502  0.00000000000E+00  0.00000000000E+00  0.25677299301E+02  0.25677299301E+02  0.00000000000E+00 0. -1.
         21   -1    0    0  502  503 -0.00000000000E+00 -0.00000000000E+00 -0.20022664847E+04  0.20022664847E+04  0.00000000000E+00 0. -1.
          6    1    1    2  501    0  0.66388104077E+02 -0.33447883489E+02 -0.42339035195E+03  0.46337299381E+03  0.17300000000E+03 0. -1.
         -6    1    1    2    0  503 -0.66388104077E+02  0.33447883489E+02 -0.15531988334E+04  0.15645707902E+04  0.17300000000E+03 0. -1.
<mgrwt>
<rscale>  2 0.18829536E+03</rscale>
<asrwt>0</asrwt>
<pdfrwt beam="1">  1       21 0.39503531E-02 0.18829536E+03</pdfrwt>
<pdfrwt beam="2">  1       21 0.30804105E+00 0.18829536E+03</pdfrwt>
<totfact> 0.12335682E+04</totfact>
</mgrwt>
</event>
<event>
 4    1  0.1252123E+000  0.1806276E+03  0.7546771E-02  0.1167197E+00
         21   -1    0    0  501  502  0.00000000000E+00  0.00000000000E+00  0.25518286783E+03  0.25518286783E+03  0.00000000000E+00 0.  1.
         21   -1    0    0  502  503 -0.00000000000E+00 -0.00000000000E+00 -0.12789582465E+03  0.12789582465E+03  0.00000000000E+00 0.  1.
          6    1    1    2  501    0  0.51775889845E+02 -0.40735802306E+01  0.60210162821E+02  0.19039853080E+03  0.17300000000E+03 0.  1.
         -6    1    1    2    0  503 -0.51775889845E+02  0.40735802306E+01  0.67076880351E+02  0.19268016167E+03  0.17300000000E+03 0.  1.
<mgrwt>
<rscale>  2 0.18062762E+03</rscale>
<asrwt>0</asrwt>
<pdfrwt beam="1">  1       21 0.39258903E-01 0.18062762E+03</pdfrwt>
<pdfrwt beam="2">  1       21 0.19676281E-01 0.18062762E+03</pdfrwt>
<totfact> 0.14943152E+05</totfact>
</mgrwt>
</event>
<event>
 4    1  0.1252123E+000  0.2106963E+03  0.7546771E-02  0.1141016E+00
         21   -1    0    0  503  502  0.00000000000E+00  0.00000000000E+00  0.20864062969E+03  0.20864062969E+03  0.00000000000E+00 0. -1.
         21   -1    0    0  501  503 -0.00000000000E+00 -0.00000000000E+00 -0.26486341622E+03  0.26486341622E+03  0.00000000000E+00 0. -1.
          6    1    1    2  501    0 -0.43915266988E+02 -0.11196159548E+03 -0.13310539400E+03  0.24921877026E+03  0.17300000000E+03 0. -1.
         -6    1    1    2    0  502  0.43915266988E+02  0.11196159548E+03  0.76882607470E+02  0.22428527564E+03  0.17300000000E+03 0. -1.
<mgrwt>
<rscale>  2 0.21069634E+03</rscale>
<asrwt>0</asrwt>
<pdfrwt beam="1">  1       21 0.32098559E-01 0.21069634E+03</pdfrwt>
<pdfrwt beam="2">  1       21 0.40748218E-01 0.21069634E+03</pdfrwt>
<totfact> 0.53703801E+04</totfact>
</mgrwt>
</event>
<event>
 4    1  0.1252123E+000  0.2699597E+03  0.7546771E-02  0.1101303E+00
         21   -1    0    0  503  502  0.00000000000E+00  0.00000000000E+00  0.21942505967E+04  0.21942505967E+04  0.00000000000E+00 0.  1.
         21   -1    0    0  501  503 -0.00000000000E+00 -0.00000000000E+00 -0.36780575459E+02  0.36780575459E+02  0.00000000000E+00 0. -1.
          6    1    1    2  501    0  0.32970934232E+02 -0.20460238428E+03  0.73132920726E+03  0.77956438320E+03  0.17300000000E+03 0. -1.
         -6    1    1    2    0  502 -0.32970934232E+02  0.20460238428E+03  0.14261408140E+04  0.14514667890E+04  0.17300000000E+03 0. -1.
<mgrwt>
<rscale>  2 0.26995966E+03</rscale>
<asrwt>0</asrwt>
<pdfrwt beam="1">  1       21 0.33757691E+00 0.26995966E+03</pdfrwt>
<pdfrwt beam="2">  1       21 0.56585518E-02 0.26995966E+03</pdfrwt>
<totfact> 0.41516810E+03</totfact>
</mgrwt>
</event>
<event>
 4    1  0.1252123E+000  0.2025026E+03  0.7546771E-02  0.1147645E+00
         21   -1    0    0  503  502  0.00000000000E+00  0.00000000000E+00  0.15162936315E+03  0.15162936315E+03  0.00000000000E+00 0.  1.
         21   -1    0    0  501  503 -0.00000000000E+00 -0.00000000000E+00 -0.33373469216E+03  0.33373469216E+03  0.00000000000E+00 0.  1.
          6    1    1    2  501    0  0.54937136545E+02 -0.89778596910E+02 -0.19673589790E+03  0.28233366600E+03  0.17300000000E+03 0.  1.
         -6    1    1    2    0  502 -0.54937136545E+02  0.89778596910E+02  0.14630568895E+02  0.20303038930E+03  0.17300000000E+03 0.  1.
<mgrwt>
<rscale>  2 0.20250256E+03</rscale>
<asrwt>0</asrwt>
<pdfrwt beam="1">  1       21 0.23327595E-01 0.20250256E+03</pdfrwt>
<pdfrwt beam="2">  1       21 0.51343798E-01 0.20250256E+03</pdfrwt>
<totfact> 0.62008606E+04</totfact>
</mgrwt>
</event>
<event>
 4    1  0.1252123E+000  0.1873586E+03  0.7546771E-02  0.1160865E+00
         21   -1    0    0  501  502  0.00000000000E+00  0.00000000000E+00  0.91839456065E+02  0.91839456065E+02  0.00000000000E+00 0. -1.
         21   -1    0    0  502  503 -0.00000000000E+00 -0.00000000000E+00 -0.45084959543E+03  0.45084959543E+03  0.00000000000E+00 0. -1.
          6    1    1    2  501    0 -0.36317503113E+02  0.62091022769E+02 -0.28536896632E+03  0.34137765462E+03  0.17300000000E+03 0. -1.
         -6    1    1    2    0  503  0.36317503113E+02 -0.62091022769E+02 -0.73641173047E+02  0.20131139687E+03  0.17300000000E+03 0. -1.
<mgrwt>
<rscale>  2 0.18735863E+03</rscale>
<asrwt>0</asrwt>
<pdfrwt beam="1">  1       21 0.14129147E-01 0.18735863E+03</pdfrwt>
<pdfrwt beam="2">  1       21 0.69361476E-01 0.18735863E+03</pdfrwt>
<totfact> 0.82861331E+04</totfact>
</mgrwt>
</event>
<event>
 4    1  0.1252123E+000  0.2578073E+03  0.7546771E-02  0.1108468E+00
         21   -1    0    0  503  502  0.00000000000E+00  0.00000000000E+00  0.42567871649E+02  0.42567871649E+02  0.00000000000E+00 0.  1.
         21   -1    0    0  501  503 -0.00000000000E+00 -0.00000000000E+00 -0.15668832806E+04  0.15668832806E+04  0.00000000000E+00 0.  1.
          6    1    1    2  501    0 -0.15027262103E+03 -0.11812589592E+03 -0.80985274567E+03  0.84989767477E+03  0.17300000000E+03 0.  1.
         -6    1    1    2    0  502  0.15027262103E+03  0.11812589592E+03 -0.71446266326E+03  0.75955347745E+03  0.17300000000E+03 0.  1.
<mgrwt>
<rscale>  2 0.25780727E+03</rscale>
<asrwt>0</asrwt>
<pdfrwt beam="1">  1       21 0.65489040E-02 0.25780727E+03</pdfrwt>
<pdfrwt beam="2">  1       21 0.24105894E+00 0.25780727E+03</pdfrwt>
<totfact> 0.12094006E+04</totfact>
</mgrwt>
</event>
<event>
 4    1  0.1252123E+000  0.1920962E+03  0.7546771E-02  0.1156584E+00
         21   -1    0    0  503  502  0.00000000000E+00  0.00000000000E+00  0.41491285507E+02  0.41491285507E+02  0.00000000000E+00 0. -1.
         21   -1    0    0  501  503 -0.00000000000E+00 -0.00000000000E+00 -0.96396373666E+03  0.96396373666E+03  0.00000000000E+00 0. -1.
          6    1    1    2  501    0  0.77660731446E+02 -0.30671517892E+02 -0.32138520211E+03  0.37441872196E+03  0.17300000000E+03 0. -1.
         -6    1    1    2    0  502 -0.77660731446E+02  0.30671517892E+02 -0.60108724904E+03  0.63103630021E+03  0.17300000000E+03 0. -1.
<mgrwt>
<rscale>  2 0.19209615E+03</rscale>
<asrwt>0</asrwt>
<pdfrwt beam="1">  1       21 0.63832745E-02 0.19209615E+03</pdfrwt>
<pdfrwt beam="2">  1       21 0.14830212E+00 0.19209615E+03</pdfrwt>
<totfact> 0.54627210E+04</totfact>
</mgrwt>
</event>
<event>
 4    1  0.1252123E+000  0.2296514E+03  0.7546771E-02  0.1126885E+00
         21   -1    0    0  501  502  0.00000000000E+00  0.00000000000E+00  0.39447834706E+02  0.39447834706E+02  0.00000000000E+00 0.  1.
         21   -1    0    0  502  503 -0.00000000000E+00 -0.00000000000E+00 -0.13375975000E+04  0.13375975000E+04  0.00000000000E+00 0.  1.
          6    1    1    2  501    0  0.65562920097E+02 -0.13605985471E+03 -0.66422414325E+03  0.70280402178E+03  0.17300000000E+03 0.  1.
         -6    1    1    2    0  503 -0.65562920097E+02  0.13605985471E+03 -0.63392552204E+03  0.67424131292E+03  0.17300000000E+03 0.  1.
<mgrwt>
<rscale>  2 0.22965143E+03</rscale>
<asrwt>0</asrwt>
<pdfrwt beam="1">  1       21 0.60688975E-02 0.22965143E+03</pdfrwt>
<pdfrwt beam="2">  1       21 0.20578424E+00 0.22965143E+03</pdfrwt>
<totfact> 0.23227908E+04</totfact>
</mgrwt>
</event>
<event>
 4    1  0.1252123E+000  0.1901007E+03  0.7546771E-02  0.1158371E+00
         21   -1    0    0  503  502  0.00000000000E+00  0.00000000000E+00  0.45595031069E+03  0.45595031069E+03  0.00000000000E+00 0.  1.
         21   -1    0    0  501  503 -0.00000000000E+00 -0.00000000000E+00 -0.99551521195E+02  0.99551521195E+02  0.00000000000E+00 0.  1.
          6    1    1    2  501    0 -0.24680243790E+02 -0.74834264581E+02  0.52799597832E+02  0.19729693135E+03  0.17300000000E+03 0.  1.
         -6    1    1    2    0  502  0.24680243790E+02  0.74834264581E+02  0.30359919166E+03  0.35820490053E+03  0.17300000000E+03 0.  1.
<mgrwt>
<rscale>  2 0.19010071E+03</rscale>
<asrwt>0</asrwt>
<pdfrwt beam="1">  1       21 0.70146200E-01 0.19010071E+03</pdfrwt>
<pdfrwt beam="2">  1       21 0.15315619E-01 0.19010071E+03</pdfrwt>
<totfact> 0.69737446E+04</totfact>
</mgrwt>
</event>
<event>
 4    1  0.1252123E+000  0.2147286E+03  0.7546771E-02  0.1137875E+00
         21   -1    0    0  503  502  0.00000000000E+00  0.00000000000E+00  0.30028473178E+03  0.30028473178E+03  0.00000000000E+00 0. -1.
         21   -1    0    0  501  503 -0.00000000000E+00 -0.00000000000E+00 -0.24714233964E+03  0.24714233964E+03  0.00000000000E+00 0. -1.
          6    1    1    2  501    0  0.80773672281E+02 -0.98259860676E+02 -0.14186888124E+03  0.25736193545E+03  0.17300000000E+03 0. -1.
         -6    1    1    2    0  502 -0.80773672281E+02  0.98259860676E+02  0.19501127339E+03  0.29006513596E+03  0.17300000000E+03 0. -1.
<mgrwt>
<rscale>  2 0.21472863E+03</rscale>
<asrwt>0</asrwt>
<pdfrwt beam="1">  1       21 0.46197651E-01 0.21472863E+03</pdfrwt>
<pdfrwt beam="2">  1       21 0.38021899E-01 0.21472863E+03</pdfrwt>
<totfact> 0.29592287E+04</totfact>
</mgrwt>
</event>
<event>
 4    1  0.1252123E+000  0.2043570E+03  0.7546771E-02  0.1146114E+00
         21   -1    0    0  503  502  0.00000000000E+00  0.00000000000E+00  0.26660553146E+03  0.26660553146E+03  0.00000000000E+00 0. -1.
         21   -1    0    0  501  503 -0.00000000000E+00 -0.00000000000E+00 -0.16694958919E+03  0.16694958919E+03  0.00000000000E+00 0.  1.
          6    1    1    2  501    0 -0.35604572416E+02  0.10278657257E+03 -0.40348408544E+01  0.20439678329E+03  0.17300000000E+03 0.  1.
         -6    1    1    2    0  502  0.35604572416E+02 -0.10278657257E+03  0.10369078313E+03  0.22915833736E+03  0.17300000000E+03 0.  1.
<mgrwt>
<rscale>  2 0.20435696E+03</rscale>
<asrwt>0</asrwt>
<pdfrwt beam="1">  1       21 0.41016236E-01 0.20435696E+03</pdfrwt>
<pdfrwt beam="2">  1       21 0.25684552E-01 0.20435696E+03</pdfrwt>
<totfact> 0.81943921E+04</totfact>
</mgrwt>
</event>
<event>
 4    1  0.1252123E+000  0.2038126E+03  0.7546771E-02  0.1146562E+00
         21   -1    0    0  503  502  0.00000000000E+00  0.00000000000E+00  0.50876387606E+03  0.50876387606E+03  0.00000000000E+00 0. -1.
         21   -1    0    0  501  503 -0.00000000000E+00 -0.00000000000E+00 -0.83704999858E+02  0.83704999858E+02  0.00000000000E+00 0. -1.
          6    1    1    2  501    0 -0.42525419196E+02  0.99005802022E+02  0.25896765013E+03  0.32955091249E+03  0.17300000000E+03 0. -1.
         -6    1    1    2    0  502  0.42525419196E+02 -0.99005802022E+02  0.16609122607E+03  0.26291796342E+03  0.17300000000E+03 0. -1.
<mgrwt>
<rscale>  2 0.20381256E+03</rscale>
<asrwt>0</asrwt>
<pdfrwt beam="1">  1       21 0.78271364E-01 0.20381256E+03</pdfrwt>
<pdfrwt beam="2">  1       21 0.12877693E-01 0.20381256E+03</pdfrwt>
<totfact> 0.74325603E+04</totfact>
</mgrwt>
</event>
<event>
 4    1  0.1252123E+000  0.1792867E+03  0.7546771E-02  0.1168495E+00
         21   -1    0    0  503  502  0.00000000000E+00  0.00000000000E+00  0.12981780497E+02  0.12981780497E+02  0.00000000000E+00 0. -1.
         21   -1    0    0  501  503 -0.00000000000E+00 -0.00000000000E+00 -0.24919448978E+04  0.24919448978E+04  0.00000000000E+00 0. -1.
          6    1    1    2  501    0 -0.42076926857E+02  0.21077343454E+02 -0.11394975962E+04  0.11535157103E+04  0.17300000000E+03 0. -1.
         -6    1    1    2    0  502  0.42076926857E+02 -0.21077343454E+02 -0.13394655211E+04  0.13514109680E+04  0.17300000000E+03 0. -1.
<mgrwt>
<rscale>  2 0.17928670E+03</rscale>
<asrwt>0</asrwt>
<pdfrwt beam="1">  1       21 0.19971979E-02 0.17928670E+03</pdfrwt>
<pdfrwt beam="2">  1       21 0.38337596E+00 0.17928670E+03</pdfrwt>
<totfact> 0.13840863E+04</totfact>
</mgrwt>
</event>
<event>
 4    1  0.1252123E+000  0.2013366E+03  0.7546771E-02  0.1148616E+00
         21   -1    0    0  501  502  0.00000000000E+00  0.00000000000E+00  0.25267136379E+02  0.25267136379E+02  0.00000000000E+00 0.  1.
         21   -1    0    0  502  503 -0.00000000000E+00 -0.00000000000E+00 -0.18625278527E+04  0.18625278527E+04  0.00000000000E+00 0.  1.
          6    1    1    2  501    0 -0.53196947336E+02  0.88190138078E+02 -0.12700802223E+04  0.12859394179E+04  0.17300000000E+03 0.  1.
         -6    1    1    2    0  503  0.53196947336E+02 -0.88190138078E+02 -0.56718049411E+03  0.60185557117E+03  0.17300000000E+03 0.  1.
<mgrwt>
<rscale>  2 0.20133657E+03</rscale>
<asrwt>0</asrwt>
<pdfrwt beam="1">  1       21 0.38872520E-02 0.20133657E+03</pdfrwt>
<pdfrwt beam="2">  1       21 0.28654272E+00 0.20133657E+03</pdfrwt>
<totfact> 0.16631589E+04</totfact>
</mgrwt>
</event>
<event>
 4    1  0.1252123E+000  0.2420139E+03  0.7546771E-02  0.1118458E+00
         21   -1    0    0  501  502  0.00000000000E+00  0.00000000000E+00  0.28509245420E+04  0.28509245420E+04  0.00000000000E+00 0. -1.
         21   -1    0    0  502  503 -0.00000000000E+00 -0.00000000000E+00 -0.41574891759E+02  0.41574891759E+02  0.00000000000E+00 0.  1.
          6    1    1    2  501    0 -0.16071514143E+03 -0.53031851327E+02  0.24332871264E+04  0.24452928195E+04  0.17300000000E+03 0. -1.
         -6    1    1    2    0  503  0.16071514143E+03  0.53031851327E+02  0.37606252386E+03  0.44720661421E+03  0.17300000000E+03 0.  1.
<mgrwt>
<rscale>  2 0.24201391E+03</rscale>
<asrwt>0</asrwt>
<pdfrwt beam="1">  1       21 0.43860362E+00 0.24201391E+03</pdfrwt>
<pdfrwt beam="2">  1       21 0.63961394E-02 0.24201391E+03</pdfrwt>
<totfact> 0.81400261E+02</totfact>
</mgrwt>
</event>
<event>
 4    1  0.1252123E+000  0.2811016E+03  0.7546771E-02  0.1095089E+00
         21   -1    0    0  503  502  0.00000000000E+00  0.00000000000E+00  0.11249914642E+03  0.11249914642E+03  0.00000000000E+00 0.  1.
         21   -1    0    0  501  503 -0.00000000000E+00 -0.00000000000E+00 -0.70724799699E+03  0.70724799699E+03  0.00000000000E+00 0. -1.
          6    1    1    2  501    0  0.26842028138E+02 -0.21992865766E+03 -0.33134937526E+03  0.43452332207E+03  0.17300000000E+03 0. -1.
         -6    1    1    2    0  502 -0.26842028138E+02  0.21992865766E+03 -0.26339947531E+03  0.38522382134E+03  0.17300000000E+03 0.  1.
<mgrwt>
<rscale>  2 0.28110160E+03</rscale>
<asrwt>0</asrwt>
<pdfrwt beam="1">  1       21 0.17307561E-01 0.28110160E+03</pdfrwt>
<pdfrwt beam="2">  1       21 0.10880738E+00 0.28110160E+03</pdfrwt>
<totfact> 0.19297428E+04</totfact>
</mgrwt>
</event>
<event>
 4    1  0.1252123E+000  0.1761767E+03  0.7546771E-02  0.1171555E+00
         21   -1    0    0  501  502  0.00000000000E+00  0.00000000000E+00  0.21604584755E+02  0.21604584755E+02  0.00000000000E+00 0.  1.
         21   -1    0    0  502  503 -0.00000000000E+00 -0.00000000000E+00 -0.14447569057E+04  0.14447569057E+04  0.00000000000E+00 0.  1.
          6    1    1    2  501    0  0.28718847859E+02 -0.16865601590E+02 -0.76649844552E+03  0.78648463921E+03  0.17300000000E+03 0.  1.
         -6    1    1    2    0  503 -0.28718847859E+02  0.16865601590E+02 -0.65665387545E+03  0.67987685126E+03  0.17300000000E+03 0.  1.
<mgrwt>
<rscale>  2 0.17617667E+03</rscale>
<asrwt>0</asrwt>
<pdfrwt beam="1">  1       21 0.33237814E-02 0.17617667E+03</pdfrwt>
<pdfrwt beam="2">  1       21 0.22227035E+00 0.17617667E+03</pdfrwt>
<totfact> 0.52622473E+04</totfact>
</mgrwt>
</event>
<event>
 4    1  0.1252123E+000  0.1927114E+03  0.7546771E-02  0.1156038E+00
         21   -1    0    0  501  502  0.00000000000E+00  0.00000000000E+00  0.76525549298E+02  0.76525549298E+02  0.00000000000E+00 0.  1.
         21   -1    0    0  502  503 -0.00000000000E+00 -0.00000000000E+00 -0.51681971952E+03  0.51681971952E+03  0.00000000000E+00 0.  1.
          6    1    1    2  501    0 -0.74466464847E+02  0.40785364836E+02 -0.29341477672E+03  0.35104121065E+03  0.17300000000E+03 0.  1.
         -6    1    1    2    0  503  0.74466464847E+02 -0.40785364836E+02 -0.14687939349E+03  0.24230405817E+03  0.17300000000E+03 0.  1.
<mgrwt>
<rscale>  2 0.19271144E+03</rscale>
<asrwt>0</asrwt>
<pdfrwt beam="1">  1       21 0.11773161E-01 0.19271144E+03</pdfrwt>
<pdfrwt beam="2">  1       21 0.79510726E-01 0.19271144E+03</pdfrwt>
<totfact> 0.84678022E+04</totfact>
</mgrwt>
</event>
<event>
 4    1  0.1252123E+000  0.2044091E+03  0.7546771E-02  0.1146071E+00
         21   -1    0    0  503  502  0.00000000000E+00  0.00000000000E+00  0.19993046474E+03  0.19993046474E+03  0.00000000000E+00 0.  1.
         21   -1    0    0  501  503 -0.00000000000E+00 -0.00000000000E+00 -0.23932467807E+03  0.23932467807E+03  0.00000000000E+00 0.  1.
          6    1    1    2  501    0  0.28905060603E+02  0.10496944970E+03  0.58497430858E+02  0.21261476269E+03  0.17300000000E+03 0.  1.
         -6    1    1    2    0  502 -0.28905060603E+02 -0.10496944970E+03 -0.97891644192E+02  0.22664038012E+03  0.17300000000E+03 0.  1.
<mgrwt>
<rscale>  2 0.20440912E+03</rscale>
<asrwt>0</asrwt>
<pdfrwt beam="1">  1       21 0.30758533E-01 0.20440912E+03</pdfrwt>
<pdfrwt beam="2">  1       21 0.36819181E-01 0.20440912E+03</pdfrwt>
<totfact> 0.71829299E+04</totfact>
</mgrwt>
</event>
<event>
 4    1  0.1252123E+000  0.4811812E+03  0.7546771E-02  0.1018811E+00
         21   -1    0    0  503  502  0.00000000000E+00  0.00000000000E+00  0.61724219304E+03  0.61724219304E+03  0.00000000000E+00 0. -1.
         21   -1    0    0  501  503 -0.00000000000E+00 -0.00000000000E+00 -0.81320265348E+03  0.81320265348E+03  0.00000000000E+00 0.  1.
          6    1    1    2  501    0  0.11728879321E+03  0.43341626202E+03 -0.62293686625E+03  0.78713763506E+03  0.17300000000E+03 0.  1.
         -6    1    1    2    0  502 -0.11728879321E+03 -0.43341626202E+03  0.42697640581E+03  0.64330721146E+03  0.17300000000E+03 0. -1.
<mgrwt>
<rscale>  2 0.48118117E+03</rscale>
<asrwt>0</asrwt>
<pdfrwt beam="1">  1       21 0.94960338E-01 0.48118117E+03</pdfrwt>
<pdfrwt beam="2">  1       21 0.12510810E+00 0.48118117E+03</pdfrwt>
<totfact> 0.36111693E+02</totfact>
</mgrwt>
</event>
<event>
 4    1  0.1252123E+000  0.1745359E+03  0.7546771E-02  0.1173198E+00
         21   -1    0    0  503  502  0.00000000000E+00  0.00000000000E+00  0.47015189096E+03  0.47015189096E+03  0.00000000000E+00 0.  1.
         21   -1    0    0  501  503 -0.00000000000E+00 -0.00000000000E+00 -0.67489102399E+02  0.67489102399E+02  0.00000000000E+00 0.  1.
          6    1    1    2  501    0  0.23103571026E+02 -0.98294826771E-01  0.25505606893E+03  0.30905724867E+03  0.17300000000E+03 0.  1.
         -6    1    1    2    0  502 -0.23103571026E+02  0.98294826771E-01  0.14760671962E+03  0.22858374469E+03  0.17300000000E+03 0.  1.
<mgrwt>
<rscale>  2 0.17453591E+03</rscale>
<asrwt>0</asrwt>
<pdfrwt beam="1">  1       21 0.72331058E-01 0.17453591E+03</pdfrwt>
<pdfrwt beam="2">  1       21 0.10382939E-01 0.17453591E+03</pdfrwt>
<totfact> 0.13170477E+05</totfact>
</mgrwt>
</event>
<event>
 4    1  0.1252123E+000  0.1965526E+03  0.7546771E-02  0.1152681E+00
         21   -1    0    0  501  502  0.00000000000E+00  0.00000000000E+00  0.24793294879E+03  0.24793294879E+03  0.00000000000E+00 0.  1.
         21   -1    0    0  502  503 -0.00000000000E+00 -0.00000000000E+00 -0.16243662130E+03  0.16243662130E+03  0.00000000000E+00 0.  1.
          6    1    1    2  501    0  0.77236100771E+02 -0.52330599253E+02  0.84159763474E+02  0.21381247080E+03  0.17300000000E+03 0.  1.
         -6    1    1    2    0  503 -0.77236100771E+02  0.52330599253E+02  0.13365640162E+01  0.19655709930E+03  0.17300000000E+03 0.  1.
<mgrwt>
<rscale>  2 0.19655256E+03</rscale>
<asrwt>0</asrwt>
<pdfrwt beam="1">  1       21 0.38143530E-01 0.19655256E+03</pdfrwt>
<pdfrwt beam="2">  1       21 0.24990250E-01 0.19655256E+03</pdfrwt>
<totfact> 0.10031724E+05</totfact>
</mgrwt>
</event>
<event>
 4    1  0.1252123E+000  0.2391443E+03  0.7546771E-02  0.1120364E+00
         21   -1    0    0  501  502  0.00000000000E+00  0.00000000000E+00  0.32758513802E+03  0.32758513802E+03  0.00000000000E+00 0. -1.
         21   -1    0    0  502  503 -0.00000000000E+00 -0.00000000000E+00 -0.17721071846E+03  0.17721071846E+03  0.00000000000E+00 0. -1.
          6    1    1    2  501    0  0.16050373564E+03  0.38723817227E+02  0.10593650702E+03  0.26155788402E+03  0.17300000000E+03 0.  1.
         -6    1    1    2    0  503 -0.16050373564E+03 -0.38723817227E+02  0.44437912546E+02  0.24323797246E+03  0.17300000000E+03 0.  1.
<mgrwt>
<rscale>  2 0.23914427E+03</rscale>
<asrwt>0</asrwt>
<pdfrwt beam="1">  1       21 0.50397714E-01 0.23914427E+03</pdfrwt>
<pdfrwt beam="2">  1       21 0.27263187E-01 0.23914427E+03</pdfrwt>
<totfact> 0.47054168E+04</totfact>
</mgrwt>
</event>
<event>
 4    1  0.1252123E+000  0.3788550E+03  0.7546771E-02  0.1051358E+00
         21   -1    0    0  503  502  0.00000000000E+00  0.00000000000E+00  0.10681255271E+04  0.10681255271E+04  0.00000000000E+00 0.  1.
         21   -1    0    0  501  503 -0.00000000000E+00 -0.00000000000E+00 -0.13565368236E+03  0.13565368236E+03  0.00000000000E+00 0. -1.
          6    1    1    2  501    0 -0.63731373361E+02  0.33096888349E+03  0.52463532671E+03  0.64712697040E+03  0.17300000000E+03 0.  1.
         -6    1    1    2    0  502  0.63731373361E+02 -0.33096888349E+03  0.40783651800E+03  0.55665223902E+03  0.17300000000E+03 0. -1.
<mgrwt>
<rscale>  2 0.37885497E+03</rscale>
<asrwt>0</asrwt>
<pdfrwt beam="1">  1       21 0.16432700E+00 0.37885497E+03</pdfrwt>
<pdfrwt beam="2">  1       21 0.20869798E-01 0.37885497E+03</pdfrwt>
<totfact> 0.44478962E+03</totfact>
</mgrwt>
</event>
<event>
 4    1  0.1252123E+000  0.2775015E+03  0.7546771E-02  0.1097061E+00
         21   -1    0    0  503  502  0.00000000000E+00  0.00000000000E+00  0.41078119037E+03  0.41078119037E+03  0.00000000000E+00 0. -1.
         21   -1    0    0  501  503 -0.00000000000E+00 -0.00000000000E+00 -0.32274235688E+03  0.32274235688E+03  0.00000000000E+00 0.  1.
          6    1    1    2  501    0  0.41555360963E+02 -0.21295826652E+03  0.28146753472E+03  0.39526072966E+03  0.17300000000E+03 0. -1.
         -6    1    1    2    0  502 -0.41555360963E+02  0.21295826652E+03 -0.19342870123E+03  0.33826281759E+03  0.17300000000E+03 0.  1.
<mgrwt>
<rscale>  2 0.27750148E+03</rscale>
<asrwt>0</asrwt>
<pdfrwt beam="1">  1       21 0.63197106E-01 0.27750148E+03</pdfrwt>
<pdfrwt beam="2">  1       21 0.49652670E-01 0.27750148E+03</pdfrwt>
<totfact> 0.85084039E+03</totfact>
</mgrwt>
</event>
<event>
 4    1  0.1252123E+000  0.1763341E+03  0.7546771E-02  0.1171399E+00
         21   -1    0    0  501  502  0.00000000000E+00  0.00000000000E+00  0.11288321260E+04  0.11288321260E+04  0.00000000000E+00 0.  1.
         21   -1    0    0  502  503 -0.00000000000E+00 -0.00000000000E+00 -0.50935440683E+02  0.50935440683E+02  0.00000000000E+00 0.  1.
          6    1    1    2  501    0  0.22889529529E+02 -0.25314062743E+02  0.93868612816E+03  0.95510490499E+03  0.17300000000E+03 0. -1.
         -6    1    1    2    0  503 -0.22889529529E+02  0.25314062743E+02  0.13921055715E+03  0.22466266169E+03  0.17300000000E+03 0. -1.
<mgrwt>
<rscale>  2 0.17633415E+03</rscale>
<asrwt>0</asrwt>
<pdfrwt beam="1">  1       21 0.17366646E+00 0.17633415E+03</pdfrwt>
<pdfrwt beam="2">  1       21 0.78362225E-02 0.17633415E+03</pdfrwt>
<totfact> 0.25310030E+04</totfact>
</mgrwt>
</event>
<event>
 4    1  0.1252123E+000  0.1855212E+03  0.7546771E-02  0.1162564E+00
         21   -1    0    0  501  502  0.00000000000E+00  0.00000000000E+00  0.26271659489E+04  0.26271659489E+04  0.00000000000E+00 0.  1.
         21   -1    0    0  502  503 -0.00000000000E+00 -0.00000000000E+00 -0.22035922128E+02  0.22035922128E+02  0.00000000000E+00 0.  1.
          6    1    1    2  501    0  0.55994375521E+02  0.36793220376E+02  0.21460326742E+04  0.21540367569E+04  0.17300000000E+03 0.  1.
         -6    1    1    2    0  503 -0.55994375521E+02 -0.36793220376E+02  0.45909735261E+03  0.49516511421E+03  0.17300000000E+03 0.  1.
<mgrwt>
<rscale>  2 0.18552119E+03</rscale>
<asrwt>0</asrwt>
<pdfrwt beam="1">  1       21 0.40417913E+00 0.18552119E+03</pdfrwt>
<pdfrwt beam="2">  1       21 0.33901440E-02 0.18552119E+03</pdfrwt>
<totfact> 0.42815459E+03</totfact>
</mgrwt>
</event>
<event>
 4    1  0.1252123E+000  0.1782990E+03  0.7546771E-02  0.1169459E+00
         21   -1    0    0  501  502  0.00000000000E+00  0.00000000000E+00  0.69846064502E+03  0.69846064502E+03  0.00000000000E+00 0.  1.
         21   -1    0    0  502  503 -0.00000000000E+00 -0.00000000000E+00 -0.45589555813E+02  0.45589555813E+02  0.00000000000E+00 0.  1.
          6    1    1    2  501    0 -0.34207953246E+02 -0.26293668503E+02  0.31140610383E+03  0.35883743195E+03  0.17300000000E+03 0.  1.
         -6    1    1    2    0  503  0.34207953246E+02  0.26293668503E+02  0.34146498538E+03  0.38521276888E+03  0.17300000000E+03 0.  1.
<mgrwt>
<rscale>  2 0.17829902E+03</rscale>
<asrwt>0</asrwt>
<pdfrwt beam="1">  1       21 0.10745548E+00 0.17829902E+03</pdfrwt>
<pdfrwt beam="2">  1       21 0.70137783E-02 0.17829902E+03</pdfrwt>
<totfact> 0.10480520E+05</totfact>
</mgrwt>
</event>
<event>
 4    1  0.1252123E+000  0.2334741E+03  0.7546771E-02  0.1124218E+00
         21   -1    0    0  501  502  0.00000000000E+00  0.00000000000E+00  0.73571879302E+03  0.73571879302E+03  0.00000000000E+00 0. -1.
         21   -1    0    0  502  503 -0.00000000000E+00 -0.00000000000E+00 -0.81921510917E+02  0.81921510917E+02  0.00000000000E+00 0.  1.
          6    1    1    2  501    0 -0.10420072767E+03 -0.11714670426E+03  0.45329318735E+03  0.50988710090E+03  0.17300000000E+03 0. -1.
         -6    1    1    2    0  503  0.10420072767E+03  0.11714670426E+03  0.20050409475E+03  0.30775320303E+03  0.17300000000E+03 0.  1.
<mgrwt>
<rscale>  2 0.23347407E+03</rscale>
<asrwt>0</asrwt>
<pdfrwt beam="1">  1       21 0.11318750E+00 0.23347407E+03</pdfrwt>
<pdfrwt beam="2">  1       21 0.12603310E-01 0.23347407E+03</pdfrwt>
<totfact> 0.32030263E+04</totfact>
</mgrwt>
</event>
<event>
 4    1  0.1252123E+000  0.1748778E+03  0.7546771E-02  0.1172854E+00
         21   -1    0    0  503  502  0.00000000000E+00  0.00000000000E+00  0.23990591859E+03  0.23990591859E+03  0.00000000000E+00 0. -1.
         21   -1    0    0  501  503 -0.00000000000E+00 -0.00000000000E+00 -0.13231277955E+03  0.13231277955E+03  0.00000000000E+00 0. -1.
          6    1    1    2  501    0 -0.18175329415E+01  0.25493925418E+02  0.18213284206E+02  0.17582368265E+03  0.17300000000E+03 0.  1.
         -6    1    1    2    0  502  0.18175329415E+01 -0.25493925418E+02  0.89379854829E+02  0.19639501549E+03  0.17300000000E+03 0.  1.
<mgrwt>
<rscale>  2 0.17487780E+03</rscale>
<asrwt>0</asrwt>
<pdfrwt beam="1">  1       21 0.36908603E-01 0.17487780E+03</pdfrwt>
<pdfrwt beam="2">  1       21 0.20355812E-01 0.17487780E+03</pdfrwt>
<totfact> 0.15901628E+05</totfact>
</mgrwt>
</event>
<event>
 4    1  0.1252123E+000  0.2432814E+03  0.7546771E-02  0.1117626E+00
         21   -1    0    0  503  502  0.00000000000E+00  0.00000000000E+00  0.86737406806E+02  0.86737406806E+02  0.00000000000E+00 0. -1.
         21   -1    0    0  501  503 -0.00000000000E+00 -0.00000000000E+00 -0.84229567476E+03  0.84229567476E+03  0.00000000000E+00 0. -1.
          6    1    1    2  501    0 -0.12122243340E+03  0.12067288933E+03 -0.58019588992E+03  0.62913678581E+03  0.17300000000E+03 0. -1.
         -6    1    1    2    0  502  0.12122243340E+03 -0.12067288933E+03 -0.17536237804E+03  0.29989629576E+03  0.17300000000E+03 0. -1.
<mgrwt>
<rscale>  2 0.24328137E+03</rscale>
<asrwt>0</asrwt>
<pdfrwt beam="1">  1       21 0.13344216E-01 0.24328137E+03</pdfrwt>
<pdfrwt beam="2">  1       21 0.12958395E+00 0.24328137E+03</pdfrwt>
<totfact> 0.20504459E+04</totfact>
</mgrwt>
</event>
<event>
 4    1  0.1252123E+000  0.1896635E+03  0.7546771E-02  0.1158765E+00
         21   -1    0    0  501  502  0.00000000000E+00  0.00000000000E+00  0.67393774149E+03  0.67393774149E+03  0.00000000000E+00 0. -1.
         21   -1    0    0  502  503 -0.00000000000E+00 -0.00000000000E+00 -0.54224596965E+02  0.54224596965E+02  0.00000000000E+00 0. -1.
          6    1    1    2  501    0  0.75812437968E+02  0.17196616459E+02  0.35539671678E+03  0.40283877130E+03  0.17300000000E+03 0.  1.
         -6    1    1    2    0  503 -0.75812437968E+02 -0.17196616459E+02  0.26431642775E+03  0.32532356715E+03  0.17300000000E+03 0.  1.
<mgrwt>
<rscale>  2 0.18966352E+03</rscale>
<asrwt>0</asrwt>
<pdfrwt beam="1">  1       21 0.10368272E+00 0.18966352E+03</pdfrwt>
<pdfrwt beam="2">  1       21 0.83422462E-02 0.18966352E+03</pdfrwt>
<totfact> 0.84117704E+04</totfact>
</mgrwt>
</event>
<event>
 4    1  0.1252123E+000  0.1731363E+03  0.7546771E-02  0.1174616E+00
         21   -1    0    0  501  502  0.00000000000E+00  0.00000000000E+00  0.56228277994E+02  0.56228277994E+02  0.00000000000E+00 0.  1.
         21   -1    0    0  502  503 -0.00000000000E+00 -0.00000000000E+00 -0.61211023109E+03  0.61211023109E+03  0.00000000000E+00 0.  1.
          6    1    1    2  501    0 -0.16870547215E+01  0.66572215063E+01 -0.15789411228E+03  0.23432182025E+03  0.17300000000E+03 0.  1.
         -6    1    1    2    0  503  0.16870547215E+01 -0.66572215063E+01 -0.39798784081E+03  0.43401668884E+03  0.17300000000E+03 0.  1.
<mgrwt>
<rscale>  2 0.17313626E+03</rscale>
<asrwt>0</asrwt>
<pdfrwt beam="1">  1       21 0.86505049E-02 0.17313626E+03</pdfrwt>
<pdfrwt beam="2">  1       21 0.94170798E-01 0.17313626E+03</pdfrwt>
<totfact> 0.99795988E+04</totfact>
</mgrwt>
</event>
<event>
 4    1  0.1252123E+000  0.2098305E+03  0.7546771E-02  0.1141700E+00
         21   -1    0    0  503  502  0.00000000000E+00  0.00000000000E+00  0.11688658276E+04  0.11688658276E+04  0.00000000000E+00 0.  1.
         21   -1    0    0  501  503 -0.00000000000E+00 -0.00000000000E+00 -0.52212681324E+02  0.52212681324E+02  0.00000000000E+00 0. -1.
          6    1    1    2  501    0 -0.52787663424E+01 -0.11862538394E+03  0.23608795779E+03  0.31585814997E+03  0.17300000000E+03 0. -1.
         -6    1    1    2    0  502  0.52787663424E+01  0.11862538394E+03  0.88056518850E+03  0.90522035897E+03  0.17300000000E+03 0.  1.
<mgrwt>
<rscale>  2 0.20983052E+03</rscale>
<asrwt>0</asrwt>
<pdfrwt beam="1">  1       21 0.17982549E+00 0.20983052E+03</pdfrwt>
<pdfrwt beam="2">  1       21 0.80327210E-02 0.20983052E+03</pdfrwt>
<totfact> 0.21479266E+04</totfact>
</mgrwt>
</event>
<event>
 4    1  0.1252123E+000  0.3037086E+03  0.7546771E-02  0.1083401E+00
         21   -1    0    0  503  502  0.00000000000E+00  0.00000000000E+00  0.46188804545E+03  0.46188804545E+03  0.00000000000E+00 0.  1.
         21   -1    0    0  501  503 -0.00000000000E+00 -0.00000000000E+00 -0.40632480211E+03  0.40632480211E+03  0.00000000000E+00 0.  1.
          6    1    1    2  501    0  0.18602279751E+03  0.16644951697E+03 -0.28178280197E+03  0.41429514887E+03  0.17300000000E+03 0.  1.
         -6    1    1    2    0  502 -0.18602279751E+03 -0.16644951697E+03  0.33734604532E+03  0.45391769869E+03  0.17300000000E+03 0.  1.
<mgrwt>
<rscale>  2 0.30370862E+03</rscale>
<asrwt>0</asrwt>
<pdfrwt beam="1">  1       21 0.71059699E-01 0.30370862E+03</pdfrwt>
<pdfrwt beam="2">  1       21 0.62511508E-01 0.30370862E+03</pdfrwt>
<totfact> 0.39546379E+03</totfact>
</mgrwt>
</event>
<event>
 4    1  0.1252123E+000  0.2170408E+03  0.7546771E-02  0.1136109E+00
         21   -1    0    0  501  502  0.00000000000E+00  0.00000000000E+00  0.14517542293E+04  0.14517542293E+04  0.00000000000E+00 0.  1.
         21   -1    0    0  502  503 -0.00000000000E+00 -0.00000000000E+00 -0.36936124142E+02  0.36936124142E+02  0.00000000000E+00 0. -1.
          6    1    1    2  501    0 -0.67787200021E+02  0.11217220521E+03  0.96687174493E+03  0.99093273195E+03  0.17300000000E+03 0. -1.
         -6    1    1    2    0  503  0.67787200021E+02 -0.11217220521E+03  0.44794636020E+03  0.49775762146E+03  0.17300000000E+03 0. -1.
<mgrwt>
<rscale>  2 0.21704080E+03</rscale>
<asrwt>0</asrwt>
<pdfrwt beam="1">  1       21 0.22334676E+00 0.21704080E+03</pdfrwt>
<pdfrwt beam="2">  1       21 0.56824818E-02 0.21704080E+03</pdfrwt>
<totfact> 0.20373006E+04</totfact>
</mgrwt>
</event>
<event>
 4    1  0.1252123E+000  0.1997613E+03  0.7546771E-02  0.1149941E+00
         21   -1    0    0  501  502  0.00000000000E+00  0.00000000000E+00  0.67225855111E+03  0.67225855111E+03  0.00000000000E+00 0.  1.
         21   -1    0    0  502  503 -0.00000000000E+00 -0.00000000000E+00 -0.67044440625E+02  0.67044440625E+02  0.00000000000E+00 0.  1.
          6    1    1    2  501    0 -0.22715280053E+02 -0.97260498515E+02  0.42776134919E+03  0.47210630199E+03  0.17300000000E+03 0. -1.
         -6    1    1    2    0  503  0.22715280053E+02  0.97260498515E+02  0.17745276130E+03  0.26719668975E+03  0.17300000000E+03 0. -1.
<mgrwt>
<rscale>  2 0.19976133E+03</rscale>
<asrwt>0</asrwt>
<pdfrwt beam="1">  1       21 0.10342439E+00 0.19976133E+03</pdfrwt>
<pdfrwt beam="2">  1       21 0.10314530E-01 0.19976133E+03</pdfrwt>
<totfact> 0.57991791E+04</totfact>
</mgrwt>
</event>
<event>
 4    1  0.1252123E+000  0.1731505E+03  0.7546771E-02  0.1174602E+00
         21   -1    0    0  501  502  0.00000000000E+00  0.00000000000E+00  0.47353557142E+03  0.47353557142E+03  0.00000000000E+00 0. -1.
         21   -1    0    0  502  503 -0.00000000000E+00 -0.00000000000E+00 -0.86123065294E+02  0.86123065294E+02  0.00000000000E+00 0. -1.
          6    1    1    2  501    0 -0.67012749822E+01 -0.26805191213E+01  0.33771671142E+03  0.37951768001E+03  0.17300000000E+03 0. -1.
         -6    1    1    2    0  503  0.67012749822E+01  0.26805191213E+01  0.49695794701E+02  0.18014095670E+03  0.17300000000E+03 0. -1.
<mgrwt>
<rscale>  2 0.17315049E+03</rscale>
<asrwt>0</asrwt>
<pdfrwt beam="1">  1       21 0.72851625E-01 0.17315049E+03</pdfrwt>
<pdfrwt beam="2">  1       21 0.13249703E-01 0.17315049E+03</pdfrwt>
<totfact> 0.83996627E+04</totfact>
</mgrwt>
</event>
<event>
 4    1  0.1252123E+000  0.2216840E+03  0.7546771E-02  0.1132634E+00
         21   -1    0    0  503  502  0.00000000000E+00  0.00000000000E+00  0.21578128516E+03  0.21578128516E+03  0.00000000000E+00 0. -1.
         21   -1    0    0  501  503 -0.00000000000E+00 -0.00000000000E+00 -0.24139242670E+03  0.24139242670E+03  0.00000000000E+00 0.  1.
          6    1    1    2  501    0  0.94057611801E+01  0.13829790322E+03 -0.67151302354E+02  0.23163133593E+03  0.17300000000E+03 0. -1.
         -6    1    1    2    0  502 -0.94057611801E+01 -0.13829790322E+03  0.41540160816E+02  0.22554237593E+03  0.17300000000E+03 0. -1.
<mgrwt>
<rscale>  2 0.22168396E+03</rscale>
<asrwt>0</asrwt>
<pdfrwt beam="1">  1       21 0.33197121E-01 0.22168396E+03</pdfrwt>
<pdfrwt beam="2">  1       21 0.37137296E-01 0.22168396E+03</pdfrwt>
<totfact> 0.60307965E+04</totfact>
</mgrwt>
</event>
<event>
 4    1  0.1252123E+000  0.2862000E+03  0.7546771E-02  0.1092350E+00
         21   -1    0    0  503  502  0.00000000000E+00  0.00000000000E+00  0.36680401167E+03  0.36680401167E+03  0.00000000000E+00 0. -1.
         21   -1    0    0  501  503 -0.00000000000E+00 -0.00000000000E+00 -0.25172056378E+03  0.25172056378E+03  0.00000000000E+00 0. -1.
          6    1    1    2  501    0 -0.17493340322E+03 -0.14621815341E+03 -0.46359151951E+02  0.28993036219E+03  0.17300000000E+03 0. -1.
         -6    1    1    2    0  502  0.17493340322E+03  0.14621815341E+03  0.16144259983E+03  0.32859421326E+03  0.17300000000E+03 0. -1.
<mgrwt>
<rscale>  2 0.28620001E+03</rscale>
<asrwt>0</asrwt>
<pdfrwt beam="1">  1       21 0.56431386E-01 0.28620001E+03</pdfrwt>
<pdfrwt beam="2">  1       21 0.38726241E-01 0.28620001E+03</pdfrwt>
<totfact> 0.18095375E+04</totfact>
</mgrwt>
</event>
<event>
 4    1  0.1252123E+000  0.2458568E+03  0.7546771E-02  0.1115952E+00
         21   -1    0    0  503  502  0.00000000000E+00  0.00000000000E+00  0.43383939257E+03  0.43383939257E+03  0.00000000000E+00 0.  1.
         21   -1    0    0  501  503 -0.00000000000E+00 -0.00000000000E+00 -0.14061575406E+03  0.14061575406E+03  0.00000000000E+00 0. -1.
          6    1    1    2  501    0  0.11903547471E+03 -0.12785586505E+03  0.11911488405E+03  0.27319209738E+03  0.17300000000E+03 0.  1.
         -6    1    1    2    0  502 -0.11903547471E+03  0.12785586505E+03  0.17410875447E+03  0.30126304926E+03  0.17300000000E+03 0. -1.
<mgrwt>
<rscale>  2 0.24585680E+03</rscale>
<asrwt>0</asrwt>
<pdfrwt beam="1">  1       21 0.66744521E-01 0.24585680E+03</pdfrwt>
<pdfrwt beam="2">  1       21 0.21633193E-01 0.24585680E+03</pdfrwt>
<totfact> 0.39958237E+04</totfact>
</mgrwt>
</event>
<event>
 4    1  0.1252123E+000  0.1763012E+03  0.7546771E-02  0.1171432E+00
         21   -1    0    0  503  502  0.00000000000E+00  0.00000000000E+00  0.12508730714E+03  0.12508730714E+03  0.00000000000E+00 0.  1.
         21   -1    0    0  501  503 -0.00000000000E+00 -0.00000000000E+00 -0.28372796893E+03  0.28372796893E+03  0.00000000000E+00 0.  1.
          6    1    1    2  501    0  0.33531694983E+02  0.53599157303E+01 -0.15136352183E+03  0.23236397958E+03  0.17300000000E+03 0.  1.
         -6    1    1    2    0  502 -0.33531694983E+02 -0.53599157303E+01 -0.72771399591E+01  0.17645129648E+03  0.17300000000E+03 0.  1.
<mgrwt>
<rscale>  2 0.17630117E+03</rscale>
<asrwt>0</asrwt>
<pdfrwt beam="1">  1       21 0.19244201E-01 0.17630117E+03</pdfrwt>
<pdfrwt beam="2">  1       21 0.43650457E-01 0.17630117E+03</pdfrwt>
<totfact> 0.12581110E+05</totfact>
</mgrwt>
</event>
<event>
 4    1  0.1252123E+000  0.1838415E+03  0.7546771E-02  0.1164136E+00
         21   -1    0    0  503  502  0.00000000000E+00  0.00000000000E+00  0.58984760376E+02  0.58984760376E+02  0.00000000000E+00 0.  1.
         21   -1    0    0  501  503 -0.00000000000E+00 -0.00000000000E+00 -0.66937952075E+03  0.66937952075E+03  0.00000000000E+00 0.  1.
          6    1    1    2  501    0  0.59227782016E+02 -0.18994036461E+02 -0.44339366287E+03  0.47999546233E+03  0.17300000000E+03 0.  1.
         -6    1    1    2    0  502 -0.59227782016E+02  0.18994036461E+02 -0.16700109751E+03  0.24836881880E+03  0.17300000000E+03 0.  1.
<mgrwt>
<rscale>  2 0.18384152E+03</rscale>
<asrwt>0</asrwt>
<pdfrwt beam="1">  1       21 0.90745782E-02 0.18384152E+03</pdfrwt>
<pdfrwt beam="2">  1       21 0.10298147E+00 0.18384152E+03</pdfrwt>
<totfact> 0.73984607E+04</totfact>
</mgrwt>
</event>
<event>
 4    1  0.1252123E+000  0.2392302E+03  0.7546771E-02  0.1120307E+00
         21   -1    0    0  501  502  0.00000000000E+00  0.00000000000E+00  0.11068429685E+03  0.11068429685E+03  0.00000000000E+00 0. -1.
         21   -1    0    0  502  503 -0.00000000000E+00 -0.00000000000E+00 -0.54460413106E+03  0.54460413106E+03  0.00000000000E+00 0.  1.
          6    1    1    2  501    0  0.16032619682E+03 -0.39969974691E+02 -0.14328338895E+03  0.27885698451E+03  0.17300000000E+03 0. -1.
         -6    1    1    2    0  503 -0.16032619682E+03  0.39969974691E+02 -0.29063644526E+03  0.37643144339E+03  0.17300000000E+03 0.  1.
<mgrwt>
<rscale>  2 0.23923020E+03</rscale>
<asrwt>0</asrwt>
<pdfrwt beam="1">  1       21 0.17028354E-01 0.23923020E+03</pdfrwt>
<pdfrwt beam="2">  1       21 0.83785249E-01 0.23923020E+03</pdfrwt>
<totfact> 0.37628933E+04</totfact>
</mgrwt>
</event>
<event>
 4    1  0.1252123E+000  0.2210138E+03  0.7546771E-02  0.1133129E+00
         21   -1    0    0  501  502  0.00000000000E+00  0.00000000000E+00  0.17136105916E+03  0.17136105916E+03  0.00000000000E+00 0.  1.
         21   -1    0    0  502  503 -0.00000000000E+00 -0.00000000000E+00 -0.29983627127E+03  0.29983627127E+03  0.00000000000E+00 0. -1.
          6    1    1    2  501    0 -0.11956933795E+02  0.13702236449E+03 -0.11924999576E+02  0.22133527114E+03  0.17300000000E+03 0. -1.
         -6    1    1    2    0  503  0.11956933795E+02 -0.13702236449E+03 -0.11655021253E+03  0.24986205930E+03  0.17300000000E+03 0.  1.
<mgrwt>
<rscale>  2 0.22101379E+03</rscale>
<asrwt>0</asrwt>
<pdfrwt beam="1">  1       21 0.26363240E-01 0.22101379E+03</pdfrwt>
<pdfrwt beam="2">  1       21 0.46128657E-01 0.22101379E+03</pdfrwt>
<totfact> 0.60835310E+04</totfact>
</mgrwt>
</event>
<event>
 4    1  0.1252123E+000  0.1882840E+03  0.7546771E-02  0.1160018E+00
         21   -1    0    0  503  502  0.00000000000E+00  0.00000000000E+00  0.38822191456E+02  0.38822191456E+02  0.00000000000E+00 0. -1.
         21   -1    0    0  501  503 -0.00000000000E+00 -0.00000000000E+00 -0.93767982459E+03  0.93767982459E+03  0.00000000000E+00 0.  1.
          6    1    1    2  501    0 -0.53255630800E+02 -0.51823916241E+02 -0.37047508123E+03  0.41557510310E+03  0.17300000000E+03 0.  1.
         -6    1    1    2    0  502  0.53255630800E+02  0.51823916241E+02 -0.52838255191E+03  0.56092691295E+03  0.17300000000E+03 0.  1.
<mgrwt>
<rscale>  2 0.18828404E+03</rscale>
<asrwt>0</asrwt>
<pdfrwt beam="1">  1       21 0.59726445E-02 0.18828404E+03</pdfrwt>
<pdfrwt beam="2">  1       21 0.14425844E+00 0.18828404E+03</pdfrwt>
<totfact> 0.65939378E+04</totfact>
</mgrwt>
</event>
<event>
 4    1  0.1252123E+000  0.2875648E+03  0.7546771E-02  0.1091628E+00
         21   -1    0    0  501  502  0.00000000000E+00  0.00000000000E+00  0.61515377172E+03  0.61515377172E+03  0.00000000000E+00 0. -1.
         21   -1    0    0  502  503 -0.00000000000E+00 -0.00000000000E+00 -0.17732732697E+03  0.17732732697E+03  0.00000000000E+00 0. -1.
          6    1    1    2  501    0 -0.50283820961E+02 -0.22413394801E+03  0.41380774327E+03  0.50391501038E+03  0.17300000000E+03 0. -1.
         -6    1    1    2    0  503  0.50283820961E+02  0.22413394801E+03  0.24018701479E+02  0.28856608831E+03  0.17300000000E+03 0. -1.
<mgrwt>
<rscale>  2 0.28756476E+03</rscale>
<asrwt>0</asrwt>
<pdfrwt beam="1">  1       21 0.94639040E-01 0.28756476E+03</pdfrwt>
<pdfrwt beam="2">  1       21 0.27281128E-01 0.28756476E+03</pdfrwt>
<totfact> 0.11337797E+04</totfact>
</mgrwt>
</event>
<event>
 4    1  0.1252123E+000  0.1884354E+03  0.7546771E-02  0.1159880E+00
         21   -1    0    0  503  502  0.00000000000E+00  0.00000000000E+00  0.11112942185E+03  0.11112942185E+03  0.00000000000E+00 0. -1.
         21   -1    0    0  501  503 -0.00000000000E+00 -0.00000000000E+00 -0.32061672164E+03  0.32061672164E+03  0.00000000000E+00 0. -1.
          6    1    1    2  501    0  0.20587190863E+02 -0.71798927255E+02 -0.11737729471E+03  0.22200303533E+03  0.17300000000E+03 0. -1.
         -6    1    1    2    0  502 -0.20587190863E+02  0.71798927255E+02 -0.92110005085E+02  0.20974310816E+03  0.17300000000E+03 0. -1.
<mgrwt>
<rscale>  2 0.18843545E+03</rscale>
<asrwt>0</asrwt>
<pdfrwt beam="1">  1       21 0.17096834E-01 0.18843545E+03</pdfrwt>
<pdfrwt beam="2">  1       21 0.49325649E-01 0.18843545E+03</pdfrwt>
<totfact> 0.12119419E+05</totfact>
</mgrwt>
</event>
<event>
 4    1  0.1252123E+000  0.2378279E+03  0.7546771E-02  0.1121248E+00
         21   -1    0    0  503  502  0.00000000000E+00  0.00000000000E+00  0.34688129728E+02  0.34688129728E+02  0.00000000000E+00 0. -1.
         21   -1    0    0  501  503 -0.00000000000E+00 -0.00000000000E+00 -0.24041679194E+04  0.24041679194E+04  0.00000000000E+00 0. -1.
          6    1    1    2  501    0  0.98913590976E+02  0.12980442493E+03 -0.18764530735E+04  0.18914645712E+04  0.17300000000E+03 0. -1.
         -6    1    1    2    0  502 -0.98913590976E+02 -0.12980442493E+03 -0.49302671622E+03  0.54739147794E+03  0.17300000000E+03 0. -1.
<mgrwt>
<rscale>  2 0.23782785E+03</rscale>
<asrwt>0</asrwt>
<pdfrwt beam="1">  1       21 0.53366341E-02 0.23782785E+03</pdfrwt>
<pdfrwt beam="2">  1       21 0.36987207E+00 0.23782785E+03</pdfrwt>
<totfact> 0.30319049E+03</totfact>
</mgrwt>
</event>
<event>
 4    1  0.1252123E+000  0.2235941E+03  0.7546771E-02  0.1131232E+00
         21   -1    0    0  501  502  0.00000000000E+00  0.00000000000E+00  0.26902995982E+02  0.26902995982E+02  0.00000000000E+00 0. -1.
         21   -1    0    0  502  503 -0.00000000000E+00 -0.00000000000E+00 -0.21900078690E+04  0.21900078690E+04  0.00000000000E+00 0. -1.
          6    1    1    2  501    0  0.14164709115E+03 -0.11961041789E+01 -0.65017112980E+03  0.68754405468E+03  0.17300000000E+03 0. -1.
         -6    1    1    2    0  503 -0.14164709115E+03  0.11961041789E+01 -0.15129337433E+04  0.15293668103E+04  0.17300000000E+03 0. -1.
<mgrwt>
<rscale>  2 0.22359412E+03</rscale>
<asrwt>0</asrwt>
<pdfrwt beam="1">  1       21 0.41389236E-02 0.22359412E+03</pdfrwt>
<pdfrwt beam="2">  1       21 0.33692419E+00 0.22359412E+03</pdfrwt>
<totfact> 0.74582257E+03</totfact>
</mgrwt>
</event>
<event>
 4    1  0.1252123E+000  0.2321744E+03  0.7546771E-02  0.1125119E+00
         21   -1    0    0  503  502  0.00000000000E+00  0.00000000000E+00  0.29742220428E+03  0.29742220428E+03  0.00000000000E+00 0. -1.
         21   -1    0    0  501  503 -0.00000000000E+00 -0.00000000000E+00 -0.20064306240E+03  0.20064306240E+03  0.00000000000E+00 0. -1.
          6    1    1    2  501    0  0.41995524274E+02 -0.14903794326E+03 -0.29052034819E+02  0.23398494250E+03  0.17300000000E+03 0. -1.
         -6    1    1    2    0  502 -0.41995524274E+02  0.14903794326E+03  0.12583117670E+03  0.26408032418E+03  0.17300000000E+03 0. -1.
<mgrwt>
<rscale>  2 0.23217436E+03</rscale>
<asrwt>0</asrwt>
<pdfrwt beam="1">  1       21 0.45757262E-01 0.23217436E+03</pdfrwt>
<pdfrwt beam="2">  1       21 0.30868163E-01 0.23217436E+03</pdfrwt>
<totfact> 0.45294966E+04</totfact>
</mgrwt>
</event>
<event>
 4    1  0.1252123E+000  0.1976521E+03  0.7546771E-02  0.1151735E+00
         21   -1    0    0  501  502  0.00000000000E+00  0.00000000000E+00  0.68158078615E+03  0.68158078615E+03  0.00000000000E+00 0.  1.
         21   -1    0    0  502  503 -0.00000000000E+00 -0.00000000000E+00 -0.10459088063E+03  0.10459088063E+03  0.00000000000E+00 0.  1.
          6    1    1    2  501    0  0.78926724412E+02  0.53925319458E+02  0.55276609899E+03  0.58704065285E+03  0.17300000000E+03 0.  1.
         -6    1    1    2    0  503 -0.78926724412E+02 -0.53925319458E+02  0.24223806535E+02  0.19913101393E+03  0.17300000000E+03 0.  1.
<mgrwt>
<rscale>  2 0.19765214E+03</rscale>
<asrwt>0</asrwt>
<pdfrwt beam="1">  1       21 0.10485858E+00 0.19765214E+03</pdfrwt>
<pdfrwt beam="2">  1       21 0.16090905E-01 0.19765214E+03</pdfrwt>
<totfact> 0.25218484E+04</totfact>
</mgrwt>
</event>
<event>
 4    1  0.1252123E+000  0.1870573E+03  0.7546771E-02  0.1161143E+00
         21   -1    0    0  503  502  0.00000000000E+00  0.00000000000E+00  0.25320114240E+02  0.25320114240E+02  0.00000000000E+00 0.  1.
         21   -1    0    0  501  503 -0.00000000000E+00 -0.00000000000E+00 -0.14387875812E+04  0.14387875812E+04  0.00000000000E+00 0.  1.
          6    1    1    2  501    0  0.11587368651E+02 -0.70193664695E+02 -0.85226966089E+03  0.87255601112E+03  0.17300000000E+03 0.  1.
         -6    1    1    2    0  502 -0.11587368651E+02  0.70193664695E+02 -0.56119780603E+03  0.59155168428E+03  0.17300000000E+03 0.  1.
<mgrwt>
<rscale>  2 0.18705726E+03</rscale>
<asrwt>0</asrwt>
<pdfrwt beam="1">  1       21 0.38954015E-02 0.18705726E+03</pdfrwt>
<pdfrwt beam="2">  1       21 0.22135198E+00 0.18705726E+03</pdfrwt>
<totfact> 0.40594758E+04</totfact>
</mgrwt>
</event>
<event>
 4    1  0.1252123E+000  0.1797429E+03  0.7546771E-02  0.1168052E+00
         21   -1    0    0  501  502  0.00000000000E+00  0.00000000000E+00  0.51098730683E+03  0.51098730683E+03  0.00000000000E+00 0.  1.
         21   -1    0    0  502  503 -0.00000000000E+00 -0.00000000000E+00 -0.72338087208E+02  0.72338087208E+02  0.00000000000E+00 0.  1.
          6    1    1    2  501    0  0.39754556420E+02  0.28250144937E+02  0.32284242064E+03  0.36950605409E+03  0.17300000000E+03 0.  1.
         -6    1    1    2    0  503 -0.39754556420E+02 -0.28250144937E+02  0.11580679898E+03  0.21381933995E+03  0.17300000000E+03 0.  1.
<mgrwt>
<rscale>  2 0.17974286E+03</rscale>
<asrwt>0</asrwt>
<pdfrwt beam="1">  1       21 0.78613429E-01 0.17974286E+03</pdfrwt>
<pdfrwt beam="2">  1       21 0.11128937E-01 0.17974286E+03</pdfrwt>
<totfact> 0.96533539E+04</totfact>
</mgrwt>
</event>
<event>
 4    1  0.1252123E+000  0.1852194E+03  0.7546771E-02  0.1162845E+00
         21   -1    0    0  503  502  0.00000000000E+00  0.00000000000E+00  0.26264712201E+02  0.26264712201E+02  0.00000000000E+00 0. -1.
         21   -1    0    0  501  503 -0.00000000000E+00 -0.00000000000E+00 -0.14455408595E+04  0.14455408595E+04  0.00000000000E+00 0. -1.
          6    1    1    2  501    0  0.23652104293E+02 -0.61788303942E+02 -0.93813956095E+03  0.95624894895E+03  0.17300000000E+03 0. -1.
         -6    1    1    2    0  502 -0.23652104293E+02  0.61788303942E+02 -0.48113658632E+03  0.51555662273E+03  0.17300000000E+03 0. -1.
<mgrwt>
<rscale>  2 0.18521937E+03</rscale>
<asrwt>0</asrwt>
<pdfrwt beam="1">  1       21 0.40407244E-02 0.18521937E+03</pdfrwt>
<pdfrwt beam="2">  1       21 0.22239093E+00 0.18521937E+03</pdfrwt>
<totfact> 0.37677635E+04</totfact>
</mgrwt>
</event>
<event>
 4    1  0.1252123E+000  0.1916524E+03  0.7546771E-02  0.1156979E+00
         21   -1    0    0  501  502  0.00000000000E+00  0.00000000000E+00  0.28928596970E+03  0.28928596970E+03  0.00000000000E+00 0.  1.
         21   -1    0    0  502  503 -0.00000000000E+00 -0.00000000000E+00 -0.13377650034E+03  0.13377650034E+03  0.00000000000E+00 0.  1.
          6    1    1    2  501    0  0.24447824115E+02  0.78765168364E+02  0.30040758225E+02  0.19399251276E+03  0.17300000000E+03 0. -1.
         -6    1    1    2    0  503 -0.24447824115E+02 -0.78765168364E+02  0.12546871114E+03  0.22906995727E+03  0.17300000000E+03 0. -1.
<mgrwt>
<rscale>  2 0.19165241E+03</rscale>
<asrwt>0</asrwt>
<pdfrwt beam="1">  1       21 0.44505534E-01 0.19165241E+03</pdfrwt>
<pdfrwt beam="2">  1       21 0.20581000E-01 0.19165241E+03</pdfrwt>
<totfact> 0.10609993E+05</totfact>
</mgrwt>
</event>
<event>
 4    1  0.1252123E+000  0.2454795E+03  0.7546771E-02  0.1116195E+00
         21   -1    0    0  501  502  0.00000000000E+00  0.00000000000E+00  0.24677224271E+03  0.24677224271E+03  0.00000000000E+00 0. -1.
         21   -1    0    0  502  503 -0.00000000000E+00 -0.00000000000E+00 -0.34043248949E+03  0.34043248949E+03  0.00000000000E+00 0. -1.
          6    1    1    2  501    0 -0.16875294293E+03  0.43053999349E+02  0.10927578821E+03  0.26870318290E+03  0.17300000000E+03 0. -1.
         -6    1    1    2    0  503  0.16875294293E+03 -0.43053999349E+02 -0.20293603499E+03  0.31850154930E+03  0.17300000000E+03 0. -1.
<mgrwt>
<rscale>  2 0.24547954E+03</rscale>
<asrwt>0</asrwt>
<pdfrwt beam="1">  1       21 0.37964961E-01 0.24547954E+03</pdfrwt>
<pdfrwt beam="2">  1       21 0.52374229E-01 0.24547954E+03</pdfrwt>
<totfact> 0.22489262E+04</totfact>
</mgrwt>
</event>
<event>
 4    1  0.1252123E+000  0.1926052E+03  0.7546771E-02  0.1156132E+00
         21   -1    0    0  501  502  0.00000000000E+00  0.00000000000E+00  0.16663187983E+03  0.16663187983E+03  0.00000000000E+00 0. -1.
         21   -1    0    0  502  503 -0.00000000000E+00 -0.00000000000E+00 -0.22289375742E+03  0.22289375742E+03  0.00000000000E+00 0.  1.
          6    1    1    2  501    0 -0.16672223741E+02 -0.83004785083E+02 -0.21393324187E+02  0.19378965842E+03  0.17300000000E+03 0.  1.
         -6    1    1    2    0  503  0.16672223741E+02  0.83004785083E+02 -0.34868553405E+02  0.19573597883E+03  0.17300000000E+03 0.  1.
<mgrwt>
<rscale>  2 0.19260519E+03</rscale>
<asrwt>0</asrwt>
<pdfrwt beam="1">  1       21 0.25635674E-01 0.19260519E+03</pdfrwt>
<pdfrwt beam="2">  1       21 0.34291347E-01 0.19260519E+03</pdfrwt>
<totfact> 0.11832067E+05</totfact>
</mgrwt>
</event>
<event>
 4    1  0.1252123E+000  0.6562865E+03  0.7546771E-02  0.9795054E-01
         21   -1    0    0  501  502  0.00000000000E+00  0.00000000000E+00  0.24777380253E+03  0.24777380253E+03  0.00000000000E+00 0. -1.
         21   -1    0    0  502  503 -0.00000000000E+00 -0.00000000000E+00 -0.24727444411E+04  0.24727444411E+04  0.00000000000E+00 0.  1.
          6    1    1    2  501    0 -0.41941151607E+03 -0.47421190793E+03 -0.37116919564E+03  0.75397514895E+03  0.17300000000E+03 0. -1.
         -6    1    1    2    0  503  0.41941151607E+03  0.47421190793E+03 -0.18538014429E+04  0.19665430947E+04  0.17300000000E+03 0.  1.
<mgrwt>
<rscale>  2 0.65628649E+03</rscale>
<asrwt>0</asrwt>
<pdfrwt beam="1">  1       21 0.38119047E-01 0.65628649E+03</pdfrwt>
<pdfrwt beam="2">  1       21 0.38042221E+00 0.65628649E+03</pdfrwt>
<totfact> 0.50606913E+01</totfact>
</mgrwt>
</event>
<event>
 4    1  0.1252123E+000  0.1899414E+03  0.7546771E-02  0.1158514E+00
         21   -1    0    0  501  502  0.00000000000E+00  0.00000000000E+00  0.15157879121E+04  0.15157879121E+04  0.00000000000E+00 0. -1.
         21   -1    0    0  502  503 -0.00000000000E+00 -0.00000000000E+00 -0.25834301590E+02  0.25834301590E+02  0.00000000000E+00 0. -1.
          6    1    1    2  501    0 -0.71764662084E+02 -0.31600387793E+02  0.96120705966E+03  0.97979424512E+03  0.17300000000E+03 0. -1.
         -6    1    1    2    0  503  0.71764662084E+02  0.31600387793E+02  0.52874655087E+03  0.56182796859E+03  0.17300000000E+03 0. -1.
<mgrwt>
<rscale>  2 0.18994144E+03</rscale>
<asrwt>0</asrwt>
<pdfrwt beam="1">  1       21 0.23319807E+00 0.18994144E+03</pdfrwt>
<pdfrwt beam="2">  1       21 0.39745091E-02 0.18994144E+03</pdfrwt>
<totfact> 0.33206127E+04</totfact>
</mgrwt>
</event>
<event>
 4    1  0.1252123E+000  0.2281408E+03  0.7546771E-02  0.1127955E+00
         21   -1    0    0  501  502  0.00000000000E+00  0.00000000000E+00  0.73004845550E+02  0.73004845550E+02  0.00000000000E+00 0.  1.
         21   -1    0    0  502  503 -0.00000000000E+00 -0.00000000000E+00 -0.72629844240E+03  0.72629844240E+03  0.00000000000E+00 0. -1.
          6    1    1    2  501    0 -0.14813186347E+03  0.13273118274E+02 -0.27245063498E+03  0.35535555876E+03  0.17300000000E+03 0. -1.
         -6    1    1    2    0  503  0.14813186347E+03 -0.13273118274E+02 -0.38084296187E+03  0.44394772919E+03  0.17300000000E+03 0.  1.
<mgrwt>
<rscale>  2 0.22814080E+03</rscale>
<asrwt>0</asrwt>
<pdfrwt beam="1">  1       21 0.11231514E-01 0.22814080E+03</pdfrwt>
<pdfrwt beam="2">  1       21 0.11173823E+00 0.22814080E+03</pdfrwt>
<totfact> 0.40759799E+04</totfact>
</mgrwt>
</event>
<event>
 4    1  0.1252123E+000  0.2576217E+03  0.7546771E-02  0.1108581E+00
         21   -1    0    0  503  502  0.00000000000E+00  0.00000000000E+00  0.11812164499E+03  0.11812164499E+03  0.00000000000E+00 0. -1.
         21   -1    0    0  501  503 -0.00000000000E+00 -0.00000000000E+00 -0.56315167720E+03  0.56315167720E+03  0.00000000000E+00 0. -1.
          6    1    1    2  501    0  0.85136502544E+02 -0.17085581262E+03 -0.20626039454E+03  0.33001861027E+03  0.17300000000E+03 0. -1.
         -6    1    1    2    0  502 -0.85136502544E+02  0.17085581262E+03 -0.23876963768E+03  0.35125471192E+03  0.17300000000E+03 0. -1.
<mgrwt>
<rscale>  2 0.25762169E+03</rscale>
<asrwt>0</asrwt>
<pdfrwt beam="1">  1       21 0.18172561E-01 0.25762169E+03</pdfrwt>
<pdfrwt beam="2">  1       21 0.86638720E-01 0.25762169E+03</pdfrwt>
<totfact> 0.30622079E+04</totfact>
</mgrwt>
</event>
<event>
 4    1  0.1252123E+000  0.3440680E+03  0.7546771E-02  0.1065076E+00
         21   -1    0    0  503  502  0.00000000000E+00  0.00000000000E+00  0.28665541705E+03  0.28665541705E+03  0.00000000000E+00 0. -1.
         21   -1    0    0  501  503 -0.00000000000E+00 -0.00000000000E+00 -0.42156325478E+03  0.42156325478E+03  0.00000000000E+00 0.  1.
          6    1    1    2  501    0 -0.23635919540E+03 -0.18052188116E+03 -0.11798329608E+03  0.36373462439E+03  0.17300000000E+03 0.  1.
         -6    1    1    2    0  502  0.23635919540E+03  0.18052188116E+03 -0.16924541652E+02  0.34448404744E+03  0.17300000000E+03 0. -1.
<mgrwt>
<rscale>  2 0.34406804E+03</rscale>
<asrwt>0</asrwt>
<pdfrwt beam="1">  1       21 0.44100833E-01 0.34406804E+03</pdfrwt>
<pdfrwt beam="2">  1       21 0.64855886E-01 0.34406804E+03</pdfrwt>
<totfact> 0.99973322E+03</totfact>
</mgrwt>
</event>
<event>
 4    1  0.1252123E+000  0.2254267E+03  0.7546771E-02  0.1129901E+00
         21   -1    0    0  503  502  0.00000000000E+00  0.00000000000E+00  0.17009778839E+03  0.17009778839E+03  0.00000000000E+00 0.  1.
         21   -1    0    0  501  503 -0.00000000000E+00 -0.00000000000E+00 -0.41012591792E+03  0.41012591792E+03  0.00000000000E+00 0. -1.
          6    1    1    2  501    0 -0.98040441047E+02  0.10618983369E+03 -0.27119493632E+03  0.35265266530E+03  0.17300000000E+03 0. -1.
         -6    1    1    2    0  502  0.98040441047E+02 -0.10618983369E+03  0.31166806785E+02  0.22757104101E+03  0.17300000000E+03 0.  1.
<mgrwt>
<rscale>  2 0.22542673E+03</rscale>
<asrwt>0</asrwt>
<pdfrwt beam="1">  1       21 0.26168891E-01 0.22542673E+03</pdfrwt>
<pdfrwt beam="2">  1       21 0.63096295E-01 0.22542673E+03</pdfrwt>
<totfact> 0.31714352E+04</totfact>
</mgrwt>
</event>
<event>
 4    1  0.1252123E+000  0.1900994E+03  0.7546771E-02  0.1158372E+00
         21   -1    0    0  501  502  0.00000000000E+00  0.00000000000E+00  0.16256815135E+04  0.16256815135E+04  0.00000000000E+00 0.  1.
         21   -1    0    0  502  503 -0.00000000000E+00 -0.00000000000E+00 -0.31059952207E+02  0.31059952207E+02  0.00000000000E+00 0. -1.
          6    1    1    2  501    0  0.78208391233E+02  0.96045182032E+01  0.12390034414E+04  0.12535020251E+04  0.17300000000E+03 0.  1.
         -6    1    1    2    0  503 -0.78208391233E+02 -0.96045182032E+01  0.35561811986E+03  0.40323944054E+03  0.17300000000E+03 0. -1.
<mgrwt>
<rscale>  2 0.19009945E+03</rscale>
<asrwt>0</asrwt>
<pdfrwt beam="1">  1       21 0.25010478E+00 0.19009945E+03</pdfrwt>
<pdfrwt beam="2">  1       21 0.47784555E-02 0.19009945E+03</pdfrwt>
<totfact> 0.19328964E+04</totfact>
</mgrwt>
</event>
<event>
 4    1  0.1252123E+000  0.1828400E+03  0.7546771E-02  0.1165082E+00
         21   -1    0    0  501  502  0.00000000000E+00  0.00000000000E+00  0.15381911056E+03  0.15381911056E+03  0.00000000000E+00 0.  1.
         21   -1    0    0  502  503 -0.00000000000E+00 -0.00000000000E+00 -0.28747784147E+03  0.28747784147E+03  0.00000000000E+00 0.  1.
          6    1    1    2  501    0 -0.48228584127E+02 -0.34285250716E+02 -0.17581930960E+03  0.25365903172E+03  0.17300000000E+03 0.  1.
         -6    1    1    2    0  503  0.48228584127E+02  0.34285250716E+02  0.42160578694E+02  0.18763792031E+03  0.17300000000E+03 0.  1.
<mgrwt>
<rscale>  2 0.18284003E+03</rscale>
<asrwt>0</asrwt>
<pdfrwt beam="1">  1       21 0.23664479E-01 0.18284003E+03</pdfrwt>
<pdfrwt beam="2">  1       21 0.44227359E-01 0.18284003E+03</pdfrwt>
<totfact> 0.82889769E+04</totfact>
</mgrwt>
</event>
<event>
 4    1  0.1252123E+000  0.2432863E+03  0.7546771E-02  0.1117623E+00
         21   -1    0    0  501  502  0.00000000000E+00  0.00000000000E+00  0.95024669932E+03  0.95024669932E+03  0.00000000000E+00 0.  1.
         21   -1    0    0  502  503 -0.00000000000E+00 -0.00000000000E+00 -0.11751791593E+03  0.11751791593E+03  0.00000000000E+00 0. -1.
          6    1    1    2  501    0  0.16066275399E+03  0.58708798194E+02  0.78236657034E+03  0.81932026332E+03  0.17300000000E+03 0.  1.
         -6    1    1    2    0  503 -0.16066275399E+03 -0.58708798194E+02  0.50362213054E+02  0.24844435193E+03  0.17300000000E+03 0. -1.
<mgrwt>
<rscale>  2 0.24328634E+03</rscale>
<asrwt>0</asrwt>
<pdfrwt beam="1">  1       21 0.14619179E+00 0.24328634E+03</pdfrwt>
<pdfrwt beam="2">  1       21 0.18079680E-01 0.24328634E+03</pdfrwt>
<totfact> 0.85918492E+03</totfact>
</mgrwt>
</event>
<event>
 4    1  0.1252123E+000  0.1800918E+03  0.7546771E-02  0.1167714E+00
         21   -1    0    0  503  502  0.00000000000E+00  0.00000000000E+00  0.15131256572E+03  0.15131256572E+03  0.00000000000E+00 0. -1.
         21   -1    0    0  501  503 -0.00000000000E+00 -0.00000000000E+00 -0.22984554684E+03  0.22984554684E+03  0.00000000000E+00 0. -1.
          6    1    1    2  501    0 -0.48477366011E+02 -0.12409551768E+02 -0.88758413715E+02  0.20077626353E+03  0.17300000000E+03 0. -1.
         -6    1    1    2    0  502  0.48477366011E+02  0.12409551768E+02  0.10225432593E+02  0.18038184904E+03  0.17300000000E+03 0. -1.
<mgrwt>
<rscale>  2 0.18009179E+03</rscale>
<asrwt>0</asrwt>
<pdfrwt beam="1">  1       21 0.23278856E-01 0.18009179E+03</pdfrwt>
<pdfrwt beam="2">  1       21 0.35360853E-01 0.18009179E+03</pdfrwt>
<totfact> 0.13432980E+05</totfact>
</mgrwt>
</event>
<event>
 4    1  0.1252123E+000  0.2050934E+03  0.7546771E-02  0.1145511E+00
         21   -1    0    0  503  502  0.00000000000E+00  0.00000000000E+00  0.14926372682E+03  0.14926372682E+03  0.00000000000E+00 0. -1.
         21   -1    0    0  501  503 -0.00000000000E+00 -0.00000000000E+00 -0.30246175436E+03  0.30246175436E+03  0.00000000000E+00 0.  1.
          6    1    1    2  501    0  0.27345295652E+02 -0.10670780150E+03 -0.13562408091E+03  0.24588048197E+03  0.17300000000E+03 0.  1.
         -6    1    1    2    0  502 -0.27345295652E+02  0.10670780150E+03 -0.17573946637E+02  0.20584499920E+03  0.17300000000E+03 0.  1.
<mgrwt>
<rscale>  2 0.20509344E+03</rscale>
<asrwt>0</asrwt>
<pdfrwt beam="1">  1       21 0.22963651E-01 0.20509344E+03</pdfrwt>
<pdfrwt beam="2">  1       21 0.46532577E-01 0.20509344E+03</pdfrwt>
<totfact> 0.78313209E+04</totfact>
</mgrwt>
</event>
<event>
 4    1  0.1252123E+000  0.2162318E+03  0.7546771E-02  0.1136724E+00
         21   -1    0    0  501  502  0.00000000000E+00  0.00000000000E+00  0.15500032764E+03  0.15500032764E+03  0.00000000000E+00 0. -1.
         21   -1    0    0  502  503 -0.00000000000E+00 -0.00000000000E+00 -0.30716786263E+03  0.30716786263E+03  0.00000000000E+00 0. -1.
          6    1    1    2  501    0 -0.10484939130E+02 -0.12929526607E+03 -0.45118239595E+02  0.22088878496E+03  0.17300000000E+03 0. -1.
         -6    1    1    2    0  503  0.10484939130E+02  0.12929526607E+03 -0.10704929540E+03  0.24127940530E+03  0.17300000000E+03 0. -1.
<mgrwt>
<rscale>  2 0.21623182E+03</rscale>
<asrwt>0</asrwt>
<pdfrwt beam="1">  1       21 0.23846204E-01 0.21623182E+03</pdfrwt>
<pdfrwt beam="2">  1       21 0.47256594E-01 0.21623182E+03</pdfrwt>
<totfact> 0.70271948E+04</totfact>
</mgrwt>
</event>
<event>
 4    1  0.1252123E+000  0.2101971E+03  0.7546771E-02  0.1141410E+00
         21   -1    0    0  501  502  0.00000000000E+00  0.00000000000E+00  0.46816585208E+02  0.46816585208E+02  0.00000000000E+00 0.  1.
         21   -1    0    0  502  503 -0.00000000000E+00 -0.00000000000E+00 -0.98226894262E+03  0.98226894262E+03  0.00000000000E+00 0.  1.
          6    1    1    2  501    0 -0.36868866160E+02 -0.11355390593E+03 -0.56962883887E+03  0.60717362996E+03  0.17300000000E+03 0.  1.
         -6    1    1    2    0  503  0.36868866160E+02  0.11355390593E+03 -0.36582351853E+03  0.42191189786E+03  0.17300000000E+03 0.  1.
<mgrwt>
<rscale>  2 0.21019706E+03</rscale>
<asrwt>0</asrwt>
<pdfrwt beam="1">  1       21 0.72025515E-02 0.21019706E+03</pdfrwt>
<pdfrwt beam="2">  1       21 0.15111830E+00 0.21019706E+03</pdfrwt>
<totfact> 0.41774126E+04</totfact>
</mgrwt>
</event>
<event>
 4    1  0.1252123E+000  0.2300613E+03  0.7546771E-02  0.1126597E+00
         21   -1    0    0  501  502  0.00000000000E+00  0.00000000000E+00  0.46293612301E+03  0.46293612301E+03  0.00000000000E+00 0. -1.
         21   -1    0    0  502  503 -0.00000000000E+00 -0.00000000000E+00 -0.16219646473E+03  0.16219646473E+03  0.00000000000E+00 0. -1.
          6    1    1    2  501    0  0.14397626068E+03 -0.47644808978E+02  0.32016691164E+03  0.39425251143E+03  0.17300000000E+03 0. -1.
         -6    1    1    2    0  503 -0.14397626068E+03  0.47644808978E+02 -0.19427253362E+02  0.23088007631E+03  0.17300000000E+03 0. -1.
<mgrwt>
<rscale>  2 0.23006128E+03</rscale>
<asrwt>0</asrwt>
<pdfrwt beam="1">  1       21 0.71220941E-01 0.23006128E+03</pdfrwt>
<pdfrwt beam="2">  1       21 0.24953303E-01 0.23006128E+03</pdfrwt>
<totfact> 0.26566136E+04</totfact>
</mgrwt>
</event>
<event>
 4    1  0.1252123E+000  0.1836855E+03  0.7546771E-02  0.1164283E+00
         21   -1    0    0  503  502  0.00000000000E+00  0.00000000000E+00  0.20997478532E+02  0.20997478532E+02  0.00000000000E+00 0.  1.
         21   -1    0    0  501  503 -0.00000000000E+00 -0.00000000000E+00 -0.19005231018E+04  0.19005231018E+04  0.00000000000E+00 0.  1.
          6    1    1    2  501    0 -0.58892266970E+02 -0.18522040792E+02 -0.56211184960E+03  0.59136291443E+03  0.17300000000E+03 0.  1.
         -6    1    1    2    0  502  0.58892266970E+02  0.18522040792E+02 -0.13174137736E+04  0.13301576659E+04  0.17300000000E+03 0.  1.
<mgrwt>
<rscale>  2 0.18368551E+03</rscale>
<asrwt>0</asrwt>
<pdfrwt beam="1">  1       21 0.32303819E-02 0.18368551E+03</pdfrwt>
<pdfrwt beam="2">  1       21 0.29238812E+00 0.18368551E+03</pdfrwt>
<totfact> 0.21322580E+04</totfact>
</mgrwt>
</event>
<event>
 4    1  0.1252123E+000  0.1871122E+03  0.7546771E-02  0.1161092E+00
         21   -1    0    0  503  502  0.00000000000E+00  0.00000000000E+00  0.13653972998E+03  0.13653972998E+03  0.00000000000E+00 0.  1.
         21   -1    0    0  501  503 -0.00000000000E+00 -0.00000000000E+00 -0.35998319270E+03  0.35998319270E+03  0.00000000000E+00 0.  1.
          6    1    1    2  501    0 -0.34241230347E+02 -0.62526185503E+02 -0.24488335364E+03  0.30818637643E+03  0.17300000000E+03 0.  1.
         -6    1    1    2    0  502  0.34241230347E+02  0.62526185503E+02  0.21439890925E+02  0.18833654625E+03  0.17300000000E+03 0.  1.
<mgrwt>
<rscale>  2 0.18711223E+03</rscale>
<asrwt>0</asrwt>
<pdfrwt beam="1">  1       21 0.21006112E-01 0.18711223E+03</pdfrwt>
<pdfrwt beam="2">  1       21 0.55382029E-01 0.18711223E+03</pdfrwt>
<totfact> 0.64880361E+04</totfact>
</mgrwt>
</event>
<event>
 4    1  0.1252123E+000  0.1944481E+03  0.7546771E-02  0.1154510E+00
         21   -1    0    0  501  502  0.00000000000E+00  0.00000000000E+00  0.10822971754E+03  0.10822971754E+03  0.00000000000E+00 0. -1.
         21   -1    0    0  502  503 -0.00000000000E+00 -0.00000000000E+00 -0.52952701449E+03  0.52952701449E+03  0.00000000000E+00 0. -1.
          6    1    1    2  501    0  0.28551279802E+02 -0.84058722505E+02 -0.24641013371E+02  0.19600312229E+03  0.17300000000E+03 0. -1.
         -6    1    1    2    0  503 -0.28551279802E+02  0.84058722505E+02 -0.39665628359E+03  0.44175360974E+03  0.17300000000E+03 0. -1.
<mgrwt>
<rscale>  2 0.19444805E+03</rscale>
<asrwt>0</asrwt>
<pdfrwt beam="1">  1       21 0.16650726E-01 0.19444805E+03</pdfrwt>
<pdfrwt beam="2">  1       21 0.81465693E-01 0.19444805E+03</pdfrwt>
<totfact> 0.42742954E+04</totfact>
</mgrwt>
</event>
<event>
 4    1  0.1252123E+000  0.2881759E+03  0.7546771E-02  0.1091305E+00
         21   -1    0    0  503  502  0.00000000000E+00  0.00000000000E+00  0.91532832325E+03  0.91532832325E+03  0.00000000000E+00 0. -1.
         21   -1    0    0  501  503 -0.00000000000E+00 -0.00000000000E+00 -0.97110705450E+02  0.97110705450E+02  0.00000000000E+00 0. -1.
          6    1    1    2  501    0  0.16735071271E+02 -0.22986149522E+03  0.27932283969E+03  0.40133105831E+03  0.17300000000E+03 0. -1.
         -6    1    1    2    0  502 -0.16735071271E+02  0.22986149522E+03  0.53889477811E+03  0.61110797039E+03  0.17300000000E+03 0. -1.
<mgrwt>
<rscale>  2 0.28817594E+03</rscale>
<asrwt>0</asrwt>
<pdfrwt beam="1">  1       21 0.14081974E+00 0.28817594E+03</pdfrwt>
<pdfrwt beam="2">  1       21 0.14940109E-01 0.28817594E+03</pdfrwt>
<totfact> 0.13157404E+04</totfact>
</mgrwt>
</event>
<event>
 4    1  0.1252123E+000  0.1805133E+03  0.7546771E-02  0.1167307E+00
         21   -1    0    0  501  502  0.00000000000E+00  0.00000000000E+00  0.11389565285E+03  0.11389565285E+03  0.00000000000E+00 0. -1.
         21   -1    0    0  502  503 -0.00000000000E+00 -0.00000000000E+00 -0.28667276191E+03  0.28667276191E+03  0.00000000000E+00 0. -1.
          6    1    1    2  501    0  0.45173321143E+02 -0.24807685192E+02 -0.95374952354E+02  0.20416030889E+03  0.17300000000E+03 0.  1.
         -6    1    1    2    0  503 -0.45173321143E+02  0.24807685192E+02 -0.77402156707E+02  0.19640810587E+03  0.17300000000E+03 0.  1.
<mgrwt>
<rscale>  2 0.18051330E+03</rscale>
<asrwt>0</asrwt>
<pdfrwt beam="1">  1       21 0.17522408E-01 0.18051330E+03</pdfrwt>
<pdfrwt beam="2">  1       21 0.44103501E-01 0.18051330E+03</pdfrwt>
<totfact> 0.14628380E+05</totfact>
</mgrwt>
</event>
<event>
 4    1  0.1252123E+000  0.2163198E+03  0.7546771E-02  0.1136657E+00
         21   -1    0    0  503  502  0.00000000000E+00  0.00000000000E+00  0.52807749735E+02  0.52807749735E+02  0.00000000000E+00 0. -1.
         21   -1    0    0  501  503 -0.00000000000E+00 -0.00000000000E+00 -0.12460333331E+04  0.12460333331E+04  0.00000000000E+00 0. -1.
          6    1    1    2  501    0  0.65885563213E+02 -0.11191217175E+03 -0.24758706914E+03  0.32877590914E+03  0.17300000000E+03 0. -1.
         -6    1    1    2    0  502 -0.65885563213E+02  0.11191217175E+03 -0.94563851419E+03  0.97006517366E+03  0.17300000000E+03 0. -1.
<mgrwt>
<rscale>  2 0.21631977E+03</rscale>
<asrwt>0</asrwt>
<pdfrwt beam="1">  1       21 0.81242697E-02 0.21631977E+03</pdfrwt>
<pdfrwt beam="2">  1       21 0.19169742E+00 0.21631977E+03</pdfrwt>
<totfact> 0.17451417E+04</totfact>
</mgrwt>
</event>
<event>
 4    1  0.1252123E+000  0.2334980E+03  0.7546771E-02  0.1124202E+00
         21   -1    0    0  503  502  0.00000000000E+00  0.00000000000E+00  0.52654600443E+02  0.52654600443E+02  0.00000000000E+00 0. -1.
         21   -1    0    0  501  503 -0.00000000000E+00 -0.00000000000E+00 -0.16532507379E+04  0.16532507379E+04  0.00000000000E+00 0. -1.
          6    1    1    2  501    0  0.15085481161E+03 -0.42838536746E+02 -0.13217077106E+04  0.13421745738E+04  0.17300000000E+03 0. -1.
         -6    1    1    2    0  502 -0.15085481161E+03  0.42838536746E+02 -0.27888842690E+03  0.36373076455E+03  0.17300000000E+03 0. -1.
<mgrwt>
<rscale>  2 0.23349800E+03</rscale>
<asrwt>0</asrwt>
<pdfrwt beam="1">  1       21 0.81007091E-02 0.23349800E+03</pdfrwt>
<pdfrwt beam="2">  1       21 0.25434622E+00 0.23349800E+03</pdfrwt>
<totfact> 0.70864093E+03</totfact>
</mgrwt>
</event>
<event>
 4    1  0.1252123E+000  0.1841991E+03  0.7546771E-02  0.1163800E+00
         21   -1    0    0  503  502  0.00000000000E+00  0.00000000000E+00  0.23358465406E+03  0.23358465406E+03  0.00000000000E+00 0. -1.
         21   -1    0    0  501  503 -0.00000000000E+00 -0.00000000000E+00 -0.17022693739E+03  0.17022693739E+03  0.00000000000E+00 0.  1.
          6    1    1    2  501    0  0.21456454748E+02  0.59497319384E+02 -0.45653600837E+02  0.18977239455E+03  0.17300000000E+03 0.  1.
         -6    1    1    2    0  502 -0.21456454748E+02 -0.59497319384E+02  0.10901131751E+03  0.21403919690E+03  0.17300000000E+03 0. -1.
<mgrwt>
<rscale>  2 0.18419911E+03</rscale>
<asrwt>0</asrwt>
<pdfrwt beam="1">  1       21 0.35936101E-01 0.18419911E+03</pdfrwt>
<pdfrwt beam="2">  1       21 0.26188760E-01 0.18419911E+03</pdfrwt>
<totfact> 0.10380433E+05</totfact>
</mgrwt>
</event>
<event>
 4    1  0.1252123E+000  0.1959679E+03  0.7546771E-02  0.1153186E+00
         21   -1    0    0  503  502  0.00000000000E+00  0.00000000000E+00  0.12384389586E+04  0.12384389586E+04  0.00000000000E+00 0.  1.
         21   -1    0    0  501  503 -0.00000000000E+00 -0.00000000000E+00 -0.39759667371E+02  0.39759667371E+02  0.00000000000E+00 0.  1.
          6    1    1    2  501    0 -0.14330828968E+02  0.90934253837E+02  0.29952393106E+03  0.35793574348E+03  0.17300000000E+03 0.  1.
         -6    1    1    2    0  502  0.14330828968E+02 -0.90934253837E+02  0.89915536016E+03  0.92026288249E+03  0.17300000000E+03 0.  1.
<mgrwt>
<rscale>  2 0.19596788E+03</rscale>
<asrwt>0</asrwt>
<pdfrwt beam="1">  1       21 0.19052904E+00 0.19596788E+03</pdfrwt>
<pdfrwt beam="2">  1       21 0.61168729E-02 0.19596788E+03</pdfrwt>
<totfact> 0.29448871E+04</totfact>
</mgrwt>
</event>
<event>
 4    1  0.1252123E+000  0.4178692E+03  0.7546771E-02  0.1037762E+00
         21   -1    0    0  501  502  0.00000000000E+00  0.00000000000E+00  0.34675390749E+03  0.34675390749E+03  0.00000000000E+00 0.  1.
         21   -1    0    0  502  503 -0.00000000000E+00 -0.00000000000E+00 -0.81331744042E+03  0.81331744042E+03  0.00000000000E+00 0. -1.
          6    1    1    2  501    0 -0.21432004262E+03 -0.31424926955E+03  0.12467361135E+03  0.43607131693E+03  0.17300000000E+03 0.  1.
         -6    1    1    2    0  503  0.21432004262E+03  0.31424926955E+03 -0.59123714429E+03  0.72400003098E+03  0.17300000000E+03 0. -1.
<mgrwt>
<rscale>  2 0.41786922E+03</rscale>
<asrwt>0</asrwt>
<pdfrwt beam="1">  1       21 0.53346755E-01 0.41786922E+03</pdfrwt>
<pdfrwt beam="2">  1       21 0.12512576E+00 0.41786922E+03</pdfrwt>
<totfact> 0.13689866E+03</totfact>
</mgrwt>
</event>
<event>
 4    1  0.1252123E+000  0.2142904E+03  0.7546771E-02  0.1138213E+00
         21   -1    0    0  503  502  0.00000000000E+00  0.00000000000E+00  0.11226442715E+04  0.11226442715E+04  0.00000000000E+00 0.  1.
         21   -1    0    0  501  503 -0.00000000000E+00 -0.00000000000E+00 -0.10282048941E+03  0.10282048941E+03  0.00000000000E+00 0.  1.
          6    1    1    2  501    0  0.65403640233E+02  0.10823002254E+03  0.34428889388E+02  0.21703852736E+03  0.17300000000E+03 0.  1.
         -6    1    1    2    0  502 -0.65403640233E+02 -0.10823002254E+03  0.98539489273E+03  0.10084262336E+04  0.17300000000E+03 0.  1.
<mgrwt>
<rscale>  2 0.21429040E+03</rscale>
<asrwt>0</asrwt>
<pdfrwt beam="1">  1       21 0.17271450E+00 0.21429040E+03</pdfrwt>
<pdfrwt beam="2">  1       21 0.15818538E-01 0.21429040E+03</pdfrwt>
<totfact> 0.71457129E+03</totfact>
</mgrwt>
</event>
<event>
 4    1  0.1252123E+000  0.2115945E+03  0.7546771E-02  0.1140310E+00
         21   -1    0    0  501  502  0.00000000000E+00  0.00000000000E+00  0.15813969750E+03  0.15813969750E+03  0.00000000000E+00 0.  1.
         21   -1    0    0  502  503 -0.00000000000E+00 -0.00000000000E+00 -0.31725627796E+03  0.31725627796E+03  0.00000000000E+00 0. -1.
          6    1    1    2  501    0  0.89003714681E+02 -0.83195913275E+02 -0.15860273145E+01  0.21160041752E+03  0.17300000000E+03 0.  1.
         -6    1    1    2    0  503 -0.89003714681E+02  0.83195913275E+02 -0.15753055314E+03  0.26379555793E+03  0.17300000000E+03 0. -1.
<mgrwt>
<rscale>  2 0.21159447E+03</rscale>
<asrwt>0</asrwt>
<pdfrwt beam="1">  1       21 0.24329184E-01 0.21159447E+03</pdfrwt>
<pdfrwt beam="2">  1       21 0.48808658E-01 0.21159447E+03</pdfrwt>
<totfact> 0.63368711E+04</totfact>
</mgrwt>
</event>
<event>
 4    1  0.1252123E+000  0.2013198E+03  0.7546771E-02  0.1148630E+00
         21   -1    0    0  501  502  0.00000000000E+00  0.00000000000E+00  0.10359895729E+04  0.10359895729E+04  0.00000000000E+00 0. -1.
         21   -1    0    0  502  503 -0.00000000000E+00 -0.00000000000E+00 -0.85501150935E+02  0.85501150935E+02  0.00000000000E+00 0. -1.
          6    1    1    2  501    0  0.68839228467E+02 -0.76562620626E+02  0.88823703603E+03  0.91076599982E+03  0.17300000000E+03 0. -1.
         -6    1    1    2    0  503 -0.68839228467E+02  0.76562620626E+02  0.62251385910E+02  0.21072472399E+03  0.17300000000E+03 0. -1.
<mgrwt>
<rscale>  2 0.20131983E+03</rscale>
<asrwt>0</asrwt>
<pdfrwt beam="1">  1       21 0.15938300E+00 0.20131983E+03</pdfrwt>
<pdfrwt beam="2">  1       21 0.13154024E-01 0.20131983E+03</pdfrwt>
<totfact> 0.12575186E+04</totfact>
</mgrwt>
</event>
<event>
 4    1  0.1252123E+000  0.1960072E+03  0.7546771E-02  0.1153152E+00
         21   -1    0    0  503  502  0.00000000000E+00  0.00000000000E+00  0.26159116904E+03  0.26159116904E+03  0.00000000000E+00 0. -1.
         21   -1    0    0  501  503 -0.00000000000E+00 -0.00000000000E+00 -0.14786592230E+03  0.14786592230E+03  0.00000000000E+00 0. -1.
          6    1    1    2  501    0 -0.90684800192E+02  0.16311693628E+02  0.73699605529E+02  0.20940495741E+03  0.17300000000E+03 0. -1.
         -6    1    1    2    0  502  0.90684800192E+02 -0.16311693628E+02  0.40025641211E+02  0.20005213393E+03  0.17300000000E+03 0. -1.
<mgrwt>
<rscale>  2 0.19600715E+03</rscale>
<asrwt>0</asrwt>
<pdfrwt beam="1">  1       21 0.40244795E-01 0.19600715E+03</pdfrwt>
<pdfrwt beam="2">  1       21 0.22748603E-01 0.19600715E+03</pdfrwt>
<totfact> 0.10767820E+05</totfact>
</mgrwt>
</event>
<event>
 4    1  0.1252123E+000  0.1747851E+03  0.7546771E-02  0.1172948E+00
         21   -1    0    0  503  502  0.00000000000E+00  0.00000000000E+00  0.81879135206E+03  0.81879135206E+03  0.00000000000E+00 0.  1.
         21   -1    0    0  501  503 -0.00000000000E+00 -0.00000000000E+00 -0.38123950489E+02  0.38123950489E+02  0.00000000000E+00 0.  1.
          6    1    1    2  501    0  0.12042262655E+02 -0.21813204060E+02  0.45290440898E+03  0.48546084872E+03  0.17300000000E+03 0.  1.
         -6    1    1    2    0  502 -0.12042262655E+02  0.21813204060E+02  0.32776299259E+03  0.37145445384E+03  0.17300000000E+03 0.  1.
<mgrwt>
<rscale>  2 0.17478510E+03</rscale>
<asrwt>0</asrwt>
<pdfrwt beam="1">  1       21 0.12596789E+00 0.17478510E+03</pdfrwt>
<pdfrwt beam="2">  1       21 0.58652237E-02 0.17478510E+03</pdfrwt>
<totfact> 0.96688430E+04</totfact>
</mgrwt>
</event>
<event>
 4    1  0.1252123E+000  0.2222857E+03  0.7546771E-02  0.1132190E+00
         21   -1    0    0  501  502  0.00000000000E+00  0.00000000000E+00  0.68615984410E+03  0.68615984410E+03  0.00000000000E+00 0.  1.
         21   -1    0    0  502  503 -0.00000000000E+00 -0.00000000000E+00 -0.91912091518E+02  0.91912091518E+02  0.00000000000E+00 0.  1.
          6    1    1    2  501    0 -0.11347233661E+03 -0.81277198129E+02  0.47815094037E+03  0.52729429723E+03  0.17300000000E+03 0.  1.
         -6    1    1    2    0  503  0.11347233661E+03  0.81277198129E+02  0.11609681221E+03  0.25077763839E+03  0.17300000000E+03 0.  1.
<mgrwt>
<rscale>  2 0.22228575E+03</rscale>
<asrwt>0</asrwt>
<pdfrwt beam="1">  1       21 0.10556305E+00 0.22228575E+03</pdfrwt>
<pdfrwt beam="2">  1       21 0.14140322E-01 0.22228575E+03</pdfrwt>
<totfact> 0.30983951E+04</totfact>
</mgrwt>
</event>
<event>
 4    1  0.1252123E+000  0.1824629E+03  0.7546771E-02  0.1165441E+00
         21   -1    0    0  501  502  0.00000000000E+00  0.00000000000E+00  0.22376869430E+03  0.22376869430E+03  0.00000000000E+00 0. -1.
         21   -1    0    0  502  503 -0.00000000000E+00 -0.00000000000E+00 -0.14880193682E+03  0.14880193682E+03  0.00000000000E+00 0. -1.
          6    1    1    2  501    0 -0.57928057733E+02 -0.28372795675E+01  0.35316542683E+02  0.18584931589E+03  0.17300000000E+03 0.  1.
         -6    1    1    2    0  503  0.57928057733E+02  0.28372795675E+01  0.39650214792E+02  0.18672131523E+03  0.17300000000E+03 0.  1.
<mgrwt>
<rscale>  2 0.18246290E+03</rscale>
<asrwt>0</asrwt>
<pdfrwt beam="1">  1       21 0.34425953E-01 0.18246290E+03</pdfrwt>
<pdfrwt beam="2">  1       21 0.22892606E-01 0.18246290E+03</pdfrwt>
<totfact> 0.14609052E+05</totfact>
</mgrwt>
</event>
<event>
 4    1  0.1252123E+000  0.1809893E+03  0.7546771E-02  0.1166849E+00
         21   -1    0    0  503  502  0.00000000000E+00  0.00000000000E+00  0.51497825763E+03  0.51497825763E+03  0.00000000000E+00 0.  1.
         21   -1    0    0  501  503 -0.00000000000E+00 -0.00000000000E+00 -0.68023786806E+02  0.68023786806E+02  0.00000000000E+00 0.  1.
          6    1    1    2  501    0  0.41571069916E+01 -0.53017572219E+02  0.29774063283E+03  0.34843454040E+03  0.17300000000E+03 0.  1.
         -6    1    1    2    0  502 -0.41571069916E+01  0.53017572219E+02  0.14921383799E+03  0.23456750404E+03  0.17300000000E+03 0.  1.
<mgrwt>
<rscale>  2 0.18098935E+03</rscale>
<asrwt>0</asrwt>
<pdfrwt beam="1">  1       21 0.79227422E-01 0.18098935E+03</pdfrwt>
<pdfrwt beam="2">  1       21 0.10465198E-01 0.18098935E+03</pdfrwt>
<totfact> 0.10573261E+05</totfact>
</mgrwt>
</event>
<event>
 4    1  0.1252123E+000  0.2226996E+03  0.7546771E-02  0.1131886E+00
         21   -1    0    0  503  502  0.00000000000E+00  0.00000000000E+00  0.27149689673E+02  0.27149689673E+02  0.00000000000E+00 0. -1.
         21   -1    0    0  501  503 -0.00000000000E+00 -0.00000000000E+00 -0.18693681636E+04  0.18693681636E+04  0.00000000000E+00 0. -1.
          6    1    1    2  501    0 -0.81908595906E+02 -0.11382926391E+03 -0.10643230785E+04  0.10873723994E+04  0.17300000000E+03 0. -1.
         -6    1    1    2    0  502  0.81908595906E+02  0.11382926391E+03 -0.77789539541E+03  0.80914545393E+03  0.17300000000E+03 0. -1.
<mgrwt>
<rscale>  2 0.22269962E+03</rscale>
<asrwt>0</asrwt>
<pdfrwt beam="1">  1       21 0.41768756E-02 0.22269962E+03</pdfrwt>
<pdfrwt beam="2">  1       21 0.28759509E+00 0.22269962E+03</pdfrwt>
<totfact> 0.14248757E+04</totfact>
</mgrwt>
</event>
<event>
 4    1  0.1252123E+000  0.2484629E+03  0.7546771E-02  0.1114280E+00
         21   -1    0    0  501  502  0.00000000000E+00  0.00000000000E+00  0.66047293425E+03  0.66047293425E+03  0.00000000000E+00 0.  1.
         21   -1    0    0  502  503 -0.00000000000E+00 -0.00000000000E+00 -0.23702624979E+03  0.23702624979E+03  0.00000000000E+00 0.  1.
          6    1    1    2  501    0  0.17046451934E+03  0.52408645976E+02  0.56095872670E+03  0.61352140272E+03  0.17300000000E+03 0.  1.
         -6    1    1    2    0  503 -0.17046451934E+03 -0.52408645976E+02 -0.13751204224E+03  0.28397778133E+03  0.17300000000E+03 0.  1.
<mgrwt>
<rscale>  2 0.24846291E+03</rscale>
<asrwt>0</asrwt>
<pdfrwt beam="1">  1       21 0.10161122E+00 0.24846291E+03</pdfrwt>
<pdfrwt beam="2">  1       21 0.36465577E-01 0.24846291E+03</pdfrwt>
<totfact> 0.55101970E+03</totfact>
</mgrwt>
</event>
<event>
 4    1  0.1252123E+000  0.1959429E+03  0.7546771E-02  0.1153208E+00
         21   -1    0    0  501  502  0.00000000000E+00  0.00000000000E+00  0.45494430454E+03  0.45494430454E+03  0.00000000000E+00 0.  1.
         21   -1    0    0  502  503 -0.00000000000E+00 -0.00000000000E+00 -0.94693106746E+02  0.94693106746E+02  0.00000000000E+00 0. -1.
          6    1    1    2  501    0  0.90394762150E+02 -0.17129105180E+02  0.27076790091E+03  0.33422877708E+03  0.17300000000E+03 0.  1.
         -6    1    1    2    0  503 -0.90394762150E+02  0.17129105180E+02  0.89483296890E+02  0.21540863421E+03  0.17300000000E+03 0.  1.
<mgrwt>
<rscale>  2 0.19594290E+03</rscale>
<asrwt>0</asrwt>
<pdfrwt beam="1">  1       21 0.69991430E-01 0.19594290E+03</pdfrwt>
<pdfrwt beam="2">  1       21 0.14568171E-01 0.19594290E+03</pdfrwt>
<totfact> 0.76563769E+04</totfact>
</mgrwt>
</event>
<event>
 4    1  0.1252123E+000  0.1864991E+03  0.7546771E-02  0.1161657E+00
         21   -1    0    0  501  502  0.00000000000E+00  0.00000000000E+00  0.28069479533E+02  0.28069479533E+02  0.00000000000E+00 0. -1.
         21   -1    0    0  502  503 -0.00000000000E+00 -0.00000000000E+00 -0.16127087903E+04  0.16127087903E+04  0.00000000000E+00 0. -1.
          6    1    1    2  501    0  0.21215287111E+02 -0.66353689455E+02 -0.39747198078E+03  0.43905110866E+03  0.17300000000E+03 0.  1.
         -6    1    1    2    0  503 -0.21215287111E+02  0.66353689455E+02 -0.11871673300E+04  0.12017271612E+04  0.17300000000E+03 0.  1.
<mgrwt>
<rscale>  2 0.18649906E+03</rscale>
<asrwt>0</asrwt>
<pdfrwt beam="1">  1       21 0.43183817E-02 0.18649906E+03</pdfrwt>
<pdfrwt beam="2">  1       21 0.24810903E+00 0.18649906E+03</pdfrwt>
<totfact> 0.23630101E+04</totfact>
</mgrwt>
</event>
<event>
 4    1  0.1252123E+000  0.1763290E+03  0.7546771E-02  0.1171404E+00
         21   -1    0    0  503  502  0.00000000000E+00  0.00000000000E+00  0.15854810603E+03  0.15854810603E+03  0.00000000000E+00 0.  1.
         21   -1    0    0  501  503 -0.00000000000E+00 -0.00000000000E+00 -0.22655818290E+03  0.22655818290E+03  0.00000000000E+00 0.  1.
          6    1    1    2  501    0  0.34001877548E+02  0.26050975405E+01 -0.10460173434E+03  0.20502057710E+03  0.17300000000E+03 0.  1.
         -6    1    1    2    0  502 -0.34001877548E+02 -0.26050975405E+01  0.36591657461E+02  0.18008571183E+03  0.17300000000E+03 0.  1.
<mgrwt>
<rscale>  2 0.17632899E+03</rscale>
<asrwt>0</asrwt>
<pdfrwt beam="1">  1       21 0.24392016E-01 0.17632899E+03</pdfrwt>
<pdfrwt beam="2">  1       21 0.34855105E-01 0.17632899E+03</pdfrwt>
<totfact> 0.12667075E+05</totfact>
</mgrwt>
</event>
<event>
 4    1  0.1252123E+000  0.2080223E+03  0.7546771E-02  0.1143142E+00
         21   -1    0    0  503  502  0.00000000000E+00  0.00000000000E+00  0.11866317460E+03  0.11866317460E+03  0.00000000000E+00 0. -1.
         21   -1    0    0  501  503 -0.00000000000E+00 -0.00000000000E+00 -0.51728116812E+03  0.51728116812E+03  0.00000000000E+00 0.  1.
          6    1    1    2  501    0  0.11085177194E+03  0.32498889523E+02 -0.37201769907E+03  0.42622818018E+03  0.17300000000E+03 0.  1.
         -6    1    1    2    0  502 -0.11085177194E+03 -0.32498889523E+02 -0.26600294454E+02  0.20971616254E+03  0.17300000000E+03 0. -1.
<mgrwt>
<rscale>  2 0.20802234E+03</rscale>
<asrwt>0</asrwt>
<pdfrwt beam="1">  1       21 0.18255873E-01 0.20802234E+03</pdfrwt>
<pdfrwt beam="2">  1       21 0.79581718E-01 0.20802234E+03</pdfrwt>
<totfact> 0.37758557E+04</totfact>
</mgrwt>
</event>
<event>
 4    1  0.1252123E+000  0.1784878E+03  0.7546771E-02  0.1169275E+00
         21   -1    0    0  503  502  0.00000000000E+00  0.00000000000E+00  0.73595002748E+03  0.73595002748E+03  0.00000000000E+00 0. -1.
         21   -1    0    0  501  503 -0.00000000000E+00 -0.00000000000E+00 -0.43657919759E+02  0.43657919759E+02  0.00000000000E+00 0. -1.
          6    1    1    2  501    0 -0.43740915441E+02 -0.39515655094E+01  0.38202225684E+03  0.42166205339E+03  0.17300000000E+03 0. -1.
         -6    1    1    2    0  502  0.43740915441E+02  0.39515655094E+01  0.31026985089E+03  0.35794589385E+03  0.17300000000E+03 0. -1.
<mgrwt>
<rscale>  2 0.17848777E+03</rscale>
<asrwt>0</asrwt>
<pdfrwt beam="1">  1       21 0.11322307E+00 0.17848777E+03</pdfrwt>
<pdfrwt beam="2">  1       21 0.67166036E-02 0.17848777E+03</pdfrwt>
<totfact> 0.99514970E+04</totfact>
</mgrwt>
</event>
<event>
 4    1  0.1252123E+000  0.1782865E+03  0.7546771E-02  0.1169472E+00
         21   -1    0    0  503  502  0.00000000000E+00  0.00000000000E+00  0.11702352438E+03  0.11702352438E+03  0.00000000000E+00 0. -1.
         21   -1    0    0  501  503 -0.00000000000E+00 -0.00000000000E+00 -0.27431897129E+03  0.27431897129E+03  0.00000000000E+00 0. -1.
          6    1    1    2  501    0  0.19192762462E+01 -0.43051069840E+02 -0.98051938315E+02  0.20347054048E+03  0.17300000000E+03 0.  1.
         -6    1    1    2    0  502 -0.19192762462E+01  0.43051069840E+02 -0.59243508601E+02  0.18787195519E+03  0.17300000000E+03 0.  1.
<mgrwt>
<rscale>  2 0.17828651E+03</rscale>
<asrwt>0</asrwt>
<pdfrwt beam="1">  1       21 0.18003619E-01 0.17828651E+03</pdfrwt>
<pdfrwt beam="2">  1       21 0.42202918E-01 0.17828651E+03</pdfrwt>
<totfact> 0.15233860E+05</totfact>
</mgrwt>
</event>
<event>
 4    1  0.1252123E+000  0.2985220E+03  0.7546771E-02  0.1085982E+00
         21   -1    0    0  501  502  0.00000000000E+00  0.00000000000E+00  0.27522091988E+04  0.27522091988E+04  0.00000000000E+00 0. -1.
         21   -1    0    0  502  503 -0.00000000000E+00 -0.00000000000E+00 -0.61977173240E+02  0.61977173240E+02  0.00000000000E+00 0.  1.
          6    1    1    2  501    0 -0.15089774257E+03 -0.19083037225E+03  0.23174942382E+04  0.23366418005E+04  0.17300000000E+03 0. -1.
         -6    1    1    2    0  503  0.15089774257E+03  0.19083037225E+03  0.37273778731E+03  0.47754457151E+03  0.17300000000E+03 0.  1.
<mgrwt>
<rscale>  2 0.29852196E+03</rscale>
<asrwt>0</asrwt>
<pdfrwt beam="1">  1       21 0.42341671E+00 0.29852196E+03</pdfrwt>
<pdfrwt beam="2">  1       21 0.95349519E-02 0.29852196E+03</pdfrwt>
<totfact> 0.47670383E+02</totfact>
</mgrwt>
</event>
<event>
 4    1  0.1252123E+000  0.1862356E+03  0.7546771E-02  0.1161901E+00
         21   -1    0    0  503  502  0.00000000000E+00  0.00000000000E+00  0.23729216437E+03  0.23729216437E+03  0.00000000000E+00 0.  1.
         21   -1    0    0  501  503 -0.00000000000E+00 -0.00000000000E+00 -0.15143160020E+03  0.15143160020E+03  0.00000000000E+00 0.  1.
          6    1    1    2  501    0 -0.67394152124E+02 -0.14585411950E+02  0.66821233565E+01  0.18635545808E+03  0.17300000000E+03 0.  1.
         -6    1    1    2    0  502  0.67394152124E+02  0.14585411950E+02  0.79178440813E+02  0.20236830649E+03  0.17300000000E+03 0.  1.
<mgrwt>
<rscale>  2 0.18623562E+03</rscale>
<asrwt>0</asrwt>
<pdfrwt beam="1">  1       21 0.36506487E-01 0.18623562E+03</pdfrwt>
<pdfrwt beam="2">  1       21 0.23297169E-01 0.18623562E+03</pdfrwt>
<totfact> 0.12562544E+05</totfact>
</mgrwt>
</event>
<event>
 4    1  0.1252123E+000  0.2092051E+03  0.7546771E-02  0.1142197E+00
         21   -1    0    0  501  502  0.00000000000E+00  0.00000000000E+00  0.71911796685E+03  0.71911796685E+03  0.00000000000E+00 0. -1.
         21   -1    0    0  502  503 -0.00000000000E+00 -0.00000000000E+00 -0.13035557008E+03  0.13035557008E+03  0.00000000000E+00 0.  1.
          6    1    1    2  501    0  0.10426339694E+03 -0.54469448151E+02  0.60450004480E+03  0.63967732560E+03  0.17300000000E+03 0.  1.
         -6    1    1    2    0  503 -0.10426339694E+03  0.54469448151E+02 -0.15737648032E+02  0.20979621133E+03  0.17300000000E+03 0.  1.
<mgrwt>
<rscale>  2 0.20920511E+03</rscale>
<asrwt>0</asrwt>
<pdfrwt beam="1">  1       21 0.11063353E+00 0.20920511E+03</pdfrwt>
<pdfrwt beam="2">  1       21 0.20054703E-01 0.20920511E+03</pdfrwt>
<totfact> 0.14630982E+04</totfact>
</mgrwt>
</event>
<event>
 4    1  0.1252123E+000  0.1921934E+03  0.7546771E-02  0.1156498E+00
         21   -1    0    0  503  502  0.00000000000E+00  0.00000000000E+00  0.22102600474E+03  0.22102600474E+03  0.00000000000E+00 0. -1.
         21   -1    0    0  501  503 -0.00000000000E+00 -0.00000000000E+00 -0.18464016710E+03  0.18464016710E+03  0.00000000000E+00 0. -1.
          6    1    1    2  501    0 -0.83488518779E+02  0.62424781609E+01 -0.44284116314E+02  0.19722926826E+03  0.17300000000E+03 0. -1.
         -6    1    1    2    0  502  0.83488518779E+02 -0.62424781609E+01  0.80669953951E+02  0.20843690358E+03  0.17300000000E+03 0. -1.
<mgrwt>
<rscale>  2 0.19219340E+03</rscale>
<asrwt>0</asrwt>
<pdfrwt beam="1">  1       21 0.34004001E-01 0.19219340E+03</pdfrwt>
<pdfrwt beam="2">  1       21 0.28406180E-01 0.19219340E+03</pdfrwt>
<totfact> 0.98753043E+04</totfact>
</mgrwt>
</event>
<event>
 4    1  0.1252123E+000  0.2894680E+03  0.7546771E-02  0.1090627E+00
         21   -1    0    0  501  502  0.00000000000E+00  0.00000000000E+00  0.31592842909E+03  0.31592842909E+03  0.00000000000E+00 0.  1.
         21   -1    0    0  502  503 -0.00000000000E+00 -0.00000000000E+00 -0.33946593644E+03  0.33946593644E+03  0.00000000000E+00 0.  1.
          6    1    1    2  501    0  0.45514021031E+02 -0.22757673922E+03  0.14148114958E+03  0.32219344194E+03  0.17300000000E+03 0.  1.
         -6    1    1    2    0  503 -0.45514021031E+02  0.22757673922E+03 -0.16501865693E+03  0.33320092359E+03  0.17300000000E+03 0.  1.
<mgrwt>
<rscale>  2 0.28946796E+03</rscale>
<asrwt>0</asrwt>
<pdfrwt beam="1">  1       21 0.48604374E-01 0.28946796E+03</pdfrwt>
<pdfrwt beam="2">  1       21 0.52225528E-01 0.28946796E+03</pdfrwt>
<totfact> 0.13337904E+04</totfact>
</mgrwt>
</event>
<event>
 4    1  0.1252123E+000  0.2547264E+03  0.7546771E-02  0.1110354E+00
         21   -1    0    0  503  502  0.00000000000E+00  0.00000000000E+00  0.18783220331E+03  0.18783220331E+03  0.00000000000E+00 0.  1.
         21   -1    0    0  501  503 -0.00000000000E+00 -0.00000000000E+00 -0.53652971014E+03  0.53652971014E+03  0.00000000000E+00 0. -1.
          6    1    1    2  501    0  0.11888216416E+03 -0.14430368077E+03 -0.39049253563E+03  0.46622949458E+03  0.17300000000E+03 0. -1.
         -6    1    1    2    0  502 -0.11888216416E+03  0.14430368077E+03  0.41795028801E+02  0.25813241887E+03  0.17300000000E+03 0.  1.
<mgrwt>
<rscale>  2 0.25472637E+03</rscale>
<asrwt>0</asrwt>
<pdfrwt beam="1">  1       21 0.28897262E-01 0.25472637E+03</pdfrwt>
<pdfrwt beam="2">  1       21 0.82543032E-01 0.25472637E+03</pdfrwt>
<totfact> 0.14160359E+04</totfact>
</mgrwt>
</event>
<event>
 4    1  0.1252123E+000  0.2308271E+03  0.7546771E-02  0.1126059E+00
         21   -1    0    0  501  502  0.00000000000E+00  0.00000000000E+00  0.55073438347E+02  0.55073438347E+02  0.00000000000E+00 0.  1.
         21   -1    0    0  502  503 -0.00000000000E+00 -0.00000000000E+00 -0.97266623293E+03  0.97266623293E+03  0.00000000000E+00 0.  1.
          6    1    1    2  501    0 -0.15253594366E+03 -0.92171480218E+01 -0.49640336557E+03  0.54744631817E+03  0.17300000000E+03 0.  1.
         -6    1    1    2    0  503  0.15253594366E+03  0.92171480218E+01 -0.42118942901E+03  0.48029335311E+03  0.17300000000E+03 0.  1.
<mgrwt>
<rscale>  2 0.23082714E+03</rscale>
<asrwt>0</asrwt>
<pdfrwt beam="1">  1       21 0.84728372E-02 0.23082714E+03</pdfrwt>
<pdfrwt beam="2">  1       21 0.14964095E+00 0.23082714E+03</pdfrwt>
<totfact> 0.31931160E+04</totfact>
</mgrwt>
</event>
<event>
 4    1  0.1252123E+000  0.1781287E+03  0.7546771E-02  0.1169627E+00
         21   -1    0    0  501  502  0.00000000000E+00  0.00000000000E+00  0.71744639102E+02  0.71744639102E+02  0.00000000000E+00 0.  1.
         21   -1    0    0  502  503 -0.00000000000E+00 -0.00000000000E+00 -0.52637763150E+03  0.52637763150E+03  0.00000000000E+00 0.  1.
          6    1    1    2  501    0 -0.21939335904E+02  0.36324796455E+02 -0.10776547230E+03  0.20819035116E+03  0.17300000000E+03 0.  1.
         -6    1    1    2    0  503  0.21939335904E+02 -0.36324796455E+02 -0.34686752009E+03  0.38993191943E+03  0.17300000000E+03 0.  1.
<mgrwt>
<rscale>  2 0.17812868E+03</rscale>
<asrwt>0</asrwt>
<pdfrwt beam="1">  1       21 0.11037637E-01 0.17812868E+03</pdfrwt>
<pdfrwt beam="2">  1       21 0.80981176E-01 0.17812868E+03</pdfrwt>
<totfact> 0.91678737E+04</totfact>
</mgrwt>
</event>
<event>
 4    1  0.1252123E+000  0.2040497E+03  0.7546771E-02  0.1146367E+00
         21   -1    0    0  501  502  0.00000000000E+00  0.00000000000E+00  0.98847349343E+02  0.98847349343E+02  0.00000000000E+00 0.  1.
         21   -1    0    0  502  503 -0.00000000000E+00 -0.00000000000E+00 -0.42799869423E+03  0.42799869423E+03  0.00000000000E+00 0. -1.
          6    1    1    2  501    0 -0.84862678979E+02 -0.67123840361E+02 -0.19773220613E+03  0.28413783551E+03  0.17300000000E+03 0.  1.
         -6    1    1    2    0  503  0.84862678979E+02  0.67123840361E+02 -0.13141913875E+03  0.24270820806E+03  0.17300000000E+03 0.  1.
<mgrwt>
<rscale>  2 0.20404971E+03</rscale>
<asrwt>0</asrwt>
<pdfrwt beam="1">  1       21 0.15207284E-01 0.20404971E+03</pdfrwt>
<pdfrwt beam="2">  1       21 0.65845953E-01 0.20404971E+03</pdfrwt>
<totfact> 0.80667869E+04</totfact>
</mgrwt>
</event>
<event>
 4    1  0.1252123E+000  0.2364031E+03  0.7546771E-02  0.1122212E+00
         21   -1    0    0  503  502  0.00000000000E+00  0.00000000000E+00  0.36392665657E+02  0.36392665657E+02  0.00000000000E+00 0. -1.
         21   -1    0    0  501  503 -0.00000000000E+00 -0.00000000000E+00 -0.16083940336E+04  0.16083940336E+04  0.00000000000E+00 0. -1.
          6    1    1    2  501    0  0.10665202764E+03 -0.12075917700E+03 -0.96089634391E+03  0.98954950233E+03  0.17300000000E+03 0. -1.
         -6    1    1    2    0  502 -0.10665202764E+03  0.12075917700E+03 -0.61110502400E+03  0.65523719689E+03  0.17300000000E+03 0. -1.
<mgrwt>
<rscale>  2 0.23640312E+03</rscale>
<asrwt>0</asrwt>
<pdfrwt beam="1">  1       21 0.55988714E-02 0.23640312E+03</pdfrwt>
<pdfrwt beam="2">  1       21 0.24744525E+00 0.23640312E+03</pdfrwt>
<totfact> 0.14728404E+04</totfact>
</mgrwt>
</event>
<event>
 4    1  0.1252123E+000  0.3036537E+03  0.7546771E-02  0.1083428E+00
         21   -1    0    0  501  502  0.00000000000E+00  0.00000000000E+00  0.13121128971E+03  0.13121128971E+03  0.00000000000E+00 0. -1.
         21   -1    0    0  502  503 -0.00000000000E+00 -0.00000000000E+00 -0.91455648447E+03  0.91455648447E+03  0.00000000000E+00 0.  1.
          6    1    1    2  501    0  0.24695151645E+03 -0.35937664268E+02 -0.14002408960E+03  0.33438348173E+03  0.17300000000E+03 0. -1.
         -6    1    1    2    0  503 -0.24695151645E+03  0.35937664268E+02 -0.64332110517E+03  0.71138429245E+03  0.17300000000E+03 0.  1.
<mgrwt>
<rscale>  2 0.30365370E+03</rscale>
<asrwt>0</asrwt>
<pdfrwt beam="1">  1       21 0.20186352E-01 0.30365370E+03</pdfrwt>
<pdfrwt beam="2">  1       21 0.14070100E+00 0.30365370E+03</pdfrwt>
<totfact> 0.74720456E+03</totfact>
</mgrwt>
</event>
<event>
 4    1  0.1252123E+000  0.1920677E+03  0.7546771E-02  0.1156610E+00
         21   -1    0    0  501  502  0.00000000000E+00  0.00000000000E+00  0.29507843500E+03  0.29507843500E+03  0.00000000000E+00 0. -1.
         21   -1    0    0  502  503 -0.00000000000E+00 -0.00000000000E+00 -0.14905424479E+03  0.14905424479E+03  0.00000000000E+00 0. -1.
          6    1    1    2  501    0  0.30284947115E+02 -0.77741959509E+02  0.16218803835E+03  0.25138605783E+03  0.17300000000E+03 0. -1.
         -6    1    1    2    0  503 -0.30284947115E+02  0.77741959509E+02 -0.16163848138E+02  0.19274662196E+03  0.17300000000E+03 0. -1.
<mgrwt>
<rscale>  2 0.19206767E+03</rscale>
<asrwt>0</asrwt>
<pdfrwt beam="1">  1       21 0.45396682E-01 0.19206767E+03</pdfrwt>
<pdfrwt beam="2">  1       21 0.22931422E-01 0.19206767E+03</pdfrwt>
<totfact> 0.83092782E+04</totfact>
</mgrwt>
</event>
<event>
 4    1  0.1252123E+000  0.2193491E+03  0.7546771E-02  0.1134369E+00
         21   -1    0    0  503  502  0.00000000000E+00  0.00000000000E+00  0.12598259962E+03  0.12598259962E+03  0.00000000000E+00 0.  1.
         21   -1    0    0  501  503 -0.00000000000E+00 -0.00000000000E+00 -0.44449351884E+03  0.44449351884E+03  0.00000000000E+00 0. -1.
          6    1    1    2  501    0  0.12842130978E+03  0.41146068168E+02 -0.26628515129E+03  0.34499538189E+03  0.17300000000E+03 0. -1.
         -6    1    1    2    0  502 -0.12842130978E+03 -0.41146068168E+02 -0.52225767934E+02  0.22548073657E+03  0.17300000000E+03 0.  1.
<mgrwt>
<rscale>  2 0.21934911E+03</rscale>
<asrwt>0</asrwt>
<pdfrwt beam="1">  1       21 0.19381939E-01 0.21934911E+03</pdfrwt>
<pdfrwt beam="2">  1       21 0.68383618E-01 0.21934911E+03</pdfrwt>
<totfact> 0.47124728E+04</totfact>
</mgrwt>
</event>
<event>
 4    1  0.1252123E+000  0.2098138E+03  0.7546771E-02  0.1141713E+00
         21   -1    0    0  501  502  0.00000000000E+00  0.00000000000E+00  0.89338949605E+03  0.89338949605E+03  0.00000000000E+00 0. -1.
         21   -1    0    0  502  503 -0.00000000000E+00 -0.00000000000E+00 -0.54650263482E+02  0.54650263482E+02  0.00000000000E+00 0. -1.
          6    1    1    2  501    0  0.45331465799E+02 -0.10971740211E+03  0.27070878234E+03  0.34249831380E+03  0.17300000000E+03 0. -1.
         -6    1    1    2    0  503 -0.45331465799E+02  0.10971740211E+03  0.56803045022E+03  0.60554144573E+03  0.17300000000E+03 0. -1.
<mgrwt>
<rscale>  2 0.20981385E+03</rscale>
<asrwt>0</asrwt>
<pdfrwt beam="1">  1       21 0.13744453E+00 0.20981385E+03</pdfrwt>
<pdfrwt beam="2">  1       21 0.84077335E-02 0.20981385E+03</pdfrwt>
<totfact> 0.40890079E+04</totfact>
</mgrwt>
</event>
<event>
 4    1  0.1252123E+000  0.2494731E+03  0.7546771E-02  0.1113638E+00
         21   -1    0    0  501  502  0.00000000000E+00  0.00000000000E+00  0.27557344245E+03  0.27557344245E+03  0.00000000000E+00 0. -1.
         21   -1    0    0  502  503 -0.00000000000E+00 -0.00000000000E+00 -0.41219446673E+03  0.41219446673E+03  0.00000000000E+00 0.  1.
          6    1    1    2  501    0  0.85623282928E+02  0.15803941950E+03  0.16290940785E+03  0.29795348607E+03  0.17300000000E+03 0. -1.
         -6    1    1    2    0  503 -0.85623282928E+02 -0.15803941950E+03 -0.29953043213E+03  0.38981442311E+03  0.17300000000E+03 0.  1.
<mgrwt>
<rscale>  2 0.24947305E+03</rscale>
<asrwt>0</asrwt>
<pdfrwt beam="1">  1       21 0.42395915E-01 0.24947305E+03</pdfrwt>
<pdfrwt beam="2">  1       21 0.63414533E-01 0.24947305E+03</pdfrwt>
<totfact> 0.11893923E+04</totfact>
</mgrwt>
</event>
<event>
 4    1  0.1252123E+000  0.2153236E+03  0.7546771E-02  0.1137418E+00
         21   -1    0    0  501  502  0.00000000000E+00  0.00000000000E+00  0.43414507069E+03  0.43414507069E+03  0.00000000000E+00 0. -1.
         21   -1    0    0  502  503 -0.00000000000E+00 -0.00000000000E+00 -0.11619382005E+03  0.11619382005E+03  0.00000000000E+00 0. -1.
          6    1    1    2  501    0  0.92969780178E+02 -0.88271644351E+02  0.23723910898E+03  0.32038517140E+03  0.17300000000E+03 0. -1.
         -6    1    1    2    0  503 -0.92969780178E+02  0.88271644351E+02  0.80712141659E+02  0.22995371933E+03  0.17300000000E+03 0. -1.
<mgrwt>
<rscale>  2 0.21532362E+03</rscale>
<asrwt>0</asrwt>
<pdfrwt beam="1">  1       21 0.66791549E-01 0.21532362E+03</pdfrwt>
<pdfrwt beam="2">  1       21 0.17875972E-01 0.21532362E+03</pdfrwt>
<totfact> 0.57793239E+04</totfact>
</mgrwt>
</event>
<event>
 4    1  0.1252123E+000  0.2268022E+03  0.7546771E-02  0.1128911E+00
         21   -1    0    0  503  502  0.00000000000E+00  0.00000000000E+00  0.30879554978E+03  0.30879554978E+03  0.00000000000E+00 0. -1.
         21   -1    0    0  501  503 -0.00000000000E+00 -0.00000000000E+00 -0.19348789048E+03  0.19348789048E+03  0.00000000000E+00 0. -1.
          6    1    1    2  501    0  0.12949196088E+03 -0.68862640279E+02 -0.36000962807E+02  0.22964167845E+03  0.17300000000E+03 0. -1.
         -6    1    1    2    0  502 -0.12949196088E+03  0.68862640279E+02  0.15130862211E+03  0.27264176181E+03  0.17300000000E+03 0. -1.
<mgrwt>
<rscale>  2 0.22680219E+03</rscale>
<asrwt>0</asrwt>
<pdfrwt beam="1">  1       21 0.47507008E-01 0.22680219E+03</pdfrwt>
<pdfrwt beam="2">  1       21 0.29767368E-01 0.22680219E+03</pdfrwt>
<totfact> 0.45102141E+04</totfact>
</mgrwt>
</event>
<event>
 4    1  0.1252123E+000  0.2415470E+03  0.7546771E-02  0.1118767E+00
         21   -1    0    0  501  502  0.00000000000E+00  0.00000000000E+00  0.31910920236E+02  0.31910920236E+02  0.00000000000E+00 0. -1.
         21   -1    0    0  502  503 -0.00000000000E+00 -0.00000000000E+00 -0.18753982205E+04  0.18753982205E+04  0.00000000000E+00 0.  1.
          6    1    1    2  501    0 -0.12486862528E+03  0.11324206154E+03 -0.77072585517E+03  0.80769009026E+03  0.17300000000E+03 0.  1.
         -6    1    1    2    0  503  0.12486862528E+03 -0.11324206154E+03 -0.10727614451E+04  0.10996190505E+04  0.17300000000E+03 0. -1.
<mgrwt>
<rscale>  2 0.24154697E+03</rscale>
<asrwt>0</asrwt>
<pdfrwt beam="1">  1       21 0.49093724E-02 0.24154697E+03</pdfrwt>
<pdfrwt beam="2">  1       21 0.28852280E+00 0.24154697E+03</pdfrwt>
<totfact> 0.10529488E+04</totfact>
</mgrwt>
</event>
<event>
 4    1  0.1252123E+000  0.2059424E+03  0.7546771E-02  0.1144820E+00
         21   -1    0    0  501  502  0.00000000000E+00  0.00000000000E+00  0.26880693938E+03  0.26880693938E+03  0.00000000000E+00 0.  1.
         21   -1    0    0  502  503 -0.00000000000E+00 -0.00000000000E+00 -0.16150335423E+03  0.16150335423E+03  0.00000000000E+00 0.  1.
          6    1    1    2  501    0  0.36441200400E+02  0.10561866043E+03  0.20981798660E+02  0.20700845005E+03  0.17300000000E+03 0.  1.
         -6    1    1    2    0  503 -0.36441200400E+02 -0.10561866043E+03  0.86321786486E+02  0.22330184357E+03  0.17300000000E+03 0.  1.
<mgrwt>
<rscale>  2 0.20594238E+03</rscale>
<asrwt>0</asrwt>
<pdfrwt beam="1">  1       21 0.41354914E-01 0.20594238E+03</pdfrwt>
<pdfrwt beam="2">  1       21 0.24846670E-01 0.20594238E+03</pdfrwt>
<totfact> 0.85810849E+04</totfact>
</mgrwt>
</event>
<event>
 4    1  0.1252123E+000  0.1895043E+03  0.7546771E-02  0.1158909E+00
         21   -1    0    0  503  502  0.00000000000E+00  0.00000000000E+00  0.10730506767E+03  0.10730506767E+03  0.00000000000E+00 0.  1.
         21   -1    0    0  501  503 -0.00000000000E+00 -0.00000000000E+00 -0.36234920242E+03  0.36234920242E+03  0.00000000000E+00 0.  1.
          6    1    1    2  501    0 -0.66746481821E+02  0.39086911855E+02 -0.19242355427E+03  0.27007166410E+03  0.17300000000E+03 0.  1.
         -6    1    1    2    0  502  0.66746481821E+02 -0.39086911855E+02 -0.62620580484E+02  0.19958260599E+03  0.17300000000E+03 0.  1.
<mgrwt>
<rscale>  2 0.18950430E+03</rscale>
<asrwt>0</asrwt>
<pdfrwt beam="1">  1       21 0.16508472E-01 0.18950430E+03</pdfrwt>
<pdfrwt beam="2">  1       21 0.55746032E-01 0.18950430E+03</pdfrwt>
<totfact> 0.99931712E+04</totfact>
</mgrwt>
</event>
<event>
 4    1  0.1252123E+000  0.2796836E+03  0.7546771E-02  0.1095862E+00
         21   -1    0    0  503  502  0.00000000000E+00  0.00000000000E+00  0.85697787403E+03  0.85697787403E+03  0.00000000000E+00 0.  1.
         21   -1    0    0  501  503 -0.00000000000E+00 -0.00000000000E+00 -0.98827577780E+02  0.98827577780E+02  0.00000000000E+00 0. -1.
          6    1    1    2  501    0 -0.12595263129E+03 -0.18008294376E+03  0.24698462944E+03  0.37312777857E+03  0.17300000000E+03 0. -1.
         -6    1    1    2    0  502  0.12595263129E+03  0.18008294376E+03  0.51116566681E+03  0.58267767324E+03  0.17300000000E+03 0.  1.
<mgrwt>
<rscale>  2 0.27968363E+03</rscale>
<asrwt>0</asrwt>
<pdfrwt beam="1">  1       21 0.13184274E+00 0.27968363E+03</pdfrwt>
<pdfrwt beam="2">  1       21 0.15204243E-01 0.27968363E+03</pdfrwt>
<totfact> 0.15175657E+04</totfact>
</mgrwt>
</event>
<event>
 4    1  0.1252123E+000  0.1929990E+03  0.7546771E-02  0.1155784E+00
         21   -1    0    0  501  502  0.00000000000E+00  0.00000000000E+00  0.15640997618E+03  0.15640997618E+03  0.00000000000E+00 0. -1.
         21   -1    0    0  502  503 -0.00000000000E+00 -0.00000000000E+00 -0.31613718971E+03  0.31613718971E+03  0.00000000000E+00 0. -1.
          6    1    1    2  501    0  0.29330432800E+02  0.80370090140E+02  0.37489964287E+02  0.19660651846E+03  0.17300000000E+03 0. -1.
         -6    1    1    2    0  503 -0.29330432800E+02 -0.80370090140E+02 -0.19721717781E+03  0.27594064743E+03  0.17300000000E+03 0. -1.
<mgrwt>
<rscale>  2 0.19299903E+03</rscale>
<asrwt>0</asrwt>
<pdfrwt beam="1">  1       21 0.24063073E-01 0.19299903E+03</pdfrwt>
<pdfrwt beam="2">  1       21 0.48636491E-01 0.19299903E+03</pdfrwt>
<totfact> 0.65743618E+04</totfact>
</mgrwt>
</event>
<event>
 4    1  0.1252123E+000  0.1921719E+03  0.7546771E-02  0.1156517E+00
         21   -1    0    0  501  502  0.00000000000E+00  0.00000000000E+00  0.49457773501E+03  0.49457773501E+03  0.00000000000E+00 0. -1.
         21   -1    0    0  502  503 -0.00000000000E+00 -0.00000000000E+00 -0.77554836080E+02  0.77554836080E+02  0.00000000000E+00 0. -1.
          6    1    1    2  501    0  0.82199529062E+02  0.15629718285E+02  0.15333760120E+03  0.24585050460E+03  0.17300000000E+03 0. -1.
         -6    1    1    2    0  503 -0.82199529062E+02 -0.15629718285E+02  0.26368529773E+03  0.32628206649E+03  0.17300000000E+03 0. -1.
<mgrwt>
<rscale>  2 0.19217193E+03</rscale>
<asrwt>0</asrwt>
<pdfrwt beam="1">  1       21 0.76088880E-01 0.19217193E+03</pdfrwt>
<pdfrwt beam="2">  1       21 0.11931514E-01 0.19217193E+03</pdfrwt>
<totfact> 0.91293110E+04</totfact>
</mgrwt>
</event>
<event>
 4    1  0.1252123E+000  0.3262849E+03  0.7546771E-02  0.1072793E+00
         21   -1    0    0  501  502  0.00000000000E+00  0.00000000000E+00  0.52215534565E+03  0.52215534565E+03  0.00000000000E+00 0. -1.
         21   -1    0    0  502  503 -0.00000000000E+00 -0.00000000000E+00 -0.23175831162E+03  0.23175831162E+03  0.00000000000E+00 0.  1.
          6    1    1    2  501    0  0.27574777452E+03 -0.22271432367E+02  0.27591648174E+03  0.42730756692E+03  0.17300000000E+03 0.  1.
         -6    1    1    2    0  503 -0.27574777452E+03  0.22271432367E+02  0.14480552288E+02  0.32660609034E+03  0.17300000000E+03 0. -1.
<mgrwt>
<rscale>  2 0.32628492E+03</rscale>
<asrwt>0</asrwt>
<pdfrwt beam="1">  1       21 0.80331591E-01 0.32628492E+03</pdfrwt>
<pdfrwt beam="2">  1       21 0.35655125E-01 0.32628492E+03</pdfrwt>
<totfact> 0.96102160E+03</totfact>
</mgrwt>
</event>
<event>
 4    1  0.1252123E+000  0.1840258E+03  0.7546771E-02  0.1163963E+00
         21   -1    0    0  501  502  0.00000000000E+00  0.00000000000E+00  0.17340574124E+03  0.17340574124E+03  0.00000000000E+00 0.  1.
         21   -1    0    0  502  503 -0.00000000000E+00 -0.00000000000E+00 -0.20861411496E+03  0.20861411496E+03  0.00000000000E+00 0.  1.
          6    1    1    2  501    0  0.74558082224E+00 -0.62737191682E+02  0.30657167800E+02  0.18656198179E+03  0.17300000000E+03 0.  1.
         -6    1    1    2    0  503 -0.74558082224E+00  0.62737191682E+02 -0.65865541522E+02  0.19545787441E+03  0.17300000000E+03 0.  1.
<mgrwt>
<rscale>  2 0.18402584E+03</rscale>
<asrwt>0</asrwt>
<pdfrwt beam="1">  1       21 0.26677806E-01 0.18402584E+03</pdfrwt>
<pdfrwt beam="2">  1       21 0.32094479E-01 0.18402584E+03</pdfrwt>
<totfact> 0.12526305E+05</totfact>
</mgrwt>
</event>
<event>
 4    1  0.1252123E+000  0.2121085E+03  0.7546771E-02  0.1139907E+00
         21   -1    0    0  503  502  0.00000000000E+00  0.00000000000E+00  0.27486197179E+03  0.27486197179E+03  0.00000000000E+00 0. -1.
         21   -1    0    0  501  503 -0.00000000000E+00 -0.00000000000E+00 -0.18315367340E+03  0.18315367340E+03  0.00000000000E+00 0. -1.
          6    1    1    2  501    0  0.13630889013E+02  0.12196393816E+03 -0.28815183377E+02  0.21405681055E+03  0.17300000000E+03 0. -1.
         -6    1    1    2    0  502 -0.13630889013E+02 -0.12196393816E+03  0.12052348176E+03  0.24395883465E+03  0.17300000000E+03 0. -1.
<mgrwt>
<rscale>  2 0.21210847E+03</rscale>
<asrwt>0</asrwt>
<pdfrwt beam="1">  1       21 0.42286457E-01 0.21210847E+03</pdfrwt>
<pdfrwt beam="2">  1       21 0.28177488E-01 0.21210847E+03</pdfrwt>
<totfact> 0.64200484E+04</totfact>
</mgrwt>
</event>
<event>
 4    1  0.1252123E+000  0.1906618E+03  0.7546771E-02  0.1157866E+00
         21   -1    0    0  501  502  0.00000000000E+00  0.00000000000E+00  0.42371791331E+03  0.42371791331E+03  0.00000000000E+00 0. -1.
         21   -1    0    0  502  503 -0.00000000000E+00 -0.00000000000E+00 -0.89334751383E+02  0.89334751383E+02  0.00000000000E+00 0. -1.
          6    1    1    2  501    0 -0.75491191194E+02 -0.26907232317E+02  0.21827111813E+03  0.28981752899E+03  0.17300000000E+03 0. -1.
         -6    1    1    2    0  503  0.75491191194E+02  0.26907232317E+02  0.11611204380E+03  0.22323513571E+03  0.17300000000E+03 0. -1.
<mgrwt>
<rscale>  2 0.19066179E+03</rscale>
<asrwt>0</asrwt>
<pdfrwt beam="1">  1       21 0.65187370E-01 0.19066179E+03</pdfrwt>
<pdfrwt beam="2">  1       21 0.13743808E-01 0.19066179E+03</pdfrwt>
<totfact> 0.99656573E+04</totfact>
</mgrwt>
</event>
<event>
 4    1  0.1252123E+000  0.4926720E+03  0.7546771E-02  0.1015710E+00
         21   -1    0    0  501  502  0.00000000000E+00  0.00000000000E+00  0.19441728961E+03  0.19441728961E+03  0.00000000000E+00 0.  1.
         21   -1    0    0  502  503 -0.00000000000E+00 -0.00000000000E+00 -0.13454345029E+04  0.13454345029E+04  0.00000000000E+00 0. -1.
          6    1    1    2  501    0 -0.46030538068E+03  0.30259950137E+02 -0.36882495411E+03  0.61543281911E+03  0.17300000000E+03 0.  1.
         -6    1    1    2    0  503  0.46030538068E+03 -0.30259950137E+02 -0.78219225917E+03  0.92441897339E+03  0.17300000000E+03 0. -1.
<mgrwt>
<rscale>  2 0.49267201E+03</rscale>
<asrwt>0</asrwt>
<pdfrwt beam="1">  1       21 0.29910353E-01 0.49267201E+03</pdfrwt>
<pdfrwt beam="2">  1       21 0.20698992E+00 0.49267201E+03</pdfrwt>
<totfact> 0.10632739E+03</totfact>
</mgrwt>
</event>
<event>
 4    1  0.1252123E+000  0.1814791E+03  0.7546771E-02  0.1166379E+00
         21   -1    0    0  503  502  0.00000000000E+00  0.00000000000E+00  0.10075086504E+04  0.10075086504E+04  0.00000000000E+00 0. -1.
         21   -1    0    0  501  503 -0.00000000000E+00 -0.00000000000E+00 -0.24213069087E+03  0.24213069087E+03  0.00000000000E+00 0. -1.
          6    1    1    2  501    0 -0.36438943115E+02 -0.40961866834E+02 -0.19842471915E+03  0.26889968441E+03  0.17300000000E+03 0. -1.
         -6    1    1    2    0  502  0.36438943115E+02  0.40961866834E+02  0.96380267870E+03  0.98073965688E+03  0.17300000000E+03 0. -1.
<mgrwt>
<rscale>  2 0.18147912E+03</rscale>
<asrwt>0</asrwt>
<pdfrwt beam="1">  1       21 0.15500133E+00 0.18147912E+03</pdfrwt>
<pdfrwt beam="2">  1       21 0.37250876E-01 0.18147912E+03</pdfrwt>
<totfact> 0.19261296E+03</totfact>
</mgrwt>
</event>
<event>
 4    1  0.1252123E+000  0.2117689E+03  0.7546771E-02  0.1140173E+00
         21   -1    0    0  503  502  0.00000000000E+00  0.00000000000E+00  0.11499268671E+03  0.11499268671E+03  0.00000000000E+00 0.  1.
         21   -1    0    0  501  503 -0.00000000000E+00 -0.00000000000E+00 -0.42736057506E+03  0.42736057506E+03  0.00000000000E+00 0.  1.
          6    1    1    2  501    0  0.18233106283E+02 -0.12076681273E+03 -0.75994663231E+02  0.22499168443E+03  0.17300000000E+03 0.  1.
         -6    1    1    2    0  502 -0.18233106283E+02  0.12076681273E+03 -0.23637322512E+03  0.31736157735E+03  0.17300000000E+03 0.  1.
<mgrwt>
<rscale>  2 0.21176891E+03</rscale>
<asrwt>0</asrwt>
<pdfrwt beam="1">  1       21 0.17691182E-01 0.21176891E+03</pdfrwt>
<pdfrwt beam="2">  1       21 0.65747782E-01 0.21176891E+03</pdfrwt>
<totfact> 0.61080235E+04</totfact>
</mgrwt>
</event>
<event>
 4    1  0.1252123E+000  0.1755689E+03  0.7546771E-02  0.1172162E+00
         21   -1    0    0  501  502  0.00000000000E+00  0.00000000000E+00  0.35992954318E+03  0.35992954318E+03  0.00000000000E+00 0. -1.
         21   -1    0    0  502  503 -0.00000000000E+00 -0.00000000000E+00 -0.86152287639E+02  0.86152287639E+02  0.00000000000E+00 0. -1.
          6    1    1    2  501    0 -0.10835379139E+02 -0.27893511343E+02  0.15408374695E+03  0.23359420903E+03  0.17300000000E+03 0. -1.
         -6    1    1    2    0  503  0.10835379139E+02  0.27893511343E+02  0.11969350859E+03  0.21248762179E+03  0.17300000000E+03 0. -1.
<mgrwt>
<rscale>  2 0.17556894E+03</rscale>
<asrwt>0</asrwt>
<pdfrwt beam="1">  1       21 0.55373775E-01 0.17556894E+03</pdfrwt>
<pdfrwt beam="2">  1       21 0.13254198E-01 0.17556894E+03</pdfrwt>
<totfact> 0.15178475E+05</totfact>
</mgrwt>
</event>
<event>
 4    1  0.1252123E+000  0.2485324E+03  0.7546771E-02  0.1114236E+00
         21   -1    0    0  501  502  0.00000000000E+00  0.00000000000E+00  0.37932195399E+03  0.37932195399E+03  0.00000000000E+00 0. -1.
         21   -1    0    0  502  503 -0.00000000000E+00 -0.00000000000E+00 -0.16319074675E+03  0.16319074675E+03  0.00000000000E+00 0. -1.
          6    1    1    2  501    0  0.15520431288E+03 -0.88039597224E+02  0.12066187406E+03  0.27627456862E+03  0.17300000000E+03 0. -1.
         -6    1    1    2    0  503 -0.15520431288E+03  0.88039597224E+02  0.95469333187E+02  0.26623813212E+03  0.17300000000E+03 0. -1.
<mgrwt>
<rscale>  2 0.24853239E+03</rscale>
<asrwt>0</asrwt>
<pdfrwt beam="1">  1       21 0.58357223E-01 0.24853239E+03</pdfrwt>
<pdfrwt beam="2">  1       21 0.25106269E-01 0.24853239E+03</pdfrwt>
<totfact> 0.40242733E+04</totfact>
</mgrwt>
</event>
<event>
 4    1  0.1252123E+000  0.3385480E+03  0.7546771E-02  0.1067416E+00
         21   -1    0    0  503  502  0.00000000000E+00  0.00000000000E+00  0.20654223756E+04  0.20654223756E+04  0.00000000000E+00 0.  1.
         21   -1    0    0  501  503 -0.00000000000E+00 -0.00000000000E+00 -0.58528289765E+02  0.58528289765E+02  0.00000000000E+00 0.  1.
          6    1    1    2  501    0 -0.92277066029E+02 -0.27599038726E+03  0.12453223942E+04  0.12905202890E+04  0.17300000000E+03 0.  1.
         -6    1    1    2    0  502  0.92277066029E+02  0.27599038726E+03  0.76157169162E+03  0.83343037637E+03  0.17300000000E+03 0.  1.
<mgrwt>
<rscale>  2 0.33854800E+03</rscale>
<asrwt>0</asrwt>
<pdfrwt beam="1">  1       21 0.31775723E+00 0.33854800E+03</pdfrwt>
<pdfrwt beam="2">  1       21 0.90043538E-02 0.33854800E+03</pdfrwt>
<totfact> 0.22908655E+03</totfact>
</mgrwt>
</event>
<event>
 4    1  0.1252123E+000  0.1865795E+03  0.7546771E-02  0.1161583E+00
         21   -1    0    0  501  502  0.00000000000E+00  0.00000000000E+00  0.64144058538E+03  0.64144058538E+03  0.00000000000E+00 0.  1.
         21   -1    0    0  502  503 -0.00000000000E+00 -0.00000000000E+00 -0.57500293888E+02  0.57500293888E+02  0.00000000000E+00 0.  1.
          6    1    1    2  501    0 -0.46809171696E+02  0.51882752276E+02  0.37478306831E+03  0.41865769649E+03  0.17300000000E+03 0. -1.
         -6    1    1    2    0  503  0.46809171696E+02 -0.51882752276E+02  0.20915722318E+03  0.28028318278E+03  0.17300000000E+03 0. -1.
<mgrwt>
<rscale>  2 0.18657952E+03</rscale>
<asrwt>0</asrwt>
<pdfrwt beam="1">  1       21 0.98683162E-01 0.18657952E+03</pdfrwt>
<pdfrwt beam="2">  1       21 0.88461995E-02 0.18657952E+03</pdfrwt>
<totfact> 0.85508111E+04</totfact>
</mgrwt>
</event>
<event>
 4    1  0.1252123E+000  0.1809878E+03  0.7546771E-02  0.1166850E+00
         21   -1    0    0  501  502  0.00000000000E+00  0.00000000000E+00  0.30933710004E+02  0.30933710004E+02  0.00000000000E+00 0.  1.
         21   -1    0    0  502  503 -0.00000000000E+00 -0.00000000000E+00 -0.10603272830E+04  0.10603272830E+04  0.00000000000E+00 0.  1.
          6    1    1    2  501    0 -0.80667533952E+01 -0.52559687903E+02 -0.49488047246E+03  0.52693763894E+03  0.17300000000E+03 0.  1.
         -6    1    1    2    0  503  0.80667533952E+01  0.52559687903E+02 -0.53451310051E+03  0.56432335405E+03  0.17300000000E+03 0.  1.
<mgrwt>
<rscale>  2 0.18098783E+03</rscale>
<asrwt>0</asrwt>
<pdfrwt beam="1">  1       21 0.47590335E-02 0.18098783E+03</pdfrwt>
<pdfrwt beam="2">  1       21 0.16312723E+00 0.18098783E+03</pdfrwt>
<totfact> 0.70296730E+04</totfact>
</mgrwt>
</event>
<event>
 4    1  0.1252123E+000  0.1788522E+03  0.7546771E-02  0.1168918E+00
         21   -1    0    0  503  502  0.00000000000E+00  0.00000000000E+00  0.27954538277E+03  0.27954538277E+03  0.00000000000E+00 0.  1.
         21   -1    0    0  501  503 -0.00000000000E+00 -0.00000000000E+00 -0.22901504191E+03  0.22901504191E+03  0.00000000000E+00 0.  1.
          6    1    1    2  501    0 -0.31320521057E+02  0.32835161907E+02 -0.15459966129E+03  0.23640892151E+03  0.17300000000E+03 0.  1.
         -6    1    1    2    0  502  0.31320521057E+02 -0.32835161907E+02  0.20513000215E+03  0.27215150317E+03  0.17300000000E+03 0.  1.
<mgrwt>
<rscale>  2 0.17885224E+03</rscale>
<asrwt>0</asrwt>
<pdfrwt beam="1">  1       21 0.43006982E-01 0.17885224E+03</pdfrwt>
<pdfrwt beam="2">  1       21 0.35233083E-01 0.17885224E+03</pdfrwt>
<totfact> 0.40657308E+04</totfact>
</mgrwt>
</event>
<event>
 4    1  0.1252123E+000  0.1943530E+03  0.7546771E-02  0.1154593E+00
         21   -1    0    0  501  502  0.00000000000E+00  0.00000000000E+00  0.43114202692E+02  0.43114202692E+02  0.00000000000E+00 0. -1.
         21   -1    0    0  502  503 -0.00000000000E+00 -0.00000000000E+00 -0.99052017377E+03  0.99052017377E+03  0.00000000000E+00 0. -1.
          6    1    1    2  501    0  0.66549689133E+02 -0.58440011486E+02 -0.29806280451E+03  0.35582935727E+03  0.17300000000E+03 0. -1.
         -6    1    1    2    0  503 -0.66549689133E+02  0.58440011486E+02 -0.64934316657E+03  0.67780501919E+03  0.17300000000E+03 0. -1.
<mgrwt>
<rscale>  2 0.19435302E+03</rscale>
<asrwt>0</asrwt>
<pdfrwt beam="1">  1       21 0.66329550E-02 0.19435302E+03</pdfrwt>
<pdfrwt beam="2">  1       21 0.15238770E+00 0.19435302E+03</pdfrwt>
<totfact> 0.47544766E+04</totfact>
</mgrwt>
</event>
<event>
 4    1  0.1252123E+000  0.1940449E+03  0.7546771E-02  0.1154863E+00
         21   -1    0    0  501  502  0.00000000000E+00  0.00000000000E+00  0.25989766040E+03  0.25989766040E+03  0.00000000000E+00 0.  1.
         21   -1    0    0  502  503 -0.00000000000E+00 -0.00000000000E+00 -0.21017130090E+03  0.21017130090E+03  0.00000000000E+00 0.  1.
          6    1    1    2  501    0  0.75544317737E+02  0.44916292076E+02  0.15586569885E+03  0.24889261402E+03  0.17300000000E+03 0.  1.
         -6    1    1    2    0  503 -0.75544317737E+02 -0.44916292076E+02 -0.10613933935E+03  0.22117634728E+03  0.17300000000E+03 0.  1.
<mgrwt>
<rscale>  2 0.19404488E+03</rscale>
<asrwt>0</asrwt>
<pdfrwt beam="1">  1       21 0.39984255E-01 0.19404488E+03</pdfrwt>
<pdfrwt beam="2">  1       21 0.32334046E-01 0.19404488E+03</pdfrwt>
<totfact> 0.55442915E+04</totfact>
</mgrwt>
</event>
<event>
 4    1  0.1252123E+000  0.1785203E+03  0.7546771E-02  0.1169243E+00
         21   -1    0    0  503  502  0.00000000000E+00  0.00000000000E+00  0.19242034931E+02  0.19242034931E+02  0.00000000000E+00 0. -1.
         21   -1    0    0  501  503 -0.00000000000E+00 -0.00000000000E+00 -0.17211331479E+04  0.17211331479E+04  0.00000000000E+00 0. -1.
          6    1    1    2  501    0 -0.40027173460E+02 -0.18393674974E+02 -0.10199087893E+04  0.10354146225E+04  0.17300000000E+03 0. -1.
         -6    1    1    2    0  502  0.40027173460E+02  0.18393674974E+02 -0.68198232366E+03  0.70496056037E+03  0.17300000000E+03 0. -1.
<mgrwt>
<rscale>  2 0.17852031E+03</rscale>
<asrwt>0</asrwt>
<pdfrwt beam="1">  1       21 0.29603126E-02 0.17852031E+03</pdfrwt>
<pdfrwt beam="2">  1       21 0.26478976E+00 0.17852031E+03</pdfrwt>
<totfact> 0.35687011E+04</totfact>
</mgrwt>
</event>
<event>
 4    1  0.1252123E+000  0.1733337E+03  0.7546771E-02  0.1174415E+00
         21   -1    0    0  501  502  0.00000000000E+00  0.00000000000E+00  0.49212688020E+02  0.49212688020E+02  0.00000000000E+00 0.  1.
         21   -1    0    0  502  503 -0.00000000000E+00 -0.00000000000E+00 -0.68364612225E+03  0.68364612225E+03  0.00000000000E+00 0.  1.
          6    1    1    2  501    0  0.10558996238E+01 -0.10698186813E+02 -0.19736147957E+03  0.26267112468E+03  0.17300000000E+03 0.  1.
         -6    1    1    2    0  503 -0.10558996238E+01  0.10698186813E+02 -0.43707195466E+03  0.47018768559E+03  0.17300000000E+03 0.  1.
<mgrwt>
<rscale>  2 0.17333368E+03</rscale>
<asrwt>0</asrwt>
<pdfrwt beam="1">  1       21 0.75711831E-02 0.17333368E+03</pdfrwt>
<pdfrwt beam="2">  1       21 0.10517632E+00 0.17333368E+03</pdfrwt>
<totfact> 0.96890825E+04</totfact>
</mgrwt>
</event>
<event>
 4    1  0.1252123E+000  0.1856958E+03  0.7546771E-02  0.1162402E+00
         21   -1    0    0  501  502  0.00000000000E+00  0.00000000000E+00  0.21306766354E+03  0.21306766354E+03  0.00000000000E+00 0. -1.
         21   -1    0    0  502  503 -0.00000000000E+00 -0.00000000000E+00 -0.17201215140E+03  0.17201215140E+03  0.00000000000E+00 0. -1.
          6    1    1    2  501    0 -0.78698674269E+01  0.67022383364E+02  0.67348810345E+02  0.19753176185E+03  0.17300000000E+03 0.  1.
         -6    1    1    2    0  503  0.78698674269E+01 -0.67022383364E+02 -0.26293298203E+02  0.18754805308E+03  0.17300000000E+03 0.  1.
<mgrwt>
<rscale>  2 0.18569581E+03</rscale>
<asrwt>0</asrwt>
<pdfrwt beam="1">  1       21 0.32779640E-01 0.18569581E+03</pdfrwt>
<pdfrwt beam="2">  1       21 0.26463408E-01 0.18569581E+03</pdfrwt>
<totfact> 0.12197647E+05</totfact>
</mgrwt>
</event>
<event>
 4    1  0.1252123E+000  0.1895629E+03  0.7546771E-02  0.1158856E+00
         21   -1    0    0  501  502  0.00000000000E+00  0.00000000000E+00  0.88439665229E+02  0.88439665229E+02  0.00000000000E+00 0. -1.
         21   -1    0    0  502  503 -0.00000000000E+00 -0.00000000000E+00 -0.52136449664E+03  0.52136449664E+03  0.00000000000E+00 0. -1.
          6    1    1    2  501    0  0.54319287490E+02 -0.55267744501E+02 -0.73231277309E+02  0.20321645738E+03  0.17300000000E+03 0. -1.
         -6    1    1    2    0  503 -0.54319287490E+02  0.55267744501E+02 -0.35969355411E+03  0.40658770449E+03  0.17300000000E+03 0. -1.
<mgrwt>
<rscale>  2 0.18956294E+03</rscale>
<asrwt>0</asrwt>
<pdfrwt beam="1">  1       21 0.13606102E-01 0.18956294E+03</pdfrwt>
<pdfrwt beam="2">  1       21 0.80209924E-01 0.18956294E+03</pdfrwt>
<totfact> 0.64103761E+04</totfact>
</mgrwt>
</event>
<event>
 4    1  0.1252123E+000  0.1961219E+03  0.7546771E-02  0.1153053E+00
         21   -1    0    0  503  502  0.00000000000E+00  0.00000000000E+00  0.91309029919E+03  0.91309029919E+03  0.00000000000E+00 0.  1.
         21   -1    0    0  501  503 -0.00000000000E+00 -0.00000000000E+00 -0.43347440193E+02  0.43347440193E+02  0.00000000000E+00 0. -1.
          6    1    1    2  501    0  0.70711876257E+02  0.59452737578E+02  0.35455870610E+03  0.40518597400E+03  0.17300000000E+03 0.  1.
         -6    1    1    2    0  502 -0.70711876257E+02 -0.59452737578E+02  0.51518415290E+03  0.55125176539E+03  0.17300000000E+03 0. -1.
<mgrwt>
<rscale>  2 0.19612189E+03</rscale>
<asrwt>0</asrwt>
<pdfrwt beam="1">  1       21 0.14047542E+00 0.19612189E+03</pdfrwt>
<pdfrwt beam="2">  1       21 0.66688377E-02 0.19612189E+03</pdfrwt>
<totfact> 0.58224990E+04</totfact>
</mgrwt>
</event>
<event>
 4    1  0.1252123E+000  0.1738703E+03  0.7546771E-02  0.1173871E+00
         21   -1    0    0  503  502  0.00000000000E+00  0.00000000000E+00  0.87505745724E+02  0.87505745724E+02  0.00000000000E+00 0. -1.
         21   -1    0    0  501  503 -0.00000000000E+00 -0.00000000000E+00 -0.39012045673E+03  0.39012045673E+03  0.00000000000E+00 0. -1.
          6    1    1    2  501    0  0.12728820462E+02  0.11826415861E+02 -0.23209712026E+03  0.28999993141E+03  0.17300000000E+03 0. -1.
         -6    1    1    2    0  502 -0.12728820462E+02 -0.11826415861E+02 -0.70517590743E+02  0.18762627105E+03  0.17300000000E+03 0. -1.
<mgrwt>
<rscale>  2 0.17387032E+03</rscale>
<asrwt>0</asrwt>
<pdfrwt beam="1">  1       21 0.13462423E-01 0.17387032E+03</pdfrwt>
<pdfrwt beam="2">  1       21 0.60018530E-01 0.17387032E+03</pdfrwt>
<totfact> 0.12442176E+05</totfact>
</mgrwt>
</event>
<event>
 4    1  0.1252123E+000  0.3082808E+03  0.7546771E-02  0.1081173E+00
         21   -1    0    0  503  502  0.00000000000E+00  0.00000000000E+00  0.19896893369E+04  0.19896893369E+04  0.00000000000E+00 0. -1.
         21   -1    0    0  501  503 -0.00000000000E+00 -0.00000000000E+00 -0.55567086886E+02  0.55567086886E+02  0.00000000000E+00 0. -1.
          6    1    1    2  501    0 -0.60269294685E+01  0.25509158304E+03  0.58386514681E+03  0.66025415507E+03  0.17300000000E+03 0. -1.
         -6    1    1    2    0  502  0.60269294685E+01 -0.25509158304E+03  0.13502571032E+04  0.13850022688E+04  0.17300000000E+03 0. -1.
<mgrwt>
<rscale>  2 0.30828078E+03</rscale>
<asrwt>0</asrwt>
<pdfrwt beam="1">  1       21 0.30610600E+00 0.30828078E+03</pdfrwt>
<pdfrwt beam="2">  1       21 0.85487841E-02 0.30828078E+03</pdfrwt>
<totfact> 0.30113600E+03</totfact>
</mgrwt>
</event>
<event>
 4    1  0.1252123E+000  0.2342144E+03  0.7546771E-02  0.1123708E+00
         21   -1    0    0  503  502  0.00000000000E+00  0.00000000000E+00  0.64309821619E+02  0.64309821619E+02  0.00000000000E+00 0. -1.
         21   -1    0    0  501  503 -0.00000000000E+00 -0.00000000000E+00 -0.85315805932E+03  0.85315805932E+03  0.00000000000E+00 0. -1.
          6    1    1    2  501    0  0.71807477692E+01  0.15772063657E+03 -0.38820622169E+03  0.45338772910E+03  0.17300000000E+03 0. -1.
         -6    1    1    2    0  502 -0.71807477692E+01 -0.15772063657E+03 -0.40064201601E+03  0.46408015184E+03  0.17300000000E+03 0. -1.
<mgrwt>
<rscale>  2 0.23421435E+03</rscale>
<asrwt>0</asrwt>
<pdfrwt beam="1">  1       21 0.98938183E-02 0.23421435E+03</pdfrwt>
<pdfrwt beam="2">  1       21 0.13125509E+00 0.23421435E+03</pdfrwt>
<totfact> 0.34090854E+04</totfact>
</mgrwt>
</event>
<event>
 4    1  0.1252123E+000  0.1859494E+03  0.7546771E-02  0.1162166E+00
         21   -1    0    0  503  502  0.00000000000E+00  0.00000000000E+00  0.47621683113E+03  0.47621683113E+03  0.00000000000E+00 0. -1.
         21   -1    0    0  501  503 -0.00000000000E+00 -0.00000000000E+00 -0.93264871780E+02  0.93264871780E+02  0.00000000000E+00 0.  1.
          6    1    1    2  501    0  0.68176017225E+02 -0.46906039551E+00  0.57470617753E+02  0.19462800736E+03  0.17300000000E+03 0.  1.
         -6    1    1    2    0  502 -0.68176017225E+02  0.46906039551E+00  0.32548134159E+03  0.37485369555E+03  0.17300000000E+03 0. -1.
<mgrwt>
<rscale>  2 0.18594943E+03</rscale>
<asrwt>0</asrwt>
<pdfrwt beam="1">  1       21 0.73264126E-01 0.18594943E+03</pdfrwt>
<pdfrwt beam="2">  1       21 0.14348442E-01 0.18594943E+03</pdfrwt>
<totfact> 0.71440491E+04</totfact>
</mgrwt>
</event>
<event>
 4    1  0.1252123E+000  0.2106471E+03  0.7546771E-02  0.1141055E+00
         21   -1    0    0  501  502  0.00000000000E+00  0.00000000000E+00  0.57057192307E+03  0.57057192307E+03  0.00000000000E+00 0. -1.
         21   -1    0    0  502  503 -0.00000000000E+00 -0.00000000000E+00 -0.79293964719E+02  0.79293964719E+02  0.00000000000E+00 0. -1.
          6    1    1    2  501    0  0.11383424509E+03 -0.38535216838E+02  0.29071604683E+03  0.35900977449E+03  0.17300000000E+03 0. -1.
         -6    1    1    2    0  503 -0.11383424509E+03  0.38535216838E+02  0.20056191152E+03  0.29085611331E+03  0.17300000000E+03 0. -1.
<mgrwt>
<rscale>  2 0.21064709E+03</rscale>
<asrwt>0</asrwt>
<pdfrwt beam="1">  1       21 0.87780293E-01 0.21064709E+03</pdfrwt>
<pdfrwt beam="2">  1       21 0.12199072E-01 0.21064709E+03</pdfrwt>
<totfact> 0.62876604E+04</totfact>
</mgrwt>
</event>
<event>
 4    1  0.1252123E+000  0.2300019E+03  0.7546771E-02  0.1126638E+00
         21   -1    0    0  503  502  0.00000000000E+00  0.00000000000E+00  0.90662367839E+02  0.90662367839E+02  0.00000000000E+00 0. -1.
         21   -1    0    0  501  503 -0.00000000000E+00 -0.00000000000E+00 -0.62200867291E+03  0.62200867291E+03  0.00000000000E+00 0.  1.
          6    1    1    2  501    0 -0.76254345871E+02  0.13098528568E+03 -0.35434358196E+03  0.42244555200E+03  0.17300000000E+03 0.  1.
         -6    1    1    2    0  502  0.76254345871E+02 -0.13098528568E+03 -0.17700272311E+03  0.29022548875E+03  0.17300000000E+03 0. -1.
<mgrwt>
<rscale>  2 0.23000189E+03</rscale>
<asrwt>0</asrwt>
<pdfrwt beam="1">  1       21 0.13948056E-01 0.23000189E+03</pdfrwt>
<pdfrwt beam="2">  1       21 0.95693644E-01 0.23000189E+03</pdfrwt>
<totfact> 0.39997363E+04</totfact>
</mgrwt>
</event>
<event>
 4    1  0.1252123E+000  0.2446345E+03  0.7546771E-02  0.1116743E+00
         21   -1    0    0  503  502  0.00000000000E+00  0.00000000000E+00  0.38901917683E+03  0.38901917683E+03  0.00000000000E+00 0. -1.
         21   -1    0    0  501  503 -0.00000000000E+00 -0.00000000000E+00 -0.17439584228E+03  0.17439584228E+03  0.00000000000E+00 0.  1.
          6    1    1    2  501    0  0.19345674483E+02  0.17188008356E+03  0.10591556047E+02  0.24486363410E+03  0.17300000000E+03 0.  1.
         -6    1    1    2    0  502 -0.19345674483E+02 -0.17188008356E+03  0.20403177850E+03  0.31855138500E+03  0.17300000000E+03 0. -1.
<mgrwt>
<rscale>  2 0.24463446E+03</rscale>
<asrwt>0</asrwt>
<pdfrwt beam="1">  1       21 0.59849104E-01 0.24463446E+03</pdfrwt>
<pdfrwt beam="2">  1       21 0.26830130E-01 0.24463446E+03</pdfrwt>
<totfact> 0.33588018E+04</totfact>
</mgrwt>
</event>
<event>
 4    1  0.1252123E+000  0.2676397E+03  0.7546771E-02  0.1102638E+00
         21   -1    0    0  503  502  0.00000000000E+00  0.00000000000E+00  0.15032628531E+03  0.15032628531E+03  0.00000000000E+00 0.  1.
         21   -1    0    0  501  503 -0.00000000000E+00 -0.00000000000E+00 -0.57395388550E+03  0.57395388550E+03  0.00000000000E+00 0. -1.
          6    1    1    2  501    0 -0.59147658924E+02 -0.19545734894E+03 -0.36103467704E+03  0.44941857865E+03  0.17300000000E+03 0. -1.
         -6    1    1    2    0  502  0.59147658924E+02  0.19545734894E+03 -0.62592923151E+02  0.27486159215E+03  0.17300000000E+03 0.  1.
<mgrwt>
<rscale>  2 0.26763972E+03</rscale>
<asrwt>0</asrwt>
<pdfrwt beam="1">  1       21 0.23127121E-01 0.26763972E+03</pdfrwt>
<pdfrwt beam="2">  1       21 0.88300597E-01 0.26763972E+03</pdfrwt>
<totfact> 0.18511858E+04</totfact>
</mgrwt>
</event>
<event>
 4    1  0.1252123E+000  0.2558281E+03  0.7546771E-02  0.1109676E+00
         21   -1    0    0  501  502  0.00000000000E+00  0.00000000000E+00  0.23874540307E+02  0.23874540307E+02  0.00000000000E+00 0.  1.
         21   -1    0    0  502  503 -0.00000000000E+00 -0.00000000000E+00 -0.27476743823E+04  0.27476743823E+04  0.00000000000E+00 0. -1.
          6    1    1    2  501    0 -0.60258258814E+02 -0.17857202254E+03 -0.12953175037E+04  0.13203391460E+04  0.17300000000E+03 0. -1.
         -6    1    1    2    0  503  0.60258258814E+02  0.17857202254E+03 -0.14284823383E+04  0.14512097766E+04  0.17300000000E+03 0. -1.
<mgrwt>
<rscale>  2 0.25582812E+03</rscale>
<asrwt>0</asrwt>
<pdfrwt beam="1">  1       21 0.36730054E-02 0.25582812E+03</pdfrwt>
<pdfrwt beam="2">  1       21 0.42271922E+00 0.25582812E+03</pdfrwt>
<totfact> 0.26142679E+03</totfact>
</mgrwt>
</event>
<event>
 4    1  0.1252123E+000  0.2005882E+03  0.7546771E-02  0.1149244E+00
         21   -1    0    0  501  502  0.00000000000E+00  0.00000000000E+00  0.21894635708E+03  0.21894635708E+03  0.00000000000E+00 0. -1.
         21   -1    0    0  502  503 -0.00000000000E+00 -0.00000000000E+00 -0.20485579840E+03  0.20485579840E+03  0.00000000000E+00 0. -1.
          6    1    1    2  501    0 -0.16915712030E+02  0.10010246492E+03  0.75029800813E+02  0.21416142465E+03  0.17300000000E+03 0. -1.
         -6    1    1    2    0  503  0.16915712030E+02 -0.10010246492E+03 -0.60939242131E+02  0.20964073084E+03  0.17300000000E+03 0. -1.
<mgrwt>
<rscale>  2 0.20058825E+03</rscale>
<asrwt>0</asrwt>
<pdfrwt beam="1">  1       21 0.33684055E-01 0.20058825E+03</pdfrwt>
<pdfrwt beam="2">  1       21 0.31516277E-01 0.20058825E+03</pdfrwt>
<totfact> 0.81879855E+04</totfact>
</mgrwt>
</event>
<event>
 4    1  0.1252123E+000  0.1802208E+03  0.7546771E-02  0.1167590E+00
         21   -1    0    0  503  502  0.00000000000E+00  0.00000000000E+00  0.22274677667E+02  0.22274677667E+02  0.00000000000E+00 0.  1.
         21   -1    0    0  501  503 -0.00000000000E+00 -0.00000000000E+00 -0.14728193065E+04  0.14728193065E+04  0.00000000000E+00 0.  1.
          6    1    1    2  501    0  0.47256765536E+02 -0.17813803940E+02 -0.79991026245E+03  0.81996095119E+03  0.17300000000E+03 0.  1.
         -6    1    1    2    0  502 -0.47256765536E+02  0.17813803940E+02 -0.65063436637E+03  0.67513303296E+03  0.17300000000E+03 0.  1.
<mgrwt>
<rscale>  2 0.18022079E+03</rscale>
<asrwt>0</asrwt>
<pdfrwt beam="1">  1       21 0.34268736E-02 0.18022079E+03</pdfrwt>
<pdfrwt beam="2">  1       21 0.22658758E+00 0.18022079E+03</pdfrwt>
<totfact> 0.46955355E+04</totfact>
</mgrwt>
</event>
<event>
 4    1  0.1252123E+000  0.2253168E+03  0.7546771E-02  0.1129980E+00
         21   -1    0    0  503  502  0.00000000000E+00  0.00000000000E+00  0.47801498685E+03  0.47801498685E+03  0.00000000000E+00 0. -1.
         21   -1    0    0  501  503 -0.00000000000E+00 -0.00000000000E+00 -0.13743142985E+03  0.13743142985E+03  0.00000000000E+00 0. -1.
          6    1    1    2  501    0 -0.31785219252E+02  0.14081322579E+03  0.23609658523E+02  0.22655039328E+03  0.17300000000E+03 0. -1.
         -6    1    1    2    0  502  0.31785219252E+02 -0.14081322579E+03  0.31697389848E+03  0.38889602342E+03  0.17300000000E+03 0. -1.
<mgrwt>
<rscale>  2 0.22531681E+03</rscale>
<asrwt>0</asrwt>
<pdfrwt beam="1">  1       21 0.73540767E-01 0.22531681E+03</pdfrwt>
<pdfrwt beam="2">  1       21 0.21143297E-01 0.22531681E+03</pdfrwt>
<totfact> 0.33969318E+04</totfact>
</mgrwt>
</event>
<event>
 4    1  0.1252123E+000  0.2311258E+03  0.7546771E-02  0.1125850E+00
         21   -1    0    0  501  502  0.00000000000E+00  0.00000000000E+00  0.11091546268E+03  0.11091546268E+03  0.00000000000E+00 0.  1.
         21   -1    0    0  502  503 -0.00000000000E+00 -0.00000000000E+00 -0.55955283237E+03  0.55955283237E+03  0.00000000000E+00 0.  1.
          6    1    1    2  501    0 -0.11877787257E+03 -0.96860518368E+02 -0.34942723152E+03  0.41894932052E+03  0.17300000000E+03 0.  1.
         -6    1    1    2    0  503  0.11877787257E+03  0.96860518368E+02 -0.99210138170E+02  0.25151897453E+03  0.17300000000E+03 0.  1.
<mgrwt>
<rscale>  2 0.23112582E+03</rscale>
<asrwt>0</asrwt>
<pdfrwt beam="1">  1       21 0.17063917E-01 0.23112582E+03</pdfrwt>
<pdfrwt beam="2">  1       21 0.86085051E-01 0.23112582E+03</pdfrwt>
<totfact> 0.35352414E+04</totfact>
</mgrwt>
</event>
<event>
 4    1  0.1252123E+000  0.1793955E+03  0.7546771E-02  0.1168389E+00
         21   -1    0    0  501  502  0.00000000000E+00  0.00000000000E+00  0.60733793353E+03  0.60733793353E+03  0.00000000000E+00 0. -1.
         21   -1    0    0  502  503 -0.00000000000E+00 -0.00000000000E+00 -0.88366446910E+02  0.88366446910E+02  0.00000000000E+00 0. -1.
          6    1    1    2  501    0  0.34396662689E+01 -0.47348882629E+02  0.47958017345E+03  0.51203504837E+03  0.17300000000E+03 0. -1.
         -6    1    1    2    0  503 -0.34396662689E+01  0.47348882629E+02  0.39391313169E+02  0.18366933207E+03  0.17300000000E+03 0. -1.
<mgrwt>
<rscale>  2 0.17939551E+03</rscale>
<asrwt>0</asrwt>
<pdfrwt beam="1">  1       21 0.93436602E-01 0.17939551E+03</pdfrwt>
<pdfrwt beam="2">  1       21 0.13594838E-01 0.17939551E+03</pdfrwt>
<totfact> 0.45458341E+04</totfact>
</mgrwt>
</event>
<event>
 4    1  0.1252123E+000  0.1797709E+03  0.7546771E-02  0.1168025E+00
         21   -1    0    0  503  502  0.00000000000E+00  0.00000000000E+00  0.98714876332E+03  0.98714876332E+03  0.00000000000E+00 0.  1.
         21   -1    0    0  501  503 -0.00000000000E+00 -0.00000000000E+00 -0.32747071158E+02  0.32747071158E+02  0.00000000000E+00 0.  1.
          6    1    1    2  501    0 -0.31473390077E+02 -0.37389793808E+02  0.48554731962E+03  0.51775840945E+03  0.17300000000E+03 0. -1.
         -6    1    1    2    0  502  0.31473390077E+02  0.37389793808E+02  0.46885437254E+03  0.50213742503E+03  0.17300000000E+03 0. -1.
<mgrwt>
<rscale>  2 0.17977088E+03</rscale>
<asrwt>0</asrwt>
<pdfrwt beam="1">  1       21 0.15186902E+00 0.17977088E+03</pdfrwt>
<pdfrwt beam="2">  1       21 0.50380117E-02 0.17977088E+03</pdfrwt>
<totfact> 0.77333876E+04</totfact>
</mgrwt>
</event>
<event>
 4    1  0.1252123E+000  0.1991620E+03  0.7546771E-02  0.1150448E+00
         21   -1    0    0  503  502  0.00000000000E+00  0.00000000000E+00  0.50773540421E+03  0.50773540421E+03  0.00000000000E+00 0. -1.
         21   -1    0    0  501  503 -0.00000000000E+00 -0.00000000000E+00 -0.15973965425E+03  0.15973965425E+03  0.00000000000E+00 0.  1.
          6    1    1    2  501    0  0.45190647955E+02  0.87717243190E+02 -0.64557749701E+02  0.20936382797E+03  0.17300000000E+03 0.  1.
         -6    1    1    2    0  502 -0.45190647955E+02 -0.87717243190E+02  0.41255349966E+03  0.45811123048E+03  0.17300000000E+03 0. -1.
<mgrwt>
<rscale>  2 0.19916202E+03</rscale>
<asrwt>0</asrwt>
<pdfrwt beam="1">  1       21 0.78113139E-01 0.19916202E+03</pdfrwt>
<pdfrwt beam="2">  1       21 0.24575332E-01 0.19916202E+03</pdfrwt>
<totfact> 0.22626704E+04</totfact>
</mgrwt>
</event>
<event>
 4    1  0.1252123E+000  0.1731039E+03  0.7546771E-02  0.1174649E+00
         21   -1    0    0  503  502  0.00000000000E+00  0.00000000000E+00  0.30128351922E+03  0.30128351922E+03  0.00000000000E+00 0.  1.
         21   -1    0    0  501  503 -0.00000000000E+00 -0.00000000000E+00 -0.10026935998E+03  0.10026935998E+03  0.00000000000E+00 0.  1.
          6    1    1    2  501    0  0.10554809096E+01 -0.59035057013E+01  0.82442989449E+02  0.19173370056E+03  0.17300000000E+03 0.  1.
         -6    1    1    2    0  502 -0.10554809096E+01  0.59035057013E+01  0.11857116980E+03  0.20981917864E+03  0.17300000000E+03 0.  1.
<mgrwt>
<rscale>  2 0.17310392E+03</rscale>
<asrwt>0</asrwt>
<pdfrwt beam="1">  1       21 0.46351310E-01 0.17310392E+03</pdfrwt>
<pdfrwt beam="2">  1       21 0.15426056E-01 0.17310392E+03</pdfrwt>
<totfact> 0.16722637E+05</totfact>
</mgrwt>
</event>
<event>
 4    1  0.1252123E+000  0.1905270E+03  0.7546771E-02  0.1157987E+00
         21   -1    0    0  501  502  0.00000000000E+00  0.00000000000E+00  0.39978140966E+03  0.39978140966E+03  0.00000000000E+00 0. -1.
         21   -1    0    0  502  503 -0.00000000000E+00 -0.00000000000E+00 -0.90867522122E+02  0.90867522122E+02  0.00000000000E+00 0. -1.
          6    1    1    2  501    0 -0.79312706527E+02 -0.90014159143E+01  0.14781660963E+03  0.24114369365E+03  0.17300000000E+03 0. -1.
         -6    1    1    2    0  503  0.79312706527E+02  0.90014159143E+01  0.16109727791E+03  0.24950523813E+03  0.17300000000E+03 0. -1.
<mgrwt>
<rscale>  2 0.19052698E+03</rscale>
<asrwt>0</asrwt>
<pdfrwt beam="1">  1       21 0.61504831E-01 0.19052698E+03</pdfrwt>
<pdfrwt beam="2">  1       21 0.13979619E-01 0.19052698E+03</pdfrwt>
<totfact> 0.10961372E+05</totfact>
</mgrwt>
</event>
<event>
 4    1  0.1252123E+000  0.2210425E+03  0.7546771E-02  0.1133108E+00
         21   -1    0    0  501  502  0.00000000000E+00  0.00000000000E+00  0.22615796697E+03  0.22615796697E+03  0.00000000000E+00 0. -1.
         21   -1    0    0  502  503 -0.00000000000E+00 -0.00000000000E+00 -0.22208040779E+03  0.22208040779E+03  0.00000000000E+00 0. -1.
          6    1    1    2  501    0  0.11941061964E+03 -0.68351303913E+02  0.38992395179E+02  0.22445534903E+03  0.17300000000E+03 0. -1.
         -6    1    1    2    0  503 -0.11941061964E+03  0.68351303913E+02 -0.34914836003E+02  0.22378302572E+03  0.17300000000E+03 0. -1.
<mgrwt>
<rscale>  2 0.22104252E+03</rscale>
<asrwt>0</asrwt>
<pdfrwt beam="1">  1       21 0.34793533E-01 0.22104252E+03</pdfrwt>
<pdfrwt beam="2">  1       21 0.34166216E-01 0.22104252E+03</pdfrwt>
<totfact> 0.64907201E+04</totfact>
</mgrwt>
</event>
<event>
 4    1  0.1252123E+000  0.1881709E+03  0.7546771E-02  0.1160122E+00
         21   -1    0    0  503  502  0.00000000000E+00  0.00000000000E+00  0.47649552674E+03  0.47649552674E+03  0.00000000000E+00 0.  1.
         21   -1    0    0  501  503 -0.00000000000E+00 -0.00000000000E+00 -0.74311437155E+02  0.74311437155E+02  0.00000000000E+00 0. -1.
          6    1    1    2  501    0 -0.68521099513E+02  0.28002436187E+02  0.20239279084E+03  0.27635325092E+03  0.17300000000E+03 0.  1.
         -6    1    1    2    0  502  0.68521099513E+02 -0.28002436187E+02  0.19979129875E+03  0.27445371298E+03  0.17300000000E+03 0. -1.
<mgrwt>
<rscale>  2 0.18817087E+03</rscale>
<asrwt>0</asrwt>
<pdfrwt beam="1">  1       21 0.73307002E-01 0.18817087E+03</pdfrwt>
<pdfrwt beam="2">  1       21 0.11432529E-01 0.18817087E+03</pdfrwt>
<totfact> 0.10722367E+05</totfact>
</mgrwt>
</event>
<event>
 4    1  0.1252123E+000  0.2105915E+03  0.7546771E-02  0.1141098E+00
         21   -1    0    0  503  502  0.00000000000E+00  0.00000000000E+00  0.21637923659E+03  0.21637923659E+03  0.00000000000E+00 0.  1.
         21   -1    0    0  501  503 -0.00000000000E+00 -0.00000000000E+00 -0.20666392680E+03  0.20666392680E+03  0.00000000000E+00 0.  1.
          6    1    1    2  501    0 -0.11975054415E+03 -0.89202414260E+01  0.24072594559E+02  0.21196285840E+03  0.17300000000E+03 0.  1.
         -6    1    1    2    0  502  0.11975054415E+03  0.89202414260E+01 -0.14357284769E+02  0.21108030500E+03  0.17300000000E+03 0.  1.
<mgrwt>
<rscale>  2 0.21059146E+03</rscale>
<asrwt>0</asrwt>
<pdfrwt beam="1">  1       21 0.33289113E-01 0.21059146E+03</pdfrwt>
<pdfrwt beam="2">  1       21 0.31794450E-01 0.21059146E+03</pdfrwt>
<totfact> 0.82032377E+04</totfact>
</mgrwt>
</event>
<event>
 4    1  0.1252123E+000  0.1762988E+03  0.7546771E-02  0.1171434E+00
         21   -1    0    0  503  502  0.00000000000E+00  0.00000000000E+00  0.22959135302E+03  0.22959135302E+03  0.00000000000E+00 0.  1.
         21   -1    0    0  501  503 -0.00000000000E+00 -0.00000000000E+00 -0.13596048506E+03  0.13596048506E+03  0.00000000000E+00 0.  1.
          6    1    1    2  501    0  0.31706438278E+02  0.12123337822E+02  0.58794250298E+02  0.18584412129E+03  0.17300000000E+03 0.  1.
         -6    1    1    2    0  502 -0.31706438278E+02 -0.12123337822E+02  0.34836617664E+02  0.17970771680E+03  0.17300000000E+03 0.  1.
<mgrwt>
<rscale>  2 0.17629882E+03</rscale>
<asrwt>0</asrwt>
<pdfrwt beam="1">  1       21 0.35321747E-01 0.17629882E+03</pdfrwt>
<pdfrwt beam="2">  1       21 0.20916998E-01 0.17629882E+03</pdfrwt>
<totfact> 0.16485624E+05</totfact>
</mgrwt>
</event>
<event>
 4    1  0.1252123E+000  0.2078842E+03  0.7546771E-02  0.1143253E+00
         21   -1    0    0  503  502  0.00000000000E+00  0.00000000000E+00  0.16599161344E+03  0.16599161344E+03  0.00000000000E+00 0. -1.
         21   -1    0    0  501  503 -0.00000000000E+00 -0.00000000000E+00 -0.47854142602E+03  0.47854142602E+03  0.00000000000E+00 0. -1.
          6    1    1    2  501    0 -0.69793073234E+02  0.91737502690E+02 -0.37388282933E+03  0.42778991636E+03  0.17300000000E+03 0. -1.
         -6    1    1    2    0  502  0.69793073234E+02 -0.91737502690E+02  0.61333016742E+02  0.21674312311E+03  0.17300000000E+03 0. -1.
<mgrwt>
<rscale>  2 0.20788420E+03</rscale>
<asrwt>0</asrwt>
<pdfrwt beam="1">  1       21 0.25537172E-01 0.20788420E+03</pdfrwt>
<pdfrwt beam="2">  1       21 0.73621757E-01 0.20788420E+03</pdfrwt>
<totfact> 0.23886951E+04</totfact>
</mgrwt>
</event>
<event>
 4    1  0.1252123E+000  0.1734682E+03  0.7546771E-02  0.1174279E+00
         21   -1    0    0  501  502  0.00000000000E+00  0.00000000000E+00  0.24482919740E+03  0.24482919740E+03  0.00000000000E+00 0.  1.
         21   -1    0    0  502  503 -0.00000000000E+00 -0.00000000000E+00 -0.12312950796E+03  0.12312950796E+03  0.00000000000E+00 0.  1.
          6    1    1    2  501    0  0.40933675025E+00 -0.12729354463E+02  0.68672120093E+02  0.18656651388E+03  0.17300000000E+03 0.  1.
         -6    1    1    2    0  503 -0.40933675025E+00  0.12729354463E+02  0.53027569340E+02  0.18139219148E+03  0.17300000000E+03 0.  1.
<mgrwt>
<rscale>  2 0.17346816E+03</rscale>
<asrwt>0</asrwt>
<pdfrwt beam="1">  1       21 0.37666030E-01 0.17346816E+03</pdfrwt>
<pdfrwt beam="2">  1       21 0.18943001E-01 0.17346816E+03</pdfrwt>
<totfact> 0.17463975E+05</totfact>
</mgrwt>
</event>
<event>
 4    1  0.1252123E+000  0.1981228E+03  0.7546771E-02  0.1151333E+00
         21   -1    0    0  503  502  0.00000000000E+00  0.00000000000E+00  0.36865331460E+03  0.36865331460E+03  0.00000000000E+00 0.  1.
         21   -1    0    0  501  503 -0.00000000000E+00 -0.00000000000E+00 -0.10871966750E+03  0.10871966750E+03  0.00000000000E+00 0.  1.
          6    1    1    2  501    0 -0.59547545004E+02  0.76011346986E+02  0.95675988705E+02  0.22001483996E+03  0.17300000000E+03 0.  1.
         -6    1    1    2    0  502  0.59547545004E+02 -0.76011346986E+02  0.16425765839E+03  0.25735814214E+03  0.17300000000E+03 0.  1.
<mgrwt>
<rscale>  2 0.19812278E+03</rscale>
<asrwt>0</asrwt>
<pdfrwt beam="1">  1       21 0.56715894E-01 0.19812278E+03</pdfrwt>
<pdfrwt beam="2">  1       21 0.16726103E-01 0.19812278E+03</pdfrwt>
<totfact> 0.93723131E+04</totfact>
</mgrwt>
</event>
<event>
 4    1  0.1252123E+000  0.1846295E+03  0.7546771E-02  0.1163396E+00
         21   -1    0    0  501  502  0.00000000000E+00  0.00000000000E+00  0.36913967636E+02  0.36913967636E+02  0.00000000000E+00 0.  1.
         21   -1    0    0  502  503 -0.00000000000E+00 -0.00000000000E+00 -0.10407590247E+04  0.10407590247E+04  0.00000000000E+00 0.  1.
          6    1    1    2  501    0  0.64391883241E+02 -0.35700214458E+01 -0.32101575412E+03  0.37032306716E+03  0.17300000000E+03 0.  1.
         -6    1    1    2    0  503 -0.64391883241E+02  0.35700214458E+01 -0.68282930293E+03  0.70734992515E+03  0.17300000000E+03 0.  1.
<mgrwt>
<rscale>  2 0.18462952E+03</rscale>
<asrwt>0</asrwt>
<pdfrwt beam="1">  1       21 0.56790714E-02 0.18462952E+03</pdfrwt>
<pdfrwt beam="2">  1       21 0.16011679E+00 0.18462952E+03</pdfrwt>
<totfact> 0.54657277E+04</totfact>
</mgrwt>
</event>
<event>
 4    1  0.1252123E+000  0.2007728E+03  0.7546771E-02  0.1149089E+00
         21   -1    0    0  501  502  0.00000000000E+00  0.00000000000E+00  0.90991525281E+03  0.90991525281E+03  0.00000000000E+00 0.  1.
         21   -1    0    0  502  503 -0.00000000000E+00 -0.00000000000E+00 -0.71151821263E+02  0.71151821263E+02  0.00000000000E+00 0.  1.
          6    1    1    2  501    0 -0.19799297728E+02  0.99943519792E+02  0.72072280833E+03  0.74816514607E+03  0.17300000000E+03 0.  1.
         -6    1    1    2    0  503  0.19799297728E+02 -0.99943519792E+02  0.11804062321E+03  0.23290192800E+03  0.17300000000E+03 0.  1.
<mgrwt>
<rscale>  2 0.20077281E+03</rscale>
<asrwt>0</asrwt>
<pdfrwt beam="1">  1       21 0.13998695E+00 0.20077281E+03</pdfrwt>
<pdfrwt beam="2">  1       21 0.10946435E-01 0.20077281E+03</pdfrwt>
<totfact> 0.24615128E+04</totfact>
</mgrwt>
</event>
<event>
 4    1  0.1252123E+000  0.1762328E+03  0.7546771E-02  0.1171500E+00
         21   -1    0    0  501  502  0.00000000000E+00  0.00000000000E+00  0.26009892269E+03  0.26009892269E+03  0.00000000000E+00 0.  1.
         21   -1    0    0  502  503 -0.00000000000E+00 -0.00000000000E+00 -0.11971472771E+03  0.11971472771E+03  0.00000000000E+00 0.  1.
          6    1    1    2  501    0 -0.16350052914E-01  0.33600467728E+02  0.79798752402E+02  0.19345757308E+03  0.17300000000E+03 0.  1.
         -6    1    1    2    0  503  0.16350052914E-01 -0.33600467728E+02  0.60585442579E+02  0.18635607731E+03  0.17300000000E+03 0.  1.
<mgrwt>
<rscale>  2 0.17623278E+03</rscale>
<asrwt>0</asrwt>
<pdfrwt beam="1">  1       21 0.40015219E-01 0.17623278E+03</pdfrwt>
<pdfrwt beam="2">  1       21 0.18417651E-01 0.17623278E+03</pdfrwt>
<totfact> 0.16279668E+05</totfact>
</mgrwt>
</event>
<event>
 4    1  0.1252123E+000  0.2027743E+03  0.7546771E-02  0.1147419E+00
         21   -1    0    0  501  502  0.00000000000E+00  0.00000000000E+00  0.24741397523E+03  0.24741397523E+03  0.00000000000E+00 0. -1.
         21   -1    0    0  502  503 -0.00000000000E+00 -0.00000000000E+00 -0.16743803937E+03  0.16743803937E+03  0.00000000000E+00 0. -1.
          6    1    1    2  501    0 -0.62606441353E+02 -0.85257465623E+02  0.57905568154E+02  0.21088019529E+03  0.17300000000E+03 0. -1.
         -6    1    1    2    0  503  0.62606441353E+02  0.85257465623E+02  0.22070367703E+02  0.20397181931E+03  0.17300000000E+03 0. -1.
<mgrwt>
<rscale>  2 0.20277426E+03</rscale>
<asrwt>0</asrwt>
<pdfrwt beam="1">  1       21 0.38063688E-01 0.20277426E+03</pdfrwt>
<pdfrwt beam="2">  1       21 0.25759698E-01 0.20277426E+03</pdfrwt>
<totfact> 0.94817392E+04</totfact>
</mgrwt>
</event>
<event>
 4    1  0.1252123E+000  0.3255438E+03  0.7546771E-02  0.1073126E+00
         21   -1    0    0  503  502  0.00000000000E+00  0.00000000000E+00  0.42903042699E+03  0.42903042699E+03  0.00000000000E+00 0. -1.
         21   -1    0    0  501  503 -0.00000000000E+00 -0.00000000000E+00 -0.24777775687E+03  0.24777775687E+03  0.00000000000E+00 0.  1.
          6    1    1    2  501    0  0.67082235364E+02 -0.26748783589E+03  0.71902794436E+02  0.33338983262E+03  0.17300000000E+03 0.  1.
         -6    1    1    2    0  502 -0.67082235364E+02  0.26748783589E+03  0.10934987568E+03  0.34341835123E+03  0.17300000000E+03 0.  1.
<mgrwt>
<rscale>  2 0.32554380E+03</rscale>
<asrwt>0</asrwt>
<pdfrwt beam="1">  1       21 0.66004681E-01 0.32554380E+03</pdfrwt>
<pdfrwt beam="2">  1       21 0.38119655E-01 0.32554380E+03</pdfrwt>
<totfact> 0.13068593E+04</totfact>
</mgrwt>
</event>
<event>
 4    1  0.1252123E+000  0.1990648E+03  0.7546771E-02  0.1150530E+00
         21   -1    0    0  503  502  0.00000000000E+00  0.00000000000E+00  0.87778647473E+02  0.87778647473E+02  0.00000000000E+00 0. -1.
         21   -1    0    0  501  503 -0.00000000000E+00 -0.00000000000E+00 -0.61543820300E+03  0.61543820300E+03  0.00000000000E+00 0. -1.
          6    1    1    2  501    0 -0.41501544359E+02 -0.89305091717E+02 -0.44533403613E+03  0.48780034987E+03  0.17300000000E+03 0.  1.
         -6    1    1    2    0  502  0.41501544359E+02  0.89305091717E+02 -0.82325519398E+02  0.21541650061E+03  0.17300000000E+03 0.  1.
<mgrwt>
<rscale>  2 0.19906476E+03</rscale>
<asrwt>0</asrwt>
<pdfrwt beam="1">  1       21 0.13504408E-01 0.19906476E+03</pdfrwt>
<pdfrwt beam="2">  1       21 0.94682797E-01 0.19906476E+03</pdfrwt>
<totfact> 0.44160097E+04</totfact>
</mgrwt>
</event>
<event>
 4    1  0.1252123E+000  0.2383109E+03  0.7546771E-02  0.1120923E+00
         21   -1    0    0  503  502  0.00000000000E+00  0.00000000000E+00  0.81731018531E+03  0.81731018531E+03  0.00000000000E+00 0. -1.
         21   -1    0    0  501  503 -0.00000000000E+00 -0.00000000000E+00 -0.73555072004E+02  0.73555072004E+02  0.00000000000E+00 0.  1.
          6    1    1    2  501    0  0.62784642101E+02 -0.15139734843E+03  0.26711795685E+03  0.35797216550E+03  0.17300000000E+03 0. -1.
         -6    1    1    2    0  502 -0.62784642101E+02  0.15139734843E+03  0.47663715646E+03  0.53289309182E+03  0.17300000000E+03 0. -1.
<mgrwt>
<rscale>  2 0.23831087E+03</rscale>
<asrwt>0</asrwt>
<pdfrwt beam="1">  1       21 0.12574002E+00 0.23831087E+03</pdfrwt>
<pdfrwt beam="2">  1       21 0.11316166E-01 0.23831087E+03</pdfrwt>
<totfact> 0.29858447E+04</totfact>
</mgrwt>
</event>
<event>
 4    1  0.1252123E+000  0.3971596E+03  0.7546771E-02  0.1044768E+00
         21   -1    0    0  501  502  0.00000000000E+00  0.00000000000E+00  0.76899921531E+03  0.76899921531E+03  0.00000000000E+00 0.  1.
         21   -1    0    0  502  503 -0.00000000000E+00 -0.00000000000E+00 -0.22770455838E+03  0.22770455838E+03  0.00000000000E+00 0.  1.
          6    1    1    2  501    0  0.32578325394E+03 -0.14721432182E+03  0.42760144971E+03  0.58359128240E+03  0.17300000000E+03 0.  1.
         -6    1    1    2    0  503 -0.32578325394E+03  0.14721432182E+03  0.11369320722E+03  0.41311249130E+03  0.17300000000E+03 0.  1.
<mgrwt>
<rscale>  2 0.39715965E+03</rscale>
<asrwt>0</asrwt>
<pdfrwt beam="1">  1       21 0.11830757E+00 0.39715965E+03</pdfrwt>
<pdfrwt beam="2">  1       21 0.35031471E-01 0.39715965E+03</pdfrwt>
<totfact> 0.38192104E+03</totfact>
</mgrwt>
</event>
<event>
 4    1  0.1252123E+000  0.1730198E+03  0.7546771E-02  0.1174735E+00
         21   -1    0    0  501  502  0.00000000000E+00  0.00000000000E+00  0.15214030260E+03  0.15214030260E+03  0.00000000000E+00 0. -1.
         21   -1    0    0  502  503 -0.00000000000E+00 -0.00000000000E+00 -0.19901830521E+03  0.19901830521E+03  0.00000000000E+00 0. -1.
          6    1    1    2  501    0  0.59979443952E+00 -0.25454337453E+01 -0.47551240672E+01  0.17308509523E+03  0.17300000000E+03 0.  1.
         -6    1    1    2    0  503 -0.59979443952E+00  0.25454337453E+01 -0.42122878533E+02  0.17807351258E+03  0.17300000000E+03 0.  1.
<mgrwt>
<rscale>  2 0.17301976E+03</rscale>
<asrwt>0</asrwt>
<pdfrwt beam="1">  1       21 0.23406200E-01 0.17301976E+03</pdfrwt>
<pdfrwt beam="2">  1       21 0.30618201E-01 0.17301976E+03</pdfrwt>
<totfact> 0.17686922E+05</totfact>
</mgrwt>
</event>
<event>
 4    1  0.1252123E+000  0.2162545E+03  0.7546771E-02  0.1136707E+00
         21   -1    0    0  501  502  0.00000000000E+00  0.00000000000E+00  0.81234316678E+02  0.81234316678E+02  0.00000000000E+00 0. -1.
         21   -1    0    0  502  503 -0.00000000000E+00 -0.00000000000E+00 -0.65050062423E+03  0.65050062423E+03  0.00000000000E+00 0. -1.
          6    1    1    2  501    0 -0.11779128579E+03 -0.54426278230E+02 -0.16056120323E+03  0.26934347357E+03  0.17300000000E+03 0. -1.
         -6    1    1    2    0  503  0.11779128579E+03  0.54426278230E+02 -0.40870510432E+03  0.46239146734E+03  0.17300000000E+03 0. -1.
<mgrwt>
<rscale>  2 0.21625450E+03</rscale>
<asrwt>0</asrwt>
<pdfrwt beam="1">  1       21 0.12497587E-01 0.21625450E+03</pdfrwt>
<pdfrwt beam="2">  1       21 0.10007702E+00 0.21625450E+03</pdfrwt>
<totfact> 0.44170440E+04</totfact>
</mgrwt>
</event>
<event>
 4    1  0.1252123E+000  0.1817124E+03  0.7546771E-02  0.1166156E+00
         21   -1    0    0  503  502  0.00000000000E+00  0.00000000000E+00  0.11009892653E+04  0.11009892653E+04  0.00000000000E+00 0. -1.
         21   -1    0    0  501  503 -0.00000000000E+00 -0.00000000000E+00 -0.31910249264E+02  0.31910249264E+02  0.00000000000E+00 0. -1.
          6    1    1    2  501    0 -0.21916751041E+01  0.55548066486E+02  0.67347103908E+03  0.69755475169E+03  0.17300000000E+03 0. -1.
         -6    1    1    2    0  502  0.21916751041E+01 -0.55548066486E+02  0.39560797698E+03  0.43534476290E+03  0.17300000000E+03 0. -1.
<mgrwt>
<rscale>  2 0.18171239E+03</rscale>
<asrwt>0</asrwt>
<pdfrwt beam="1">  1       21 0.16938293E+00 0.18171239E+03</pdfrwt>
<pdfrwt beam="2">  1       21 0.49092700E-02 0.18171239E+03</pdfrwt>
<totfact> 0.60176657E+04</totfact>
</mgrwt>
</event>
<event>
 4    1  0.1252123E+000  0.2283058E+03  0.7546771E-02  0.1127838E+00
         21   -1    0    0  501  502  0.00000000000E+00  0.00000000000E+00  0.41167937929E+03  0.41167937929E+03  0.00000000000E+00 0.  1.
         21   -1    0    0  502  503 -0.00000000000E+00 -0.00000000000E+00 -0.22172781309E+03  0.22172781309E+03  0.00000000000E+00 0. -1.
          6    1    1    2  501    0 -0.96498790491E+02 -0.11350126138E+03  0.30240467723E+03  0.37890914704E+03  0.17300000000E+03 0.  1.
         -6    1    1    2    0  503  0.96498790491E+02  0.11350126138E+03 -0.11245311103E+03  0.25449804534E+03  0.17300000000E+03 0. -1.
<mgrwt>
<rscale>  2 0.22830583E+03</rscale>
<asrwt>0</asrwt>
<pdfrwt beam="1">  1       21 0.63335289E-01 0.22830583E+03</pdfrwt>
<pdfrwt beam="2">  1       21 0.34111971E-01 0.22830583E+03</pdfrwt>
<totfact> 0.18701196E+04</totfact>
</mgrwt>
</event>
<event>
 4    1  0.1252123E+000  0.2466662E+03  0.7546771E-02  0.1115430E+00
         21   -1    0    0  503  502  0.00000000000E+00  0.00000000000E+00  0.80295082496E+03  0.80295082496E+03  0.00000000000E+00 0. -1.
         21   -1    0    0  501  503 -0.00000000000E+00 -0.00000000000E+00 -0.11006152634E+03  0.11006152634E+03  0.00000000000E+00 0. -1.
          6    1    1    2  501    0 -0.49808071696E+02 -0.16862497353E+03  0.91652706590E+02  0.26314339120E+03  0.17300000000E+03 0. -1.
         -6    1    1    2    0  502  0.49808071696E+02  0.16862497353E+03  0.60123659203E+03  0.64986896010E+03  0.17300000000E+03 0. -1.
<mgrwt>
<rscale>  2 0.24666622E+03</rscale>
<asrwt>0</asrwt>
<pdfrwt beam="1">  1       21 0.12353089E+00 0.24666622E+03</pdfrwt>
<pdfrwt beam="2">  1       21 0.16932543E-01 0.24666622E+03</pdfrwt>
<totfact> 0.14933986E+04</totfact>
</mgrwt>
</event>
<event>
 4    1  0.1252123E+000  0.1913530E+03  0.7546771E-02  0.1157247E+00
         21   -1    0    0  501  502  0.00000000000E+00  0.00000000000E+00  0.11750722377E+04  0.11750722377E+04  0.00000000000E+00 0.  1.
         21   -1    0    0  502  503 -0.00000000000E+00 -0.00000000000E+00 -0.34592369499E+02  0.34592369499E+02  0.00000000000E+00 0.  1.
          6    1    1    2  501    0 -0.22795116921E+02 -0.78532492994E+02  0.76074351023E+03  0.78444034711E+03  0.17300000000E+03 0.  1.
         -6    1    1    2    0  503  0.22795116921E+02  0.78532492994E+02  0.37973635802E+03  0.42522426014E+03  0.17300000000E+03 0.  1.
<mgrwt>
<rscale>  2 0.19135300E+03</rscale>
<asrwt>0</asrwt>
<pdfrwt beam="1">  1       21 0.18078031E+00 0.19135300E+03</pdfrwt>
<pdfrwt beam="2">  1       21 0.53219039E-02 0.19135300E+03</pdfrwt>
<totfact> 0.43526989E+04</totfact>
</mgrwt>
</event>
<event>
 4    1  0.1252123E+000  0.2997393E+03  0.7546771E-02  0.1085371E+00
         21   -1    0    0  503  502  0.00000000000E+00  0.00000000000E+00  0.55453797686E+03  0.55453797686E+03  0.00000000000E+00 0. -1.
         21   -1    0    0  501  503 -0.00000000000E+00 -0.00000000000E+00 -0.22017902823E+03  0.22017902823E+03  0.00000000000E+00 0. -1.
          6    1    1    2  501    0 -0.19924250810E+03  0.14218683321E+03 -0.31911235296E+02  0.30143324221E+03  0.17300000000E+03 0. -1.
         -6    1    1    2    0  502  0.19924250810E+03 -0.14218683321E+03  0.36627018392E+03  0.47328376288E+03  0.17300000000E+03 0. -1.
<mgrwt>
<rscale>  2 0.29973934E+03</rscale>
<asrwt>0</asrwt>
<pdfrwt beam="1">  1       21 0.85313534E-01 0.29973934E+03</pdfrwt>
<pdfrwt beam="2">  1       21 0.33873697E-01 0.29973934E+03</pdfrwt>
<totfact> 0.93803683E+03</totfact>
</mgrwt>
</event>
<event>
 4    1  0.1252123E+000  0.1984695E+03  0.7546771E-02  0.1151037E+00
         21   -1    0    0  501  502  0.00000000000E+00  0.00000000000E+00  0.11042948523E+04  0.11042948523E+04  0.00000000000E+00 0. -1.
         21   -1    0    0  502  503 -0.00000000000E+00 -0.00000000000E+00 -0.39047192396E+02  0.39047192396E+02  0.00000000000E+00 0. -1.
          6    1    1    2  501    0 -0.93711126438E+02  0.26064444499E+02  0.36449853128E+03  0.41502928787E+03  0.17300000000E+03 0. -1.
         -6    1    1    2    0  503  0.93711126438E+02 -0.26064444499E+02  0.70074912858E+03  0.72831275678E+03  0.17300000000E+03 0. -1.
<mgrwt>
<rscale>  2 0.19846947E+03</rscale>
<asrwt>0</asrwt>
<pdfrwt beam="1">  1       21 0.16989149E+00 0.19846947E+03</pdfrwt>
<pdfrwt beam="2">  1       21 0.60072612E-02 0.19846947E+03</pdfrwt>
<totfact> 0.41909166E+04</totfact>
</mgrwt>
</event>
<event>
 4    1  0.1252123E+000  0.2291255E+03  0.7546771E-02  0.1127257E+00
         21   -1    0    0  501  502  0.00000000000E+00  0.00000000000E+00  0.50913977691E+03  0.50913977691E+03  0.00000000000E+00 0.  1.
         21   -1    0    0  502  503 -0.00000000000E+00 -0.00000000000E+00 -0.11289041732E+03  0.11289041732E+03  0.00000000000E+00 0. -1.
          6    1    1    2  501    0  0.93268129290E+02 -0.11777337583E+03  0.28965884658E+03  0.36932473434E+03  0.17300000000E+03 0.  1.
         -6    1    1    2    0  503 -0.93268129290E+02  0.11777337583E+03  0.10659051301E+03  0.25270545990E+03  0.17300000000E+03 0. -1.
<mgrwt>
<rscale>  2 0.22912554E+03</rscale>
<asrwt>0</asrwt>
<pdfrwt beam="1">  1       21 0.78329195E-01 0.22912554E+03</pdfrwt>
<pdfrwt beam="2">  1       21 0.17367757E-01 0.22912554E+03</pdfrwt>
<totfact> 0.42488151E+04</totfact>
</mgrwt>
</event>
<event>
 4    1  0.1252123E+000  0.1858946E+03  0.7546771E-02  0.1162217E+00
         21   -1    0    0  503  502  0.00000000000E+00  0.00000000000E+00  0.12973757584E+03  0.12973757584E+03  0.00000000000E+00 0. -1.
         21   -1    0    0  501  503 -0.00000000000E+00 -0.00000000000E+00 -0.35699899063E+03  0.35699899063E+03  0.00000000000E+00 0. -1.
          6    1    1    2  501    0 -0.67475266550E+02 -0.86539855074E+01 -0.23625875609E+03  0.30062435512E+03  0.17300000000E+03 0. -1.
         -6    1    1    2    0  502  0.67475266550E+02  0.86539855074E+01  0.89973413011E+01  0.18611221134E+03  0.17300000000E+03 0. -1.
<mgrwt>
<rscale>  2 0.18589460E+03</rscale>
<asrwt>0</asrwt>
<pdfrwt beam="1">  1       21 0.19959627E-01 0.18589460E+03</pdfrwt>
<pdfrwt beam="2">  1       21 0.54922921E-01 0.18589460E+03</pdfrwt>
<totfact> 0.72693542E+04</totfact>
</mgrwt>
</event>
<event>
 4    1  0.1252123E+000  0.1842338E+03  0.7546771E-02  0.1163767E+00
         21   -1    0    0  501  502  0.00000000000E+00  0.00000000000E+00  0.20690292255E+03  0.20690292255E+03  0.00000000000E+00 0. -1.
         21   -1    0    0  502  503 -0.00000000000E+00 -0.00000000000E+00 -0.17208294433E+03  0.17208294433E+03  0.00000000000E+00 0. -1.
          6    1    1    2  501    0  0.50827475042E+02  0.37810965487E+02  0.58355254880E+02  0.19325485014E+03  0.17300000000E+03 0.  1.
         -6    1    1    2    0  503 -0.50827475042E+02 -0.37810965487E+02 -0.23535276665E+02  0.18573101674E+03  0.17300000000E+03 0.  1.
<mgrwt>
<rscale>  2 0.18423382E+03</rscale>
<asrwt>0</asrwt>
<pdfrwt beam="1">  1       21 0.31831219E-01 0.18423382E+03</pdfrwt>
<pdfrwt beam="2">  1       21 0.26474299E-01 0.18423382E+03</pdfrwt>
<totfact> 0.12917841E+05</totfact>
</mgrwt>
</event>
<event>
 4    1  0.1252123E+000  0.2030052E+03  0.7546771E-02  0.1147228E+00
         21   -1    0    0  503  502  0.00000000000E+00  0.00000000000E+00  0.95996769946E+02  0.95996769946E+02  0.00000000000E+00 0.  1.
         21   -1    0    0  501  503 -0.00000000000E+00 -0.00000000000E+00 -0.47410873048E+03  0.47410873048E+03  0.00000000000E+00 0.  1.
          6    1    1    2  501    0  0.96343118357E+02 -0.44722685898E+02 -0.27669199800E+03  0.34317572298E+03  0.17300000000E+03 0.  1.
         -6    1    1    2    0  502 -0.96343118357E+02  0.44722685898E+02 -0.10141996253E+03  0.22692977744E+03  0.17300000000E+03 0.  1.
<mgrwt>
<rscale>  2 0.20300521E+03</rscale>
<asrwt>0</asrwt>
<pdfrwt beam="1">  1       21 0.14768734E-01 0.20300521E+03</pdfrwt>
<pdfrwt beam="2">  1       21 0.72939804E-01 0.20300521E+03</pdfrwt>
<totfact> 0.67940032E+04</totfact>
</mgrwt>
</event>
<event>
 4    1  0.1252123E+000  0.1736929E+03  0.7546771E-02  0.1174051E+00
         21   -1    0    0  501  502  0.00000000000E+00  0.00000000000E+00  0.14005725988E+02  0.14005725988E+02  0.00000000000E+00 0.  1.
         21   -1    0    0  502  503 -0.00000000000E+00 -0.00000000000E+00 -0.23610339292E+04  0.23610339292E+04  0.00000000000E+00 0.  1.
          6    1    1    2  501    0 -0.52540107599E+01  0.14581608004E+02 -0.15251097956E+04  0.15349687673E+04  0.17300000000E+03 0.  1.
         -6    1    1    2    0  503  0.52540107599E+01 -0.14581608004E+02 -0.82191840762E+03  0.84007088790E+03  0.17300000000E+03 0.  1.
<mgrwt>
<rscale>  2 0.17369291E+03</rscale>
<asrwt>0</asrwt>
<pdfrwt beam="1">  1       21 0.21547292E-02 0.17369291E+03</pdfrwt>
<pdfrwt beam="2">  1       21 0.36323564E+00 0.17369291E+03</pdfrwt>
<totfact> 0.16281522E+04</totfact>
</mgrwt>
</event>
<event>
 4    1  0.1252123E+000  0.2356030E+03  0.7546771E-02  0.1122757E+00
         21   -1    0    0  503  502  0.00000000000E+00  0.00000000000E+00  0.79894026991E+03  0.79894026991E+03  0.00000000000E+00 0.  1.
         21   -1    0    0  501  503 -0.00000000000E+00 -0.00000000000E+00 -0.18884628492E+03  0.18884628492E+03  0.00000000000E+00 0. -1.
          6    1    1    2  501    0  0.56774181219E+02 -0.14952071926E+03 -0.87619110348E+02  0.25136798054E+03  0.17300000000E+03 0. -1.
         -6    1    1    2    0  502 -0.56774181219E+02  0.14952071926E+03  0.69771309534E+03  0.73641857429E+03  0.17300000000E+03 0.  1.
<mgrwt>
<rscale>  2 0.23560296E+03</rscale>
<asrwt>0</asrwt>
<pdfrwt beam="1">  1       21 0.12291389E+00 0.23560296E+03</pdfrwt>
<pdfrwt beam="2">  1       21 0.29053275E-01 0.23560296E+03</pdfrwt>
<totfact> 0.54650784E+03</totfact>
</mgrwt>
</event>
<event>
 4    1  0.1252123E+000  0.1770454E+03  0.7546771E-02  0.1170694E+00
         21   -1    0    0  503  502  0.00000000000E+00  0.00000000000E+00  0.36402282684E+03  0.36402282684E+03  0.00000000000E+00 0. -1.
         21   -1    0    0  501  503 -0.00000000000E+00 -0.00000000000E+00 -0.97573477892E+02  0.97573477892E+02  0.00000000000E+00 0. -1.
          6    1    1    2  501    0 -0.15283643338E+02 -0.34387079694E+02  0.54106950868E+02  0.18512866643E+03  0.17300000000E+03 0. -1.
         -6    1    1    2    0  502  0.15283643338E+02  0.34387079694E+02  0.21234239808E+03  0.27646763830E+03  0.17300000000E+03 0. -1.
<mgrwt>
<rscale>  2 0.17704536E+03</rscale>
<asrwt>0</asrwt>
<pdfrwt beam="1">  1       21 0.56003511E-01 0.17704536E+03</pdfrwt>
<pdfrwt beam="2">  1       21 0.15011304E-01 0.17704536E+03</pdfrwt>
<totfact> 0.11826461E+05</totfact>
</mgrwt>
</event>
<event>
 4    1  0.1252123E+000  0.1864406E+03  0.7546771E-02  0.1161711E+00
         21   -1    0    0  501  502  0.00000000000E+00  0.00000000000E+00  0.27611732228E+02  0.27611732228E+02  0.00000000000E+00 0. -1.
         21   -1    0    0  502  503 -0.00000000000E+00 -0.00000000000E+00 -0.12617096562E+04  0.12617096562E+04  0.00000000000E+00 0. -1.
          6    1    1    2  501    0  0.54880583091E+02 -0.42652104496E+02 -0.58656314818E+03  0.61548063107E+03  0.17300000000E+03 0.  1.
         -6    1    1    2    0  503 -0.54880583091E+02  0.42652104496E+02 -0.64753477582E+03  0.67384075739E+03  0.17300000000E+03 0.  1.
<mgrwt>
<rscale>  2 0.18644055E+03</rscale>
<asrwt>0</asrwt>
<pdfrwt beam="1">  1       21 0.42479599E-02 0.18644055E+03</pdfrwt>
<pdfrwt beam="2">  1       21 0.19410913E+00 0.18644055E+03</pdfrwt>
<totfact> 0.52129394E+04</totfact>
</mgrwt>
</event>
<event>
 4    1  0.1252123E+000  0.2345424E+03  0.7546771E-02  0.1123483E+00
         21   -1    0    0  503  502  0.00000000000E+00  0.00000000000E+00  0.27496332580E+03  0.27496332580E+03  0.00000000000E+00 0.  1.
         21   -1    0    0  501  503 -0.00000000000E+00 -0.00000000000E+00 -0.24816408328E+03  0.24816408328E+03  0.00000000000E+00 0.  1.
          6    1    1    2  501    0  0.15835176935E+03  0.24160277589E+01 -0.10175550467E+03  0.25566443393E+03  0.17300000000E+03 0.  1.
         -6    1    1    2    0  502 -0.15835176935E+03 -0.24160277589E+01  0.12855474719E+03  0.26746297514E+03  0.17300000000E+03 0.  1.
<mgrwt>
<rscale>  2 0.23454236E+03</rscale>
<asrwt>0</asrwt>
<pdfrwt beam="1">  1       21 0.42302050E-01 0.23454236E+03</pdfrwt>
<pdfrwt beam="2">  1       21 0.38179090E-01 0.23454236E+03</pdfrwt>
<totfact> 0.34837837E+04</totfact>
</mgrwt>
</event>
<event>
 4    1  0.1252123E+000  0.2081473E+03  0.7546771E-02  0.1143042E+00
         21   -1    0    0  503  502  0.00000000000E+00  0.00000000000E+00  0.12053740730E+04  0.12053740730E+04  0.00000000000E+00 0.  1.
         21   -1    0    0  501  503 -0.00000000000E+00 -0.00000000000E+00 -0.56569385298E+02  0.56569385298E+02  0.00000000000E+00 0.  1.
          6    1    1    2  501    0 -0.88805312097E+02 -0.74228936210E+02  0.19340156840E+03  0.28412934570E+03  0.17300000000E+03 0.  1.
         -6    1    1    2    0  502  0.88805312097E+02  0.74228936210E+02  0.95540311935E+03  0.97781411265E+03  0.17300000000E+03 0.  1.
<mgrwt>
<rscale>  2 0.20814735E+03</rscale>
<asrwt>0</asrwt>
<pdfrwt beam="1">  1       21 0.18544215E+00 0.20814735E+03</pdfrwt>
<pdfrwt beam="2">  1       21 0.87029832E-02 0.20814735E+03</pdfrwt>
<totfact> 0.17125537E+04</totfact>
</mgrwt>
</event>
<event>
 4    1  0.1252123E+000  0.2527933E+03  0.7546771E-02  0.1111552E+00
         21   -1    0    0  503  502  0.00000000000E+00  0.00000000000E+00  0.26009582790E+04  0.26009582790E+04  0.00000000000E+00 0.  1.
         21   -1    0    0  501  503 -0.00000000000E+00 -0.00000000000E+00 -0.25341371227E+02  0.25341371227E+02  0.00000000000E+00 0.  1.
          6    1    1    2  501    0 -0.17305745950E+03 -0.63455381810E+02  0.15169729195E+04  0.15378918389E+04  0.17300000000E+03 0.  1.
         -6    1    1    2    0  502  0.17305745950E+03  0.63455381810E+02  0.10586439883E+04  0.10884078113E+04  0.17300000000E+03 0.  1.
<mgrwt>
<rscale>  2 0.25279333E+03</rscale>
<asrwt>0</asrwt>
<pdfrwt beam="1">  1       21 0.40014722E+00 0.25279333E+03</pdfrwt>
<pdfrwt beam="2">  1       21 0.38986746E-02 0.25279333E+03</pdfrwt>
<totfact> 0.33041916E+03</totfact>
</mgrwt>
</event>
<event>
 4    1  0.1252123E+000  0.2052104E+03  0.7546771E-02  0.1145416E+00
         21   -1    0    0  503  502  0.00000000000E+00  0.00000000000E+00  0.18238807921E+03  0.18238807921E+03  0.00000000000E+00 0. -1.
         21   -1    0    0  501  503 -0.00000000000E+00 -0.00000000000E+00 -0.23118861842E+03  0.23118861842E+03  0.00000000000E+00 0. -1.
          6    1    1    2  501    0  0.11037652227E+02 -0.10982012731E+03 -0.31852187845E+02  0.20766764794E+03  0.17300000000E+03 0. -1.
         -6    1    1    2    0  502 -0.11037652227E+02  0.10982012731E+03 -0.16948351367E+02  0.20590904969E+03  0.17300000000E+03 0. -1.
<mgrwt>
<rscale>  2 0.20521036E+03</rscale>
<asrwt>0</asrwt>
<pdfrwt beam="1">  1       21 0.28059705E-01 0.20521036E+03</pdfrwt>
<pdfrwt beam="2">  1       21 0.35567480E-01 0.20521036E+03</pdfrwt>
<totfact> 0.92002428E+04</totfact>
</mgrwt>
</event>
<event>
 4    1  0.1252123E+000  0.2756386E+03  0.7546771E-02  0.1098095E+00
         21   -1    0    0  501  502  0.00000000000E+00  0.00000000000E+00  0.27848419170E+03  0.27848419170E+03  0.00000000000E+00 0.  1.
         21   -1    0    0  502  503 -0.00000000000E+00 -0.00000000000E+00 -0.32526304290E+03  0.32526304290E+03  0.00000000000E+00 0.  1.
          6    1    1    2  501    0 -0.93998486293E+02  0.19290391591E+03 -0.14460073163E+03  0.31126517278E+03  0.17300000000E+03 0.  1.
         -6    1    1    2    0  503  0.93998486293E+02 -0.19290391591E+03  0.97821880430E+02  0.29248206182E+03  0.17300000000E+03 0.  1.
<mgrwt>
<rscale>  2 0.27563860E+03</rscale>
<asrwt>0</asrwt>
<pdfrwt beam="1">  1       21 0.42843722E-01 0.27563860E+03</pdfrwt>
<pdfrwt beam="2">  1       21 0.50040468E-01 0.27563860E+03</pdfrwt>
<totfact> 0.19087022E+04</totfact>
</mgrwt>
</event>
<event>
 4    1  0.1252123E+000  0.1843336E+03  0.7546771E-02  0.1163674E+00
         21   -1    0    0  501  502  0.00000000000E+00  0.00000000000E+00  0.13310518197E+03  0.13310518197E+03  0.00000000000E+00 0.  1.
         21   -1    0    0  502  503 -0.00000000000E+00 -0.00000000000E+00 -0.42464119004E+03  0.42464119004E+03  0.00000000000E+00 0.  1.
          6    1    1    2  501    0  0.40911555068E+02 -0.48745611294E+02  0.30350335680E+02  0.18681550480E+03  0.17300000000E+03 0.  1.
         -6    1    1    2    0  503 -0.40911555068E+02  0.48745611294E+02 -0.32188634374E+03  0.37093086721E+03  0.17300000000E+03 0.  1.
<mgrwt>
<rscale>  2 0.18433364E+03</rscale>
<asrwt>0</asrwt>
<pdfrwt beam="1">  1       21 0.20477720E-01 0.18433364E+03</pdfrwt>
<pdfrwt beam="2">  1       21 0.65329414E-01 0.18433364E+03</pdfrwt>
<totfact> 0.47800373E+04</totfact>
</mgrwt>
</event>
<event>
 4    1  0.1252123E+000  0.2365093E+03  0.7546771E-02  0.1122140E+00
         21   -1    0    0  501  502  0.00000000000E+00  0.00000000000E+00  0.22755630055E+03  0.22755630055E+03  0.00000000000E+00 0. -1.
         21   -1    0    0  502  503 -0.00000000000E+00 -0.00000000000E+00 -0.24607329901E+03  0.24607329901E+03  0.00000000000E+00 0.  1.
          6    1    1    2  501    0 -0.13929560796E+03 -0.81267299596E+02 -0.16938301101E+02  0.23711504892E+03  0.17300000000E+03 0.  1.
         -6    1    1    2    0  503  0.13929560796E+03  0.81267299596E+02 -0.15786973579E+01  0.23651455064E+03  0.17300000000E+03 0.  1.
<mgrwt>
<rscale>  2 0.23650928E+03</rscale>
<asrwt>0</asrwt>
<pdfrwt beam="1">  1       21 0.35008662E-01 0.23650928E+03</pdfrwt>
<pdfrwt beam="2">  1       21 0.37857430E-01 0.23650928E+03</pdfrwt>
<totfact> 0.51888254E+04</totfact>
</mgrwt>
</event>
<event>
 4    1  0.1252123E+000  0.1814017E+03  0.7546771E-02  0.1166453E+00
         21   -1    0    0  503  502  0.00000000000E+00  0.00000000000E+00  0.16590413461E+03  0.16590413461E+03  0.00000000000E+00 0.  1.
         21   -1    0    0  501  503 -0.00000000000E+00 -0.00000000000E+00 -0.21926516499E+03  0.21926516499E+03  0.00000000000E+00 0.  1.
          6    1    1    2  501    0  0.26536917717E+02 -0.47679889363E+02 -0.86164370947E+02  0.20082549308E+03  0.17300000000E+03 0. -1.
         -6    1    1    2    0  502 -0.26536917717E+02  0.47679889363E+02  0.32803340568E+02  0.18434380652E+03  0.17300000000E+03 0. -1.
<mgrwt>
<rscale>  2 0.18140171E+03</rscale>
<asrwt>0</asrwt>
<pdfrwt beam="1">  1       21 0.25523713E-01 0.18140171E+03</pdfrwt>
<pdfrwt beam="2">  1       21 0.33733102E-01 0.18140171E+03</pdfrwt>
<totfact> 0.12372381E+05</totfact>
</mgrwt>
</event>
<event>
 4    1  0.1252123E+000  0.1867772E+03  0.7546771E-02  0.1161401E+00
         21   -1    0    0  503  502  0.00000000000E+00  0.00000000000E+00  0.15246678465E+03  0.15246678465E+03  0.00000000000E+00 0. -1.
         21   -1    0    0  501  503 -0.00000000000E+00 -0.00000000000E+00 -0.24987778634E+03  0.24987778634E+03  0.00000000000E+00 0.  1.
          6    1    1    2  501    0  0.57992291495E+02  0.39920039074E+02 -0.10712098046E+03  0.21531516400E+03  0.17300000000E+03 0. -1.
         -6    1    1    2    0  502 -0.57992291495E+02 -0.39920039074E+02  0.97099787781E+01  0.18702940699E+03  0.17300000000E+03 0. -1.
<mgrwt>
<rscale>  2 0.18677718E+03</rscale>
<asrwt>0</asrwt>
<pdfrwt beam="1">  1       21 0.23456429E-01 0.18677718E+03</pdfrwt>
<pdfrwt beam="2">  1       21 0.38442736E-01 0.18677718E+03</pdfrwt>
<totfact> 0.11181423E+05</totfact>
</mgrwt>
</event>
<event>
 4    1  0.1252123E+000  0.1787401E+03  0.7546771E-02  0.1169028E+00
         21   -1    0    0  503  502  0.00000000000E+00  0.00000000000E+00  0.41319787529E+03  0.41319787529E+03  0.00000000000E+00 0.  1.
         21   -1    0    0  501  503 -0.00000000000E+00 -0.00000000000E+00 -0.78609249254E+02  0.78609249254E+02  0.00000000000E+00 0. -1.
          6    1    1    2  501    0  0.44117964411E+02 -0.85228810162E+01  0.19879860961E+03  0.26733671927E+03  0.17300000000E+03 0.  1.
         -6    1    1    2    0  502 -0.44117964411E+02  0.85228810162E+01  0.13579001643E+03  0.22447040528E+03  0.17300000000E+03 0. -1.
<mgrwt>
<rscale>  2 0.17874013E+03</rscale>
<asrwt>0</asrwt>
<pdfrwt beam="1">  1       21 0.63568903E-01 0.17874013E+03</pdfrwt>
<pdfrwt beam="2">  1       21 0.12093731E-01 0.17874013E+03</pdfrwt>
<totfact> 0.13302104E+05</totfact>
</mgrwt>
</event>
<event>
 4    1  0.1252123E+000  0.1789481E+03  0.7546771E-02  0.1168825E+00
         21   -1    0    0  503  502  0.00000000000E+00  0.00000000000E+00  0.14847938282E+03  0.14847938282E+03  0.00000000000E+00 0. -1.
         21   -1    0    0  501  503 -0.00000000000E+00 -0.00000000000E+00 -0.34995405047E+03  0.34995405047E+03  0.00000000000E+00 0. -1.
          6    1    1    2  501    0  0.39930302485E+02 -0.22337766826E+02 -0.25511534372E+03  0.31161874700E+03  0.17300000000E+03 0. -1.
         -6    1    1    2    0  502 -0.39930302485E+02  0.22337766826E+02  0.53640676068E+02  0.18681468629E+03  0.17300000000E+03 0. -1.
<mgrwt>
<rscale>  2 0.17894805E+03</rscale>
<asrwt>0</asrwt>
<pdfrwt beam="1">  1       21 0.22842982E-01 0.17894805E+03</pdfrwt>
<pdfrwt beam="2">  1       21 0.53839084E-01 0.17894805E+03</pdfrwt>
<totfact> 0.59031560E+04</totfact>
</mgrwt>
</event>
<event>
 4    1  0.1252123E+000  0.2205807E+03  0.7546771E-02  0.1133451E+00
         21   -1    0    0  501  502  0.00000000000E+00  0.00000000000E+00  0.94879224038E+02  0.94879224038E+02  0.00000000000E+00 0. -1.
         21   -1    0    0  502  503 -0.00000000000E+00 -0.00000000000E+00 -0.63559506058E+03  0.63559506058E+03  0.00000000000E+00 0.  1.
          6    1    1    2  501    0 -0.13144257948E+03 -0.38075115129E+02 -0.10983332548E+03  0.24641271371E+03  0.17300000000E+03 0. -1.
         -6    1    1    2    0  503  0.13144257948E+03  0.38075115129E+02 -0.43088251106E+03  0.48406157091E+03  0.17300000000E+03 0.  1.
<mgrwt>
<rscale>  2 0.22058075E+03</rscale>
<asrwt>0</asrwt>
<pdfrwt beam="1">  1       21 0.14596804E-01 0.22058075E+03</pdfrwt>
<pdfrwt beam="2">  1       21 0.97783856E-01 0.22058075E+03</pdfrwt>
<totfact> 0.35151089E+04</totfact>
</mgrwt>
</event>
<event>
 4    1  0.1252123E+000  0.1997159E+03  0.7546771E-02  0.1149979E+00
         21   -1    0    0  503  502  0.00000000000E+00  0.00000000000E+00  0.23274445872E+03  0.23274445872E+03  0.00000000000E+00 0.  1.
         21   -1    0    0  501  503 -0.00000000000E+00 -0.00000000000E+00 -0.18181121842E+03  0.18181121842E+03  0.00000000000E+00 0.  1.
          6    1    1    2  501    0  0.53028854635E+02  0.84530273574E+02 -0.24195810595E+02  0.20117620094E+03  0.17300000000E+03 0.  1.
         -6    1    1    2    0  502 -0.53028854635E+02 -0.84530273574E+02  0.75129050897E+02  0.21337947620E+03  0.17300000000E+03 0.  1.
<mgrwt>
<rscale>  2 0.19971586E+03</rscale>
<asrwt>0</asrwt>
<pdfrwt beam="1">  1       21 0.35806840E-01 0.19971586E+03</pdfrwt>
<pdfrwt beam="2">  1       21 0.27970957E-01 0.19971586E+03</pdfrwt>
<totfact> 0.91547257E+04</totfact>
</mgrwt>
</event>
<event>
 4    1  0.1252123E+000  0.1942542E+03  0.7546771E-02  0.1154679E+00
         21   -1    0    0  503  502  0.00000000000E+00  0.00000000000E+00  0.17680243369E+03  0.17680243369E+03  0.00000000000E+00 0. -1.
         21   -1    0    0  501  503 -0.00000000000E+00 -0.00000000000E+00 -0.21590250077E+03  0.21590250077E+03  0.00000000000E+00 0. -1.
          6    1    1    2  501    0 -0.57066784354E+02  0.67446900591E+02 -0.40568232501E+02  0.19844516564E+03  0.17300000000E+03 0. -1.
         -6    1    1    2    0  502  0.57066784354E+02 -0.67446900591E+02  0.14681654206E+01  0.19425976883E+03  0.17300000000E+03 0. -1.
<mgrwt>
<rscale>  2 0.19425422E+03</rscale>
<asrwt>0</asrwt>
<pdfrwt beam="1">  1       21 0.27200375E-01 0.19425422E+03</pdfrwt>
<pdfrwt beam="2">  1       21 0.33215769E-01 0.19425422E+03</pdfrwt>
<totfact> 0.11238981E+05</totfact>
</mgrwt>
</event>
<event>
 4    1  0.1252123E+000  0.1795193E+03  0.7546771E-02  0.1168269E+00
         21   -1    0    0  503  502  0.00000000000E+00  0.00000000000E+00  0.66947445089E+03  0.66947445089E+03  0.00000000000E+00 0. -1.
         21   -1    0    0  501  503 -0.00000000000E+00 -0.00000000000E+00 -0.70063819615E+02  0.70063819615E+02  0.00000000000E+00 0. -1.
          6    1    1    2  501    0  0.52056124007E+01  0.47655785394E+02  0.92852467031E+02  0.20211074419E+03  0.17300000000E+03 0. -1.
         -6    1    1    2    0  502 -0.52056124007E+01 -0.47655785394E+02  0.50655816424E+03  0.53742752632E+03  0.17300000000E+03 0. -1.
<mgrwt>
<rscale>  2 0.17951928E+03</rscale>
<asrwt>0</asrwt>
<pdfrwt beam="1">  1       21 0.10299607E+00 0.17951928E+03</pdfrwt>
<pdfrwt beam="2">  1       21 0.10779050E-01 0.17951928E+03</pdfrwt>
<totfact> 0.54714995E+04</totfact>
</mgrwt>
</event>
<event>
 4    1  0.1252123E+000  0.1916132E+03  0.7546771E-02  0.1157014E+00
         21   -1    0    0  503  502  0.00000000000E+00  0.00000000000E+00  0.76493230255E+02  0.76493230255E+02  0.00000000000E+00 0.  1.
         21   -1    0    0  501  503 -0.00000000000E+00 -0.00000000000E+00 -0.48106795469E+03  0.48106795469E+03  0.00000000000E+00 0.  1.
          6    1    1    2  501    0 -0.71589276607E+02 -0.40762696962E+02 -0.21551295080E+03  0.28837727711E+03  0.17300000000E+03 0.  1.
         -6    1    1    2    0  502  0.71589276607E+02  0.40762696962E+02 -0.18906177363E+03  0.26918390783E+03  0.17300000000E+03 0.  1.
<mgrwt>
<rscale>  2 0.19161321E+03</rscale>
<asrwt>0</asrwt>
<pdfrwt beam="1">  1       21 0.11768189E-01 0.19161321E+03</pdfrwt>
<pdfrwt beam="2">  1       21 0.74010456E-01 0.19161321E+03</pdfrwt>
<totfact> 0.99559847E+04</totfact>
</mgrwt>
</event>
<event>
 4    1  0.1252123E+000  0.2314947E+03  0.7546771E-02  0.1125592E+00
         21   -1    0    0  503  502  0.00000000000E+00  0.00000000000E+00  0.21577626999E+03  0.21577626999E+03  0.00000000000E+00 0. -1.
         21   -1    0    0  501  503 -0.00000000000E+00 -0.00000000000E+00 -0.28601655443E+03  0.28601655443E+03  0.00000000000E+00 0.  1.
          6    1    1    2  501    0 -0.13620279345E+03  0.71481576948E+02 -0.12615951296E+03  0.26363998084E+03  0.17300000000E+03 0.  1.
         -6    1    1    2    0  502  0.13620279345E+03 -0.71481576948E+02  0.55919228524E+02  0.23815284358E+03  0.17300000000E+03 0. -1.
<mgrwt>
<rscale>  2 0.23149474E+03</rscale>
<asrwt>0</asrwt>
<pdfrwt beam="1">  1       21 0.33196349E-01 0.23149474E+03</pdfrwt>
<pdfrwt beam="2">  1       21 0.44002547E-01 0.23149474E+03</pdfrwt>
<totfact> 0.42550920E+04</totfact>
</mgrwt>
</event>
<event>
 4    1  0.1252123E+000  0.1740006E+03  0.7546771E-02  0.1173739E+00
         21   -1    0    0  501  502  0.00000000000E+00  0.00000000000E+00  0.13539685612E+03  0.13539685612E+03  0.00000000000E+00 0. -1.
         21   -1    0    0  502  503 -0.00000000000E+00 -0.00000000000E+00 -0.27553178078E+03  0.27553178078E+03  0.00000000000E+00 0. -1.
          6    1    1    2  501    0 -0.17901733741E+02  0.51696753559E+01  0.19123748277E+02  0.17504832294E+03  0.17300000000E+03 0. -1.
         -6    1    1    2    0  503  0.17901733741E+02 -0.51696753559E+01 -0.15925867293E+03  0.23588031397E+03  0.17300000000E+03 0. -1.
<mgrwt>
<rscale>  2 0.17400057E+03</rscale>
<asrwt>0</asrwt>
<pdfrwt beam="1">  1       21 0.20830286E-01 0.17400057E+03</pdfrwt>
<pdfrwt beam="2">  1       21 0.42389504E-01 0.17400057E+03</pdfrwt>
<totfact> 0.11531875E+05</totfact>
</mgrwt>
</event>
<event>
 4    1  0.1252123E+000  0.1938644E+03  0.7546771E-02  0.1155021E+00
         21   -1    0    0  503  502  0.00000000000E+00  0.00000000000E+00  0.10536017931E+03  0.10536017931E+03  0.00000000000E+00 0. -1.
         21   -1    0    0  501  503 -0.00000000000E+00 -0.00000000000E+00 -0.43373114325E+03  0.43373114325E+03  0.00000000000E+00 0. -1.
          6    1    1    2  501    0  0.81948518170E+02  0.30640649192E+02 -0.27776940606E+03  0.33873182897E+03  0.17300000000E+03 0. -1.
         -6    1    1    2    0  502 -0.81948518170E+02 -0.30640649192E+02 -0.50601557869E+02  0.20035949359E+03  0.17300000000E+03 0. -1.
<mgrwt>
<rscale>  2 0.19386441E+03</rscale>
<asrwt>0</asrwt>
<pdfrwt beam="1">  1       21 0.16209258E-01 0.19386441E+03</pdfrwt>
<pdfrwt beam="2">  1       21 0.66727869E-01 0.19386441E+03</pdfrwt>
<totfact> 0.70046135E+04</totfact>
</mgrwt>
</event>
<event>
 4    1  0.1252123E+000  0.3318613E+03  0.7546771E-02  0.1070316E+00
         21   -1    0    0  503  502  0.00000000000E+00  0.00000000000E+00  0.39690121528E+04  0.39690121528E+04  0.00000000000E+00 0.  1.
         21   -1    0    0  501  503 -0.00000000000E+00 -0.00000000000E+00 -0.38458972760E+02  0.38458972760E+02  0.00000000000E+00 0. -1.
          6    1    1    2  501    0  0.14140489979E+03 -0.24537228374E+03  0.90783282786E+03  0.96658799220E+03  0.17300000000E+03 0. -1.
         -6    1    1    2    0  502 -0.14140489979E+03  0.24537228374E+03  0.30227203522E+04  0.30408831334E+04  0.17300000000E+03 0.  1.
<mgrwt>
<rscale>  2 0.33186127E+03</rscale>
<asrwt>0</asrwt>
<pdfrwt beam="1">  1       21 0.61061693E+00 0.33186127E+03</pdfrwt>
<pdfrwt beam="2">  1       21 0.59167682E-02 0.33186127E+03</pdfrwt>
<totfact> 0.47256636E+01</totfact>
</mgrwt>
</event>
<event>
 4    1  0.1252123E+000  0.1734446E+03  0.7546771E-02  0.1174303E+00
         21   -1    0    0  501  502  0.00000000000E+00  0.00000000000E+00  0.14058936642E+02  0.14058936642E+02  0.00000000000E+00 0. -1.
         21   -1    0    0  502  503 -0.00000000000E+00 -0.00000000000E+00 -0.23744664738E+04  0.23744664738E+04  0.00000000000E+00 0. -1.
          6    1    1    2  501    0  0.84378804107E+01  0.91004357164E+01 -0.15556622436E+04  0.15653012592E+04  0.17300000000E+03 0. -1.
         -6    1    1    2    0  503 -0.84378804107E+01 -0.91004357164E+01 -0.80474529359E+03  0.82322415132E+03  0.17300000000E+03 0. -1.
<mgrwt>
<rscale>  2 0.17344456E+03</rscale>
<asrwt>0</asrwt>
<pdfrwt beam="1">  1       21 0.21629138E-02 0.17344456E+03</pdfrwt>
<pdfrwt beam="2">  1       21 0.36530245E+00 0.17344456E+03</pdfrwt>
<totfact> 0.15734566E+04</totfact>
</mgrwt>
</event>
<event>
 4    1  0.1252123E+000  0.2343808E+03  0.7546771E-02  0.1123594E+00
         21   -1    0    0  503  502  0.00000000000E+00  0.00000000000E+00  0.11447856088E+04  0.11447856088E+04  0.00000000000E+00 0. -1.
         21   -1    0    0  501  503 -0.00000000000E+00 -0.00000000000E+00 -0.60170603162E+02  0.60170603162E+02  0.00000000000E+00 0.  1.
          6    1    1    2  501    0  0.15460378575E+03 -0.33211624032E+02  0.27119814904E+03  0.35844494498E+03  0.17300000000E+03 0.  1.
         -6    1    1    2    0  502 -0.15460378575E+03  0.33211624032E+02  0.81341685663E+03  0.84651126702E+03  0.17300000000E+03 0. -1.
<mgrwt>
<rscale>  2 0.23438076E+03</rscale>
<asrwt>0</asrwt>
<pdfrwt beam="1">  1       21 0.17612085E+00 0.23438076E+03</pdfrwt>
<pdfrwt beam="2">  1       21 0.92570167E-02 0.23438076E+03</pdfrwt>
<totfact> 0.17476508E+04</totfact>
</mgrwt>
</event>
<event>
 4    1  0.1252123E+000  0.3137037E+03  0.7546771E-02  0.1078584E+00
         21   -1    0    0  503  502  0.00000000000E+00  0.00000000000E+00  0.18609641627E+03  0.18609641627E+03  0.00000000000E+00 0. -1.
         21   -1    0    0  501  503 -0.00000000000E+00 -0.00000000000E+00 -0.76788003261E+03  0.76788003261E+03  0.00000000000E+00 0.  1.
          6    1    1    2  501    0  0.86396133348E+02  0.24701567198E+03 -0.55703885160E+03  0.63929829990E+03  0.17300000000E+03 0.  1.
         -6    1    1    2    0  502 -0.86396133348E+02 -0.24701567198E+03 -0.24744764741E+02  0.31467814898E+03  0.17300000000E+03 0. -1.
<mgrwt>
<rscale>  2 0.31370374E+03</rscale>
<asrwt>0</asrwt>
<pdfrwt beam="1">  1       21 0.28630217E-01 0.31370374E+03</pdfrwt>
<pdfrwt beam="2">  1       21 0.11813539E+00 0.31370374E+03</pdfrwt>
<totfact> 0.59420173E+03</totfact>
</mgrwt>
</event>
<event>
 4    1  0.1252123E+000  0.1809540E+03  0.7546771E-02  0.1166883E+00
         21   -1    0    0  503  502  0.00000000000E+00  0.00000000000E+00  0.10994422742E+03  0.10994422742E+03  0.00000000000E+00 0.  1.
         21   -1    0    0  501  503 -0.00000000000E+00 -0.00000000000E+00 -0.31204455737E+03  0.31204455737E+03  0.00000000000E+00 0. -1.
          6    1    1    2  501    0  0.52656038727E+02  0.65325231744E+01 -0.56012188151E+02  0.18942464859E+03  0.17300000000E+03 0.  1.
         -6    1    1    2    0  502 -0.52656038727E+02 -0.65325231744E+01 -0.14608814180E+03  0.23256413620E+03  0.17300000000E+03 0. -1.
<mgrwt>
<rscale>  2 0.18095395E+03</rscale>
<asrwt>0</asrwt>
<pdfrwt beam="1">  1       21 0.16914497E-01 0.18095395E+03</pdfrwt>
<pdfrwt beam="2">  1       21 0.48006854E-01 0.18095395E+03</pdfrwt>
<totfact> 0.13109295E+05</totfact>
</mgrwt>
</event>
<event>
 4    1  0.1252123E+000  0.1741839E+03  0.7546771E-02  0.1173554E+00
         21   -1    0    0  501  502  0.00000000000E+00  0.00000000000E+00  0.74761973528E+02  0.74761973528E+02  0.00000000000E+00 0. -1.
         21   -1    0    0  502  503 -0.00000000000E+00 -0.00000000000E+00 -0.63725155017E+03  0.63725155017E+03  0.00000000000E+00 0. -1.
          6    1    1    2  501    0 -0.18576811190E+02 -0.81205926243E+01 -0.66702776510E+02  0.18651890610E+03  0.17300000000E+03 0. -1.
         -6    1    1    2    0  503  0.18576811190E+02  0.81205926243E+01 -0.49578680014E+03  0.52549461760E+03  0.17300000000E+03 0. -1.
<mgrwt>
<rscale>  2 0.17418393E+03</rscale>
<asrwt>0</asrwt>
<pdfrwt beam="1">  1       21 0.11501843E-01 0.17418393E+03</pdfrwt>
<pdfrwt beam="2">  1       21 0.98038694E-01 0.17418393E+03</pdfrwt>
<totfact> 0.54953078E+04</totfact>
</mgrwt>
</event>
<event>
 4    1  0.1252123E+000  0.2015972E+03  0.7546771E-02  0.1148398E+00
         21   -1    0    0  503  502  0.00000000000E+00  0.00000000000E+00  0.22442964639E+03  0.22442964639E+03  0.00000000000E+00 0. -1.
         21   -1    0    0  501  503 -0.00000000000E+00 -0.00000000000E+00 -0.20958935776E+03  0.20958935776E+03  0.00000000000E+00 0. -1.
          6    1    1    2  501    0 -0.47618336688E+02  0.91896170043E+02  0.87446019753E+02  0.21974580412E+03  0.17300000000E+03 0. -1.
         -6    1    1    2    0  502  0.47618336688E+02 -0.91896170043E+02 -0.72605731130E+02  0.21427320003E+03  0.17300000000E+03 0. -1.
<mgrwt>
<rscale>  2 0.20159715E+03</rscale>
<asrwt>0</asrwt>
<pdfrwt beam="1">  1       21 0.34527638E-01 0.20159715E+03</pdfrwt>
<pdfrwt beam="2">  1       21 0.32244517E-01 0.20159715E+03</pdfrwt>
<totfact> 0.74510405E+04</totfact>
</mgrwt>
</event>
<event>
 4    1  0.1252123E+000  0.1867284E+03  0.7546771E-02  0.1161446E+00
         21   -1    0    0  503  502  0.00000000000E+00  0.00000000000E+00  0.33076041047E+03  0.33076041047E+03  0.00000000000E+00 0.  1.
         21   -1    0    0  501  503 -0.00000000000E+00 -0.00000000000E+00 -0.23424971637E+03  0.23424971637E+03  0.00000000000E+00 0.  1.
          6    1    1    2  501    0 -0.70237934168E+02  0.22619709691E+01 -0.16125295640E+03  0.24671846274E+03  0.17300000000E+03 0.  1.
         -6    1    1    2    0  502  0.70237934168E+02 -0.22619709691E+01  0.25776365051E+03  0.31829166409E+03  0.17300000000E+03 0.  1.
<mgrwt>
<rscale>  2 0.18672837E+03</rscale>
<asrwt>0</asrwt>
<pdfrwt beam="1">  1       21 0.50886217E-01 0.18672837E+03</pdfrwt>
<pdfrwt beam="2">  1       21 0.36038418E-01 0.18672837E+03</pdfrwt>
<totfact> 0.27362004E+04</totfact>
</mgrwt>
</event>
<event>
 4    1  0.1252123E+000  0.1825374E+03  0.7546771E-02  0.1165370E+00
         21   -1    0    0  503  502  0.00000000000E+00  0.00000000000E+00  0.53091413081E+03  0.53091413081E+03  0.00000000000E+00 0. -1.
         21   -1    0    0  501  503 -0.00000000000E+00 -0.00000000000E+00 -0.62994129608E+02  0.62994129608E+02  0.00000000000E+00 0. -1.
          6    1    1    2  501    0 -0.53199291206E+02  0.23679746532E+02  0.25208378498E+03  0.31123323992E+03  0.17300000000E+03 0. -1.
         -6    1    1    2    0  502  0.53199291206E+02 -0.23679746532E+02  0.21583621622E+03  0.28267502050E+03  0.17300000000E+03 0. -1.
<mgrwt>
<rscale>  2 0.18253738E+03</rscale>
<asrwt>0</asrwt>
<pdfrwt beam="1">  1       21 0.81679094E-01 0.18253738E+03</pdfrwt>
<pdfrwt beam="2">  1       21 0.96914049E-02 0.18253738E+03</pdfrwt>
<totfact> 0.11296243E+05</totfact>
</mgrwt>
</event>
<event>
 4    1  0.1252123E+000  0.2082773E+03  0.7546771E-02  0.1142937E+00
         21   -1    0    0  503  502  0.00000000000E+00  0.00000000000E+00  0.13767312569E+03  0.13767312569E+03  0.00000000000E+00 0. -1.
         21   -1    0    0  501  503 -0.00000000000E+00 -0.00000000000E+00 -0.50648044669E+03  0.50648044669E+03  0.00000000000E+00 0. -1.
          6    1    1    2  501    0  0.45674942661E+02 -0.10660318169E+03 -0.38239130943E+03  0.43543375186E+03  0.17300000000E+03 0. -1.
         -6    1    1    2    0  502 -0.45674942661E+02  0.10660318169E+03  0.13583988432E+02  0.20871982052E+03  0.17300000000E+03 0. -1.
<mgrwt>
<rscale>  2 0.20827731E+03</rscale>
<asrwt>0</asrwt>
<pdfrwt beam="1">  1       21 0.21180481E-01 0.20827731E+03</pdfrwt>
<pdfrwt beam="2">  1       21 0.77920067E-01 0.20827731E+03</pdfrwt>
<totfact> 0.29997539E+04</totfact>
</mgrwt>
</event>
<event>
 4    1  0.1252123E+000  0.2209898E+03  0.7546771E-02  0.1133147E+00
         21   -1    0    0  501  502  0.00000000000E+00  0.00000000000E+00  0.73036915093E+03  0.73036915093E+03  0.00000000000E+00 0.  1.
         21   -1    0    0  502  503 -0.00000000000E+00 -0.00000000000E+00 -0.67887404970E+02  0.67887404970E+02  0.00000000000E+00 0.  1.
          6    1    1    2  501    0  0.11619089577E+03 -0.73533500038E+02  0.38021004205E+03  0.43976832078E+03  0.17300000000E+03 0.  1.
         -6    1    1    2    0  503 -0.11619089577E+03  0.73533500038E+02  0.28227170391E+03  0.35848823512E+03  0.17300000000E+03 0.  1.
<mgrwt>
<rscale>  2 0.22098982E+03</rscale>
<asrwt>0</asrwt>
<pdfrwt beam="1">  1       21 0.11236448E+00 0.22098982E+03</pdfrwt>
<pdfrwt beam="2">  1       21 0.10444217E-01 0.22098982E+03</pdfrwt>
<totfact> 0.45929210E+04</totfact>
</mgrwt>
</event>
<event>
 4    1  0.1252123E+000  0.2198825E+03  0.7546771E-02  0.1133971E+00
         21   -1    0    0  503  502  0.00000000000E+00  0.00000000000E+00  0.68091596517E+03  0.68091596517E+03  0.00000000000E+00 0.  1.
         21   -1    0    0  501  503 -0.00000000000E+00 -0.00000000000E+00 -0.71111884633E+02  0.71111884633E+02  0.00000000000E+00 0.  1.
          6    1    1    2  501    0  0.13246867614E+03  0.29518720577E+02  0.29031096883E+03  0.36418232199E+03  0.17300000000E+03 0.  1.
         -6    1    1    2    0  502 -0.13246867614E+03 -0.29518720577E+02  0.31949311170E+03  0.38784552782E+03  0.17300000000E+03 0.  1.
<mgrwt>
<rscale>  2 0.21988248E+03</rscale>
<asrwt>0</asrwt>
<pdfrwt beam="1">  1       21 0.10475630E+00 0.21988248E+03</pdfrwt>
<pdfrwt beam="2">  1       21 0.10940290E-01 0.21988248E+03</pdfrwt>
<totfact> 0.50150254E+04</totfact>
</mgrwt>
</event>
<event>
 4    1  0.1252123E+000  0.1815878E+03  0.7546771E-02  0.1166275E+00
         21   -1    0    0  503  502  0.00000000000E+00  0.00000000000E+00  0.41972780133E+03  0.41972780133E+03  0.00000000000E+00 0.  1.
         21   -1    0    0  501  503 -0.00000000000E+00 -0.00000000000E+00 -0.13468768653E+03  0.13468768653E+03  0.00000000000E+00 0.  1.
          6    1    1    2  501    0 -0.36447799152E+02  0.41433005098E+02 -0.36428018830E+02  0.18520566009E+03  0.17300000000E+03 0.  1.
         -6    1    1    2    0  502  0.36447799152E+02 -0.41433005098E+02  0.32146813364E+03  0.36920982776E+03  0.17300000000E+03 0.  1.
<mgrwt>
<rscale>  2 0.18158782E+03</rscale>
<asrwt>0</asrwt>
<pdfrwt beam="1">  1       21 0.64573507E-01 0.18158782E+03</pdfrwt>
<pdfrwt beam="2">  1       21 0.20721183E-01 0.18158782E+03</pdfrwt>
<totfact> 0.48016556E+04</totfact>
</mgrwt>
</event>
<event>
 4    1  0.1252123E+000  0.1736515E+03  0.7546771E-02  0.1174093E+00
         21   -1    0    0  501  502  0.00000000000E+00  0.00000000000E+00  0.53681909937E+03  0.53681909937E+03  0.00000000000E+00 0. -1.
         21   -1    0    0  502  503 -0.00000000000E+00 -0.00000000000E+00 -0.96239831206E+02  0.96239831206E+02  0.00000000000E+00 0. -1.
          6    1    1    2  501    0 -0.13011629042E+02 -0.75196308121E+01  0.42452367251E+03  0.45866675905E+03  0.17300000000E+03 0. -1.
         -6    1    1    2    0  503  0.13011629042E+02  0.75196308121E+01  0.16055595656E+02  0.17439217153E+03  0.17300000000E+03 0. -1.
<mgrwt>
<rscale>  2 0.17365151E+03</rscale>
<asrwt>0</asrwt>
<pdfrwt beam="1">  1       21 0.82587552E-01 0.17365151E+03</pdfrwt>
<pdfrwt beam="2">  1       21 0.14806128E-01 0.17365151E+03</pdfrwt>
<totfact> 0.51877148E+04</totfact>
</mgrwt>
</event>
<event>
 4    1  0.1252123E+000  0.1853528E+03  0.7546771E-02  0.1162721E+00
         21   -1    0    0  501  502  0.00000000000E+00  0.00000000000E+00  0.49733079651E+02  0.49733079651E+02  0.00000000000E+00 0.  1.
         21   -1    0    0  502  503 -0.00000000000E+00 -0.00000000000E+00 -0.11434180794E+04  0.11434180794E+04  0.00000000000E+00 0.  1.
          6    1    1    2  501    0  0.61925115661E+02  0.24330054639E+02 -0.17149950627E+03  0.25252277552E+03  0.17300000000E+03 0.  1.
         -6    1    1    2    0  503 -0.61925115661E+02 -0.24330054639E+02 -0.92218549345E+03  0.94062838349E+03  0.17300000000E+03 0.  1.
<mgrwt>
<rscale>  2 0.18535283E+03</rscale>
<asrwt>0</asrwt>
<pdfrwt beam="1">  1       21 0.76512432E-02 0.18535283E+03</pdfrwt>
<pdfrwt beam="2">  1       21 0.17591047E+00 0.18535283E+03</pdfrwt>
<totfact> 0.25294395E+04</totfact>
</mgrwt>
</event>
<event>
 4    1  0.1252123E+000  0.2753697E+03  0.7546771E-02  0.1098245E+00
         21   -1    0    0  503  502  0.00000000000E+00  0.00000000000E+00  0.26838843191E+03  0.26838843191E+03  0.00000000000E+00 0.  1.
         21   -1    0    0  501  503 -0.00000000000E+00 -0.00000000000E+00 -0.29700692908E+03  0.29700692908E+03  0.00000000000E+00 0. -1.
          6    1    1    2  501    0  0.10931441870E+03 -0.18425486440E+03 -0.76716822149E+02  0.28585655142E+03  0.17300000000E+03 0.  1.
         -6    1    1    2    0  502 -0.10931441870E+03  0.18425486440E+03  0.48098324977E+02  0.27953880957E+03  0.17300000000E+03 0.  1.
<mgrwt>
<rscale>  2 0.27536975E+03</rscale>
<asrwt>0</asrwt>
<pdfrwt beam="1">  1       21 0.41290528E-01 0.27536975E+03</pdfrwt>
<pdfrwt beam="2">  1       21 0.45693374E-01 0.27536975E+03</pdfrwt>
<totfact> 0.24899037E+04</totfact>
</mgrwt>
</event>
<event>
 4    1  0.1252123E+000  0.2155217E+03  0.7546771E-02  0.1137267E+00
         21   -1    0    0  503  502  0.00000000000E+00  0.00000000000E+00  0.14115999024E+03  0.14115999024E+03  0.00000000000E+00 0.  1.
         21   -1    0    0  501  503 -0.00000000000E+00 -0.00000000000E+00 -0.37334584505E+03  0.37334584505E+03  0.00000000000E+00 0. -1.
          6    1    1    2  501    0  0.84280648900E+02 -0.97043108658E+02 -0.20469725986E+03  0.29723822250E+03  0.17300000000E+03 0. -1.
         -6    1    1    2    0  502 -0.84280648900E+02  0.97043108658E+02 -0.27488594945E+02  0.21726761279E+03  0.17300000000E+03 0.  1.
<mgrwt>
<rscale>  2 0.21552168E+03</rscale>
<asrwt>0</asrwt>
<pdfrwt beam="1">  1       21 0.21716922E-01 0.21552168E+03</pdfrwt>
<pdfrwt beam="2">  1       21 0.57437821E-01 0.21552168E+03</pdfrwt>
<totfact> 0.55670718E+04</totfact>
</mgrwt>
</event>
<event>
 4    1  0.1252123E+000  0.2581121E+03  0.7546771E-02  0.1108283E+00
         21   -1    0    0  501  502  0.00000000000E+00  0.00000000000E+00  0.39128770031E+03  0.39128770031E+03  0.00000000000E+00 0.  1.
         21   -1    0    0  502  503 -0.00000000000E+00 -0.00000000000E+00 -0.34499213792E+03  0.34499213792E+03  0.00000000000E+00 0.  1.
          6    1    1    2  501    0  0.19153328010E+03  0.28053293541E+01  0.28514146617E+03  0.38461347219E+03  0.17300000000E+03 0.  1.
         -6    1    1    2    0  503 -0.19153328010E+03 -0.28053293541E+01 -0.23884590377E+03  0.35166636605E+03  0.17300000000E+03 0.  1.
<mgrwt>
<rscale>  2 0.25811212E+03</rscale>
<asrwt>0</asrwt>
<pdfrwt beam="1">  1       21 0.60198108E-01 0.25811212E+03</pdfrwt>
<pdfrwt beam="2">  1       21 0.53075713E-01 0.25811212E+03</pdfrwt>
<totfact> 0.83007908E+03</totfact>
</mgrwt>
</event>
<event>
 4    1  0.1252123E+000  0.1772123E+03  0.7546771E-02  0.1170529E+00
         21   -1    0    0  503  502  0.00000000000E+00  0.00000000000E+00  0.29156804710E+03  0.29156804710E+03  0.00000000000E+00 0. -1.
         21   -1    0    0  501  503 -0.00000000000E+00 -0.00000000000E+00 -0.11897670223E+03  0.11897670223E+03  0.00000000000E+00 0. -1.
          6    1    1    2  501    0 -0.24817928226E+02 -0.29313296155E+02  0.23121827675E+02  0.17871434696E+03  0.17300000000E+03 0. -1.
         -6    1    1    2    0  502  0.24817928226E+02  0.29313296155E+02  0.14946951720E+03  0.23183040237E+03  0.17300000000E+03 0. -1.
<mgrwt>
<rscale>  2 0.17721230E+03</rscale>
<asrwt>0</asrwt>
<pdfrwt beam="1">  1       21 0.44856622E-01 0.17721230E+03</pdfrwt>
<pdfrwt beam="2">  1       21 0.18304108E-01 0.17721230E+03</pdfrwt>
<totfact> 0.13051886E+05</totfact>
</mgrwt>
</event>
<event>
 4    1  0.1252123E+000  0.2449724E+03  0.7546771E-02  0.1116524E+00
         21   -1    0    0  503  502  0.00000000000E+00  0.00000000000E+00  0.35294142905E+03  0.35294142905E+03  0.00000000000E+00 0. -1.
         21   -1    0    0  501  503 -0.00000000000E+00 -0.00000000000E+00 -0.19278952357E+03  0.19278952357E+03  0.00000000000E+00 0. -1.
          6    1    1    2  501    0  0.13706148186E+03 -0.10628563610E+03 -0.13672766502E+02  0.24535368510E+03  0.17300000000E+03 0. -1.
         -6    1    1    2    0  502 -0.13706148186E+03  0.10628563610E+03  0.17382467198E+03  0.30037726752E+03  0.17300000000E+03 0. -1.
<mgrwt>
<rscale>  2 0.24497242E+03</rscale>
<asrwt>0</asrwt>
<pdfrwt beam="1">  1       21 0.54298681E-01 0.24497242E+03</pdfrwt>
<pdfrwt beam="2">  1       21 0.29659927E-01 0.24497242E+03</pdfrwt>
<totfact> 0.34030755E+04</totfact>
</mgrwt>
</event>
<event>
 4    1  0.1252123E+000  0.2172617E+03  0.7546771E-02  0.1135941E+00
         21   -1    0    0  503  502  0.00000000000E+00  0.00000000000E+00  0.47563113580E+02  0.47563113580E+02  0.00000000000E+00 0.  1.
         21   -1    0    0  501  503 -0.00000000000E+00 -0.00000000000E+00 -0.14184347401E+04  0.14184347401E+04  0.00000000000E+00 0.  1.
          6    1    1    2  501    0  0.91864366863E+02  0.93992502606E+02 -0.10871436009E+04  0.11086405465E+04  0.17300000000E+03 0.  1.
         -6    1    1    2    0  502 -0.91864366863E+02 -0.93992502606E+02 -0.28372802561E+03  0.35735730713E+03  0.17300000000E+03 0.  1.
<mgrwt>
<rscale>  2 0.21726171E+03</rscale>
<asrwt>0</asrwt>
<pdfrwt beam="1">  1       21 0.73174026E-02 0.21726171E+03</pdfrwt>
<pdfrwt beam="2">  1       21 0.21822071E+00 0.21726171E+03</pdfrwt>
<totfact> 0.14167782E+04</totfact>
</mgrwt>
</event>
<event>
 4    1  0.1252123E+000  0.1877673E+03  0.7546771E-02  0.1160491E+00
         21   -1    0    0  501  502  0.00000000000E+00  0.00000000000E+00  0.23306046057E+03  0.23306046057E+03  0.00000000000E+00 0. -1.
         21   -1    0    0  502  503 -0.00000000000E+00 -0.00000000000E+00 -0.16135821894E+03  0.16135821894E+03  0.00000000000E+00 0.  1.
          6    1    1    2  501    0  0.32808656568E+02 -0.65200894413E+02  0.85145772023E+02  0.20617072312E+03  0.17300000000E+03 0. -1.
         -6    1    1    2    0  503 -0.32808656568E+02  0.65200894413E+02 -0.13443530396E+02  0.18824795640E+03  0.17300000000E+03 0.  1.
<mgrwt>
<rscale>  2 0.18776731E+03</rscale>
<asrwt>0</asrwt>
<pdfrwt beam="1">  1       21 0.35855455E-01 0.18776731E+03</pdfrwt>
<pdfrwt beam="2">  1       21 0.24824342E-01 0.18776731E+03</pdfrwt>
<totfact> 0.11534949E+05</totfact>
</mgrwt>
</event>
<event>
 4    1  0.1252123E+000  0.2368711E+03  0.7546771E-02  0.1121895E+00
         21   -1    0    0  503  502  0.00000000000E+00  0.00000000000E+00  0.19678984205E+03  0.19678984205E+03  0.00000000000E+00 0.  1.
         21   -1    0    0  501  503 -0.00000000000E+00 -0.00000000000E+00 -0.28677181485E+03  0.28677181485E+03  0.00000000000E+00 0. -1.
          6    1    1    2  501    0 -0.10489233977E+03  0.12319308520E+03 -0.26619041640E+02  0.23836214582E+03  0.17300000000E+03 0.  1.
         -6    1    1    2    0  502  0.10489233977E+03 -0.12319308520E+03 -0.63362931164E+02  0.24519951107E+03  0.17300000000E+03 0. -1.
<mgrwt>
<rscale>  2 0.23687114E+03</rscale>
<asrwt>0</asrwt>
<pdfrwt beam="1">  1       21 0.30275360E-01 0.23687114E+03</pdfrwt>
<pdfrwt beam="2">  1       21 0.44118741E-01 0.23687114E+03</pdfrwt>
<totfact> 0.50627825E+04</totfact>
</mgrwt>
</event>
<event>
 4    1  0.1252123E+000  0.1770602E+03  0.7546771E-02  0.1170679E+00
         21   -1    0    0  503  502  0.00000000000E+00  0.00000000000E+00  0.16098977876E+02  0.16098977876E+02  0.00000000000E+00 0. -1.
         21   -1    0    0  501  503 -0.00000000000E+00 -0.00000000000E+00 -0.20963689211E+04  0.20963689211E+04  0.00000000000E+00 0. -1.
          6    1    1    2  501    0 -0.35833037474E+02  0.11717430588E+02 -0.75852334758E+03  0.77891461251E+03  0.17300000000E+03 0. -1.
         -6    1    1    2    0  502  0.35833037474E+02 -0.11717430588E+02 -0.13217465956E+04  0.13335532865E+04  0.17300000000E+03 0. -1.
<mgrwt>
<rscale>  2 0.17706017E+03</rscale>
<asrwt>0</asrwt>
<pdfrwt beam="1">  1       21 0.24767635E-02 0.17706017E+03</pdfrwt>
<pdfrwt beam="2">  1       21 0.32251860E+00 0.17706017E+03</pdfrwt>
<totfact> 0.22336483E+04</totfact>
</mgrwt>
</event>
<event>
 4    1  0.1252123E+000  0.1806082E+03  0.7546771E-02  0.1167216E+00
         21   -1    0    0  503  502  0.00000000000E+00  0.00000000000E+00  0.74640275329E+03  0.74640275329E+03  0.00000000000E+00 0. -1.
         21   -1    0    0  501  503 -0.00000000000E+00 -0.00000000000E+00 -0.72710918937E+02  0.72710918937E+02  0.00000000000E+00 0. -1.
          6    1    1    2  501    0 -0.35378136413E+02 -0.37930247049E+02  0.78155760603E+02  0.19679339189E+03  0.17300000000E+03 0. -1.
         -6    1    1    2    0  502  0.35378136413E+02  0.37930247049E+02  0.59553607375E+03  0.62232028033E+03  0.17300000000E+03 0. -1.
<mgrwt>
<rscale>  2 0.18060818E+03</rscale>
<asrwt>0</asrwt>
<pdfrwt beam="1">  1       21 0.11483119E+00 0.18060818E+03</pdfrwt>
<pdfrwt beam="2">  1       21 0.11186296E-01 0.18060818E+03</pdfrwt>
<totfact> 0.39392875E+04</totfact>
</mgrwt>
</event>
<event>
 4    1  0.1252123E+000  0.1847550E+03  0.7546771E-02  0.1163279E+00
         21   -1    0    0  503  502  0.00000000000E+00  0.00000000000E+00  0.33170120783E+03  0.33170120783E+03  0.00000000000E+00 0. -1.
         21   -1    0    0  501  503 -0.00000000000E+00 -0.00000000000E+00 -0.12631300270E+03  0.12631300270E+03  0.00000000000E+00 0.  1.
          6    1    1    2  501    0 -0.44734928237E+01 -0.64694547794E+02  0.41142916664E+01  0.18480076853E+03  0.17300000000E+03 0.  1.
         -6    1    1    2    0  502  0.44734928237E+01  0.64694547794E+02  0.20127391346E+03  0.27321344201E+03  0.17300000000E+03 0. -1.
<mgrwt>
<rscale>  2 0.18475496E+03</rscale>
<asrwt>0</asrwt>
<pdfrwt beam="1">  1       21 0.51030955E-01 0.18475496E+03</pdfrwt>
<pdfrwt beam="2">  1       21 0.19432770E-01 0.18475496E+03</pdfrwt>
<totfact> 0.89209556E+04</totfact>
</mgrwt>
</event>
<event>
 4    1  0.1252123E+000  0.1898533E+03  0.7546771E-02  0.1158594E+00
         21   -1    0    0  503  502  0.00000000000E+00  0.00000000000E+00  0.35192683283E+02  0.35192683283E+02  0.00000000000E+00 0. -1.
         21   -1    0    0  501  503 -0.00000000000E+00 -0.00000000000E+00 -0.10396471957E+04  0.10396471957E+04  0.00000000000E+00 0. -1.
          6    1    1    2  501    0  0.76443274867E+02  0.16482820556E+02 -0.56774078355E+03  0.59864334537E+03  0.17300000000E+03 0. -1.
         -6    1    1    2    0  502 -0.76443274867E+02 -0.16482820556E+02 -0.43671372885E+03  0.47619653360E+03  0.17300000000E+03 0. -1.
<mgrwt>
<rscale>  2 0.18985325E+03</rscale>
<asrwt>0</asrwt>
<pdfrwt beam="1">  1       21 0.54142594E-02 0.18985325E+03</pdfrwt>
<pdfrwt beam="2">  1       21 0.15994571E+00 0.18985325E+03</pdfrwt>
<totfact> 0.59286784E+04</totfact>
</mgrwt>
</event>
<event>
 4    1  0.1252123E+000  0.3011442E+03  0.7546771E-02  0.1084670E+00
         21   -1    0    0  503  502  0.00000000000E+00  0.00000000000E+00  0.69655729351E+02  0.69655729351E+02  0.00000000000E+00 0.  1.
         21   -1    0    0  501  503 -0.00000000000E+00 -0.00000000000E+00 -0.13397908096E+04  0.13397908096E+04  0.00000000000E+00 0. -1.
          6    1    1    2  501    0 -0.14495242048E+03  0.19936811621E+03 -0.75351220071E+03  0.81146071167E+03  0.17300000000E+03 0. -1.
         -6    1    1    2    0  502  0.14495242048E+03 -0.19936811621E+03 -0.51662287949E+03  0.59798582724E+03  0.17300000000E+03 0.  1.
<mgrwt>
<rscale>  2 0.30114423E+03</rscale>
<asrwt>0</asrwt>
<pdfrwt beam="1">  1       21 0.10716267E-01 0.30114423E+03</pdfrwt>
<pdfrwt beam="2">  1       21 0.20612165E+00 0.30114423E+03</pdfrwt>
<totfact> 0.81589892E+03</totfact>
</mgrwt>
</event>
<event>
 4    1  0.1252123E+000  0.2154544E+03  0.7546771E-02  0.1137318E+00
         21   -1    0    0  503  502  0.00000000000E+00  0.00000000000E+00  0.41422852832E+03  0.41422852832E+03  0.00000000000E+00 0. -1.
         21   -1    0    0  501  503 -0.00000000000E+00 -0.00000000000E+00 -0.11239257646E+03  0.11239257646E+03  0.00000000000E+00 0.  1.
          6    1    1    2  501    0  0.12841959022E+03  0.15215745883E+00  0.13670762293E+03  0.25516580584E+03  0.17300000000E+03 0.  1.
         -6    1    1    2    0  502 -0.12841959022E+03 -0.15215745883E+00  0.16512832893E+03  0.27145529894E+03  0.17300000000E+03 0. -1.
<mgrwt>
<rscale>  2 0.21545444E+03</rscale>
<asrwt>0</asrwt>
<pdfrwt beam="1">  1       21 0.63727465E-01 0.21545444E+03</pdfrwt>
<pdfrwt beam="2">  1       21 0.17291166E-01 0.21545444E+03</pdfrwt>
<totfact> 0.68095841E+04</totfact>
</mgrwt>
</event>
<event>
 4    1  0.1252123E+000  0.1898437E+03  0.7546771E-02  0.1158602E+00
         21   -1    0    0  501  502  0.00000000000E+00  0.00000000000E+00  0.21745553629E+03  0.21745553629E+03  0.00000000000E+00 0. -1.
         21   -1    0    0  502  503 -0.00000000000E+00 -0.00000000000E+00 -0.17704164172E+03  0.17704164172E+03  0.00000000000E+00 0. -1.
          6    1    1    2  501    0 -0.38474980071E+02  0.68053727651E+02  0.70047909665E+02  0.20235449979E+03  0.17300000000E+03 0. -1.
         -6    1    1    2    0  503  0.38474980071E+02 -0.68053727651E+02 -0.29634015094E+02  0.19214267821E+03  0.17300000000E+03 0. -1.
<mgrwt>
<rscale>  2 0.18984371E+03</rscale>
<asrwt>0</asrwt>
<pdfrwt beam="1">  1       21 0.33454698E-01 0.18984371E+03</pdfrwt>
<pdfrwt beam="2">  1       21 0.27237176E-01 0.18984371E+03</pdfrwt>
<totfact> 0.11069980E+05</totfact>
</mgrwt>
</event>
