<event>
 4    1  0.4917371E-005  0.4808831E+03  0.7818608E-02  0.1018893E+00
          2   -1    0    0  501    0  0.00000000000E+00  0.00000000000E+00  0.98629272569E+03  0.98629272570E+03  0.25500000000E-02 0.  1.
         -2   -1    0    0    0  501 -0.00000000000E+00 -0.00000000000E+00 -0.58615595489E+02  0.58615595544E+02  0.25500000000E-02 0. -1.
    5000001    1    1    2    0    0  0.58069238211E+01 -0.11614300831E+03  0.31505925984E+03  0.39036682230E+03  0.19900000000E+03 0.  0.
   -5000001    1    1    2    0    0 -0.58069238211E+01  0.11614300831E+03  0.61261787037E+03  0.65454149894E+03  0.19900000000E+03 0.  0.
<mgrwt>
<rscale>  0 0.48088309E+03</rscale>
<asrwt>0</asrwt>
<pdfrwt beam="1">  1        2 0.14089896E+00 0.48088309E+03</pdfrwt>
<pdfrwt beam="2">  1       -2 0.83736568E-02 0.48088309E+03</pdfrwt>
<totfact> 0.26206806E+03</totfact>
</mgrwt>
</event>
<event>
 4    1  0.4917371E-005  0.4730187E+03  0.7818608E-02  0.1021072E+00
         -2   -1    0    0    0  501 -0.00000000000E+00  0.00000000000E+00  0.17124242584E+02  0.17124242774E+02  0.25500000000E-02 0. -1.
          2   -1    0    0  501    0  0.00000000000E+00 -0.00000000000E+00 -0.32665200469E+04  0.32665200469E+04  0.25500000000E-02 0.  1.
    5000001    1    1    2    0    0 -0.12585868676E+03 -0.97214024303E+00 -0.17790403290E+04  0.17945547767E+04  0.19900000000E+03 0.  0.
   -5000001    1    1    2    0    0  0.12585868676E+03  0.97214024303E+00 -0.14703554753E+04  0.14890895130E+04  0.19900000000E+03 0.  0.
<mgrwt>
<rscale>  0 0.47301874E+03</rscale>
<asrwt>0</asrwt>
<pdfrwt beam="1">  1        2 0.46664532E+00 0.47301874E+03</pdfrwt>
<pdfrwt beam="2">  1       -2 0.24463225E-02 0.47301874E+03</pdfrwt>
<totfact> 0.11112082E+03</totfact>
</mgrwt>
</event>
<event>
 4    1  0.4917371E-005  0.5921453E+03  0.7818608E-02  0.9921837E-01
         -2   -1    0    0    0  501 -0.00000000000E+00  0.00000000000E+00  0.82167859200E+02  0.82167859240E+02  0.25500000000E-02 0. -1.
          2   -1    0    0  501    0  0.00000000000E+00 -0.00000000000E+00 -0.10668283365E+04  0.10668283366E+04  0.25500000000E-02 0.  1.
    5000001    1    1    2    0    0  0.13420642437E+03 -0.17038060752E+03 -0.55421289134E+03  0.62752995521E+03  0.19900000000E+03 0.  0.
   -5000001    1    1    2    0    0 -0.13420642437E+03  0.17038060752E+03 -0.43044758601E+03  0.52146624058E+03  0.19900000000E+03 0.  0.
<mgrwt>
<rscale>  0 0.59214525E+03</rscale>
<asrwt>0</asrwt>
<pdfrwt beam="1">  1        2 0.15240404E+00 0.59214525E+03</pdfrwt>
<pdfrwt beam="2">  1       -2 0.11738266E-01 0.59214525E+03</pdfrwt>
<totfact> 0.13572445E+03</totfact>
</mgrwt>
</event>
<event>
 4    1  0.4917371E-005  0.6696643E+03  0.7818608E-02  0.9770564E-01
         -2   -1    0    0    0  501 -0.00000000000E+00  0.00000000000E+00  0.39698108869E+02  0.39698108951E+02  0.25500000000E-02 0. -1.
          2   -1    0    0  501    0  0.00000000000E+00 -0.00000000000E+00 -0.28241290248E+04  0.28241290248E+04  0.25500000000E-02 0.  1.
    5000001    1    1    2    0    0 -0.13660631271E+03  0.20241152599E+03 -0.18775546751E+04  0.19037973286E+04  0.19900000000E+03 0.  0.
   -5000001    1    1    2    0    0  0.13660631271E+03 -0.20241152599E+03 -0.90687624082E+03  0.96002980511E+03  0.19900000000E+03 0.  0.
<mgrwt>
<rscale>  0 0.66966434E+03</rscale>
<asrwt>0</asrwt>
<pdfrwt beam="1">  1        2 0.40344688E+00 0.66966434E+03</pdfrwt>
<pdfrwt beam="2">  1       -2 0.56711602E-02 0.66966434E+03</pdfrwt>
<totfact> 0.52553339E+02</totfact>
</mgrwt>
</event>
<event>
 4    1  0.4917371E-005  0.6133399E+03  0.7818608E-02  0.9878110E-01
         -2   -1    0    0    0  501 -0.00000000000E+00  0.00000000000E+00  0.73287699927E+02  0.73287699971E+02  0.25500000000E-02 0. -1.
          2   -1    0    0  501    0  0.00000000000E+00 -0.00000000000E+00 -0.12832503256E+04  0.12832503256E+04  0.25500000000E-02 0.  1.
    5000001    1    1    2    0    0  0.35186062351E+02  0.19819027021E+03 -0.86600232589E+03  0.91108642325E+03  0.19900000000E+03 0.  0.
   -5000001    1    1    2    0    0 -0.35186062351E+02 -0.19819027021E+03 -0.34396029983E+03  0.44545160236E+03  0.19900000000E+03 0.  0.
<mgrwt>
<rscale>  0 0.61333992E+03</rscale>
<asrwt>0</asrwt>
<pdfrwt beam="1">  1        2 0.18332146E+00 0.61333992E+03</pdfrwt>
<pdfrwt beam="2">  1       -2 0.10469672E-01 0.61333992E+03</pdfrwt>
<totfact> 0.12332559E+03</totfact>
</mgrwt>
</event>
<event>
 4    1  0.4917371E-005  0.6341618E+03  0.7818608E-02  0.9836961E-01
          2   -1    0    0  501    0  0.00000000000E+00  0.00000000000E+00  0.30184677392E+03  0.30184677393E+03  0.25500000000E-02 0.  1.
         -2   -1    0    0    0  501 -0.00000000000E+00 -0.00000000000E+00 -0.33308384756E+03  0.33308384757E+03  0.25500000000E-02 0. -1.
    5000001    1    1    2    0    0  0.19575178152E+03  0.76288418878E+02 -0.14539282143E+03  0.32384989632E+03  0.19900000000E+03 0.  0.
   -5000001    1    1    2    0    0 -0.19575178152E+03 -0.76288418878E+02  0.11415574778E+03  0.31108072518E+03  0.19900000000E+03 0.  0.
<mgrwt>
<rscale>  0 0.63416176E+03</rscale>
<asrwt>0</asrwt>
<pdfrwt beam="1">  1        2 0.43120968E-01 0.63416176E+03</pdfrwt>
<pdfrwt beam="2">  1       -2 0.47583406E-01 0.63416176E+03</pdfrwt>
<totfact> 0.49957667E+02</totfact>
</mgrwt>
</event>
<event>
 4    1  0.4917371E-005  0.5432781E+03  0.7818608E-02  0.1003062E+00
          2   -1    0    0  501    0  0.00000000000E+00  0.00000000000E+00  0.73449104879E+03  0.73449104880E+03  0.25500000000E-02 0.  1.
         -2   -1    0    0    0  501 -0.00000000000E+00 -0.00000000000E+00 -0.10046108740E+03  0.10046108743E+03  0.25500000000E-02 0. -1.
    5000001    1    1    2    0    0 -0.98217657207E+01  0.17328147938E+03  0.21904179537E+03  0.34307906712E+03  0.19900000000E+03 0.  0.
   -5000001    1    1    2    0    0  0.98217657207E+01 -0.17328147938E+03  0.41498816603E+03  0.49187306911E+03  0.19900000000E+03 0.  0.
<mgrwt>
<rscale>  0 0.54327809E+03</rscale>
<asrwt>0</asrwt>
<pdfrwt beam="1">  1        2 0.10492730E+00 0.54327809E+03</pdfrwt>
<pdfrwt beam="2">  1       -2 0.14351583E-01 0.54327809E+03</pdfrwt>
<totfact> 0.16001002E+03</totfact>
</mgrwt>
</event>
<event>
 4    1  0.4917371E-005  0.6433808E+03  0.7818608E-02  0.9819279E-01
          2   -1    0    0  501    0  0.00000000000E+00  0.00000000000E+00  0.83101591456E+03  0.83101591456E+03  0.25500000000E-02 0.  1.
         -2   -1    0    0    0  501 -0.00000000000E+00 -0.00000000000E+00 -0.12452796078E+03  0.12452796080E+03  0.25500000000E-02 0. -1.
    5000001    1    1    2    0    0 -0.20027085614E+03 -0.27260999901E+02  0.57864177445E+03  0.64442135368E+03  0.19900000000E+03 0.  0.
   -5000001    1    1    2    0    0  0.20027085614E+03  0.27260999901E+02  0.12784617933E+03  0.31112252169E+03  0.19900000000E+03 0.  0.
<mgrwt>
<rscale>  0 0.64338081E+03</rscale>
<asrwt>0</asrwt>
<pdfrwt beam="1">  1        2 0.11871656E+00 0.64338081E+03</pdfrwt>
<pdfrwt beam="2">  1       -2 0.17789709E-01 0.64338081E+03</pdfrwt>
<totfact> 0.94956925E+02</totfact>
</mgrwt>
</event>
<event>
 4    1  0.4917371E-005  0.8319192E+03  0.7818608E-02  0.9514931E-01
          2   -1    0    0  501    0  0.00000000000E+00  0.00000000000E+00  0.34219539922E+04  0.34219539922E+04  0.25500000000E-02 0.  1.
         -2   -1    0    0    0  501 -0.00000000000E+00 -0.00000000000E+00 -0.50562447616E+02  0.50562447680E+02  0.25500000000E-02 0. -1.
    5000001    1    1    2    0    0 -0.22280705211E+03  0.24014637738E+03  0.10112440645E+04  0.10814475591E+04  0.19900000000E+03 0.  0.
   -5000001    1    1    2    0    0  0.22280705211E+03 -0.24014637738E+03  0.23601474800E+04  0.23910688807E+04  0.19900000000E+03 0.  0.
<mgrwt>
<rscale>  0 0.83191915E+03</rscale>
<asrwt>0</asrwt>
<pdfrwt beam="1">  1        2 0.48885060E+00 0.83191915E+03</pdfrwt>
<pdfrwt beam="2">  1       -2 0.72232064E-02 0.83191915E+03</pdfrwt>
<totfact> 0.16346282E+02</totfact>
</mgrwt>
</event>
<event>
 4    1  0.4917371E-005  0.4831881E+03  0.7818608E-02  0.1018263E+00
         -2   -1    0    0    0  501 -0.00000000000E+00  0.00000000000E+00  0.76822934067E+02  0.76822934110E+02  0.25500000000E-02 0. -1.
          2   -1    0    0  501    0  0.00000000000E+00 -0.00000000000E+00 -0.75976913955E+03  0.75976913955E+03  0.25500000000E-02 0.  1.
    5000001    1    1    2    0    0  0.11187989246E+03 -0.13878524592E+02 -0.47622199957E+03  0.52829737522E+03  0.19900000000E+03 0.  0.
   -5000001    1    1    2    0    0 -0.11187989246E+03  0.13878524592E+02 -0.20672420591E+03  0.30829469844E+03  0.19900000000E+03 0.  0.
<mgrwt>
<rscale>  0 0.48318814E+03</rscale>
<asrwt>0</asrwt>
<pdfrwt beam="1">  1        2 0.10853844E+00 0.48318814E+03</pdfrwt>
<pdfrwt beam="2">  1       -2 0.10974705E-01 0.48318814E+03</pdfrwt>
<totfact> 0.23870207E+03</totfact>
</mgrwt>
</event>
<event>
 4    1  0.4917371E-005  0.4319210E+03  0.7818608E-02  0.1033255E+00
         -2   -1    0    0    0  501 -0.00000000000E+00  0.00000000000E+00  0.80593037715E+02  0.80593037755E+02  0.25500000000E-02 0. -1.
          2   -1    0    0  501    0  0.00000000000E+00 -0.00000000000E+00 -0.57869685652E+03  0.57869685653E+03  0.25500000000E-02 0.  1.
    5000001    1    1    2    0    0  0.11354525856E+02 -0.76399916425E+02 -0.19907347126E+03  0.29188545604E+03  0.19900000000E+03 0.  0.
   -5000001    1    1    2    0    0 -0.11354525856E+02  0.76399916425E+02 -0.29903034755E+03  0.36740443824E+03  0.19900000000E+03 0.  0.
<mgrwt>
<rscale>  0 0.43192100E+03</rscale>
<asrwt>0</asrwt>
<pdfrwt beam="1">  1        2 0.82670977E-01 0.43192100E+03</pdfrwt>
<pdfrwt beam="2">  1       -2 0.11513291E-01 0.43192100E+03</pdfrwt>
<totfact> 0.30545828E+03</totfact>
</mgrwt>
</event>
<event>
 4    1  0.4917371E-005  0.9823803E+03  0.7818608E-02  0.9328084E-01
          2   -1    0    0  501    0  0.00000000000E+00  0.00000000000E+00  0.43989546302E+03  0.43989546303E+03  0.25500000000E-02 0.  1.
         -2   -1    0    0    0  501 -0.00000000000E+00 -0.00000000000E+00 -0.54846617430E+03  0.54846617431E+03  0.25500000000E-02 0. -1.
    5000001    1    1    2    0    0 -0.28176684947E+03 -0.34839824415E+03 -0.24222194679E+02  0.49087840521E+03  0.19900000000E+03 0.  0.
   -5000001    1    1    2    0    0  0.28176684947E+03  0.34839824415E+03 -0.84348516600E+02  0.49748323212E+03  0.19900000000E+03 0.  0.
<mgrwt>
<rscale>  0 0.98238034E+03</rscale>
<asrwt>0</asrwt>
<pdfrwt beam="1">  1        2 0.62842210E-01 0.98238034E+03</pdfrwt>
<pdfrwt beam="2">  1       -2 0.78352310E-01 0.98238034E+03</pdfrwt>
<totfact> 0.11256571E+02</totfact>
</mgrwt>
</event>
<event>
 4    1  0.4917371E-005  0.7859368E+03  0.7818608E-02  0.9580599E-01
          2   -1    0    0  501    0  0.00000000000E+00  0.00000000000E+00  0.73189342571E+03  0.73189342571E+03  0.25500000000E-02 0.  1.
         -2   -1    0    0    0  501 -0.00000000000E+00 -0.00000000000E+00 -0.21099271146E+03  0.21099271147E+03  0.25500000000E-02 0. -1.
    5000001    1    1    2    0    0  0.10401402148E+02 -0.13058545555E+03  0.63536755619E+03  0.67856737457E+03  0.19900000000E+03 0.  0.
   -5000001    1    1    2    0    0 -0.10401402148E+02  0.13058545555E+03 -0.11446684194E+03  0.26431876262E+03  0.19900000000E+03 0.  0.
<mgrwt>
<rscale>  0 0.78593684E+03</rscale>
<asrwt>0</asrwt>
<pdfrwt beam="1">  1        2 0.10455620E+00 0.78593684E+03</pdfrwt>
<pdfrwt beam="2">  1       -2 0.30141816E-01 0.78593684E+03</pdfrwt>
<totfact> 0.43401795E+02</totfact>
</mgrwt>
</event>
<event>
 4    1  0.4917371E-005  0.5784112E+03  0.7818608E-02  0.9951237E-01
         -2   -1    0    0    0  501 -0.00000000000E+00  0.00000000000E+00  0.15799096613E+03  0.15799096615E+03  0.25500000000E-02 0. -1.
          2   -1    0    0  501    0  0.00000000000E+00 -0.00000000000E+00 -0.52939667646E+03  0.52939667646E+03  0.25500000000E-02 0.  1.
    5000001    1    1    2    0    0  0.73489817430E+02  0.18355196616E+03 -0.26928775368E+03  0.38885597826E+03  0.19900000000E+03 0.  0.
   -5000001    1    1    2    0    0 -0.73489817430E+02 -0.18355196616E+03 -0.10211795665E+03  0.29853166435E+03  0.19900000000E+03 0.  0.
<mgrwt>
<rscale>  0 0.57841125E+03</rscale>
<asrwt>0</asrwt>
<pdfrwt beam="1">  1        2 0.75628096E-01 0.57841125E+03</pdfrwt>
<pdfrwt beam="2">  1       -2 0.22570138E-01 0.57841125E+03</pdfrwt>
<totfact> 0.10842342E+03</totfact>
</mgrwt>
</event>
<event>
 4    1  0.4917371E-005  0.6284149E+03  0.7818608E-02  0.9848147E-01
         -2   -1    0    0    0  501 -0.00000000000E+00  0.00000000000E+00  0.50767485409E+02  0.50767485473E+02  0.25500000000E-02 0. -1.
          2   -1    0    0  501    0  0.00000000000E+00 -0.00000000000E+00 -0.19446762868E+04  0.19446762868E+04  0.25500000000E-02 0.  1.
    5000001    1    1    2    0    0 -0.98895787553E+02  0.21892039339E+03 -0.82734781889E+03  0.88420129431E+03  0.19900000000E+03 0.  0.
   -5000001    1    1    2    0    0  0.98895787553E+02 -0.21892039339E+03 -0.10665609825E+04  0.11112424779E+04  0.19900000000E+03 0.  0.
<mgrwt>
<rscale>  0 0.62841491E+03</rscale>
<asrwt>0</asrwt>
<pdfrwt beam="1">  1        2 0.27781085E+00 0.62841491E+03</pdfrwt>
<pdfrwt beam="2">  1       -2 0.72524991E-02 0.62841491E+03</pdfrwt>
<totfact> 0.10104514E+03</totfact>
</mgrwt>
</event>
<event>
 4    1  0.4917371E-005  0.5211448E+03  0.7818608E-02  0.1008403E+00
          2   -1    0    0  501    0  0.00000000000E+00  0.00000000000E+00  0.96941577401E+03  0.96941577401E+03  0.25500000000E-02 0.  1.
         -2   -1    0    0    0  501 -0.00000000000E+00 -0.00000000000E+00 -0.70040109915E+02  0.70040109961E+02  0.25500000000E-02 0. -1.
    5000001    1    1    2    0    0 -0.13927200842E+03  0.34015708293E+02  0.62520055397E+03  0.67158803847E+03  0.19900000000E+03 0.  0.
   -5000001    1    1    2    0    0  0.13927200842E+03 -0.34015708293E+02  0.27417511012E+03  0.36786784550E+03  0.19900000000E+03 0.  0.
<mgrwt>
<rscale>  0 0.52114485E+03</rscale>
<asrwt>0</asrwt>
<pdfrwt beam="1">  1        2 0.13848796E+00 0.52114485E+03</pdfrwt>
<pdfrwt beam="2">  1       -2 0.10005731E-01 0.52114485E+03</pdfrwt>
<totfact> 0.20172017E+03</totfact>
</mgrwt>
</event>
<event>
 4    1  0.4917371E-005  0.4781811E+03  0.7818608E-02  0.1019636E+00
          2   -1    0    0  501    0  0.00000000000E+00  0.00000000000E+00  0.24523944407E+04  0.24523944407E+04  0.25500000000E-02 0.  1.
         -2   -1    0    0    0  501 -0.00000000000E+00 -0.00000000000E+00 -0.23309578746E+02  0.23309578885E+02  0.25500000000E-02 0. -1.
    5000001    1    1    2    0    0 -0.40020689338E+02 -0.11255148785E+03  0.15116777018E+04  0.15293920253E+04  0.19900000000E+03 0.  0.
   -5000001    1    1    2    0    0  0.40020689338E+02  0.11255148785E+03  0.91740716018E+03  0.94631199430E+03  0.19900000000E+03 0.  0.
<mgrwt>
<rscale>  0 0.47818106E+03</rscale>
<asrwt>0</asrwt>
<pdfrwt beam="1">  1        2 0.35034229E+00 0.47818106E+03</pdfrwt>
<pdfrwt beam="2">  1       -2 0.33299376E-02 0.47818106E+03</pdfrwt>
<totfact> 0.18889216E+03</totfact>
</mgrwt>
</event>
<event>
 4    1  0.4917371E-005  0.5134182E+03  0.7818608E-02  0.1010335E+00
         -2   -1    0    0    0  501 -0.00000000000E+00  0.00000000000E+00  0.48374677764E+02  0.48374677831E+02  0.25500000000E-02 0. -1.
          2   -1    0    0  501    0  0.00000000000E+00 -0.00000000000E+00 -0.13622741404E+04  0.13622741404E+04  0.25500000000E-02 0.  1.
    5000001    1    1    2    0    0  0.15973526860E+03 -0.25619665199E+02 -0.62600464339E+03  0.67650169019E+03  0.19900000000E+03 0.  0.
   -5000001    1    1    2    0    0 -0.15973526860E+03  0.25619665199E+02 -0.68789481929E+03  0.73414712809E+03  0.19900000000E+03 0.  0.
<mgrwt>
<rscale>  0 0.51341824E+03</rscale>
<asrwt>0</asrwt>
<pdfrwt beam="1">  1        2 0.19461057E+00 0.51341824E+03</pdfrwt>
<pdfrwt beam="2">  1       -2 0.69106691E-02 0.51341824E+03</pdfrwt>
<totfact> 0.21777670E+03</totfact>
</mgrwt>
</event>
<event>
 4    1  0.4917371E-005  0.5063622E+03  0.7818608E-02  0.1012132E+00
         -2   -1    0    0    0  501 -0.00000000000E+00  0.00000000000E+00  0.62552338896E+02  0.62552338948E+02  0.25500000000E-02 0. -1.
          2   -1    0    0  501    0  0.00000000000E+00 -0.00000000000E+00 -0.10247523859E+04  0.10247523859E+04  0.25500000000E-02 0.  1.
    5000001    1    1    2    0    0 -0.10004134961E+03 -0.11502738591E+03 -0.40487626296E+03  0.47619886544E+03  0.19900000000E+03 0.  0.
   -5000001    1    1    2    0    0  0.10004134961E+03  0.11502738591E+03 -0.55732378405E+03  0.61110585941E+03  0.19900000000E+03 0.  0.
<mgrwt>
<rscale>  0 0.50636216E+03</rscale>
<asrwt>0</asrwt>
<pdfrwt beam="1">  1        2 0.14639319E+00 0.50636216E+03</pdfrwt>
<pdfrwt beam="2">  1       -2 0.89360490E-02 0.50636216E+03</pdfrwt>
<totfact> 0.22395890E+03</totfact>
</mgrwt>
</event>
<event>
 4    1  0.4917371E-005  0.5727478E+03  0.7818608E-02  0.9963617E-01
          2   -1    0    0  501    0  0.00000000000E+00  0.00000000000E+00  0.15602613052E+04  0.15602613052E+04  0.25500000000E-02 0.  1.
         -2   -1    0    0    0  501 -0.00000000000E+00 -0.00000000000E+00 -0.52561713092E+02  0.52561713154E+02  0.25500000000E-02 0. -1.
    5000001    1    1    2    0    0  0.94989459143E+02  0.16198123979E+03  0.51577236390E+03  0.58385190824E+03  0.19900000000E+03 0.  0.
   -5000001    1    1    2    0    0 -0.94989459143E+02 -0.16198123979E+03  0.99192722819E+03  0.10289711101E+04  0.19900000000E+03 0.  0.
<mgrwt>
<rscale>  0 0.57274779E+03</rscale>
<asrwt>0</asrwt>
<pdfrwt beam="1">  1        2 0.22289443E+00 0.57274779E+03</pdfrwt>
<pdfrwt beam="2">  1       -2 0.75088175E-02 0.57274779E+03</pdfrwt>
<totfact> 0.15024275E+03</totfact>
</mgrwt>
</event>
<event>
 4    1  0.4917371E-005  0.9122746E+03  0.7818608E-02  0.9410366E-01
         -2   -1    0    0    0  501 -0.00000000000E+00  0.00000000000E+00  0.13154472795E+03  0.13154472797E+03  0.25500000000E-02 0. -1.
          2   -1    0    0  501    0  0.00000000000E+00 -0.00000000000E+00 -0.15816767417E+04  0.15816767417E+04  0.25500000000E-02 0.  1.
    5000001    1    1    2    0    0  0.15732325597E+03  0.27090964160E+03 -0.12230552157E+04  0.12781266375E+04  0.19900000000E+03 0.  0.
   -5000001    1    1    2    0    0 -0.15732325597E+03 -0.27090964160E+03 -0.22707679804E+03  0.43509483218E+03  0.19900000000E+03 0.  0.
<mgrwt>
<rscale>  0 0.91227460E+03</rscale>
<asrwt>0</asrwt>
<pdfrwt beam="1">  1        2 0.22595381E+00 0.91227460E+03</pdfrwt>
<pdfrwt beam="2">  1       -2 0.18792105E-01 0.91227460E+03</pdfrwt>
<totfact> 0.31563147E+02</totfact>
</mgrwt>
</event>
<event>
 4    1  0.4917371E-005  0.5421265E+03  0.7818608E-02  0.1003333E+00
         -2   -1    0    0    0  501 -0.00000000000E+00  0.00000000000E+00  0.16329336605E+03  0.16329336607E+03  0.25500000000E-02 0. -1.
          2   -1    0    0  501    0  0.00000000000E+00 -0.00000000000E+00 -0.44995872662E+03  0.44995872663E+03  0.25500000000E-02 0.  1.
    5000001    1    1    2    0    0 -0.47041305437E+02 -0.16291654613E+03 -0.22427134006E+03  0.34446091127E+03  0.19900000000E+03 0.  0.
   -5000001    1    1    2    0    0  0.47041305437E+02  0.16291654613E+03 -0.62394020507E+02  0.26879118143E+03  0.19900000000E+03 0.  0.
<mgrwt>
<rscale>  0 0.54212646E+03</rscale>
<asrwt>0</asrwt>
<pdfrwt beam="1">  1        2 0.64279817E-01 0.54212646E+03</pdfrwt>
<pdfrwt beam="2">  1       -2 0.23327624E-01 0.54212646E+03</pdfrwt>
<totfact> 0.12295572E+03</totfact>
</mgrwt>
</event>
<event>
 4    1  0.4917371E-005  0.7334125E+03  0.7818608E-02  0.9661739E-01
         -2   -1    0    0    0  501 -0.00000000000E+00  0.00000000000E+00  0.19524658174E+03  0.19524658175E+03  0.25500000000E-02 0. -1.
          2   -1    0    0  501    0  0.00000000000E+00 -0.00000000000E+00 -0.68873667412E+03  0.68873667412E+03  0.25500000000E-02 0.  1.
    5000001    1    1    2    0    0  0.12993682478E+03  0.22882559306E+03 -0.53792299225E+02  0.33427435129E+03  0.19900000000E+03 0.  0.
   -5000001    1    1    2    0    0 -0.12993682478E+03 -0.22882559306E+03 -0.43969779316E+03  0.54970890459E+03  0.19900000000E+03 0.  0.
<mgrwt>
<rscale>  0 0.73341252E+03</rscale>
<asrwt>0</asrwt>
<pdfrwt beam="1">  1        2 0.98390952E-01 0.73341252E+03</pdfrwt>
<pdfrwt beam="2">  1       -2 0.27892369E-01 0.73341252E+03</pdfrwt>
<totfact> 0.54084743E+02</totfact>
</mgrwt>
</event>
<event>
 4    1  0.4917371E-005  0.7722415E+03  0.7818608E-02  0.9601089E-01
          2   -1    0    0  501    0  0.00000000000E+00  0.00000000000E+00  0.75936502886E+03  0.75936502887E+03  0.25500000000E-02 0.  1.
         -2   -1    0    0    0  501 -0.00000000000E+00 -0.00000000000E+00 -0.19633407203E+03  0.19633407205E+03  0.25500000000E-02 0. -1.
    5000001    1    1    2    0    0 -0.13702514989E+03  0.29341935933E+03  0.36560997154E+03  0.52739213440E+03  0.19900000000E+03 0.  0.
   -5000001    1    1    2    0    0  0.13702514989E+03 -0.29341935933E+03  0.19742098529E+03  0.42830696652E+03  0.19900000000E+03 0.  0.
<mgrwt>
<rscale>  0 0.77224149E+03</rscale>
<asrwt>0</asrwt>
<pdfrwt beam="1">  1        2 0.10848072E+00 0.77224149E+03</pdfrwt>
<pdfrwt beam="2">  1       -2 0.28047724E-01 0.77224149E+03</pdfrwt>
<totfact> 0.47350279E+02</totfact>
</mgrwt>
</event>
<event>
 4    1  0.4917371E-005  0.8208321E+03  0.7818608E-02  0.9530344E-01
          2   -1    0    0  501    0  0.00000000000E+00  0.00000000000E+00  0.28327739665E+04  0.28327739665E+04  0.25500000000E-02 0.  1.
         -2   -1    0    0    0  501 -0.00000000000E+00 -0.00000000000E+00 -0.59461622030E+02  0.59461622085E+02  0.25500000000E-02 0. -1.
    5000001    1    1    2    0    0  0.34881695330E+03  0.69648928913E+02  0.12170828631E+04  0.12835170181E+04  0.19900000000E+03 0.  0.
   -5000001    1    1    2    0    0 -0.34881695330E+03 -0.69648928913E+02  0.15562294814E+04  0.16087185705E+04  0.19900000000E+03 0.  0.
<mgrwt>
<rscale>  0 0.82083210E+03</rscale>
<asrwt>0</asrwt>
<pdfrwt beam="1">  1        2 0.40468190E+00 0.82083210E+03</pdfrwt>
<pdfrwt beam="2">  1       -2 0.84945194E-02 0.82083210E+03</pdfrwt>
<totfact> 0.27021088E+02</totfact>
</mgrwt>
</event>
<event>
 4    1  0.4917371E-005  0.7718462E+03  0.7818608E-02  0.9601687E-01
          2   -1    0    0  501    0  0.00000000000E+00  0.00000000000E+00  0.25551729605E+04  0.25551729605E+04  0.25500000000E-02 0.  1.
         -2   -1    0    0    0  501 -0.00000000000E+00 -0.00000000000E+00 -0.58288281261E+02  0.58288281317E+02  0.25500000000E-02 0. -1.
    5000001    1    1    2    0    0  0.26867972339E+03  0.16973759243E+03  0.15575886347E+04  0.16020870760E+04  0.19900000000E+03 0.  0.
   -5000001    1    1    2    0    0 -0.26867972339E+03 -0.16973759243E+03  0.93929604448E+03  0.10113741658E+04  0.19900000000E+03 0.  0.
<mgrwt>
<rscale>  0 0.77184620E+03</rscale>
<asrwt>0</asrwt>
<pdfrwt beam="1">  1        2 0.36502460E+00 0.77184620E+03</pdfrwt>
<pdfrwt beam="2">  1       -2 0.83268998E-02 0.77184620E+03</pdfrwt>
<totfact> 0.39257841E+02</totfact>
</mgrwt>
</event>
<event>
 4    1  0.4917371E-005  0.8473355E+03  0.7818608E-02  0.9493920E-01
         -2   -1    0    0    0  501 -0.00000000000E+00  0.00000000000E+00  0.27318595571E+03  0.27318595573E+03  0.25500000000E-02 0. -1.
          2   -1    0    0  501    0  0.00000000000E+00 -0.00000000000E+00 -0.65704091478E+03  0.65704091478E+03  0.25500000000E-02 0.  1.
    5000001    1    1    2    0    0 -0.36410204329E+03 -0.15236179919E+02 -0.99482247934E+02  0.42696622438E+03  0.19900000000E+03 0.  0.
   -5000001    1    1    2    0    0  0.36410204329E+03  0.15236179919E+02 -0.28437271113E+03  0.50326064613E+03  0.19900000000E+03 0.  0.
<mgrwt>
<rscale>  0 0.84733547E+03</rscale>
<asrwt>0</asrwt>
<pdfrwt beam="1">  1        2 0.93862987E-01 0.84733547E+03</pdfrwt>
<pdfrwt beam="2">  1       -2 0.39026565E-01 0.84733547E+03</pdfrwt>
<totfact> 0.30286652E+02</totfact>
</mgrwt>
</event>
<event>
 4    1  0.4917371E-005  0.5026878E+03  0.7818608E-02  0.1013080E+00
         -2   -1    0    0    0  501 -0.00000000000E+00  0.00000000000E+00  0.41829487161E+03  0.41829487162E+03  0.25500000000E-02 0. -1.
          2   -1    0    0  501    0  0.00000000000E+00 -0.00000000000E+00 -0.15102687448E+03  0.15102687450E+03  0.25500000000E-02 0.  1.
    5000001    1    1    2    0    0 -0.10400798048E+03  0.11293556198E+03  0.13270979071E+03  0.28422700384E+03  0.19900000000E+03 0.  0.
   -5000001    1    1    2    0    0  0.10400798048E+03 -0.11293556198E+03  0.13455820642E+03  0.28509474228E+03  0.19900000000E+03 0.  0.
<mgrwt>
<rscale>  0 0.50268784E+03</rscale>
<asrwt>0</asrwt>
<pdfrwt beam="1">  1        2 0.21575267E-01 0.50268784E+03</pdfrwt>
<pdfrwt beam="2">  1       -2 0.59756411E-01 0.50268784E+03</pdfrwt>
<totfact> 0.68322080E+02</totfact>
</mgrwt>
</event>
<event>
 4    1  0.4917371E-005  0.4978218E+03  0.7818608E-02  0.1014349E+00
          2   -1    0    0  501    0  0.00000000000E+00  0.00000000000E+00  0.31118031735E+03  0.31118031736E+03  0.25500000000E-02 0.  1.
         -2   -1    0    0    0  501 -0.00000000000E+00 -0.00000000000E+00 -0.19910206669E+03  0.19910206671E+03  0.25500000000E-02 0. -1.
    5000001    1    1    2    0    0 -0.21080088055E+02  0.13005808360E+03  0.12849192974E+03  0.27105470155E+03  0.19900000000E+03 0.  0.
   -5000001    1    1    2    0    0  0.21080088055E+02 -0.13005808360E+03 -0.16413679084E+02  0.23922768252E+03  0.19900000000E+03 0.  0.
<mgrwt>
<rscale>  0 0.49782183E+03</rscale>
<asrwt>0</asrwt>
<pdfrwt beam="1">  1        2 0.44454331E-01 0.49782183E+03</pdfrwt>
<pdfrwt beam="2">  1       -2 0.28443152E-01 0.49782183E+03</pdfrwt>
<totfact> 0.12935965E+03</totfact>
</mgrwt>
</event>
<event>
 4    1  0.4917371E-005  0.6441025E+03  0.7818608E-02  0.9817909E-01
          2   -1    0    0  501    0  0.00000000000E+00  0.00000000000E+00  0.57979852318E+03  0.57979852319E+03  0.25500000000E-02 0.  1.
         -2   -1    0    0    0  501 -0.00000000000E+00 -0.00000000000E+00 -0.17888455076E+03  0.17888455078E+03  0.25500000000E-02 0. -1.
    5000001    1    1    2    0    0  0.11036780315E+03  0.18496041897E+03  0.43639847181E+02  0.29647402048E+03  0.19900000000E+03 0.  0.
   -5000001    1    1    2    0    0 -0.11036780315E+03 -0.18496041897E+03  0.35727412524E+03  0.46220905348E+03  0.19900000000E+03 0.  0.
<mgrwt>
<rscale>  0 0.64410247E+03</rscale>
<asrwt>0</asrwt>
<pdfrwt beam="1">  1        2 0.82828361E-01 0.64410247E+03</pdfrwt>
<pdfrwt beam="2">  1       -2 0.25554936E-01 0.64410247E+03</pdfrwt>
<totfact> 0.78093476E+02</totfact>
</mgrwt>
</event>
<event>
 4    1  0.4917371E-005  0.5025395E+03  0.7818608E-02  0.1013118E+00
         -2   -1    0    0    0  501 -0.00000000000E+00  0.00000000000E+00  0.22338255903E+02  0.22338256049E+02  0.25500000000E-02 0. -1.
          2   -1    0    0  501    0  0.00000000000E+00 -0.00000000000E+00 -0.28263836231E+04  0.28263836231E+04  0.25500000000E-02 0.  1.
    5000001    1    1    2    0    0  0.91845221444E+02 -0.90690344271E+02 -0.18720493120E+04  0.18870161393E+04  0.19900000000E+03 0.  0.
   -5000001    1    1    2    0    0 -0.91845221444E+02  0.90690344271E+02 -0.93199605520E+03  0.96170573990E+03  0.19900000000E+03 0.  0.
<mgrwt>
<rscale>  0 0.50253947E+03</rscale>
<asrwt>0</asrwt>
<pdfrwt beam="1">  1        2 0.40376886E+00 0.50253947E+03</pdfrwt>
<pdfrwt beam="2">  1       -2 0.31911812E-02 0.50253947E+03</pdfrwt>
<totfact> 0.12887586E+03</totfact>
</mgrwt>
</event>
<event>
 4    1  0.4917371E-005  0.7971246E+03  0.7818608E-02  0.9564188E-01
         -2   -1    0    0    0  501 -0.00000000000E+00  0.00000000000E+00  0.49584938578E+02  0.49584938644E+02  0.25500000000E-02 0. -1.
          2   -1    0    0  501    0  0.00000000000E+00 -0.00000000000E+00 -0.32036325113E+04  0.32036325113E+04  0.25500000000E-02 0.  1.
    5000001    1    1    2    0    0 -0.32589850242E+03  0.11382643763E+03 -0.15394791344E+04  0.15902085703E+04  0.19900000000E+03 0.  0.
   -5000001    1    1    2    0    0  0.32589850242E+03 -0.11382643763E+03 -0.16145684383E+04  0.16630088796E+04  0.19900000000E+03 0.  0.
<mgrwt>
<rscale>  0 0.79712464E+03</rscale>
<asrwt>0</asrwt>
<pdfrwt beam="1">  1        2 0.45766166E+00 0.79712464E+03</pdfrwt>
<pdfrwt beam="2">  1       -2 0.70835647E-02 0.79712464E+03</pdfrwt>
<totfact> 0.22629683E+02</totfact>
</mgrwt>
</event>
<event>
 4    1  0.4917371E-005  0.1223576E+04  0.7818608E-02  0.9092467E-01
          2   -1    0    0  501    0  0.00000000000E+00  0.00000000000E+00  0.56130624854E+03  0.56130624855E+03  0.25500000000E-02 0.  1.
         -2   -1    0    0    0  501 -0.00000000000E+00 -0.00000000000E+00 -0.66680956766E+03  0.66680956767E+03  0.25500000000E-02 0. -1.
    5000001    1    1    2    0    0  0.40070025248E+02  0.50327240678E+03 -0.33627928361E+03  0.63841481729E+03  0.19900000000E+03 0.  0.
   -5000001    1    1    2    0    0 -0.40070025248E+02 -0.50327240678E+03  0.23077596449E+03  0.58970099893E+03  0.19900000000E+03 0.  0.
<mgrwt>
<rscale>  0 0.12235757E+04</rscale>
<asrwt>0</asrwt>
<pdfrwt beam="1">  1        2 0.80186608E-01 0.12235757E+04</pdfrwt>
<pdfrwt beam="2">  1       -2 0.95258509E-01 0.12235757E+04</pdfrwt>
<totfact> 0.53639183E+01</totfact>
</mgrwt>
</event>
<event>
 4    1  0.4917371E-005  0.4932446E+03  0.7818608E-02  0.1015557E+00
         -2   -1    0    0    0  501 -0.00000000000E+00  0.00000000000E+00  0.20869280764E+02  0.20869280919E+02  0.25500000000E-02 0.  1.
          2   -1    0    0  501    0  0.00000000000E+00 -0.00000000000E+00 -0.29144535199E+04  0.29144535199E+04  0.25500000000E-02 0. -1.
    5000001    1    1    2    0    0  0.40858359985E+02 -0.13906863993E+03 -0.15334523191E+04  0.15530893429E+04  0.19900000000E+03 0.  0.
   -5000001    1    1    2    0    0 -0.40858359985E+02  0.13906863993E+03 -0.13601319201E+04  0.13822334579E+04  0.19900000000E+03 0.  0.
<mgrwt>
<rscale>  0 0.49324456E+03</rscale>
<asrwt>0</asrwt>
<pdfrwt beam="1">  1        2 0.41635024E+00 0.49324456E+03</pdfrwt>
<pdfrwt beam="2">  1       -2 0.29813277E-02 0.49324456E+03</pdfrwt>
<totfact> 0.12837584E+03</totfact>
</mgrwt>
</event>
<event>
 4    1  0.4917371E-005  0.5309004E+03  0.7818608E-02  0.1006014E+00
         -2   -1    0    0    0  501 -0.00000000000E+00  0.00000000000E+00  0.10987402701E+03  0.10987402704E+03  0.25500000000E-02 0. -1.
          2   -1    0    0  501    0  0.00000000000E+00 -0.00000000000E+00 -0.64131440043E+03  0.64131440043E+03  0.25500000000E-02 0.  1.
    5000001    1    1    2    0    0 -0.12276065669E+02 -0.15887415191E+03 -0.16106202158E+03  0.30155210616E+03  0.19900000000E+03 0.  0.
   -5000001    1    1    2    0    0  0.12276065669E+02  0.15887415191E+03 -0.37037835184E+03  0.44963632131E+03  0.19900000000E+03 0.  0.
<mgrwt>
<rscale>  0 0.53090035E+03</rscale>
<asrwt>0</asrwt>
<pdfrwt beam="1">  1        2 0.91616341E-01 0.53090035E+03</pdfrwt>
<pdfrwt beam="2">  1       -2 0.15696290E-01 0.53090035E+03</pdfrwt>
<totfact> 0.16228634E+03</totfact>
</mgrwt>
</event>
<event>
 4    1  0.4917371E-005  0.5810162E+03  0.7818608E-02  0.9945593E-01
          2   -1    0    0  501    0  0.00000000000E+00  0.00000000000E+00  0.94516264905E+03  0.94516264905E+03  0.25500000000E-02 0.  1.
         -2   -1    0    0    0  501 -0.00000000000E+00 -0.00000000000E+00 -0.89291477646E+02  0.89291477682E+02  0.25500000000E-02 0. -1.
    5000001    1    1    2    0    0  0.12483600084E+03 -0.14743757466E+03  0.27403353188E+03  0.38989388572E+03  0.19900000000E+03 0.  0.
   -5000001    1    1    2    0    0 -0.12483600084E+03  0.14743757466E+03  0.58183763952E+03  0.64456024101E+03  0.19900000000E+03 0.  0.
<mgrwt>
<rscale>  0 0.58101625E+03</rscale>
<asrwt>0</asrwt>
<pdfrwt beam="1">  1        2 0.13502323E+00 0.58101625E+03</pdfrwt>
<pdfrwt beam="2">  1       -2 0.12755925E-01 0.58101625E+03</pdfrwt>
<totfact> 0.14032909E+03</totfact>
</mgrwt>
</event>
<event>
 4    1  0.4917371E-005  0.2195172E+04  0.7818608E-02  0.8520440E-01
          2   -1    0    0  501    0  0.00000000000E+00  0.00000000000E+00  0.54376515309E+04  0.54376515309E+04  0.25500000000E-02 0.  1.
         -2   -1    0    0    0  501 -0.00000000000E+00 -0.00000000000E+00 -0.22154702350E+03  0.22154702351E+03  0.25500000000E-02 0. -1.
    5000001    1    1    2    0    0 -0.74529516434E+03  0.27727901016E+03  0.72636960415E+03  0.10952453302E+04  0.19900000000E+03 0.  0.
   -5000001    1    1    2    0    0  0.74529516434E+03 -0.27727901016E+03  0.44897349033E+04  0.45639532242E+04  0.19900000000E+03 0.  0.
<mgrwt>
<rscale>  0 0.21951724E+04</rscale>
<asrwt>0</asrwt>
<pdfrwt beam="1">  1        2 0.77680739E+00 0.21951724E+04</pdfrwt>
<pdfrwt beam="2">  1       -2 0.31649573E-01 0.21951724E+04</pdfrwt>
<totfact> 0.25725215E-01</totfact>
</mgrwt>
</event>
<event>
 4    1  0.4917371E-005  0.5647712E+03  0.7818608E-02  0.9981316E-01
         -2   -1    0    0    0  501 -0.00000000000E+00  0.00000000000E+00  0.10489384017E+03  0.10489384021E+03  0.25500000000E-02 0. -1.
          2   -1    0    0  501    0  0.00000000000E+00 -0.00000000000E+00 -0.76021268812E+03  0.76021268813E+03  0.25500000000E-02 0.  1.
    5000001    1    1    2    0    0 -0.12855949314E+03 -0.10585995429E+03 -0.15704091295E+03  0.30330961333E+03  0.19900000000E+03 0.  0.
   -5000001    1    1    2    0    0  0.12855949314E+03  0.10585995429E+03 -0.49827793499E+03  0.56179691500E+03  0.19900000000E+03 0.  0.
<mgrwt>
<rscale>  0 0.56477120E+03</rscale>
<asrwt>0</asrwt>
<pdfrwt beam="1">  1        2 0.10860181E+00 0.56477120E+03</pdfrwt>
<pdfrwt beam="2">  1       -2 0.14984835E-01 0.56477120E+03</pdfrwt>
<totfact> 0.14257122E+03</totfact>
</mgrwt>
</event>
<event>
 4    1  0.4917371E-005  0.7617656E+03  0.7818608E-02  0.9617071E-01
          2   -1    0    0  501    0  0.00000000000E+00  0.00000000000E+00  0.13852739839E+04  0.13852739839E+04  0.25500000000E-02 0.  1.
         -2   -1    0    0    0  501 -0.00000000000E+00 -0.00000000000E+00 -0.10472420240E+03  0.10472420243E+03  0.25500000000E-02 0. -1.
    5000001    1    1    2    0    0  0.31962734864E+03 -0.55283720439E+02  0.67137320768E+03  0.77172593305E+03  0.19900000000E+03 0.  0.
   -5000001    1    1    2    0    0 -0.31962734864E+03  0.55283720439E+02  0.60917657383E+03  0.71827225329E+03  0.19900000000E+03 0.  0.
<mgrwt>
<rscale>  0 0.76176562E+03</rscale>
<asrwt>0</asrwt>
<pdfrwt beam="1">  1        2 0.19789629E+00 0.76176562E+03</pdfrwt>
<pdfrwt beam="2">  1       -2 0.14960600E-01 0.76176562E+03</pdfrwt>
<totfact> 0.59739269E+02</totfact>
</mgrwt>
</event>
<event>
 4    1  0.4917371E-005  0.4343465E+03  0.7818608E-02  0.1032496E+00
         -2   -1    0    0    0  501 -0.00000000000E+00  0.00000000000E+00  0.36820190832E+02  0.36820190921E+02  0.25500000000E-02 0. -1.
          2   -1    0    0  501    0  0.00000000000E+00 -0.00000000000E+00 -0.12809336286E+04  0.12809336286E+04  0.25500000000E-02 0.  1.
    5000001    1    1    2    0    0 -0.72466375700E+02  0.22055443573E+02 -0.75167828907E+03  0.78125480380E+03  0.19900000000E+03 0.  0.
   -5000001    1    1    2    0    0  0.72466375700E+02 -0.22055443573E+02 -0.49243514867E+03  0.53649901569E+03  0.19900000000E+03 0.  0.
<mgrwt>
<rscale>  0 0.43434650E+03</rscale>
<asrwt>0</asrwt>
<pdfrwt beam="1">  1        2 0.18299049E+00 0.43434650E+03</pdfrwt>
<pdfrwt beam="2">  1       -2 0.52600281E-02 0.43434650E+03</pdfrwt>
<totfact> 0.36852918E+03</totfact>
</mgrwt>
</event>
<event>
 4    1  0.4917371E-005  0.5294379E+03  0.7818608E-02  0.1006369E+00
          2   -1    0    0  501    0  0.00000000000E+00  0.00000000000E+00  0.10686546710E+04  0.10686546710E+04  0.25500000000E-02 0.  1.
         -2   -1    0    0    0  501 -0.00000000000E+00 -0.00000000000E+00 -0.65574153049E+02  0.65574153099E+02  0.25500000000E-02 0. -1.
    5000001    1    1    2    0    0  0.85469062274E+02 -0.13638409360E+03  0.35672242498E+03  0.43904153571E+03  0.19900000000E+03 0.  0.
   -5000001    1    1    2    0    0 -0.85469062274E+02  0.13638409360E+03  0.64635809297E+03  0.69518728839E+03  0.19900000000E+03 0.  0.
<mgrwt>
<rscale>  0 0.52943791E+03</rscale>
<asrwt>0</asrwt>
<pdfrwt beam="1">  1        2 0.15266496E+00 0.52943791E+03</pdfrwt>
<pdfrwt beam="2">  1       -2 0.93677358E-02 0.52943791E+03</pdfrwt>
<totfact> 0.19552757E+03</totfact>
</mgrwt>
</event>
<event>
 4    1  0.4917371E-005  0.5532745E+03  0.7818608E-02  0.1000739E+00
         -2   -1    0    0    0  501 -0.00000000000E+00  0.00000000000E+00  0.12830914085E+03  0.12830914088E+03  0.25500000000E-02 0. -1.
          2   -1    0    0  501    0  0.00000000000E+00 -0.00000000000E+00 -0.59643572331E+03  0.59643572332E+03  0.25500000000E-02 0.  1.
    5000001    1    1    2    0    0  0.13359485153E+03 -0.95486284593E+02 -0.36480570445E+03  0.44682145976E+03  0.19900000000E+03 0.  0.
   -5000001    1    1    2    0    0 -0.13359485153E+03  0.95486284593E+02 -0.10332087801E+03  0.27792340443E+03  0.19900000000E+03 0.  0.
<mgrwt>
<rscale>  0 0.55327445E+03</rscale>
<asrwt>0</asrwt>
<pdfrwt beam="1">  1        2 0.85205102E-01 0.55327445E+03</pdfrwt>
<pdfrwt beam="2">  1       -2 0.18329878E-01 0.55327445E+03</pdfrwt>
<totfact> 0.13575332E+03</totfact>
</mgrwt>
</event>
<event>
 4    1  0.4917371E-005  0.9056180E+03  0.7818608E-02  0.9418586E-01
          2   -1    0    0  501    0  0.00000000000E+00  0.00000000000E+00  0.20983992487E+04  0.20983992487E+04  0.25500000000E-02 0.  1.
         -2   -1    0    0    0  501 -0.00000000000E+00 -0.00000000000E+00 -0.97710674509E+02  0.97710674542E+02  0.25500000000E-02 0. -1.
    5000001    1    1    2    0    0  0.25773978661E+03  0.13234052606E+03  0.16925964979E+04  0.17287069494E+04  0.19900000000E+03 0.  0.
   -5000001    1    1    2    0    0 -0.25773978661E+03 -0.13234052606E+03  0.30809207636E+03  0.46740297384E+03  0.19900000000E+03 0.  0.
<mgrwt>
<rscale>  0 0.90561803E+03</rscale>
<asrwt>0</asrwt>
<pdfrwt beam="1">  1        2 0.29977132E+00 0.90561803E+03</pdfrwt>
<pdfrwt beam="2">  1       -2 0.13958668E-01 0.90561803E+03</pdfrwt>
<totfact> 0.28537161E+02</totfact>
</mgrwt>
</event>
<event>
 4    1  0.4917371E-005  0.4165687E+03  0.7818608E-02  0.1038189E+00
         -2   -1    0    0    0  501 -0.00000000000E+00  0.00000000000E+00  0.83966027564E+02  0.83966027603E+02  0.25500000000E-02 0. -1.
          2   -1    0    0  501    0  0.00000000000E+00 -0.00000000000E+00 -0.51666563694E+03  0.51666563694E+03  0.25500000000E-02 0.  1.
    5000001    1    1    2    0    0 -0.51517534496E+01  0.61030803437E+02 -0.20844433568E+03  0.29462067241E+03  0.19900000000E+03 0.  0.
   -5000001    1    1    2    0    0  0.51517534496E+01 -0.61030803437E+02 -0.22425527369E+03  0.30601099214E+03  0.19900000000E+03 0.  0.
<mgrwt>
<rscale>  0 0.41656866E+03</rscale>
<asrwt>0</asrwt>
<pdfrwt beam="1">  1        2 0.73809375E-01 0.41656866E+03</pdfrwt>
<pdfrwt beam="2">  1       -2 0.11995147E-01 0.41656866E+03</pdfrwt>
<totfact> 0.32503167E+03</totfact>
</mgrwt>
</event>
<event>
 4    1  0.4917371E-005  0.1022830E+04  0.7818608E-02  0.9283854E-01
         -2   -1    0    0    0  501 -0.00000000000E+00  0.00000000000E+00  0.14827043259E+03  0.14827043261E+03  0.25500000000E-02 0. -1.
          2   -1    0    0  501    0  0.00000000000E+00 -0.00000000000E+00 -0.17639746642E+04  0.17639746642E+04  0.25500000000E-02 0.  1.
    5000001    1    1    2    0    0  0.45408003298E+03 -0.25818457317E+02 -0.10375043063E+04  0.11501614907E+04  0.19900000000E+03 0.  0.
   -5000001    1    1    2    0    0 -0.45408003298E+03  0.25818457317E+02 -0.57819992535E+03  0.76208360615E+03  0.19900000000E+03 0.  0.
<mgrwt>
<rscale>  0 0.10228300E+04</rscale>
<asrwt>0</asrwt>
<pdfrwt beam="1">  1        2 0.25199637E+00 0.10228300E+04</pdfrwt>
<pdfrwt beam="2">  1       -2 0.21181492E-01 0.10228300E+04</pdfrwt>
<totfact> 0.20446210E+02</totfact>
</mgrwt>
</event>
<event>
 4    1  0.4917371E-005  0.5234800E+03  0.7818608E-02  0.1007826E+00
         -2   -1    0    0    0  501 -0.00000000000E+00  0.00000000000E+00  0.49086348129E+02  0.49086348195E+02  0.25500000000E-02 0. -1.
          2   -1    0    0  501    0  0.00000000000E+00 -0.00000000000E+00 -0.13956595921E+04  0.13956595921E+04  0.25500000000E-02 0.  1.
    5000001    1    1    2    0    0  0.10495610845E+03 -0.13373568907E+03 -0.66663224542E+03  0.71617076865E+03  0.19900000000E+03 0.  0.
   -5000001    1    1    2    0    0 -0.10495610845E+03  0.13373568907E+03 -0.67994099851E+03  0.72857517161E+03  0.19900000000E+03 0.  0.
<mgrwt>
<rscale>  0 0.52348002E+03</rscale>
<asrwt>0</asrwt>
<pdfrwt beam="1">  1        2 0.19937992E+00 0.52348002E+03</pdfrwt>
<pdfrwt beam="2">  1       -2 0.70123363E-02 0.52348002E+03</pdfrwt>
<totfact> 0.20428045E+03</totfact>
</mgrwt>
</event>
<event>
 4    1  0.4917371E-005  0.6296617E+03  0.7818608E-02  0.9845709E-01
         -2   -1    0    0    0  501 -0.00000000000E+00  0.00000000000E+00  0.47962071076E+02  0.47962071144E+02  0.25500000000E-02 0. -1.
          2   -1    0    0  501    0  0.00000000000E+00 -0.00000000000E+00 -0.20666012491E+04  0.20666012491E+04  0.25500000000E-02 0.  1.
    5000001    1    1    2    0    0  0.23292113863E+03  0.70112561303E+02 -0.94654199533E+03  0.99735188223E+03  0.19900000000E+03 0.  0.
   -5000001    1    1    2    0    0 -0.23292113863E+03 -0.70112561303E+02 -0.10720971827E+04  0.11172114380E+04  0.19900000000E+03 0.  0.
<mgrwt>
<rscale>  0 0.62966174E+03</rscale>
<asrwt>0</asrwt>
<pdfrwt beam="1">  1        2 0.29522869E+00 0.62966174E+03</pdfrwt>
<pdfrwt beam="2">  1       -2 0.68517258E-02 0.62966174E+03</pdfrwt>
<totfact> 0.95990057E+02</totfact>
</mgrwt>
</event>
<event>
 4    1  0.4917371E-005  0.7306488E+03  0.7818608E-02  0.9666208E-01
         -2   -1    0    0    0  501 -0.00000000000E+00  0.00000000000E+00  0.88722179402E+02  0.88722179438E+02  0.25500000000E-02 0. -1.
          2   -1    0    0  501    0  0.00000000000E+00 -0.00000000000E+00 -0.15042679735E+04  0.15042679735E+04  0.25500000000E-02 0.  1.
    5000001    1    1    2    0    0 -0.27647804977E+03  0.81833342685E+02 -0.48199297164E+03  0.59586494501E+03  0.19900000000E+03 0.  0.
   -5000001    1    1    2    0    0  0.27647804977E+03 -0.81833342685E+02 -0.93355282248E+03  0.99712520795E+03  0.19900000000E+03 0.  0.
<mgrwt>
<rscale>  0 0.73064884E+03</rscale>
<asrwt>0</asrwt>
<pdfrwt beam="1">  1        2 0.21489541E+00 0.73064884E+03</pdfrwt>
<pdfrwt beam="2">  1       -2 0.12674598E-01 0.73064884E+03</pdfrwt>
<totfact> 0.68304046E+02</totfact>
</mgrwt>
</event>
<event>
 4    1  0.4917371E-005  0.8447916E+03  0.7818608E-02  0.9497354E-01
         -2   -1    0    0    0  501 -0.00000000000E+00  0.00000000000E+00  0.73251869363E+02  0.73251869408E+02  0.25500000000E-02 0. -1.
          2   -1    0    0  501    0  0.00000000000E+00 -0.00000000000E+00 -0.24356810904E+04  0.24356810904E+04  0.25500000000E-02 0.  1.
    5000001    1    1    2    0    0  0.11726190808E+03 -0.32502237138E+03 -0.76726672097E+03  0.86469018619E+03  0.19900000000E+03 0.  0.
   -5000001    1    1    2    0    0 -0.11726190808E+03  0.32502237138E+03 -0.15951625000E+04  0.16442427736E+04  0.19900000000E+03 0.  0.
<mgrwt>
<rscale>  0 0.84479156E+03</rscale>
<asrwt>0</asrwt>
<pdfrwt beam="1">  1        2 0.34795439E+00 0.84479156E+03</pdfrwt>
<pdfrwt beam="2">  1       -2 0.10464554E-01 0.84479156E+03</pdfrwt>
<totfact> 0.31072087E+02</totfact>
</mgrwt>
</event>
<event>
 4    1  0.4917371E-005  0.4328133E+03  0.7818608E-02  0.1032975E+00
          2   -1    0    0  501    0  0.00000000000E+00  0.00000000000E+00  0.11092009236E+04  0.11092009236E+04  0.25500000000E-02 0.  1.
         -2   -1    0    0    0  501 -0.00000000000E+00 -0.00000000000E+00 -0.42221242735E+02  0.42221242812E+02  0.25500000000E-02 0. -1.
    5000001    1    1    2    0    0  0.49296362751E+02  0.38819191859E+02  0.38081014103E+03  0.43422853953E+03  0.19900000000E+03 0.  0.
   -5000001    1    1    2    0    0 -0.49296362751E+02 -0.38819191859E+02  0.68616953984E+03  0.71719362688E+03  0.19900000000E+03 0.  0.
<mgrwt>
<rscale>  0 0.43281332E+03</rscale>
<asrwt>0</asrwt>
<pdfrwt beam="1">  1        2 0.15845723E+00 0.43281332E+03</pdfrwt>
<pdfrwt beam="2">  1       -2 0.60316077E-02 0.43281332E+03</pdfrwt>
<totfact> 0.37129723E+03</totfact>
</mgrwt>
</event>
<event>
 4    1  0.4917371E-005  0.4413588E+03  0.7818608E-02  0.1030331E+00
          2   -1    0    0  501    0  0.00000000000E+00  0.00000000000E+00  0.55118804191E+02  0.55118804250E+02  0.25500000000E-02 0. -1.
         -2   -1    0    0    0  501 -0.00000000000E+00 -0.00000000000E+00 -0.88353510249E+03  0.88353510250E+03  0.25500000000E-02 0.  1.
    5000001    1    1    2    0    0 -0.76248174360E+02 -0.18523217525E+02 -0.29886323003E+03  0.36752839883E+03  0.19900000000E+03 0.  0.
   -5000001    1    1    2    0    0  0.76248174360E+02  0.18523217525E+02 -0.52955306827E+03  0.57112550792E+03  0.19900000000E+03 0.  0.
<mgrwt>
<rscale>  0 0.44135880E+03</rscale>
<asrwt>0</asrwt>
<pdfrwt beam="1">  1        2 0.78741155E-02 0.44135880E+03</pdfrwt>
<pdfrwt beam="2">  1       -2 0.12621929E+00 0.44135880E+03</pdfrwt>
<totfact> 0.42792184E+02</totfact>
</mgrwt>
</event>
<event>
 4    1  0.4917371E-005  0.7630040E+03  0.7818608E-02  0.9615167E-01
          2   -1    0    0  501    0  0.00000000000E+00  0.00000000000E+00  0.70826926516E+03  0.70826926517E+03  0.25500000000E-02 0.  1.
         -2   -1    0    0    0  501 -0.00000000000E+00 -0.00000000000E+00 -0.20549217848E+03  0.20549217849E+03  0.25500000000E-02 0. -1.
    5000001    1    1    2    0    0 -0.21934272749E+03  0.16961907742E+03  0.47233202115E+02  0.34454874678E+03  0.19900000000E+03 0.  0.
   -5000001    1    1    2    0    0  0.21934272749E+03 -0.16961907742E+03  0.45554388457E+03  0.56921269688E+03  0.19900000000E+03 0.  0.
<mgrwt>
<rscale>  0 0.76300405E+03</rscale>
<asrwt>0</asrwt>
<pdfrwt beam="1">  1        2 0.10118132E+00 0.76300405E+03</pdfrwt>
<pdfrwt beam="2">  1       -2 0.29356026E-01 0.76300405E+03</pdfrwt>
<totfact> 0.47514657E+02</totfact>
</mgrwt>
</event>
<event>
 4    1  0.4917371E-005  0.5737245E+03  0.7818608E-02  0.9961471E-01
         -2   -1    0    0    0  501 -0.00000000000E+00  0.00000000000E+00  0.67917338511E+02  0.67917338559E+02  0.25500000000E-02 0. -1.
          2   -1    0    0  501    0  0.00000000000E+00 -0.00000000000E+00 -0.12116191664E+04  0.12116191664E+04  0.25500000000E-02 0.  1.
    5000001    1    1    2    0    0  0.41499617279E+02  0.11185293369E+03 -0.19563812102E+03  0.30349393966E+03  0.19900000000E+03 0.  0.
   -5000001    1    1    2    0    0 -0.41499617279E+02 -0.11185293369E+03 -0.94806370686E+03  0.97604256530E+03  0.19900000000E+03 0.  0.
<mgrwt>
<rscale>  0 0.57372450E+03</rscale>
<asrwt>0</asrwt>
<pdfrwt beam="1">  1        2 0.17308844E+00 0.57372450E+03</pdfrwt>
<pdfrwt beam="2">  1       -2 0.97024777E-02 0.57372450E+03</pdfrwt>
<totfact> 0.15298224E+03</totfact>
</mgrwt>
</event>
<event>
 4    1  0.4917371E-005  0.5297148E+03  0.7818608E-02  0.1006301E+00
          2   -1    0    0  501    0  0.00000000000E+00  0.00000000000E+00  0.34186106528E+03  0.34186106529E+03  0.25500000000E-02 0.  1.
         -2   -1    0    0    0  501 -0.00000000000E+00 -0.00000000000E+00 -0.20519871153E+03  0.20519871155E+03  0.25500000000E-02 0. -1.
    5000001    1    1    2    0    0  0.17877274293E+02  0.16952814195E+03  0.28479272123E+02  0.26357438568E+03  0.19900000000E+03 0.  0.
   -5000001    1    1    2    0    0 -0.17877274293E+02 -0.16952814195E+03  0.10818308163E+03  0.28348539116E+03  0.19900000000E+03 0.  0.
<mgrwt>
<rscale>  0 0.52971483E+03</rscale>
<asrwt>0</asrwt>
<pdfrwt beam="1">  1        2 0.48837295E-01 0.52971483E+03</pdfrwt>
<pdfrwt beam="2">  1       -2 0.29314102E-01 0.52971483E+03</pdfrwt>
<totfact> 0.11040146E+03</totfact>
</mgrwt>
</event>
<event>
 4    1  0.4917371E-005  0.7314310E+03  0.7818608E-02  0.9664941E-01
          2   -1    0    0  501    0  0.00000000000E+00  0.00000000000E+00  0.17229180357E+04  0.17229180357E+04  0.25500000000E-02 0.  1.
         -2   -1    0    0    0  501 -0.00000000000E+00 -0.00000000000E+00 -0.77628675298E+02  0.77628675340E+02  0.25500000000E-02 0. -1.
    5000001    1    1    2    0    0  0.29110431689E+02  0.20050011120E+03  0.13898949558E+04  0.14186108346E+04  0.19900000000E+03 0.  0.
   -5000001    1    1    2    0    0 -0.29110431689E+02 -0.20050011120E+03  0.25539440459E+03  0.38193587645E+03  0.19900000000E+03 0.  0.
<mgrwt>
<rscale>  0 0.73143105E+03</rscale>
<asrwt>0</asrwt>
<pdfrwt beam="1">  1        2 0.24613114E+00 0.73143105E+03</pdfrwt>
<pdfrwt beam="2">  1       -2 0.11089811E-01 0.73143105E+03</pdfrwt>
<totfact> 0.65636772E+02</totfact>
</mgrwt>
</event>
<event>
 4    1  0.4917371E-005  0.4686171E+03  0.7818608E-02  0.1022311E+00
         -2   -1    0    0    0  501 -0.00000000000E+00  0.00000000000E+00  0.31691731391E+03  0.31691731392E+03  0.25500000000E-02 0. -1.
          2   -1    0    0  501    0  0.00000000000E+00 -0.00000000000E+00 -0.17323285747E+03  0.17323285749E+03  0.25500000000E-02 0.  1.
    5000001    1    1    2    0    0  0.96633228102E+02 -0.54025409168E+02  0.12953818000E+03  0.26198829303E+03  0.19900000000E+03 0.  0.
   -5000001    1    1    2    0    0 -0.96633228102E+02  0.54025409168E+02  0.14146276449E+02  0.22816187838E+03  0.19900000000E+03 0.  0.
<mgrwt>
<rscale>  0 0.46861708E+03</rscale>
<asrwt>0</asrwt>
<pdfrwt beam="1">  1        2 0.24747551E-01 0.46861708E+03</pdfrwt>
<pdfrwt beam="2">  1       -2 0.45273902E-01 0.46861708E+03</pdfrwt>
<totfact> 0.10268669E+03</totfact>
</mgrwt>
</event>
<event>
 4    1  0.4917371E-005  0.5127515E+03  0.7818608E-02  0.1010503E+00
         -2   -1    0    0    0  501 -0.00000000000E+00  0.00000000000E+00  0.28438066956E+02  0.28438067070E+02  0.25500000000E-02 0. -1.
          2   -1    0    0  501    0  0.00000000000E+00 -0.00000000000E+00 -0.23112866695E+04  0.23112866695E+04  0.25500000000E-02 0.  1.
    5000001    1    1    2    0    0  0.15515425294E+03  0.33648148884E+02 -0.10028325126E+04  0.10346395935E+04  0.19900000000E+03 0.  0.
   -5000001    1    1    2    0    0 -0.15515425294E+03 -0.33648148884E+02 -0.12800160899E+04  0.13050851431E+04  0.19900000000E+03 0.  0.
<mgrwt>
<rscale>  0 0.51275150E+03</rscale>
<asrwt>0</asrwt>
<pdfrwt beam="1">  1        2 0.33018369E+00 0.51275150E+03</pdfrwt>
<pdfrwt beam="2">  1       -2 0.40625825E-02 0.51275150E+03</pdfrwt>
<totfact> 0.16405346E+03</totfact>
</mgrwt>
</event>
<event>
 4    1  0.4917371E-005  0.4638416E+03  0.7818608E-02  0.1023673E+00
          2   -1    0    0  501    0  0.00000000000E+00  0.00000000000E+00  0.13100220591E+04  0.13100220591E+04  0.25500000000E-02 0.  1.
         -2   -1    0    0    0  501 -0.00000000000E+00 -0.00000000000E+00 -0.41058277216E+02  0.41058277295E+02  0.25500000000E-02 0. -1.
    5000001    1    1    2    0    0  0.54834878463E+02 -0.73913404534E+02  0.41425772270E+03  0.46870088125E+03  0.19900000000E+03 0.  0.
   -5000001    1    1    2    0    0 -0.54834878463E+02  0.73913404534E+02  0.85470605919E+03  0.88237945516E+03  0.19900000000E+03 0.  0.
<mgrwt>
<rscale>  0 0.46384156E+03</rscale>
<asrwt>0</asrwt>
<pdfrwt beam="1">  1        2 0.18714600E+00 0.46384156E+03</pdfrwt>
<pdfrwt beam="2">  1       -2 0.58654685E-02 0.46384156E+03</pdfrwt>
<totfact> 0.30029987E+03</totfact>
</mgrwt>
</event>
<event>
 4    1  0.4917371E-005  0.5999910E+03  0.7818608E-02  0.9905425E-01
         -2   -1    0    0    0  501 -0.00000000000E+00  0.00000000000E+00  0.85604625220E+02  0.85604625258E+02  0.25500000000E-02 0. -1.
          2   -1    0    0  501    0  0.00000000000E+00 -0.00000000000E+00 -0.10513133768E+04  0.10513133768E+04  0.25500000000E-02 0.  1.
    5000001    1    1    2    0    0  0.13108577959E+03 -0.18222657146E+03 -0.47810477827E+03  0.56442464862E+03  0.19900000000E+03 0.  0.
   -5000001    1    1    2    0    0 -0.13108577959E+03  0.18222657146E+03 -0.48760397332E+03  0.57249335345E+03  0.19900000000E+03 0.  0.
<mgrwt>
<rscale>  0 0.59999096E+03</rscale>
<asrwt>0</asrwt>
<pdfrwt beam="1">  1        2 0.15018762E+00 0.59999096E+03</pdfrwt>
<pdfrwt beam="2">  1       -2 0.12229233E-01 0.59999096E+03</pdfrwt>
<totfact> 0.12956412E+03</totfact>
</mgrwt>
</event>
<event>
 4    1  0.4917371E-005  0.5614090E+03  0.7818608E-02  0.9988872E-01
          2   -1    0    0  501    0  0.00000000000E+00  0.00000000000E+00  0.13084065456E+04  0.13084065456E+04  0.25500000000E-02 0.  1.
         -2   -1    0    0    0  501 -0.00000000000E+00 -0.00000000000E+00 -0.60222121890E+02  0.60222121944E+02  0.25500000000E-02 0. -1.
    5000001    1    1    2    0    0  0.15588731674E+03 -0.90916411839E+02  0.42563045412E+03  0.50331792432E+03  0.19900000000E+03 0.  0.
   -5000001    1    1    2    0    0 -0.15588731674E+03  0.90916411839E+02  0.82255396962E+03  0.86531074326E+03  0.19900000000E+03 0.  0.
<mgrwt>
<rscale>  0 0.56140901E+03</rscale>
<asrwt>0</asrwt>
<pdfrwt beam="1">  1        2 0.18691521E+00 0.56140901E+03</pdfrwt>
<pdfrwt beam="2">  1       -2 0.86031607E-02 0.56140901E+03</pdfrwt>
<totfact> 0.16427848E+03</totfact>
</mgrwt>
</event>
<event>
 4    1  0.4917371E-005  0.6793463E+03  0.7818608E-02  0.9753220E-01
         -2   -1    0    0    0  501 -0.00000000000E+00  0.00000000000E+00  0.44073581002E+02  0.44073581076E+02  0.25500000000E-02 0. -1.
          2   -1    0    0  501    0  0.00000000000E+00 -0.00000000000E+00 -0.26178459824E+04  0.26178459824E+04  0.25500000000E-02 0.  1.
    5000001    1    1    2    0    0  0.87143232696E+02  0.24708260967E+03 -0.95595134661E+03  0.10109835489E+04  0.19900000000E+03 0.  0.
   -5000001    1    1    2    0    0 -0.87143232696E+02 -0.24708260967E+03 -0.16178210548E+04  0.16509360146E+04  0.19900000000E+03 0.  0.
<mgrwt>
<rscale>  0 0.67934629E+03</rscale>
<asrwt>0</asrwt>
<pdfrwt beam="1">  1        2 0.37397790E+00 0.67934629E+03</pdfrwt>
<pdfrwt beam="2">  1       -2 0.62962276E-02 0.67934629E+03</pdfrwt>
<totfact> 0.57226421E+02</totfact>
</mgrwt>
</event>
<event>
 4    1  0.4917371E-005  0.9521997E+03  0.7818608E-02  0.9362583E-01
          2   -1    0    0  501    0  0.00000000000E+00  0.00000000000E+00  0.12458959859E+04  0.12458959859E+04  0.25500000000E-02 0.  1.
         -2   -1    0    0    0  501 -0.00000000000E+00 -0.00000000000E+00 -0.18193418973E+03  0.18193418975E+03  0.25500000000E-02 0. -1.
    5000001    1    1    2    0    0 -0.41974540300E+03  0.73731791387E+02  0.42130654854E+03  0.63144500018E+03  0.19900000000E+03 0.  0.
   -5000001    1    1    2    0    0  0.41974540300E+03 -0.73731791387E+02  0.64265524762E+03  0.79638517546E+03  0.19900000000E+03 0.  0.
<mgrwt>
<rscale>  0 0.95219972E+03</rscale>
<asrwt>0</asrwt>
<pdfrwt beam="1">  1        2 0.17798514E+00 0.95219972E+03</pdfrwt>
<pdfrwt beam="2">  1       -2 0.25990599E-01 0.95219972E+03</pdfrwt>
<totfact> 0.26830786E+02</totfact>
</mgrwt>
</event>
<event>
 4    1  0.4917371E-005  0.5811612E+03  0.7818608E-02  0.9945280E-01
          2   -1    0    0  501    0  0.00000000000E+00  0.00000000000E+00  0.24109189661E+04  0.24109189661E+04  0.25500000000E-02 0.  1.
         -2   -1    0    0    0  501 -0.00000000000E+00 -0.00000000000E+00 -0.35022781133E+02  0.35022781226E+02  0.25500000000E-02 0. -1.
    5000001    1    1    2    0    0 -0.11521546806E+03  0.17635555449E+03  0.12782347568E+04  0.13106719572E+04  0.19900000000E+03 0.  0.
   -5000001    1    1    2    0    0  0.11521546806E+03 -0.17635555449E+03  0.10976614281E+04  0.11352697902E+04  0.19900000000E+03 0.  0.
<mgrwt>
<rscale>  0 0.58116121E+03</rscale>
<asrwt>0</asrwt>
<pdfrwt beam="1">  1        2 0.34441704E+00 0.58116121E+03</pdfrwt>
<pdfrwt beam="2">  1       -2 0.50032539E-02 0.58116121E+03</pdfrwt>
<totfact> 0.10550210E+03</totfact>
</mgrwt>
</event>
<event>
 4    1  0.4917371E-005  0.4901899E+03  0.7818608E-02  0.1016372E+00
         -2   -1    0    0    0  501 -0.00000000000E+00  0.00000000000E+00  0.17834543092E+03  0.17834543094E+03  0.25500000000E-02 0. -1.
          2   -1    0    0  501    0  0.00000000000E+00 -0.00000000000E+00 -0.33682685334E+03  0.33682685335E+03  0.25500000000E-02 0.  1.
    5000001    1    1    2    0    0  0.66582619086E+02 -0.84457093882E+02  0.19930966259E+02  0.22707815678E+03  0.19900000000E+03 0.  0.
   -5000001    1    1    2    0    0 -0.66582619086E+02  0.84457093882E+02 -0.17841238868E+03  0.28809412751E+03  0.19900000000E+03 0.  0.
<mgrwt>
<rscale>  0 0.49018988E+03</rscale>
<asrwt>0</asrwt>
<pdfrwt beam="1">  1        2 0.48118122E-01 0.49018988E+03</pdfrwt>
<pdfrwt beam="2">  1       -2 0.25477919E-01 0.49018988E+03</pdfrwt>
<totfact> 0.14471169E+03</totfact>
</mgrwt>
</event>
<event>
 4    1  0.4917371E-005  0.1364454E+04  0.7818608E-02  0.8979958E-01
          2   -1    0    0  501    0  0.00000000000E+00  0.00000000000E+00  0.21633979840E+04  0.21633979841E+04  0.25500000000E-02 0.  1.
         -2   -1    0    0    0  501 -0.00000000000E+00 -0.00000000000E+00 -0.21514005876E+03  0.21514005878E+03  0.25500000000E-02 0. -1.
    5000001    1    1    2    0    0 -0.42622747279E+02 -0.62196094686E+03  0.13102599752E+04  0.14645935684E+04  0.19900000000E+03 0.  0.
   -5000001    1    1    2    0    0  0.42622747279E+02  0.62196094686E+03  0.63799795007E+03  0.91394447441E+03  0.19900000000E+03 0.  0.
<mgrwt>
<rscale>  0 0.13644538E+04</rscale>
<asrwt>0</asrwt>
<pdfrwt beam="1">  1        2 0.30905689E+00 0.13644538E+04</pdfrwt>
<pdfrwt beam="2">  1       -2 0.30734291E-01 0.13644538E+04</pdfrwt>
<totfact> 0.63272618E+01</totfact>
</mgrwt>
</event>
<event>
 4    1  0.4917371E-005  0.6826450E+03  0.7818608E-02  0.9747381E-01
          2   -1    0    0  501    0  0.00000000000E+00  0.00000000000E+00  0.58164560301E+03  0.58164560302E+03  0.25500000000E-02 0.  1.
         -2   -1    0    0    0  501 -0.00000000000E+00 -0.00000000000E+00 -0.20029559243E+03  0.20029559244E+03  0.25500000000E-02 0. -1.
    5000001    1    1    2    0    0 -0.11494653928E+03 -0.24165413299E+03  0.10735819856E+03  0.35033727989E+03  0.19900000000E+03 0.  0.
   -5000001    1    1    2    0    0  0.11494653928E+03  0.24165413299E+03  0.27399181203E+03  0.43160391557E+03  0.19900000000E+03 0.  0.
<mgrwt>
<rscale>  0 0.68264500E+03</rscale>
<asrwt>0</asrwt>
<pdfrwt beam="1">  1        2 0.83092228E-01 0.68264500E+03</pdfrwt>
<pdfrwt beam="2">  1       -2 0.28613656E-01 0.68264500E+03</pdfrwt>
<totfact> 0.63278476E+02</totfact>
</mgrwt>
</event>
<event>
 4    1  0.4917371E-005  0.1195508E+04  0.7818608E-02  0.9116798E-01
          2   -1    0    0  501    0  0.00000000000E+00  0.00000000000E+00  0.16651088232E+04  0.16651088232E+04  0.25500000000E-02 0.  1.
         -2   -1    0    0    0  501 -0.00000000000E+00 -0.00000000000E+00 -0.21458638395E+03  0.21458638397E+03  0.25500000000E-02 0. -1.
    5000001    1    1    2    0    0 -0.26141974573E+03 -0.63371685870E+02  0.15040689004E+04  0.15408376005E+04  0.19900000000E+03 0.  0.
   -5000001    1    1    2    0    0  0.26141974573E+03  0.63371685870E+02 -0.53546461221E+02  0.33885760658E+03  0.19900000000E+03 0.  0.
<mgrwt>
<rscale>  0 0.11955077E+04</rscale>
<asrwt>0</asrwt>
<pdfrwt beam="1">  1        2 0.23787270E+00 0.11955077E+04</pdfrwt>
<pdfrwt beam="2">  1       -2 0.30655197E-01 0.11955077E+04</pdfrwt>
<totfact> 0.11618367E+02</totfact>
</mgrwt>
</event>
<event>
 4    1  0.4917371E-005  0.5304739E+03  0.7818608E-02  0.1006117E+00
         -2   -1    0    0    0  501 -0.00000000000E+00  0.00000000000E+00  0.44088014315E+02  0.44088014389E+02  0.25500000000E-02 0. -1.
          2   -1    0    0  501    0  0.00000000000E+00 -0.00000000000E+00 -0.15956865374E+04  0.15956865374E+04  0.25500000000E-02 0.  1.
    5000001    1    1    2    0    0  0.10710310851E+03  0.10715201018E+03 -0.50284840511E+03  0.56161387773E+03  0.19900000000E+03 0.  0.
   -5000001    1    1    2    0    0 -0.10710310851E+03 -0.10715201018E+03 -0.10487501180E+04  0.10781606741E+04  0.19900000000E+03 0.  0.
<mgrwt>
<rscale>  0 0.53047394E+03</rscale>
<asrwt>0</asrwt>
<pdfrwt beam="1">  1        2 0.22795518E+00 0.53047394E+03</pdfrwt>
<pdfrwt beam="2">  1       -2 0.62982888E-02 0.53047394E+03</pdfrwt>
<totfact> 0.19032221E+03</totfact>
</mgrwt>
</event>
<event>
 4    1  0.4917371E-005  0.8182774E+03  0.7818608E-02  0.9533932E-01
          2   -1    0    0  501    0  0.00000000000E+00  0.00000000000E+00  0.60742060871E+03  0.60742060871E+03  0.25500000000E-02 0.  1.
         -2   -1    0    0    0  501 -0.00000000000E+00 -0.00000000000E+00 -0.27558248551E+03  0.27558248553E+03  0.25500000000E-02 0. -1.
    5000001    1    1    2    0    0 -0.49943281852E+01  0.31997914293E+03  0.33783795443E+03  0.50610974964E+03  0.19900000000E+03 0.  0.
   -5000001    1    1    2    0    0  0.49943281852E+01 -0.31997914293E+03 -0.59998312384E+01  0.37689334460E+03  0.19900000000E+03 0.  0.
<mgrwt>
<rscale>  0 0.81827741E+03</rscale>
<asrwt>0</asrwt>
<pdfrwt beam="1">  1        2 0.86774370E-01 0.81827741E+03</pdfrwt>
<pdfrwt beam="2">  1       -2 0.39368928E-01 0.81827741E+03</pdfrwt>
<totfact> 0.32760148E+02</totfact>
</mgrwt>
</event>
<event>
 4    1  0.4917371E-005  0.4968602E+03  0.7818608E-02  0.1014602E+00
         -2   -1    0    0    0  501 -0.00000000000E+00  0.00000000000E+00  0.32261544502E+03  0.32261544503E+03  0.25500000000E-02 0. -1.
          2   -1    0    0  501    0  0.00000000000E+00 -0.00000000000E+00 -0.19130362769E+03  0.19130362770E+03  0.25500000000E-02 0.  1.
    5000001    1    1    2    0    0 -0.14461692605E+03 -0.32540796043E+02  0.53263477086E+02  0.25379313761E+03  0.19900000000E+03 0.  0.
   -5000001    1    1    2    0    0  0.14461692605E+03  0.32540796043E+02  0.78048340251E+02  0.26012593512E+03  0.19900000000E+03 0.  0.
<mgrwt>
<rscale>  0 0.49686016E+03</rscale>
<asrwt>0</asrwt>
<pdfrwt beam="1">  1        2 0.27329090E-01 0.49686016E+03</pdfrwt>
<pdfrwt beam="2">  1       -2 0.46087921E-01 0.49686016E+03</pdfrwt>
<totfact> 0.88599925E+02</totfact>
</mgrwt>
</event>
<event>
 4    1  0.4917371E-005  0.5387860E+03  0.7818608E-02  0.1004123E+00
         -2   -1    0    0    0  501 -0.00000000000E+00  0.00000000000E+00  0.44045677519E+03  0.44045677520E+03  0.25500000000E-02 0. -1.
          2   -1    0    0  501    0  0.00000000000E+00 -0.00000000000E+00 -0.16476665653E+03  0.16476665655E+03  0.25500000000E-02 0.  1.
    5000001    1    1    2    0    0  0.55791184327E+02 -0.16889290677E+03  0.17887462060E+03  0.32130141627E+03  0.19900000000E+03 0.  0.
   -5000001    1    1    2    0    0 -0.55791184327E+02  0.16889290677E+03  0.96815498068E+02  0.28392201547E+03  0.19900000000E+03 0.  0.
<mgrwt>
<rscale>  0 0.53878601E+03</rscale>
<asrwt>0</asrwt>
<pdfrwt beam="1">  1        2 0.23538094E-01 0.53878601E+03</pdfrwt>
<pdfrwt beam="2">  1       -2 0.62922397E-01 0.53878601E+03</pdfrwt>
<totfact> 0.55418662E+02</totfact>
</mgrwt>
</event>
<event>
 4    1  0.4917371E-005  0.5223091E+03  0.7818608E-02  0.1008115E+00
         -2   -1    0    0    0  501 -0.00000000000E+00  0.00000000000E+00  0.23110569176E+03  0.23110569177E+03  0.25500000000E-02 0. -1.
          2   -1    0    0  501    0  0.00000000000E+00 -0.00000000000E+00 -0.29511040771E+03  0.29511040772E+03  0.25500000000E-02 0.  1.
    5000001    1    1    2    0    0 -0.12568614630E+03 -0.11214444168E+03 -0.16812717304E+02  0.26126050339E+03  0.19900000000E+03 0.  0.
   -5000001    1    1    2    0    0  0.12568614630E+03  0.11214444168E+03 -0.47191998650E+02  0.26495559610E+03  0.19900000000E+03 0.  0.
<mgrwt>
<rscale>  0 0.52230908E+03</rscale>
<asrwt>0</asrwt>
<pdfrwt beam="1">  1        2 0.42158630E-01 0.52230908E+03</pdfrwt>
<pdfrwt beam="2">  1       -2 0.33015099E-01 0.52230908E+03</pdfrwt>
<totfact> 0.10411069E+03</totfact>
</mgrwt>
</event>
<event>
 4    1  0.4917371E-005  0.7200152E+03  0.7818608E-02  0.9683603E-01
          2   -1    0    0  501    0  0.00000000000E+00  0.00000000000E+00  0.22396977670E+04  0.22396977670E+04  0.25500000000E-02 0.  1.
         -2   -1    0    0    0  501 -0.00000000000E+00 -0.00000000000E+00 -0.57867385740E+02  0.57867385796E+02  0.25500000000E-02 0. -1.
    5000001    1    1    2    0    0  0.15596336944E+03 -0.24977120200E+03  0.12740635681E+04  0.13227052588E+04  0.19900000000E+03 0.  0.
   -5000001    1    1    2    0    0 -0.15596336944E+03  0.24977120200E+03  0.90776681311E+03  0.97485989401E+03  0.19900000000E+03 0.  0.
<mgrwt>
<rscale>  0 0.72001515E+03</rscale>
<asrwt>0</asrwt>
<pdfrwt beam="1">  1        2 0.31995680E+00 0.72001515E+03</pdfrwt>
<pdfrwt beam="2">  1       -2 0.82667699E-02 0.72001515E+03</pdfrwt>
<totfact> 0.57874701E+02</totfact>
</mgrwt>
</event>
<event>
 4    1  0.4917371E-005  0.7607821E+03  0.7818608E-02  0.9618585E-01
          2   -1    0    0  501    0  0.00000000000E+00  0.00000000000E+00  0.25260859537E+04  0.25260859537E+04  0.25500000000E-02 0.  1.
         -2   -1    0    0    0  501 -0.00000000000E+00 -0.00000000000E+00 -0.57281250821E+02  0.57281250878E+02  0.25500000000E-02 0. -1.
    5000001    1    1    2    0    0  0.28465349242E+03 -0.12914404197E+03  0.15263229707E+04  0.15706586533E+04  0.19900000000E+03 0.  0.
   -5000001    1    1    2    0    0 -0.28465349242E+03  0.12914404197E+03  0.94248173214E+03  0.10127085512E+04  0.19900000000E+03 0.  0.
<mgrwt>
<rscale>  0 0.76078213E+03</rscale>
<asrwt>0</asrwt>
<pdfrwt beam="1">  1        2 0.36086946E+00 0.76078213E+03</pdfrwt>
<pdfrwt beam="2">  1       -2 0.81830349E-02 0.76078213E+03</pdfrwt>
<totfact> 0.41835992E+02</totfact>
</mgrwt>
</event>
<event>
 4    1  0.4917371E-005  0.6102255E+03  0.7818608E-02  0.9884416E-01
         -2   -1    0    0    0  501 -0.00000000000E+00  0.00000000000E+00  0.53053610702E+02  0.53053610763E+02  0.25500000000E-02 0. -1.
          2   -1    0    0  501    0  0.00000000000E+00 -0.00000000000E+00 -0.17547114862E+04  0.17547114862E+04  0.25500000000E-02 0.  1.
    5000001    1    1    2    0    0 -0.16933600013E+02  0.15181711121E+03 -0.33637079789E+03  0.41962065695E+03  0.19900000000E+03 0.  0.
   -5000001    1    1    2    0    0  0.16933600013E+02 -0.15181711121E+03 -0.13652870776E+04  0.13881444400E+04  0.19900000000E+03 0.  0.
<mgrwt>
<rscale>  0 0.61022547E+03</rscale>
<asrwt>0</asrwt>
<pdfrwt beam="1">  1        2 0.25067303E+00 0.61022547E+03</pdfrwt>
<pdfrwt beam="2">  1       -2 0.75790883E-02 0.61022547E+03</pdfrwt>
<totfact> 0.11760058E+03</totfact>
</mgrwt>
</event>
<event>
 4    1  0.4917371E-005  0.1379809E+04  0.7818608E-02  0.8968565E-01
         -2   -1    0    0    0  501 -0.00000000000E+00  0.00000000000E+00  0.35935439809E+03  0.35935439810E+03  0.25500000000E-02 0. -1.
          2   -1    0    0  501    0  0.00000000000E+00 -0.00000000000E+00 -0.13245088483E+04  0.13245088483E+04  0.25500000000E-02 0.  1.
    5000001    1    1    2    0    0 -0.30373037577E+03 -0.43416187329E+03 -0.11635864048E+01  0.56599560715E+03  0.19900000000E+03 0.  0.
   -5000001    1    1    2    0    0  0.30373037577E+03  0.43416187329E+03 -0.96399086383E+03  0.11178676393E+04  0.19900000000E+03 0.  0.
<mgrwt>
<rscale>  0 0.13798088E+04</rscale>
<asrwt>0</asrwt>
<pdfrwt beam="1">  1        2 0.18921555E+00 0.13798088E+04</pdfrwt>
<pdfrwt beam="2">  1       -2 0.51336343E-01 0.13798088E+04</pdfrwt>
<totfact> 0.63635572E+01</totfact>
</mgrwt>
</event>
<event>
 4    1  0.4917371E-005  0.5970600E+03  0.7818608E-02  0.9911524E-01
          2   -1    0    0  501    0  0.00000000000E+00  0.00000000000E+00  0.49633415921E+03  0.49633415922E+03  0.25500000000E-02 0.  1.
         -2   -1    0    0    0  501 -0.00000000000E+00 -0.00000000000E+00 -0.17955679530E+03  0.17955679532E+03  0.25500000000E-02 0. -1.
    5000001    1    1    2    0    0  0.26214515945E+01 -0.17479799086E+03  0.25215836276E+01  0.26489350313E+03  0.19900000000E+03 0.  0.
   -5000001    1    1    2    0    0 -0.26214515945E+01  0.17479799086E+03  0.31425578029E+03  0.41099745141E+03  0.19900000000E+03 0.  0.
<mgrwt>
<rscale>  0 0.59706003E+03</rscale>
<asrwt>0</asrwt>
<pdfrwt beam="1">  1        2 0.70904882E-01 0.59706003E+03</pdfrwt>
<pdfrwt beam="2">  1       -2 0.25650970E-01 0.59706003E+03</pdfrwt>
<totfact> 0.92860449E+02</totfact>
</mgrwt>
</event>
<event>
 4    1  0.4917371E-005  0.5283507E+03  0.7818608E-02  0.1006633E+00
          2   -1    0    0  501    0  0.00000000000E+00  0.00000000000E+00  0.74256098105E+03  0.74256098105E+03  0.25500000000E-02 0.  1.
         -2   -1    0    0    0  501 -0.00000000000E+00 -0.00000000000E+00 -0.93983687911E+02  0.93983687946E+02  0.25500000000E-02 0. -1.
    5000001    1    1    2    0    0 -0.16865093214E+02 -0.16606329799E+03  0.24792485429E+03  0.35906710193E+03  0.19900000000E+03 0.  0.
   -5000001    1    1    2    0    0  0.16865093214E+02  0.16606329799E+03  0.40065243884E+03  0.47747756707E+03  0.19900000000E+03 0.  0.
<mgrwt>
<rscale>  0 0.52835072E+03</rscale>
<asrwt>0</asrwt>
<pdfrwt beam="1">  1        2 0.10608013E+00 0.52835072E+03</pdfrwt>
<pdfrwt beam="2">  1       -2 0.13426242E-01 0.52835072E+03</pdfrwt>
<totfact> 0.17640571E+03</totfact>
</mgrwt>
</event>
<event>
 4    1  0.4917371E-005  0.7572553E+03  0.7818608E-02  0.9624036E-01
         -2   -1    0    0    0  501 -0.00000000000E+00  0.00000000000E+00  0.24583029125E+03  0.24583029126E+03  0.25500000000E-02 0. -1.
          2   -1    0    0  501    0  0.00000000000E+00 -0.00000000000E+00 -0.58316204322E+03  0.58316204322E+03  0.25500000000E-02 0.  1.
    5000001    1    1    2    0    0 -0.25061936022E+03 -0.15451358800E+03 -0.25622424784E+02  0.35628923819E+03  0.19900000000E+03 0.  0.
   -5000001    1    1    2    0    0  0.25061936022E+03  0.15451358800E+03 -0.31170932719E+03  0.47270309630E+03  0.19900000000E+03 0.  0.
<mgrwt>
<rscale>  0 0.75725529E+03</rscale>
<asrwt>0</asrwt>
<pdfrwt beam="1">  1        2 0.83308863E-01 0.75725529E+03</pdfrwt>
<pdfrwt beam="2">  1       -2 0.35118613E-01 0.75725529E+03</pdfrwt>
<totfact> 0.42919842E+02</totfact>
</mgrwt>
</event>
<event>
 4    1  0.4917371E-005  0.6066314E+03  0.7818608E-02  0.9891743E-01
          2   -1    0    0  501    0  0.00000000000E+00  0.00000000000E+00  0.12443835677E+04  0.12443835677E+04  0.25500000000E-02 0.  1.
         -2   -1    0    0    0  501 -0.00000000000E+00 -0.00000000000E+00 -0.73932528904E+02  0.73932528948E+02  0.25500000000E-02 0. -1.
    5000001    1    1    2    0    0  0.21000201000E+03 -0.23041318395E+02  0.39369400648E+03  0.48910910572E+03  0.19900000000E+03 0.  0.
   -5000001    1    1    2    0    0 -0.21000201000E+03  0.23041318395E+02  0.77675703227E+03  0.82920699089E+03  0.19900000000E+03 0.  0.
<mgrwt>
<rscale>  0 0.60663143E+03</rscale>
<asrwt>0</asrwt>
<pdfrwt beam="1">  1        2 0.17776908E+00 0.60663143E+03</pdfrwt>
<pdfrwt beam="2">  1       -2 0.10561790E-01 0.60663143E+03</pdfrwt>
<totfact> 0.12773590E+03</totfact>
</mgrwt>
</event>
<event>
 4    1  0.4917371E-005  0.6451685E+03  0.7818608E-02  0.9815888E-01
          2   -1    0    0  501    0  0.00000000000E+00  0.00000000000E+00  0.95743118155E+03  0.95743118155E+03  0.25500000000E-02 0.  1.
         -2   -1    0    0    0  501 -0.00000000000E+00 -0.00000000000E+00 -0.10868728318E+03  0.10868728321E+03  0.25500000000E-02 0. -1.
    5000001    1    1    2    0    0 -0.36405758436E+02  0.23092115610E+03  0.26070585057E+03  0.40276357842E+03  0.19900000000E+03 0.  0.
   -5000001    1    1    2    0    0  0.36405758436E+02 -0.23092115610E+03  0.58803804780E+03  0.66335488634E+03  0.19900000000E+03 0.  0.
<mgrwt>
<rscale>  0 0.64516849E+03</rscale>
<asrwt>0</asrwt>
<pdfrwt beam="1">  1        2 0.13677588E+00 0.64516849E+03</pdfrwt>
<pdfrwt beam="2">  1       -2 0.15526755E-01 0.64516849E+03</pdfrwt>
<totfact> 0.99090010E+02</totfact>
</mgrwt>
</event>
<event>
 4    1  0.4917371E-005  0.4175164E+03  0.7818608E-02  0.1037878E+00
          2   -1    0    0  501    0  0.00000000000E+00  0.00000000000E+00  0.15292374455E+03  0.15292374457E+03  0.25500000000E-02 0.  1.
         -2   -1    0    0    0  501 -0.00000000000E+00 -0.00000000000E+00 -0.28497855809E+03  0.28497855810E+03  0.25500000000E-02 0. -1.
    5000001    1    1    2    0    0 -0.35776932942E+02 -0.42558522445E+02 -0.97277712423E+02  0.22837506453E+03  0.19900000000E+03 0.  0.
   -5000001    1    1    2    0    0  0.35776932942E+02  0.42558522445E+02 -0.34777101112E+02  0.20952723815E+03  0.19900000000E+03 0.  0.
<mgrwt>
<rscale>  0 0.41751641E+03</rscale>
<asrwt>0</asrwt>
<pdfrwt beam="1">  1        2 0.21846249E-01 0.41751641E+03</pdfrwt>
<pdfrwt beam="2">  1       -2 0.40711223E-01 0.41751641E+03</pdfrwt>
<totfact> 0.14563836E+03</totfact>
</mgrwt>
</event>
<event>
 4    1  0.4917371E-005  0.5296783E+03  0.7818608E-02  0.1006310E+00
          2   -1    0    0  501    0  0.00000000000E+00  0.00000000000E+00  0.79487264676E+02  0.79487264717E+02  0.25500000000E-02 0.  1.
         -2   -1    0    0    0  501 -0.00000000000E+00 -0.00000000000E+00 -0.88240276546E+03  0.88240276546E+03  0.25500000000E-02 0. -1.
    5000001    1    1    2    0    0 -0.75926802347E+02 -0.11192634311E+03 -0.60242134077E+03  0.64869473361E+03  0.19900000000E+03 0.  0.
   -5000001    1    1    2    0    0  0.75926802347E+02  0.11192634311E+03 -0.20049416001E+03  0.31319529657E+03  0.19900000000E+03 0.  0.
<mgrwt>
<rscale>  0 0.52967833E+03</rscale>
<asrwt>0</asrwt>
<pdfrwt beam="1">  1        2 0.11355324E-01 0.52967833E+03</pdfrwt>
<pdfrwt beam="2">  1       -2 0.12605753E+00 0.52967833E+03</pdfrwt>
<totfact> 0.26930366E+02</totfact>
</mgrwt>
</event>
<event>
 4    1  0.4917371E-005  0.6502056E+03  0.7818608E-02  0.9806394E-01
          2   -1    0    0  501    0  0.00000000000E+00  0.00000000000E+00  0.25923449407E+04  0.25923449407E+04  0.25500000000E-02 0.  1.
         -2   -1    0    0    0  501 -0.00000000000E+00 -0.00000000000E+00 -0.40770739044E+02  0.40770739124E+02  0.25500000000E-02 0. -1.
    5000001    1    1    2    0    0 -0.24888275095E+03  0.56910513920E+02  0.13979091480E+04  0.14348980508E+04  0.19900000000E+03 0.  0.
   -5000001    1    1    2    0    0  0.24888275095E+03 -0.56910513920E+02  0.11536650536E+04  0.11982176289E+04  0.19900000000E+03 0.  0.
<mgrwt>
<rscale>  0 0.65020557E+03</rscale>
<asrwt>0</asrwt>
<pdfrwt beam="1">  1        2 0.37033488E+00 0.65020557E+03</pdfrwt>
<pdfrwt beam="2">  1       -2 0.58243931E-02 0.65020557E+03</pdfrwt>
<totfact> 0.66833463E+02</totfact>
</mgrwt>
</event>
<event>
 4    1  0.4917371E-005  0.6672994E+03  0.7818608E-02  0.9774849E-01
          2   -1    0    0  501    0  0.00000000000E+00  0.00000000000E+00  0.34324184270E+04  0.34324184270E+04  0.25500000000E-02 0.  1.
         -2   -1    0    0    0  501 -0.00000000000E+00 -0.00000000000E+00 -0.32432557223E+02  0.32432557324E+02  0.25500000000E-02 0. -1.
    5000001    1    1    2    0    0 -0.52093910848E+02 -0.25360873619E+03  0.13444045818E+04  0.13834940716E+04  0.19900000000E+03 0.  0.
   -5000001    1    1    2    0    0  0.52093910848E+02  0.25360873619E+03  0.20555812880E+04  0.20813569128E+04  0.19900000000E+03 0.  0.
<mgrwt>
<rscale>  0 0.66729935E+03</rscale>
<asrwt>0</asrwt>
<pdfrwt beam="1">  1        2 0.49034529E+00 0.66729935E+03</pdfrwt>
<pdfrwt beam="2">  1       -2 0.46332243E-02 0.66729935E+03</pdfrwt>
<totfact> 0.32964301E+02</totfact>
</mgrwt>
</event>
<event>
 4    1  0.4917371E-005  0.8248889E+03  0.7818608E-02  0.9524674E-01
         -2   -1    0    0    0  501 -0.00000000000E+00  0.00000000000E+00  0.59456348697E+02  0.59456348752E+02  0.25500000000E-02 0. -1.
          2   -1    0    0  501    0  0.00000000000E+00 -0.00000000000E+00 -0.28610975094E+04  0.28610975094E+04  0.25500000000E-02 0.  1.
    5000001    1    1    2    0    0 -0.16606338328E+02 -0.36042210646E+03 -0.14650934623E+04  0.15219328890E+04  0.19900000000E+03 0.  0.
   -5000001    1    1    2    0    0  0.16606338328E+02  0.36042210646E+03 -0.13365476984E+04  0.13986209692E+04  0.19900000000E+03 0.  0.
<mgrwt>
<rscale>  0 0.82488887E+03</rscale>
<asrwt>0</asrwt>
<pdfrwt beam="1">  1        2 0.40872813E+00 0.82488887E+03</pdfrwt>
<pdfrwt beam="2">  1       -2 0.84937659E-02 0.82488887E+03</pdfrwt>
<totfact> 0.26084156E+02</totfact>
</mgrwt>
</event>
<event>
 4    1  0.4917371E-005  0.7097788E+03  0.7818608E-02  0.9700654E-01
         -2   -1    0    0    0  501 -0.00000000000E+00  0.00000000000E+00  0.55499332328E+02  0.55499332386E+02  0.25500000000E-02 0. -1.
          2   -1    0    0  501    0  0.00000000000E+00 -0.00000000000E+00 -0.22693334072E+04  0.22693334072E+04  0.25500000000E-02 0.  1.
    5000001    1    1    2    0    0 -0.28722650146E+03  0.50955822743E+02 -0.12227178290E+04  0.12726882762E+04  0.19900000000E+03 0.  0.
   -5000001    1    1    2    0    0  0.28722650146E+03 -0.50955822743E+02 -0.99111624586E+03  0.10521444634E+04  0.19900000000E+03 0.  0.
<mgrwt>
<rscale>  0 0.70977881E+03</rscale>
<asrwt>0</asrwt>
<pdfrwt beam="1">  1        2 0.32419043E+00 0.70977881E+03</pdfrwt>
<pdfrwt beam="2">  1       -2 0.79284775E-02 0.70977881E+03</pdfrwt>
<totfact> 0.59813960E+02</totfact>
</mgrwt>
</event>
<event>
 4    1  0.4917371E-005  0.7573389E+03  0.7818608E-02  0.9623907E-01
         -2   -1    0    0    0  501 -0.00000000000E+00  0.00000000000E+00  0.25995924146E+03  0.25995924147E+03  0.25500000000E-02 0. -1.
          2   -1    0    0  501    0  0.00000000000E+00 -0.00000000000E+00 -0.55158859342E+03  0.55158859343E+03  0.25500000000E-02 0.  1.
    5000001    1    1    2    0    0  0.23767229294E+03  0.21748101563E+03 -0.14382680250E+03  0.40505957600E+03  0.19900000000E+03 0.  0.
   -5000001    1    1    2    0    0 -0.23767229294E+03 -0.21748101563E+03 -0.14780254946E+03  0.40648825890E+03  0.19900000000E+03 0.  0.
<mgrwt>
<rscale>  0 0.75733890E+03</rscale>
<asrwt>0</asrwt>
<pdfrwt beam="1">  1        2 0.78798370E-01 0.75733890E+03</pdfrwt>
<pdfrwt beam="2">  1       -2 0.37137035E-01 0.75733890E+03</pdfrwt>
<totfact> 0.41165868E+02</totfact>
</mgrwt>
</event>
<event>
 4    1  0.4917371E-005  0.1168258E+04  0.7818608E-02  0.9141103E-01
         -2   -1    0    0    0  501 -0.00000000000E+00  0.00000000000E+00  0.66673859941E+03  0.66673859941E+03  0.25500000000E-02 0. -1.
          2   -1    0    0  501    0  0.00000000000E+00 -0.00000000000E+00 -0.51175490159E+03  0.51175490159E+03  0.25500000000E-02 0.  1.
    5000001    1    1    2    0    0 -0.35356499740E+03 -0.37329097876E+03  0.27218900082E+03  0.61485137584E+03  0.19900000000E+03 0.  0.
   -5000001    1    1    2    0    0  0.35356499740E+03  0.37329097876E+03 -0.11720530299E+03  0.56364212516E+03  0.19900000000E+03 0.  0.
<mgrwt>
<rscale>  0 0.11682581E+04</rscale>
<asrwt>0</asrwt>
<pdfrwt beam="1">  1        2 0.73107843E-01 0.11682581E+04</pdfrwt>
<pdfrwt beam="2">  1       -2 0.95248372E-01 0.11682581E+04</pdfrwt>
<totfact> 0.59945031E+01</totfact>
</mgrwt>
</event>
<event>
 4    1  0.4917371E-005  0.6555532E+03  0.7818608E-02  0.9796415E-01
          2   -1    0    0  501    0  0.00000000000E+00  0.00000000000E+00  0.61632306676E+03  0.61632306676E+03  0.25500000000E-02 0.  1.
         -2   -1    0    0    0  501 -0.00000000000E+00 -0.00000000000E+00 -0.17432008003E+03  0.17432008005E+03  0.25500000000E-02 0. -1.
    5000001    1    1    2    0    0 -0.19727746083E+03  0.16133377306E+03  0.15617027184E+03  0.35907817629E+03  0.19900000000E+03 0.  0.
   -5000001    1    1    2    0    0  0.19727746083E+03 -0.16133377306E+03  0.28583271489E+03  0.43156497052E+03  0.19900000000E+03 0.  0.
<mgrwt>
<rscale>  0 0.65555316E+03</rscale>
<asrwt>0</asrwt>
<pdfrwt beam="1">  1        2 0.88046151E-01 0.65555316E+03</pdfrwt>
<pdfrwt beam="2">  1       -2 0.24902869E-01 0.65555316E+03</pdfrwt>
<totfact> 0.76112313E+02</totfact>
</mgrwt>
</event>
<event>
 4    1  0.4917371E-005  0.1020043E+04  0.7818608E-02  0.9286831E-01
         -2   -1    0    0    0  501 -0.00000000000E+00  0.00000000000E+00  0.75150922685E+02  0.75150922729E+02  0.25500000000E-02 0. -1.
          2   -1    0    0  501    0  0.00000000000E+00 -0.00000000000E+00 -0.34613305110E+04  0.34613305110E+04  0.25500000000E-02 0.  1.
    5000001    1    1    2    0    0  0.44483363927E+03 -0.94634346053E-02 -0.22148023965E+04  0.22677803294E+04  0.19900000000E+03 0.  0.
   -5000001    1    1    2    0    0 -0.44483363927E+03  0.94634346053E-02 -0.11713771918E+04  0.12687011044E+04  0.19900000000E+03 0.  0.
<mgrwt>
<rscale>  0 0.10200435E+04</rscale>
<asrwt>0</asrwt>
<pdfrwt beam="1">  1        2 0.49447569E+00 0.10200435E+04</pdfrwt>
<pdfrwt beam="2">  1       -2 0.10735848E-01 0.10200435E+04</pdfrwt>
<totfact> 0.79965023E+01</totfact>
</mgrwt>
</event>
<event>
 4    1  0.4917371E-005  0.4662340E+03  0.7818608E-02  0.1022989E+00
          2   -1    0    0  501    0  0.00000000000E+00  0.00000000000E+00  0.74333169031E+03  0.74333169031E+03  0.25500000000E-02 0.  1.
         -2   -1    0    0    0  501 -0.00000000000E+00 -0.00000000000E+00 -0.73108051692E+02  0.73108051737E+02  0.25500000000E-02 0. -1.
    5000001    1    1    2    0    0  0.20476613585E+02 -0.35668886900E+02  0.13506041003E+03  0.24399564659E+03  0.19900000000E+03 0.  0.
   -5000001    1    1    2    0    0 -0.20476613585E+02  0.35668886900E+02  0.53516322859E+03  0.57244409546E+03  0.19900000000E+03 0.  0.
<mgrwt>
<rscale>  0 0.46623398E+03</rscale>
<asrwt>0</asrwt>
<pdfrwt beam="1">  1        2 0.10619025E+00 0.46623398E+03</pdfrwt>
<pdfrwt beam="2">  1       -2 0.10444007E-01 0.46623398E+03</pdfrwt>
<totfact> 0.26572902E+03</totfact>
</mgrwt>
</event>
<event>
 4    1  0.4917371E-005  0.8635686E+03  0.7818608E-02  0.9472305E-01
         -2   -1    0    0    0  501 -0.00000000000E+00  0.00000000000E+00  0.19537308970E+03  0.19537308972E+03  0.25500000000E-02 0. -1.
          2   -1    0    0  501    0  0.00000000000E+00 -0.00000000000E+00 -0.95426479650E+03  0.95426479650E+03  0.25500000000E-02 0.  1.
    5000001    1    1    2    0    0  0.23720576088E+03 -0.28037619663E+03 -0.23386082623E+03  0.47871627367E+03  0.19900000000E+03 0.  0.
   -5000001    1    1    2    0    0 -0.23720576088E+03  0.28037619663E+03 -0.52503088057E+03  0.67092161255E+03  0.19900000000E+03 0.  0.
<mgrwt>
<rscale>  0 0.86356855E+03</rscale>
<asrwt>0</asrwt>
<pdfrwt beam="1">  1        2 0.13632354E+00 0.86356855E+03</pdfrwt>
<pdfrwt beam="2">  1       -2 0.27910442E-01 0.86356855E+03</pdfrwt>
<totfact> 0.35194233E+02</totfact>
</mgrwt>
</event>
<event>
 4    1  0.4917371E-005  0.8207470E+03  0.7818608E-02  0.9530463E-01
         -2   -1    0    0    0  501 -0.00000000000E+00  0.00000000000E+00  0.21478129830E+03  0.21478129831E+03  0.25500000000E-02 0. -1.
          2   -1    0    0  501    0  0.00000000000E+00 -0.00000000000E+00 -0.78408329878E+03  0.78408329878E+03  0.25500000000E-02 0.  1.
    5000001    1    1    2    0    0  0.35403218325E+03  0.25606782559E+02 -0.34917520760E+03  0.53620781390E+03  0.19900000000E+03 0.  0.
   -5000001    1    1    2    0    0 -0.35403218325E+03 -0.25606782559E+02 -0.22012679288E+03  0.46265678319E+03  0.19900000000E+03 0.  0.
<mgrwt>
<rscale>  0 0.82074705E+03</rscale>
<asrwt>0</asrwt>
<pdfrwt beam="1">  1        2 0.11201190E+00 0.82074705E+03</pdfrwt>
<pdfrwt beam="2">  1       -2 0.30683043E-01 0.82074705E+03</pdfrwt>
<totfact> 0.38434521E+02</totfact>
</mgrwt>
</event>
<event>
 4    1  0.4917371E-005  0.1137442E+04  0.7818608E-02  0.9169448E-01
         -2   -1    0    0    0  501 -0.00000000000E+00  0.00000000000E+00  0.62298136419E+03  0.62298136420E+03  0.25500000000E-02 0. -1.
          2   -1    0    0  501    0  0.00000000000E+00 -0.00000000000E+00 -0.51918653259E+03  0.51918653260E+03  0.25500000000E-02 0.  1.
    5000001    1    1    2    0    0  0.45793335156E+03 -0.26382513158E+03 -0.15731353804E+02  0.56493816478E+03  0.19900000000E+03 0.  0.
   -5000001    1    1    2    0    0 -0.45793335156E+03  0.26382513158E+03  0.11952618540E+03  0.57722973202E+03  0.19900000000E+03 0.  0.
<mgrwt>
<rscale>  0 0.11374419E+04</rscale>
<asrwt>0</asrwt>
<pdfrwt beam="1">  1        2 0.74169504E-01 0.11374419E+04</pdfrwt>
<pdfrwt beam="2">  1       -2 0.88997338E-01 0.11374419E+04</pdfrwt>
<totfact> 0.69151677E+01</totfact>
</mgrwt>
</event>
<event>
 4    1  0.4917371E-005  0.6800625E+03  0.7818608E-02  0.9751949E-01
          2   -1    0    0  501    0  0.00000000000E+00  0.00000000000E+00  0.30391593035E+03  0.30391593036E+03  0.25500000000E-02 0.  1.
         -2   -1    0    0    0  501 -0.00000000000E+00 -0.00000000000E+00 -0.38043830341E+03  0.38043830342E+03  0.25500000000E-02 0. -1.
    5000001    1    1    2    0    0  0.12816455992E+03  0.19364551867E+03 -0.18784486936E+03  0.35890310150E+03  0.19900000000E+03 0.  0.
   -5000001    1    1    2    0    0 -0.12816455992E+03 -0.19364551867E+03  0.11132249631E+03  0.32545113228E+03  0.19900000000E+03 0.  0.
<mgrwt>
<rscale>  0 0.68006253E+03</rscale>
<asrwt>0</asrwt>
<pdfrwt beam="1">  1        2 0.43416562E-01 0.68006253E+03</pdfrwt>
<pdfrwt beam="2">  1       -2 0.54348329E-01 0.68006253E+03</pdfrwt>
<totfact> 0.37784933E+02</totfact>
</mgrwt>
</event>
<event>
 4    1  0.4917371E-005  0.8147447E+03  0.7818608E-02  0.9538917E-01
         -2   -1    0    0    0  501 -0.00000000000E+00  0.00000000000E+00  0.27058205671E+03  0.27058205672E+03  0.25500000000E-02 0. -1.
          2   -1    0    0  501    0  0.00000000000E+00 -0.00000000000E+00 -0.61331577621E+03  0.61331577622E+03  0.25500000000E-02 0.  1.
    5000001    1    1    2    0    0  0.24280918679E+02 -0.32610121110E+03 -0.20184347698E+02  0.38332749808E+03  0.19900000000E+03 0.  0.
   -5000001    1    1    2    0    0 -0.24280918679E+02  0.32610121110E+03 -0.32254937181E+03  0.50057033486E+03  0.19900000000E+03 0.  0.
<mgrwt>
<rscale>  0 0.81474473E+03</rscale>
<asrwt>0</asrwt>
<pdfrwt beam="1">  1        2 0.87616539E-01 0.81474473E+03</pdfrwt>
<pdfrwt beam="2">  1       -2 0.38654580E-01 0.81474473E+03</pdfrwt>
<totfact> 0.33561540E+02</totfact>
</mgrwt>
</event>
<event>
 4    1  0.4917371E-005  0.5360330E+03  0.7818608E-02  0.1004779E+00
         -2   -1    0    0    0  501 -0.00000000000E+00  0.00000000000E+00  0.49997564168E+02  0.49997564233E+02  0.25500000000E-02 0. -1.
          2   -1    0    0  501    0  0.00000000000E+00 -0.00000000000E+00 -0.14367268996E+04  0.14367268996E+04  0.25500000000E-02 0.  1.
    5000001    1    1    2    0    0 -0.13418840940E+03 -0.73590873689E+01 -0.36319158985E+03  0.43539616020E+03  0.19900000000E+03 0.  0.
   -5000001    1    1    2    0    0  0.13418840940E+03  0.73590873689E+01 -0.10235377456E+04  0.10513283037E+04  0.19900000000E+03 0.  0.
<mgrwt>
<rscale>  0 0.53603300E+03</rscale>
<asrwt>0</asrwt>
<pdfrwt beam="1">  1        2 0.20524667E+00 0.53603300E+03</pdfrwt>
<pdfrwt beam="2">  1       -2 0.71425101E-02 0.53603300E+03</pdfrwt>
<totfact> 0.18874241E+03</totfact>
</mgrwt>
</event>
<event>
 4    1  0.4917371E-005  0.1307005E+04  0.7818608E-02  0.9024028E-01
         -2   -1    0    0    0  501 -0.00000000000E+00  0.00000000000E+00  0.17150929856E+03  0.17150929858E+03  0.25500000000E-02 0. -1.
          2   -1    0    0  501    0  0.00000000000E+00 -0.00000000000E+00 -0.24900435169E+04  0.24900435169E+04  0.25500000000E-02 0.  1.
    5000001    1    1    2    0    0 -0.48190086530E+03 -0.17846572276E+03 -0.44396252023E+03  0.70765964810E+03  0.19900000000E+03 0.  0.
   -5000001    1    1    2    0    0  0.48190086530E+03  0.17846572276E+03 -0.18745716981E+04  0.19538931673E+04  0.19900000000E+03 0.  0.
<mgrwt>
<rscale>  0 0.13070052E+04</rscale>
<asrwt>0</asrwt>
<pdfrwt beam="1">  1        2 0.35572048E+00 0.13070052E+04</pdfrwt>
<pdfrwt beam="2">  1       -2 0.24501330E-01 0.13070052E+04</pdfrwt>
<totfact> 0.65278114E+01</totfact>
</mgrwt>
</event>
<event>
 4    1  0.4917371E-005  0.5327550E+03  0.7818608E-02  0.1005566E+00
         -2   -1    0    0    0  501 -0.00000000000E+00  0.00000000000E+00  0.33075022543E+02  0.33075022642E+02  0.25500000000E-02 0. -1.
          2   -1    0    0  501    0  0.00000000000E+00 -0.00000000000E+00 -0.21453342724E+04  0.21453342724E+04  0.25500000000E-02 0.  1.
    5000001    1    1    2    0    0  0.87338023351E+02  0.98939049134E+02 -0.57337159435E+03  0.62110615113E+03  0.19900000000E+03 0.  0.
   -5000001    1    1    2    0    0 -0.87338023351E+02 -0.98939049134E+02 -0.15388876555E+04  0.15573031439E+04  0.19900000000E+03 0.  0.
<mgrwt>
<rscale>  0 0.53275503E+03</rscale>
<asrwt>0</asrwt>
<pdfrwt beam="1">  1        2 0.30647624E+00 0.53275503E+03</pdfrwt>
<pdfrwt beam="2">  1       -2 0.47250046E-02 0.53275503E+03</pdfrwt>
<totfact> 0.15739037E+03</totfact>
</mgrwt>
</event>
<event>
 4    1  0.4917371E-005  0.4806265E+03  0.7818608E-02  0.1018963E+00
          2   -1    0    0  501    0  0.00000000000E+00  0.00000000000E+00  0.14834129293E+04  0.14834129293E+04  0.25500000000E-02 0.  1.
         -2   -1    0    0    0  501 -0.00000000000E+00 -0.00000000000E+00 -0.38930807641E+02  0.38930807725E+02  0.25500000000E-02 0. -1.
    5000001    1    1    2    0    0 -0.38885760417E+02 -0.92994338474E+02  0.43912633544E+03  0.49253729587E+03  0.19900000000E+03 0.  0.
   -5000001    1    1    2    0    0  0.38885760417E+02  0.92994338474E+02  0.10053557862E+04  0.10298064411E+04  0.19900000000E+03 0.  0.
<mgrwt>
<rscale>  0 0.48062652E+03</rscale>
<asrwt>0</asrwt>
<pdfrwt beam="1">  1        2 0.21191617E+00 0.48062652E+03</pdfrwt>
<pdfrwt beam="2">  1       -2 0.55615430E-02 0.48062652E+03</pdfrwt>
<totfact> 0.26423839E+03</totfact>
</mgrwt>
</event>
<event>
 4    1  0.4917371E-005  0.7894904E+03  0.7818608E-02  0.9575355E-01
          2   -1    0    0  501    0  0.00000000000E+00  0.00000000000E+00  0.12113249883E+04  0.12113249883E+04  0.25500000000E-02 0.  1.
         -2   -1    0    0    0  501 -0.00000000000E+00 -0.00000000000E+00 -0.12863911621E+03  0.12863911624E+03  0.25500000000E-02 0. -1.
    5000001    1    1    2    0    0  0.28763565663E+03 -0.13937969975E+03  0.34007859700E+03  0.50736123601E+03  0.19900000000E+03 0.  0.
   -5000001    1    1    2    0    0 -0.28763565663E+03  0.13937969975E+03  0.74260727509E+03  0.83260286853E+03  0.19900000000E+03 0.  0.
<mgrwt>
<rscale>  0 0.78949041E+03</rscale>
<asrwt>0</asrwt>
<pdfrwt beam="1">  1        2 0.17304643E+00 0.78949041E+03</pdfrwt>
<pdfrwt beam="2">  1       -2 0.18377016E-01 0.78949041E+03</pdfrwt>
<totfact> 0.52300858E+02</totfact>
</mgrwt>
</event>
<event>
 4    1  0.4917371E-005  0.5732247E+03  0.7818608E-02  0.9962568E-01
          2   -1    0    0  501    0  0.00000000000E+00  0.00000000000E+00  0.11638916928E+04  0.11638916928E+04  0.25500000000E-02 0.  1.
         -2   -1    0    0    0  501 -0.00000000000E+00 -0.00000000000E+00 -0.70579286326E+02  0.70579286373E+02  0.25500000000E-02 0. -1.
    5000001    1    1    2    0    0 -0.20474955768E+03  0.24578834663E+02  0.55607898150E+03  0.62558079746E+03  0.19900000000E+03 0.  0.
   -5000001    1    1    2    0    0  0.20474955768E+03 -0.24578834663E+02  0.53723342497E+03  0.60889018171E+03  0.19900000000E+03 0.  0.
<mgrwt>
<rscale>  0 0.57322472E+03</rscale>
<asrwt>0</asrwt>
<pdfrwt beam="1">  1        2 0.16627025E+00 0.57322472E+03</pdfrwt>
<pdfrwt beam="2">  1       -2 0.10082755E-01 0.57322472E+03</pdfrwt>
<totfact> 0.15291498E+03</totfact>
</mgrwt>
</event>
<event>
 4    1  0.4917371E-005  0.5801005E+03  0.7818608E-02  0.9947573E-01
         -2   -1    0    0    0  501 -0.00000000000E+00  0.00000000000E+00  0.73496020438E+03  0.73496020439E+03  0.25500000000E-02 0. -1.
          2   -1    0    0  501    0  0.00000000000E+00 -0.00000000000E+00 -0.11446763427E+03  0.11446763429E+03  0.25500000000E-02 0.  1.
    5000001    1    1    2    0    0  0.15327842855E+02 -0.14472908005E+03  0.53398237333E+03  0.58814932152E+03  0.19900000000E+03 0.  0.
   -5000001    1    1    2    0    0 -0.15327842855E+02  0.14472908005E+03  0.86510196782E+02  0.26127851716E+03  0.19900000000E+03 0.  0.
<mgrwt>
<rscale>  0 0.58010053E+03</rscale>
<asrwt>0</asrwt>
<pdfrwt beam="1">  1        2 0.16352519E-01 0.58010053E+03</pdfrwt>
<pdfrwt beam="2">  1       -2 0.10499432E+00 0.58010053E+03</pdfrwt>
<totfact> 0.26873498E+02</totfact>
</mgrwt>
</event>
<event>
 4    1  0.4917371E-005  0.5374129E+03  0.7818608E-02  0.1004450E+00
         -2   -1    0    0    0  501 -0.00000000000E+00  0.00000000000E+00  0.11153698002E+03  0.11153698005E+03  0.25500000000E-02 0. -1.
          2   -1    0    0  501    0  0.00000000000E+00 -0.00000000000E+00 -0.64734721636E+03  0.64734721636E+03  0.25500000000E-02 0.  1.
    5000001    1    1    2    0    0  0.12069867159E+02  0.16457008264E+03 -0.16439511858E+03  0.30635885625E+03  0.19900000000E+03 0.  0.
   -5000001    1    1    2    0    0 -0.12069867159E+02 -0.16457008264E+03 -0.37141511775E+03  0.45252534016E+03  0.19900000000E+03 0.  0.
<mgrwt>
<rscale>  0 0.53741289E+03</rscale>
<asrwt>0</asrwt>
<pdfrwt beam="1">  1        2 0.92478172E-01 0.53741289E+03</pdfrwt>
<pdfrwt beam="2">  1       -2 0.15933855E-01 0.53741289E+03</pdfrwt>
<totfact> 0.15646372E+03</totfact>
</mgrwt>
</event>
<event>
 4    1  0.4917371E-005  0.1009909E+04  0.7818608E-02  0.9297744E-01
         -2   -1    0    0    0  501 -0.00000000000E+00  0.00000000000E+00  0.93619652358E+03  0.93619652359E+03  0.25500000000E-02 0. -1.
          2   -1    0    0  501    0  0.00000000000E+00 -0.00000000000E+00 -0.27235607692E+03  0.27235607694E+03  0.25500000000E-02 0.  1.
    5000001    1    1    2    0    0 -0.32623788509E+03 -0.27235579950E+03  0.10877918622E+03  0.48170815910E+03  0.19900000000E+03 0.  0.
   -5000001    1    1    2    0    0  0.32623788509E+03  0.27235579950E+03  0.55506126044E+03  0.72684444142E+03  0.19900000000E+03 0.  0.
<mgrwt>
<rscale>  0 0.10099085E+04</rscale>
<asrwt>0</asrwt>
<pdfrwt beam="1">  1        2 0.38908011E-01 0.10099085E+04</pdfrwt>
<pdfrwt beam="2">  1       -2 0.13374236E+00 0.10099085E+04</pdfrwt>
<totfact> 0.53558054E+01</totfact>
</mgrwt>
</event>
<event>
 4    1  0.4917371E-005  0.8828095E+03  0.7818608E-02  0.9447329E-01
          2   -1    0    0  501    0  0.00000000000E+00  0.00000000000E+00  0.16479902782E+04  0.16479902782E+04  0.25500000000E-02 0. -1.
         -2   -1    0    0    0  501 -0.00000000000E+00 -0.00000000000E+00 -0.11822772030E+03  0.11822772033E+03  0.25500000000E-02 0.  1.
    5000001    1    1    2    0    0  0.32951674850E+03 -0.16619433200E+03  0.10409117844E+04  0.11221854510E+04  0.19900000000E+03 0.  0.
   -5000001    1    1    2    0    0 -0.32951674850E+03  0.16619433200E+03  0.48885077351E+03  0.64403254754E+03  0.19900000000E+03 0.  0.
<mgrwt>
<rscale>  0 0.88280946E+03</rscale>
<asrwt>0</asrwt>
<pdfrwt beam="1">  1        2 0.23542717E+00 0.88280946E+03</pdfrwt>
<pdfrwt beam="2">  1       -2 0.16889675E-01 0.88280946E+03</pdfrwt>
<totfact> 0.35119261E+02</totfact>
</mgrwt>
</event>
<event>
 4    1  0.4917371E-005  0.5330194E+03  0.7818608E-02  0.1005502E+00
          2   -1    0    0  501    0  0.00000000000E+00  0.00000000000E+00  0.65986237922E+02  0.65986237971E+02  0.25500000000E-02 0.  1.
         -2   -1    0    0    0  501 -0.00000000000E+00 -0.00000000000E+00 -0.10763974750E+04  0.10763974750E+04  0.25500000000E-02 0. -1.
    5000001    1    1    2    0    0 -0.57927751843E+02 -0.15353644528E+03 -0.36147556271E+03  0.44406603889E+03  0.19900000000E+03 0.  0.
   -5000001    1    1    2    0    0  0.57927751843E+02  0.15353644528E+03 -0.64893567435E+03  0.69831767407E+03  0.19900000000E+03 0.  0.
<mgrwt>
<rscale>  0 0.53301940E+03</rscale>
<asrwt>0</asrwt>
<pdfrwt beam="1">  1        2 0.94266061E-02 0.53301940E+03</pdfrwt>
<pdfrwt beam="2">  1       -2 0.15377106E+00 0.53301940E+03</pdfrwt>
<totfact> 0.20455314E+02</totfact>
</mgrwt>
</event>
<event>
 4    1  0.4917371E-005  0.5991215E+03  0.7818608E-02  0.9907230E-01
         -2   -1    0    0    0  501 -0.00000000000E+00  0.00000000000E+00  0.32892458110E+02  0.32892458209E+02  0.25500000000E-02 0. -1.
          2   -1    0    0  501    0  0.00000000000E+00 -0.00000000000E+00 -0.27281827845E+04  0.27281827845E+04  0.25500000000E-02 0.  1.
    5000001    1    1    2    0    0 -0.18982175737E+03  0.94328365555E+01 -0.18932145401E+04  0.19131083537E+04  0.19900000000E+03 0.  0.
   -5000001    1    1    2    0    0  0.18982175737E+03 -0.94328365555E+01 -0.80207578624E+03  0.84796688901E+03  0.19900000000E+03 0.  0.
<mgrwt>
<rscale>  0 0.59912148E+03</rscale>
<asrwt>0</asrwt>
<pdfrwt beam="1">  1        2 0.38974025E+00 0.59912148E+03</pdfrwt>
<pdfrwt beam="2">  1       -2 0.46989243E-02 0.59912148E+03</pdfrwt>
<totfact> 0.79621816E+02</totfact>
</mgrwt>
</event>
<event>
 4    1  0.4917371E-005  0.4572811E+03  0.7818608E-02  0.1025573E+00
          2   -1    0    0  501    0  0.00000000000E+00  0.00000000000E+00  0.12180437593E+04  0.12180437593E+04  0.25500000000E-02 0.  1.
         -2   -1    0    0    0  501 -0.00000000000E+00 -0.00000000000E+00 -0.42918414976E+02  0.42918415052E+02  0.25500000000E-02 0. -1.
    5000001    1    1    2    0    0 -0.10164106554E+03  0.78352346313E+01  0.71932515000E+03  0.75327416558E+03  0.19900000000E+03 0.  0.
   -5000001    1    1    2    0    0  0.10164106554E+03 -0.78352346313E+01  0.45580019430E+03  0.50768800875E+03  0.19900000000E+03 0.  0.
<mgrwt>
<rscale>  0 0.45728113E+03</rscale>
<asrwt>0</asrwt>
<pdfrwt beam="1">  1        2 0.17400626E+00 0.45728113E+03</pdfrwt>
<pdfrwt beam="2">  1       -2 0.61312017E-02 0.45728113E+03</pdfrwt>
<totfact> 0.31451858E+03</totfact>
</mgrwt>
</event>
<event>
 4    1  0.4917371E-005  0.9359604E+03  0.7818608E-02  0.9381713E-01
          2   -1    0    0  501    0  0.00000000000E+00  0.00000000000E+00  0.12892812527E+04  0.12892812527E+04  0.25500000000E-02 0.  1.
         -2   -1    0    0    0  501 -0.00000000000E+00 -0.00000000000E+00 -0.16986633101E+03  0.16986633103E+03  0.25500000000E-02 0. -1.
    5000001    1    1    2    0    0 -0.25791080658E+03 -0.33431835957E+03  0.61182807004E+03  0.76955918355E+03  0.19900000000E+03 0.  0.
   -5000001    1    1    2    0    0  0.25791080658E+03  0.33431835957E+03  0.50758685166E+03  0.68958840019E+03  0.19900000000E+03 0.  0.
<mgrwt>
<rscale>  0 0.93596042E+03</rscale>
<asrwt>0</asrwt>
<pdfrwt beam="1">  1        2 0.18418303E+00 0.93596042E+03</pdfrwt>
<pdfrwt beam="2">  1       -2 0.24266619E-01 0.93596042E+03</pdfrwt>
<totfact> 0.28759520E+02</totfact>
</mgrwt>
</event>
<event>
 4    1  0.4917371E-005  0.9276847E+03  0.7818608E-02  0.9391621E-01
          2   -1    0    0  501    0  0.00000000000E+00  0.00000000000E+00  0.13588931686E+04  0.13588931686E+04  0.25500000000E-02 0.  1.
         -2   -1    0    0    0  501 -0.00000000000E+00 -0.00000000000E+00 -0.15832718584E+03  0.15832718586E+03  0.25500000000E-02 0. -1.
    5000001    1    1    2    0    0 -0.32777955695E+03 -0.26096027442E+03  0.59536876043E+03  0.75472158023E+03  0.19900000000E+03 0.  0.
   -5000001    1    1    2    0    0  0.32777955695E+03  0.26096027442E+03  0.60519722232E+03  0.76249877422E+03  0.19900000000E+03 0.  0.
<mgrwt>
<rscale>  0 0.92768471E+03</rscale>
<asrwt>0</asrwt>
<pdfrwt beam="1">  1        2 0.19412759E+00 0.92768471E+03</pdfrwt>
<pdfrwt beam="2">  1       -2 0.22618170E-01 0.92768471E+03</pdfrwt>
<totfact> 0.29891032E+02</totfact>
</mgrwt>
</event>
<event>
 4    1  0.4917371E-005  0.4105267E+03  0.7818608E-02  0.1040194E+00
          2   -1    0    0  501    0  0.00000000000E+00  0.00000000000E+00  0.13906610017E+04  0.13906610017E+04  0.25500000000E-02 0.  1.
         -2   -1    0    0    0  501 -0.00000000000E+00 -0.00000000000E+00 -0.30297141382E+02  0.30297141489E+02  0.25500000000E-02 0. -1.
    5000001    1    1    2    0    0 -0.29879513982E+01  0.49702263907E+02  0.70533544104E+03  0.73455995485E+03  0.19900000000E+03 0.  0.
   -5000001    1    1    2    0    0  0.29879513982E+01 -0.49702263907E+02  0.65502841931E+03  0.68639818837E+03  0.19900000000E+03 0.  0.
<mgrwt>
<rscale>  0 0.41052675E+03</rscale>
<asrwt>0</asrwt>
<pdfrwt beam="1">  1        2 0.19866586E+00 0.41052675E+03</pdfrwt>
<pdfrwt beam="2">  1       -2 0.43281630E-02 0.41052675E+03</pdfrwt>
<totfact> 0.43452056E+03</totfact>
</mgrwt>
</event>
<event>
 4    1  0.4917371E-005  0.8434024E+03  0.7818608E-02  0.9499235E-01
          2   -1    0    0  501    0  0.00000000000E+00  0.00000000000E+00  0.26782694497E+04  0.26782694497E+04  0.25500000000E-02 0.  1.
         -2   -1    0    0    0  501 -0.00000000000E+00 -0.00000000000E+00 -0.66398066787E+02  0.66398066836E+02  0.25500000000E-02 0. -1.
    5000001    1    1    2    0    0 -0.20855678602E+03  0.16448516082E+03  0.21525465376E+04  0.21779827588E+04  0.19900000000E+03 0.  0.
   -5000001    1    1    2    0    0  0.20855678602E+03 -0.16448516082E+03  0.45932484534E+03  0.56668475776E+03  0.19900000000E+03 0.  0.
<mgrwt>
<rscale>  0 0.84340243E+03</rscale>
<asrwt>0</asrwt>
<pdfrwt beam="1">  1        2 0.38260988E+00 0.84340243E+03</pdfrwt>
<pdfrwt beam="2">  1       -2 0.94854390E-02 0.84340243E+03</pdfrwt>
<totfact> 0.27259982E+02</totfact>
</mgrwt>
</event>
<event>
 4    1  0.4917371E-005  0.7577155E+03  0.7818608E-02  0.9623323E-01
          2   -1    0    0  501    0  0.00000000000E+00  0.00000000000E+00  0.62179949614E+03  0.62179949615E+03  0.25500000000E-02 0.  1.
         -2   -1    0    0    0  501 -0.00000000000E+00 -0.00000000000E+00 -0.23083515633E+03  0.23083515635E+03  0.25500000000E-02 0. -1.
    5000001    1    1    2    0    0  0.13611744248E+03  0.24518291543E+03  0.16533904529E+02  0.34426296659E+03  0.19900000000E+03 0.  0.
   -5000001    1    1    2    0    0 -0.13611744248E+03 -0.24518291543E+03  0.37443043528E+03  0.50837168590E+03  0.19900000000E+03 0.  0.
<mgrwt>
<rscale>  0 0.75771547E+03</rscale>
<asrwt>0</asrwt>
<pdfrwt beam="1">  1        2 0.88828500E-01 0.75771547E+03</pdfrwt>
<pdfrwt beam="2">  1       -2 0.32976451E-01 0.75771547E+03</pdfrwt>
<totfact> 0.44809795E+02</totfact>
</mgrwt>
</event>
<event>
 4    1  0.4917371E-005  0.6111030E+03  0.7818608E-02  0.9882635E-01
          2   -1    0    0  501    0  0.00000000000E+00  0.00000000000E+00  0.71598068529E+03  0.71598068529E+03  0.25500000000E-02 0.  1.
         -2   -1    0    0    0  501 -0.00000000000E+00 -0.00000000000E+00 -0.13039697636E+03  0.13039697638E+03  0.25500000000E-02 0. -1.
    5000001    1    1    2    0    0 -0.75484942451E+02  0.17922575582E+03  0.11792569514E+03  0.30220409934E+03  0.19900000000E+03 0.  0.
   -5000001    1    1    2    0    0  0.75484942451E+02 -0.17922575582E+03  0.46765801379E+03  0.54417356234E+03  0.19900000000E+03 0.  0.
<mgrwt>
<rscale>  0 0.61110299E+03</rscale>
<asrwt>0</asrwt>
<pdfrwt beam="1">  1        2 0.10228295E+00 0.61110299E+03</pdfrwt>
<pdfrwt beam="2">  1       -2 0.18628140E-01 0.61110299E+03</pdfrwt>
<totfact> 0.10596613E+03</totfact>
</mgrwt>
</event>
<event>
 4    1  0.4917371E-005  0.6492079E+03  0.7818608E-02  0.9808267E-01
          2   -1    0    0  501    0  0.00000000000E+00  0.00000000000E+00  0.42849695020E+03  0.42849695021E+03  0.25500000000E-02 0.  1.
         -2   -1    0    0    0  501 -0.00000000000E+00 -0.00000000000E+00 -0.24590074121E+03  0.24590074122E+03  0.25500000000E-02 0. -1.
    5000001    1    1    2    0    0 -0.20357878706E+03 -0.15333569327E+03  0.12087311836E+03  0.34520641377E+03  0.19900000000E+03 0.  0.
   -5000001    1    1    2    0    0  0.20357878706E+03  0.15333569327E+03  0.61723090636E+02  0.32919127766E+03  0.19900000000E+03 0.  0.
<mgrwt>
<rscale>  0 0.64920788E+03</rscale>
<asrwt>0</asrwt>
<pdfrwt beam="1">  1        2 0.61213850E-01 0.64920788E+03</pdfrwt>
<pdfrwt beam="2">  1       -2 0.35128677E-01 0.64920788E+03</pdfrwt>
<totfact> 0.61218031E+02</totfact>
</mgrwt>
</event>
<event>
 4    1  0.4917371E-005  0.4940751E+03  0.7818608E-02  0.1015337E+00
          2   -1    0    0  501    0  0.00000000000E+00  0.00000000000E+00  0.40490193183E+03  0.40490193184E+03  0.25500000000E-02 0.  1.
         -2   -1    0    0    0  501 -0.00000000000E+00 -0.00000000000E+00 -0.15072180985E+03  0.15072180987E+03  0.25500000000E-02 0. -1.
    5000001    1    1    2    0    0  0.30034889118E+02 -0.13167355195E+03  0.63608580867E+02  0.24877112052E+03  0.19900000000E+03 0.  0.
   -5000001    1    1    2    0    0 -0.30034889118E+02  0.13167355195E+03  0.19057154112E+03  0.30685262119E+03  0.19900000000E+03 0.  0.
<mgrwt>
<rscale>  0 0.49407510E+03</rscale>
<asrwt>0</asrwt>
<pdfrwt beam="1">  1        2 0.57843132E-01 0.49407510E+03</pdfrwt>
<pdfrwt beam="2">  1       -2 0.21531687E-01 0.49407510E+03</pdfrwt>
<totfact> 0.15920949E+03</totfact>
</mgrwt>
</event>
<event>
 4    1  0.4917371E-005  0.5741372E+03  0.7818608E-02  0.9960565E-01
         -2   -1    0    0    0  501 -0.00000000000E+00  0.00000000000E+00  0.16256926183E+03  0.16256926185E+03  0.25500000000E-02 0. -1.
          2   -1    0    0  501    0  0.00000000000E+00 -0.00000000000E+00 -0.50691243083E+03  0.50691243084E+03  0.25500000000E-02 0.  1.
    5000001    1    1    2    0    0 -0.19532054898E+03  0.53259505044E+02 -0.22192704886E+03  0.36033221719E+03  0.19900000000E+03 0.  0.
   -5000001    1    1    2    0    0  0.19532054898E+03 -0.53259505044E+02 -0.12241612014E+03  0.30914947550E+03  0.19900000000E+03 0.  0.
<mgrwt>
<rscale>  0 0.57413720E+03</rscale>
<asrwt>0</asrwt>
<pdfrwt beam="1">  1        2 0.72416061E-01 0.57413720E+03</pdfrwt>
<pdfrwt beam="2">  1       -2 0.23224180E-01 0.57413720E+03</pdfrwt>
<totfact> 0.10831748E+03</totfact>
</mgrwt>
</event>
<event>
 4    1  0.4917371E-005  0.5626700E+03  0.7818608E-02  0.9986031E-01
         -2   -1    0    0    0  501 -0.00000000000E+00  0.00000000000E+00  0.22561441305E+03  0.22561441307E+03  0.25500000000E-02 0. -1.
          2   -1    0    0  501    0  0.00000000000E+00 -0.00000000000E+00 -0.35081708890E+03  0.35081708891E+03  0.25500000000E-02 0.  1.
    5000001    1    1    2    0    0  0.21993975566E+01 -0.19724082613E+03 -0.36692269123E+02  0.28258822243E+03  0.19900000000E+03 0.  0.
   -5000001    1    1    2    0    0 -0.21993975566E+01  0.19724082613E+03 -0.88510406729E+02  0.29384327956E+03  0.19900000000E+03 0.  0.
<mgrwt>
<rscale>  0 0.56267003E+03</rscale>
<asrwt>0</asrwt>
<pdfrwt beam="1">  1        2 0.50116727E-01 0.56267003E+03</pdfrwt>
<pdfrwt beam="2">  1       -2 0.32230630E-01 0.56267003E+03</pdfrwt>
<totfact> 0.90009465E+02</totfact>
</mgrwt>
</event>
<event>
 4    1  0.4917371E-005  0.7916378E+03  0.7818608E-02  0.9572201E-01
          2   -1    0    0  501    0  0.00000000000E+00  0.00000000000E+00  0.23334919528E+04  0.23334919528E+04  0.25500000000E-02 0. -1.
         -2   -1    0    0    0  501 -0.00000000000E+00 -0.00000000000E+00 -0.67140829111E+02  0.67140829160E+02  0.25500000000E-02 0.  1.
    5000001    1    1    2    0    0  0.31919589837E+03  0.10177915948E+03  0.92249797176E+03  0.10014232506E+04  0.19900000000E+03 0.  0.
   -5000001    1    1    2    0    0 -0.31919589837E+03 -0.10177915948E+03  0.13438531519E+04  0.13992095314E+04  0.19900000000E+03 0.  0.
<mgrwt>
<rscale>  0 0.79163776E+03</rscale>
<asrwt>0</asrwt>
<pdfrwt beam="1">  1        2 0.33335599E+00 0.79163776E+03</pdfrwt>
<pdfrwt beam="2">  1       -2 0.95915472E-02 0.79163776E+03</pdfrwt>
<totfact> 0.40580353E+02</totfact>
</mgrwt>
</event>
<event>
 4    1  0.4917371E-005  0.6363235E+03  0.7818608E-02  0.9832786E-01
         -2   -1    0    0    0  501 -0.00000000000E+00  0.00000000000E+00  0.94540453208E+02  0.94540453242E+02  0.25500000000E-02 0. -1.
          2   -1    0    0  501    0  0.00000000000E+00 -0.00000000000E+00 -0.10707257276E+04  0.10707257276E+04  0.25500000000E-02 0.  1.
    5000001    1    1    2    0    0 -0.47684133251E+02  0.19434511172E+03 -0.21906679285E+03  0.35726049144E+03  0.19900000000E+03 0.  0.
   -5000001    1    1    2    0    0  0.47684133251E+02 -0.19434511172E+03 -0.75711848152E+03  0.80800568938E+03  0.19900000000E+03 0.  0.
<mgrwt>
<rscale>  0 0.63632349E+03</rscale>
<asrwt>0</asrwt>
<pdfrwt beam="1">  1        2 0.15296081E+00 0.63632349E+03</pdfrwt>
<pdfrwt beam="2">  1       -2 0.13505780E-01 0.63632349E+03</pdfrwt>
<totfact> 0.10692784E+03</totfact>
</mgrwt>
</event>
<event>
 4    1  0.4917371E-005  0.1041079E+04  0.7818608E-02  0.9264603E-01
         -2   -1    0    0    0  501 -0.00000000000E+00  0.00000000000E+00  0.14032900226E+03  0.14032900228E+03  0.25500000000E-02 0. -1.
          2   -1    0    0  501    0  0.00000000000E+00 -0.00000000000E+00 -0.19309012286E+04  0.19309012286E+04  0.25500000000E-02 0.  1.
    5000001    1    1    2    0    0  0.44515581000E+03  0.84675175936E+02 -0.12162495336E+04  0.13130870149E+04  0.19900000000E+03 0.  0.
   -5000001    1    1    2    0    0 -0.44515581000E+03 -0.84675175936E+02 -0.57432269270E+03  0.75814321599E+03  0.19900000000E+03 0.  0.
<mgrwt>
<rscale>  0 0.10410791E+04</rscale>
<asrwt>0</asrwt>
<pdfrwt beam="1">  1        2 0.27584302E+00 0.10410791E+04</pdfrwt>
<pdfrwt beam="2">  1       -2 0.20047002E-01 0.10410791E+04</pdfrwt>
<totfact> 0.18478481E+02</totfact>
</mgrwt>
</event>
<event>
 4    1  0.4917371E-005  0.4989811E+03  0.7818608E-02  0.1014045E+00
          2   -1    0    0  501    0  0.00000000000E+00  0.00000000000E+00  0.31068505296E+04  0.31068505296E+04  0.25500000000E-02 0.  1.
         -2   -1    0    0    0  501 -0.00000000000E+00 -0.00000000000E+00 -0.20034932605E+02  0.20034932767E+02  0.25500000000E-02 0. -1.
    5000001    1    1    2    0    0 -0.34939314101E+02  0.11948165168E+03  0.10136007768E+04  0.10404249879E+04  0.19900000000E+03 0.  0.
   -5000001    1    1    2    0    0  0.34939314101E+02 -0.11948165168E+03  0.20732148201E+04  0.20864604744E+04  0.19900000000E+03 0.  0.
<mgrwt>
<rscale>  0 0.49898113E+03</rscale>
<asrwt>0</asrwt>
<pdfrwt beam="1">  1        2 0.44383550E+00 0.49898113E+03</pdfrwt>
<pdfrwt beam="2">  1       -2 0.28621351E-02 0.49898113E+03</pdfrwt>
<totfact> 0.10735220E+03</totfact>
</mgrwt>
</event>
<event>
 4    1  0.4917371E-005  0.5280136E+03  0.7818608E-02  0.1006715E+00
          2   -1    0    0  501    0  0.00000000000E+00  0.00000000000E+00  0.24487616806E+04  0.24487616806E+04  0.25500000000E-02 0.  1.
         -2   -1    0    0    0  501 -0.00000000000E+00 -0.00000000000E+00 -0.28463200578E+02  0.28463200692E+02  0.25500000000E-02 0. -1.
    5000001    1    1    2    0    0 -0.53153884946E+02 -0.15688897721E+03  0.14520784621E+04  0.14749821513E+04  0.19900000000E+03 0.  0.
   -5000001    1    1    2    0    0  0.53153884946E+02  0.15688897721E+03  0.96822001794E+03  0.10022427300E+04  0.19900000000E+03 0.  0.
<mgrwt>
<rscale>  0 0.52801362E+03</rscale>
<asrwt>0</asrwt>
<pdfrwt beam="1">  1        2 0.34982324E+00 0.52801362E+03</pdfrwt>
<pdfrwt beam="2">  1       -2 0.40661698E-02 0.52801362E+03</pdfrwt>
<totfact> 0.13944616E+03</totfact>
</mgrwt>
</event>
<event>
 4    1  0.4917371E-005  0.7243422E+03  0.7818608E-02  0.9676486E-01
         -2   -1    0    0    0  501 -0.00000000000E+00  0.00000000000E+00  0.59187630211E+02  0.59187630266E+02  0.25500000000E-02 0. -1.
          2   -1    0    0  501    0  0.00000000000E+00 -0.00000000000E+00 -0.22161372939E+04  0.22161372939E+04  0.25500000000E-02 0.  1.
    5000001    1    1    2    0    0 -0.13643167382E+03  0.26331183026E+03 -0.12674764367E+04  0.13168311354E+04  0.19900000000E+03 0.  0.
   -5000001    1    1    2    0    0  0.13643167382E+03 -0.26331183026E+03 -0.88947322701E+03  0.95849378879E+03  0.19900000000E+03 0.  0.
<mgrwt>
<rscale>  0 0.72434222E+03</rscale>
<asrwt>0</asrwt>
<pdfrwt beam="1">  1        2 0.31659099E+00 0.72434222E+03</pdfrwt>
<pdfrwt beam="2">  1       -2 0.84553771E-02 0.72434222E+03</pdfrwt>
<totfact> 0.57358109E+02</totfact>
</mgrwt>
</event>
<event>
 4    1  0.4917371E-005  0.5681767E+03  0.7818608E-02  0.9973721E-01
         -2   -1    0    0    0  501 -0.00000000000E+00  0.00000000000E+00  0.90991769968E+02  0.90991770003E+02  0.25500000000E-02 0. -1.
          2   -1    0    0  501    0  0.00000000000E+00 -0.00000000000E+00 -0.88696137014E+03  0.88696137014E+03  0.25500000000E-02 0.  1.
    5000001    1    1    2    0    0  0.10735048195E+03  0.17174777928E+03 -0.38223223789E+03  0.47615534162E+03  0.19900000000E+03 0.  0.
   -5000001    1    1    2    0    0 -0.10735048195E+03 -0.17174777928E+03 -0.41373736228E+03  0.50179779853E+03  0.19900000000E+03 0.  0.
<mgrwt>
<rscale>  0 0.56817668E+03</rscale>
<asrwt>0</asrwt>
<pdfrwt beam="1">  1        2 0.12670876E+00 0.56817668E+03</pdfrwt>
<pdfrwt beam="2">  1       -2 0.12998825E-01 0.56817668E+03</pdfrwt>
<totfact> 0.14818602E+03</totfact>
</mgrwt>
</event>
<event>
 4    1  0.4917371E-005  0.5245830E+03  0.7818608E-02  0.1007554E+00
         -2   -1    0    0    0  501 -0.00000000000E+00  0.00000000000E+00  0.15280849850E+03  0.15280849852E+03  0.25500000000E-02 0. -1.
          2   -1    0    0  501    0  0.00000000000E+00 -0.00000000000E+00 -0.45021599098E+03  0.45021599099E+03  0.25500000000E-02 0.  1.
    5000001    1    1    2    0    0  0.32188681967E+02 -0.16005585493E+03 -0.20665929029E+03  0.33009551679E+03  0.19900000000E+03 0.  0.
   -5000001    1    1    2    0    0 -0.32188681967E+02  0.16005585493E+03 -0.90748202191E+02  0.27292897271E+03  0.19900000000E+03 0.  0.
<mgrwt>
<rscale>  0 0.52458299E+03</rscale>
<asrwt>0</asrwt>
<pdfrwt beam="1">  1        2 0.64316569E-01 0.52458299E+03</pdfrwt>
<pdfrwt beam="2">  1       -2 0.21829786E-01 0.52458299E+03</pdfrwt>
<totfact> 0.13815199E+03</totfact>
</mgrwt>
</event>
<event>
 4    1  0.4917371E-005  0.1105207E+04  0.7818608E-02  0.9200132E-01
          2   -1    0    0  501    0  0.00000000000E+00  0.00000000000E+00  0.72669642485E+03  0.72669642485E+03  0.25500000000E-02 0.  1.
         -2   -1    0    0    0  501 -0.00000000000E+00 -0.00000000000E+00 -0.42021766016E+03  0.42021766017E+03  0.25500000000E-02 0. -1.
    5000001    1    1    2    0    0  0.44327162992E+03  0.18967042258E+03  0.34262298168E+03  0.62406419115E+03  0.19900000000E+03 0.  0.
   -5000001    1    1    2    0    0 -0.44327162992E+03 -0.18967042258E+03 -0.36144217002E+02  0.52284989387E+03  0.19900000000E+03 0.  0.
<mgrwt>
<rscale>  0 0.11052071E+04</rscale>
<asrwt>0</asrwt>
<pdfrwt beam="1">  1        2 0.10381377E+00 0.11052071E+04</pdfrwt>
<pdfrwt beam="2">  1       -2 0.60031095E-01 0.11052071E+04</pdfrwt>
<totfact> 0.11037985E+02</totfact>
</mgrwt>
</event>
<event>
 4    1  0.4917371E-005  0.4480776E+03  0.7818608E-02  0.1028297E+00
          2   -1    0    0  501    0  0.00000000000E+00  0.00000000000E+00  0.69034982166E+03  0.69034982166E+03  0.25500000000E-02 0.  1.
         -2   -1    0    0    0  501 -0.00000000000E+00 -0.00000000000E+00 -0.72707168557E+02  0.72707168602E+02  0.25500000000E-02 0. -1.
    5000001    1    1    2    0    0 -0.10063094068E+03  0.19618079111E+02  0.29350175009E+03  0.36912834158E+03  0.19900000000E+03 0.  0.
   -5000001    1    1    2    0    0  0.10063094068E+03 -0.19618079111E+02  0.32414090301E+03  0.39392864868E+03  0.19900000000E+03 0.  0.
<mgrwt>
<rscale>  0 0.44807759E+03</rscale>
<asrwt>0</asrwt>
<pdfrwt beam="1">  1        2 0.98621402E-01 0.44807759E+03</pdfrwt>
<pdfrwt beam="2">  1       -2 0.10386738E-01 0.44807759E+03</pdfrwt>
<totfact> 0.29331668E+03</totfact>
</mgrwt>
</event>
<event>
 4    1  0.4917371E-005  0.1126869E+04  0.7818608E-02  0.9179392E-01
          2   -1    0    0  501    0  0.00000000000E+00  0.00000000000E+00  0.84602998636E+03  0.84602998637E+03  0.25500000000E-02 0.  1.
         -2   -1    0    0    0  501 -0.00000000000E+00 -0.00000000000E+00 -0.37523336784E+03  0.37523336784E+03  0.25500000000E-02 0. -1.
    5000001    1    1    2    0    0  0.46546186409E+03 -0.24116982821E+03  0.29515354378E+03  0.63366730022E+03  0.19900000000E+03 0.  0.
   -5000001    1    1    2    0    0 -0.46546186409E+03  0.24116982821E+03  0.17564307475E+03  0.58759605399E+03  0.19900000000E+03 0.  0.
<mgrwt>
<rscale>  0 0.11268694E+04</rscale>
<asrwt>0</asrwt>
<pdfrwt beam="1">  1        2 0.12086143E+00 0.11268694E+04</pdfrwt>
<pdfrwt beam="2">  1       -2 0.53604767E-01 0.11268694E+04</pdfrwt>
<totfact> 0.11486372E+02</totfact>
</mgrwt>
</event>
<event>
 4    1  0.4917371E-005  0.1314133E+04  0.7818608E-02  0.9018432E-01
         -2   -1    0    0    0  501 -0.00000000000E+00  0.00000000000E+00  0.40413437198E+03  0.40413437199E+03  0.25500000000E-02 0.  1.
          2   -1    0    0  501    0  0.00000000000E+00 -0.00000000000E+00 -0.10682984305E+04  0.10682984305E+04  0.25500000000E-02 0. -1.
    5000001    1    1    2    0    0  0.57714094910E+03 -0.12965347528E+03 -0.10181889785E+03  0.63235258103E+03  0.19900000000E+03 0.  0.
   -5000001    1    1    2    0    0 -0.57714094910E+03  0.12965347528E+03 -0.56234516071E+03  0.84008022149E+03  0.19900000000E+03 0.  0.
<mgrwt>
<rscale>  0 0.13141326E+04</rscale>
<asrwt>0</asrwt>
<pdfrwt beam="1">  1        2 0.15261406E+00 0.13141326E+04</pdfrwt>
<pdfrwt beam="2">  1       -2 0.57733482E-01 0.13141326E+04</pdfrwt>
<totfact> 0.70253341E+01</totfact>
</mgrwt>
</event>
<event>
 4    1  0.4917371E-005  0.5873529E+03  0.7818608E-02  0.9931998E-01
         -2   -1    0    0    0  501 -0.00000000000E+00  0.00000000000E+00  0.45220071129E+02  0.45220071201E+02  0.25500000000E-02 0. -1.
          2   -1    0    0  501    0  0.00000000000E+00 -0.00000000000E+00 -0.19072475773E+04  0.19072475773E+04  0.25500000000E-02 0.  1.
    5000001    1    1    2    0    0 -0.21059481064E+03  0.37788838311E+02 -0.83315059086E+03  0.88290377596E+03  0.19900000000E+03 0.  0.
   -5000001    1    1    2    0    0  0.21059481064E+03 -0.37788838311E+02 -0.10288769153E+04  0.10695638725E+04  0.19900000000E+03 0.  0.
<mgrwt>
<rscale>  0 0.58735295E+03</rscale>
<asrwt>0</asrwt>
<pdfrwt beam="1">  1        2 0.27246389E+00 0.58735295E+03</pdfrwt>
<pdfrwt beam="2">  1       -2 0.64600114E-02 0.58735295E+03</pdfrwt>
<totfact> 0.12693901E+03</totfact>
</mgrwt>
</event>
<event>
 4    1  0.4917371E-005  0.5191650E+03  0.7818608E-02  0.1008894E+00
         -2   -1    0    0    0  501 -0.00000000000E+00  0.00000000000E+00  0.10281830066E+03  0.10281830069E+03  0.25500000000E-02 0. -1.
          2   -1    0    0  501    0  0.00000000000E+00 -0.00000000000E+00 -0.65536066646E+03  0.65536066647E+03  0.25500000000E-02 0.  1.
    5000001    1    1    2    0    0  0.16217426823E+03 -0.24431869939E+02 -0.31970766671E+03  0.41074493508E+03  0.19900000000E+03 0.  0.
   -5000001    1    1    2    0    0 -0.16217426823E+03  0.24431869939E+02 -0.23283469909E+03  0.34743403208E+03  0.19900000000E+03 0.  0.
<mgrwt>
<rscale>  0 0.51916498E+03</rscale>
<asrwt>0</asrwt>
<pdfrwt beam="1">  1        2 0.93622950E-01 0.51916498E+03</pdfrwt>
<pdfrwt beam="2">  1       -2 0.14688329E-01 0.51916498E+03</pdfrwt>
<totfact> 0.17680902E+03</totfact>
</mgrwt>
</event>
<event>
 4    1  0.4917371E-005  0.8280915E+03  0.7818608E-02  0.9520223E-01
          2   -1    0    0  501    0  0.00000000000E+00  0.00000000000E+00  0.13372870059E+03  0.13372870061E+03  0.25500000000E-02 0.  1.
         -2   -1    0    0    0  501 -0.00000000000E+00 -0.00000000000E+00 -0.12819528757E+04  0.12819528757E+04  0.25500000000E-02 0. -1.
    5000001    1    1    2    0    0  0.33231871286E+03  0.32067486540E+02 -0.33012299707E+03  0.50994729512E+03  0.19900000000E+03 0.  0.
   -5000001    1    1    2    0    0 -0.33231871286E+03 -0.32067486540E+02 -0.81810117807E+03  0.90573428121E+03  0.19900000000E+03 0.  0.
<mgrwt>
<rscale>  0 0.82809152E+03</rscale>
<asrwt>0</asrwt>
<pdfrwt beam="1">  1        2 0.19104101E-01 0.82809152E+03</pdfrwt>
<pdfrwt beam="2">  1       -2 0.18313612E+00 0.82809152E+03</pdfrwt>
<totfact> 0.52292135E+01</totfact>
</mgrwt>
</event>
<event>
 4    1  0.4917371E-005  0.6966492E+03  0.7818608E-02  0.9722980E-01
         -2   -1    0    0    0  501 -0.00000000000E+00  0.00000000000E+00  0.95045541275E+02  0.95045541310E+02  0.25500000000E-02 0. -1.
          2   -1    0    0  501    0  0.00000000000E+00 -0.00000000000E+00 -0.12765462156E+04  0.12765462156E+04  0.25500000000E-02 0.  1.
    5000001    1    1    2    0    0  0.19151860215E+03  0.20923228596E+03 -0.66095552078E+03  0.74627121405E+03  0.19900000000E+03 0.  0.
   -5000001    1    1    2    0    0 -0.19151860215E+03 -0.20923228596E+03 -0.52054515355E+03  0.62532054287E+03  0.19900000000E+03 0.  0.
<mgrwt>
<rscale>  0 0.69664920E+03</rscale>
<asrwt>0</asrwt>
<pdfrwt beam="1">  1        2 0.18236373E+00 0.69664920E+03</pdfrwt>
<pdfrwt beam="2">  1       -2 0.13577935E-01 0.69664920E+03</pdfrwt>
<totfact> 0.80786597E+02</totfact>
</mgrwt>
</event>
<event>
 4    1  0.4917371E-005  0.6239954E+03  0.7818608E-02  0.9856837E-01
         -2   -1    0    0    0  501 -0.00000000000E+00  0.00000000000E+00  0.10144084935E+03  0.10144084938E+03  0.25500000000E-02 0. -1.
          2   -1    0    0  501    0  0.00000000000E+00 -0.00000000000E+00 -0.95959934988E+03  0.95959934988E+03  0.25500000000E-02 0.  1.
    5000001    1    1    2    0    0  0.20855823561E+03 -0.39184548190E+02 -0.23738173380E+03  0.37547710183E+03  0.19900000000E+03 0.  0.
   -5000001    1    1    2    0    0 -0.20855823561E+03  0.39184548190E+02 -0.62077676672E+03  0.68556309743E+03  0.19900000000E+03 0.  0.
<mgrwt>
<rscale>  0 0.62399543E+03</rscale>
<asrwt>0</asrwt>
<pdfrwt beam="1">  1        2 0.13708562E+00 0.62399543E+03</pdfrwt>
<pdfrwt beam="2">  1       -2 0.14491550E-01 0.62399543E+03</pdfrwt>
<totfact> 0.11102111E+03</totfact>
</mgrwt>
</event>
<event>
 4    1  0.4917371E-005  0.5985128E+03  0.7818608E-02  0.9908496E-01
         -2   -1    0    0    0  501 -0.00000000000E+00  0.00000000000E+00  0.35434516323E+03  0.35434516324E+03  0.25500000000E-02 0.  1.
          2   -1    0    0  501    0  0.00000000000E+00 -0.00000000000E+00 -0.25273208550E+03  0.25273208551E+03  0.25500000000E-02 0. -1.
    5000001    1    1    2    0    0  0.81770803935E+02  0.11094618027E+03  0.22927277822E+03  0.33341044693E+03  0.19900000000E+03 0.  0.
   -5000001    1    1    2    0    0 -0.81770803935E+02 -0.11094618027E+03 -0.12765970049E+03  0.27366680182E+03  0.19900000000E+03 0.  0.
<mgrwt>
<rscale>  0 0.59851280E+03</rscale>
<asrwt>0</asrwt>
<pdfrwt beam="1">  1        2 0.36104584E-01 0.59851280E+03</pdfrwt>
<pdfrwt beam="2">  1       -2 0.50620737E-01 0.59851280E+03</pdfrwt>
<totfact> 0.53707103E+02</totfact>
</mgrwt>
</event>
<event>
 4    1  0.4917371E-005  0.4769752E+03  0.7818608E-02  0.1019970E+00
          2   -1    0    0  501    0  0.00000000000E+00  0.00000000000E+00  0.43889718619E+03  0.43889718620E+03  0.25500000000E-02 0.  1.
         -2   -1    0    0    0  501 -0.00000000000E+00 -0.00000000000E+00 -0.12958921188E+03  0.12958921191E+03  0.25500000000E-02 0. -1.
    5000001    1    1    2    0    0 -0.12909528320E+03  0.36969321010E+01  0.18375290943E+03  0.30007564242E+03  0.19900000000E+03 0.  0.
   -5000001    1    1    2    0    0  0.12909528320E+03 -0.36969321010E+01  0.12555506488E+03  0.26841075568E+03  0.19900000000E+03 0.  0.
<mgrwt>
<rscale>  0 0.47697522E+03</rscale>
<asrwt>0</asrwt>
<pdfrwt beam="1">  1        2 0.62699600E-01 0.47697522E+03</pdfrwt>
<pdfrwt beam="2">  1       -2 0.18512744E-01 0.47697522E+03</pdfrwt>
<totfact> 0.18914827E+03</totfact>
</mgrwt>
</event>
<event>
 4    1  0.4917371E-005  0.7856624E+03  0.7818608E-02  0.9581005E-01
         -2   -1    0    0    0  501 -0.00000000000E+00  0.00000000000E+00  0.13843775190E+03  0.13843775192E+03  0.25500000000E-02 0. -1.
          2   -1    0    0  501    0  0.00000000000E+00 -0.00000000000E+00 -0.11146984334E+04  0.11146984334E+04  0.25500000000E-02 0.  1.
    5000001    1    1    2    0    0 -0.20635911331E+02 -0.29480330397E+03 -0.22420376249E+03  0.42095505221E+03  0.19900000000E+03 0.  0.
   -5000001    1    1    2    0    0  0.20635911331E+02  0.29480330397E+03 -0.75205691902E+03  0.83218113312E+03  0.19900000000E+03 0.  0.
<mgrwt>
<rscale>  0 0.78566238E+03</rscale>
<asrwt>0</asrwt>
<pdfrwt beam="1">  1        2 0.15924263E+00 0.78566238E+03</pdfrwt>
<pdfrwt beam="2">  1       -2 0.19776822E-01 0.78566238E+03</pdfrwt>
<totfact> 0.52300116E+02</totfact>
</mgrwt>
</event>
<event>
 4    1  0.4917371E-005  0.4623355E+03  0.7818608E-02  0.1024106E+00
          2   -1    0    0  501    0  0.00000000000E+00  0.00000000000E+00  0.23106106284E+04  0.23106106284E+04  0.25500000000E-02 0.  1.
         -2   -1    0    0    0  501 -0.00000000000E+00 -0.00000000000E+00 -0.23127453005E+02  0.23127453146E+02  0.25500000000E-02 0. -1.
    5000001    1    1    2    0    0 -0.64043990569E+02  0.87875583695E+02  0.91722411961E+03  0.94484117000E+03  0.19900000000E+03 0.  0.
   -5000001    1    1    2    0    0  0.64043990569E+02 -0.87875583695E+02  0.13702590558E+04  0.13888969115E+04  0.19900000000E+03 0.  0.
<mgrwt>
<rscale>  0 0.46233554E+03</rscale>
<asrwt>0</asrwt>
<pdfrwt beam="1">  1        2 0.33008723E+00 0.46233554E+03</pdfrwt>
<pdfrwt beam="2">  1       -2 0.33039219E-02 0.46233554E+03</pdfrwt>
<totfact> 0.22557282E+03</totfact>
</mgrwt>
</event>
<event>
 4    1  0.4917371E-005  0.6388629E+03  0.7818608E-02  0.9827905E-01
         -2   -1    0    0    0  501 -0.00000000000E+00  0.00000000000E+00  0.17398454788E+03  0.17398454789E+03  0.25500000000E-02 0. -1.
          2   -1    0    0  501    0  0.00000000000E+00 -0.00000000000E+00 -0.58646842648E+03  0.58646842649E+03  0.25500000000E-02 0.  1.
    5000001    1    1    2    0    0 -0.16803383690E+03 -0.90520027627E+01  0.13623693938E+02  0.26096726640E+03  0.19900000000E+03 0.  0.
   -5000001    1    1    2    0    0  0.16803383690E+03  0.90520027627E+01 -0.42610757255E+03  0.49948570798E+03  0.19900000000E+03 0.  0.
<mgrwt>
<rscale>  0 0.63886288E+03</rscale>
<asrwt>0</asrwt>
<pdfrwt beam="1">  1        2 0.83781203E-01 0.63886288E+03</pdfrwt>
<pdfrwt beam="2">  1       -2 0.24854936E-01 0.63886288E+03</pdfrwt>
<totfact> 0.81011564E+02</totfact>
</mgrwt>
</event>
<event>
 4    1  0.4917371E-005  0.6653156E+03  0.7818608E-02  0.9778457E-01
          2   -1    0    0  501    0  0.00000000000E+00  0.00000000000E+00  0.28534061004E+03  0.28534061005E+03  0.25500000000E-02 0.  1.
         -2   -1    0    0    0  501 -0.00000000000E+00 -0.00000000000E+00 -0.38782149332E+03  0.38782149332E+03  0.25500000000E-02 0. -1.
    5000001    1    1    2    0    0  0.47356653082E+02  0.24816535645E+03 -0.13728172352E+03  0.34967980832E+03  0.19900000000E+03 0.  0.
   -5000001    1    1    2    0    0 -0.47356653082E+02 -0.24816535645E+03  0.34800840242E+02  0.32348229505E+03  0.19900000000E+03 0.  0.
<mgrwt>
<rscale>  0 0.66531563E+03</rscale>
<asrwt>0</asrwt>
<pdfrwt beam="1">  1        2 0.40762945E-01 0.66531563E+03</pdfrwt>
<pdfrwt beam="2">  1       -2 0.55403070E-01 0.66531563E+03</pdfrwt>
<totfact> 0.38952370E+02</totfact>
</mgrwt>
</event>
<event>
 4    1  0.4917371E-005  0.5251888E+03  0.7818608E-02  0.1007406E+00
         -2   -1    0    0    0  501 -0.00000000000E+00  0.00000000000E+00  0.39042446982E+02  0.39042447066E+02  0.25500000000E-02 0. -1.
          2   -1    0    0  501    0  0.00000000000E+00 -0.00000000000E+00 -0.17661754972E+04  0.17661754972E+04  0.25500000000E-02 0.  1.
    5000001    1    1    2    0    0 -0.12487280675E+03 -0.35892035827E+02 -0.47967733493E+03  0.53532494968E+03  0.19900000000E+03 0.  0.
   -5000001    1    1    2    0    0  0.12487280675E+03  0.35892035827E+02 -0.12474557153E+04  0.12698929946E+04  0.19900000000E+03 0.  0.
<mgrwt>
<rscale>  0 0.52518878E+03</rscale>
<asrwt>0</asrwt>
<pdfrwt beam="1">  1        2 0.25231074E+00 0.52518878E+03</pdfrwt>
<pdfrwt beam="2">  1       -2 0.55774935E-02 0.52518878E+03</pdfrwt>
<totfact> 0.18855224E+03</totfact>
</mgrwt>
</event>
<event>
 4    1  0.4917371E-005  0.5568198E+03  0.7818608E-02  0.9999276E-01
          2   -1    0    0  501    0  0.00000000000E+00  0.00000000000E+00  0.13205627059E+04  0.13205627060E+04  0.25500000000E-02 0.  1.
         -2   -1    0    0    0  501 -0.00000000000E+00 -0.00000000000E+00 -0.58696247221E+02  0.58696247277E+02  0.25500000000E-02 0. -1.
    5000001    1    1    2    0    0 -0.15005327101E+02 -0.19081328044E+03  0.54244372946E+03  0.60867155960E+03  0.19900000000E+03 0.  0.
   -5000001    1    1    2    0    0  0.15005327101E+02  0.19081328044E+03  0.71942272927E+03  0.77058739363E+03  0.19900000000E+03 0.  0.
<mgrwt>
<rscale>  0 0.55681981E+03</rscale>
<asrwt>0</asrwt>
<pdfrwt beam="1">  1        2 0.18865179E+00 0.55681981E+03</pdfrwt>
<pdfrwt beam="2">  1       -2 0.83851793E-02 0.55681981E+03</pdfrwt>
<totfact> 0.16860474E+03</totfact>
</mgrwt>
</event>
<event>
 4    1  0.4917371E-005  0.6857754E+03  0.7818608E-02  0.9741872E-01
          2   -1    0    0  501    0  0.00000000000E+00  0.00000000000E+00  0.35075676210E+03  0.35075676211E+03  0.25500000000E-02 0.  1.
         -2   -1    0    0    0  501 -0.00000000000E+00 -0.00000000000E+00 -0.33519518898E+03  0.33519518899E+03  0.25500000000E-02 0. -1.
    5000001    1    1    2    0    0  0.23180585332E+03 -0.69664631767E+02 -0.13148100228E+03  0.33981666897E+03  0.19900000000E+03 0.  0.
   -5000001    1    1    2    0    0 -0.23180585332E+03  0.69664631767E+02  0.14704257540E+03  0.34613528213E+03  0.19900000000E+03 0.  0.
<mgrwt>
<rscale>  0 0.68577541E+03</rscale>
<asrwt>0</asrwt>
<pdfrwt beam="1">  1        2 0.50108109E-01 0.68577541E+03</pdfrwt>
<pdfrwt beam="2">  1       -2 0.47885027E-01 0.68577541E+03</pdfrwt>
<totfact> 0.41725586E+02</totfact>
</mgrwt>
</event>
<event>
 4    1  0.4917371E-005  0.8249385E+03  0.7818608E-02  0.9524605E-01
         -2   -1    0    0    0  501 -0.00000000000E+00  0.00000000000E+00  0.64178765972E+02  0.64178766022E+02  0.25500000000E-02 0. -1.
          2   -1    0    0  501    0  0.00000000000E+00 -0.00000000000E+00 -0.26508904632E+04  0.26508904632E+04  0.25500000000E-02 0.  1.
    5000001    1    1    2    0    0  0.85781629963E+02 -0.34702608164E+03 -0.11209411490E+04  0.11932709872E+04  0.19900000000E+03 0.  0.
   -5000001    1    1    2    0    0 -0.85781629963E+02  0.34702608164E+03 -0.14657705482E+04  0.15217982420E+04  0.19900000000E+03 0.  0.
<mgrwt>
<rscale>  0 0.82493849E+03</rscale>
<asrwt>0</asrwt>
<pdfrwt beam="1">  1        2 0.37869857E+00 0.82493849E+03</pdfrwt>
<pdfrwt beam="2">  1       -2 0.91683968E-02 0.82493849E+03</pdfrwt>
<totfact> 0.29824476E+02</totfact>
</mgrwt>
</event>
<event>
 4    1  0.4917371E-005  0.6339353E+03  0.7818608E-02  0.9837399E-01
         -2   -1    0    0    0  501 -0.00000000000E+00  0.00000000000E+00  0.61523277272E+03  0.61523277272E+03  0.25500000000E-02 0.  1.
          2   -1    0    0  501    0  0.00000000000E+00 -0.00000000000E+00 -0.16330158797E+03  0.16330158799E+03  0.25500000000E-02 0. -1.
    5000001    1    1    2    0    0 -0.58852107660E+02 -0.18100417876E+03  0.41874719747E+03  0.50117491826E+03  0.19900000000E+03 0.  0.
   -5000001    1    1    2    0    0  0.58852107660E+02  0.18100417876E+03  0.33183987274E+02  0.27735944245E+03  0.19900000000E+03 0.  0.
<mgrwt>
<rscale>  0 0.63393529E+03</rscale>
<asrwt>0</asrwt>
<pdfrwt beam="1">  1        2 0.23328798E-01 0.63393529E+03</pdfrwt>
<pdfrwt beam="2">  1       -2 0.87890396E-01 0.63393529E+03</pdfrwt>
<totfact> 0.26776659E+02</totfact>
</mgrwt>
</event>
<event>
 4    1  0.4917371E-005  0.6847286E+03  0.7818608E-02  0.9743711E-01
          2   -1    0    0  501    0  0.00000000000E+00  0.00000000000E+00  0.26034772041E+04  0.26034772041E+04  0.25500000000E-02 0. -1.
         -2   -1    0    0    0  501 -0.00000000000E+00 -0.00000000000E+00 -0.45021826079E+02  0.45021826151E+02  0.25500000000E-02 0.  1.
    5000001    1    1    2    0    0  0.21634629038E+03  0.12323197597E+03  0.17626517911E+04  0.17912381679E+04  0.19900000000E+03 0.  0.
   -5000001    1    1    2    0    0 -0.21634629038E+03 -0.12323197597E+03  0.79580358686E+03  0.85726086235E+03  0.19900000000E+03 0.  0.
<mgrwt>
<rscale>  0 0.68472855E+03</rscale>
<asrwt>0</asrwt>
<pdfrwt beam="1">  1        2 0.37192530E+00 0.68472855E+03</pdfrwt>
<pdfrwt beam="2">  1       -2 0.64316898E-02 0.68472855E+03</pdfrwt>
<totfact> 0.56275260E+02</totfact>
</mgrwt>
</event>
<event>
 4    1  0.4917371E-005  0.5609062E+03  0.7818608E-02  0.9990006E-01
          2   -1    0    0  501    0  0.00000000000E+00  0.00000000000E+00  0.25000522611E+03  0.25000522612E+03  0.25500000000E-02 0.  1.
         -2   -1    0    0    0  501 -0.00000000000E+00 -0.00000000000E+00 -0.31460919893E+03  0.31460919894E+03  0.25500000000E-02 0. -1.
    5000001    1    1    2    0    0 -0.13140113052E+03 -0.14093236397E+03  0.11860093383E+02  0.27725412555E+03  0.19900000000E+03 0.  0.
   -5000001    1    1    2    0    0  0.13140113052E+03  0.14093236397E+03 -0.76464066202E+02  0.28736029952E+03  0.19900000000E+03 0.  0.
<mgrwt>
<rscale>  0 0.56090621E+03</rscale>
<asrwt>0</asrwt>
<pdfrwt beam="1">  1        2 0.35715032E-01 0.56090621E+03</pdfrwt>
<pdfrwt beam="2">  1       -2 0.44944171E-01 0.56090621E+03</pdfrwt>
<totfact> 0.69038506E+02</totfact>
</mgrwt>
</event>
<event>
 4    1  0.4917371E-005  0.6859963E+03  0.7818608E-02  0.9741485E-01
         -2   -1    0    0    0  501 -0.00000000000E+00  0.00000000000E+00  0.53353158978E+02  0.53353159039E+02  0.25500000000E-02 0. -1.
          2   -1    0    0  501    0  0.00000000000E+00 -0.00000000000E+00 -0.22050752613E+04  0.22050752613E+04  0.25500000000E-02 0.  1.
    5000001    1    1    2    0    0 -0.20820497153E+03 -0.10608519596E+03 -0.15799351841E+04  0.16094718279E+04  0.19900000000E+03 0.  0.
   -5000001    1    1    2    0    0  0.20820497153E+03  0.10608519596E+03 -0.57178691822E+03  0.64895659240E+03  0.19900000000E+03 0.  0.
<mgrwt>
<rscale>  0 0.68599630E+03</rscale>
<asrwt>0</asrwt>
<pdfrwt beam="1">  1        2 0.31501069E+00 0.68599630E+03</pdfrwt>
<pdfrwt beam="2">  1       -2 0.76218812E-02 0.68599630E+03</pdfrwt>
<totfact> 0.68775361E+02</totfact>
</mgrwt>
</event>
<event>
 4    1  0.4917371E-005  0.5814453E+03  0.7818608E-02  0.9944667E-01
          2   -1    0    0  501    0  0.00000000000E+00  0.00000000000E+00  0.64152393705E+03  0.64152393705E+03  0.25500000000E-02 0.  1.
         -2   -1    0    0    0  501 -0.00000000000E+00 -0.00000000000E+00 -0.13174826168E+03  0.13174826170E+03  0.25500000000E-02 0. -1.
    5000001    1    1    2    0    0  0.16489315957E+03  0.61516336055E+02  0.41193399994E+03  0.49016796507E+03  0.19900000000E+03 0.  0.
   -5000001    1    1    2    0    0 -0.16489315957E+03 -0.61516336055E+02  0.97841675427E+02  0.28310423368E+03  0.19900000000E+03 0.  0.
<mgrwt>
<rscale>  0 0.58144531E+03</rscale>
<asrwt>0</asrwt>
<pdfrwt beam="1">  1        2 0.91646275E-01 0.58144531E+03</pdfrwt>
<pdfrwt beam="2">  1       -2 0.18821181E-01 0.58144531E+03</pdfrwt>
<totfact> 0.11897152E+03</totfact>
</mgrwt>
</event>
<event>
 4    1  0.4917371E-005  0.6274583E+03  0.7818608E-02  0.9850021E-01
         -2   -1    0    0    0  501 -0.00000000000E+00  0.00000000000E+00  0.31134602204E+03  0.31134602205E+03  0.25500000000E-02 0. -1.
          2   -1    0    0  501    0  0.00000000000E+00 -0.00000000000E+00 -0.31613052817E+03  0.31613052818E+03  0.25500000000E-02 0.  1.
    5000001    1    1    2    0    0 -0.14314392302E+03  0.17780336242E+03 -0.84374902351E+02  0.31436339248E+03  0.19900000000E+03 0.  0.
   -5000001    1    1    2    0    0  0.14314392302E+03 -0.17780336242E+03  0.79590396216E+02  0.31311315775E+03  0.19900000000E+03 0.  0.
<mgrwt>
<rscale>  0 0.62745831E+03</rscale>
<asrwt>0</asrwt>
<pdfrwt beam="1">  1        2 0.45161504E-01 0.62745831E+03</pdfrwt>
<pdfrwt beam="2">  1       -2 0.44478003E-01 0.62745831E+03</pdfrwt>
<totfact> 0.54317758E+02</totfact>
</mgrwt>
</event>
<event>
 4    1  0.4917371E-005  0.8539613E+03  0.7818608E-02  0.9485036E-01
          2   -1    0    0  501    0  0.00000000000E+00  0.00000000000E+00  0.25606552228E+04  0.25606552228E+04  0.25500000000E-02 0.  1.
         -2   -1    0    0    0  501 -0.00000000000E+00 -0.00000000000E+00 -0.71197593877E+02  0.71197593923E+02  0.25500000000E-02 0. -1.
    5000001    1    1    2    0    0  0.31965755038E+03  0.20055228833E+03  0.11905252361E+04  0.12646554897E+04  0.19900000000E+03 0.  0.
   -5000001    1    1    2    0    0 -0.31965755038E+03 -0.20055228833E+03  0.12989323929E+04  0.13671973271E+04  0.19900000000E+03 0.  0.
<mgrwt>
<rscale>  0 0.85396134E+03</rscale>
<asrwt>0</asrwt>
<pdfrwt beam="1">  1        2 0.36580777E+00 0.85396134E+03</pdfrwt>
<pdfrwt beam="2">  1       -2 0.10171088E-01 0.85396134E+03</pdfrwt>
<totfact> 0.28018066E+02</totfact>
</mgrwt>
</event>
<event>
 4    1  0.4917371E-005  0.5367241E+03  0.7818608E-02  0.1004614E+00
         -2   -1    0    0    0  501 -0.00000000000E+00  0.00000000000E+00  0.23727285776E+02  0.23727285913E+02  0.25500000000E-02 0. -1.
          2   -1    0    0  501    0  0.00000000000E+00 -0.00000000000E+00 -0.30352479124E+04  0.30352479124E+04  0.25500000000E-02 0.  1.
    5000001    1    1    2    0    0  0.92908328695E+02 -0.15290103058E+03 -0.13908493137E+04  0.14163592398E+04  0.19900000000E+03 0.  0.
   -5000001    1    1    2    0    0 -0.92908328695E+02  0.15290103058E+03 -0.16206713129E+04  0.16426159585E+04  0.19900000000E+03 0.  0.
<mgrwt>
<rscale>  0 0.53672412E+03</rscale>
<asrwt>0</asrwt>
<pdfrwt beam="1">  1        2 0.43360660E+00 0.53672412E+03</pdfrwt>
<pdfrwt beam="2">  1       -2 0.33896142E-02 0.53672412E+03</pdfrwt>
<totfact> 0.90575948E+02</totfact>
</mgrwt>
</event>
<event>
 4    1  0.4917371E-005  0.8638992E+03  0.7818608E-02  0.9471869E-01
         -2   -1    0    0    0  501 -0.00000000000E+00  0.00000000000E+00  0.24114702824E+03  0.24114702825E+03  0.25500000000E-02 0. -1.
          2   -1    0    0  501    0  0.00000000000E+00 -0.00000000000E+00 -0.77372074198E+03  0.77372074198E+03  0.25500000000E-02 0.  1.
    5000001    1    1    2    0    0 -0.15405470154E+03  0.34126474825E+03 -0.16952134127E+03  0.45665409733E+03  0.19900000000E+03 0.  0.
   -5000001    1    1    2    0    0  0.15405470154E+03 -0.34126474825E+03 -0.36305237247E+03  0.55821367291E+03  0.19900000000E+03 0.  0.
<mgrwt>
<rscale>  0 0.86389920E+03</rscale>
<asrwt>0</asrwt>
<pdfrwt beam="1">  1        2 0.11053153E+00 0.86389920E+03</pdfrwt>
<pdfrwt beam="2">  1       -2 0.34449576E-01 0.86389920E+03</pdfrwt>
<totfact> 0.31386146E+02</totfact>
</mgrwt>
</event>
<event>
 4    1  0.4917371E-005  0.1094911E+04  0.7818608E-02  0.9210167E-01
         -2   -1    0    0    0  501 -0.00000000000E+00  0.00000000000E+00  0.13582038653E+03  0.13582038656E+03  0.25500000000E-02 0. -1.
          2   -1    0    0  501    0  0.00000000000E+00 -0.00000000000E+00 -0.22066447318E+04  0.22066447318E+04  0.25500000000E-02 0.  1.
    5000001    1    1    2    0    0  0.38653038340E+03 -0.17822628605E+03 -0.43433257316E+03  0.63985633578E+03  0.19900000000E+03 0.  0.
   -5000001    1    1    2    0    0 -0.38653038340E+03  0.17822628605E+03 -0.16364917721E+04  0.17026087825E+04  0.19900000000E+03 0.  0.
<mgrwt>
<rscale>  0 0.10949107E+04</rscale>
<asrwt>0</asrwt>
<pdfrwt beam="1">  1        2 0.31523494E+00 0.10949107E+04</pdfrwt>
<pdfrwt beam="2">  1       -2 0.19402914E-01 0.10949107E+04</pdfrwt>
<totfact> 0.14088401E+02</totfact>
</mgrwt>
</event>
<event>
 4    1  0.4917371E-005  0.5322113E+03  0.7818608E-02  0.1005697E+00
          2   -1    0    0  501    0  0.00000000000E+00  0.00000000000E+00  0.24346136094E+04  0.24346136094E+04  0.25500000000E-02 0.  1.
         -2   -1    0    0    0  501 -0.00000000000E+00 -0.00000000000E+00 -0.29085609581E+02  0.29085609693E+02  0.25500000000E-02 0. -1.
    5000001    1    1    2    0    0 -0.16269247070E+03 -0.34757458312E+02  0.14779683506E+04  0.15005560191E+04  0.19900000000E+03 0.  0.
   -5000001    1    1    2    0    0  0.16269247070E+03  0.34757458312E+02  0.92755964920E+03  0.96314320003E+03  0.19900000000E+03 0.  0.
<mgrwt>
<rscale>  0 0.53221132E+03</rscale>
<asrwt>0</asrwt>
<pdfrwt beam="1">  1        2 0.34780191E+00 0.53221132E+03</pdfrwt>
<pdfrwt beam="2">  1       -2 0.41550875E-02 0.53221132E+03</pdfrwt>
<totfact> 0.13711278E+03</totfact>
</mgrwt>
</event>
<event>
 4    1  0.4917371E-005  0.4572680E+03  0.7818608E-02  0.1025577E+00
          2   -1    0    0  501    0  0.00000000000E+00  0.00000000000E+00  0.14376429851E+04  0.14376429851E+04  0.25500000000E-02 0.  1.
         -2   -1    0    0    0  501 -0.00000000000E+00 -0.00000000000E+00 -0.36360553786E+02  0.36360553875E+02  0.25500000000E-02 0. -1.
    5000001    1    1    2    0    0 -0.99436157224E+02 -0.36960348479E+02  0.82206404653E+03  0.85243411084E+03  0.19900000000E+03 0.  0.
   -5000001    1    1    2    0    0  0.99436157224E+02  0.36960348479E+02  0.57921838476E+03  0.62156942811E+03  0.19900000000E+03 0.  0.
<mgrwt>
<rscale>  0 0.45726795E+03</rscale>
<asrwt>0</asrwt>
<pdfrwt beam="1">  1        2 0.20537753E+00 0.45726795E+03</pdfrwt>
<pdfrwt beam="2">  1       -2 0.51943657E-02 0.45726795E+03</pdfrwt>
<totfact> 0.31032491E+03</totfact>
</mgrwt>
</event>
<event>
 4    1  0.4917371E-005  0.7009755E+03  0.7818608E-02  0.9715565E-01
         -2   -1    0    0    0  501 -0.00000000000E+00  0.00000000000E+00  0.34331654144E+02  0.34331654239E+02  0.25500000000E-02 0. -1.
          2   -1    0    0  501    0  0.00000000000E+00 -0.00000000000E+00 -0.35780876847E+04  0.35780876847E+04  0.25500000000E-02 0.  1.
    5000001    1    1    2    0    0  0.21118903430E+03  0.28801777712E+02 -0.27739535893E+04  0.27892382233E+04  0.19900000000E+03 0.  0.
   -5000001    1    1    2    0    0 -0.21118903430E+03 -0.28801777712E+02 -0.76980244119E+03  0.82318111559E+03  0.19900000000E+03 0.  0.
<mgrwt>
<rscale>  0 0.70097552E+03</rscale>
<asrwt>0</asrwt>
<pdfrwt beam="1">  1        2 0.51115515E+00 0.70097552E+03</pdfrwt>
<pdfrwt beam="2">  1       -2 0.49045243E-02 0.70097552E+03</pdfrwt>
<totfact> 0.24605699E+02</totfact>
</mgrwt>
</event>
<event>
 4    1  0.4917371E-005  0.5366880E+03  0.7818608E-02  0.1004623E+00
          2   -1    0    0  501    0  0.00000000000E+00  0.00000000000E+00  0.15424489379E+04  0.15424489379E+04  0.25500000000E-02 0.  1.
         -2   -1    0    0    0  501 -0.00000000000E+00 -0.00000000000E+00 -0.46684533464E+02  0.46684533534E+02  0.25500000000E-02 0. -1.
    5000001    1    1    2    0    0  0.85701993066E+02 -0.15424665779E+03  0.64233401780E+03  0.69522000365E+03  0.19900000000E+03 0.  0.
   -5000001    1    1    2    0    0 -0.85701993066E+02  0.15424665779E+03  0.85343038667E+03  0.89391346782E+03  0.19900000000E+03 0.  0.
<mgrwt>
<rscale>  0 0.53668803E+03</rscale>
<asrwt>0</asrwt>
<pdfrwt beam="1">  1        2 0.22034985E+00 0.53668803E+03</pdfrwt>
<pdfrwt beam="2">  1       -2 0.66692190E-02 0.53668803E+03</pdfrwt>
<totfact> 0.18525544E+03</totfact>
</mgrwt>
</event>
<event>
 4    1  0.4917371E-005  0.1219001E+04  0.7818608E-02  0.9096386E-01
          2   -1    0    0  501    0  0.00000000000E+00  0.00000000000E+00  0.14799824160E+04  0.14799824160E+04  0.25500000000E-02 0.  1.
         -2   -1    0    0    0  501 -0.00000000000E+00 -0.00000000000E+00 -0.25101019043E+03  0.25101019044E+03  0.25500000000E-02 0. -1.
    5000001    1    1    2    0    0  0.47167847245E+03 -0.20642589603E+03  0.98149041867E+03  0.11260624645E+04  0.19900000000E+03 0.  0.
   -5000001    1    1    2    0    0 -0.47167847245E+03  0.20642589603E+03  0.24748180687E+03  0.60493014196E+03  0.19900000000E+03 0.  0.
<mgrwt>
<rscale>  0 0.12190007E+04</rscale>
<asrwt>0</asrwt>
<pdfrwt beam="1">  1        2 0.21142606E+00 0.12190007E+04</pdfrwt>
<pdfrwt beam="2">  1       -2 0.35858599E-01 0.12190007E+04</pdfrwt>
<totfact> 0.10789491E+02</totfact>
</mgrwt>
</event>
<event>
 4    1  0.4917371E-005  0.6114974E+03  0.7818608E-02  0.9881836E-01
         -2   -1    0    0    0  501 -0.00000000000E+00  0.00000000000E+00  0.17502721877E+03  0.17502721879E+03  0.25500000000E-02 0. -1.
          2   -1    0    0  501    0  0.00000000000E+00 -0.00000000000E+00 -0.53410130101E+03  0.53410130101E+03  0.25500000000E-02 0.  1.
    5000001    1    1    2    0    0 -0.14241104412E+03 -0.13644860761E+03 -0.32148110288E+03  0.42643900797E+03  0.19900000000E+03 0.  0.
   -5000001    1    1    2    0    0  0.14241104412E+03  0.13644860761E+03 -0.37592979352E+02  0.28268951184E+03  0.19900000000E+03 0.  0.
<mgrwt>
<rscale>  0 0.61149739E+03</rscale>
<asrwt>0</asrwt>
<pdfrwt beam="1">  1        2 0.76300185E-01 0.61149739E+03</pdfrwt>
<pdfrwt beam="2">  1       -2 0.25003889E-01 0.61149739E+03</pdfrwt>
<totfact> 0.89388424E+02</totfact>
</mgrwt>
</event>
<event>
 4    1  0.4917371E-005  0.8865029E+03  0.7818608E-02  0.9442613E-01
         -2   -1    0    0    0  501 -0.00000000000E+00  0.00000000000E+00  0.89927296414E+02  0.89927296450E+02  0.25500000000E-02 0. -1.
          2   -1    0    0  501    0  0.00000000000E+00 -0.00000000000E+00 -0.21847854377E+04  0.21847854377E+04  0.25500000000E-02 0.  1.
    5000001    1    1    2    0    0  0.36436423259E+03  0.12115520450E+03 -0.79824252872E+03  0.90787224444E+03  0.19900000000E+03 0.  0.
   -5000001    1    1    2    0    0 -0.36436423259E+03 -0.12115520450E+03 -0.12966156126E+04  0.13668404898E+04  0.19900000000E+03 0.  0.
<mgrwt>
<rscale>  0 0.88650290E+03</rscale>
<asrwt>0</asrwt>
<pdfrwt beam="1">  1        2 0.31211217E+00 0.88650290E+03</pdfrwt>
<pdfrwt beam="2">  1       -2 0.12846758E-01 0.88650290E+03</pdfrwt>
<totfact> 0.29676200E+02</totfact>
</mgrwt>
</event>
<event>
 4    1  0.4917371E-005  0.6222285E+03  0.7818608E-02  0.9860333E-01
         -2   -1    0    0    0  501 -0.00000000000E+00  0.00000000000E+00  0.19991036461E+03  0.19991036463E+03  0.25500000000E-02 0. -1.
          2   -1    0    0  501    0  0.00000000000E+00 -0.00000000000E+00 -0.48417741393E+03  0.48417741393E+03  0.25500000000E-02 0.  1.
    5000001    1    1    2    0    0  0.79809224866E+02 -0.22543264602E+03 -0.14356407388E+03  0.34263834225E+03  0.19900000000E+03 0.  0.
   -5000001    1    1    2    0    0 -0.79809224866E+02  0.22543264602E+03 -0.14070297543E+03  0.34144943632E+03  0.19900000000E+03 0.  0.
<mgrwt>
<rscale>  0 0.62222852E+03</rscale>
<asrwt>0</asrwt>
<pdfrwt beam="1">  1        2 0.69168201E-01 0.62222852E+03</pdfrwt>
<pdfrwt beam="2">  1       -2 0.28558624E-01 0.62222852E+03</pdfrwt>
<totfact> 0.78545930E+02</totfact>
</mgrwt>
</event>
<event>
 4    1  0.4917371E-005  0.6658102E+03  0.7818608E-02  0.9777557E-01
         -2   -1    0    0    0  501 -0.00000000000E+00  0.00000000000E+00  0.17680498151E+03  0.17680498153E+03  0.25500000000E-02 0. -1.
          2   -1    0    0  501    0  0.00000000000E+00 -0.00000000000E+00 -0.62682508412E+03  0.62682508413E+03  0.25500000000E-02 0.  1.
    5000001    1    1    2    0    0 -0.25020536534E+03  0.33647659610E+02 -0.32946859759E+03  0.46031016352E+03  0.19900000000E+03 0.  0.
   -5000001    1    1    2    0    0  0.25020536534E+03 -0.33647659610E+02 -0.12055150502E+03  0.34331990214E+03  0.19900000000E+03 0.  0.
<mgrwt>
<rscale>  0 0.66581018E+03</rscale>
<asrwt>0</asrwt>
<pdfrwt beam="1">  1        2 0.89546440E-01 0.66581018E+03</pdfrwt>
<pdfrwt beam="2">  1       -2 0.25257855E-01 0.66581018E+03</pdfrwt>
<totfact> 0.72705376E+02</totfact>
</mgrwt>
</event>
<event>
 4    1  0.4917371E-005  0.6316606E+03  0.7818608E-02  0.9841814E-01
          2   -1    0    0  501    0  0.00000000000E+00  0.00000000000E+00  0.22654416764E+03  0.22654416766E+03  0.25500000000E-02 0.  1.
         -2   -1    0    0    0  501 -0.00000000000E+00 -0.00000000000E+00 -0.44030610816E+03  0.44030610816E+03  0.25500000000E-02 0. -1.
    5000001    1    1    2    0    0  0.72056907270E+02  0.22939750309E+03 -0.55895888123E+02  0.31708163400E+03  0.19900000000E+03 0.  0.
   -5000001    1    1    2    0    0 -0.72056907270E+02 -0.22939750309E+03 -0.15786605239E+03  0.34976864183E+03  0.19900000000E+03 0.  0.
<mgrwt>
<rscale>  0 0.63166061E+03</rscale>
<asrwt>0</asrwt>
<pdfrwt beam="1">  1        2 0.32363453E-01 0.63166061E+03</pdfrwt>
<pdfrwt beam="2">  1       -2 0.62900872E-01 0.63166061E+03</pdfrwt>
<totfact> 0.38614912E+02</totfact>
</mgrwt>
</event>
<event>
 4    1  0.4917371E-005  0.5690596E+03  0.7818608E-02  0.9971762E-01
         -2   -1    0    0    0  501 -0.00000000000E+00  0.00000000000E+00  0.84552044665E+02  0.84552044704E+02  0.25500000000E-02 0. -1.
          2   -1    0    0  501    0  0.00000000000E+00 -0.00000000000E+00 -0.95748387901E+03  0.95748387902E+03  0.25500000000E-02 0.  1.
    5000001    1    1    2    0    0 -0.15636742314E+03  0.10315287416E+03 -0.29152762904E+03  0.39960060681E+03  0.19900000000E+03 0.  0.
   -5000001    1    1    2    0    0  0.15636742314E+03 -0.10315287416E+03 -0.58140420530E+03  0.64243531691E+03  0.19900000000E+03 0.  0.
<mgrwt>
<rscale>  0 0.56905964E+03</rscale>
<asrwt>0</asrwt>
<pdfrwt beam="1">  1        2 0.13678341E+00 0.56905964E+03</pdfrwt>
<pdfrwt beam="2">  1       -2 0.12078864E-01 0.56905964E+03</pdfrwt>
<totfact> 0.15087054E+03</totfact>
</mgrwt>
</event>
<event>
 4    1  0.4917371E-005  0.5986239E+03  0.7818608E-02  0.9908265E-01
         -2   -1    0    0    0  501 -0.00000000000E+00  0.00000000000E+00  0.78461036411E+02  0.78461036452E+02  0.25500000000E-02 0. -1.
          2   -1    0    0  501    0  0.00000000000E+00 -0.00000000000E+00 -0.11418105697E+04  0.11418105697E+04  0.25500000000E-02 0.  1.
    5000001    1    1    2    0    0 -0.96916077618E+02 -0.18741334980E+03 -0.38090921710E+03  0.47875810328E+03  0.19900000000E+03 0.  0.
   -5000001    1    1    2    0    0  0.96916077618E+02  0.18741334980E+03 -0.68244031618E+03  0.74151350286E+03  0.19900000000E+03 0.  0.
<mgrwt>
<rscale>  0 0.59862389E+03</rscale>
<asrwt>0</asrwt>
<pdfrwt beam="1">  1        2 0.16311579E+00 0.59862389E+03</pdfrwt>
<pdfrwt beam="2">  1       -2 0.11208720E-01 0.59862389E+03</pdfrwt>
<totfact> 0.13240807E+03</totfact>
</mgrwt>
</event>
<event>
 4    1  0.4917371E-005  0.8587381E+03  0.7818608E-02  0.9478684E-01
         -2   -1    0    0    0  501 -0.00000000000E+00  0.00000000000E+00  0.76786363525E+02  0.76786363567E+02  0.25500000000E-02 0. -1.
          2   -1    0    0  501    0  0.00000000000E+00 -0.00000000000E+00 -0.24009179703E+04  0.24009179703E+04  0.25500000000E-02 0.  1.
    5000001    1    1    2    0    0  0.23005629241E+03  0.17462688511E+03 -0.18766404581E+04  0.19091361543E+04  0.19900000000E+03 0.  0.
   -5000001    1    1    2    0    0 -0.23005629241E+03 -0.17462688511E+03 -0.44749114870E+03  0.56856817959E+03  0.19900000000E+03 0.  0.
<mgrwt>
<rscale>  0 0.85873805E+03</rscale>
<asrwt>0</asrwt>
<pdfrwt beam="1">  1        2 0.34298824E+00 0.85873805E+03</pdfrwt>
<pdfrwt beam="2">  1       -2 0.10969482E-01 0.85873805E+03</pdfrwt>
<totfact> 0.29939146E+02</totfact>
</mgrwt>
</event>
<event>
 4    1  0.4917371E-005  0.4890231E+03  0.7818608E-02  0.1016684E+00
         -2   -1    0    0    0  501 -0.00000000000E+00  0.00000000000E+00  0.24483178447E+02  0.24483178580E+02  0.25500000000E-02 0. -1.
          2   -1    0    0  501    0  0.00000000000E+00 -0.00000000000E+00 -0.24419168940E+04  0.24419168940E+04  0.25500000000E-02 0.  1.
    5000001    1    1    2    0    0  0.10620872984E+03  0.94289163981E+02 -0.12276864774E+04  0.12517930450E+04  0.19900000000E+03 0.  0.
   -5000001    1    1    2    0    0 -0.10620872984E+03 -0.94289163981E+02 -0.11897472381E+04  0.12146070276E+04  0.19900000000E+03 0.  0.
<mgrwt>
<rscale>  0 0.48902306E+03</rscale>
<asrwt>0</asrwt>
<pdfrwt beam="1">  1        2 0.34884512E+00 0.48902306E+03</pdfrwt>
<pdfrwt beam="2">  1       -2 0.34975985E-02 0.48902306E+03</pdfrwt>
<totfact> 0.17734791E+03</totfact>
</mgrwt>
</event>
<event>
 4    1  0.4917371E-005  0.5182526E+03  0.7818608E-02  0.1009122E+00
         -2   -1    0    0    0  501 -0.00000000000E+00  0.00000000000E+00  0.33346750292E+02  0.33346750389E+02  0.25500000000E-02 0. -1.
          2   -1    0    0  501    0  0.00000000000E+00 -0.00000000000E+00 -0.20135829738E+04  0.20135829738E+04  0.25500000000E-02 0.  1.
    5000001    1    1    2    0    0  0.14950625356E+03 -0.70130339115E+02 -0.92461248493E+03  0.96009355357E+03  0.19900000000E+03 0.  0.
   -5000001    1    1    2    0    0 -0.14950625356E+03  0.70130339115E+02 -0.10556237385E+04  0.10868361706E+04  0.19900000000E+03 0.  0.
<mgrwt>
<rscale>  0 0.51825264E+03</rscale>
<asrwt>0</asrwt>
<pdfrwt beam="1">  1        2 0.28765463E+00 0.51825264E+03</pdfrwt>
<pdfrwt beam="2">  1       -2 0.47638228E-02 0.51825264E+03</pdfrwt>
<totfact> 0.18100315E+03</totfact>
</mgrwt>
</event>
<event>
 4    1  0.4917371E-005  0.4742758E+03  0.7818608E-02  0.1020720E+00
          2   -1    0    0  501    0  0.00000000000E+00  0.00000000000E+00  0.67094905663E+03  0.67094905664E+03  0.25500000000E-02 0.  1.
         -2   -1    0    0    0  501 -0.00000000000E+00 -0.00000000000E+00 -0.83813192426E+02  0.83813192464E+02  0.25500000000E-02 0. -1.
    5000001    1    1    2    0    0  0.22625535196E+01 -0.12392319065E+03  0.23682598022E+03  0.33324108575E+03  0.19900000000E+03 0.  0.
   -5000001    1    1    2    0    0 -0.22625535196E+01  0.12392319065E+03  0.35030988399E+03  0.42152116335E+03  0.19900000000E+03 0.  0.
<mgrwt>
<rscale>  0 0.47427579E+03</rscale>
<asrwt>0</asrwt>
<pdfrwt beam="1">  1        2 0.95849864E-01 0.47427579E+03</pdfrwt>
<pdfrwt beam="2">  1       -2 0.11973313E-01 0.47427579E+03</pdfrwt>
<totfact> 0.24102666E+03</totfact>
</mgrwt>
</event>
<event>
 4    1  0.4917371E-005  0.6696709E+03  0.7818608E-02  0.9770553E-01
         -2   -1    0    0    0  501 -0.00000000000E+00  0.00000000000E+00  0.54153201082E+02  0.54153201142E+02  0.25500000000E-02 0. -1.
          2   -1    0    0  501    0  0.00000000000E+00 -0.00000000000E+00 -0.20703258292E+04  0.20703258292E+04  0.25500000000E-02 0.  1.
    5000001    1    1    2    0    0 -0.21067122137E+03 -0.78909984558E+02 -0.53856110386E+03  0.61665080213E+03  0.19900000000E+03 0.  0.
   -5000001    1    1    2    0    0  0.21067122137E+03  0.78909984558E+02 -0.14776115242E+04  0.15078282282E+04  0.19900000000E+03 0.  0.
<mgrwt>
<rscale>  0 0.66967088E+03</rscale>
<asrwt>0</asrwt>
<pdfrwt beam="1">  1        2 0.29576078E+00 0.66967088E+03</pdfrwt>
<pdfrwt beam="2">  1       -2 0.77361729E-02 0.66967088E+03</pdfrwt>
<totfact> 0.78638398E+02</totfact>
</mgrwt>
</event>
<event>
 4    1  0.4917371E-005  0.9022837E+03  0.7818608E-02  0.9422731E-01
          2   -1    0    0  501    0  0.00000000000E+00  0.00000000000E+00  0.95587496994E+03  0.95587496994E+03  0.25500000000E-02 0.  1.
         -2   -1    0    0    0  501 -0.00000000000E+00 -0.00000000000E+00 -0.21292427951E+03  0.21292427952E+03  0.25500000000E-02 0. -1.
    5000001    1    1    2    0    0  0.32033718952E+03  0.18631219671E+03  0.58274459969E+03  0.71869354950E+03  0.19900000000E+03 0.  0.
   -5000001    1    1    2    0    0 -0.32033718952E+03 -0.18631219671E+03  0.16020609074E+03  0.45010569997E+03  0.19900000000E+03 0.  0.
<mgrwt>
<rscale>  0 0.90228375E+03</rscale>
<asrwt>0</asrwt>
<pdfrwt beam="1">  1        2 0.13655356E+00 0.90228375E+03</pdfrwt>
<pdfrwt beam="2">  1       -2 0.30417755E-01 0.90228375E+03</pdfrwt>
<totfact> 0.29894332E+02</totfact>
</mgrwt>
</event>
<event>
 4    1  0.4917371E-005  0.4898988E+03  0.7818608E-02  0.1016450E+00
         -2   -1    0    0    0  501 -0.00000000000E+00  0.00000000000E+00  0.15278590142E+03  0.15278590144E+03  0.25500000000E-02 0. -1.
          2   -1    0    0  501    0  0.00000000000E+00 -0.00000000000E+00 -0.39270783345E+03  0.39270783346E+03  0.25500000000E-02 0.  1.
    5000001    1    1    2    0    0 -0.81511378992E+02 -0.53634081501E+02 -0.23609723545E+03  0.32382653411E+03  0.19900000000E+03 0.  0.
   -5000001    1    1    2    0    0  0.81511378992E+02  0.53634081501E+02 -0.38246965840E+01  0.22166720079E+03  0.19900000000E+03 0.  0.
<mgrwt>
<rscale>  0 0.48989885E+03</rscale>
<asrwt>0</asrwt>
<pdfrwt beam="1">  1        2 0.56101119E-01 0.48989885E+03</pdfrwt>
<pdfrwt beam="2">  1       -2 0.21826557E-01 0.48989885E+03</pdfrwt>
<totfact> 0.16079364E+03</totfact>
</mgrwt>
</event>
<event>
 4    1  0.4917371E-005  0.6754108E+03  0.7818608E-02  0.9760232E-01
          2   -1    0    0  501    0  0.00000000000E+00  0.00000000000E+00  0.37960628651E+03  0.37960628652E+03  0.25500000000E-02 0.  1.
         -2   -1    0    0    0  501 -0.00000000000E+00 -0.00000000000E+00 -0.30042950234E+03  0.30042950235E+03  0.25500000000E-02 0. -1.
    5000001    1    1    2    0    0  0.96617354351E+02 -0.23976997542E+03  0.12747514460E+03  0.35025057711E+03  0.19900000000E+03 0.  0.
   -5000001    1    1    2    0    0 -0.96617354351E+02  0.23976997542E+03 -0.48298360431E+02  0.32978521176E+03  0.19900000000E+03 0.  0.
<mgrwt>
<rscale>  0 0.67541077E+03</rscale>
<asrwt>0</asrwt>
<pdfrwt beam="1">  1        2 0.54229469E-01 0.67541077E+03</pdfrwt>
<pdfrwt beam="2">  1       -2 0.42918500E-01 0.67541077E+03</pdfrwt>
<totfact> 0.47543882E+02</totfact>
</mgrwt>
</event>
<event>
 4    1  0.4917371E-005  0.2297222E+04  0.7818608E-02  0.8479017E-01
          2   -1    0    0  501    0  0.00000000000E+00  0.00000000000E+00  0.29208209798E+04  0.29208209798E+04  0.25500000000E-02 0.  1.
         -2   -1    0    0    0  501 -0.00000000000E+00 -0.00000000000E+00 -0.45169069027E+03  0.45169069028E+03  0.25500000000E-02 0. -1.
    5000001    1    1    2    0    0  0.10243177997E+04  0.17239742952E+03  0.18923558599E+04  0.21678467494E+04  0.19900000000E+03 0.  0.
   -5000001    1    1    2    0    0 -0.10243177997E+04 -0.17239742952E+03  0.57677442966E+03  0.12046649207E+04  0.19900000000E+03 0.  0.
<mgrwt>
<rscale>  0 0.22972224E+04</rscale>
<asrwt>0</asrwt>
<pdfrwt beam="1">  1        2 0.41726016E+00 0.22972224E+04</pdfrwt>
<pdfrwt beam="2">  1       -2 0.64527239E-01 0.22972224E+04</pdfrwt>
<totfact> 0.52757746E+00</totfact>
</mgrwt>
</event>
<event>
 4    1  0.4917371E-005  0.5035940E+03  0.7818608E-02  0.1012845E+00
          2   -1    0    0  501    0  0.00000000000E+00  0.00000000000E+00  0.80066719515E+03  0.80066719515E+03  0.25500000000E-02 0.  1.
         -2   -1    0    0    0  501 -0.00000000000E+00 -0.00000000000E+00 -0.79186128758E+02  0.79186128799E+02  0.25500000000E-02 0. -1.
    5000001    1    1    2    0    0  0.14795581973E+03 -0.27426900044E+02  0.42018405094E+03  0.48867043711E+03  0.19900000000E+03 0.  0.
   -5000001    1    1    2    0    0 -0.14795581973E+03  0.27426900044E+02  0.30129701545E+03  0.39118288684E+03  0.19900000000E+03 0.  0.
<mgrwt>
<rscale>  0 0.50359403E+03</rscale>
<asrwt>0</asrwt>
<pdfrwt beam="1">  1        2 0.11438103E+00 0.50359403E+03</pdfrwt>
<pdfrwt beam="2">  1       -2 0.11312304E-01 0.50359403E+03</pdfrwt>
<totfact> 0.21274228E+03</totfact>
</mgrwt>
</event>
<event>
 4    1  0.4917371E-005  0.1435924E+04  0.7818608E-02  0.8928218E-01
         -2   -1    0    0    0  501 -0.00000000000E+00  0.00000000000E+00  0.85082527240E+03  0.85082527241E+03  0.25500000000E-02 0. -1.
          2   -1    0    0  501    0  0.00000000000E+00 -0.00000000000E+00 -0.60584609818E+03  0.60584609818E+03  0.25500000000E-02 0.  1.
    5000001    1    1    2    0    0 -0.35387816063E+03  0.36895771091E+03  0.59233243659E+03  0.80735262460E+03  0.19900000000E+03 0.  0.
   -5000001    1    1    2    0    0  0.35387816063E+03 -0.36895771091E+03 -0.34735326237E+03  0.64931874598E+03  0.19900000000E+03 0.  0.
<mgrwt>
<rscale>  0 0.14359236E+04</rscale>
<asrwt>0</asrwt>
<pdfrwt beam="1">  1        2 0.86549443E-01 0.14359236E+04</pdfrwt>
<pdfrwt beam="2">  1       -2 0.12154647E+00 0.14359236E+04</pdfrwt>
<totfact> 0.26824777E+01</totfact>
</mgrwt>
</event>
<event>
 4    1  0.4917371E-005  0.4355890E+03  0.7818608E-02  0.1032109E+00
          2   -1    0    0  501    0  0.00000000000E+00  0.00000000000E+00  0.72345213281E+02  0.72345213326E+02  0.25500000000E-02 0.  1.
         -2   -1    0    0    0  501 -0.00000000000E+00 -0.00000000000E+00 -0.65566816503E+03  0.65566816503E+03  0.25500000000E-02 0. -1.
    5000001    1    1    2    0    0  0.66614996643E+02  0.31477906434E+02 -0.37362550252E+03  0.42968061686E+03  0.19900000000E+03 0.  0.
   -5000001    1    1    2    0    0 -0.66614996643E+02 -0.31477906434E+02 -0.20969744922E+03  0.29833276150E+03  0.19900000000E+03 0.  0.
<mgrwt>
<rscale>  0 0.43558904E+03</rscale>
<asrwt>0</asrwt>
<pdfrwt beam="1">  1        2 0.10335031E-01 0.43558904E+03</pdfrwt>
<pdfrwt beam="2">  1       -2 0.93666877E-01 0.43558904E+03</pdfrwt>
<totfact> 0.61789655E+02</totfact>
</mgrwt>
</event>
<event>
 4    1  0.4917371E-005  0.4742968E+03  0.7818608E-02  0.1020714E+00
          2   -1    0    0  501    0  0.00000000000E+00  0.00000000000E+00  0.22657269212E+04  0.22657269212E+04  0.25500000000E-02 0.  1.
         -2   -1    0    0    0  501 -0.00000000000E+00 -0.00000000000E+00 -0.24821778616E+02  0.24821778747E+02  0.25500000000E-02 0. -1.
    5000001    1    1    2    0    0 -0.94796576799E+02 -0.48628961337E+02  0.14716104291E+04  0.14888214876E+04  0.19900000000E+03 0.  0.
   -5000001    1    1    2    0    0  0.94796576799E+02  0.48628961337E+02  0.76929471347E+03  0.80172721235E+03  0.19900000000E+03 0.  0.
<mgrwt>
<rscale>  0 0.47429684E+03</rscale>
<asrwt>0</asrwt>
<pdfrwt beam="1">  1        2 0.32367512E+00 0.47429684E+03</pdfrwt>
<pdfrwt beam="2">  1       -2 0.35459700E-02 0.47429684E+03</pdfrwt>
<totfact> 0.21326245E+03</totfact>
</mgrwt>
</event>
<event>
 4    1  0.4917371E-005  0.5434595E+03  0.7818608E-02  0.1003019E+00
         -2   -1    0    0    0  501 -0.00000000000E+00  0.00000000000E+00  0.84543349532E+02  0.84543349570E+02  0.25500000000E-02 0. -1.
          2   -1    0    0  501    0  0.00000000000E+00 -0.00000000000E+00 -0.87336312250E+03  0.87336312251E+03  0.25500000000E-02 0.  1.
    5000001    1    1    2    0    0  0.12807485379E+03  0.70003356899E+02 -0.59485506779E+03  0.64401645152E+03  0.19900000000E+03 0.  0.
   -5000001    1    1    2    0    0 -0.12807485379E+03 -0.70003356899E+02 -0.19396470518E+03  0.31389002056E+03  0.19900000000E+03 0.  0.
<mgrwt>
<rscale>  0 0.54345945E+03</rscale>
<asrwt>0</asrwt>
<pdfrwt beam="1">  1        2 0.12476616E+00 0.54345945E+03</pdfrwt>
<pdfrwt beam="2">  1       -2 0.12077622E-01 0.54345945E+03</pdfrwt>
<totfact> 0.17078911E+03</totfact>
</mgrwt>
</event>
<event>
 4    1  0.4917371E-005  0.6968738E+03  0.7818608E-02  0.9722593E-01
         -2   -1    0    0    0  501 -0.00000000000E+00  0.00000000000E+00  0.60466016626E+02  0.60466016679E+02  0.25500000000E-02 0. -1.
          2   -1    0    0  501    0  0.00000000000E+00 -0.00000000000E+00 -0.20078758810E+04  0.20078758810E+04  0.25500000000E-02 0.  1.
    5000001    1    1    2    0    0 -0.72217617781E+02  0.27658753627E+03 -0.10020503015E+04  0.10608590181E+04  0.19900000000E+03 0.  0.
   -5000001    1    1    2    0    0  0.72217617781E+02 -0.27658753627E+03 -0.94535956286E+03  0.10074828796E+04  0.19900000000E+03 0.  0.
<mgrwt>
<rscale>  0 0.69687375E+03</rscale>
<asrwt>0</asrwt>
<pdfrwt beam="1">  1        2 0.28683937E+00 0.69687375E+03</pdfrwt>
<pdfrwt beam="2">  1       -2 0.86380037E-02 0.69687375E+03</pdfrwt>
<totfact> 0.70755142E+02</totfact>
</mgrwt>
</event>
<event>
 4    1  0.4917371E-005  0.6495368E+03  0.7818608E-02  0.9807649E-01
          2   -1    0    0  501    0  0.00000000000E+00  0.00000000000E+00  0.15218855047E+04  0.15218855047E+04  0.25500000000E-02 0.  1.
         -2   -1    0    0    0  501 -0.00000000000E+00 -0.00000000000E+00 -0.69305166408E+02  0.69305166455E+02  0.25500000000E-02 0. -1.
    5000001    1    1    2    0    0  0.31244813346E+02 -0.24406109555E+03  0.90516201031E+03  0.95888545804E+03  0.19900000000E+03 0.  0.
   -5000001    1    1    2    0    0 -0.31244813346E+02  0.24406109555E+03  0.54741832794E+03  0.63230521308E+03  0.19900000000E+03 0.  0.
<mgrwt>
<rscale>  0 0.64953684E+03</rscale>
<asrwt>0</asrwt>
<pdfrwt beam="1">  1        2 0.21741217E+00 0.64953684E+03</pdfrwt>
<pdfrwt beam="2">  1       -2 0.99007399E-02 0.64953684E+03</pdfrwt>
<totfact> 0.10065776E+03</totfact>
</mgrwt>
</event>
<event>
 4    1  0.4917371E-005  0.7170557E+03  0.7818608E-02  0.9688501E-01
          2   -1    0    0  501    0  0.00000000000E+00  0.00000000000E+00  0.48568053749E+03  0.48568053750E+03  0.25500000000E-02 0.  1.
         -2   -1    0    0    0  501 -0.00000000000E+00 -0.00000000000E+00 -0.26466412075E+03  0.26466412076E+03  0.25500000000E-02 0. -1.
    5000001    1    1    2    0    0  0.27151876617E+03 -0.69443130266E+02  0.38117756390E+01  0.34374455393E+03  0.19900000000E+03 0.  0.
   -5000001    1    1    2    0    0 -0.27151876617E+03  0.69443130266E+02  0.21720464110E+03  0.40660010433E+03  0.19900000000E+03 0.  0.
<mgrwt>
<rscale>  0 0.71705568E+03</rscale>
<asrwt>0</asrwt>
<pdfrwt beam="1">  1        2 0.69382933E-01 0.71705568E+03</pdfrwt>
<pdfrwt beam="2">  1       -2 0.37809161E-01 0.71705568E+03</pdfrwt>
<totfact> 0.46098679E+02</totfact>
</mgrwt>
</event>
<event>
 4    1  0.4917371E-005  0.1096847E+04  0.7818608E-02  0.9208271E-01
         -2   -1    0    0    0  501 -0.00000000000E+00  0.00000000000E+00  0.25354313205E+03  0.25354313206E+03  0.25500000000E-02 0. -1.
          2   -1    0    0  501    0  0.00000000000E+00 -0.00000000000E+00 -0.11862608012E+04  0.11862608012E+04  0.25500000000E-02 0.  1.
    5000001    1    1    2    0    0 -0.92740351943E+02 -0.48691280549E+03 -0.30302473967E+03  0.61409270138E+03  0.19900000000E+03 0.  0.
   -5000001    1    1    2    0    0  0.92740351943E+02  0.48691280549E+03 -0.62969292951E+03  0.82571123191E+03  0.19900000000E+03 0.  0.
<mgrwt>
<rscale>  0 0.10968469E+04</rscale>
<asrwt>0</asrwt>
<pdfrwt beam="1">  1        2 0.16946583E+00 0.10968469E+04</pdfrwt>
<pdfrwt beam="2">  1       -2 0.36220448E-01 0.10968469E+04</pdfrwt>
<totfact> 0.15475303E+02</totfact>
</mgrwt>
</event>
<event>
 4    1  0.4917371E-005  0.5268308E+03  0.7818608E-02  0.1007004E+00
         -2   -1    0    0    0  501 -0.00000000000E+00  0.00000000000E+00  0.49078930503E+02  0.49078930569E+02  0.25500000000E-02 0. -1.
          2   -1    0    0  501    0  0.00000000000E+00 -0.00000000000E+00 -0.14137973233E+04  0.14137973233E+04  0.25500000000E-02 0.  1.
    5000001    1    1    2    0    0  0.42496949904E+02 -0.15749936757E+03 -0.52590677700E+03  0.58548354343E+03  0.19900000000E+03 0.  0.
   -5000001    1    1    2    0    0 -0.42496949904E+02  0.15749936757E+03 -0.83881161584E+03  0.87739271048E+03  0.19900000000E+03 0.  0.
<mgrwt>
<rscale>  0 0.52683075E+03</rscale>
<asrwt>0</asrwt>
<pdfrwt beam="1">  1        2 0.20197102E+00 0.52683075E+03</pdfrwt>
<pdfrwt beam="2">  1       -2 0.70112767E-02 0.52683075E+03</pdfrwt>
<totfact> 0.19985908E+03</totfact>
</mgrwt>
</event>
<event>
 4    1  0.4917371E-005  0.5457825E+03  0.7818608E-02  0.1002475E+00
          2   -1    0    0  501    0  0.00000000000E+00  0.00000000000E+00  0.14024969876E+04  0.14024969876E+04  0.25500000000E-02 0.  1.
         -2   -1    0    0    0  501 -0.00000000000E+00 -0.00000000000E+00 -0.53097901574E+02  0.53097901636E+02  0.25500000000E-02 0. -1.
    5000001    1    1    2    0    0  0.36735578803E+02 -0.14186324958E+03  0.36604304704E+03  0.44165959360E+03  0.19900000000E+03 0.  0.
   -5000001    1    1    2    0    0 -0.36735578803E+02  0.14186324958E+03  0.98335603897E+03  0.10139352956E+04  0.19900000000E+03 0.  0.
<mgrwt>
<rscale>  0 0.54578255E+03</rscale>
<asrwt>0</asrwt>
<pdfrwt beam="1">  1        2 0.20035673E+00 0.54578255E+03</pdfrwt>
<pdfrwt beam="2">  1       -2 0.75854140E-02 0.54578255E+03</pdfrwt>
<totfact> 0.17884492E+03</totfact>
</mgrwt>
</event>
<event>
 4    1  0.4917371E-005  0.4700191E+03  0.7818608E-02  0.1021915E+00
          2   -1    0    0  501    0  0.00000000000E+00  0.00000000000E+00  0.63956464013E+03  0.63956464014E+03  0.25500000000E-02 0.  1.
         -2   -1    0    0    0  501 -0.00000000000E+00 -0.00000000000E+00 -0.86354833136E+02  0.86354833174E+02  0.25500000000E-02 0. -1.
    5000001    1    1    2    0    0  0.53802369446E+02  0.55631556845E+02  0.42823568681E+03  0.47851475268E+03  0.19900000000E+03 0.  0.
   -5000001    1    1    2    0    0 -0.53802369446E+02 -0.55631556845E+02  0.12497412019E+03  0.24740472063E+03  0.19900000000E+03 0.  0.
<mgrwt>
<rscale>  0 0.47001914E+03</rscale>
<asrwt>0</asrwt>
<pdfrwt beam="1">  1        2 0.91366375E-01 0.47001914E+03</pdfrwt>
<pdfrwt beam="2">  1       -2 0.12336405E-01 0.47001914E+03</pdfrwt>
<totfact> 0.24297382E+03</totfact>
</mgrwt>
</event>
<event>
 4    1  0.4917371E-005  0.4717424E+03  0.7818608E-02  0.1021430E+00
         -2   -1    0    0    0  501 -0.00000000000E+00  0.00000000000E+00  0.12007939304E+03  0.12007939307E+03  0.25500000000E-02 0. -1.
          2   -1    0    0  501    0  0.00000000000E+00 -0.00000000000E+00 -0.46332034681E+03  0.46332034682E+03  0.25500000000E-02 0.  1.
    5000001    1    1    2    0    0  0.56064059959E+02  0.10861958732E+03 -0.13073791508E+03  0.26764677470E+03  0.19900000000E+03 0.  0.
   -5000001    1    1    2    0    0 -0.56064059959E+02 -0.10861958732E+03 -0.21250303869E+03  0.31575296518E+03  0.19900000000E+03 0.  0.
<mgrwt>
<rscale>  0 0.47174241E+03</rscale>
<asrwt>0</asrwt>
<pdfrwt beam="1">  1        2 0.66188620E-01 0.47174241E+03</pdfrwt>
<pdfrwt beam="2">  1       -2 0.17154199E-01 0.47174241E+03</pdfrwt>
<totfact> 0.20280153E+03</totfact>
</mgrwt>
</event>
<event>
 4    1  0.4917371E-005  0.5833804E+03  0.7818608E-02  0.9940499E-01
         -2   -1    0    0    0  501 -0.00000000000E+00  0.00000000000E+00  0.18828227981E+03  0.18828227983E+03  0.25500000000E-02 0. -1.
          2   -1    0    0  501    0  0.00000000000E+00 -0.00000000000E+00 -0.45189151875E+03  0.45189151876E+03  0.25500000000E-02 0.  1.
    5000001    1    1    2    0    0 -0.13752782530E+03  0.99777441715E+02 -0.27324275252E+03  0.37832795616E+03  0.19900000000E+03 0.  0.
   -5000001    1    1    2    0    0  0.13752782530E+03 -0.99777441715E+02  0.96335135838E+01  0.26184584242E+03  0.19900000000E+03 0.  0.
<mgrwt>
<rscale>  0 0.58338037E+03</rscale>
<asrwt>0</asrwt>
<pdfrwt beam="1">  1        2 0.64555931E-01 0.58338037E+03</pdfrwt>
<pdfrwt beam="2">  1       -2 0.26897469E-01 0.58338037E+03</pdfrwt>
<totfact> 0.94761689E+02</totfact>
</mgrwt>
</event>
<event>
 4    1  0.4917371E-005  0.5665500E+03  0.7818608E-02  0.9977342E-01
          2   -1    0    0  501    0  0.00000000000E+00  0.00000000000E+00  0.13424193752E+04  0.13424193752E+04  0.25500000000E-02 0.  1.
         -2   -1    0    0    0  501 -0.00000000000E+00 -0.00000000000E+00 -0.59776194152E+02  0.59776194206E+02  0.25500000000E-02 0. -1.
    5000001    1    1    2    0    0  0.96377077252E+02 -0.14051852474E+03  0.90799598290E+03  0.94503529129E+03  0.19900000000E+03 0.  0.
   -5000001    1    1    2    0    0 -0.96377077252E+02  0.14051852474E+03  0.37464719816E+03  0.45716027813E+03  0.19900000000E+03 0.  0.
<mgrwt>
<rscale>  0 0.56654998E+03</rscale>
<asrwt>0</asrwt>
<pdfrwt beam="1">  1        2 0.19177422E+00 0.56654998E+03</pdfrwt>
<pdfrwt beam="2">  1       -2 0.85394554E-02 0.56654998E+03</pdfrwt>
<totfact> 0.15934959E+03</totfact>
</mgrwt>
</event>
<event>
 4    1  0.4917371E-005  0.4780379E+03  0.7818608E-02  0.1019676E+00
         -2   -1    0    0    0  501 -0.00000000000E+00  0.00000000000E+00  0.40569076089E+03  0.40569076090E+03  0.25500000000E-02 0. -1.
          2   -1    0    0  501    0  0.00000000000E+00 -0.00000000000E+00 -0.14082171017E+03  0.14082171019E+03  0.25500000000E-02 0.  1.
    5000001    1    1    2    0    0  0.15276719597E+01  0.11034028377E+03  0.21606909318E+03  0.31379000148E+03  0.19900000000E+03 0.  0.
   -5000001    1    1    2    0    0 -0.15276719597E+01 -0.11034028377E+03  0.48799957535E+02  0.23272246960E+03  0.19900000000E+03 0.  0.
<mgrwt>
<rscale>  0 0.47803793E+03</rscale>
<asrwt>0</asrwt>
<pdfrwt beam="1">  1        2 0.20117387E-01 0.47803793E+03</pdfrwt>
<pdfrwt beam="2">  1       -2 0.57955824E-01 0.47803793E+03</pdfrwt>
<totfact> 0.78980649E+02</totfact>
</mgrwt>
</event>
<event>
 4    1  0.4917371E-005  0.8250226E+03  0.7818608E-02  0.9524488E-01
          2   -1    0    0  501    0  0.00000000000E+00  0.00000000000E+00  0.59869793469E+03  0.59869793470E+03  0.25500000000E-02 0.  1.
         -2   -1    0    0    0  501 -0.00000000000E+00 -0.00000000000E+00 -0.28422610257E+03  0.28422610258E+03  0.25500000000E-02 0. -1.
    5000001    1    1    2    0    0  0.24527972865E+03  0.11702982903E+03 -0.97607684170E+02  0.35069414905E+03  0.19900000000E+03 0.  0.
   -5000001    1    1    2    0    0 -0.24527972865E+03 -0.11702982903E+03  0.41207951629E+03  0.53222988822E+03  0.19900000000E+03 0.  0.
<mgrwt>
<rscale>  0 0.82502262E+03</rscale>
<asrwt>0</asrwt>
<pdfrwt beam="1">  1        2 0.85528276E-01 0.82502262E+03</pdfrwt>
<pdfrwt beam="2">  1       -2 0.40603729E-01 0.82502262E+03</pdfrwt>
<totfact> 0.31372190E+02</totfact>
</mgrwt>
</event>
<event>
 4    1  0.4917371E-005  0.9014048E+03  0.7818608E-02  0.9423827E-01
         -2   -1    0    0    0  501 -0.00000000000E+00  0.00000000000E+00  0.16256591974E+03  0.16256591976E+03  0.25500000000E-02 0. -1.
          2   -1    0    0  501    0  0.00000000000E+00 -0.00000000000E+00 -0.12495402559E+04  0.12495402559E+04  0.25500000000E-02 0.  1.
    5000001    1    1    2    0    0 -0.58682036754E+02  0.24093662280E+03 -0.43075249381E+02  0.32085902629E+03  0.19900000000E+03 0.  0.
   -5000001    1    1    2    0    0  0.58682036754E+02 -0.24093662280E+03 -0.10438990867E+04  0.10912471493E+04  0.19900000000E+03 0.  0.
<mgrwt>
<rscale>  0 0.90140482E+03</rscale>
<asrwt>0</asrwt>
<pdfrwt beam="1">  1        2 0.17850575E+00 0.90140482E+03</pdfrwt>
<pdfrwt beam="2">  1       -2 0.23223703E-01 0.90140482E+03</pdfrwt>
<totfact> 0.32801171E+02</totfact>
</mgrwt>
</event>
<event>
 4    1  0.4917371E-005  0.7909450E+03  0.7818608E-02  0.9573217E-01
          2   -1    0    0  501    0  0.00000000000E+00  0.00000000000E+00  0.47218426734E+03  0.47218426735E+03  0.25500000000E-02 0. -1.
         -2   -1    0    0    0  501 -0.00000000000E+00 -0.00000000000E+00 -0.33122347438E+03  0.33122347439E+03  0.25500000000E-02 0.  1.
    5000001    1    1    2    0    0 -0.15844737960E+03 -0.12480944783E+03 -0.20975534761E+03  0.35253549639E+03  0.19900000000E+03 0.  0.
   -5000001    1    1    2    0    0  0.15844737960E+03  0.12480944783E+03  0.35071614057E+03  0.45087224535E+03  0.19900000000E+03 0.  0.
<mgrwt>
<rscale>  0 0.79094504E+03</rscale>
<asrwt>0</asrwt>
<pdfrwt beam="1">  1        2 0.67454895E-01 0.79094504E+03</pdfrwt>
<pdfrwt beam="2">  1       -2 0.47317640E-01 0.79094504E+03</pdfrwt>
<totfact> 0.30534844E+02</totfact>
</mgrwt>
</event>
<event>
 4    1  0.4917371E-005  0.8319839E+03  0.7818608E-02  0.9514842E-01
          2   -1    0    0  501    0  0.00000000000E+00  0.00000000000E+00  0.91426306277E+03  0.91426306277E+03  0.25500000000E-02 0.  1.
         -2   -1    0    0    0  501 -0.00000000000E+00 -0.00000000000E+00 -0.18927738614E+03  0.18927738616E+03  0.25500000000E-02 0. -1.
    5000001    1    1    2    0    0  0.34218945159E+03  0.10186719592E+03  0.46504460377E+03  0.61914298016E+03  0.19900000000E+03 0.  0.
   -5000001    1    1    2    0    0 -0.34218945159E+03 -0.10186719592E+03  0.25994107286E+03  0.48439746877E+03  0.19900000000E+03 0.  0.
<mgrwt>
<rscale>  0 0.83198395E+03</rscale>
<asrwt>0</asrwt>
<pdfrwt beam="1">  1        2 0.13060901E+00 0.83198395E+03</pdfrwt>
<pdfrwt beam="2">  1       -2 0.27039626E-01 0.83198395E+03</pdfrwt>
<totfact> 0.39612150E+02</totfact>
</mgrwt>
</event>
<event>
 4    1  0.4917371E-005  0.5375716E+03  0.7818608E-02  0.1004412E+00
          2   -1    0    0  501    0  0.00000000000E+00  0.00000000000E+00  0.76809177570E+03  0.76809177571E+03  0.25500000000E-02 0.  1.
         -2   -1    0    0    0  501 -0.00000000000E+00 -0.00000000000E+00 -0.94058821870E+02  0.94058821905E+02  0.25500000000E-02 0. -1.
    5000001    1    1    2    0    0 -0.36753659176E+02  0.17504890900E+03  0.29606943925E+03  0.39906273299E+03  0.19900000000E+03 0.  0.
   -5000001    1    1    2    0    0  0.36753659176E+02 -0.17504890900E+03  0.37796351458E+03  0.46308786462E+03  0.19900000000E+03 0.  0.
<mgrwt>
<rscale>  0 0.53757160E+03</rscale>
<asrwt>0</asrwt>
<pdfrwt beam="1">  1        2 0.10972739E+00 0.53757160E+03</pdfrwt>
<pdfrwt beam="2">  1       -2 0.13436975E-01 0.53757160E+03</pdfrwt>
<totfact> 0.16889175E+03</totfact>
</mgrwt>
</event>
<event>
 4    1  0.4917371E-005  0.4813514E+03  0.7818608E-02  0.1018764E+00
          2   -1    0    0  501    0  0.00000000000E+00  0.00000000000E+00  0.10260008588E+04  0.10260008588E+04  0.25500000000E-02 0.  1.
         -2   -1    0    0    0  501 -0.00000000000E+00 -0.00000000000E+00 -0.56456876495E+02  0.56456876552E+02  0.25500000000E-02 0. -1.
    5000001    1    1    2    0    0  0.14193023403E+02  0.12269707283E+03  0.36021689675E+03  0.42966641281E+03  0.19900000000E+03 0.  0.
   -5000001    1    1    2    0    0 -0.14193023403E+02 -0.12269707283E+03  0.60932708554E+03  0.65279132253E+03  0.19900000000E+03 0.  0.
<mgrwt>
<rscale>  0 0.48135145E+03</rscale>
<asrwt>0</asrwt>
<pdfrwt beam="1">  1        2 0.14657156E+00 0.48135145E+03</pdfrwt>
<pdfrwt beam="2">  1       -2 0.80652675E-02 0.48135145E+03</pdfrwt>
<totfact> 0.26325674E+03</totfact>
</mgrwt>
</event>
<event>
 4    1  0.4917371E-005  0.4580855E+03  0.7818608E-02  0.1025338E+00
         -2   -1    0    0    0  501 -0.00000000000E+00  0.00000000000E+00  0.20614842502E+03  0.20614842504E+03  0.25500000000E-02 0.  1.
          2   -1    0    0  501    0  0.00000000000E+00 -0.00000000000E+00 -0.25447971270E+03  0.25447971271E+03  0.25500000000E-02 0. -1.
    5000001    1    1    2    0    0  0.83686187903E+02 -0.76004350637E+02 -0.15196910469E+02  0.22937302686E+03  0.19900000000E+03 0.  0.
   -5000001    1    1    2    0    0 -0.83686187903E+02  0.76004350637E+02 -0.33134377211E+02  0.23125511089E+03  0.19900000000E+03 0.  0.
<mgrwt>
<rscale>  0 0.45808555E+03</rscale>
<asrwt>0</asrwt>
<pdfrwt beam="1">  1        2 0.36354245E-01 0.45808555E+03</pdfrwt>
<pdfrwt beam="2">  1       -2 0.29449775E-01 0.45808555E+03</pdfrwt>
<totfact> 0.15134367E+03</totfact>
</mgrwt>
</event>
<event>
 4    1  0.4917371E-005  0.4599329E+03  0.7818608E-02  0.1024801E+00
          2   -1    0    0  501    0  0.00000000000E+00  0.00000000000E+00  0.30767436754E+04  0.30767436754E+04  0.25500000000E-02 0.  1.
         -2   -1    0    0    0  501 -0.00000000000E+00 -0.00000000000E+00 -0.17188490126E+02  0.17188490315E+02  0.25500000000E-02 0. -1.
    5000001    1    1    2    0    0 -0.10141725657E+03  0.16432192494E+01  0.18979447297E+04  0.19110424792E+04  0.19900000000E+03 0.  0.
   -5000001    1    1    2    0    0  0.10141725657E+03 -0.16432192494E+01  0.11616104556E+04  0.11828896866E+04  0.19900000000E+03 0.  0.
<mgrwt>
<rscale>  0 0.45993295E+03</rscale>
<asrwt>0</asrwt>
<pdfrwt beam="1">  1        2 0.43953437E+00 0.45993295E+03</pdfrwt>
<pdfrwt beam="2">  1       -2 0.24555011E-02 0.45993295E+03</pdfrwt>
<totfact> 0.14099151E+03</totfact>
</mgrwt>
</event>
<event>
 4    1  0.4917371E-005  0.4557107E+03  0.7818608E-02  0.1026033E+00
         -2   -1    0    0    0  501 -0.00000000000E+00  0.00000000000E+00  0.15419789775E+02  0.15419789986E+02  0.25500000000E-02 0. -1.
          2   -1    0    0  501    0  0.00000000000E+00 -0.00000000000E+00 -0.33669766132E+04  0.33669766132E+04  0.25500000000E-02 0.  1.
    5000001    1    1    2    0    0 -0.18528576271E+02 -0.10743753497E+03 -0.18298574506E+04  0.18438723984E+04  0.19900000000E+03 0.  0.
   -5000001    1    1    2    0    0  0.18528576271E+02  0.10743753497E+03 -0.15216993728E+04  0.15385240048E+04  0.19900000000E+03 0.  0.
<mgrwt>
<rscale>  0 0.45571075E+03</rscale>
<asrwt>0</asrwt>
<pdfrwt beam="1">  1        2 0.48099619E+00 0.45571075E+03</pdfrwt>
<pdfrwt beam="2">  1       -2 0.22028293E-02 0.45571075E+03</pdfrwt>
<totfact> 0.11422336E+03</totfact>
</mgrwt>
</event>
<event>
 4    1  0.4917371E-005  0.9912302E+03  0.7818608E-02  0.9318216E-01
         -2   -1    0    0    0  501 -0.00000000000E+00  0.00000000000E+00  0.32800785986E+03  0.32800785987E+03  0.25500000000E-02 0.  1.
          2   -1    0    0  501    0  0.00000000000E+00 -0.00000000000E+00 -0.74886721566E+03  0.74886721566E+03  0.25500000000E-02 0. -1.
    5000001    1    1    2    0    0 -0.91017046570E+01 -0.26850320084E+03 -0.60790536139E+03  0.69377715320E+03  0.19900000000E+03 0.  0.
   -5000001    1    1    2    0    0  0.91017046570E+01  0.26850320084E+03  0.18704600559E+03  0.38309792233E+03  0.19900000000E+03 0.  0.
<mgrwt>
<rscale>  0 0.99123021E+03</rscale>
<asrwt>0</asrwt>
<pdfrwt beam="1">  1        2 0.10698103E+00 0.99123021E+03</pdfrwt>
<pdfrwt beam="2">  1       -2 0.46858266E-01 0.99123021E+03</pdfrwt>
<totfact> 0.17825606E+02</totfact>
</mgrwt>
</event>
<event>
 4    1  0.4917371E-005  0.5255709E+03  0.7818608E-02  0.1007312E+00
         -2   -1    0    0    0  501 -0.00000000000E+00  0.00000000000E+00  0.39238174937E+02  0.39238175019E+02  0.25500000000E-02 0. -1.
          2   -1    0    0  501    0  0.00000000000E+00 -0.00000000000E+00 -0.17599233838E+04  0.17599233838E+04  0.25500000000E-02 0.  1.
    5000001    1    1    2    0    0 -0.15319413542E+03  0.72838568459E+02 -0.77099103495E+03  0.81412657257E+03  0.19900000000E+03 0.  0.
   -5000001    1    1    2    0    0  0.15319413542E+03 -0.72838568459E+02 -0.94969417391E+03  0.98503498625E+03  0.19900000000E+03 0.  0.
<mgrwt>
<rscale>  0 0.52557086E+03</rscale>
<asrwt>0</asrwt>
<pdfrwt beam="1">  1        2 0.25141758E+00 0.52557086E+03</pdfrwt>
<pdfrwt beam="2">  1       -2 0.56054547E-02 0.52557086E+03</pdfrwt>
<totfact> 0.18845065E+03</totfact>
</mgrwt>
</event>
<event>
 4    1  0.4917371E-005  0.6663664E+03  0.7818608E-02  0.9776544E-01
          2   -1    0    0  501    0  0.00000000000E+00  0.00000000000E+00  0.66355762576E+03  0.66355762576E+03  0.25500000000E-02 0.  1.
         -2   -1    0    0    0  501 -0.00000000000E+00 -0.00000000000E+00 -0.16729677382E+03  0.16729677384E+03  0.25500000000E-02 0. -1.
    5000001    1    1    2    0    0  0.24732071096E+03 -0.73460713170E+02  0.33492754336E+03  0.46727023204E+03  0.19900000000E+03 0.  0.
   -5000001    1    1    2    0    0 -0.24732071096E+03  0.73460713170E+02  0.16133330857E+03  0.36358416757E+03  0.19900000000E+03 0.  0.
<mgrwt>
<rscale>  0 0.66636642E+03</rscale>
<asrwt>0</asrwt>
<pdfrwt beam="1">  1        2 0.94793946E-01 0.66636642E+03</pdfrwt>
<pdfrwt beam="2">  1       -2 0.23899539E-01 0.66636642E+03</pdfrwt>
<totfact> 0.74978848E+02</totfact>
</mgrwt>
</event>
<event>
 4    1  0.4917371E-005  0.5915651E+03  0.7818608E-02  0.9923062E-01
          2   -1    0    0  501    0  0.00000000000E+00  0.00000000000E+00  0.98993363435E+03  0.98993363435E+03  0.25500000000E-02 0.  1.
         -2   -1    0    0    0  501 -0.00000000000E+00 -0.00000000000E+00 -0.88376960379E+02  0.88376960416E+02  0.25500000000E-02 0. -1.
    5000001    1    1    2    0    0 -0.54975171322E+02  0.15857863139E+03  0.19482527188E+03  0.32515740551E+03  0.19900000000E+03 0.  0.
   -5000001    1    1    2    0    0  0.54975171322E+02 -0.15857863139E+03  0.70673140208E+03  0.75315318926E+03  0.19900000000E+03 0.  0.
<mgrwt>
<rscale>  0 0.59156513E+03</rscale>
<asrwt>0</asrwt>
<pdfrwt beam="1">  1        2 0.14141909E+00 0.59156513E+03</pdfrwt>
<pdfrwt beam="2">  1       -2 0.12625280E-01 0.59156513E+03</pdfrwt>
<totfact> 0.13388184E+03</totfact>
</mgrwt>
</event>
<event>
 4    1  0.4917371E-005  0.4422770E+03  0.7818608E-02  0.1030050E+00
         -2   -1    0    0    0  501 -0.00000000000E+00  0.00000000000E+00  0.83509863880E+02  0.83509863918E+02  0.25500000000E-02 0. -1.
          2   -1    0    0  501    0  0.00000000000E+00 -0.00000000000E+00 -0.58558639483E+03  0.58558639483E+03  0.25500000000E-02 0.  1.
    5000001    1    1    2    0    0 -0.45772728604E+02  0.83320391683E+02 -0.22646631243E+03  0.31610982430E+03  0.19900000000E+03 0.  0.
   -5000001    1    1    2    0    0  0.45772728604E+02 -0.83320391683E+02 -0.27561021852E+03  0.35298643445E+03  0.19900000000E+03 0.  0.
<mgrwt>
<rscale>  0 0.44227702E+03</rscale>
<asrwt>0</asrwt>
<pdfrwt beam="1">  1        2 0.83655197E-01 0.44227702E+03</pdfrwt>
<pdfrwt beam="2">  1       -2 0.11929981E-01 0.44227702E+03</pdfrwt>
<totfact> 0.28441672E+03</totfact>
</mgrwt>
</event>
<event>
 4    1  0.4917371E-005  0.5721529E+03  0.7818608E-02  0.9964926E-01
         -2   -1    0    0    0  501 -0.00000000000E+00  0.00000000000E+00  0.65200196618E+02  0.65200196668E+02  0.25500000000E-02 0. -1.
          2   -1    0    0  501    0  0.00000000000E+00 -0.00000000000E+00 -0.12552070556E+04  0.12552070556E+04  0.25500000000E-02 0.  1.
    5000001    1    1    2    0    0  0.62497424395E+02  0.18711194398E+03 -0.72801566955E+03  0.78007988229E+03  0.19900000000E+03 0.  0.
   -5000001    1    1    2    0    0 -0.62497424395E+02 -0.18711194398E+03 -0.46199118938E+03  0.54032736994E+03  0.19900000000E+03 0.  0.
<mgrwt>
<rscale>  0 0.57215294E+03</rscale>
<asrwt>0</asrwt>
<pdfrwt beam="1">  1        2 0.17931528E+00 0.57215294E+03</pdfrwt>
<pdfrwt beam="2">  1       -2 0.93143146E-02 0.57215294E+03</pdfrwt>
<totfact> 0.15457157E+03</totfact>
</mgrwt>
</event>
<event>
 4    1  0.4917371E-005  0.5089983E+03  0.7818608E-02  0.1011457E+00
         -2   -1    0    0    0  501 -0.00000000000E+00  0.00000000000E+00  0.46768776242E+02  0.46768776311E+02  0.25500000000E-02 0. -1.
          2   -1    0    0  501    0  0.00000000000E+00 -0.00000000000E+00 -0.13848945793E+04  0.13848945793E+04  0.25500000000E-02 0.  1.
    5000001    1    1    2    0    0 -0.30625816941E+02 -0.15543319016E+03 -0.64529469492E+03  0.69361636410E+03  0.19900000000E+03 0.  0.
   -5000001    1    1    2    0    0  0.30625816941E+02  0.15543319016E+03 -0.69283110812E+03  0.73804699149E+03  0.19900000000E+03 0.  0.
<mgrwt>
<rscale>  0 0.50899833E+03</rscale>
<asrwt>0</asrwt>
<pdfrwt beam="1">  1        2 0.19784206E+00 0.50899833E+03</pdfrwt>
<pdfrwt beam="2">  1       -2 0.66812546E-02 0.50899833E+03</pdfrwt>
<totfact> 0.22339836E+03</totfact>
</mgrwt>
</event>
<event>
 4    1  0.4917371E-005  0.1361160E+04  0.7818608E-02  0.8982423E-01
         -2   -1    0    0    0  501 -0.00000000000E+00  0.00000000000E+00  0.20930714021E+03  0.20930714022E+03  0.25500000000E-02 0. -1.
          2   -1    0    0  501    0  0.00000000000E+00 -0.00000000000E+00 -0.22129652297E+04  0.22129652297E+04  0.25500000000E-02 0.  1.
    5000001    1    1    2    0    0  0.21132488714E+03  0.61150943039E+03 -0.11274923920E+04  0.13150825393E+04  0.19900000000E+03 0.  0.
   -5000001    1    1    2    0    0 -0.21132488714E+03 -0.61150943039E+03 -0.87616569752E+03  0.11071898306E+04  0.19900000000E+03 0.  0.
<mgrwt>
<rscale>  0 0.13611604E+04</rscale>
<asrwt>0</asrwt>
<pdfrwt beam="1">  1        2 0.31613788E+00 0.13611604E+04</pdfrwt>
<pdfrwt beam="2">  1       -2 0.29901021E-01 0.13611604E+04</pdfrwt>
<totfact> 0.62817924E+01</totfact>
</mgrwt>
</event>
<event>
 4    1  0.4917371E-005  0.5017381E+03  0.7818608E-02  0.1013326E+00
         -2   -1    0    0    0  501 -0.00000000000E+00  0.00000000000E+00  0.12976919146E+03  0.12976919148E+03  0.25500000000E-02 0. -1.
          2   -1    0    0  501    0  0.00000000000E+00 -0.00000000000E+00 -0.48497857194E+03  0.48497857194E+03  0.25500000000E-02 0.  1.
    5000001    1    1    2    0    0  0.13858526431E+03  0.53656049028E+02 -0.22091346192E+03  0.33239826224E+03  0.19900000000E+03 0.  0.
   -5000001    1    1    2    0    0 -0.13858526431E+03 -0.53656049028E+02 -0.13429591856E+03  0.28234950119E+03  0.19900000000E+03 0.  0.
<mgrwt>
<rscale>  0 0.50173809E+03</rscale>
<asrwt>0</asrwt>
<pdfrwt beam="1">  1        2 0.69282652E-01 0.50173809E+03</pdfrwt>
<pdfrwt beam="2">  1       -2 0.18538456E-01 0.50173809E+03</pdfrwt>
<totfact> 0.16880588E+03</totfact>
</mgrwt>
</event>
<event>
 4    1  0.4917371E-005  0.5465918E+03  0.7818608E-02  0.1002286E+00
         -2   -1    0    0    0  501 -0.00000000000E+00  0.00000000000E+00  0.77580851632E+02  0.77580851674E+02  0.25500000000E-02 0. -1.
          2   -1    0    0  501    0  0.00000000000E+00 -0.00000000000E+00 -0.96274601598E+03  0.96274601598E+03  0.25500000000E-02 0.  1.
    5000001    1    1    2    0    0  0.55430300809E+02  0.16805935213E+03 -0.55949512906E+03  0.61963881700E+03  0.19900000000E+03 0.  0.
   -5000001    1    1    2    0    0 -0.55430300809E+02 -0.16805935213E+03 -0.32567003529E+03  0.42068805066E+03  0.19900000000E+03 0.  0.
<mgrwt>
<rscale>  0 0.54659183E+03</rscale>
<asrwt>0</asrwt>
<pdfrwt beam="1">  1        2 0.13753514E+00 0.54659183E+03</pdfrwt>
<pdfrwt beam="2">  1       -2 0.11082979E-01 0.54659183E+03</pdfrwt>
<totfact> 0.17245646E+03</totfact>
</mgrwt>
</event>
<event>
 4    1  0.4917371E-005  0.5680680E+03  0.7818608E-02  0.9973963E-01
         -2   -1    0    0    0  501 -0.00000000000E+00  0.00000000000E+00  0.42629426204E+03  0.42629426205E+03  0.25500000000E-02 0. -1.
          2   -1    0    0  501    0  0.00000000000E+00 -0.00000000000E+00 -0.18924792996E+03  0.18924792998E+03  0.25500000000E-02 0.  1.
    5000001    1    1    2    0    0 -0.12392935608E+03 -0.11834645096E+03  0.12672312750E+01  0.26261563858E+03  0.19900000000E+03 0.  0.
   -5000001    1    1    2    0    0  0.12392935608E+03  0.11834645096E+03  0.23577910080E+03  0.35292655345E+03  0.19900000000E+03 0.  0.
<mgrwt>
<rscale>  0 0.56806798E+03</rscale>
<asrwt>0</asrwt>
<pdfrwt beam="1">  1        2 0.27035419E-01 0.56806798E+03</pdfrwt>
<pdfrwt beam="2">  1       -2 0.60899180E-01 0.56806798E+03</pdfrwt>
<totfact> 0.50687219E+02</totfact>
</mgrwt>
</event>
<event>
 4    1  0.4917371E-005  0.6328560E+03  0.7818608E-02  0.9839491E-01
          2   -1    0    0  501    0  0.00000000000E+00  0.00000000000E+00  0.15017584071E+04  0.15017584071E+04  0.25500000000E-02 0.  1.
         -2   -1    0    0    0  501 -0.00000000000E+00 -0.00000000000E+00 -0.66672962254E+02  0.66672962302E+02  0.25500000000E-02 0. -1.
    5000001    1    1    2    0    0  0.15673855404E+03  0.22493299310E+02  0.25089878215E+03  0.35724518432E+03  0.19900000000E+03 0.  0.
   -5000001    1    1    2    0    0 -0.15673855404E+03 -0.22493299310E+02  0.11841866627E+04  0.12111861851E+04  0.19900000000E+03 0.  0.
<mgrwt>
<rscale>  0 0.63285601E+03</rscale>
<asrwt>0</asrwt>
<pdfrwt beam="1">  1        2 0.21453694E+00 0.63285601E+03</pdfrwt>
<pdfrwt beam="2">  1       -2 0.95247078E-02 0.63285601E+03</pdfrwt>
<totfact> 0.10986790E+03</totfact>
</mgrwt>
</event>
<event>
 4    1  0.4917371E-005  0.8283273E+03  0.7818608E-02  0.9519896E-01
         -2   -1    0    0    0  501 -0.00000000000E+00  0.00000000000E+00  0.12270732090E+03  0.12270732093E+03  0.25500000000E-02 0. -1.
          2   -1    0    0  501    0  0.00000000000E+00 -0.00000000000E+00 -0.13978915759E+04  0.13978915759E+04  0.25500000000E-02 0.  1.
    5000001    1    1    2    0    0  0.13013072011E+03  0.26746769041E+03 -0.25490366763E+03  0.43937438421E+03  0.19900000000E+03 0.  0.
   -5000001    1    1    2    0    0 -0.13013072011E+03 -0.26746769041E+03 -0.10202805874E+04  0.10812245126E+04  0.19900000000E+03 0.  0.
<mgrwt>
<rscale>  0 0.82832730E+03</rscale>
<asrwt>0</asrwt>
<pdfrwt beam="1">  1        2 0.19969879E+00 0.82832730E+03</pdfrwt>
<pdfrwt beam="2">  1       -2 0.17529618E-01 0.82832730E+03</pdfrwt>
<totfact> 0.44735139E+02</totfact>
</mgrwt>
</event>
<event>
 4    1  0.4917371E-005  0.5159187E+03  0.7818608E-02  0.1009705E+00
          2   -1    0    0  501    0  0.00000000000E+00  0.00000000000E+00  0.10592213659E+04  0.10592213660E+04  0.25500000000E-02 0.  1.
         -2   -1    0    0    0  501 -0.00000000000E+00 -0.00000000000E+00 -0.62822581579E+02  0.62822581630E+02  0.25500000000E-02 0. -1.
    5000001    1    1    2    0    0  0.74304724437E+02 -0.14501869822E+03  0.45522727567E+03  0.52286182440E+03  0.19900000000E+03 0.  0.
   -5000001    1    1    2    0    0 -0.74304724437E+02  0.14501869822E+03  0.54117150870E+03  0.59918212318E+03  0.19900000000E+03 0.  0.
<mgrwt>
<rscale>  0 0.51591868E+03</rscale>
<asrwt>0</asrwt>
<pdfrwt beam="1">  1        2 0.15131733E+00 0.51591868E+03</pdfrwt>
<pdfrwt beam="2">  1       -2 0.89746550E-02 0.51591868E+03</pdfrwt>
<totfact> 0.21217290E+03</totfact>
</mgrwt>
</event>
<event>
 4    1  0.4917371E-005  0.7470539E+03  0.7818608E-02  0.9639984E-01
         -2   -1    0    0    0  501 -0.00000000000E+00  0.00000000000E+00  0.35802483874E+03  0.35802483875E+03  0.25500000000E-02 0. -1.
          2   -1    0    0  501    0  0.00000000000E+00 -0.00000000000E+00 -0.38970030370E+03  0.38970030371E+03  0.25500000000E-02 0.  1.
    5000001    1    1    2    0    0  0.16254348138E+03 -0.24343374064E+03 -0.13528069596E+03  0.37892246716E+03  0.19900000000E+03 0.  0.
   -5000001    1    1    2    0    0 -0.16254348138E+03  0.24343374064E+03  0.10360523100E+03  0.36880267530E+03  0.19900000000E+03 0.  0.
<mgrwt>
<rscale>  0 0.74705392E+03</rscale>
<asrwt>0</asrwt>
<pdfrwt beam="1">  1        2 0.55671472E-01 0.74705392E+03</pdfrwt>
<pdfrwt beam="2">  1       -2 0.51146405E-01 0.74705392E+03</pdfrwt>
<totfact> 0.32415080E+02</totfact>
</mgrwt>
</event>
<event>
 4    1  0.4917371E-005  0.5130762E+03  0.7818608E-02  0.1010421E+00
         -2   -1    0    0    0  501 -0.00000000000E+00  0.00000000000E+00  0.97441439892E+02  0.97441439925E+02  0.25500000000E-02 0. -1.
          2   -1    0    0  501    0  0.00000000000E+00 -0.00000000000E+00 -0.67539853662E+03  0.67539853663E+03  0.25500000000E-02 0.  1.
    5000001    1    1    2    0    0  0.98616491423E+02 -0.12742994721E+03 -0.26529570983E+03  0.36870912314E+03  0.19900000000E+03 0.  0.
   -5000001    1    1    2    0    0 -0.98616491423E+02  0.12742994721E+03 -0.31266138690E+03  0.40413085342E+03  0.19900000000E+03 0.  0.
<mgrwt>
<rscale>  0 0.51307624E+03</rscale>
<asrwt>0</asrwt>
<pdfrwt beam="1">  1        2 0.96485503E-01 0.51307624E+03</pdfrwt>
<pdfrwt beam="2">  1       -2 0.13920206E-01 0.51307624E+03</pdfrwt>
<totfact> 0.18652916E+03</totfact>
</mgrwt>
</event>
<event>
 4    1  0.4917371E-005  0.7803045E+03  0.7818608E-02  0.9588971E-01
          2   -1    0    0  501    0  0.00000000000E+00  0.00000000000E+00  0.15685660857E+04  0.15685660858E+04  0.25500000000E-02 0.  1.
         -2   -1    0    0    0  501 -0.00000000000E+00 -0.00000000000E+00 -0.97043277831E+02  0.97043277865E+02  0.25500000000E-02 0. -1.
    5000001    1    1    2    0    0 -0.17669722577E+03  0.27945776593E+03  0.61315416793E+03  0.72448435882E+03  0.19900000000E+03 0.  0.
   -5000001    1    1    2    0    0  0.17669722577E+03 -0.27945776593E+03  0.85836863999E+03  0.94112500480E+03  0.19900000000E+03 0.  0.
<mgrwt>
<rscale>  0 0.78030454E+03</rscale>
<asrwt>0</asrwt>
<pdfrwt beam="1">  1        2 0.22408087E+00 0.78030454E+03</pdfrwt>
<pdfrwt beam="2">  1       -2 0.13863325E-01 0.78030454E+03</pdfrwt>
<totfact> 0.54296590E+02</totfact>
</mgrwt>
</event>
<event>
 4    1  0.4917371E-005  0.6756886E+03  0.7818608E-02  0.9759735E-01
          2   -1    0    0  501    0  0.00000000000E+00  0.00000000000E+00  0.25354717807E+04  0.25354717807E+04  0.25500000000E-02 0.  1.
         -2   -1    0    0    0  501 -0.00000000000E+00 -0.00000000000E+00 -0.45016784494E+02  0.45016784566E+02  0.25500000000E-02 0. -1.
    5000001    1    1    2    0    0  0.20815323467E+03  0.16011504223E+03  0.15303341042E+04  0.15654034835E+04  0.19900000000E+03 0.  0.
   -5000001    1    1    2    0    0 -0.20815323467E+03 -0.16011504223E+03  0.96012089205E+03  0.10150850818E+04  0.19900000000E+03 0.  0.
<mgrwt>
<rscale>  0 0.67568865E+03</rscale>
<asrwt>0</asrwt>
<pdfrwt beam="1">  1        2 0.36221041E+00 0.67568865E+03</pdfrwt>
<pdfrwt beam="2">  1       -2 0.64309665E-02 0.67568865E+03</pdfrwt>
<totfact> 0.61089070E+02</totfact>
</mgrwt>
</event>
<event>
 4    1  0.4917371E-005  0.4769645E+03  0.7818608E-02  0.1019973E+00
         -2   -1    0    0    0  501 -0.00000000000E+00  0.00000000000E+00  0.55572897759E+03  0.55572897759E+03  0.25500000000E-02 0. -1.
          2   -1    0    0  501    0  0.00000000000E+00 -0.00000000000E+00 -0.10234086939E+03  0.10234086943E+03  0.25500000000E-02 0.  1.
    5000001    1    1    2    0    0  0.18292296238E+02 -0.12867504798E+03  0.25362164383E+03  0.34758713195E+03  0.19900000000E+03 0.  0.
   -5000001    1    1    2    0    0 -0.18292296238E+02  0.12867504798E+03  0.19976646436E+03  0.31048271507E+03  0.19900000000E+03 0.  0.
<mgrwt>
<rscale>  0 0.47696451E+03</rscale>
<asrwt>0</asrwt>
<pdfrwt beam="1">  1        2 0.14620124E-01 0.47696451E+03</pdfrwt>
<pdfrwt beam="2">  1       -2 0.79389856E-01 0.47696451E+03</pdfrwt>
<totfact> 0.58612839E+02</totfact>
</mgrwt>
</event>
<event>
 4    1  0.4917371E-005  0.4691887E+03  0.7818608E-02  0.1022149E+00
          2   -1    0    0  501    0  0.00000000000E+00  0.00000000000E+00  0.28974679248E+04  0.28974679248E+04  0.25500000000E-02 0.  1.
         -2   -1    0    0    0  501 -0.00000000000E+00 -0.00000000000E+00 -0.18993998468E+02  0.18993998639E+02  0.25500000000E-02 0. -1.
    5000001    1    1    2    0    0 -0.76488224645E+02 -0.95535542084E+02  0.13064982708E+04  0.13272212400E+04  0.19900000000E+03 0.  0.
   -5000001    1    1    2    0    0  0.76488224645E+02  0.95535542084E+02  0.15719756555E+04  0.15892406835E+04  0.19900000000E+03 0.  0.
<mgrwt>
<rscale>  0 0.46918867E+03</rscale>
<asrwt>0</asrwt>
<pdfrwt beam="1">  1        2 0.41392412E+00 0.46918867E+03</pdfrwt>
<pdfrwt beam="2">  1       -2 0.27134275E-02 0.46918867E+03</pdfrwt>
<totfact> 0.15141903E+03</totfact>
</mgrwt>
</event>
<event>
 4    1  0.4917371E-005  0.6124156E+03  0.7818608E-02  0.9879977E-01
          2   -1    0    0  501    0  0.00000000000E+00  0.00000000000E+00  0.35766312751E+04  0.35766312751E+04  0.25500000000E-02 0.  1.
         -2   -1    0    0    0  501 -0.00000000000E+00 -0.00000000000E+00 -0.26215512709E+02  0.26215512833E+02  0.25500000000E-02 0. -1.
    5000001    1    1    2    0    0 -0.65067002137E+02  0.22268977994E+03  0.18833288884E+04  0.19079709523E+04  0.19900000000E+03 0.  0.
   -5000001    1    1    2    0    0  0.65067002137E+02 -0.22268977994E+03  0.16670868740E+04  0.16948758356E+04  0.19900000000E+03 0.  0.
<mgrwt>
<rscale>  0 0.61241562E+03</rscale>
<asrwt>0</asrwt>
<pdfrwt beam="1">  1        2 0.51094696E+00 0.61241562E+03</pdfrwt>
<pdfrwt beam="2">  1       -2 0.37450760E-02 0.61241562E+03</pdfrwt>
<totfact> 0.37789797E+02</totfact>
</mgrwt>
</event>
<event>
 4    1  0.4917371E-005  0.7874527E+03  0.7818608E-02  0.9578358E-01
         -2   -1    0    0    0  501 -0.00000000000E+00  0.00000000000E+00  0.12593727749E+03  0.12593727751E+03  0.25500000000E-02 0. -1.
          2   -1    0    0  501    0  0.00000000000E+00 -0.00000000000E+00 -0.12309338188E+04  0.12309338188E+04  0.25500000000E-02 0.  1.
    5000001    1    1    2    0    0 -0.24429635440E+03  0.19765283663E+03 -0.77498763953E+03  0.85962444941E+03  0.19900000000E+03 0.  0.
   -5000001    1    1    2    0    0  0.24429635440E+03 -0.19765283663E+03 -0.33000890176E+03  0.49724664689E+03  0.19900000000E+03 0.  0.
<mgrwt>
<rscale>  0 0.78745274E+03</rscale>
<asrwt>0</asrwt>
<pdfrwt beam="1">  1        2 0.17584768E+00 0.78745274E+03</pdfrwt>
<pdfrwt beam="2">  1       -2 0.17991040E-01 0.78745274E+03</pdfrwt>
<totfact> 0.52901787E+02</totfact>
</mgrwt>
</event>
<event>
 4    1  0.4917371E-005  0.4828999E+03  0.7818608E-02  0.1018341E+00
         -2   -1    0    0    0  501 -0.00000000000E+00  0.00000000000E+00  0.84368765408E+02  0.84368765446E+02  0.25500000000E-02 0. -1.
          2   -1    0    0  501    0  0.00000000000E+00 -0.00000000000E+00 -0.69099138889E+03  0.69099138889E+03  0.25500000000E-02 0.  1.
    5000001    1    1    2    0    0 -0.89922323030E+02  0.64045898536E+02 -0.43285306273E+03  0.48903034181E+03  0.19900000000E+03 0.  0.
   -5000001    1    1    2    0    0  0.89922323030E+02 -0.64045898536E+02 -0.17376956075E+03  0.28632981253E+03  0.19900000000E+03 0.  0.
<mgrwt>
<rscale>  0 0.48289995E+03</rscale>
<asrwt>0</asrwt>
<pdfrwt beam="1">  1        2 0.98713052E-01 0.48289995E+03</pdfrwt>
<pdfrwt beam="2">  1       -2 0.12052681E-01 0.48289995E+03</pdfrwt>
<totfact> 0.23015391E+03</totfact>
</mgrwt>
</event>
<event>
 4    1  0.4917371E-005  0.4481493E+03  0.7818608E-02  0.1028275E+00
         -2   -1    0    0    0  501 -0.00000000000E+00  0.00000000000E+00  0.36223612462E+03  0.36223612463E+03  0.25500000000E-02 0. -1.
          2   -1    0    0  501    0  0.00000000000E+00 -0.00000000000E+00 -0.13860972203E+03  0.13860972205E+03  0.25500000000E-02 0.  1.
    5000001    1    1    2    0    0  0.94919611427E+02  0.25483989748E+02  0.77379871664E+02  0.23504852883E+03  0.19900000000E+03 0.  0.
   -5000001    1    1    2    0    0 -0.94919611427E+02 -0.25483989748E+02  0.14624653093E+03  0.26579731785E+03  0.19900000000E+03 0.  0.
<mgrwt>
<rscale>  0 0.44814930E+03</rscale>
<asrwt>0</asrwt>
<pdfrwt beam="1">  1        2 0.19801389E-01 0.44814930E+03</pdfrwt>
<pdfrwt beam="2">  1       -2 0.51748018E-01 0.44814930E+03</pdfrwt>
<totfact> 0.10150838E+03</totfact>
</mgrwt>
</event>
<event>
 4    1  0.4917371E-005  0.4964720E+03  0.7818608E-02  0.1014704E+00
         -2   -1    0    0    0  501 -0.00000000000E+00  0.00000000000E+00  0.11816866804E+03  0.11816866807E+03  0.25500000000E-02 0. -1.
          2   -1    0    0  501    0  0.00000000000E+00 -0.00000000000E+00 -0.52146743255E+03  0.52146743255E+03  0.25500000000E-02 0.  1.
    5000001    1    1    2    0    0 -0.96136485556E+02  0.23594608380E+02 -0.34407720044E+03  0.40962061625E+03  0.19900000000E+03 0.  0.
   -5000001    1    1    2    0    0  0.96136485556E+02 -0.23594608380E+02 -0.59221564064E+02  0.23001548437E+03  0.19900000000E+03 0.  0.
<mgrwt>
<rscale>  0 0.49647200E+03</rscale>
<asrwt>0</asrwt>
<pdfrwt beam="1">  1        2 0.74495346E-01 0.49647200E+03</pdfrwt>
<pdfrwt beam="2">  1       -2 0.16881239E-01 0.49647200E+03</pdfrwt>
<totfact> 0.18245699E+03</totfact>
</mgrwt>
</event>
<event>
 4    1  0.4917371E-005  0.5138720E+03  0.7818608E-02  0.1010220E+00
         -2   -1    0    0    0  501 -0.00000000000E+00  0.00000000000E+00  0.81218698003E+02  0.81218698043E+02  0.25500000000E-02 0. -1.
          2   -1    0    0  501    0  0.00000000000E+00 -0.00000000000E+00 -0.81281906393E+03  0.81281906393E+03  0.25500000000E-02 0.  1.
    5000001    1    1    2    0    0  0.13432588260E+03  0.56816508045E+02 -0.24102382525E+03  0.34491309436E+03  0.19900000000E+03 0.  0.
   -5000001    1    1    2    0    0 -0.13432588260E+03 -0.56816508045E+02 -0.49057654068E+03  0.54912466762E+03  0.19900000000E+03 0.  0.
<mgrwt>
<rscale>  0 0.51387199E+03</rscale>
<asrwt>0</asrwt>
<pdfrwt beam="1">  1        2 0.11611700E+00 0.51387199E+03</pdfrwt>
<pdfrwt beam="2">  1       -2 0.11602672E-01 0.51387199E+03</pdfrwt>
<totfact> 0.20023733E+03</totfact>
</mgrwt>
</event>
<event>
 4    1  0.4917371E-005  0.6693922E+03  0.7818608E-02  0.9771056E-01
          2   -1    0    0  501    0  0.00000000000E+00  0.00000000000E+00  0.44518664360E+03  0.44518664361E+03  0.25500000000E-02 0.  1.
         -2   -1    0    0    0  501 -0.00000000000E+00 -0.00000000000E+00 -0.25162811417E+03  0.25162811418E+03  0.25500000000E-02 0. -1.
    5000001    1    1    2    0    0  0.98816690467E+02  0.24354740093E+03  0.36615363765E+02  0.33169528136E+03  0.19900000000E+03 0.  0.
   -5000001    1    1    2    0    0 -0.98816690467E+02 -0.24354740093E+03  0.15694316567E+03  0.36511947643E+03  0.19900000000E+03 0.  0.
<mgrwt>
<rscale>  0 0.66939219E+03</rscale>
<asrwt>0</asrwt>
<pdfrwt beam="1">  1        2 0.63598093E-01 0.66939219E+03</pdfrwt>
<pdfrwt beam="2">  1       -2 0.35946873E-01 0.66939219E+03</pdfrwt>
<totfact> 0.56109935E+02</totfact>
</mgrwt>
</event>
<event>
 4    1  0.4917371E-005  0.5626006E+03  0.7818608E-02  0.9986188E-01
          2   -1    0    0  501    0  0.00000000000E+00  0.00000000000E+00  0.36437733661E+04  0.36437733661E+04  0.25500000000E-02 0.  1.
         -2   -1    0    0    0  501 -0.00000000000E+00 -0.00000000000E+00 -0.21716456278E+02  0.21716456427E+02  0.25500000000E-02 0. -1.
    5000001    1    1    2    0    0  0.12031623247E+03  0.15785529359E+03  0.17354526111E+04  0.17580645764E+04  0.19900000000E+03 0.  0.
   -5000001    1    1    2    0    0 -0.12031623247E+03 -0.15785529359E+03  0.18866042987E+04  0.19074252461E+04  0.19900000000E+03 0.  0.
<mgrwt>
<rscale>  0 0.56260055E+03</rscale>
<asrwt>0</asrwt>
<pdfrwt beam="1">  1        2 0.52053867E+00 0.56260055E+03</pdfrwt>
<pdfrwt beam="2">  1       -2 0.31023532E-02 0.56260055E+03</pdfrwt>
<totfact> 0.46143842E+02</totfact>
</mgrwt>
</event>
<event>
 4    1  0.4917371E-005  0.5263972E+03  0.7818608E-02  0.1007110E+00
          2   -1    0    0  501    0  0.00000000000E+00  0.00000000000E+00  0.73966152740E+02  0.73966152784E+02  0.25500000000E-02 0.  1.
         -2   -1    0    0    0  501 -0.00000000000E+00 -0.00000000000E+00 -0.93655696459E+03  0.93655696460E+03  0.25500000000E-02 0. -1.
    5000001    1    1    2    0    0  0.85433687833E+02  0.11902040401E+03 -0.25737740181E+03  0.35680372553E+03  0.19900000000E+03 0.  0.
   -5000001    1    1    2    0    0 -0.85433687833E+02 -0.11902040401E+03 -0.60521341005E+03  0.65371939186E+03  0.19900000000E+03 0.  0.
<mgrwt>
<rscale>  0 0.52639725E+03</rscale>
<asrwt>0</asrwt>
<pdfrwt beam="1">  1        2 0.10566594E-01 0.52639725E+03</pdfrwt>
<pdfrwt beam="2">  1       -2 0.13379384E+00 0.52639725E+03</pdfrwt>
<totfact> 0.25382256E+02</totfact>
</mgrwt>
</event>
<event>
 4    1  0.4917371E-005  0.4918817E+03  0.7818608E-02  0.1015920E+00
          2   -1    0    0  501    0  0.00000000000E+00  0.00000000000E+00  0.10892901012E+04  0.10892901012E+04  0.25500000000E-02 0.  1.
         -2   -1    0    0    0  501 -0.00000000000E+00 -0.00000000000E+00 -0.55528736683E+02  0.55528736741E+02  0.25500000000E-02 0. -1.
    5000001    1    1    2    0    0  0.12774985041E+03 -0.65421289812E+02  0.47752487352E+03  0.53687146904E+03  0.19900000000E+03 0.  0.
   -5000001    1    1    2    0    0 -0.12774985041E+03  0.65421289812E+02  0.55623649104E+03  0.60794736894E+03  0.19900000000E+03 0.  0.
<mgrwt>
<rscale>  0 0.49188171E+03</rscale>
<asrwt>0</asrwt>
<pdfrwt beam="1">  1        2 0.15561288E+00 0.49188171E+03</pdfrwt>
<pdfrwt beam="2">  1       -2 0.79326764E-02 0.49188171E+03</pdfrwt>
<totfact> 0.24807537E+03</totfact>
</mgrwt>
</event>
<event>
 4    1  0.4917371E-005  0.7460741E+03  0.7818608E-02  0.9641530E-01
          2   -1    0    0  501    0  0.00000000000E+00  0.00000000000E+00  0.48488699127E+03  0.48488699128E+03  0.25500000000E-02 0.  1.
         -2   -1    0    0    0  501 -0.00000000000E+00 -0.00000000000E+00 -0.28698781151E+03  0.28698781152E+03  0.25500000000E-02 0. -1.
    5000001    1    1    2    0    0  0.67042729027E+02 -0.69023124475E+02 -0.21193622365E+03  0.30623011302E+03  0.19900000000E+03 0.  0.
   -5000001    1    1    2    0    0 -0.67042729027E+02  0.69023124475E+02  0.40983540341E+03  0.46564468978E+03  0.19900000000E+03 0.  0.
<mgrwt>
<rscale>  0 0.74607414E+03</rscale>
<asrwt>0</asrwt>
<pdfrwt beam="1">  1        2 0.69269570E-01 0.74607414E+03</pdfrwt>
<pdfrwt beam="2">  1       -2 0.40998259E-01 0.74607414E+03</pdfrwt>
<totfact> 0.39431169E+02</totfact>
</mgrwt>
</event>
<event>
 4    1  0.4917371E-005  0.9598065E+03  0.7818608E-02  0.9353761E-01
          2   -1    0    0  501    0  0.00000000000E+00  0.00000000000E+00  0.10460595849E+04  0.10460595849E+04  0.25500000000E-02 0.  1.
         -2   -1    0    0    0  501 -0.00000000000E+00 -0.00000000000E+00 -0.22016636134E+03  0.22016636136E+03  0.25500000000E-02 0. -1.
    5000001    1    1    2    0    0 -0.36258541610E+03 -0.24122989408E+03  0.45561550519E+03  0.66094366957E+03  0.19900000000E+03 0.  0.
   -5000001    1    1    2    0    0  0.36258541610E+03  0.24122989408E+03  0.37027771839E+03  0.60528227671E+03  0.19900000000E+03 0.  0.
<mgrwt>
<rscale>  0 0.95980651E+03</rscale>
<asrwt>0</asrwt>
<pdfrwt beam="1">  1        2 0.14943709E+00 0.95980651E+03</pdfrwt>
<pdfrwt beam="2">  1       -2 0.31452337E-01 0.95980651E+03</pdfrwt>
<totfact> 0.24634874E+02</totfact>
</mgrwt>
</event>
<event>
 4    1  0.4917371E-005  0.1058681E+04  0.7818608E-02  0.9246427E-01
          2   -1    0    0  501    0  0.00000000000E+00  0.00000000000E+00  0.82013994757E+03  0.82013994757E+03  0.25500000000E-02 0.  1.
         -2   -1    0    0    0  501 -0.00000000000E+00 -0.00000000000E+00 -0.34165062107E+03  0.34165062108E+03  0.25500000000E-02 0. -1.
    5000001    1    1    2    0    0  0.48544408457E+03 -0.33145895777E+01  0.31632345534E+03  0.61264057501E+03  0.19900000000E+03 0.  0.
   -5000001    1    1    2    0    0 -0.48544408457E+03  0.33145895777E+01  0.16216587115E+03  0.54914999364E+03  0.19900000000E+03 0.  0.
<mgrwt>
<rscale>  0 0.10586809E+04</rscale>
<asrwt>0</asrwt>
<pdfrwt beam="1">  1        2 0.11716285E+00 0.10586809E+04</pdfrwt>
<pdfrwt beam="2">  1       -2 0.48807232E-01 0.10586809E+04</pdfrwt>
<totfact> 0.14554542E+02</totfact>
</mgrwt>
</event>
<event>
 4    1  0.4917371E-005  0.4492232E+03  0.7818608E-02  0.1027954E+00
          2   -1    0    0  501    0  0.00000000000E+00  0.00000000000E+00  0.53550748949E+03  0.53550748950E+03  0.25500000000E-02 0.  1.
         -2   -1    0    0    0  501 -0.00000000000E+00 -0.00000000000E+00 -0.94210401051E+02  0.94210401086E+02  0.25500000000E-02 0. -1.
    5000001    1    1    2    0    0  0.27122824906E+02 -0.61102136447E+02  0.33261886180E+03  0.39332610635E+03  0.19900000000E+03 0.  0.
   -5000001    1    1    2    0    0 -0.27122824906E+02  0.61102136447E+02  0.10867822664E+03  0.23639178424E+03  0.19900000000E+03 0.  0.
<mgrwt>
<rscale>  0 0.44922322E+03</rscale>
<asrwt>0</asrwt>
<pdfrwt beam="1">  1        2 0.76501068E-01 0.44922322E+03</pdfrwt>
<pdfrwt beam="2">  1       -2 0.13458629E-01 0.44922322E+03</pdfrwt>
<totfact> 0.25855980E+03</totfact>
</mgrwt>
</event>
<event>
 4    1  0.4917371E-005  0.6082420E+03  0.7818608E-02  0.9888453E-01
         -2   -1    0    0    0  501 -0.00000000000E+00  0.00000000000E+00  0.23606851714E+02  0.23606851852E+02  0.25500000000E-02 0. -1.
          2   -1    0    0  501    0  0.00000000000E+00 -0.00000000000E+00 -0.39179121280E+04  0.39179121280E+04  0.25500000000E-02 0.  1.
    5000001    1    1    2    0    0 -0.53986245389E+02 -0.21072115218E+03 -0.24308127456E+04  0.24486260480E+04  0.19900000000E+03 0.  0.
   -5000001    1    1    2    0    0  0.53986245389E+02  0.21072115218E+03 -0.14634925307E+04  0.14928929319E+04  0.19900000000E+03 0.  0.
<mgrwt>
<rscale>  0 0.60824196E+03</rscale>
<asrwt>0</asrwt>
<pdfrwt beam="1">  1        2 0.55970132E+00 0.60824196E+03</pdfrwt>
<pdfrwt beam="2">  1       -2 0.33724099E-02 0.60824196E+03</pdfrwt>
<totfact> 0.27109438E+02</totfact>
</mgrwt>
</event>
<event>
 4    1  0.4917371E-005  0.7721332E+03  0.7818608E-02  0.9601253E-01
         -2   -1    0    0    0  501 -0.00000000000E+00  0.00000000000E+00  0.97324198772E+02  0.97324198805E+02  0.25500000000E-02 0. -1.
          2   -1    0    0  501    0  0.00000000000E+00 -0.00000000000E+00 -0.15314528887E+04  0.15314528887E+04  0.25500000000E-02 0.  1.
    5000001    1    1    2    0    0  0.38298362266E+02  0.32381038881E+03 -0.59911429168E+03  0.71053421237E+03  0.19900000000E+03 0.  0.
   -5000001    1    1    2    0    0 -0.38298362266E+02 -0.32381038881E+03 -0.83501439826E+03  0.91824287515E+03  0.19900000000E+03 0.  0.
<mgrwt>
<rscale>  0 0.77213321E+03</rscale>
<asrwt>0</asrwt>
<pdfrwt beam="1">  1        2 0.21877897E+00 0.77213321E+03</pdfrwt>
<pdfrwt beam="2">  1       -2 0.13903458E-01 0.77213321E+03</pdfrwt>
<totfact> 0.56522009E+02</totfact>
</mgrwt>
</event>
<event>
 4    1  0.4917371E-005  0.4920573E+03  0.7818608E-02  0.1015873E+00
          2   -1    0    0  501    0  0.00000000000E+00  0.00000000000E+00  0.65348637987E+03  0.65348637987E+03  0.25500000000E-02 0.  1.
         -2   -1    0    0    0  501 -0.00000000000E+00 -0.00000000000E+00 -0.92626419670E+02  0.92626419705E+02  0.25500000000E-02 0. -1.
    5000001    1    1    2    0    0 -0.10406704499E+03  0.95618190114E+02  0.23353899085E+03  0.33780800520E+03  0.19900000000E+03 0.  0.
   -5000001    1    1    2    0    0  0.10406704499E+03 -0.95618190114E+02  0.32732096935E+03  0.40830479437E+03  0.19900000000E+03 0.  0.
<mgrwt>
<rscale>  0 0.49205733E+03</rscale>
<asrwt>0</asrwt>
<pdfrwt beam="1">  1        2 0.93355197E-01 0.49205733E+03</pdfrwt>
<pdfrwt beam="2">  1       -2 0.13232346E-01 0.49205733E+03</pdfrwt>
<totfact> 0.21105746E+03</totfact>
</mgrwt>
</event>
<event>
 4    1  0.4917371E-005  0.5627258E+03  0.7818608E-02  0.9985906E-01
         -2   -1    0    0    0  501 -0.00000000000E+00  0.00000000000E+00  0.12645432090E+03  0.12645432093E+03  0.25500000000E-02 0. -1.
          2   -1    0    0  501    0  0.00000000000E+00 -0.00000000000E+00 -0.62603695564E+03  0.62603695565E+03  0.25500000000E-02 0.  1.
    5000001    1    1    2    0    0  0.13943486058E+03 -0.14103132426E+03 -0.22941613684E+03  0.36271845639E+03  0.19900000000E+03 0.  0.
   -5000001    1    1    2    0    0 -0.13943486058E+03  0.14103132426E+03 -0.27016649790E+03  0.38977282018E+03  0.19900000000E+03 0.  0.
<mgrwt>
<rscale>  0 0.56272579E+03</rscale>
<asrwt>0</asrwt>
<pdfrwt beam="1">  1        2 0.89433849E-01 0.56272579E+03</pdfrwt>
<pdfrwt beam="2">  1       -2 0.18064903E-01 0.56272579E+03</pdfrwt>
<totfact> 0.13146172E+03</totfact>
</mgrwt>
</event>
<event>
 4    1  0.4917371E-005  0.4914272E+03  0.7818608E-02  0.1016041E+00
          2   -1    0    0  501    0  0.00000000000E+00  0.00000000000E+00  0.73010193166E+03  0.73010193167E+03  0.25500000000E-02 0.  1.
         -2   -1    0    0    0  501 -0.00000000000E+00 -0.00000000000E+00 -0.82694164500E+02  0.82694164539E+02  0.25500000000E-02 0. -1.
    5000001    1    1    2    0    0 -0.77018823307E+02  0.59954221004E+02  0.14829342573E+03  0.26668023525E+03  0.19900000000E+03 0.  0.
   -5000001    1    1    2    0    0  0.77018823307E+02 -0.59954221004E+02  0.49911434144E+03  0.54611586096E+03  0.19900000000E+03 0.  0.
<mgrwt>
<rscale>  0 0.49142718E+03</rscale>
<asrwt>0</asrwt>
<pdfrwt beam="1">  1        2 0.10430028E+00 0.49142718E+03</pdfrwt>
<pdfrwt beam="2">  1       -2 0.11813452E-01 0.49142718E+03</pdfrwt>
<totfact> 0.22240438E+03</totfact>
</mgrwt>
</event>
<event>
 4    1  0.4917371E-005  0.4803520E+03  0.7818608E-02  0.1019038E+00
         -2   -1    0    0    0  501 -0.00000000000E+00  0.00000000000E+00  0.36564930201E+03  0.36564930202E+03  0.25500000000E-02 0. -1.
          2   -1    0    0  501    0  0.00000000000E+00 -0.00000000000E+00 -0.15775908418E+03  0.15775908420E+03  0.25500000000E-02 0.  1.
    5000001    1    1    2    0    0 -0.33765826235E+02 -0.10697228291E+03  0.23133406527E+02  0.22960695727E+03  0.19900000000E+03 0.  0.
   -5000001    1    1    2    0    0  0.33765826235E+02  0.10697228291E+03  0.18475681130E+03  0.29380142895E+03  0.19900000000E+03 0.  0.
<mgrwt>
<rscale>  0 0.48035195E+03</rscale>
<asrwt>0</asrwt>
<pdfrwt beam="1">  1        2 0.22537012E-01 0.48035195E+03</pdfrwt>
<pdfrwt beam="2">  1       -2 0.52235615E-01 0.48035195E+03</pdfrwt>
<totfact> 0.85774131E+02</totfact>
</mgrwt>
</event>
<event>
 4    1  0.4917371E-005  0.1016085E+04  0.7818608E-02  0.9291077E-01
         -2   -1    0    0    0  501 -0.00000000000E+00  0.00000000000E+00  0.18505906364E+03  0.18505906366E+03  0.25500000000E-02 0. -1.
          2   -1    0    0  501    0  0.00000000000E+00 -0.00000000000E+00 -0.13947293222E+04  0.13947293222E+04  0.25500000000E-02 0.  1.
    5000001    1    1    2    0    0 -0.42281257640E+03  0.28084280276E+02 -0.29799910801E+03  0.55494474494E+03  0.19900000000E+03 0.  0.
   -5000001    1    1    2    0    0  0.42281257640E+03 -0.28084280276E+02 -0.91167115052E+03  0.10248436409E+04  0.19900000000E+03 0.  0.
<mgrwt>
<rscale>  0 0.10160852E+04</rscale>
<asrwt>0</asrwt>
<pdfrwt beam="1">  1        2 0.19924704E+00 0.10160852E+04</pdfrwt>
<pdfrwt beam="2">  1       -2 0.26437010E-01 0.10160852E+04</pdfrwt>
<totfact> 0.21468793E+02</totfact>
</mgrwt>
</event>
<event>
 4    1  0.4917371E-005  0.4612129E+03  0.7818608E-02  0.1024430E+00
         -2   -1    0    0    0  501 -0.00000000000E+00  0.00000000000E+00  0.43793218502E+02  0.43793218576E+02  0.25500000000E-02 0. -1.
          2   -1    0    0  501    0  0.00000000000E+00 -0.00000000000E+00 -0.12143283142E+04  0.12143283142E+04  0.25500000000E-02 0.  1.
    5000001    1    1    2    0    0  0.43181823498E+02  0.10623649110E+03 -0.52886734115E+03  0.57658696348E+03  0.19900000000E+03 0.  0.
   -5000001    1    1    2    0    0 -0.43181823498E+02 -0.10623649110E+03 -0.64166775456E+03  0.68153456931E+03  0.19900000000E+03 0.  0.
<mgrwt>
<rscale>  0 0.46121295E+03</rscale>
<asrwt>0</asrwt>
<pdfrwt beam="1">  1        2 0.17347545E+00 0.46121295E+03</pdfrwt>
<pdfrwt beam="2">  1       -2 0.62561748E-02 0.46121295E+03</pdfrwt>
<totfact> 0.30622265E+03</totfact>
</mgrwt>
</event>
<event>
 4    1  0.4917371E-005  0.1430877E+04  0.7818608E-02  0.8931767E-01
         -2   -1    0    0    0  501 -0.00000000000E+00  0.00000000000E+00  0.36180798454E+03  0.36180798455E+03  0.25500000000E-02 0. -1.
          2   -1    0    0  501    0  0.00000000000E+00 -0.00000000000E+00 -0.14147061975E+04  0.14147061975E+04  0.25500000000E-02 0.  1.
    5000001    1    1    2    0    0 -0.42137119530E+03  0.53743728057E+03 -0.62147874539E+03  0.94457892510E+03  0.19900000000E+03 0.  0.
   -5000001    1    1    2    0    0  0.42137119530E+03 -0.53743728057E+03 -0.43141946761E+03  0.83193525698E+03  0.19900000000E+03 0.  0.
<mgrwt>
<rscale>  0 0.14308767E+04</rscale>
<asrwt>0</asrwt>
<pdfrwt beam="1">  1        2 0.20210088E+00 0.14308767E+04</pdfrwt>
<pdfrwt beam="2">  1       -2 0.51686856E-01 0.14308767E+04</pdfrwt>
<totfact> 0.55828952E+01</totfact>
</mgrwt>
</event>
<event>
 4    1  0.4917371E-005  0.4617481E+03  0.7818608E-02  0.1024275E+00
          2   -1    0    0  501    0  0.00000000000E+00  0.00000000000E+00  0.62717900575E+03  0.62717900576E+03  0.25500000000E-02 0.  1.
         -2   -1    0    0    0  501 -0.00000000000E+00 -0.00000000000E+00 -0.84988229227E+02  0.84988229265E+02  0.25500000000E-02 0. -1.
    5000001    1    1    2    0    0  0.10768706198E+03  0.13498521666E-01  0.34186338424E+03  0.40996106765E+03  0.19900000000E+03 0.  0.
   -5000001    1    1    2    0    0 -0.10768706198E+03 -0.13498521666E-01  0.20032739228E+03  0.30220616738E+03  0.19900000000E+03 0.  0.
<mgrwt>
<rscale>  0 0.46174813E+03</rscale>
<asrwt>0</asrwt>
<pdfrwt beam="1">  1        2 0.89597001E-01 0.46174813E+03</pdfrwt>
<pdfrwt beam="2">  1       -2 0.12141176E-01 0.46174813E+03</pdfrwt>
<totfact> 0.25520194E+03</totfact>
</mgrwt>
</event>
<event>
 4    1  0.4917371E-005  0.6386402E+03  0.7818608E-02  0.9828332E-01
          2   -1    0    0  501    0  0.00000000000E+00  0.00000000000E+00  0.20216797268E+03  0.20216797270E+03  0.25500000000E-02 0.  1.
         -2   -1    0    0    0  501 -0.00000000000E+00 -0.00000000000E+00 -0.50435945504E+03  0.50435945504E+03  0.25500000000E-02 0. -1.
    5000001    1    1    2    0    0 -0.36742107988E+02 -0.21808553296E+03 -0.22779068920E+02  0.29838091120E+03  0.19900000000E+03 0.  0.
   -5000001    1    1    2    0    0  0.36742107988E+02  0.21808553296E+03 -0.27941241343E+03  0.40814651654E+03  0.19900000000E+03 0.  0.
<mgrwt>
<rscale>  0 0.63864021E+03</rscale>
<asrwt>0</asrwt>
<pdfrwt beam="1">  1        2 0.28881139E-01 0.63864021E+03</pdfrwt>
<pdfrwt beam="2">  1       -2 0.72051350E-01 0.63864021E+03</pdfrwt>
<totfact> 0.32736244E+02</totfact>
</mgrwt>
</event>
<event>
 4    1  0.4917371E-005  0.5260932E+03  0.7818608E-02  0.1007184E+00
          2   -1    0    0  501    0  0.00000000000E+00  0.00000000000E+00  0.14521994596E+04  0.14521994596E+04  0.25500000000E-02 0.  1.
         -2   -1    0    0    0  501 -0.00000000000E+00 -0.00000000000E+00 -0.47647382923E+02  0.47647382992E+02  0.25500000000E-02 0. -1.
    5000001    1    1    2    0    0 -0.15458072711E+03  0.51108732253E+02  0.54392317416E+03  0.60163171716E+03  0.19900000000E+03 0.  0.
   -5000001    1    1    2    0    0  0.15458072711E+03 -0.51108732253E+02  0.86062890254E+03  0.89821512545E+03  0.19900000000E+03 0.  0.
<mgrwt>
<rscale>  0 0.52609316E+03</rscale>
<asrwt>0</asrwt>
<pdfrwt beam="1">  1        2 0.20745708E+00 0.52609316E+03</pdfrwt>
<pdfrwt beam="2">  1       -2 0.68067684E-02 0.52609316E+03</pdfrwt>
<totfact> 0.19989891E+03</totfact>
</mgrwt>
</event>
<event>
 4    1  0.4917371E-005  0.6269566E+03  0.7818608E-02  0.9851006E-01
          2   -1    0    0  501    0  0.00000000000E+00  0.00000000000E+00  0.66152692761E+02  0.66152692810E+02  0.25500000000E-02 0.  1.
         -2   -1    0    0    0  501 -0.00000000000E+00 -0.00000000000E+00 -0.14854821709E+04  0.14854821709E+04  0.25500000000E-02 0. -1.
    5000001    1    1    2    0    0  0.12400488770E+03  0.36224063685E+02 -0.20259905931E+03  0.31198841934E+03  0.19900000000E+03 0.  0.
   -5000001    1    1    2    0    0 -0.12400488770E+03 -0.36224063685E+02 -0.12167304188E+04  0.12396464444E+04  0.19900000000E+03 0.  0.
<mgrwt>
<rscale>  0 0.62695660E+03</rscale>
<asrwt>0</asrwt>
<pdfrwt beam="1">  1        2 0.94503856E-02 0.62695660E+03</pdfrwt>
<pdfrwt beam="2">  1       -2 0.21221172E+00 0.62695660E+03</pdfrwt>
<totfact> 0.81324878E+01</totfact>
</mgrwt>
</event>
<event>
 4    1  0.4917371E-005  0.4772496E+03  0.7818608E-02  0.1019894E+00
         -2   -1    0    0    0  501 -0.00000000000E+00  0.00000000000E+00  0.19706619921E+03  0.19706619922E+03  0.25500000000E-02 0. -1.
          2   -1    0    0  501    0  0.00000000000E+00 -0.00000000000E+00 -0.28894749513E+03  0.28894749514E+03  0.25500000000E-02 0.  1.
    5000001    1    1    2    0    0  0.13816537847E+02 -0.12516726667E+03 -0.85158146240E+02  0.25042094807E+03  0.19900000000E+03 0.  0.
   -5000001    1    1    2    0    0 -0.13816537847E+02  0.12516726667E+03 -0.67231496788E+01  0.23559274629E+03  0.19900000000E+03 0.  0.
<mgrwt>
<rscale>  0 0.47724956E+03</rscale>
<asrwt>0</asrwt>
<pdfrwt beam="1">  1        2 0.41278213E-01 0.47724956E+03</pdfrwt>
<pdfrwt beam="2">  1       -2 0.28152314E-01 0.47724956E+03</pdfrwt>
<totfact> 0.14294310E+03</totfact>
</mgrwt>
</event>
<event>
 4    1  0.4917371E-005  0.8048974E+03  0.7818608E-02  0.9552955E-01
          2   -1    0    0  501    0  0.00000000000E+00  0.00000000000E+00  0.21919262762E+04  0.21919262762E+04  0.25500000000E-02 0.  1.
         -2   -1    0    0    0  501 -0.00000000000E+00 -0.00000000000E+00 -0.73891602763E+02  0.73891602807E+02  0.25500000000E-02 0. -1.
    5000001    1    1    2    0    0 -0.15551653883E+03  0.14284592800E+03  0.18440732146E+04  0.18667611989E+04  0.19900000000E+03 0.  0.
   -5000001    1    1    2    0    0  0.15551653883E+03 -0.14284592800E+03  0.27396145886E+03  0.39905668010E+03  0.19900000000E+03 0.  0.
<mgrwt>
<rscale>  0 0.80489737E+03</rscale>
<asrwt>0</asrwt>
<pdfrwt beam="1">  1        2 0.31313233E+00 0.80489737E+03</pdfrwt>
<pdfrwt beam="2">  1       -2 0.10555943E-01 0.80489737E+03</pdfrwt>
<totfact> 0.40947361E+02</totfact>
</mgrwt>
</event>
<event>
 4    1  0.4917371E-005  0.4841331E+03  0.7818608E-02  0.1018005E+00
          2   -1    0    0  501    0  0.00000000000E+00  0.00000000000E+00  0.26885547834E+03  0.26885547835E+03  0.25500000000E-02 0.  1.
         -2   -1    0    0    0  501 -0.00000000000E+00 -0.00000000000E+00 -0.21794691640E+03  0.21794691641E+03  0.25500000000E-02 0. -1.
    5000001    1    1    2    0    0 -0.92785517237E+02  0.82770162824E+02  0.85239397097E+02  0.24965337346E+03  0.19900000000E+03 0.  0.
   -5000001    1    1    2    0    0  0.92785517237E+02 -0.82770162824E+02 -0.34330835151E+02  0.23714902130E+03  0.19900000000E+03 0.  0.
<mgrwt>
<rscale>  0 0.48413313E+03</rscale>
<asrwt>0</asrwt>
<pdfrwt beam="1">  1        2 0.38407925E-01 0.48413313E+03</pdfrwt>
<pdfrwt beam="2">  1       -2 0.31135274E-01 0.48413313E+03</pdfrwt>
<totfact> 0.12862447E+03</totfact>
</mgrwt>
</event>
<event>
 4    1  0.4917371E-005  0.6746150E+03  0.7818608E-02  0.9761657E-01
         -2   -1    0    0    0  501 -0.00000000000E+00  0.00000000000E+00  0.15180380416E+03  0.15180380418E+03  0.25500000000E-02 0. -1.
          2   -1    0    0  501    0  0.00000000000E+00 -0.00000000000E+00 -0.74949596055E+03  0.74949596055E+03  0.25500000000E-02 0.  1.
    5000001    1    1    2    0    0  0.86222768883E+02  0.19633146340E+03 -0.74510174229E+02  0.30188271805E+03  0.19900000000E+03 0.  0.
   -5000001    1    1    2    0    0 -0.86222768883E+02 -0.19633146340E+03 -0.52318198216E+03  0.59941704668E+03  0.19900000000E+03 0.  0.
<mgrwt>
<rscale>  0 0.67461497E+03</rscale>
<asrwt>0</asrwt>
<pdfrwt beam="1">  1        2 0.10707085E+00 0.67461497E+03</pdfrwt>
<pdfrwt beam="2">  1       -2 0.21686258E-01 0.67461497E+03</pdfrwt>
<totfact> 0.76677604E+02</totfact>
</mgrwt>
</event>
<event>
 4    1  0.4917371E-005  0.4575051E+03  0.7818608E-02  0.1025507E+00
         -2   -1    0    0    0  501 -0.00000000000E+00  0.00000000000E+00  0.37535321106E+02  0.37535321192E+02  0.25500000000E-02 0. -1.
          2   -1    0    0  501    0  0.00000000000E+00 -0.00000000000E+00 -0.13940933003E+04  0.13940933003E+04  0.25500000000E-02 0.  1.
    5000001    1    1    2    0    0 -0.11061028186E+03 -0.18586666938E+02 -0.64038570575E+03  0.67990804582E+03  0.19900000000E+03 0.  0.
   -5000001    1    1    2    0    0  0.11061028186E+03  0.18586666938E+02 -0.71617227344E+03  0.75172057567E+03  0.19900000000E+03 0.  0.
<mgrwt>
<rscale>  0 0.45750515E+03</rscale>
<asrwt>0</asrwt>
<pdfrwt beam="1">  1        2 0.19915615E+00 0.45750515E+03</pdfrwt>
<pdfrwt beam="2">  1       -2 0.53621896E-02 0.45750515E+03</pdfrwt>
<totfact> 0.31137951E+03</totfact>
</mgrwt>
</event>
<event>
 4    1  0.4917371E-005  0.6446156E+03  0.7818608E-02  0.9816935E-01
         -2   -1    0    0    0  501 -0.00000000000E+00  0.00000000000E+00  0.90818126167E+02  0.90818126203E+02  0.25500000000E-02 0. -1.
          2   -1    0    0  501    0  0.00000000000E+00 -0.00000000000E+00 -0.11438502126E+04  0.11438502126E+04  0.25500000000E-02 0.  1.
    5000001    1    1    2    0    0 -0.18410634315E+02 -0.19041005222E+03 -0.20781560379E+03  0.34551883396E+03  0.19900000000E+03 0.  0.
   -5000001    1    1    2    0    0  0.18410634315E+02  0.19041005222E+03 -0.84521648269E+03  0.88914950489E+03  0.19900000000E+03 0.  0.
<mgrwt>
<rscale>  0 0.64461565E+03</rscale>
<asrwt>0</asrwt>
<pdfrwt beam="1">  1        2 0.16340716E+00 0.64461565E+03</pdfrwt>
<pdfrwt beam="2">  1       -2 0.12974019E-01 0.64461565E+03</pdfrwt>
<totfact> 0.10363341E+03</totfact>
</mgrwt>
</event>
<event>
 4    1  0.4917371E-005  0.8853849E+03  0.7818608E-02  0.9444038E-01
         -2   -1    0    0    0  501 -0.00000000000E+00  0.00000000000E+00  0.99935750517E+02  0.99935750549E+02  0.25500000000E-02 0. -1.
          2   -1    0    0  501    0  0.00000000000E+00 -0.00000000000E+00 -0.19610261199E+04  0.19610261199E+04  0.25500000000E-02 0.  1.
    5000001    1    1    2    0    0  0.32609799734E+03 -0.13191555564E+03 -0.13510519465E+04  0.14102070698E+04  0.19900000000E+03 0.  0.
   -5000001    1    1    2    0    0 -0.32609799734E+03  0.13191555564E+03 -0.51003842286E+03  0.65075480059E+03  0.19900000000E+03 0.  0.
<mgrwt>
<rscale>  0 0.88538493E+03</rscale>
<asrwt>0</asrwt>
<pdfrwt beam="1">  1        2 0.28014656E+00 0.88538493E+03</pdfrwt>
<pdfrwt beam="2">  1       -2 0.14276537E-01 0.88538493E+03</pdfrwt>
<totfact> 0.32315087E+02</totfact>
</mgrwt>
</event>
<event>
 4    1  0.4917371E-005  0.5057936E+03  0.7818608E-02  0.1012278E+00
          2   -1    0    0  501    0  0.00000000000E+00  0.00000000000E+00  0.34983034071E+04  0.34983034071E+04  0.25500000000E-02 0.  1.
         -2   -1    0    0    0  501 -0.00000000000E+00 -0.00000000000E+00 -0.18282230495E+02  0.18282230673E+02  0.25500000000E-02 0. -1.
    5000001    1    1    2    0    0  0.15107813663E+03 -0.35261382962E+02  0.16220575450E+04  0.16415662179E+04  0.19900000000E+03 0.  0.
   -5000001    1    1    2    0    0 -0.15107813663E+03  0.35261382962E+02  0.18579636316E+04  0.18750194199E+04  0.19900000000E+03 0.  0.
<mgrwt>
<rscale>  0 0.50579359E+03</rscale>
<asrwt>0</asrwt>
<pdfrwt beam="1">  1        2 0.49975787E+00 0.50579359E+03</pdfrwt>
<pdfrwt beam="2">  1       -2 0.26117460E-02 0.50579359E+03</pdfrwt>
<totfact> 0.73736301E+02</totfact>
</mgrwt>
</event>
<event>
 4    1  0.4917371E-005  0.5104888E+03  0.7818608E-02  0.1011077E+00
         -2   -1    0    0    0  501 -0.00000000000E+00  0.00000000000E+00  0.25704519710E+02  0.25704519837E+02  0.25500000000E-02 0. -1.
          2   -1    0    0  501    0  0.00000000000E+00 -0.00000000000E+00 -0.25345621862E+04  0.25345621862E+04  0.25500000000E-02 0.  1.
    5000001    1    1    2    0    0  0.14101987962E+03  0.75238882212E+02 -0.12489165545E+04  0.12747317584E+04  0.19900000000E+03 0.  0.
   -5000001    1    1    2    0    0 -0.14101987962E+03 -0.75238882212E+02 -0.12599411120E+04  0.12855349477E+04  0.19900000000E+03 0.  0.
<mgrwt>
<rscale>  0 0.51048880E+03</rscale>
<asrwt>0</asrwt>
<pdfrwt beam="1">  1        2 0.36208015E+00 0.51048880E+03</pdfrwt>
<pdfrwt beam="2">  1       -2 0.36720759E-02 0.51048880E+03</pdfrwt>
<totfact> 0.14750795E+03</totfact>
</mgrwt>
</event>
<event>
 4    1  0.4917371E-005  0.4758239E+03  0.7818608E-02  0.1020289E+00
         -2   -1    0    0    0  501 -0.00000000000E+00  0.00000000000E+00  0.26421017293E+03  0.26421017295E+03  0.25500000000E-02 0. -1.
          2   -1    0    0  501    0  0.00000000000E+00 -0.00000000000E+00 -0.21423136718E+03  0.21423136720E+03  0.25500000000E-02 0.  1.
    5000001    1    1    2    0    0  0.94913087323E+02  0.71949803893E+02 -0.28366986247E+02  0.23364707217E+03  0.19900000000E+03 0.  0.
   -5000001    1    1    2    0    0 -0.94913087323E+02 -0.71949803893E+02  0.78345791998E+02  0.24479446797E+03  0.19900000000E+03 0.  0.
<mgrwt>
<rscale>  0 0.47582394E+03</rscale>
<asrwt>0</asrwt>
<pdfrwt beam="1">  1        2 0.30604481E-01 0.47582394E+03</pdfrwt>
<pdfrwt beam="2">  1       -2 0.37744311E-01 0.47582394E+03</pdfrwt>
<totfact> 0.11516132E+03</totfact>
</mgrwt>
</event>
<event>
 4    1  0.4917371E-005  0.7117351E+03  0.7818608E-02  0.9697371E-01
          2   -1    0    0  501    0  0.00000000000E+00  0.00000000000E+00  0.25346163612E+04  0.25346163612E+04  0.25500000000E-02 0.  1.
         -2   -1    0    0    0  501 -0.00000000000E+00 -0.00000000000E+00 -0.49964840311E+02  0.49964840376E+02  0.25500000000E-02 0. -1.
    5000001    1    1    2    0    0  0.12529514758E+03  0.20990163255E+03  0.18421429842E+04  0.18689166230E+04  0.19900000000E+03 0.  0.
   -5000001    1    1    2    0    0 -0.12529514758E+03 -0.20990163255E+03  0.64250853664E+03  0.71566457856E+03  0.19900000000E+03 0.  0.
<mgrwt>
<rscale>  0 0.71173507E+03</rscale>
<asrwt>0</asrwt>
<pdfrwt beam="1">  1        2 0.36208819E+00 0.71173507E+03</pdfrwt>
<pdfrwt beam="2">  1       -2 0.71378316E-02 0.71173507E+03</pdfrwt>
<totfact> 0.51702515E+02</totfact>
</mgrwt>
</event>
<event>
 4    1  0.4917371E-005  0.5348670E+03  0.7818608E-02  0.1005059E+00
         -2   -1    0    0    0  501 -0.00000000000E+00  0.00000000000E+00  0.36783633999E+02  0.36783634088E+02  0.25500000000E-02 0. -1.
          2   -1    0    0  501    0  0.00000000000E+00 -0.00000000000E+00 -0.19443610267E+04  0.19443610267E+04  0.25500000000E-02 0.  1.
    5000001    1    1    2    0    0 -0.98596543352E+02 -0.93278301507E+02 -0.52346247760E+03  0.57622572430E+03  0.19900000000E+03 0.  0.
   -5000001    1    1    2    0    0  0.98596543352E+02  0.93278301507E+02 -0.13841149151E+04  0.14049189364E+04  0.19900000000E+03 0.  0.
<mgrwt>
<rscale>  0 0.53486695E+03</rscale>
<asrwt>0</asrwt>
<pdfrwt beam="1">  1        2 0.27776580E+00 0.53486695E+03</pdfrwt>
<pdfrwt beam="2">  1       -2 0.52548061E-02 0.53486695E+03</pdfrwt>
<totfact> 0.16829443E+03</totfact>
</mgrwt>
</event>
<event>
 4    1  0.4917371E-005  0.4802930E+03  0.7818608E-02  0.1019055E+00
         -2   -1    0    0    0  501 -0.00000000000E+00  0.00000000000E+00  0.14230477720E+03  0.14230477722E+03  0.25500000000E-02 0. -1.
          2   -1    0    0  501    0  0.00000000000E+00 -0.00000000000E+00 -0.40525931405E+03  0.40525931405E+03  0.25500000000E-02 0.  1.
    5000001    1    1    2    0    0  0.23092135705E+02 -0.10903175753E+03 -0.21715785467E+03  0.31492809453E+03  0.19900000000E+03 0.  0.
   -5000001    1    1    2    0    0 -0.23092135705E+02  0.10903175753E+03 -0.45796682175E+02  0.23263599674E+03  0.19900000000E+03 0.  0.
<mgrwt>
<rscale>  0 0.48029298E+03</rscale>
<asrwt>0</asrwt>
<pdfrwt beam="1">  1        2 0.57894187E-01 0.48029298E+03</pdfrwt>
<pdfrwt beam="2">  1       -2 0.20329254E-01 0.48029298E+03</pdfrwt>
<totfact> 0.17579145E+03</totfact>
</mgrwt>
</event>
<event>
 4    1  0.4917371E-005  0.4567368E+03  0.7818608E-02  0.1025732E+00
          2   -1    0    0  501    0  0.00000000000E+00  0.00000000000E+00  0.19683954643E+04  0.19683954643E+04  0.25500000000E-02 0.  1.
         -2   -1    0    0    0  501 -0.00000000000E+00 -0.00000000000E+00 -0.26494744056E+02  0.26494744179E+02  0.25500000000E-02 0. -1.
    5000001    1    1    2    0    0 -0.61991579721E+02  0.49207012057E+02  0.62463684050E+03  0.66033057517E+03  0.19900000000E+03 0.  0.
   -5000001    1    1    2    0    0  0.61991579721E+02 -0.49207012057E+02  0.13172638798E+04  0.13345596333E+04  0.19900000000E+03 0.  0.
<mgrwt>
<rscale>  0 0.45673684E+03</rscale>
<asrwt>0</asrwt>
<pdfrwt beam="1">  1        2 0.28119941E+00 0.45673684E+03</pdfrwt>
<pdfrwt beam="2">  1       -2 0.37849627E-02 0.45673684E+03</pdfrwt>
<totfact> 0.27185797E+03</totfact>
</mgrwt>
</event>
<event>
 4    1  0.4917371E-005  0.1006056E+04  0.7818608E-02  0.9301928E-01
         -2   -1    0    0    0  501 -0.00000000000E+00  0.00000000000E+00  0.19327404189E+03  0.19327404191E+03  0.25500000000E-02 0. -1.
          2   -1    0    0  501    0  0.00000000000E+00 -0.00000000000E+00 -0.13092138035E+04  0.13092138035E+04  0.25500000000E-02 0.  1.
    5000001    1    1    2    0    0 -0.42618292389E+03 -0.16160755777E+03 -0.67059531969E+03  0.83489398736E+03  0.19900000000E+03 0.  0.
   -5000001    1    1    2    0    0  0.42618292389E+03  0.16160755777E+03 -0.44534444187E+03  0.66759385801E+03  0.19900000000E+03 0.  0.
<mgrwt>
<rscale>  0 0.10060558E+04</rscale>
<asrwt>0</asrwt>
<pdfrwt beam="1">  1        2 0.18703054E+00 0.10060558E+04</pdfrwt>
<pdfrwt beam="2">  1       -2 0.27610578E-01 0.10060558E+04</pdfrwt>
<totfact> 0.22089598E+02</totfact>
</mgrwt>
</event>
<event>
 4    1  0.4917371E-005  0.5962450E+03  0.7818608E-02  0.9913227E-01
         -2   -1    0    0    0  501 -0.00000000000E+00  0.00000000000E+00  0.21967079610E+03  0.21967079612E+03  0.25500000000E-02 0. -1.
          2   -1    0    0  501    0  0.00000000000E+00 -0.00000000000E+00 -0.40459191456E+03  0.40459191456E+03  0.25500000000E-02 0.  1.
    5000001    1    1    2    0    0 -0.16832879309E+03  0.11481365736E+03 -0.18468649148E+03  0.33945081917E+03  0.19900000000E+03 0.  0.
   -5000001    1    1    2    0    0  0.16832879309E+03 -0.11481365736E+03 -0.23462697694E+00  0.28481189151E+03  0.19900000000E+03 0.  0.
<mgrwt>
<rscale>  0 0.59624501E+03</rscale>
<asrwt>0</asrwt>
<pdfrwt beam="1">  1        2 0.57798845E-01 0.59624501E+03</pdfrwt>
<pdfrwt beam="2">  1       -2 0.31381543E-01 0.59624501E+03</pdfrwt>
<totfact> 0.80752798E+02</totfact>
</mgrwt>
</event>
<event>
 4    1  0.4917371E-005  0.5880249E+03  0.7818608E-02  0.9930567E-01
         -2   -1    0    0    0  501 -0.00000000000E+00  0.00000000000E+00  0.92029886779E+02  0.92029886814E+02  0.25500000000E-02 0. -1.
          2   -1    0    0  501    0  0.00000000000E+00 -0.00000000000E+00 -0.93929626193E+03  0.93929626194E+03  0.25500000000E-02 0.  1.
    5000001    1    1    2    0    0  0.87931819630E+02 -0.17580184500E+03 -0.26477337488E+03  0.38515481778E+03  0.19900000000E+03 0.  0.
   -5000001    1    1    2    0    0 -0.87931819630E+02  0.17580184500E+03 -0.58249300027E+03  0.64617133097E+03  0.19900000000E+03 0.  0.
<mgrwt>
<rscale>  0 0.58802493E+03</rscale>
<asrwt>0</asrwt>
<pdfrwt beam="1">  1        2 0.13418517E+00 0.58802493E+03</pdfrwt>
<pdfrwt beam="2">  1       -2 0.13147127E-01 0.58802493E+03</pdfrwt>
<totfact> 0.13459890E+03</totfact>
</mgrwt>
</event>
<event>
 4    1  0.4917371E-005  0.5173977E+03  0.7818608E-02  0.1009335E+00
         -2   -1    0    0    0  501 -0.00000000000E+00  0.00000000000E+00  0.86423427230E+02  0.86423427268E+02  0.25500000000E-02 0. -1.
          2   -1    0    0  501    0  0.00000000000E+00 -0.00000000000E+00 -0.77438601944E+03  0.77438601944E+03  0.25500000000E-02 0.  1.
    5000001    1    1    2    0    0  0.76450216623E+02  0.14312042779E+03 -0.29147486538E+03  0.38844135931E+03  0.19900000000E+03 0.  0.
   -5000001    1    1    2    0    0 -0.76450216623E+02 -0.14312042779E+03 -0.39648772683E+03  0.47236808740E+03  0.19900000000E+03 0.  0.
<mgrwt>
<rscale>  0 0.51739770E+03</rscale>
<asrwt>0</asrwt>
<pdfrwt beam="1">  1        2 0.11062657E+00 0.51739770E+03</pdfrwt>
<pdfrwt beam="2">  1       -2 0.12346204E-01 0.51739770E+03</pdfrwt>
<totfact> 0.19228649E+03</totfact>
</mgrwt>
</event>
<event>
 4    1  0.4917371E-005  0.5353841E+03  0.7818608E-02  0.1004935E+00
          2   -1    0    0  501    0  0.00000000000E+00  0.00000000000E+00  0.34231096615E+03  0.34231096616E+03  0.25500000000E-02 0.  1.
         -2   -1    0    0    0  501 -0.00000000000E+00 -0.00000000000E+00 -0.20933901253E+03  0.20933901254E+03  0.25500000000E-02 0. -1.
    5000001    1    1    2    0    0  0.37183446241E+02  0.52343853258E+02  0.23870326522E+03  0.31733694470E+03  0.19900000000E+03 0.  0.
   -5000001    1    1    2    0    0 -0.37183446241E+02 -0.52343853258E+02 -0.10573131159E+03  0.23431303399E+03  0.19900000000E+03 0.  0.
<mgrwt>
<rscale>  0 0.53538412E+03</rscale>
<asrwt>0</asrwt>
<pdfrwt beam="1">  1        2 0.48901567E-01 0.53538412E+03</pdfrwt>
<pdfrwt beam="2">  1       -2 0.29905573E-01 0.53538412E+03</pdfrwt>
<totfact> 0.10626435E+03</totfact>
</mgrwt>
</event>
<event>
 4    1  0.4917371E-005  0.1087907E+04  0.7818608E-02  0.9217060E-01
          2   -1    0    0  501    0  0.00000000000E+00  0.00000000000E+00  0.75800602891E+03  0.75800602892E+03  0.25500000000E-02 0.  1.
         -2   -1    0    0    0  501 -0.00000000000E+00 -0.00000000000E+00 -0.39034684046E+03  0.39034684046E+03  0.25500000000E-02 0. -1.
    5000001    1    1    2    0    0  0.43785007167E+03 -0.12854939325E+03  0.41520391180E+03  0.64825374672E+03  0.19900000000E+03 0.  0.
   -5000001    1    1    2    0    0 -0.43785007167E+03  0.12854939325E+03 -0.47544723344E+02  0.50009912266E+03  0.19900000000E+03 0.  0.
<mgrwt>
<rscale>  0 0.10879067E+04</rscale>
<asrwt>0</asrwt>
<pdfrwt beam="1">  1        2 0.10828657E+00 0.10879067E+04</pdfrwt>
<pdfrwt beam="2">  1       -2 0.55763835E-01 0.10879067E+04</pdfrwt>
<totfact> 0.12229438E+02</totfact>
</mgrwt>
</event>
<event>
 4    1  0.4917371E-005  0.4964343E+03  0.7818608E-02  0.1014714E+00
         -2   -1    0    0    0  501 -0.00000000000E+00  0.00000000000E+00  0.12970992779E+03  0.12970992781E+03  0.25500000000E-02 0. -1.
          2   -1    0    0  501    0  0.00000000000E+00 -0.00000000000E+00 -0.47499643760E+03  0.47499643761E+03  0.25500000000E-02 0.  1.
    5000001    1    1    2    0    0 -0.14349950846E+03  0.25952557186E+02 -0.20589334323E+03  0.32133893779E+03  0.19900000000E+03 0.  0.
   -5000001    1    1    2    0    0  0.14349950846E+03 -0.25952557186E+02 -0.13939316659E+03  0.28336742763E+03  0.19900000000E+03 0.  0.
<mgrwt>
<rscale>  0 0.49643430E+03</rscale>
<asrwt>0</asrwt>
<pdfrwt beam="1">  1        2 0.67856633E-01 0.49643430E+03</pdfrwt>
<pdfrwt beam="2">  1       -2 0.18529990E-01 0.49643430E+03</pdfrwt>
<totfact> 0.17293069E+03</totfact>
</mgrwt>
</event>
<event>
 4    1  0.4917371E-005  0.6808769E+03  0.7818608E-02  0.9750506E-01
          2   -1    0    0  501    0  0.00000000000E+00  0.00000000000E+00  0.39570721894E+04  0.39570721894E+04  0.25500000000E-02 0.  1.
         -2   -1    0    0    0  501 -0.00000000000E+00 -0.00000000000E+00 -0.29288910253E+02  0.29288910364E+02  0.25500000000E-02 0. -1.
    5000001    1    1    2    0    0  0.41537839247E+02  0.25981965455E+03  0.14717554997E+04  0.15082761338E+04  0.19900000000E+03 0.  0.
   -5000001    1    1    2    0    0 -0.41537839247E+02 -0.25981965455E+03  0.24560277795E+04  0.24780849660E+04  0.19900000000E+03 0.  0.
<mgrwt>
<rscale>  0 0.68087688E+03</rscale>
<asrwt>0</asrwt>
<pdfrwt beam="1">  1        2 0.56529582E+00 0.68087688E+03</pdfrwt>
<pdfrwt beam="2">  1       -2 0.41841316E-02 0.68087688E+03</pdfrwt>
<totfact> 0.18167107E+02</totfact>
</mgrwt>
</event>
<event>
 4    1  0.4917371E-005  0.5865731E+03  0.7818608E-02  0.9933661E-01
         -2   -1    0    0    0  501 -0.00000000000E+00  0.00000000000E+00  0.46013559620E+02  0.46013559691E+02  0.25500000000E-02 0. -1.
          2   -1    0    0  501    0  0.00000000000E+00 -0.00000000000E+00 -0.18693839863E+04  0.18693839863E+04  0.25500000000E-02 0.  1.
    5000001    1    1    2    0    0 -0.43688316811E+02  0.19817952736E+03 -0.67548534574E+03  0.73284735546E+03  0.19900000000E+03 0.  0.
   -5000001    1    1    2    0    0  0.43688316811E+02 -0.19817952736E+03 -0.11478850809E+04  0.11825501905E+04  0.19900000000E+03 0.  0.
<mgrwt>
<rscale>  0 0.58657314E+03</rscale>
<asrwt>0</asrwt>
<pdfrwt beam="1">  1        2 0.26705481E+00 0.58657314E+03</pdfrwt>
<pdfrwt beam="2">  1       -2 0.65733669E-02 0.58657314E+03</pdfrwt>
<totfact> 0.12905217E+03</totfact>
</mgrwt>
</event>
<event>
 4    1  0.4917371E-005  0.5406998E+03  0.7818608E-02  0.1003670E+00
          2   -1    0    0  501    0  0.00000000000E+00  0.00000000000E+00  0.96438823564E+03  0.96438823564E+03  0.25500000000E-02 0.  1.
         -2   -1    0    0    0  501 -0.00000000000E+00 -0.00000000000E+00 -0.75788019354E+02  0.75788019397E+02  0.25500000000E-02 0. -1.
    5000001    1    1    2    0    0  0.11682463268E+03  0.12927974805E+03  0.33672728095E+03  0.42819097351E+03  0.19900000000E+03 0.  0.
   -5000001    1    1    2    0    0 -0.11682463268E+03 -0.12927974805E+03  0.55187293534E+03  0.61198528153E+03  0.19900000000E+03 0.  0.
<mgrwt>
<rscale>  0 0.54069982E+03</rscale>
<asrwt>0</asrwt>
<pdfrwt beam="1">  1        2 0.13776974E+00 0.54069982E+03</pdfrwt>
<pdfrwt beam="2">  1       -2 0.10826860E-01 0.54069982E+03</pdfrwt>
<totfact> 0.17874549E+03</totfact>
</mgrwt>
</event>
<event>
 4    1  0.4917371E-005  0.4784897E+03  0.7818608E-02  0.1019551E+00
          2   -1    0    0  501    0  0.00000000000E+00  0.00000000000E+00  0.61710793503E+03  0.61710793504E+03  0.25500000000E-02 0.  1.
         -2   -1    0    0    0  501 -0.00000000000E+00 -0.00000000000E+00 -0.92752177805E+02  0.92752177840E+02  0.25500000000E-02 0. -1.
    5000001    1    1    2    0    0 -0.65273933472E+02 -0.10718620459E+03  0.32663156865E+03  0.40254037125E+03  0.19900000000E+03 0.  0.
   -5000001    1    1    2    0    0  0.65273933472E+02  0.10718620459E+03  0.19772418858E+03  0.30731974163E+03  0.19900000000E+03 0.  0.
<mgrwt>
<rscale>  0 0.47848973E+03</rscale>
<asrwt>0</asrwt>
<pdfrwt beam="1">  1        2 0.88158281E-01 0.47848973E+03</pdfrwt>
<pdfrwt beam="2">  1       -2 0.13250310E-01 0.47848973E+03</pdfrwt>
<totfact> 0.22531604E+03</totfact>
</mgrwt>
</event>
<event>
 4    1  0.4917371E-005  0.8056628E+03  0.7818608E-02  0.9551856E-01
         -2   -1    0    0    0  501 -0.00000000000E+00  0.00000000000E+00  0.48274305596E+03  0.48274305597E+03  0.25500000000E-02 0.  1.
          2   -1    0    0  501    0  0.00000000000E+00 -0.00000000000E+00 -0.33614807123E+03  0.33614807124E+03  0.25500000000E-02 0. -1.
    5000001    1    1    2    0    0 -0.63643081756E+02  0.22177250390E+03 -0.19454132070E+03  0.36149800940E+03  0.19900000000E+03 0.  0.
   -5000001    1    1    2    0    0  0.63643081756E+02 -0.22177250390E+03  0.34113630543E+03  0.45739311781E+03  0.19900000000E+03 0.  0.
<mgrwt>
<rscale>  0 0.80566283E+03</rscale>
<asrwt>0</asrwt>
<pdfrwt beam="1">  1        2 0.48021154E-01 0.80566283E+03</pdfrwt>
<pdfrwt beam="2">  1       -2 0.68963293E-01 0.80566283E+03</pdfrwt>
<totfact> 0.20319219E+02</totfact>
</mgrwt>
</event>
<event>
 4    1  0.4917371E-005  0.5433898E+03  0.7818608E-02  0.1003036E+00
          2   -1    0    0  501    0  0.00000000000E+00  0.00000000000E+00  0.57784750746E+03  0.57784750746E+03  0.25500000000E-02 0.  1.
         -2   -1    0    0    0  501 -0.00000000000E+00 -0.00000000000E+00 -0.12774673273E+03  0.12774673276E+03  0.25500000000E-02 0. -1.
    5000001    1    1    2    0    0 -0.15399964538E+03  0.97723236235E+02  0.26510266648E+03  0.37834659435E+03  0.19900000000E+03 0.  0.
   -5000001    1    1    2    0    0  0.15399964538E+03 -0.97723236235E+02  0.18499810824E+03  0.32724764587E+03  0.19900000000E+03 0.  0.
<mgrwt>
<rscale>  0 0.54338985E+03</rscale>
<asrwt>0</asrwt>
<pdfrwt beam="1">  1        2 0.82549645E-01 0.54338985E+03</pdfrwt>
<pdfrwt beam="2">  1       -2 0.18249533E-01 0.54338985E+03</pdfrwt>
<totfact> 0.14193766E+03</totfact>
</mgrwt>
</event>
<event>
 4    1  0.4917371E-005  0.5325115E+03  0.7818608E-02  0.1005625E+00
          2   -1    0    0  501    0  0.00000000000E+00  0.00000000000E+00  0.21872137258E+03  0.21872137259E+03  0.25500000000E-02 0.  1.
         -2   -1    0    0    0  501 -0.00000000000E+00 -0.00000000000E+00 -0.32412067637E+03  0.32412067638E+03  0.25500000000E-02 0. -1.
    5000001    1    1    2    0    0  0.14416425272E+03  0.97867307845E+02 -0.83783446178E+02  0.27745631649E+03  0.19900000000E+03 0.  0.
   -5000001    1    1    2    0    0 -0.14416425272E+03 -0.97867307845E+02 -0.21615857619E+02  0.26538573249E+03  0.19900000000E+03 0.  0.
<mgrwt>
<rscale>  0 0.53251148E+03</rscale>
<asrwt>0</asrwt>
<pdfrwt beam="1">  1        2 0.31245910E-01 0.53251148E+03</pdfrwt>
<pdfrwt beam="2">  1       -2 0.46302954E-01 0.53251148E+03</pdfrwt>
<totfact> 0.75527948E+02</totfact>
</mgrwt>
</event>
<event>
 4    1  0.4917371E-005  0.4945586E+03  0.7818608E-02  0.1015209E+00
          2   -1    0    0  501    0  0.00000000000E+00  0.00000000000E+00  0.30092560179E+04  0.30092560179E+04  0.25500000000E-02 0.  1.
         -2   -1    0    0    0  501 -0.00000000000E+00 -0.00000000000E+00 -0.20319661101E+02  0.20319661261E+02  0.25500000000E-02 0. -1.
    5000001    1    1    2    0    0  0.12893215874E+03  0.16867802383E+02  0.19116555745E+04  0.19263790021E+04  0.19900000000E+03 0.  0.
   -5000001    1    1    2    0    0 -0.12893215874E+03 -0.16867802383E+02  0.10772807824E+04  0.11031966771E+04  0.19900000000E+03 0.  0.
<mgrwt>
<rscale>  0 0.49455864E+03</rscale>
<asrwt>0</asrwt>
<pdfrwt beam="1">  1        2 0.42989313E+00 0.49455864E+03</pdfrwt>
<pdfrwt beam="2">  1       -2 0.29028127E-02 0.49455864E+03</pdfrwt>
<totfact> 0.11884417E+03</totfact>
</mgrwt>
</event>
<event>
 4    1  0.4917371E-005  0.4826174E+03  0.7818608E-02  0.1018418E+00
         -2   -1    0    0    0  501 -0.00000000000E+00  0.00000000000E+00  0.19239447451E+02  0.19239447620E+02  0.25500000000E-02 0. -1.
          2   -1    0    0  501    0  0.00000000000E+00 -0.00000000000E+00 -0.30265883660E+04  0.30265883660E+04  0.25500000000E-02 0.  1.
    5000001    1    1    2    0    0  0.99300614210E+02 -0.51111393745E+02 -0.19988374837E+04  0.20118213820E+04  0.19900000000E+03 0.  0.
   -5000001    1    1    2    0    0 -0.99300614210E+02  0.51111393745E+02 -0.10085114348E+04  0.10340064316E+04  0.19900000000E+03 0.  0.
<mgrwt>
<rscale>  0 0.48261740E+03</rscale>
<asrwt>0</asrwt>
<pdfrwt beam="1">  1        2 0.43236946E+00 0.48261740E+03</pdfrwt>
<pdfrwt beam="2">  1       -2 0.27484944E-02 0.48261740E+03</pdfrwt>
<totfact> 0.12644243E+03</totfact>
</mgrwt>
</event>
<event>
 4    1  0.4917371E-005  0.5865859E+03  0.7818608E-02  0.9933633E-01
          2   -1    0    0  501    0  0.00000000000E+00  0.00000000000E+00  0.11245894301E+04  0.11245894301E+04  0.25500000000E-02 0.  1.
         -2   -1    0    0    0  501 -0.00000000000E+00 -0.00000000000E+00 -0.76490820637E+02  0.76490820679E+02  0.25500000000E-02 0. -1.
    5000001    1    1    2    0    0  0.33326620060E+01 -0.17304862543E+03  0.78676903185E+03  0.82979722998E+03  0.19900000000E+03 0.  0.
   -5000001    1    1    2    0    0 -0.33326620060E+01  0.17304862543E+03  0.26132957759E+03  0.37128302078E+03  0.19900000000E+03 0.  0.
<mgrwt>
<rscale>  0 0.58658595E+03</rscale>
<asrwt>0</asrwt>
<pdfrwt beam="1">  1        2 0.16065562E+00 0.58658595E+03</pdfrwt>
<pdfrwt beam="2">  1       -2 0.10927261E-01 0.58658595E+03</pdfrwt>
<totfact> 0.14124224E+03</totfact>
</mgrwt>
</event>
<event>
 4    1  0.4917371E-005  0.5945629E+03  0.7818608E-02  0.9916751E-01
         -2   -1    0    0    0  501 -0.00000000000E+00  0.00000000000E+00  0.60080743424E+02  0.60080743479E+02  0.25500000000E-02 0. -1.
          2   -1    0    0  501    0  0.00000000000E+00 -0.00000000000E+00 -0.14709583515E+04  0.14709583515E+04  0.25500000000E-02 0.  1.
    5000001    1    1    2    0    0  0.19151808077E+03 -0.74296954558E+02 -0.49661919137E+03  0.57308885345E+03  0.19900000000E+03 0.  0.
   -5000001    1    1    2    0    0 -0.19151808077E+03  0.74296954558E+02 -0.91425841672E+03  0.95795024154E+03  0.19900000000E+03 0.  0.
<mgrwt>
<rscale>  0 0.59456294E+03</rscale>
<asrwt>0</asrwt>
<pdfrwt beam="1">  1        2 0.21013689E+00 0.59456294E+03</pdfrwt>
<pdfrwt beam="2">  1       -2 0.85829642E-02 0.59456294E+03</pdfrwt>
<totfact> 0.13500232E+03</totfact>
</mgrwt>
</event>
<event>
 4    1  0.4917371E-005  0.7179455E+03  0.7818608E-02  0.9687026E-01
         -2   -1    0    0    0  501 -0.00000000000E+00  0.00000000000E+00  0.57617059482E+02  0.57617059538E+02  0.25500000000E-02 0. -1.
          2   -1    0    0  501    0  0.00000000000E+00 -0.00000000000E+00 -0.22365154930E+04  0.22365154930E+04  0.25500000000E-02 0.  1.
    5000001    1    1    2    0    0 -0.29568052898E+03 -0.20315740645E+02 -0.96900538080E+03  0.10326723258E+04  0.19900000000E+03 0.  0.
   -5000001    1    1    2    0    0  0.29568052898E+03  0.20315740645E+02 -0.12098930528E+04  0.12614602267E+04  0.19900000000E+03 0.  0.
<mgrwt>
<rscale>  0 0.71794553E+03</rscale>
<asrwt>0</asrwt>
<pdfrwt beam="1">  1        2 0.31950216E+00 0.71794553E+03</pdfrwt>
<pdfrwt beam="2">  1       -2 0.82310099E-02 0.71794553E+03</pdfrwt>
<totfact> 0.58503957E+02</totfact>
</mgrwt>
</event>
<event>
 4    1  0.4917371E-005  0.4770115E+03  0.7818608E-02  0.1019960E+00
         -2   -1    0    0    0  501 -0.00000000000E+00  0.00000000000E+00  0.63211125890E+02  0.63211125942E+02  0.25500000000E-02 0. -1.
          2   -1    0    0  501    0  0.00000000000E+00 -0.00000000000E+00 -0.89992063873E+03  0.89992063873E+03  0.25500000000E-02 0.  1.
    5000001    1    1    2    0    0 -0.35184062113E+02 -0.12554384231E+03 -0.38427913427E+03  0.45196308213E+03  0.19900000000E+03 0.  0.
   -5000001    1    1    2    0    0  0.35184062113E+02  0.12554384231E+03 -0.45243037857E+03  0.51116868255E+03  0.19900000000E+03 0.  0.
<mgrwt>
<rscale>  0 0.47701152E+03</rscale>
<asrwt>0</asrwt>
<pdfrwt beam="1">  1        2 0.12856008E+00 0.47701152E+03</pdfrwt>
<pdfrwt beam="2">  1       -2 0.90301614E-02 0.47701152E+03</pdfrwt>
<totfact> 0.26302400E+03</totfact>
</mgrwt>
</event>
<event>
 4    1  0.4917371E-005  0.1715811E+04  0.7818608E-02  0.8752398E-01
          2   -1    0    0  501    0  0.00000000000E+00  0.00000000000E+00  0.37621503200E+04  0.37621503200E+04  0.25500000000E-02 0.  1.
         -2   -1    0    0    0  501 -0.00000000000E+00 -0.00000000000E+00 -0.19563326890E+03  0.19563326891E+03  0.25500000000E-02 0. -1.
    5000001    1    1    2    0    0  0.40590321692E+03 -0.59779436346E+03  0.82028814853E+03  0.11111206816E+04  0.19900000000E+03 0.  0.
   -5000001    1    1    2    0    0 -0.40590321692E+03  0.59779436346E+03  0.27462289026E+04  0.28466629073E+04  0.19900000000E+03 0.  0.
<mgrwt>
<rscale>  0 0.17158109E+04</rscale>
<asrwt>0</asrwt>
<pdfrwt beam="1">  1        2 0.53745000E+00 0.17158109E+04</pdfrwt>
<pdfrwt beam="2">  1       -2 0.27947612E-01 0.17158109E+04</pdfrwt>
<totfact> 0.92381386E+00</totfact>
</mgrwt>
</event>
<event>
 4    1  0.4917371E-005  0.5174518E+03  0.7818608E-02  0.1009322E+00
         -2   -1    0    0    0  501 -0.00000000000E+00  0.00000000000E+00  0.36704474376E+02  0.36704474465E+02  0.25500000000E-02 0. -1.
          2   -1    0    0  501    0  0.00000000000E+00 -0.00000000000E+00 -0.18237308634E+04  0.18237308634E+04  0.25500000000E-02 0.  1.
    5000001    1    1    2    0    0 -0.60058228789E+02 -0.15236603317E+03 -0.97515949279E+03  0.10086423723E+04  0.19900000000E+03 0.  0.
   -5000001    1    1    2    0    0  0.60058228789E+02  0.15236603317E+03 -0.81186689622E+03  0.85179296551E+03  0.19900000000E+03 0.  0.
<mgrwt>
<rscale>  0 0.51745177E+03</rscale>
<asrwt>0</asrwt>
<pdfrwt beam="1">  1        2 0.26053292E+00 0.51745177E+03</pdfrwt>
<pdfrwt beam="2">  1       -2 0.52434975E-02 0.51745177E+03</pdfrwt>
<totfact> 0.19420194E+03</totfact>
</mgrwt>
</event>
<event>
 4    1  0.4917371E-005  0.6068277E+03  0.7818608E-02  0.9891341E-01
          2   -1    0    0  501    0  0.00000000000E+00  0.00000000000E+00  0.17105456487E+04  0.17105456487E+04  0.25500000000E-02 0.  1.
         -2   -1    0    0    0  501 -0.00000000000E+00 -0.00000000000E+00 -0.53819060437E+02  0.53819060497E+02  0.25500000000E-02 0. -1.
    5000001    1    1    2    0    0  0.46768855291E+02 -0.21993749523E+03  0.95507028004E+03  0.10011593617E+04  0.19900000000E+03 0.  0.
   -5000001    1    1    2    0    0 -0.46768855291E+02  0.21993749523E+03  0.70165630820E+03  0.76320534751E+03  0.19900000000E+03 0.  0.
<mgrwt>
<rscale>  0 0.60682768E+03</rscale>
<asrwt>0</asrwt>
<pdfrwt beam="1">  1        2 0.24436362E+00 0.60682768E+03</pdfrwt>
<pdfrwt beam="2">  1       -2 0.76884387E-02 0.60682768E+03</pdfrwt>
<totfact> 0.12106109E+03</totfact>
</mgrwt>
</event>
<event>
 4    1  0.4917371E-005  0.4347346E+03  0.7818608E-02  0.1032375E+00
         -2   -1    0    0    0  501 -0.00000000000E+00  0.00000000000E+00  0.14703387793E+03  0.14703387795E+03  0.25500000000E-02 0. -1.
          2   -1    0    0  501    0  0.00000000000E+00 -0.00000000000E+00 -0.32134459607E+03  0.32134459608E+03  0.25500000000E-02 0.  1.
    5000001    1    1    2    0    0 -0.70057337509E+02  0.48907385129E+02 -0.67069072583E+02  0.22671396815E+03  0.19900000000E+03 0.  0.
   -5000001    1    1    2    0    0  0.70057337509E+02 -0.48907385129E+02 -0.10724164555E+03  0.24166450588E+03  0.19900000000E+03 0.  0.
<mgrwt>
<rscale>  0 0.43473460E+03</rscale>
<asrwt>0</asrwt>
<pdfrwt beam="1">  1        2 0.45906371E-01 0.43473460E+03</pdfrwt>
<pdfrwt beam="2">  1       -2 0.21004840E-01 0.43473460E+03</pdfrwt>
<totfact> 0.21405848E+03</totfact>
</mgrwt>
</event>
<event>
 4    1  0.4917371E-005  0.1103817E+04  0.7818608E-02  0.9201480E-01
         -2   -1    0    0    0  501 -0.00000000000E+00  0.00000000000E+00  0.46283766975E+03  0.46283766975E+03  0.25500000000E-02 0. -1.
          2   -1    0    0  501    0  0.00000000000E+00 -0.00000000000E+00 -0.65812036260E+03  0.65812036260E+03  0.25500000000E-02 0.  1.
    5000001    1    1    2    0    0  0.34100872302E+03 -0.38316020231E+03 -0.14194455248E+03  0.56819710118E+03  0.19900000000E+03 0.  0.
   -5000001    1    1    2    0    0 -0.34100872302E+03  0.38316020231E+03 -0.53338140367E+02  0.55276093117E+03  0.19900000000E+03 0.  0.
<mgrwt>
<rscale>  0 0.11038168E+04</rscale>
<asrwt>0</asrwt>
<pdfrwt beam="1">  1        2 0.94017194E-01 0.11038168E+04</pdfrwt>
<pdfrwt beam="2">  1       -2 0.66119667E-01 0.11038168E+04</pdfrwt>
<totfact> 0.10150102E+02</totfact>
</mgrwt>
</event>
<event>
 4    1  0.4917371E-005  0.5051520E+03  0.7818608E-02  0.1012443E+00
         -2   -1    0    0    0  501 -0.00000000000E+00  0.00000000000E+00  0.16238675831E+03  0.16238675833E+03  0.25500000000E-02 0. -1.
          2   -1    0    0  501    0  0.00000000000E+00 -0.00000000000E+00 -0.39285616881E+03  0.39285616882E+03  0.25500000000E-02 0.  1.
    5000001    1    1    2    0    0 -0.23868236633E+02  0.14892461446E+03 -0.15702312093E+03  0.29496693716E+03  0.19900000000E+03 0.  0.
   -5000001    1    1    2    0    0  0.23868236633E+02 -0.14892461446E+03 -0.73446289578E+02  0.26027598999E+03  0.19900000000E+03 0.  0.
<mgrwt>
<rscale>  0 0.50515202E+03</rscale>
<asrwt>0</asrwt>
<pdfrwt beam="1">  1        2 0.56122309E-01 0.50515202E+03</pdfrwt>
<pdfrwt beam="2">  1       -2 0.23198108E-01 0.50515202E+03</pdfrwt>
<totfact> 0.14437704E+03</totfact>
</mgrwt>
</event>
<event>
 4    1  0.4917371E-005  0.4212302E+03  0.7818608E-02  0.1036667E+00
         -2   -1    0    0    0  501 -0.00000000000E+00  0.00000000000E+00  0.57933801382E+02  0.57933801438E+02  0.25500000000E-02 0. -1.
          2   -1    0    0  501    0  0.00000000000E+00 -0.00000000000E+00 -0.76567955819E+03  0.76567955820E+03  0.25500000000E-02 0.  1.
    5000001    1    1    2    0    0  0.40956661645E+02  0.53167977323E+02 -0.32274524080E+03  0.38505814159E+03  0.19900000000E+03 0.  0.
   -5000001    1    1    2    0    0 -0.40956661645E+02 -0.53167977323E+02 -0.38500051601E+03  0.43855521804E+03  0.19900000000E+03 0.  0.
<mgrwt>
<rscale>  0 0.42123023E+03</rscale>
<asrwt>0</asrwt>
<pdfrwt beam="1">  1        2 0.10938279E+00 0.42123023E+03</pdfrwt>
<pdfrwt beam="2">  1       -2 0.82762578E-02 0.42123023E+03</pdfrwt>
<totfact> 0.37133015E+03</totfact>
</mgrwt>
</event>
<event>
 4    1  0.4917371E-005  0.8390314E+03  0.7818608E-02  0.9505178E-01
          2   -1    0    0  501    0  0.00000000000E+00  0.00000000000E+00  0.15238607782E+04  0.15238607782E+04  0.25500000000E-02 0.  1.
         -2   -1    0    0    0  501 -0.00000000000E+00 -0.00000000000E+00 -0.11549179933E+03  0.11549179936E+03  0.25500000000E-02 0. -1.
    5000001    1    1    2    0    0  0.11942370142E+03 -0.31376424060E+03  0.10048662236E+04  0.10779921829E+04  0.19900000000E+03 0.  0.
   -5000001    1    1    2    0    0 -0.11942370142E+03  0.31376424060E+03  0.40350275529E+03  0.56136039464E+03  0.19900000000E+03 0.  0.
<mgrwt>
<rscale>  0 0.83903140E+03</rscale>
<asrwt>0</asrwt>
<pdfrwt beam="1">  1        2 0.21769438E+00 0.83903140E+03</pdfrwt>
<pdfrwt beam="2">  1       -2 0.16498829E-01 0.83903140E+03</pdfrwt>
<totfact> 0.42533608E+02</totfact>
</mgrwt>
</event>
<event>
 4    1  0.4917371E-005  0.1152080E+04  0.7818608E-02  0.9155866E-01
          2   -1    0    0  501    0  0.00000000000E+00  0.00000000000E+00  0.13703694854E+04  0.13703694854E+04  0.25500000000E-02 0. -1.
         -2   -1    0    0    0  501 -0.00000000000E+00 -0.00000000000E+00 -0.24214072746E+03  0.24214072748E+03  0.25500000000E-02 0.  1.
    5000001    1    1    2    0    0  0.43530738769E+03 -0.18223241709E+03  0.19507316074E+03  0.54804718196E+03  0.19900000000E+03 0.  0.
   -5000001    1    1    2    0    0 -0.43530738769E+03  0.18223241709E+03  0.93315559717E+03  0.10644630309E+04  0.19900000000E+03 0.  0.
<mgrwt>
<rscale>  0 0.11520803E+04</rscale>
<asrwt>0</asrwt>
<pdfrwt beam="1">  1        2 0.19576707E+00 0.11520803E+04</pdfrwt>
<pdfrwt beam="2">  1       -2 0.34591533E-01 0.11520803E+04</pdfrwt>
<totfact> 0.13297991E+02</totfact>
</mgrwt>
</event>
<event>
 4    1  0.4917371E-005  0.6439760E+03  0.7818608E-02  0.9818149E-01
          2   -1    0    0  501    0  0.00000000000E+00  0.00000000000E+00  0.95606820982E+03  0.95606820983E+03  0.25500000000E-02 0.  1.
         -2   -1    0    0    0  501 -0.00000000000E+00 -0.00000000000E+00 -0.10844025376E+03  0.10844025379E+03  0.25500000000E-02 0. -1.
    5000001    1    1    2    0    0  0.15899203891E+03 -0.62343226335E+02  0.73266935978E+03  0.77818412800E+03  0.19900000000E+03 0.  0.
   -5000001    1    1    2    0    0 -0.15899203891E+03  0.62343226335E+02  0.11495859628E+03  0.28632433562E+03  0.19900000000E+03 0.  0.
<mgrwt>
<rscale>  0 0.64397602E+03</rscale>
<asrwt>0</asrwt>
<pdfrwt beam="1">  1        2 0.13658117E+00 0.64397602E+03</pdfrwt>
<pdfrwt beam="2">  1       -2 0.15491465E-01 0.64397602E+03</pdfrwt>
<totfact> 0.99670687E+02</totfact>
</mgrwt>
</event>
<event>
 4    1  0.4917371E-005  0.1094264E+04  0.7818608E-02  0.9210800E-01
         -2   -1    0    0    0  501 -0.00000000000E+00  0.00000000000E+00  0.44719956856E+03  0.44719956857E+03  0.25500000000E-02 0. -1.
          2   -1    0    0  501    0  0.00000000000E+00 -0.00000000000E+00 -0.66939601003E+03  0.66939601004E+03  0.25500000000E-02 0.  1.
    5000001    1    1    2    0    0 -0.47944560952E+03 -0.35543589688E+01  0.65263750869E+02  0.52320271706E+03  0.19900000000E+03 0.  0.
   -5000001    1    1    2    0    0  0.47944560952E+03  0.35543589688E+01 -0.28746019234E+03  0.59339286155E+03  0.19900000000E+03 0.  0.
<mgrwt>
<rscale>  0 0.10942643E+04</rscale>
<asrwt>0</asrwt>
<pdfrwt beam="1">  1        2 0.95628002E-01 0.10942643E+04</pdfrwt>
<pdfrwt beam="2">  1       -2 0.63885653E-01 0.10942643E+04</pdfrwt>
<totfact> 0.10710269E+02</totfact>
</mgrwt>
</event>
<event>
 4    1  0.4917371E-005  0.5339130E+03  0.7818608E-02  0.1005288E+00
          2   -1    0    0  501    0  0.00000000000E+00  0.00000000000E+00  0.91365949968E+03  0.91365949968E+03  0.25500000000E-02 0.  1.
         -2   -1    0    0    0  501 -0.00000000000E+00 -0.00000000000E+00 -0.78000356004E+02  0.78000356046E+02  0.25500000000E-02 0. -1.
    5000001    1    1    2    0    0 -0.53854001558E+01 -0.17771517211E+03  0.43136160831E+03  0.50723320283E+03  0.19900000000E+03 0.  0.
   -5000001    1    1    2    0    0  0.53854001558E+01  0.17771517211E+03  0.40429753537E+03  0.48442665290E+03  0.19900000000E+03 0.  0.
<mgrwt>
<rscale>  0 0.53391298E+03</rscale>
<asrwt>0</asrwt>
<pdfrwt beam="1">  1        2 0.13052278E+00 0.53391298E+03</pdfrwt>
<pdfrwt beam="2">  1       -2 0.11142908E-01 0.53391298E+03</pdfrwt>
<totfact> 0.18354645E+03</totfact>
</mgrwt>
</event>
<event>
 4    1  0.4917371E-005  0.6726528E+03  0.7818608E-02  0.9765177E-01
          2   -1    0    0  501    0  0.00000000000E+00  0.00000000000E+00  0.31572259484E+03  0.31572259485E+03  0.25500000000E-02 0.  1.
         -2   -1    0    0    0  501 -0.00000000000E+00 -0.00000000000E+00 -0.35827481524E+03  0.35827481525E+03  0.25500000000E-02 0. -1.
    5000001    1    1    2    0    0  0.11823826034E+03  0.23147351211E+03  0.56041476120E+02  0.33211732876E+03  0.19900000000E+03 0.  0.
   -5000001    1    1    2    0    0 -0.11823826034E+03 -0.23147351211E+03 -0.98593696521E+02  0.34188008133E+03  0.19900000000E+03 0.  0.
<mgrwt>
<rscale>  0 0.67265282E+03</rscale>
<asrwt>0</asrwt>
<pdfrwt beam="1">  1        2 0.45103228E-01 0.67265282E+03</pdfrwt>
<pdfrwt beam="2">  1       -2 0.51182116E-01 0.67265282E+03</pdfrwt>
<totfact> 0.40979788E+02</totfact>
</mgrwt>
</event>
<event>
 4    1  0.4917371E-005  0.5964272E+03  0.7818608E-02  0.9912846E-01
         -2   -1    0    0    0  501 -0.00000000000E+00  0.00000000000E+00  0.53778617357E+02  0.53778617417E+02  0.25500000000E-02 0. -1.
          2   -1    0    0  501    0  0.00000000000E+00 -0.00000000000E+00 -0.16536562732E+04  0.16536562732E+04  0.25500000000E-02 0.  1.
    5000001    1    1    2    0    0  0.22065981281E+03 -0.23344977907E+02 -0.82778390431E+03  0.87980846394E+03  0.19900000000E+03 0.  0.
   -5000001    1    1    2    0    0 -0.22065981281E+03  0.23344977907E+02 -0.77209375153E+03  0.82762642667E+03  0.19900000000E+03 0.  0.
<mgrwt>
<rscale>  0 0.59642719E+03</rscale>
<asrwt>0</asrwt>
<pdfrwt beam="1">  1        2 0.23623658E+00 0.59642719E+03</pdfrwt>
<pdfrwt beam="2">  1       -2 0.76826607E-02 0.59642719E+03</pdfrwt>
<totfact> 0.12962915E+03</totfact>
</mgrwt>
</event>
<event>
 4    1  0.4917371E-005  0.9591497E+03  0.7818608E-02  0.9354519E-01
         -2   -1    0    0    0  501 -0.00000000000E+00  0.00000000000E+00  0.67769099335E+02  0.67769099383E+02  0.25500000000E-02 0. -1.
          2   -1    0    0  501    0  0.00000000000E+00 -0.00000000000E+00 -0.33937598066E+04  0.33937598066E+04  0.25500000000E-02 0.  1.
    5000001    1    1    2    0    0  0.15250458307E+03 -0.39024576050E+03 -0.21026610328E+04  0.21532147641E+04  0.19900000000E+03 0.  0.
   -5000001    1    1    2    0    0 -0.15250458307E+03  0.39024576050E+03 -0.12233296745E+04  0.13083141419E+04  0.19900000000E+03 0.  0.
<mgrwt>
<rscale>  0 0.95914972E+03</rscale>
<asrwt>0</asrwt>
<pdfrwt beam="1">  1        2 0.48482272E+00 0.95914972E+03</pdfrwt>
<pdfrwt beam="2">  1       -2 0.96813020E-02 0.95914972E+03</pdfrwt>
<totfact> 0.10453885E+02</totfact>
</mgrwt>
</event>
<event>
 4    1  0.4917371E-005  0.7217642E+03  0.7818608E-02  0.9680720E-01
         -2   -1    0    0    0  501 -0.00000000000E+00  0.00000000000E+00  0.30458409980E+03  0.30458409981E+03  0.25500000000E-02 0.  1.
          2   -1    0    0  501    0  0.00000000000E+00 -0.00000000000E+00 -0.42758595455E+03  0.42758595456E+03  0.25500000000E-02 0. -1.
    5000001    1    1    2    0    0  0.10321357829E+03  0.28249843295E+03 -0.74976868164E+02  0.36834893528E+03  0.19900000000E+03 0.  0.
   -5000001    1    1    2    0    0 -0.10321357829E+03 -0.28249843295E+03 -0.48024986579E+02  0.36382111909E+03  0.19900000000E+03 0.  0.
<mgrwt>
<rscale>  0 0.72176418E+03</rscale>
<asrwt>0</asrwt>
<pdfrwt beam="1">  1        2 0.61083708E-01 0.72176418E+03</pdfrwt>
<pdfrwt beam="2">  1       -2 0.43512014E-01 0.72176418E+03</pdfrwt>
<totfact> 0.40463662E+02</totfact>
</mgrwt>
</event>
<event>
 4    1  0.4917371E-005  0.5649604E+03  0.7818608E-02  0.9980893E-01
          2   -1    0    0  501    0  0.00000000000E+00  0.00000000000E+00  0.74111637181E+03  0.74111637182E+03  0.25500000000E-02 0.  1.
         -2   -1    0    0    0  501 -0.00000000000E+00 -0.00000000000E+00 -0.10766874762E+03  0.10766874765E+03  0.25500000000E-02 0. -1.
    5000001    1    1    2    0    0 -0.83116121737E+02 -0.18134047377E+03  0.34682448803E+03  0.44685666899E+03  0.19900000000E+03 0.  0.
   -5000001    1    1    2    0    0  0.83116121737E+02  0.18134047377E+03  0.28662313617E+03  0.40192845048E+03  0.19900000000E+03 0.  0.
<mgrwt>
<rscale>  0 0.56496043E+03</rscale>
<asrwt>0</asrwt>
<pdfrwt beam="1">  1        2 0.10587377E+00 0.56496043E+03</pdfrwt>
<pdfrwt beam="2">  1       -2 0.15381249E-01 0.56496043E+03</pdfrwt>
<totfact> 0.14084014E+03</totfact>
</mgrwt>
</event>
<event>
 4    1  0.4917371E-005  0.4774979E+03  0.7818608E-02  0.1019825E+00
          2   -1    0    0  501    0  0.00000000000E+00  0.00000000000E+00  0.15650859737E+03  0.15650859739E+03  0.25500000000E-02 0.  1.
         -2   -1    0    0    0  501 -0.00000000000E+00 -0.00000000000E+00 -0.36420399043E+03  0.36420399044E+03  0.25500000000E-02 0. -1.
    5000001    1    1    2    0    0 -0.10557623589E+03  0.66848030216E+02 -0.57774066605E+02  0.24197901459E+03  0.19900000000E+03 0.  0.
   -5000001    1    1    2    0    0  0.10557623589E+03 -0.66848030216E+02 -0.14992132645E+03  0.27873357325E+03  0.19900000000E+03 0.  0.
<mgrwt>
<rscale>  0 0.47749788E+03</rscale>
<asrwt>0</asrwt>
<pdfrwt beam="1">  1        2 0.22358371E-01 0.47749788E+03</pdfrwt>
<pdfrwt beam="2">  1       -2 0.52029141E-01 0.47749788E+03</pdfrwt>
<totfact> 0.87261636E+02</totfact>
</mgrwt>
</event>
<event>
 4    1  0.4917371E-005  0.4363121E+03  0.7818608E-02  0.1031884E+00
          2   -1    0    0  501    0  0.00000000000E+00  0.00000000000E+00  0.17149319611E+04  0.17149319611E+04  0.25500000000E-02 0.  1.
         -2   -1    0    0    0  501 -0.00000000000E+00 -0.00000000000E+00 -0.27751580712E+02  0.27751580829E+02  0.25500000000E-02 0. -1.
    5000001    1    1    2    0    0  0.52708998101E+02 -0.35856387219E+02  0.10938898052E+04  0.11136695313E+04  0.19900000000E+03 0.  0.
   -5000001    1    1    2    0    0 -0.52708998101E+02  0.35856387219E+02  0.59329057519E+03  0.62901401065E+03  0.19900000000E+03 0.  0.
<mgrwt>
<rscale>  0 0.43631215E+03</rscale>
<asrwt>0</asrwt>
<pdfrwt beam="1">  1        2 0.24499034E+00 0.43631215E+03</pdfrwt>
<pdfrwt beam="2">  1       -2 0.39645105E-02 0.43631215E+03</pdfrwt>
<totfact> 0.33911188E+03</totfact>
</mgrwt>
</event>
<event>
 4    1  0.4917371E-005  0.5267787E+03  0.7818608E-02  0.1007016E+00
         -2   -1    0    0    0  501 -0.00000000000E+00  0.00000000000E+00  0.29967665656E+02  0.29967665764E+02  0.25500000000E-02 0. -1.
          2   -1    0    0  501    0  0.00000000000E+00 -0.00000000000E+00 -0.23149597147E+04  0.23149597147E+04  0.25500000000E-02 0.  1.
    5000001    1    1    2    0    0  0.44928042741E+02 -0.14364728918E+03 -0.15181060192E+04  0.15384732556E+04  0.19900000000E+03 0.  0.
   -5000001    1    1    2    0    0 -0.44928042741E+02  0.14364728918E+03 -0.76688602981E+03  0.80645412482E+03  0.19900000000E+03 0.  0.
<mgrwt>
<rscale>  0 0.52677866E+03</rscale>
<asrwt>0</asrwt>
<pdfrwt beam="1">  1        2 0.33070842E+00 0.52677866E+03</pdfrwt>
<pdfrwt beam="2">  1       -2 0.42810966E-02 0.52677866E+03</pdfrwt>
<totfact> 0.15062002E+03</totfact>
</mgrwt>
</event>
<event>
 4    1  0.4917371E-005  0.5320607E+03  0.7818608E-02  0.1005734E+00
          2   -1    0    0  501    0  0.00000000000E+00  0.00000000000E+00  0.30075021734E+04  0.30075021734E+04  0.25500000000E-02 0.  1.
         -2   -1    0    0    0  501 -0.00000000000E+00 -0.00000000000E+00 -0.23531867938E+02  0.23531868077E+02  0.25500000000E-02 0. -1.
    5000001    1    1    2    0    0  0.17274335784E+03  0.34064487596E+02  0.14176018409E+04  0.14422886800E+04  0.19900000000E+03 0.  0.
   -5000001    1    1    2    0    0 -0.17274335784E+03 -0.34064487596E+02  0.15663684645E+04  0.15887453615E+04  0.19900000000E+03 0.  0.
<mgrwt>
<rscale>  0 0.53206069E+03</rscale>
<asrwt>0</asrwt>
<pdfrwt beam="1">  1        2 0.42964309E+00 0.53206069E+03</pdfrwt>
<pdfrwt beam="2">  1       -2 0.33616960E-02 0.53206069E+03</pdfrwt>
<totfact> 0.95007795E+02</totfact>
</mgrwt>
</event>
<event>
 4    1  0.4917371E-005  0.5661883E+03  0.7818608E-02  0.9978149E-01
         -2   -1    0    0    0  501 -0.00000000000E+00  0.00000000000E+00  0.46501144104E+02  0.46501144174E+02  0.25500000000E-02 0. -1.
          2   -1    0    0  501    0  0.00000000000E+00 -0.00000000000E+00 -0.17234481122E+04  0.17234481122E+04  0.25500000000E-02 0.  1.
    5000001    1    1    2    0    0 -0.18389012622E+03  0.77896926139E+02 -0.75829706564E+03  0.80901109349E+03  0.19900000000E+03 0.  0.
   -5000001    1    1    2    0    0  0.18389012622E+03 -0.77896926139E+02 -0.91864990248E+03  0.96093816292E+03  0.19900000000E+03 0.  0.
<mgrwt>
<rscale>  0 0.56618834E+03</rscale>
<asrwt>0</asrwt>
<pdfrwt beam="1">  1        2 0.24620683E+00 0.56618834E+03</pdfrwt>
<pdfrwt beam="2">  1       -2 0.66430217E-02 0.56618834E+03</pdfrwt>
<totfact> 0.15051803E+03</totfact>
</mgrwt>
</event>
<event>
 4    1  0.4917371E-005  0.5107498E+03  0.7818608E-02  0.1011011E+00
          2   -1    0    0  501    0  0.00000000000E+00  0.00000000000E+00  0.10832610950E+04  0.10832610950E+04  0.25500000000E-02 0.  1.
         -2   -1    0    0    0  501 -0.00000000000E+00 -0.00000000000E+00 -0.60203718967E+02  0.60203719021E+02  0.25500000000E-02 0. -1.
    5000001    1    1    2    0    0 -0.13744134965E+03 -0.81343729864E+02  0.48821728326E+03  0.55087570527E+03  0.19900000000E+03 0.  0.
   -5000001    1    1    2    0    0  0.13744134965E+03  0.81343729864E+02  0.53484009281E+03  0.59258910880E+03  0.19900000000E+03 0.  0.
<mgrwt>
<rscale>  0 0.51074983E+03</rscale>
<asrwt>0</asrwt>
<pdfrwt beam="1">  1        2 0.15475158E+00 0.51074983E+03</pdfrwt>
<pdfrwt beam="2">  1       -2 0.86005318E-02 0.51074983E+03</pdfrwt>
<totfact> 0.21988524E+03</totfact>
</mgrwt>
</event>
<event>
 4    1  0.4917371E-005  0.7685697E+03  0.7818608E-02  0.9606660E-01
          2   -1    0    0  501    0  0.00000000000E+00  0.00000000000E+00  0.12784686692E+04  0.12784686692E+04  0.25500000000E-02 0.  1.
         -2   -1    0    0    0  501 -0.00000000000E+00 -0.00000000000E+00 -0.11550915258E+03  0.11550915261E+03  0.25500000000E-02 0. -1.
    5000001    1    1    2    0    0 -0.24156531955E+03  0.22071605714E+03  0.52399707565E+03  0.64903260071E+03  0.19900000000E+03 0.  0.
   -5000001    1    1    2    0    0  0.24156531955E+03 -0.22071605714E+03  0.63896244100E+03  0.74494522114E+03  0.19900000000E+03 0.  0.
<mgrwt>
<rscale>  0 0.76856967E+03</rscale>
<asrwt>0</asrwt>
<pdfrwt beam="1">  1        2 0.18263837E+00 0.76856967E+03</pdfrwt>
<pdfrwt beam="2">  1       -2 0.16501309E-01 0.76856967E+03</pdfrwt>
<totfact> 0.57794959E+02</totfact>
</mgrwt>
</event>
<event>
 4    1  0.4917371E-005  0.4685566E+03  0.7818608E-02  0.1022328E+00
          2   -1    0    0  501    0  0.00000000000E+00  0.00000000000E+00  0.89700956462E+03  0.89700956462E+03  0.25500000000E-02 0.  1.
         -2   -1    0    0    0  501 -0.00000000000E+00 -0.00000000000E+00 -0.61188107521E+02  0.61188107574E+02  0.25500000000E-02 0. -1.
    5000001    1    1    2    0    0  0.40120226413E+02 -0.11620008065E+03  0.39099537351E+03  0.45562097561E+03  0.19900000000E+03 0.  0.
   -5000001    1    1    2    0    0 -0.40120226413E+02  0.11620008065E+03  0.44482608358E+03  0.50257669658E+03  0.19900000000E+03 0.  0.
<mgrwt>
<rscale>  0 0.46855658E+03</rscale>
<asrwt>0</asrwt>
<pdfrwt beam="1">  1        2 0.12814422E+00 0.46855658E+03</pdfrwt>
<pdfrwt beam="2">  1       -2 0.87411583E-02 0.46855658E+03</pdfrwt>
<totfact> 0.27821874E+03</totfact>
</mgrwt>
</event>
<event>
 4    1  0.4917371E-005  0.6283085E+03  0.7818608E-02  0.9848355E-01
         -2   -1    0    0    0  501 -0.00000000000E+00  0.00000000000E+00  0.55585090275E+02  0.55585090334E+02  0.25500000000E-02 0. -1.
          2   -1    0    0  501    0  0.00000000000E+00 -0.00000000000E+00 -0.17755283898E+04  0.17755283898E+04  0.25500000000E-02 0.  1.
    5000001    1    1    2    0    0  0.23210517574E+03  0.22323936553E+02 -0.65973336639E+03  0.72747528170E+03  0.19900000000E+03 0.  0.
   -5000001    1    1    2    0    0 -0.23210517574E+03 -0.22323936553E+02 -0.10602099332E+04  0.11036381985E+04  0.19900000000E+03 0.  0.
<mgrwt>
<rscale>  0 0.62830854E+03</rscale>
<asrwt>0</asrwt>
<pdfrwt beam="1">  1        2 0.25364688E+00 0.62830854E+03</pdfrwt>
<pdfrwt beam="2">  1       -2 0.79407283E-02 0.62830854E+03</pdfrwt>
<totfact> 0.10648054E+03</totfact>
</mgrwt>
</event>
<event>
 4    1  0.4917371E-005  0.5980684E+03  0.7818608E-02  0.9909422E-01
         -2   -1    0    0    0  501 -0.00000000000E+00  0.00000000000E+00  0.49884405124E+02  0.49884405189E+02  0.25500000000E-02 0. -1.
          2   -1    0    0  501    0  0.00000000000E+00 -0.00000000000E+00 -0.17925735963E+04  0.17925735963E+04  0.25500000000E-02 0.  1.
    5000001    1    1    2    0    0  0.71812229564E+02 -0.19891010317E+03 -0.65137789934E+03  0.71317346642E+03  0.19900000000E+03 0.  0.
   -5000001    1    1    2    0    0 -0.71812229564E+02  0.19891010317E+03 -0.10913112919E+04  0.11292845351E+04  0.19900000000E+03 0.  0.
<mgrwt>
<rscale>  0 0.59806845E+03</rscale>
<asrwt>0</asrwt>
<pdfrwt beam="1">  1        2 0.25608190E+00 0.59806845E+03</pdfrwt>
<pdfrwt beam="2">  1       -2 0.71263447E-02 0.59806845E+03</pdfrwt>
<totfact> 0.12413733E+03</totfact>
</mgrwt>
</event>
<event>
 4    1  0.4917371E-005  0.6245101E+03  0.7818608E-02  0.9855821E-01
          2   -1    0    0  501    0  0.00000000000E+00  0.00000000000E+00  0.40227241592E+04  0.40227241592E+04  0.25500000000E-02 0.  1.
         -2   -1    0    0    0  501 -0.00000000000E+00 -0.00000000000E+00 -0.24238103564E+02  0.24238103698E+02  0.25500000000E-02 0. -1.
    5000001    1    1    2    0    0  0.44721905291E+02 -0.22263801365E+03  0.14834863101E+04  0.15139023635E+04  0.19900000000E+03 0.  0.
   -5000001    1    1    2    0    0 -0.44721905291E+02  0.22263801365E+03  0.25149997456E+04  0.25330598995E+04  0.19900000000E+03 0.  0.
<mgrwt>
<rscale>  0 0.62451006E+03</rscale>
<asrwt>0</asrwt>
<pdfrwt beam="1">  1        2 0.57467503E+00 0.62451006E+03</pdfrwt>
<pdfrwt beam="2">  1       -2 0.34625853E-02 0.62451006E+03</pdfrwt>
<totfact> 0.22141431E+02</totfact>
</mgrwt>
</event>
<event>
 4    1  0.4917371E-005  0.4872212E+03  0.7818608E-02  0.1017169E+00
          2   -1    0    0  501    0  0.00000000000E+00  0.00000000000E+00  0.16170731886E+03  0.16170731888E+03  0.25500000000E-02 0.  1.
         -2   -1    0    0    0  501 -0.00000000000E+00 -0.00000000000E+00 -0.36699708635E+03  0.36699708636E+03  0.25500000000E-02 0. -1.
    5000001    1    1    2    0    0  0.36504408391E+02  0.11842057282E+03 -0.17453597363E+03  0.29226667616E+03  0.19900000000E+03 0.  0.
   -5000001    1    1    2    0    0 -0.36504408391E+02 -0.11842057282E+03 -0.30753793860E+02  0.23643772909E+03  0.19900000000E+03 0.  0.
<mgrwt>
<rscale>  0 0.48722116E+03</rscale>
<asrwt>0</asrwt>
<pdfrwt beam="1">  1        2 0.23101046E-01 0.48722116E+03</pdfrwt>
<pdfrwt beam="2">  1       -2 0.52428155E-01 0.48722116E+03</pdfrwt>
<totfact> 0.82754421E+02</totfact>
</mgrwt>
</event>
<event>
 4    1  0.4917371E-005  0.4694964E+03  0.7818608E-02  0.1022062E+00
         -2   -1    0    0    0  501 -0.00000000000E+00  0.00000000000E+00  0.83653031397E+02  0.83653031436E+02  0.25500000000E-02 0. -1.
          2   -1    0    0  501    0  0.00000000000E+00 -0.00000000000E+00 -0.65875333413E+03  0.65875333414E+03  0.25500000000E-02 0.  1.
    5000001    1    1    2    0    0  0.95294645545E+02 -0.26266292291E+02 -0.16780284190E+03  0.27844170185E+03  0.19900000000E+03 0.  0.
   -5000001    1    1    2    0    0 -0.95294645545E+02  0.26266292291E+02 -0.40729746084E+03  0.46396466372E+03  0.19900000000E+03 0.  0.
<mgrwt>
<rscale>  0 0.46949638E+03</rscale>
<asrwt>0</asrwt>
<pdfrwt beam="1">  1        2 0.94107616E-01 0.46949638E+03</pdfrwt>
<pdfrwt beam="2">  1       -2 0.11950433E-01 0.46949638E+03</pdfrwt>
<totfact> 0.24712767E+03</totfact>
</mgrwt>
</event>
<event>
 4    1  0.4917371E-005  0.5979358E+03  0.7818608E-02  0.9909698E-01
          2   -1    0    0  501    0  0.00000000000E+00  0.00000000000E+00  0.95523257322E+03  0.95523257322E+03  0.25500000000E-02 0.  1.
         -2   -1    0    0    0  501 -0.00000000000E+00 -0.00000000000E+00 -0.93570720540E+02  0.93570720575E+02  0.25500000000E-02 0. -1.
    5000001    1    1    2    0    0 -0.21698585672E+03 -0.29094376799E+02  0.35535714212E+03  0.46239489966E+03  0.19900000000E+03 0.  0.
   -5000001    1    1    2    0    0  0.21698585672E+03  0.29094376799E+02  0.50630471056E+03  0.58640839414E+03  0.19900000000E+03 0.  0.
<mgrwt>
<rscale>  0 0.59793578E+03</rscale>
<asrwt>0</asrwt>
<pdfrwt beam="1">  1        2 0.13646179E+00 0.59793578E+03</pdfrwt>
<pdfrwt beam="2">  1       -2 0.13367246E-01 0.59793578E+03</pdfrwt>
<totfact> 0.12793470E+03</totfact>
</mgrwt>
</event>
<event>
 4    1  0.4917371E-005  0.8833819E+03  0.7818608E-02  0.9446597E-01
          2   -1    0    0  501    0  0.00000000000E+00  0.00000000000E+00  0.84192430101E+03  0.84192430101E+03  0.25500000000E-02 0.  1.
         -2   -1    0    0    0  501 -0.00000000000E+00 -0.00000000000E+00 -0.23172021311E+03  0.23172021313E+03  0.25500000000E-02 0. -1.
    5000001    1    1    2    0    0 -0.27094958212E+03  0.28500493000E+03  0.34050262488E+03  0.55694211882E+03  0.19900000000E+03 0.  0.
   -5000001    1    1    2    0    0  0.27094958212E+03 -0.28500493000E+03  0.26970146302E+03  0.51670239532E+03  0.19900000000E+03 0.  0.
<mgrwt>
<rscale>  0 0.88338186E+03</rscale>
<asrwt>0</asrwt>
<pdfrwt beam="1">  1        2 0.12027490E+00 0.88338186E+03</pdfrwt>
<pdfrwt beam="2">  1       -2 0.33102887E-01 0.88338186E+03</pdfrwt>
<totfact> 0.30313006E+02</totfact>
</mgrwt>
</event>
<event>
 4    1  0.4917371E-005  0.7219669E+03  0.7818608E-02  0.9680386E-01
          2   -1    0    0  501    0  0.00000000000E+00  0.00000000000E+00  0.10189090588E+04  0.10189090588E+04  0.25500000000E-02 0.  1.
         -2   -1    0    0    0  501 -0.00000000000E+00 -0.00000000000E+00 -0.12789074341E+03  0.12789074344E+03  0.25500000000E-02 0. -1.
    5000001    1    1    2    0    0 -0.56748597683E+02 -0.29576236301E+03  0.45107057483E+03  0.57772090337E+03  0.19900000000E+03 0.  0.
   -5000001    1    1    2    0    0  0.56748597683E+02  0.29576236301E+03  0.43994774054E+03  0.56907889885E+03  0.19900000000E+03 0.  0.
<mgrwt>
<rscale>  0 0.72196686E+03</rscale>
<asrwt>0</asrwt>
<pdfrwt beam="1">  1        2 0.14555844E+00 0.72196686E+03</pdfrwt>
<pdfrwt beam="2">  1       -2 0.18270105E-01 0.72196686E+03</pdfrwt>
<totfact> 0.68605689E+02</totfact>
</mgrwt>
</event>
<event>
 4    1  0.4917371E-005  0.5789890E+03  0.7818608E-02  0.9949982E-01
          2   -1    0    0  501    0  0.00000000000E+00  0.00000000000E+00  0.13718326824E+04  0.13718326824E+04  0.25500000000E-02 0.  1.
         -2   -1    0    0    0  501 -0.00000000000E+00 -0.00000000000E+00 -0.61091314317E+02  0.61091314370E+02  0.25500000000E-02 0. -1.
    5000001    1    1    2    0    0 -0.79051225082E+02  0.19363792121E+03  0.70852694500E+03  0.76508572886E+03  0.19900000000E+03 0.  0.
   -5000001    1    1    2    0    0  0.79051225082E+02 -0.19363792121E+03  0.60221442307E+03  0.66783826790E+03  0.19900000000E+03 0.  0.
<mgrwt>
<rscale>  0 0.57898899E+03</rscale>
<asrwt>0</asrwt>
<pdfrwt beam="1">  1        2 0.19597607E+00 0.57898899E+03</pdfrwt>
<pdfrwt beam="2">  1       -2 0.87273318E-02 0.57898899E+03</pdfrwt>
<totfact> 0.14836508E+03</totfact>
</mgrwt>
</event>
<event>
 4    1  0.4917371E-005  0.7414467E+03  0.7818608E-02  0.9648866E-01
          2   -1    0    0  501    0  0.00000000000E+00  0.00000000000E+00  0.11714175734E+04  0.11714175734E+04  0.25500000000E-02 0.  1.
         -2   -1    0    0    0  501 -0.00000000000E+00 -0.00000000000E+00 -0.11732433462E+03  0.11732433465E+03  0.25500000000E-02 0. -1.
    5000001    1    1    2    0    0  0.21979534488E+03 -0.15592857490E+03  0.80302922188E+03  0.87010381294E+03  0.19900000000E+03 0.  0.
   -5000001    1    1    2    0    0 -0.21979534488E+03  0.15592857490E+03  0.25106401690E+03  0.41863809512E+03  0.19900000000E+03 0.  0.
<mgrwt>
<rscale>  0 0.74144666E+03</rscale>
<asrwt>0</asrwt>
<pdfrwt beam="1">  1        2 0.16734538E+00 0.74144666E+03</pdfrwt>
<pdfrwt beam="2">  1       -2 0.16760618E-01 0.74144666E+03</pdfrwt>
<totfact> 0.64686090E+02</totfact>
</mgrwt>
</event>
<event>
 4    1  0.4917371E-005  0.5782613E+03  0.7818608E-02  0.9951562E-01
         -2   -1    0    0    0  501 -0.00000000000E+00  0.00000000000E+00  0.22059867766E+03  0.22059867767E+03  0.25500000000E-02 0. -1.
          2   -1    0    0  501    0  0.00000000000E+00 -0.00000000000E+00 -0.37895294639E+03  0.37895294640E+03  0.25500000000E-02 0.  1.
    5000001    1    1    2    0    0  0.13472690088E+03  0.61748503657E+02 -0.23307145288E+03  0.34042255752E+03  0.19900000000E+03 0.  0.
   -5000001    1    1    2    0    0 -0.13472690088E+03 -0.61748503657E+02  0.74717184144E+02  0.25912906655E+03  0.19900000000E+03 0.  0.
<mgrwt>
<rscale>  0 0.57826125E+03</rscale>
<asrwt>0</asrwt>
<pdfrwt beam="1">  1        2 0.54136134E-01 0.57826125E+03</pdfrwt>
<pdfrwt beam="2">  1       -2 0.31514097E-01 0.57826125E+03</pdfrwt>
<totfact> 0.86177730E+02</totfact>
</mgrwt>
</event>
<event>
 4    1  0.4917371E-005  0.4804902E+03  0.7818608E-02  0.1019001E+00
          2   -1    0    0  501    0  0.00000000000E+00  0.00000000000E+00  0.41010977320E+03  0.41010977321E+03  0.25500000000E-02 0.  1.
         -2   -1    0    0    0  501 -0.00000000000E+00 -0.00000000000E+00 -0.14073722354E+03  0.14073722356E+03  0.25500000000E-02 0. -1.
    5000001    1    1    2    0    0  0.76056840267E+02  0.65276793909E+02  0.23767989694E+03  0.32578894423E+03  0.19900000000E+03 0.  0.
   -5000001    1    1    2    0    0 -0.76056840267E+02 -0.65276793909E+02  0.31692652727E+02  0.22505805254E+03  0.19900000000E+03 0.  0.
<mgrwt>
<rscale>  0 0.48049021E+03</rscale>
<asrwt>0</asrwt>
<pdfrwt beam="1">  1        2 0.58587110E-01 0.48049021E+03</pdfrwt>
<pdfrwt beam="2">  1       -2 0.20105318E-01 0.48049021E+03</pdfrwt>
<totfact> 0.17686470E+03</totfact>
</mgrwt>
</event>
<event>
 4    1  0.4917371E-005  0.8578686E+03  0.7818608E-02  0.9479836E-01
          2   -1    0    0  501    0  0.00000000000E+00  0.00000000000E+00  0.13851267834E+04  0.13851267834E+04  0.25500000000E-02 0.  1.
         -2   -1    0    0    0  501 -0.00000000000E+00 -0.00000000000E+00 -0.13282872248E+03  0.13282872250E+03  0.25500000000E-02 0. -1.
    5000001    1    1    2    0    0  0.36089273087E+03  0.33767681994E+02  0.42440223433E+03  0.59253867051E+03  0.19900000000E+03 0.  0.
   -5000001    1    1    2    0    0 -0.36089273087E+03 -0.33767681994E+02  0.82789582655E+03  0.92541683536E+03  0.19900000000E+03 0.  0.
<mgrwt>
<rscale>  0 0.85786857E+03</rscale>
<asrwt>0</asrwt>
<pdfrwt beam="1">  1        2 0.19787525E+00 0.85786857E+03</pdfrwt>
<pdfrwt beam="2">  1       -2 0.18975532E-01 0.85786857E+03</pdfrwt>
<totfact> 0.39561075E+02</totfact>
</mgrwt>
</event>
<event>
 4    1  0.4917371E-005  0.5301075E+03  0.7818608E-02  0.1006206E+00
         -2   -1    0    0    0  501 -0.00000000000E+00  0.00000000000E+00  0.15128545710E+02  0.15128545925E+02  0.25500000000E-02 0. -1.
          2   -1    0    0  501    0  0.00000000000E+00 -0.00000000000E+00 -0.46437710010E+04  0.46437710010E+04  0.25500000000E-02 0.  1.
    5000001    1    1    2    0    0  0.13499915510E+03 -0.72627297316E+02 -0.30576204192E+04  0.30679216294E+04  0.19900000000E+03 0.  0.
   -5000001    1    1    2    0    0 -0.13499915510E+03  0.72627297316E+02 -0.15710220360E+04  0.15909779175E+04  0.19900000000E+03 0.  0.
<mgrwt>
<rscale>  0 0.53010755E+03</rscale>
<asrwt>0</asrwt>
<pdfrwt beam="1">  1        2 0.66339495E+00 0.53010755E+03</pdfrwt>
<pdfrwt beam="2">  1       -2 0.21612238E-02 0.53010755E+03</pdfrwt>
<totfact> 0.16037916E+02</totfact>
</mgrwt>
</event>
<event>
 4    1  0.4917371E-005  0.1080543E+04  0.7818608E-02  0.9224367E-01
         -2   -1    0    0    0  501 -0.00000000000E+00  0.00000000000E+00  0.65543574599E+04  0.65543574599E+04  0.25500000000E-02 0. -1.
          2   -1    0    0  501    0  0.00000000000E+00 -0.00000000000E+00 -0.44534204366E+02  0.44534204439E+02  0.25500000000E-02 0.  1.
    5000001    1    1    2    0    0  0.25899333124E+03 -0.29035475711E+03  0.13149491908E+04  0.13856679995E+04  0.19900000000E+03 0.  0.
   -5000001    1    1    2    0    0 -0.25899333124E+03  0.29035475711E+03  0.51948740648E+04  0.52132236648E+04  0.19900000000E+03 0.  0.
<mgrwt>
<rscale>  0 0.10805426E+04</rscale>
<asrwt>0</asrwt>
<pdfrwt beam="1">  1        2 0.63620231E-02 0.10805426E+04</pdfrwt>
<pdfrwt beam="2">  1       -2 0.93633767E+00 0.10805426E+04</pdfrwt>
<totfact> 0.27460060E-03</totfact>
</mgrwt>
</event>
<event>
 4    1  0.4917371E-005  0.5454867E+03  0.7818608E-02  0.1002544E+00
          2   -1    0    0  501    0  0.00000000000E+00  0.00000000000E+00  0.41517022839E+04  0.41517022839E+04  0.25500000000E-02 0.  1.
         -2   -1    0    0    0  501 -0.00000000000E+00 -0.00000000000E+00 -0.17917693570E+02  0.17917693751E+02  0.25500000000E-02 0. -1.
    5000001    1    1    2    0    0 -0.18373344522E+03 -0.21996059049E+02  0.18882608011E+04  0.19077137255E+04  0.19900000000E+03 0.  0.
   -5000001    1    1    2    0    0  0.18373344522E+03  0.21996059049E+02  0.22455237892E+04  0.22619062521E+04  0.19900000000E+03 0.  0.
<mgrwt>
<rscale>  0 0.54548668E+03</rscale>
<asrwt>0</asrwt>
<pdfrwt beam="1">  1        2 0.59310032E+00 0.54548668E+03</pdfrwt>
<pdfrwt beam="2">  1       -2 0.25596706E-02 0.54548668E+03</pdfrwt>
<totfact> 0.28954533E+02</totfact>
</mgrwt>
</event>
<event>
 4    1  0.4917371E-005  0.9321694E+03  0.7818608E-02  0.9386238E-01
         -2   -1    0    0    0  501 -0.00000000000E+00  0.00000000000E+00  0.38931678269E+03  0.38931678269E+03  0.25500000000E-02 0. -1.
          2   -1    0    0  501    0  0.00000000000E+00 -0.00000000000E+00 -0.55799019596E+03  0.55799019596E+03  0.25500000000E-02 0.  1.
    5000001    1    1    2    0    0 -0.41805424860E+03 -0.18051629859E+02 -0.13554075531E+03  0.48277066239E+03  0.19900000000E+03 0.  0.
   -5000001    1    1    2    0    0  0.41805424860E+03  0.18051629859E+02 -0.33132657966E+02  0.46453631627E+03  0.19900000000E+03 0.  0.
<mgrwt>
<rscale>  0 0.93216940E+03</rscale>
<asrwt>0</asrwt>
<pdfrwt beam="1">  1        2 0.79712885E-01 0.93216940E+03</pdfrwt>
<pdfrwt beam="2">  1       -2 0.55616684E-01 0.93216940E+03</pdfrwt>
<totfact> 0.17990889E+02</totfact>
</mgrwt>
</event>
<event>
 4    1  0.4917371E-005  0.1146487E+04  0.7818608E-02  0.9161030E-01
          2   -1    0    0  501    0  0.00000000000E+00  0.00000000000E+00  0.18939631944E+04  0.18939631944E+04  0.25500000000E-02 0.  1.
         -2   -1    0    0    0  501 -0.00000000000E+00 -0.00000000000E+00 -0.17350302003E+03  0.17350302005E+03  0.25500000000E-02 0. -1.
    5000001    1    1    2    0    0 -0.46475770163E+03 -0.16255543523E+03  0.12494405140E+04  0.13576179834E+04  0.19900000000E+03 0.  0.
   -5000001    1    1    2    0    0  0.46475770163E+03  0.16255543523E+03  0.47101966041E+03  0.70984823113E+03  0.19900000000E+03 0.  0.
<mgrwt>
<rscale>  0 0.11464874E+04</rscale>
<asrwt>0</asrwt>
<pdfrwt beam="1">  1        2 0.27056617E+00 0.11464874E+04</pdfrwt>
<pdfrwt beam="2">  1       -2 0.24786145E-01 0.11464874E+04</pdfrwt>
<totfact> 0.13127487E+02</totfact>
</mgrwt>
</event>
<event>
 4    1  0.4917371E-005  0.6816160E+03  0.7818608E-02  0.9749198E-01
         -2   -1    0    0    0  501 -0.00000000000E+00  0.00000000000E+00  0.37012062171E+02  0.37012062258E+02  0.25500000000E-02 0. -1.
          2   -1    0    0  501    0  0.00000000000E+00 -0.00000000000E+00 -0.31381685370E+04  0.31381685370E+04  0.25500000000E-02 0.  1.
    5000001    1    1    2    0    0  0.34215014037E+02  0.27283951077E+03 -0.16931730941E+04  0.17268607912E+04  0.19900000000E+03 0.  0.
   -5000001    1    1    2    0    0 -0.34215014037E+02 -0.27283951077E+03 -0.14079833808E+04  0.14483198081E+04  0.19900000000E+03 0.  0.
<mgrwt>
<rscale>  0 0.68161599E+03</rscale>
<asrwt>0</asrwt>
<pdfrwt beam="1">  1        2 0.44830962E+00 0.68161599E+03</pdfrwt>
<pdfrwt beam="2">  1       -2 0.52874395E-02 0.68161599E+03</pdfrwt>
<totfact> 0.39496192E+02</totfact>
</mgrwt>
</event>
<event>
 4    1  0.4917371E-005  0.4401060E+03  0.7818608E-02  0.1030714E+00
          2   -1    0    0  501    0  0.00000000000E+00  0.00000000000E+00  0.45718644837E+02  0.45718644908E+02  0.25500000000E-02 0.  1.
         -2   -1    0    0    0  501 -0.00000000000E+00 -0.00000000000E+00 -0.10591593377E+04  0.10591593377E+04  0.25500000000E-02 0. -1.
    5000001    1    1    2    0    0 -0.40588943637E+02  0.82707686857E+02 -0.55262206691E+03  0.59454198561E+03  0.19900000000E+03 0.  0.
   -5000001    1    1    2    0    0  0.40588943637E+02 -0.82707686857E+02 -0.46081862591E+03  0.51033599696E+03  0.19900000000E+03 0.  0.
<mgrwt>
<rscale>  0 0.44010603E+03</rscale>
<asrwt>0</asrwt>
<pdfrwt beam="1">  1        2 0.65312356E-02 0.44010603E+03</pdfrwt>
<pdfrwt beam="2">  1       -2 0.15130846E+00 0.44010603E+03</pdfrwt>
<totfact> 0.34387648E+02</totfact>
</mgrwt>
</event>
<event>
 4    1  0.4917371E-005  0.4378820E+03  0.7818608E-02  0.1031399E+00
         -2   -1    0    0    0  501 -0.00000000000E+00  0.00000000000E+00  0.53085269477E+02  0.53085269538E+02  0.25500000000E-02 0. -1.
          2   -1    0    0  501    0  0.00000000000E+00 -0.00000000000E+00 -0.90298416156E+03  0.90298416156E+03  0.25500000000E-02 0.  1.
    5000001    1    1    2    0    0  0.61593510716E+01 -0.70523545134E+02 -0.55080564934E+03  0.58991471533E+03  0.19900000000E+03 0.  0.
   -5000001    1    1    2    0    0 -0.61593510716E+01  0.70523545134E+02 -0.29909324274E+03  0.36615471577E+03  0.19900000000E+03 0.  0.
<mgrwt>
<rscale>  0 0.43788198E+03</rscale>
<asrwt>0</asrwt>
<pdfrwt beam="1">  1        2 0.12899773E+00 0.43788198E+03</pdfrwt>
<pdfrwt beam="2">  1       -2 0.75836105E-02 0.43788198E+03</pdfrwt>
<totfact> 0.34528140E+03</totfact>
</mgrwt>
</event>
<event>
 4    1  0.4917371E-005  0.6604556E+03  0.7818608E-02  0.9787355E-01
          2   -1    0    0  501    0  0.00000000000E+00  0.00000000000E+00  0.14120148110E+04  0.14120148110E+04  0.25500000000E-02 0.  1.
         -2   -1    0    0    0  501 -0.00000000000E+00 -0.00000000000E+00 -0.77230362769E+02  0.77230362811E+02  0.25500000000E-02 0. -1.
    5000001    1    1    2    0    0 -0.26052279148E+03 -0.35280932714E+01  0.57819362401E+03  0.66467543897E+03  0.19900000000E+03 0.  0.
   -5000001    1    1    2    0    0  0.26052279148E+03  0.35280932714E+01  0.75659082421E+03  0.82456973483E+03  0.19900000000E+03 0.  0.
<mgrwt>
<rscale>  0 0.66045565E+03</rscale>
<asrwt>0</asrwt>
<pdfrwt beam="1">  1        2 0.20171639E+00 0.66045565E+03</pdfrwt>
<pdfrwt beam="2">  1       -2 0.11032909E-01 0.66045565E+03</pdfrwt>
<totfact> 0.96341178E+02</totfact>
</mgrwt>
</event>
<event>
 4    1  0.4917371E-005  0.4848458E+03  0.7818608E-02  0.1017812E+00
          2   -1    0    0  501    0  0.00000000000E+00  0.00000000000E+00  0.10237616344E+04  0.10237616345E+04  0.25500000000E-02 0.  1.
         -2   -1    0    0    0  501 -0.00000000000E+00 -0.00000000000E+00 -0.57404818718E+02  0.57404818775E+02  0.25500000000E-02 0. -1.
    5000001    1    1    2    0    0 -0.11941203046E+03 -0.37062998688E+02  0.35059757668E+03  0.42208122402E+03  0.19900000000E+03 0.  0.
   -5000001    1    1    2    0    0  0.11941203046E+03  0.37062998688E+02  0.61575923905E+03  0.65908522921E+03  0.19900000000E+03 0.  0.
<mgrwt>
<rscale>  0 0.48484575E+03</rscale>
<asrwt>0</asrwt>
<pdfrwt beam="1">  1        2 0.14625165E+00 0.48484575E+03</pdfrwt>
<pdfrwt beam="2">  1       -2 0.82006889E-02 0.48484575E+03</pdfrwt>
<totfact> 0.25718104E+03</totfact>
</mgrwt>
</event>
<event>
 4    1  0.4917371E-005  0.9651858E+03  0.7818608E-02  0.9347575E-01
         -2   -1    0    0    0  501 -0.00000000000E+00  0.00000000000E+00  0.38175028100E+03  0.38175028101E+03  0.25500000000E-02 0. -1.
          2   -1    0    0  501    0  0.00000000000E+00 -0.00000000000E+00 -0.61007397338E+03  0.61007397339E+03  0.25500000000E-02 0.  1.
    5000001    1    1    2    0    0 -0.23958994660E+03 -0.30435759382E+03 -0.32788773535E+03  0.54511306573E+03  0.19900000000E+03 0.  0.
   -5000001    1    1    2    0    0  0.23958994660E+03  0.30435759382E+03  0.99564042971E+02  0.44671118867E+03  0.19900000000E+03 0.  0.
<mgrwt>
<rscale>  0 0.96518581E+03</rscale>
<asrwt>0</asrwt>
<pdfrwt beam="1">  1        2 0.87153424E-01 0.96518581E+03</pdfrwt>
<pdfrwt beam="2">  1       -2 0.54535755E-01 0.96518581E+03</pdfrwt>
<totfact> 0.16837067E+02</totfact>
</mgrwt>
</event>
<event>
 4    1  0.4917371E-005  0.7107370E+03  0.7818608E-02  0.9699045E-01
         -2   -1    0    0    0  501 -0.00000000000E+00  0.00000000000E+00  0.17999374864E+03  0.17999374866E+03  0.25500000000E-02 0. -1.
          2   -1    0    0  501    0  0.00000000000E+00 -0.00000000000E+00 -0.70161753553E+03  0.70161753554E+03  0.25500000000E-02 0.  1.
    5000001    1    1    2    0    0 -0.10867910357E+03 -0.27061438595E+03 -0.21054085548E+03  0.41106172926E+03  0.19900000000E+03 0.  0.
   -5000001    1    1    2    0    0  0.10867910357E+03  0.27061438595E+03 -0.31108293142E+03  0.47054955494E+03  0.19900000000E+03 0.  0.
<mgrwt>
<rscale>  0 0.71073700E+03</rscale>
<asrwt>0</asrwt>
<pdfrwt beam="1">  1        2 0.10023108E+00 0.71073700E+03</pdfrwt>
<pdfrwt beam="2">  1       -2 0.25713393E-01 0.71073700E+03</pdfrwt>
<totfact> 0.61344675E+02</totfact>
</mgrwt>
</event>
<event>
 4    1  0.4917371E-005  0.4490053E+03  0.7818608E-02  0.1028019E+00
          2   -1    0    0  501    0  0.00000000000E+00  0.00000000000E+00  0.24014333390E+04  0.24014333390E+04  0.25500000000E-02 0.  1.
         -2   -1    0    0    0  501 -0.00000000000E+00 -0.00000000000E+00 -0.20988068194E+02  0.20988068348E+02  0.25500000000E-02 0. -1.
    5000001    1    1    2    0    0 -0.10298841798E+03 -0.10020865433E+02  0.12423668637E+04  0.12624513678E+04  0.19900000000E+03 0.  0.
   -5000001    1    1    2    0    0  0.10298841798E+03  0.10020865433E+02  0.11380784071E+04  0.11599700395E+04  0.19900000000E+03 0.  0.
<mgrwt>
<rscale>  0 0.44900533E+03</rscale>
<asrwt>0</asrwt>
<pdfrwt beam="1">  1        2 0.34306168E+00 0.44900533E+03</pdfrwt>
<pdfrwt beam="2">  1       -2 0.29982974E-02 0.44900533E+03</pdfrwt>
<totfact> 0.23532842E+03</totfact>
</mgrwt>
</event>
<event>
 4    1  0.4917371E-005  0.1473107E+04  0.7818608E-02  0.8902536E-01
          2   -1    0    0  501    0  0.00000000000E+00  0.00000000000E+00  0.21423512011E+04  0.21423512011E+04  0.25500000000E-02 0.  1.
         -2   -1    0    0    0  501 -0.00000000000E+00 -0.00000000000E+00 -0.25323153718E+03  0.25323153719E+03  0.25500000000E-02 0. -1.
    5000001    1    1    2    0    0  0.10901484565E+03  0.63625071964E+03  0.14220423417E+04  0.15743267247E+04  0.19900000000E+03 0.  0.
   -5000001    1    1    2    0    0 -0.10901484565E+03 -0.63625071964E+03  0.46707732228E+03  0.82125601356E+03  0.19900000000E+03 0.  0.
<mgrwt>
<rscale>  0 0.14731068E+04</rscale>
<asrwt>0</asrwt>
<pdfrwt beam="1">  1        2 0.30605017E+00 0.14731068E+04</pdfrwt>
<pdfrwt beam="2">  1       -2 0.36175934E-01 0.14731068E+04</pdfrwt>
<totfact> 0.47227496E+01</totfact>
</mgrwt>
</event>
<event>
 4    1  0.4917371E-005  0.5979970E+03  0.7818608E-02  0.9909570E-01
         -2   -1    0    0    0  501 -0.00000000000E+00  0.00000000000E+00  0.32357198643E+03  0.32357198644E+03  0.25500000000E-02 0. -1.
          2   -1    0    0  501    0  0.00000000000E+00 -0.00000000000E+00 -0.27629119139E+03  0.27629119140E+03  0.25500000000E-02 0.  1.
    5000001    1    1    2    0    0  0.55195764717E+02  0.96025071922E+02 -0.17069520232E+03  0.28461419321E+03  0.19900000000E+03 0.  0.
   -5000001    1    1    2    0    0 -0.55195764717E+02 -0.96025071922E+02  0.21797599737E+03  0.31524898463E+03  0.19900000000E+03 0.  0.
<mgrwt>
<rscale>  0 0.59799696E+03</rscale>
<asrwt>0</asrwt>
<pdfrwt beam="1">  1        2 0.39470170E-01 0.59799696E+03</pdfrwt>
<pdfrwt beam="2">  1       -2 0.46224569E-01 0.59799696E+03</pdfrwt>
<totfact> 0.58416132E+02</totfact>
</mgrwt>
</event>
<event>
 4    1  0.4917371E-005  0.7996924E+03  0.7818608E-02  0.9560462E-01
         -2   -1    0    0    0  501 -0.00000000000E+00  0.00000000000E+00  0.34013402155E+03  0.34013402156E+03  0.25500000000E-02 0.  1.
          2   -1    0    0  501    0  0.00000000000E+00 -0.00000000000E+00 -0.47004118489E+03  0.47004118489E+03  0.25500000000E-02 0. -1.
    5000001    1    1    2    0    0 -0.34358537242E+03  0.17832357336E+02 -0.10919636058E+03  0.41218169085E+03  0.19900000000E+03 0.  0.
   -5000001    1    1    2    0    0  0.34358537242E+03 -0.17832357336E+02 -0.20710802751E+02  0.39799351560E+03  0.19900000000E+03 0.  0.
<mgrwt>
<rscale>  0 0.79969244E+03</rscale>
<asrwt>0</asrwt>
<pdfrwt beam="1">  1        2 0.67148741E-01 0.79969244E+03</pdfrwt>
<pdfrwt beam="2">  1       -2 0.48590575E-01 0.79969244E+03</pdfrwt>
<totfact> 0.29083521E+02</totfact>
</mgrwt>
</event>
<event>
 4    1  0.4917371E-005  0.8056319E+03  0.7818608E-02  0.9551901E-01
         -2   -1    0    0    0  501 -0.00000000000E+00  0.00000000000E+00  0.11896713680E+03  0.11896713682E+03  0.25500000000E-02 0. -1.
          2   -1    0    0  501    0  0.00000000000E+00 -0.00000000000E+00 -0.13639118997E+04  0.13639118997E+04  0.25500000000E-02 0.  1.
    5000001    1    1    2    0    0 -0.22459832480E+03  0.22252959473E+03 -0.89976763824E+03  0.97424156700E+03  0.19900000000E+03 0.  0.
   -5000001    1    1    2    0    0  0.22459832480E+03 -0.22252959473E+03 -0.34517712470E+03  0.50863746957E+03  0.19900000000E+03 0.  0.
<mgrwt>
<rscale>  0 0.80563191E+03</rscale>
<asrwt>0</asrwt>
<pdfrwt beam="1">  1        2 0.19484455E+00 0.80563191E+03</pdfrwt>
<pdfrwt beam="2">  1       -2 0.16995306E-01 0.80563191E+03</pdfrwt>
<totfact> 0.49267087E+02</totfact>
</mgrwt>
</event>
<event>
 4    1  0.4917371E-005  0.5907223E+03  0.7818608E-02  0.9924844E-01
         -2   -1    0    0    0  501 -0.00000000000E+00  0.00000000000E+00  0.32805372645E+03  0.32805372646E+03  0.25500000000E-02 0. -1.
          2   -1    0    0  501    0  0.00000000000E+00 -0.00000000000E+00 -0.26592656069E+03  0.26592656070E+03  0.25500000000E-02 0.  1.
    5000001    1    1    2    0    0 -0.17407538494E+03 -0.41959014811E+02  0.15654931864E+03  0.31011528136E+03  0.19900000000E+03 0.  0.
   -5000001    1    1    2    0    0  0.17407538494E+03  0.41959014811E+02 -0.94422152880E+02  0.28386500581E+03  0.19900000000E+03 0.  0.
<mgrwt>
<rscale>  0 0.59072227E+03</rscale>
<asrwt>0</asrwt>
<pdfrwt beam="1">  1        2 0.37989508E-01 0.59072227E+03</pdfrwt>
<pdfrwt beam="2">  1       -2 0.46864818E-01 0.59072227E+03</pdfrwt>
<totfact> 0.59297485E+02</totfact>
</mgrwt>
</event>
<event>
 4    1  0.4917371E-005  0.6397230E+03  0.7818608E-02  0.9826257E-01
          2   -1    0    0  501    0  0.00000000000E+00  0.00000000000E+00  0.19914958370E+04  0.19914958370E+04  0.25500000000E-02 0.  1.
         -2   -1    0    0    0  501 -0.00000000000E+00 -0.00000000000E+00 -0.51374131858E+02  0.51374131921E+02  0.25500000000E-02 0. -1.
    5000001    1    1    2    0    0  0.20375974162E+03  0.34198598438E+01  0.50531198609E+03  0.58006114422E+03  0.19900000000E+03 0.  0.
   -5000001    1    1    2    0    0 -0.20375974162E+03 -0.34198598438E+01  0.14348097191E+04  0.14628088247E+04  0.19900000000E+03 0.  0.
<mgrwt>
<rscale>  0 0.63972297E+03</rscale>
<asrwt>0</asrwt>
<pdfrwt beam="1">  1        2 0.28449940E+00 0.63972297E+03</pdfrwt>
<pdfrwt beam="2">  1       -2 0.73391620E-02 0.63972297E+03</pdfrwt>
<totfact> 0.93863743E+02</totfact>
</mgrwt>
</event>
<event>
 4    1  0.4917371E-005  0.4796935E+03  0.7818608E-02  0.1019219E+00
          2   -1    0    0  501    0  0.00000000000E+00  0.00000000000E+00  0.23430667429E+04  0.23430667429E+04  0.25500000000E-02 0.  1.
         -2   -1    0    0    0  501 -0.00000000000E+00 -0.00000000000E+00 -0.24551786021E+02  0.24551786153E+02  0.25500000000E-02 0. -1.
    5000001    1    1    2    0    0 -0.36732643188E+02  0.11696432724E+03  0.14248477016E+04  0.14438912402E+04  0.19900000000E+03 0.  0.
   -5000001    1    1    2    0    0  0.36732643188E+02 -0.11696432724E+03  0.89366725535E+03  0.92372728888E+03  0.19900000000E+03 0.  0.
<mgrwt>
<rscale>  0 0.47969354E+03</rscale>
<asrwt>0</asrwt>
<pdfrwt beam="1">  1        2 0.33472384E+00 0.47969354E+03</pdfrwt>
<pdfrwt beam="2">  1       -2 0.35073978E-02 0.47969354E+03</pdfrwt>
<totfact> 0.19822933E+03</totfact>
</mgrwt>
</event>
<event>
 4    1  0.4917371E-005  0.4947939E+03  0.7818608E-02  0.1015147E+00
          2   -1    0    0  501    0  0.00000000000E+00  0.00000000000E+00  0.42503698519E+03  0.42503698519E+03  0.25500000000E-02 0.  1.
         -2   -1    0    0    0  501 -0.00000000000E+00 -0.00000000000E+00 -0.14399985013E+03  0.14399985015E+03  0.25500000000E-02 0. -1.
    5000001    1    1    2    0    0 -0.55917677644E+02 -0.11500071417E+03  0.57171326120E+02  0.24335470298E+03  0.19900000000E+03 0.  0.
   -5000001    1    1    2    0    0  0.55917677644E+02  0.11500071417E+03  0.22386580894E+03  0.32568213237E+03  0.19900000000E+03 0.  0.
<mgrwt>
<rscale>  0 0.49479395E+03</rscale>
<asrwt>0</asrwt>
<pdfrwt beam="1">  1        2 0.60719569E-01 0.49479395E+03</pdfrwt>
<pdfrwt beam="2">  1       -2 0.20571407E-01 0.49479395E+03</pdfrwt>
<totfact> 0.16339217E+03</totfact>
</mgrwt>
</event>
<event>
 4    1  0.4917371E-005  0.6990262E+03  0.7818608E-02  0.9718899E-01
         -2   -1    0    0    0  501 -0.00000000000E+00  0.00000000000E+00  0.51648315899E+02  0.51648315962E+02  0.25500000000E-02 0. -1.
          2   -1    0    0  501    0  0.00000000000E+00 -0.00000000000E+00 -0.23652158494E+04  0.23652158494E+04  0.25500000000E-02 0.  1.
    5000001    1    1    2    0    0 -0.19354019603E+03  0.20910494016E+03 -0.12850244098E+04  0.13311917282E+04  0.19900000000E+03 0.  0.
   -5000001    1    1    2    0    0  0.19354019603E+03 -0.20910494016E+03 -0.10285431237E+04  0.10856724371E+04  0.19900000000E+03 0.  0.
<mgrwt>
<rscale>  0 0.69902622E+03</rscale>
<asrwt>0</asrwt>
<pdfrwt beam="1">  1        2 0.33788791E+00 0.69902622E+03</pdfrwt>
<pdfrwt beam="2">  1       -2 0.73783323E-02 0.69902622E+03</pdfrwt>
<totfact> 0.59994170E+02</totfact>
</mgrwt>
</event>
<event>
 4    1  0.4917371E-005  0.1521309E+04  0.7818608E-02  0.8870405E-01
          2   -1    0    0  501    0  0.00000000000E+00  0.00000000000E+00  0.13191518864E+04  0.13191518864E+04  0.25500000000E-02 0.  1.
         -2   -1    0    0    0  501 -0.00000000000E+00 -0.00000000000E+00 -0.43861154318E+03  0.43861154318E+03  0.25500000000E-02 0. -1.
    5000001    1    1    2    0    0  0.30029097610E+03  0.49147061264E+03 -0.85768569593E+02  0.61536597318E+03  0.19900000000E+03 0.  0.
   -5000001    1    1    2    0    0 -0.30029097610E+03 -0.49147061264E+03  0.96630891283E+03  0.11423974564E+04  0.19900000000E+03 0.  0.
<mgrwt>
<rscale>  0 0.15213090E+04</rscale>
<asrwt>0</asrwt>
<pdfrwt beam="1">  1        2 0.18845027E+00 0.15213090E+04</pdfrwt>
<pdfrwt beam="2">  1       -2 0.62658793E-01 0.15213090E+04</pdfrwt>
<totfact> 0.41811226E+01</totfact>
</mgrwt>
</event>
<event>
 4    1  0.4917371E-005  0.6769154E+03  0.7818608E-02  0.9757545E-01
         -2   -1    0    0    0  501 -0.00000000000E+00  0.00000000000E+00  0.19495054296E+03  0.19495054298E+03  0.25500000000E-02 0. -1.
          2   -1    0    0  501    0  0.00000000000E+00 -0.00000000000E+00 -0.58760346460E+03  0.58760346460E+03  0.25500000000E-02 0.  1.
    5000001    1    1    2    0    0  0.23644374574E+03 -0.13151817131E+02 -0.35514891145E+03  0.47096747711E+03  0.19900000000E+03 0.  0.
   -5000001    1    1    2    0    0 -0.23644374574E+03  0.13151817131E+02 -0.37504010181E+02  0.31158653047E+03  0.19900000000E+03 0.  0.
<mgrwt>
<rscale>  0 0.67691540E+03</rscale>
<asrwt>0</asrwt>
<pdfrwt beam="1">  1        2 0.83943351E-01 0.67691540E+03</pdfrwt>
<pdfrwt beam="2">  1       -2 0.27850078E-01 0.67691540E+03</pdfrwt>
<totfact> 0.65713737E+02</totfact>
</mgrwt>
</event>
<event>
 4    1  0.4917371E-005  0.6722468E+03  0.7818608E-02  0.9765907E-01
         -2   -1    0    0    0  501 -0.00000000000E+00  0.00000000000E+00  0.80216318270E+02  0.80216318311E+02  0.25500000000E-02 0. -1.
          2   -1    0    0  501    0  0.00000000000E+00 -0.00000000000E+00 -0.14084283594E+04  0.14084283594E+04  0.25500000000E-02 0.  1.
    5000001    1    1    2    0    0 -0.23435454485E+03 -0.10632216774E+03 -0.85137261853E+03  0.91140703949E+03  0.19900000000E+03 0.  0.
   -5000001    1    1    2    0    0  0.23435454485E+03  0.10632216774E+03 -0.47683942264E+03  0.57723763826E+03  0.19900000000E+03 0.  0.
<mgrwt>
<rscale>  0 0.67224679E+03</rscale>
<asrwt>0</asrwt>
<pdfrwt beam="1">  1        2 0.20120404E+00 0.67224679E+03</pdfrwt>
<pdfrwt beam="2">  1       -2 0.11459475E-01 0.67224679E+03</pdfrwt>
<totfact> 0.90885102E+02</totfact>
</mgrwt>
</event>
<event>
 4    1  0.4917371E-005  0.1122506E+04  0.7818608E-02  0.9183529E-01
          2   -1    0    0  501    0  0.00000000000E+00  0.00000000000E+00  0.10144207264E+04  0.10144207264E+04  0.25500000000E-02 0.  1.
         -2   -1    0    0    0  501 -0.00000000000E+00 -0.00000000000E+00 -0.31052709001E+03  0.31052709002E+03  0.25500000000E-02 0. -1.
    5000001    1    1    2    0    0  0.43325369317E+03 -0.16909126555E+03  0.64989988885E+02  0.51002482036E+03  0.19900000000E+03 0.  0.
   -5000001    1    1    2    0    0 -0.43325369317E+03  0.16909126555E+03  0.63890364754E+03  0.81492299610E+03  0.19900000000E+03 0.  0.
<mgrwt>
<rscale>  0 0.11225063E+04</rscale>
<asrwt>0</asrwt>
<pdfrwt beam="1">  1        2 0.14491725E+00 0.11225063E+04</pdfrwt>
<pdfrwt beam="2">  1       -2 0.44361013E-01 0.11225063E+04</pdfrwt>
<totfact> 0.13138740E+02</totfact>
</mgrwt>
</event>
<event>
 4    1  0.4917371E-005  0.4934826E+03  0.7818608E-02  0.1015494E+00
          2   -1    0    0  501    0  0.00000000000E+00  0.00000000000E+00  0.68067336021E+02  0.68067336068E+02  0.25500000000E-02 0.  1.
         -2   -1    0    0    0  501 -0.00000000000E+00 -0.00000000000E+00 -0.89442717387E+03  0.89442717388E+03  0.25500000000E-02 0. -1.
    5000001    1    1    2    0    0  0.55153849757E+02 -0.13495812854E+03 -0.42285982287E+03  0.48955803885E+03  0.19900000000E+03 0.  0.
   -5000001    1    1    2    0    0 -0.55153849757E+02  0.13495812854E+03 -0.40350001498E+03  0.47293647110E+03  0.19900000000E+03 0.  0.
<mgrwt>
<rscale>  0 0.49348262E+03</rscale>
<asrwt>0</asrwt>
<pdfrwt beam="1">  1        2 0.97239057E-02 0.49348262E+03</pdfrwt>
<pdfrwt beam="2">  1       -2 0.12777530E+00 0.49348262E+03</pdfrwt>
<totfact> 0.31668601E+02</totfact>
</mgrwt>
</event>
<event>
 4    1  0.4917371E-005  0.1625534E+04  0.7818608E-02  0.8805014E-01
         -2   -1    0    0    0  501 -0.00000000000E+00  0.00000000000E+00  0.36632210176E+03  0.36632210177E+03  0.25500000000E-02 0. -1.
          2   -1    0    0  501    0  0.00000000000E+00 -0.00000000000E+00 -0.18033031830E+04  0.18033031830E+04  0.25500000000E-02 0.  1.
    5000001    1    1    2    0    0 -0.26406293848E+03  0.71939807136E+03 -0.96360626103E+03  0.12471571059E+04  0.19900000000E+03 0.  0.
   -5000001    1    1    2    0    0  0.26406293848E+03 -0.71939807136E+03 -0.47337482018E+03  0.92246817882E+03  0.19900000000E+03 0.  0.
<mgrwt>
<rscale>  0 0.16255335E+04</rscale>
<asrwt>0</asrwt>
<pdfrwt beam="1">  1        2 0.25761474E+00 0.16255335E+04</pdfrwt>
<pdfrwt beam="2">  1       -2 0.52331730E-01 0.16255335E+04</pdfrwt>
<totfact> 0.33500063E+01</totfact>
</mgrwt>
</event>
<event>
 4    1  0.4917371E-005  0.4919286E+03  0.7818608E-02  0.1015907E+00
         -2   -1    0    0    0  501 -0.00000000000E+00  0.00000000000E+00  0.44783587749E+02  0.44783587822E+02  0.25500000000E-02 0. -1.
          2   -1    0    0  501    0  0.00000000000E+00 -0.00000000000E+00 -0.13509064186E+04  0.13509064186E+04  0.25500000000E-02 0.  1.
    5000001    1    1    2    0    0 -0.12488324895E+03  0.37935278867E+02 -0.47673290163E+03  0.53283221631E+03  0.19900000000E+03 0.  0.
   -5000001    1    1    2    0    0  0.12488324895E+03 -0.37935278867E+02 -0.82938992919E+03  0.86285779008E+03  0.19900000000E+03 0.  0.
<mgrwt>
<rscale>  0 0.49192860E+03</rscale>
<asrwt>0</asrwt>
<pdfrwt beam="1">  1        2 0.19298660E+00 0.49192860E+03</pdfrwt>
<pdfrwt beam="2">  1       -2 0.63976563E-02 0.49192860E+03</pdfrwt>
<totfact> 0.24932730E+03</totfact>
</mgrwt>
</event>
<event>
 4    1  0.4917371E-005  0.9251948E+03  0.7818608E-02  0.9394623E-01
         -2   -1    0    0    0  501 -0.00000000000E+00  0.00000000000E+00  0.21320703677E+03  0.21320703678E+03  0.25500000000E-02 0. -1.
          2   -1    0    0  501    0  0.00000000000E+00 -0.00000000000E+00 -0.10037020615E+04  0.10037020615E+04  0.25500000000E-02 0.  1.
    5000001    1    1    2    0    0  0.90708304393E+01  0.39629072301E+03 -0.22241320387E+03  0.49618267842E+03  0.19900000000E+03 0.  0.
   -5000001    1    1    2    0    0 -0.90708304393E+01 -0.39629072301E+03 -0.56808182085E+03  0.72072641986E+03  0.19900000000E+03 0.  0.
<mgrwt>
<rscale>  0 0.92519477E+03</rscale>
<asrwt>0</asrwt>
<pdfrwt beam="1">  1        2 0.14338601E+00 0.92519477E+03</pdfrwt>
<pdfrwt beam="2">  1       -2 0.30458149E-01 0.92519477E+03</pdfrwt>
<totfact> 0.27810206E+02</totfact>
</mgrwt>
</event>
<event>
 4    1  0.4917371E-005  0.6272748E+03  0.7818608E-02  0.9850381E-01
         -2   -1    0    0    0  501 -0.00000000000E+00  0.00000000000E+00  0.48671721871E+02  0.48671721938E+02  0.25500000000E-02 0. -1.
          2   -1    0    0  501    0  0.00000000000E+00 -0.00000000000E+00 -0.20210587010E+04  0.20210587010E+04  0.25500000000E-02 0.  1.
    5000001    1    1    2    0    0 -0.17675693969E+03 -0.14241171220E+03 -0.70537605238E+03  0.76725516406E+03  0.19900000000E+03 0.  0.
   -5000001    1    1    2    0    0  0.17675693969E+03  0.14241171220E+03 -0.12670109268E+04  0.13024752589E+04  0.19900000000E+03 0.  0.
<mgrwt>
<rscale>  0 0.62727476E+03</rscale>
<asrwt>0</asrwt>
<pdfrwt beam="1">  1        2 0.28872262E+00 0.62727476E+03</pdfrwt>
<pdfrwt beam="2">  1       -2 0.69531044E-02 0.62727476E+03</pdfrwt>
<totfact> 0.98880275E+02</totfact>
</mgrwt>
</event>
<event>
 4    1  0.4917371E-005  0.5301780E+03  0.7818608E-02  0.1006189E+00
          2   -1    0    0  501    0  0.00000000000E+00  0.00000000000E+00  0.42182129500E+04  0.42182129500E+04  0.25500000000E-02 0.  1.
         -2   -1    0    0    0  501 -0.00000000000E+00 -0.00000000000E+00 -0.16659232521E+02  0.16659232716E+02  0.25500000000E-02 0. -1.
    5000001    1    1    2    0    0  0.14710802846E+03 -0.28048212467E+02  0.28260140865E+04  0.28369674110E+04  0.19900000000E+03 0.  0.
   -5000001    1    1    2    0    0 -0.14710802846E+03  0.28048212467E+02  0.13755396311E+04  0.13979047717E+04  0.19900000000E+03 0.  0.
<mgrwt>
<rscale>  0 0.53017805E+03</rscale>
<asrwt>0</asrwt>
<pdfrwt beam="1">  1        2 0.60260186E+00 0.53017805E+03</pdfrwt>
<pdfrwt beam="2">  1       -2 0.23798903E-02 0.53017805E+03</pdfrwt>
<totfact> 0.29101439E+02</totfact>
</mgrwt>
</event>
<event>
 4    1  0.4917371E-005  0.6261629E+03  0.7818608E-02  0.9852565E-01
         -2   -1    0    0    0  501 -0.00000000000E+00  0.00000000000E+00  0.13963917418E+03  0.13963917421E+03  0.25500000000E-02 0. -1.
          2   -1    0    0  501    0  0.00000000000E+00 -0.00000000000E+00 -0.70195189650E+03  0.70195189651E+03  0.25500000000E-02 0.  1.
    5000001    1    1    2    0    0  0.22217267103E+03 -0.89541028987E+02 -0.32451491826E+03  0.44976574325E+03  0.19900000000E+03 0.  0.
   -5000001    1    1    2    0    0 -0.22217267103E+03  0.89541028987E+02 -0.23779780406E+03  0.39182532746E+03  0.19900000000E+03 0.  0.
<mgrwt>
<rscale>  0 0.62616286E+03</rscale>
<asrwt>0</asrwt>
<pdfrwt beam="1">  1        2 0.10027884E+00 0.62616286E+03</pdfrwt>
<pdfrwt beam="2">  1       -2 0.19948454E-01 0.62616286E+03</pdfrwt>
<totfact> 0.96389808E+02</totfact>
</mgrwt>
</event>
<event>
 4    1  0.4917371E-005  0.6413608E+03  0.7818608E-02  0.9823126E-01
         -2   -1    0    0    0  501 -0.00000000000E+00  0.00000000000E+00  0.90108376290E+02  0.90108376326E+02  0.25500000000E-02 0. -1.
          2   -1    0    0  501    0  0.00000000000E+00 -0.00000000000E+00 -0.11412471136E+04  0.11412471136E+04  0.25500000000E-02 0.  1.
    5000001    1    1    2    0    0  0.10227646889E+02  0.21398155224E+03 -0.27273662982E+03  0.39984869476E+03  0.19900000000E+03 0.  0.
   -5000001    1    1    2    0    0 -0.10227646889E+02 -0.21398155224E+03 -0.77840210748E+03  0.83150679516E+03  0.19900000000E+03 0.  0.
<mgrwt>
<rscale>  0 0.64136082E+03</rscale>
<asrwt>0</asrwt>
<pdfrwt beam="1">  1        2 0.16303529E+00 0.64136082E+03</pdfrwt>
<pdfrwt beam="2">  1       -2 0.12872626E-01 0.64136082E+03</pdfrwt>
<totfact> 0.10536406E+03</totfact>
</mgrwt>
</event>
<event>
 4    1  0.4917371E-005  0.8533809E+03  0.7818608E-02  0.9485810E-01
         -2   -1    0    0    0  501 -0.00000000000E+00  0.00000000000E+00  0.15232609234E+03  0.15232609236E+03  0.25500000000E-02 0. -1.
          2   -1    0    0  501    0  0.00000000000E+00 -0.00000000000E+00 -0.11952301502E+04  0.11952301502E+04  0.25500000000E-02 0.  1.
    5000001    1    1    2    0    0 -0.97119011313E+02 -0.30822412402E+03 -0.21351321267E+03  0.43545735149E+03  0.19900000000E+03 0.  0.
   -5000001    1    1    2    0    0  0.97119011313E+02  0.30822412402E+03 -0.82939084518E+03  0.91209889105E+03  0.19900000000E+03 0.  0.
<mgrwt>
<rscale>  0 0.85338090E+03</rscale>
<asrwt>0</asrwt>
<pdfrwt beam="1">  1        2 0.17074716E+00 0.85338090E+03</pdfrwt>
<pdfrwt beam="2">  1       -2 0.21760871E-01 0.85338090E+03</pdfrwt>
<totfact> 0.39609489E+02</totfact>
</mgrwt>
</event>
<event>
 4    1  0.4917371E-005  0.9292235E+03  0.7818608E-02  0.9389770E-01
         -2   -1    0    0    0  501 -0.00000000000E+00  0.00000000000E+00  0.35345169866E+03  0.35345169867E+03  0.25500000000E-02 0. -1.
          2   -1    0    0  501    0  0.00000000000E+00 -0.00000000000E+00 -0.61073145503E+03  0.61073145503E+03  0.25500000000E-02 0.  1.
    5000001    1    1    2    0    0 -0.94438874610E+02 -0.21563597993E+03 -0.48934689624E+03  0.57834156148E+03  0.19900000000E+03 0.  0.
   -5000001    1    1    2    0    0  0.94438874610E+02  0.21563597993E+03  0.23206713987E+03  0.38584159222E+03  0.19900000000E+03 0.  0.
<mgrwt>
<rscale>  0 0.92922348E+03</rscale>
<asrwt>0</asrwt>
<pdfrwt beam="1">  1        2 0.87247351E-01 0.92922348E+03</pdfrwt>
<pdfrwt beam="2">  1       -2 0.50493100E-01 0.92922348E+03</pdfrwt>
<totfact> 0.19735880E+02</totfact>
</mgrwt>
</event>
<event>
 4    1  0.4917371E-005  0.6066131E+03  0.7818608E-02  0.9891780E-01
          2   -1    0    0  501    0  0.00000000000E+00  0.00000000000E+00  0.86150169275E+03  0.86150169275E+03  0.25500000000E-02 0.  1.
         -2   -1    0    0    0  501 -0.00000000000E+00 -0.00000000000E+00 -0.10678430796E+03  0.10678430800E+03  0.25500000000E-02 0. -1.
    5000001    1    1    2    0    0 -0.11353454435E+03 -0.15301102538E+03  0.57984176606E+03  0.64196568469E+03  0.19900000000E+03 0.  0.
   -5000001    1    1    2    0    0  0.11353454435E+03  0.15301102538E+03  0.17487561872E+03  0.32632031606E+03  0.19900000000E+03 0.  0.
<mgrwt>
<rscale>  0 0.60661310E+03</rscale>
<asrwt>0</asrwt>
<pdfrwt beam="1">  1        2 0.12307167E+00 0.60661310E+03</pdfrwt>
<pdfrwt beam="2">  1       -2 0.15254902E-01 0.60661310E+03</pdfrwt>
<totfact> 0.11777579E+03</totfact>
</mgrwt>
</event>
<event>
 4    1  0.4917371E-005  0.5585626E+03  0.7818608E-02  0.9995312E-01
         -2   -1    0    0    0  501 -0.00000000000E+00  0.00000000000E+00  0.23320746551E+03  0.23320746552E+03  0.25500000000E-02 0. -1.
          2   -1    0    0  501    0  0.00000000000E+00 -0.00000000000E+00 -0.33445774494E+03  0.33445774495E+03  0.25500000000E-02 0.  1.
    5000001    1    1    2    0    0 -0.28810503823E+02 -0.17992540778E+03  0.22617661341E+02  0.27076882409E+03  0.19900000000E+03 0.  0.
   -5000001    1    1    2    0    0  0.28810503823E+02  0.17992540778E+03 -0.12386794077E+03  0.29689638638E+03  0.19900000000E+03 0.  0.
<mgrwt>
<rscale>  0 0.55856259E+03</rscale>
<asrwt>0</asrwt>
<pdfrwt beam="1">  1        2 0.47779678E-01 0.55856259E+03</pdfrwt>
<pdfrwt beam="2">  1       -2 0.33315352E-01 0.55856259E+03</pdfrwt>
<totfact> 0.89178287E+02</totfact>
</mgrwt>
</event>
<event>
 4    1  0.4917371E-005  0.9745477E+03  0.7818608E-02  0.9336909E-01
         -2   -1    0    0    0  501 -0.00000000000E+00  0.00000000000E+00  0.97354258694E+03  0.97354258694E+03  0.25500000000E-02 0. -1.
          2   -1    0    0  501    0  0.00000000000E+00 -0.00000000000E+00 -0.24388846976E+03  0.24388846977E+03  0.25500000000E-02 0.  1.
    5000001    1    1    2    0    0  0.28705466020E+03 -0.10737815051E+03 -0.37851188100E+02  0.36737468283E+03  0.19900000000E+03 0.  0.
   -5000001    1    1    2    0    0 -0.28705466020E+03  0.10737815051E+03  0.76750530527E+03  0.85005637388E+03  0.19900000000E+03 0.  0.
<mgrwt>
<rscale>  0 0.97454771E+03</rscale>
<asrwt>0</asrwt>
<pdfrwt beam="1">  1        2 0.34841210E-01 0.97454771E+03</pdfrwt>
<pdfrwt beam="2">  1       -2 0.13907751E+00 0.97454771E+03</pdfrwt>
<totfact> 0.54908753E+01</totfact>
</mgrwt>
</event>
<event>
 4    1  0.4917371E-005  0.1013384E+04  0.7818608E-02  0.9293987E-01
         -2   -1    0    0    0  501 -0.00000000000E+00  0.00000000000E+00  0.96751545176E+02  0.96751545210E+02  0.25500000000E-02 0. -1.
          2   -1    0    0  501    0  0.00000000000E+00 -0.00000000000E+00 -0.26535654166E+04  0.26535654166E+04  0.25500000000E-02 0.  1.
    5000001    1    1    2    0    0 -0.60711389187E+02  0.36952102631E+03 -0.20310395935E+04  0.20748384255E+04  0.19900000000E+03 0.  0.
   -5000001    1    1    2    0    0  0.60711389187E+02 -0.36952102631E+03 -0.52577427793E+03  0.67547853629E+03  0.19900000000E+03 0.  0.
<mgrwt>
<rscale>  0 0.10133835E+04</rscale>
<asrwt>0</asrwt>
<pdfrwt beam="1">  1        2 0.37908073E+00 0.10133835E+04</pdfrwt>
<pdfrwt beam="2">  1       -2 0.13821651E-01 0.10133835E+04</pdfrwt>
<totfact> 0.14864598E+02</totfact>
</mgrwt>
</event>
<event>
 4    1  0.4917371E-005  0.5412485E+03  0.7818608E-02  0.1003540E+00
         -2   -1    0    0    0  501 -0.00000000000E+00  0.00000000000E+00  0.73010825645E+02  0.73010825690E+02  0.25500000000E-02 0. -1.
          2   -1    0    0  501    0  0.00000000000E+00 -0.00000000000E+00 -0.10031045002E+04  0.10031045002E+04  0.25500000000E-02 0.  1.
    5000001    1    1    2    0    0 -0.15386818875E+03  0.79983679511E+02 -0.58373609360E+03  0.64064158113E+03  0.19900000000E+03 0.  0.
   -5000001    1    1    2    0    0  0.15386818875E+03 -0.79983679511E+02 -0.34635758095E+03  0.43547374477E+03  0.19900000000E+03 0.  0.
<mgrwt>
<rscale>  0 0.54124851E+03</rscale>
<asrwt>0</asrwt>
<pdfrwt beam="1">  1        2 0.14330063E+00 0.54124851E+03</pdfrwt>
<pdfrwt beam="2">  1       -2 0.10430119E-01 0.54124851E+03</pdfrwt>
<totfact> 0.17983504E+03</totfact>
</mgrwt>
</event>
<event>
 4    1  0.4917371E-005  0.6497575E+03  0.7818608E-02  0.9807234E-01
          2   -1    0    0  501    0  0.00000000000E+00  0.00000000000E+00  0.98870058736E+03  0.98870058737E+03  0.25500000000E-02 0.  1.
         -2   -1    0    0    0  501 -0.00000000000E+00 -0.00000000000E+00 -0.10675243123E+03  0.10675243126E+03  0.25500000000E-02 0. -1.
    5000001    1    1    2    0    0 -0.23381831228E+03 -0.27709475135E+02  0.26816406972E+03  0.40859734025E+03  0.19900000000E+03 0.  0.
   -5000001    1    1    2    0    0  0.23381831228E+03  0.27709475135E+02  0.61378408642E+03  0.68685567837E+03  0.19900000000E+03 0.  0.
<mgrwt>
<rscale>  0 0.64975747E+03</rscale>
<asrwt>0</asrwt>
<pdfrwt beam="1">  1        2 0.14124294E+00 0.64975747E+03</pdfrwt>
<pdfrwt beam="2">  1       -2 0.15250347E-01 0.64975747E+03</pdfrwt>
<totfact> 0.97674704E+02</totfact>
</mgrwt>
</event>
<event>
 4    1  0.4917371E-005  0.4495153E+03  0.7818608E-02  0.1027867E+00
         -2   -1    0    0    0  501 -0.00000000000E+00  0.00000000000E+00  0.46212804464E+02  0.46212804534E+02  0.25500000000E-02 0. -1.
          2   -1    0    0  501    0  0.00000000000E+00 -0.00000000000E+00 -0.10931167655E+04  0.10931167655E+04  0.25500000000E-02 0.  1.
    5000001    1    1    2    0    0  0.75200862811E+01  0.10050922332E+03 -0.45374725247E+03  0.50561469994E+03  0.19900000000E+03 0.  0.
   -5000001    1    1    2    0    0 -0.75200862811E+01 -0.10050922332E+03 -0.59315670861E+03  0.63371487014E+03  0.19900000000E+03 0.  0.
<mgrwt>
<rscale>  0 0.44951526E+03</rscale>
<asrwt>0</asrwt>
<pdfrwt beam="1">  1        2 0.15615952E+00 0.44951526E+03</pdfrwt>
<pdfrwt beam="2">  1       -2 0.66018299E-02 0.44951526E+03</pdfrwt>
<totfact> 0.32952392E+03</totfact>
</mgrwt>
</event>
<event>
 4    1  0.4917371E-005  0.1129951E+04  0.7818608E-02  0.9176481E-01
          2   -1    0    0  501    0  0.00000000000E+00  0.00000000000E+00  0.68790323609E+03  0.68790323610E+03  0.25500000000E-02 0.  1.
         -2   -1    0    0    0  501 -0.00000000000E+00 -0.00000000000E+00 -0.46401514323E+03  0.46401514323E+03  0.25500000000E-02 0. -1.
    5000001    1    1    2    0    0  0.46285076058E+02 -0.51908474646E+03  0.20732663983E+02  0.55823124745E+03  0.19900000000E+03 0.  0.
   -5000001    1    1    2    0    0 -0.46285076058E+02  0.51908474646E+03  0.20315542888E+03  0.59368713188E+03  0.19900000000E+03 0.  0.
<mgrwt>
<rscale>  0 0.11299514E+04</rscale>
<asrwt>0</asrwt>
<pdfrwt beam="1">  1        2 0.98271891E-01 0.11299514E+04</pdfrwt>
<pdfrwt beam="2">  1       -2 0.66287877E-01 0.11299514E+04</pdfrwt>
<totfact> 0.95473131E+01</totfact>
</mgrwt>
</event>
<event>
 4    1  0.4917371E-005  0.5566642E+03  0.7818608E-02  0.9999631E-01
         -2   -1    0    0    0  501 -0.00000000000E+00  0.00000000000E+00  0.12416536218E+03  0.12416536221E+03  0.25500000000E-02 0.  1.
          2   -1    0    0  501    0  0.00000000000E+00 -0.00000000000E+00 -0.62391602305E+03  0.62391602306E+03  0.25500000000E-02 0. -1.
    5000001    1    1    2    0    0 -0.77428489911E+02 -0.28472301919E+02 -0.13027356891E+02  0.21581602131E+03  0.19900000000E+03 0.  0.
   -5000001    1    1    2    0    0  0.77428489911E+02  0.28472301919E+02 -0.48672330398E+03  0.53226536395E+03  0.19900000000E+03 0.  0.
<mgrwt>
<rscale>  0 0.55666420E+03</rscale>
<asrwt>0</asrwt>
<pdfrwt beam="1">  1        2 0.89130859E-01 0.55666420E+03</pdfrwt>
<pdfrwt beam="2">  1       -2 0.17737909E-01 0.55666420E+03</pdfrwt>
<totfact> 0.13619571E+03</totfact>
</mgrwt>
</event>
<event>
 4    1  0.4917371E-005  0.5416703E+03  0.7818608E-02  0.1003441E+00
         -2   -1    0    0    0  501 -0.00000000000E+00  0.00000000000E+00  0.28922968937E+03  0.28922968938E+03  0.25500000000E-02 0. -1.
          2   -1    0    0  501    0  0.00000000000E+00 -0.00000000000E+00 -0.25361043911E+03  0.25361043912E+03  0.25500000000E-02 0.  1.
    5000001    1    1    2    0    0 -0.51272264144E+02  0.17270902191E+03  0.53851408187E+02  0.27378499865E+03  0.19900000000E+03 0.  0.
   -5000001    1    1    2    0    0  0.51272264144E+02 -0.17270902191E+03 -0.18232157927E+02  0.26905512986E+03  0.19900000000E+03 0.  0.
<mgrwt>
<rscale>  0 0.54167026E+03</rscale>
<asrwt>0</asrwt>
<pdfrwt beam="1">  1        2 0.36230063E-01 0.54167026E+03</pdfrwt>
<pdfrwt beam="2">  1       -2 0.41318527E-01 0.54167026E+03</pdfrwt>
<totfact> 0.80177427E+02</totfact>
</mgrwt>
</event>
<event>
 4    1  0.4917371E-005  0.5793419E+03  0.7818608E-02  0.9949217E-01
         -2   -1    0    0    0  501 -0.00000000000E+00  0.00000000000E+00  0.41762640827E+02  0.41762640904E+02  0.25500000000E-02 0. -1.
          2   -1    0    0  501    0  0.00000000000E+00 -0.00000000000E+00 -0.20091942931E+04  0.20091942931E+04  0.25500000000E-02 0.  1.
    5000001    1    1    2    0    0 -0.11971094467E+03 -0.90771572264E+02 -0.46176197883E+03  0.52478120555E+03  0.19900000000E+03 0.  0.
   -5000001    1    1    2    0    0  0.11971094467E+03  0.90771572264E+02 -0.15056696734E+04  0.15261757285E+04  0.19900000000E+03 0.  0.
<mgrwt>
<rscale>  0 0.57934190E+03</rscale>
<asrwt>0</asrwt>
<pdfrwt beam="1">  1        2 0.28702769E+00 0.57934190E+03</pdfrwt>
<pdfrwt beam="2">  1       -2 0.59660928E-02 0.57934190E+03</pdfrwt>
<totfact> 0.12787197E+03</totfact>
</mgrwt>
</event>
<event>
 4    1  0.4917371E-005  0.7027657E+03  0.7818608E-02  0.9712514E-01
          2   -1    0    0  501    0  0.00000000000E+00  0.00000000000E+00  0.55983765291E+03  0.55983765292E+03  0.25500000000E-02 0.  1.
         -2   -1    0    0    0  501 -0.00000000000E+00 -0.00000000000E+00 -0.22054594142E+03  0.22054594144E+03  0.25500000000E-02 0. -1.
    5000001    1    1    2    0    0  0.37601673841E+02  0.27953097698E+03  0.96681261072E+02  0.35846857493E+03  0.19900000000E+03 0.  0.
   -5000001    1    1    2    0    0 -0.37601673841E+02 -0.27953097698E+03  0.24261045042E+03  0.42191501943E+03  0.19900000000E+03 0.  0.
<mgrwt>
<rscale>  0 0.70276574E+03</rscale>
<asrwt>0</asrwt>
<pdfrwt beam="1">  1        2 0.79976809E-01 0.70276574E+03</pdfrwt>
<pdfrwt beam="2">  1       -2 0.31506563E-01 0.70276574E+03</pdfrwt>
<totfact> 0.55331989E+02</totfact>
</mgrwt>
</event>
<event>
 4    1  0.4917371E-005  0.4960129E+03  0.7818608E-02  0.1014825E+00
          2   -1    0    0  501    0  0.00000000000E+00  0.00000000000E+00  0.33246339661E+04  0.33246339661E+04  0.25500000000E-02 0.  1.
         -2   -1    0    0    0  501 -0.00000000000E+00 -0.00000000000E+00 -0.18500445684E+02  0.18500445860E+02  0.25500000000E-02 0. -1.
    5000001    1    1    2    0    0  0.44486777345E+01  0.11310278622E+03  0.10103160190E+04  0.10359302531E+04  0.19900000000E+03 0.  0.
   -5000001    1    1    2    0    0 -0.44486777345E+01 -0.11310278622E+03  0.22958175014E+04  0.23072041589E+04  0.19900000000E+03 0.  0.
<mgrwt>
<rscale>  0 0.49601295E+03</rscale>
<asrwt>0</asrwt>
<pdfrwt beam="1">  1        2 0.47494787E+00 0.49601295E+03</pdfrwt>
<pdfrwt beam="2">  1       -2 0.26429199E-02 0.49601295E+03</pdfrwt>
<totfact> 0.91453863E+02</totfact>
</mgrwt>
</event>
<event>
 4    1  0.4917371E-005  0.4333437E+03  0.7818608E-02  0.1032809E+00
          2   -1    0    0  501    0  0.00000000000E+00  0.00000000000E+00  0.88232734742E+02  0.88232734779E+02  0.25500000000E-02 0.  1.
         -2   -1    0    0    0  501 -0.00000000000E+00 -0.00000000000E+00 -0.53207799177E+03  0.53207799178E+03  0.25500000000E-02 0. -1.
    5000001    1    1    2    0    0 -0.72340972375E+02  0.33923948459E+02 -0.17753271099E+03  0.27839345185E+03  0.19900000000E+03 0.  0.
   -5000001    1    1    2    0    0  0.72340972375E+02 -0.33923948459E+02 -0.26631254604E+03  0.34191727470E+03  0.19900000000E+03 0.  0.
<mgrwt>
<rscale>  0 0.43334373E+03</rscale>
<asrwt>0</asrwt>
<pdfrwt beam="1">  1        2 0.12604677E-01 0.43334373E+03</pdfrwt>
<pdfrwt beam="2">  1       -2 0.76011140E-01 0.43334373E+03</pdfrwt>
<totfact> 0.77297430E+02</totfact>
</mgrwt>
</event>
<event>
 4    1  0.4917371E-005  0.4462073E+03  0.7818608E-02  0.1028859E+00
          2   -1    0    0  501    0  0.00000000000E+00  0.00000000000E+00  0.65622591815E+02  0.65622591864E+02  0.25500000000E-02 0.  1.
         -2   -1    0    0    0  501 -0.00000000000E+00 -0.00000000000E+00 -0.75850765749E+03  0.75850765749E+03  0.25500000000E-02 0. -1.
    5000001    1    1    2    0    0 -0.57745690843E+02  0.52658453218E+02 -0.46422577512E+03  0.51109103670E+03  0.19900000000E+03 0.  0.
   -5000001    1    1    2    0    0  0.57745690843E+02 -0.52658453218E+02 -0.22865929056E+03  0.31303921266E+03  0.19900000000E+03 0.  0.
<mgrwt>
<rscale>  0 0.44620730E+03</rscale>
<asrwt>0</asrwt>
<pdfrwt beam="1">  1        2 0.93746564E-02 0.44620730E+03</pdfrwt>
<pdfrwt beam="2">  1       -2 0.10835823E+00 0.44620730E+03</pdfrwt>
<totfact> 0.49623257E+02</totfact>
</mgrwt>
</event>
<event>
 4    1  0.4917371E-005  0.4897055E+03  0.7818608E-02  0.1016501E+00
         -2   -1    0    0    0  501 -0.00000000000E+00  0.00000000000E+00  0.11163262541E+03  0.11163262544E+03  0.25500000000E-02 0. -1.
          2   -1    0    0  501    0  0.00000000000E+00 -0.00000000000E+00 -0.53705513569E+03  0.53705513570E+03  0.25500000000E-02 0.  1.
    5000001    1    1    2    0    0  0.62565316622E+02  0.40498600652E+02 -0.51575386461E+02  0.21866772964E+03  0.19900000000E+03 0.  0.
   -5000001    1    1    2    0    0 -0.62565316622E+02 -0.40498600652E+02 -0.37384712382E+03  0.43002003149E+03  0.19900000000E+03 0.  0.
<mgrwt>
<rscale>  0 0.48970552E+03</rscale>
<asrwt>0</asrwt>
<pdfrwt beam="1">  1        2 0.76722161E-01 0.48970552E+03</pdfrwt>
<pdfrwt beam="2">  1       -2 0.15947518E-01 0.48970552E+03</pdfrwt>
<totfact> 0.19425103E+03</totfact>
</mgrwt>
</event>
<event>
 4    1  0.4917371E-005  0.6844870E+03  0.7818608E-02  0.9744136E-01
          2   -1    0    0  501    0  0.00000000000E+00  0.00000000000E+00  0.89317938430E+03  0.89317938431E+03  0.25500000000E-02 0.  1.
         -2   -1    0    0    0  501 -0.00000000000E+00 -0.00000000000E+00 -0.13113894178E+03  0.13113894180E+03  0.25500000000E-02 0. -1.
    5000001    1    1    2    0    0  0.27337685395E+03  0.21628920439E+02  0.30883351825E+03  0.45845594824E+03  0.19900000000E+03 0.  0.
   -5000001    1    1    2    0    0 -0.27337685395E+03 -0.21628920439E+02  0.45320692427E+03  0.56586237787E+03  0.19900000000E+03 0.  0.
<mgrwt>
<rscale>  0 0.68448696E+03</rscale>
<asrwt>0</asrwt>
<pdfrwt beam="1">  1        2 0.12759706E+00 0.68448696E+03</pdfrwt>
<pdfrwt beam="2">  1       -2 0.18734134E-01 0.68448696E+03</pdfrwt>
<totfact> 0.78887739E+02</totfact>
</mgrwt>
</event>
<event>
 4    1  0.4917371E-005  0.7368220E+03  0.7818608E-02  0.9656254E-01
         -2   -1    0    0    0  501 -0.00000000000E+00  0.00000000000E+00  0.28107978232E+03  0.28107978233E+03  0.25500000000E-02 0. -1.
          2   -1    0    0  501    0  0.00000000000E+00 -0.00000000000E+00 -0.48287597193E+03  0.48287597193E+03  0.25500000000E-02 0.  1.
    5000001    1    1    2    0    0 -0.87551977922E+02  0.29245924164E+03 -0.44795243725E+02  0.36715850898E+03  0.19900000000E+03 0.  0.
   -5000001    1    1    2    0    0  0.87551977922E+02 -0.29245924164E+03 -0.15700094588E+03  0.39679724528E+03  0.19900000000E+03 0.  0.
<mgrwt>
<rscale>  0 0.73682202E+03</rscale>
<asrwt>0</asrwt>
<pdfrwt beam="1">  1        2 0.68982281E-01 0.73682202E+03</pdfrwt>
<pdfrwt beam="2">  1       -2 0.40154255E-01 0.73682202E+03</pdfrwt>
<totfact> 0.41272472E+02</totfact>
</mgrwt>
</event>
<event>
 4    1  0.4917371E-005  0.6638073E+03  0.7818608E-02  0.9781210E-01
         -2   -1    0    0    0  501 -0.00000000000E+00  0.00000000000E+00  0.16142789852E+03  0.16142789854E+03  0.25500000000E-02 0. -1.
          2   -1    0    0  501    0  0.00000000000E+00 -0.00000000000E+00 -0.68241009536E+03  0.68241009536E+03  0.25500000000E-02 0.  1.
    5000001    1    1    2    0    0  0.18538720946E+03  0.17803664985E+03 -0.17527681284E+03  0.36930803842E+03  0.19900000000E+03 0.  0.
   -5000001    1    1    2    0    0 -0.18538720946E+03 -0.17803664985E+03 -0.34570538400E+03  0.47452995548E+03  0.19900000000E+03 0.  0.
<mgrwt>
<rscale>  0 0.66380728E+03</rscale>
<asrwt>0</asrwt>
<pdfrwt beam="1">  1        2 0.97487155E-01 0.66380728E+03</pdfrwt>
<pdfrwt beam="2">  1       -2 0.23061129E-01 0.66380728E+03</pdfrwt>
<totfact> 0.77239661E+02</totfact>
</mgrwt>
</event>
<event>
 4    1  0.4917371E-005  0.5556659E+03  0.7818608E-02  0.1000191E+00
         -2   -1    0    0    0  501 -0.00000000000E+00  0.00000000000E+00  0.64683672108E+03  0.64683672108E+03  0.25500000000E-02 0. -1.
          2   -1    0    0  501    0  0.00000000000E+00 -0.00000000000E+00 -0.11933637265E+03  0.11933637268E+03  0.25500000000E-02 0.  1.
    5000001    1    1    2    0    0  0.12133807894E+03  0.12583835771E+03  0.14812555727E+03  0.30348048107E+03  0.19900000000E+03 0.  0.
   -5000001    1    1    2    0    0 -0.12133807894E+03 -0.12583835771E+03  0.37937479116E+03  0.46269261269E+03  0.19900000000E+03 0.  0.
<mgrwt>
<rscale>  0 0.55566590E+03</rscale>
<asrwt>0</asrwt>
<pdfrwt beam="1">  1        2 0.17048053E-01 0.55566590E+03</pdfrwt>
<pdfrwt beam="2">  1       -2 0.92405249E-01 0.55566590E+03</pdfrwt>
<totfact> 0.34525802E+02</totfact>
</mgrwt>
</event>
<event>
 4    1  0.4917371E-005  0.5912715E+03  0.7818608E-02  0.9923682E-01
          2   -1    0    0  501    0  0.00000000000E+00  0.00000000000E+00  0.22278406996E+04  0.22278406996E+04  0.25500000000E-02 0.  1.
         -2   -1    0    0    0  501 -0.00000000000E+00 -0.00000000000E+00 -0.39231040364E+02  0.39231040446E+02  0.25500000000E-02 0. -1.
    5000001    1    1    2    0    0 -0.96327868145E+02 -0.19008162319E+03  0.12817288103E+04  0.13144732119E+04  0.19900000000E+03 0.  0.
   -5000001    1    1    2    0    0  0.96327868145E+02  0.19008162319E+03  0.90688084892E+03  0.95259852812E+03  0.19900000000E+03 0.  0.
<mgrwt>
<rscale>  0 0.59127154E+03</rscale>
<asrwt>0</asrwt>
<pdfrwt beam="1">  1        2 0.31826303E+00 0.59127154E+03</pdfrwt>
<pdfrwt beam="2">  1       -2 0.56044331E-02 0.59127154E+03</pdfrwt>
<totfact> 0.10940587E+03</totfact>
</mgrwt>
</event>
<event>
 4    1  0.4917371E-005  0.5175054E+03  0.7818608E-02  0.1009308E+00
          2   -1    0    0  501    0  0.00000000000E+00  0.00000000000E+00  0.23420927604E+03  0.23420927605E+03  0.25500000000E-02 0.  1.
         -2   -1    0    0    0  501 -0.00000000000E+00 -0.00000000000E+00 -0.28586813187E+03  0.28586813188E+03  0.25500000000E-02 0. -1.
    5000001    1    1    2    0    0  0.31342320320E+02 -0.12349136581E+03  0.80143734610E+02  0.24951247798E+03  0.19900000000E+03 0.  0.
   -5000001    1    1    2    0    0 -0.31342320320E+02  0.12349136581E+03 -0.13180259044E+03  0.27056492995E+03  0.19900000000E+03 0.  0.
<mgrwt>
<rscale>  0 0.51750543E+03</rscale>
<asrwt>0</asrwt>
<pdfrwt beam="1">  1        2 0.33458468E-01 0.51750543E+03</pdfrwt>
<pdfrwt beam="2">  1       -2 0.40838304E-01 0.51750543E+03</pdfrwt>
<totfact> 0.89601956E+02</totfact>
</mgrwt>
</event>
<event>
 4    1  0.4917371E-005  0.4411638E+03  0.7818608E-02  0.1030390E+00
         -2   -1    0    0    0  501 -0.00000000000E+00  0.00000000000E+00  0.14085996166E+03  0.14085996169E+03  0.25500000000E-02 0. -1.
          2   -1    0    0  501    0  0.00000000000E+00 -0.00000000000E+00 -0.34542378129E+03  0.34542378130E+03  0.25500000000E-02 0.  1.
    5000001    1    1    2    0    0 -0.20504475729E+02 -0.70718123716E+02 -0.35834816817E+02  0.21518973173E+03  0.19900000000E+03 0.  0.
   -5000001    1    1    2    0    0  0.20504475729E+02  0.70718123716E+02 -0.16872900281E+03  0.27109401125E+03  0.19900000000E+03 0.  0.
<mgrwt>
<rscale>  0 0.44116383E+03</rscale>
<asrwt>0</asrwt>
<pdfrwt beam="1">  1        2 0.49346254E-01 0.44116383E+03</pdfrwt>
<pdfrwt beam="2">  1       -2 0.20122852E-01 0.44116383E+03</pdfrwt>
<totfact> 0.21312269E+03</totfact>
</mgrwt>
</event>
<event>
 4    1  0.4917371E-005  0.4912718E+03  0.7818608E-02  0.1016083E+00
          2   -1    0    0  501    0  0.00000000000E+00  0.00000000000E+00  0.46499939952E+03  0.46499939953E+03  0.25500000000E-02 0.  1.
         -2   -1    0    0    0  501 -0.00000000000E+00 -0.00000000000E+00 -0.12975714640E+03  0.12975714643E+03  0.25500000000E-02 0. -1.
    5000001    1    1    2    0    0 -0.74039589019E+02 -0.11265515624E+03  0.22891082433E+03  0.33192500729E+03  0.19900000000E+03 0.  0.
   -5000001    1    1    2    0    0  0.74039589019E+02  0.11265515624E+03  0.10633142879E+03  0.26283153867E+03  0.19900000000E+03 0.  0.
<mgrwt>
<rscale>  0 0.49127180E+03</rscale>
<asrwt>0</asrwt>
<pdfrwt beam="1">  1        2 0.66428485E-01 0.49127180E+03</pdfrwt>
<pdfrwt beam="2">  1       -2 0.18536735E-01 0.49127180E+03</pdfrwt>
<totfact> 0.17698536E+03</totfact>
</mgrwt>
</event>
<event>
 4    1  0.4917371E-005  0.4748645E+03  0.7818608E-02  0.1020556E+00
          2   -1    0    0  501    0  0.00000000000E+00  0.00000000000E+00  0.37221205966E+03  0.37221205967E+03  0.25500000000E-02 0.  1.
         -2   -1    0    0    0  501 -0.00000000000E+00 -0.00000000000E+00 -0.15145683838E+03  0.15145683840E+03  0.25500000000E-02 0. -1.
    5000001    1    1    2    0    0 -0.97374019745E+02  0.55721253551E+02  0.39024505988E+02  0.23175519387E+03  0.19900000000E+03 0.  0.
   -5000001    1    1    2    0    0  0.97374019745E+02 -0.55721253551E+02  0.18173071529E+03  0.29191370420E+03  0.19900000000E+03 0.  0.
<mgrwt>
<rscale>  0 0.47486445E+03</rscale>
<asrwt>0</asrwt>
<pdfrwt beam="1">  1        2 0.53173151E-01 0.47486445E+03</pdfrwt>
<pdfrwt beam="2">  1       -2 0.21636691E-01 0.47486445E+03</pdfrwt>
<totfact> 0.17317549E+03</totfact>
</mgrwt>
</event>
<event>
 4    1  0.4917371E-005  0.4991281E+03  0.7818608E-02  0.1014007E+00
          2   -1    0    0  501    0  0.00000000000E+00  0.00000000000E+00  0.46720811659E+03  0.46720811660E+03  0.25500000000E-02 0.  1.
         -2   -1    0    0    0  501 -0.00000000000E+00 -0.00000000000E+00 -0.13330724008E+03  0.13330724010E+03  0.25500000000E-02 0. -1.
    5000001    1    1    2    0    0 -0.12184215495E+03 -0.78114203202E+02  0.11685222669E+03  0.27240187655E+03  0.19900000000E+03 0.  0.
   -5000001    1    1    2    0    0  0.12184215495E+03  0.78114203202E+02  0.21704864983E+03  0.32811348015E+03  0.19900000000E+03 0.  0.
<mgrwt>
<rscale>  0 0.49912814E+03</rscale>
<asrwt>0</asrwt>
<pdfrwt beam="1">  1        2 0.66744018E-01 0.49912814E+03</pdfrwt>
<pdfrwt beam="2">  1       -2 0.19043891E-01 0.49912814E+03</pdfrwt>
<totfact> 0.16807082E+03</totfact>
</mgrwt>
</event>
<event>
 4    1  0.4917371E-005  0.1211668E+04  0.7818608E-02  0.9102704E-01
          2   -1    0    0  501    0  0.00000000000E+00  0.00000000000E+00  0.93193733096E+03  0.93193733097E+03  0.25500000000E-02 0.  1.
         -2   -1    0    0    0  501 -0.00000000000E+00 -0.00000000000E+00 -0.39384075325E+03  0.39384075326E+03  0.25500000000E-02 0. -1.
    5000001    1    1    2    0    0  0.55819286670E+03 -0.11327618572E+03  0.20888721903E+03  0.63847133136E+03  0.19900000000E+03 0.  0.
   -5000001    1    1    2    0    0 -0.55819286670E+03  0.11327618572E+03  0.32920935869E+03  0.68730675287E+03  0.19900000000E+03 0.  0.
<mgrwt>
<rscale>  0 0.12116681E+04</rscale>
<asrwt>0</asrwt>
<pdfrwt beam="1">  1        2 0.13313391E+00 0.12116681E+04</pdfrwt>
<pdfrwt beam="2">  1       -2 0.56262964E-01 0.12116681E+04</pdfrwt>
<totfact> 0.90689246E+01</totfact>
</mgrwt>
</event>
<event>
 4    1  0.4917371E-005  0.8501402E+03  0.7818608E-02  0.9490149E-01
         -2   -1    0    0    0  501 -0.00000000000E+00  0.00000000000E+00  0.18072409163E+03  0.18072409165E+03  0.25500000000E-02 0. -1.
          2   -1    0    0  501    0  0.00000000000E+00 -0.00000000000E+00 -0.99978148662E+03  0.99978148662E+03  0.25500000000E-02 0.  1.
    5000001    1    1    2    0    0 -0.18020924623E+03 -0.32722525760E+03 -0.35518027700E+03  0.55254481339E+03  0.19900000000E+03 0.  0.
   -5000001    1    1    2    0    0  0.18020924623E+03  0.32722525760E+03 -0.46387711798E+03  0.62796076488E+03  0.19900000000E+03 0.  0.
<mgrwt>
<rscale>  0 0.85014023E+03</rscale>
<asrwt>0</asrwt>
<pdfrwt beam="1">  1        2 0.14282592E+00 0.85014023E+03</pdfrwt>
<pdfrwt beam="2">  1       -2 0.25817728E-01 0.85014023E+03</pdfrwt>
<totfact> 0.38028640E+02</totfact>
</mgrwt>
</event>
<event>
 4    1  0.4917371E-005  0.6539100E+03  0.7818608E-02  0.9799470E-01
         -2   -1    0    0    0  501 -0.00000000000E+00  0.00000000000E+00  0.36271427320E+02  0.36271427410E+02  0.25500000000E-02 0. -1.
          2   -1    0    0  501    0  0.00000000000E+00 -0.00000000000E+00 -0.29472119904E+04  0.29472119904E+04  0.25500000000E-02 0.  1.
    5000001    1    1    2    0    0 -0.23827610751E+03 -0.95262661653E+02 -0.16290927901E+04  0.16611426179E+04  0.19900000000E+03 0.  0.
   -5000001    1    1    2    0    0  0.23827610751E+03  0.95262661653E+02 -0.12818477729E+04  0.13223407999E+04  0.19900000000E+03 0.  0.
<mgrwt>
<rscale>  0 0.65391004E+03</rscale>
<asrwt>0</asrwt>
<pdfrwt beam="1">  1        2 0.42103013E+00 0.65391004E+03</pdfrwt>
<pdfrwt beam="2">  1       -2 0.51816344E-02 0.65391004E+03</pdfrwt>
<totfact> 0.52038229E+02</totfact>
</mgrwt>
</event>
<event>
 4    1  0.4917371E-005  0.5113411E+03  0.7818608E-02  0.1010860E+00
         -2   -1    0    0    0  501 -0.00000000000E+00  0.00000000000E+00  0.60735256944E+03  0.60735256945E+03  0.25500000000E-02 0. -1.
          2   -1    0    0  501    0  0.00000000000E+00 -0.00000000000E+00 -0.10762684534E+03  0.10762684537E+03  0.25500000000E-02 0.  1.
    5000001    1    1    2    0    0 -0.58324647469E+02  0.94974253750E+02  0.41138611596E+03  0.47038432136E+03  0.19900000000E+03 0.  0.
   -5000001    1    1    2    0    0  0.58324647469E+02 -0.94974253750E+02  0.88339608138E+02  0.24459509346E+03  0.19900000000E+03 0.  0.
<mgrwt>
<rscale>  0 0.51134114E+03</rscale>
<asrwt>0</asrwt>
<pdfrwt beam="1">  1        2 0.15375264E-01 0.51134114E+03</pdfrwt>
<pdfrwt beam="2">  1       -2 0.86764651E-01 0.51134114E+03</pdfrwt>
<totfact> 0.45162435E+02</totfact>
</mgrwt>
</event>
<event>
 4    1  0.4917371E-005  0.4379188E+03  0.7818608E-02  0.1031387E+00
         -2   -1    0    0    0  501 -0.00000000000E+00  0.00000000000E+00  0.10880511824E+03  0.10880511827E+03  0.25500000000E-02 0. -1.
          2   -1    0    0  501    0  0.00000000000E+00 -0.00000000000E+00 -0.44063388157E+03  0.44063388157E+03  0.25500000000E-02 0.  1.
    5000001    1    1    2    0    0  0.84987343836E+02  0.25232761866E+01 -0.20777201264E+03  0.29999904128E+03  0.19900000000E+03 0.  0.
   -5000001    1    1    2    0    0 -0.84987343836E+02 -0.25232761866E+01 -0.12405675069E+03  0.24943995856E+03  0.19900000000E+03 0.  0.
<mgrwt>
<rscale>  0 0.43791881E+03</rscale>
<asrwt>0</asrwt>
<pdfrwt beam="1">  1        2 0.62947697E-01 0.43791881E+03</pdfrwt>
<pdfrwt beam="2">  1       -2 0.15543588E-01 0.43791881E+03</pdfrwt>
<totfact> 0.25311499E+03</totfact>
</mgrwt>
</event>
<event>
 4    1  0.4917371E-005  0.1012310E+04  0.7818608E-02  0.9295145E-01
         -2   -1    0    0    0  501 -0.00000000000E+00  0.00000000000E+00  0.22098151601E+03  0.22098151602E+03  0.25500000000E-02 0. -1.
          2   -1    0    0  501    0  0.00000000000E+00 -0.00000000000E+00 -0.11593409859E+04  0.11593409859E+04  0.25500000000E-02 0.  1.
    5000001    1    1    2    0    0 -0.78236934613E+02  0.35255774446E+02  0.15452184435E+03  0.26616158241E+03  0.19900000000E+03 0.  0.
   -5000001    1    1    2    0    0  0.78236934613E+02 -0.35255774446E+02 -0.10928813142E+04  0.11141609195E+04  0.19900000000E+03 0.  0.
<mgrwt>
<rscale>  0 0.10123101E+04</rscale>
<asrwt>0</asrwt>
<pdfrwt beam="1">  1        2 0.16562014E+00 0.10123101E+04</pdfrwt>
<pdfrwt beam="2">  1       -2 0.31568789E-01 0.10123101E+04</pdfrwt>
<totfact> 0.20916729E+02</totfact>
</mgrwt>
</event>
<event>
 4    1  0.4917371E-005  0.7048355E+03  0.7818608E-02  0.9708998E-01
         -2   -1    0    0    0  501 -0.00000000000E+00  0.00000000000E+00  0.38271450801E+03  0.38271450802E+03  0.25500000000E-02 0. -1.
          2   -1    0    0  501    0  0.00000000000E+00 -0.00000000000E+00 -0.32451941197E+03  0.32451941198E+03  0.25500000000E-02 0.  1.
    5000001    1    1    2    0    0  0.25298879718E+03  0.14093735432E+03  0.56219465810E+02  0.35584870054E+03  0.19900000000E+03 0.  0.
   -5000001    1    1    2    0    0 -0.25298879718E+03 -0.14093735432E+03  0.19756302281E+01  0.35138521946E+03  0.19900000000E+03 0.  0.
<mgrwt>
<rscale>  0 0.70483555E+03</rscale>
<asrwt>0</asrwt>
<pdfrwt beam="1">  1        2 0.46359916E-01 0.70483555E+03</pdfrwt>
<pdfrwt beam="2">  1       -2 0.54673501E-01 0.70483555E+03</pdfrwt>
<totfact> 0.34684413E+02</totfact>
</mgrwt>
</event>
<event>
 4    1  0.4917371E-005  0.5479467E+03  0.7818608E-02  0.1001970E+00
          2   -1    0    0  501    0  0.00000000000E+00  0.00000000000E+00  0.83074698097E+03  0.83074698098E+03  0.25500000000E-02 0.  1.
         -2   -1    0    0    0  501 -0.00000000000E+00 -0.00000000000E+00 -0.90354103285E+02  0.90354103321E+02  0.25500000000E-02 0. -1.
    5000001    1    1    2    0    0  0.45357106337E+02 -0.16372831577E+03  0.23367058731E+03  0.35080930982E+03  0.19900000000E+03 0.  0.
   -5000001    1    1    2    0    0 -0.45357106337E+02  0.16372831577E+03  0.50672229037E+03  0.57029177448E+03  0.19900000000E+03 0.  0.
<mgrwt>
<rscale>  0 0.54794671E+03</rscale>
<asrwt>0</asrwt>
<pdfrwt beam="1">  1        2 0.11867814E+00 0.54794671E+03</pdfrwt>
<pdfrwt beam="2">  1       -2 0.12907729E-01 0.54794671E+03</pdfrwt>
<totfact> 0.16337082E+03</totfact>
</mgrwt>
</event>
<event>
 4    1  0.4917371E-005  0.4600719E+03  0.7818608E-02  0.1024760E+00
         -2   -1    0    0    0  501 -0.00000000000E+00  0.00000000000E+00  0.68273301170E+02  0.68273301218E+02  0.25500000000E-02 0. -1.
          2   -1    0    0  501    0  0.00000000000E+00 -0.00000000000E+00 -0.77506926975E+03  0.77506926976E+03  0.25500000000E-02 0.  1.
    5000001    1    1    2    0    0  0.18279399757E+02  0.10185144488E+03 -0.44700444697E+03  0.50012181405E+03  0.19900000000E+03 0.  0.
   -5000001    1    1    2    0    0 -0.18279399757E+02 -0.10185144488E+03 -0.25979152161E+03  0.34322075692E+03  0.19900000000E+03 0.  0.
<mgrwt>
<rscale>  0 0.46007190E+03</rscale>
<asrwt>0</asrwt>
<pdfrwt beam="1">  1        2 0.11072418E+00 0.46007190E+03</pdfrwt>
<pdfrwt beam="2">  1       -2 0.97533292E-02 0.46007190E+03</pdfrwt>
<totfact> 0.28166810E+03</totfact>
</mgrwt>
</event>
<event>
 4    1  0.4917371E-005  0.4928429E+03  0.7818608E-02  0.1015664E+00
          2   -1    0    0  501    0  0.00000000000E+00  0.00000000000E+00  0.15808043544E+04  0.15808043544E+04  0.25500000000E-02 0.  1.
         -2   -1    0    0    0  501 -0.00000000000E+00 -0.00000000000E+00 -0.38413066136E+02  0.38413066220E+02  0.25500000000E-02 0. -1.
    5000001    1    1    2    0    0 -0.10107214228E+03  0.21787982757E+01  0.11142429694E+04  0.11363796548E+04  0.19900000000E+03 0.  0.
   -5000001    1    1    2    0    0  0.10107214228E+03 -0.21787982757E+01  0.42814831887E+03  0.48283776577E+03  0.19900000000E+03 0.  0.
<mgrwt>
<rscale>  0 0.49284295E+03</rscale>
<asrwt>0</asrwt>
<pdfrwt beam="1">  1        2 0.22582922E+00 0.49284295E+03</pdfrwt>
<pdfrwt beam="2">  1       -2 0.54875802E-02 0.49284295E+03</pdfrwt>
<totfact> 0.24032071E+03</totfact>
</mgrwt>
</event>
<event>
 4    1  0.4917371E-005  0.6812761E+03  0.7818608E-02  0.9749799E-01
          2   -1    0    0  501    0  0.00000000000E+00  0.00000000000E+00  0.15816521109E+04  0.15816521109E+04  0.25500000000E-02 0.  1.
         -2   -1    0    0    0  501 -0.00000000000E+00 -0.00000000000E+00 -0.73362702616E+02  0.73362702661E+02  0.25500000000E-02 0. -1.
    5000001    1    1    2    0    0  0.22612064460E+03  0.66866079410E+02  0.40352151691E+03  0.50796873240E+03  0.19900000000E+03 0.  0.
   -5000001    1    1    2    0    0 -0.22612064460E+03 -0.66866079410E+02  0.11047678914E+04  0.11470460812E+04  0.19900000000E+03 0.  0.
<mgrwt>
<rscale>  0 0.68127608E+03</rscale>
<asrwt>0</asrwt>
<pdfrwt beam="1">  1        2 0.22595029E+00 0.68127608E+03</pdfrwt>
<pdfrwt beam="2">  1       -2 0.10480386E-01 0.68127608E+03</pdfrwt>
<totfact> 0.85313028E+02</totfact>
</mgrwt>
</event>
<event>
 4    1  0.4917371E-005  0.6703427E+03  0.7818608E-02  0.9769339E-01
          2   -1    0    0  501    0  0.00000000000E+00  0.00000000000E+00  0.21741684334E+03  0.21741684336E+03  0.25500000000E-02 0.  1.
         -2   -1    0    0    0  501 -0.00000000000E+00 -0.00000000000E+00 -0.51670252764E+03  0.51670252765E+03  0.25500000000E-02 0. -1.
    5000001    1    1    2    0    0 -0.21978740857E+03 -0.13334523950E+03 -0.60327614879E+02  0.33064766592E+03  0.19900000000E+03 0.  0.
   -5000001    1    1    2    0    0  0.21978740857E+03  0.13334523950E+03 -0.23895806942E+03  0.40347170508E+03  0.19900000000E+03 0.  0.
<mgrwt>
<rscale>  0 0.67034270E+03</rscale>
<asrwt>0</asrwt>
<pdfrwt beam="1">  1        2 0.31059549E-01 0.67034270E+03</pdfrwt>
<pdfrwt beam="2">  1       -2 0.73814646E-01 0.67034270E+03</pdfrwt>
<totfact> 0.28578583E+02</totfact>
</mgrwt>
</event>
<event>
 4    1  0.4917371E-005  0.9356331E+03  0.7818608E-02  0.9382103E-01
          2   -1    0    0  501    0  0.00000000000E+00  0.00000000000E+00  0.18946783217E+04  0.18946783217E+04  0.25500000000E-02 0.  1.
         -2   -1    0    0    0  501 -0.00000000000E+00 -0.00000000000E+00 -0.11550895358E+03  0.11550895361E+03  0.25500000000E-02 0. -1.
    5000001    1    1    2    0    0  0.40722868037E+03  0.11174834047E+03  0.82412056235E+03  0.94715288682E+03  0.19900000000E+03 0.  0.
   -5000001    1    1    2    0    0 -0.40722868037E+03 -0.11174834047E+03  0.95504880574E+03  0.10630343885E+04  0.19900000000E+03 0.  0.
<mgrwt>
<rscale>  0 0.93563307E+03</rscale>
<asrwt>0</asrwt>
<pdfrwt beam="1">  1        2 0.27066833E+00 0.93563307E+03</pdfrwt>
<pdfrwt beam="2">  1       -2 0.16501279E-01 0.93563307E+03</pdfrwt>
<totfact> 0.27218795E+02</totfact>
</mgrwt>
</event>
<event>
 4    1  0.4917371E-005  0.4426750E+03  0.7818608E-02  0.1029929E+00
          2   -1    0    0  501    0  0.00000000000E+00  0.00000000000E+00  0.29200018879E+04  0.29200018879E+04  0.25500000000E-02 0.  1.
         -2   -1    0    0    0  501 -0.00000000000E+00 -0.00000000000E+00 -0.16777483215E+02  0.16777483409E+02  0.25500000000E-02 0. -1.
    5000001    1    1    2    0    0 -0.25466400389E+02 -0.73341935870E+02  0.18362626177E+04  0.18486451737E+04  0.19900000000E+03 0.  0.
   -5000001    1    1    2    0    0  0.25466400389E+02  0.73341935870E+02  0.10669617869E+04  0.10881341975E+04  0.19900000000E+03 0.  0.
<mgrwt>
<rscale>  0 0.44267497E+03</rscale>
<asrwt>0</asrwt>
<pdfrwt beam="1">  1        2 0.41714319E+00 0.44267497E+03</pdfrwt>
<pdfrwt beam="2">  1       -2 0.23967829E-02 0.44267497E+03</pdfrwt>
<totfact> 0.17787632E+03</totfact>
</mgrwt>
</event>
<event>
 4    1  0.4917371E-005  0.6159371E+03  0.7818608E-02  0.9872882E-01
         -2   -1    0    0    0  501 -0.00000000000E+00  0.00000000000E+00  0.28869450731E+02  0.28869450844E+02  0.25500000000E-02 0. -1.
          2   -1    0    0  501    0  0.00000000000E+00 -0.00000000000E+00 -0.32852935467E+04  0.32852935467E+04  0.25500000000E-02 0.  1.
    5000001    1    1    2    0    0  0.15053721021E+03 -0.17262521319E+03 -0.13443737061E+04  0.13781881502E+04  0.19900000000E+03 0.  0.
   -5000001    1    1    2    0    0 -0.15053721021E+03  0.17262521319E+03 -0.19120503899E+04  0.19359748473E+04  0.19900000000E+03 0.  0.
<mgrwt>
<rscale>  0 0.61593708E+03</rscale>
<asrwt>0</asrwt>
<pdfrwt beam="1">  1        2 0.46932741E+00 0.61593708E+03</pdfrwt>
<pdfrwt beam="2">  1       -2 0.41242094E-02 0.61593708E+03</pdfrwt>
<totfact> 0.48275020E+02</totfact>
</mgrwt>
</event>
<event>
 4    1  0.4917371E-005  0.4561667E+03  0.7818608E-02  0.1025899E+00
         -2   -1    0    0    0  501 -0.00000000000E+00  0.00000000000E+00  0.14322366787E+03  0.14322366789E+03  0.25500000000E-02 0. -1.
          2   -1    0    0  501    0  0.00000000000E+00 -0.00000000000E+00 -0.36322226827E+03  0.36322226828E+03  0.25500000000E-02 0.  1.
    5000001    1    1    2    0    0 -0.56966948107E+02 -0.95581149535E+02 -0.11702413124E+03  0.25627453369E+03  0.19900000000E+03 0.  0.
   -5000001    1    1    2    0    0  0.56966948107E+02  0.95581149535E+02 -0.10297446916E+03  0.25017140249E+03  0.19900000000E+03 0.  0.
<mgrwt>
<rscale>  0 0.45616675E+03</rscale>
<asrwt>0</asrwt>
<pdfrwt beam="1">  1        2 0.51888895E-01 0.45616675E+03</pdfrwt>
<pdfrwt beam="2">  1       -2 0.20460524E-01 0.45616675E+03</pdfrwt>
<totfact> 0.19603470E+03</totfact>
</mgrwt>
</event>
<event>
 4    1  0.4917371E-005  0.1142245E+04  0.7818608E-02  0.9164968E-01
          2   -1    0    0  501    0  0.00000000000E+00  0.00000000000E+00  0.82268426390E+03  0.82268426391E+03  0.25500000000E-02 0.  1.
         -2   -1    0    0    0  501 -0.00000000000E+00 -0.00000000000E+00 -0.39648362521E+03  0.39648362521E+03  0.25500000000E-02 0. -1.
    5000001    1    1    2    0    0  0.47409793826E+03  0.11449985166E+03  0.44864440457E+03  0.69192620477E+03  0.19900000000E+03 0.  0.
   -5000001    1    1    2    0    0 -0.47409793826E+03 -0.11449985166E+03 -0.22443765878E+02  0.52724168435E+03  0.19900000000E+03 0.  0.
<mgrwt>
<rscale>  0 0.11422449E+04</rscale>
<asrwt>0</asrwt>
<pdfrwt beam="1">  1        2 0.11752632E+00 0.11422449E+04</pdfrwt>
<pdfrwt beam="2">  1       -2 0.56640519E-01 0.11422449E+04</pdfrwt>
<totfact> 0.10618256E+02</totfact>
</mgrwt>
</event>
<event>
 4    1  0.4917371E-005  0.7488319E+03  0.7818608E-02  0.9637185E-01
         -2   -1    0    0    0  501 -0.00000000000E+00  0.00000000000E+00  0.10977565592E+03  0.10977565595E+03  0.25500000000E-02 0. -1.
          2   -1    0    0  501    0  0.00000000000E+00 -0.00000000000E+00 -0.12770346448E+04  0.12770346448E+04  0.25500000000E-02 0.  1.
    5000001    1    1    2    0    0  0.25777477213E+03  0.17298495052E+03 -0.70386022830E+03  0.79460169093E+03  0.19900000000E+03 0.  0.
   -5000001    1    1    2    0    0 -0.25777477213E+03 -0.17298495052E+03 -0.46339876063E+03  0.59220860987E+03  0.19900000000E+03 0.  0.
<mgrwt>
<rscale>  0 0.74883193E+03</rscale>
<asrwt>0</asrwt>
<pdfrwt beam="1">  1        2 0.18243351E+00 0.74883193E+03</pdfrwt>
<pdfrwt beam="2">  1       -2 0.15682237E-01 0.74883193E+03</pdfrwt>
<totfact> 0.63200879E+02</totfact>
</mgrwt>
</event>
<event>
 4    1  0.4917371E-005  0.4930913E+03  0.7818608E-02  0.1015598E+00
          2   -1    0    0  501    0  0.00000000000E+00  0.00000000000E+00  0.54842124259E+03  0.54842124259E+03  0.25500000000E-02 0.  1.
         -2   -1    0    0    0  501 -0.00000000000E+00 -0.00000000000E+00 -0.11083587174E+03  0.11083587177E+03  0.25500000000E-02 0. -1.
    5000001    1    1    2    0    0 -0.61141675695E+02  0.77084679689E+02  0.36218983716E+03  0.42480916950E+03  0.19900000000E+03 0.  0.
   -5000001    1    1    2    0    0  0.61141675695E+02 -0.77084679689E+02  0.75395533692E+02  0.23444794486E+03  0.19900000000E+03 0.  0.
<mgrwt>
<rscale>  0 0.49309126E+03</rscale>
<asrwt>0</asrwt>
<pdfrwt beam="1">  1        2 0.78345891E-01 0.49309126E+03</pdfrwt>
<pdfrwt beam="2">  1       -2 0.15833696E-01 0.49309126E+03</pdfrwt>
<totfact> 0.19195773E+03</totfact>
</mgrwt>
</event>
<event>
 4    1  0.4917371E-005  0.6230874E+03  0.7818608E-02  0.9858632E-01
         -2   -1    0    0    0  501 -0.00000000000E+00  0.00000000000E+00  0.32653298606E+02  0.32653298705E+02  0.25500000000E-02 0. -1.
          2   -1    0    0  501    0  0.00000000000E+00 -0.00000000000E+00 -0.29724252989E+04  0.29724252989E+04  0.25500000000E-02 0.  1.
    5000001    1    1    2    0    0 -0.12927522246E+03  0.14377466875E+03 -0.21532267867E+04  0.21710296713E+04  0.19900000000E+03 0.  0.
   -5000001    1    1    2    0    0  0.12927522246E+03 -0.14377466875E+03 -0.78654521359E+03  0.83404892634E+03  0.19900000000E+03 0.  0.
<mgrwt>
<rscale>  0 0.62308744E+03</rscale>
<asrwt>0</asrwt>
<pdfrwt beam="1">  1        2 0.42463201E+00 0.62308744E+03</pdfrwt>
<pdfrwt beam="2">  1       -2 0.46647588E-02 0.62308744E+03</pdfrwt>
<totfact> 0.59532615E+02</totfact>
</mgrwt>
</event>
<event>
 4    1  0.4917371E-005  0.4868672E+03  0.7818608E-02  0.1017265E+00
          2   -1    0    0  501    0  0.00000000000E+00  0.00000000000E+00  0.99484571563E+02  0.99484571596E+02  0.25500000000E-02 0.  1.
         -2   -1    0    0    0  501 -0.00000000000E+00 -0.00000000000E+00 -0.59566942124E+03  0.59566942125E+03  0.25500000000E-02 0. -1.
    5000001    1    1    2    0    0  0.70281624782E+02  0.28824064665E+02 -0.79825217888E+02  0.22747175406E+03  0.19900000000E+03 0.  0.
   -5000001    1    1    2    0    0 -0.70281624782E+02 -0.28824064665E+02 -0.41635963179E+03  0.46768223878E+03  0.19900000000E+03 0.  0.
<mgrwt>
<rscale>  0 0.48686720E+03</rscale>
<asrwt>0</asrwt>
<pdfrwt beam="1">  1        2 0.14212082E-01 0.48686720E+03</pdfrwt>
<pdfrwt beam="2">  1       -2 0.85095630E-01 0.48686720E+03</pdfrwt>
<totfact> 0.51911563E+02</totfact>
</mgrwt>
</event>
<event>
 4    1  0.4917371E-005  0.6847799E+03  0.7818608E-02  0.9743620E-01
          2   -1    0    0  501    0  0.00000000000E+00  0.00000000000E+00  0.51953235593E+03  0.51953235593E+03  0.25500000000E-02 0.  1.
         -2   -1    0    0    0  501 -0.00000000000E+00 -0.00000000000E+00 -0.22564693955E+03  0.22564693957E+03  0.25500000000E-02 0. -1.
    5000001    1    1    2    0    0 -0.22903544227E+03 -0.14007332920E+03  0.22802741991E+03  0.40456801109E+03  0.19900000000E+03 0.  0.
   -5000001    1    1    2    0    0  0.22903544227E+03  0.14007332920E+03  0.65857996461E+02  0.34061128441E+03  0.19900000000E+03 0.  0.
<mgrwt>
<rscale>  0 0.68477992E+03</rscale>
<asrwt>0</asrwt>
<pdfrwt beam="1">  1        2 0.74218909E-01 0.68477992E+03</pdfrwt>
<pdfrwt beam="2">  1       -2 0.32235276E-01 0.68477992E+03</pdfrwt>
<totfact> 0.57829476E+02</totfact>
</mgrwt>
</event>
<event>
 4    1  0.4917371E-005  0.4998061E+03  0.7818608E-02  0.1013830E+00
         -2   -1    0    0    0  501 -0.00000000000E+00  0.00000000000E+00  0.68170083352E+02  0.68170083400E+02  0.25500000000E-02 0. -1.
          2   -1    0    0  501    0  0.00000000000E+00 -0.00000000000E+00 -0.91611368652E+03  0.91611368652E+03  0.25500000000E-02 0.  1.
    5000001    1    1    2    0    0 -0.14525232587E+03  0.25782707903E+02 -0.48891675092E+03  0.54809084606E+03  0.19900000000E+03 0.  0.
   -5000001    1    1    2    0    0  0.14525232587E+03 -0.25782707903E+02 -0.35902685225E+03  0.43619292387E+03  0.19900000000E+03 0.  0.
<mgrwt>
<rscale>  0 0.49980615E+03</rscale>
<asrwt>0</asrwt>
<pdfrwt beam="1">  1        2 0.13087338E+00 0.49980615E+03</pdfrwt>
<pdfrwt beam="2">  1       -2 0.97385839E-02 0.49980615E+03</pdfrwt>
<totfact> 0.22754521E+03</totfact>
</mgrwt>
</event>
<event>
 4    1  0.4917371E-005  0.4900835E+03  0.7818608E-02  0.1016400E+00
          2   -1    0    0  501    0  0.00000000000E+00  0.00000000000E+00  0.18616385566E+04  0.18616385566E+04  0.25500000000E-02 0.  1.
         -2   -1    0    0    0  501 -0.00000000000E+00 -0.00000000000E+00 -0.32254086722E+02  0.32254086823E+02  0.25500000000E-02 0. -1.
    5000001    1    1    2    0    0 -0.49228115631E+02 -0.12431201280E+03  0.71887710205E+03  0.75780087870E+03  0.19900000000E+03 0.  0.
   -5000001    1    1    2    0    0  0.49228115631E+02  0.12431201280E+03  0.11105073678E+04  0.11360917647E+04  0.19900000000E+03 0.  0.
<mgrwt>
<rscale>  0 0.49008347E+03</rscale>
<asrwt>0</asrwt>
<pdfrwt beam="1">  1        2 0.26594841E+00 0.49008347E+03</pdfrwt>
<pdfrwt beam="2">  1       -2 0.46077259E-02 0.49008347E+03</pdfrwt>
<totfact> 0.22717126E+03</totfact>
</mgrwt>
</event>
<event>
 4    1  0.4917371E-005  0.6988714E+03  0.7818608E-02  0.9719164E-01
          2   -1    0    0  501    0  0.00000000000E+00  0.00000000000E+00  0.31915190846E+04  0.31915190846E+04  0.25500000000E-02 0.  1.
         -2   -1    0    0    0  501 -0.00000000000E+00 -0.00000000000E+00 -0.38259312184E+02  0.38259312269E+02  0.25500000000E-02 0. -1.
    5000001    1    1    2    0    0  0.12705059054E+03 -0.28196192631E+02  0.27599971894E+04  0.27702206344E+04  0.19900000000E+03 0.  0.
   -5000001    1    1    2    0    0 -0.12705059054E+03  0.28196192631E+02  0.39326258303E+03  0.45955776247E+03  0.19900000000E+03 0.  0.
<mgrwt>
<rscale>  0 0.69887145E+03</rscale>
<asrwt>0</asrwt>
<pdfrwt beam="1">  1        2 0.45593152E+00 0.69887145E+03</pdfrwt>
<pdfrwt beam="2">  1       -2 0.54656134E-02 0.69887145E+03</pdfrwt>
<totfact> 0.34945969E+02</totfact>
</mgrwt>
</event>
<event>
 4    1  0.4917371E-005  0.4779096E+03  0.7818608E-02  0.1019711E+00
          2   -1    0    0  501    0  0.00000000000E+00  0.00000000000E+00  0.75879909965E+03  0.75879909966E+03  0.25500000000E-02 0.  1.
         -2   -1    0    0    0  501 -0.00000000000E+00 -0.00000000000E+00 -0.75249675844E+02  0.75249675887E+02  0.25500000000E-02 0. -1.
    5000001    1    1    2    0    0  0.60589107092E+02 -0.56128973088E+02  0.16144470005E+03  0.26923389960E+03  0.19900000000E+03 0.  0.
   -5000001    1    1    2    0    0 -0.60589107092E+02  0.56128973088E+02  0.52210472376E+03  0.56481487595E+03  0.19900000000E+03 0.  0.
<mgrwt>
<rscale>  0 0.47790956E+03</rscale>
<asrwt>0</asrwt>
<pdfrwt beam="1">  1        2 0.10839987E+00 0.47790956E+03</pdfrwt>
<pdfrwt beam="2">  1       -2 0.10749954E-01 0.47790956E+03</pdfrwt>
<totfact> 0.24723614E+03</totfact>
</mgrwt>
</event>
<event>
 4    1  0.4917371E-005  0.6218405E+03  0.7818608E-02  0.9861102E-01
         -2   -1    0    0    0  501 -0.00000000000E+00  0.00000000000E+00  0.10110773189E+03  0.10110773192E+03  0.25500000000E-02 0. -1.
          2   -1    0    0  501    0  0.00000000000E+00 -0.00000000000E+00 -0.95612263804E+03  0.95612263805E+03  0.25500000000E-02 0.  1.
    5000001    1    1    2    0    0 -0.21635554022E+03 -0.60677589318E+02 -0.56540843213E+03  0.64013997278E+03  0.19900000000E+03 0.  0.
   -5000001    1    1    2    0    0  0.21635554022E+03  0.60677589318E+02 -0.28960647403E+03  0.41709039719E+03  0.19900000000E+03 0.  0.
<mgrwt>
<rscale>  0 0.62184047E+03</rscale>
<asrwt>0</asrwt>
<pdfrwt beam="1">  1        2 0.13658894E+00 0.62184047E+03</pdfrwt>
<pdfrwt beam="2">  1       -2 0.14443962E-01 0.62184047E+03</pdfrwt>
<totfact> 0.11220063E+03</totfact>
</mgrwt>
</event>
<event>
 4    1  0.4917371E-005  0.4653168E+03  0.7818608E-02  0.1023250E+00
          2   -1    0    0  501    0  0.00000000000E+00  0.00000000000E+00  0.44752355333E+03  0.44752355333E+03  0.25500000000E-02 0.  1.
         -2   -1    0    0    0  501 -0.00000000000E+00 -0.00000000000E+00 -0.12095439656E+03  0.12095439659E+03  0.25500000000E-02 0. -1.
    5000001    1    1    2    0    0 -0.54398153590E+02  0.97489163502E+02  0.21881010904E+03  0.31613629961E+03  0.19900000000E+03 0.  0.
   -5000001    1    1    2    0    0  0.54398153590E+02 -0.97489163502E+02  0.10775904772E+03  0.25234165031E+03  0.19900000000E+03 0.  0.
<mgrwt>
<rscale>  0 0.46531684E+03</rscale>
<asrwt>0</asrwt>
<pdfrwt beam="1">  1        2 0.63931937E-01 0.46531684E+03</pdfrwt>
<pdfrwt beam="2">  1       -2 0.17279199E-01 0.46531684E+03</pdfrwt>
<totfact> 0.20819026E+03</totfact>
</mgrwt>
</event>
<event>
 4    1  0.4917371E-005  0.4570710E+03  0.7818608E-02  0.1025634E+00
          2   -1    0    0  501    0  0.00000000000E+00  0.00000000000E+00  0.10761597455E+04  0.10761597455E+04  0.25500000000E-02 0.  1.
         -2   -1    0    0    0  501 -0.00000000000E+00 -0.00000000000E+00 -0.48532277117E+02  0.48532277184E+02  0.25500000000E-02 0. -1.
    5000001    1    1    2    0    0  0.15821779144E+02  0.11124976036E+03  0.51579017113E+03  0.56415187539E+03  0.19900000000E+03 0.  0.
   -5000001    1    1    2    0    0 -0.15821779144E+02 -0.11124976036E+03  0.51183729730E+03  0.56054014734E+03  0.19900000000E+03 0.  0.
<mgrwt>
<rscale>  0 0.45707104E+03</rscale>
<asrwt>0</asrwt>
<pdfrwt beam="1">  1        2 0.15373709E+00 0.45707104E+03</pdfrwt>
<pdfrwt beam="2">  1       -2 0.69331831E-02 0.45707104E+03</pdfrwt>
<totfact> 0.31219095E+03</totfact>
</mgrwt>
</event>
<event>
 4    1  0.4917371E-005  0.6285997E+03  0.7818608E-02  0.9847785E-01
         -2   -1    0    0    0  501 -0.00000000000E+00  0.00000000000E+00  0.17390657311E+03  0.17390657313E+03  0.25500000000E-02 0.  1.
          2   -1    0    0  501    0  0.00000000000E+00 -0.00000000000E+00 -0.56803134405E+03  0.56803134405E+03  0.25500000000E-02 0. -1.
    5000001    1    1    2    0    0  0.19909621352E+03 -0.23051608974E+02 -0.35981028159E+03  0.45742225312E+03  0.19900000000E+03 0.  0.
   -5000001    1    1    2    0    0 -0.19909621352E+03  0.23051608974E+02 -0.34314489350E+02  0.28451566406E+03  0.19900000000E+03 0.  0.
<mgrwt>
<rscale>  0 0.62859966E+03</rscale>
<asrwt>0</asrwt>
<pdfrwt beam="1">  1        2 0.81147334E-01 0.62859966E+03</pdfrwt>
<pdfrwt beam="2">  1       -2 0.24843796E-01 0.62859966E+03</pdfrwt>
<totfact> 0.84177602E+02</totfact>
</mgrwt>
</event>
<event>
 4    1  0.4917371E-005  0.7421462E+03  0.7818608E-02  0.9647753E-01
         -2   -1    0    0    0  501 -0.00000000000E+00  0.00000000000E+00  0.11288761983E+04  0.11288761983E+04  0.25500000000E-02 0. -1.
          2   -1    0    0  501    0  0.00000000000E+00 -0.00000000000E+00 -0.12197551767E+03  0.12197551770E+03  0.25500000000E-02 0.  1.
    5000001    1    1    2    0    0 -0.18494501495E+03  0.24179196463E+03  0.62760587329E+03  0.72536759295E+03  0.19900000000E+03 0.  0.
   -5000001    1    1    2    0    0  0.18494501495E+03 -0.24179196463E+03  0.37929480736E+03  0.52548412307E+03  0.19900000000E+03 0.  0.
<mgrwt>
<rscale>  0 0.74214624E+03</rscale>
<asrwt>0</asrwt>
<pdfrwt beam="1">  1        2 0.17425075E-01 0.74214624E+03</pdfrwt>
<pdfrwt beam="2">  1       -2 0.16126802E+00 0.74214624E+03</pdfrwt>
<totfact> 0.83540330E+01</totfact>
</mgrwt>
</event>
<event>
 4    1  0.4917371E-005  0.4879072E+03  0.7818608E-02  0.1016984E+00
         -2   -1    0    0    0  501 -0.00000000000E+00  0.00000000000E+00  0.68110551990E+02  0.68110552038E+02  0.25500000000E-02 0. -1.
          2   -1    0    0  501    0  0.00000000000E+00 -0.00000000000E+00 -0.87377579542E+03  0.87377579542E+03  0.25500000000E-02 0.  1.
    5000001    1    1    2    0    0  0.62907263747E+02 -0.80985391466E+02 -0.21570326805E+03  0.31087756000E+03  0.19900000000E+03 0.  0.
   -5000001    1    1    2    0    0 -0.62907263747E+02  0.80985391466E+02 -0.58996197537E+03  0.63100878746E+03  0.19900000000E+03 0.  0.
<mgrwt>
<rscale>  0 0.48790717E+03</rscale>
<asrwt>0</asrwt>
<pdfrwt beam="1">  1        2 0.12482511E+00 0.48790717E+03</pdfrwt>
<pdfrwt beam="2">  1       -2 0.97300794E-02 0.48790717E+03</pdfrwt>
<totfact> 0.24260034E+03</totfact>
</mgrwt>
</event>
<event>
 4    1  0.4917371E-005  0.4444579E+03  0.7818608E-02  0.1029388E+00
          2   -1    0    0  501    0  0.00000000000E+00  0.00000000000E+00  0.29216943432E+02  0.29216943543E+02  0.25500000000E-02 0.  1.
         -2   -1    0    0    0  501 -0.00000000000E+00 -0.00000000000E+00 -0.16903105344E+04  0.16903105344E+04  0.25500000000E-02 0. -1.
    5000001    1    1    2    0    0  0.74985860438E+02 -0.10601163499E+02 -0.10767400522E+04  0.10975907270E+04  0.19900000000E+03 0.  0.
   -5000001    1    1    2    0    0 -0.74985860438E+02  0.10601163499E+02 -0.58435353875E+03  0.62193675095E+03  0.19900000000E+03 0.  0.
<mgrwt>
<rscale>  0 0.44445791E+03</rscale>
<asrwt>0</asrwt>
<pdfrwt beam="1">  1        2 0.41738501E-02 0.44445791E+03</pdfrwt>
<pdfrwt beam="2">  1       -2 0.24147287E+00 0.44445791E+03</pdfrwt>
<totfact> 0.15999863E+02</totfact>
</mgrwt>
</event>
<event>
 4    1  0.4917371E-005  0.5906083E+03  0.7818608E-02  0.9925085E-01
          2   -1    0    0  501    0  0.00000000000E+00  0.00000000000E+00  0.78707561263E+03  0.78707561263E+03  0.25500000000E-02 0.  1.
         -2   -1    0    0    0  501 -0.00000000000E+00 -0.00000000000E+00 -0.11079563606E+03  0.11079563609E+03  0.25500000000E-02 0. -1.
    5000001    1    1    2    0    0 -0.13273092220E+03 -0.16648650095E+03  0.41054420256E+03  0.50347074886E+03  0.19900000000E+03 0.  0.
   -5000001    1    1    2    0    0  0.13273092220E+03  0.16648650095E+03  0.26573577400E+03  0.39440049986E+03  0.19900000000E+03 0.  0.
<mgrwt>
<rscale>  0 0.59060831E+03</rscale>
<asrwt>0</asrwt>
<pdfrwt beam="1">  1        2 0.11243937E+00 0.59060831E+03</pdfrwt>
<pdfrwt beam="2">  1       -2 0.15827949E-01 0.59060831E+03</pdfrwt>
<totfact> 0.12439010E+03</totfact>
</mgrwt>
</event>
<event>
 4    1  0.4917371E-005  0.6374889E+03  0.7818608E-02  0.9830543E-01
         -2   -1    0    0    0  501 -0.00000000000E+00  0.00000000000E+00  0.28459026469E+03  0.28459026470E+03  0.25500000000E-02 0. -1.
          2   -1    0    0  501    0  0.00000000000E+00 -0.00000000000E+00 -0.35699749319E+03  0.35699749320E+03  0.25500000000E-02 0.  1.
    5000001    1    1    2    0    0  0.23848620028E+03  0.30742735459E+02 -0.10124286781E+03  0.32813396927E+03  0.19900000000E+03 0.  0.
   -5000001    1    1    2    0    0 -0.23848620028E+03 -0.30742735459E+02  0.28835639308E+02  0.31345378863E+03  0.19900000000E+03 0.  0.
<mgrwt>
<rscale>  0 0.63748886E+03</rscale>
<asrwt>0</asrwt>
<pdfrwt beam="1">  1        2 0.50999642E-01 0.63748886E+03</pdfrwt>
<pdfrwt beam="2">  1       -2 0.40655752E-01 0.63748886E+03</pdfrwt>
<totfact> 0.56643874E+02</totfact>
</mgrwt>
</event>
<event>
 4    1  0.4917371E-005  0.5661059E+03  0.7818608E-02  0.9978333E-01
         -2   -1    0    0    0  501 -0.00000000000E+00  0.00000000000E+00  0.74180524725E+02  0.74180524769E+02  0.25500000000E-02 0. -1.
          2   -1    0    0  501    0  0.00000000000E+00 -0.00000000000E+00 -0.10800539177E+04  0.10800539177E+04  0.25500000000E-02 0.  1.
    5000001    1    1    2    0    0  0.15568987271E+03  0.10925629310E+03 -0.63728305122E+03  0.69419518971E+03  0.19900000000E+03 0.  0.
   -5000001    1    1    2    0    0 -0.15568987271E+03 -0.10925629310E+03 -0.36859034179E+03  0.46003925279E+03  0.19900000000E+03 0.  0.
<mgrwt>
<rscale>  0 0.56610588E+03</rscale>
<asrwt>0</asrwt>
<pdfrwt beam="1">  1        2 0.15429341E+00 0.56610588E+03</pdfrwt>
<pdfrwt beam="2">  1       -2 0.10597218E-01 0.56610588E+03</pdfrwt>
<totfact> 0.15764758E+03</totfact>
</mgrwt>
</event>
<event>
 4    1  0.4917371E-005  0.5393912E+03  0.7818608E-02  0.1003980E+00
          2   -1    0    0  501    0  0.00000000000E+00  0.00000000000E+00  0.20703951446E+04  0.20703951446E+04  0.25500000000E-02 0.  1.
         -2   -1    0    0    0  501 -0.00000000000E+00 -0.00000000000E+00 -0.35131316534E+02  0.35131316626E+02  0.25500000000E-02 0. -1.
    5000001    1    1    2    0    0  0.90635993181E+02 -0.15693442625E+03  0.10842679273E+04  0.11171755617E+04  0.19900000000E+03 0.  0.
   -5000001    1    1    2    0    0 -0.90635993181E+02  0.15693442625E+03  0.95099590077E+03  0.98835089957E+03  0.19900000000E+03 0.  0.
<mgrwt>
<rscale>  0 0.53939117E+03</rscale>
<asrwt>0</asrwt>
<pdfrwt beam="1">  1        2 0.29577083E+00 0.53939117E+03</pdfrwt>
<pdfrwt beam="2">  1       -2 0.50187579E-02 0.53939117E+03</pdfrwt>
<totfact> 0.15626334E+03</totfact>
</mgrwt>
</event>
<event>
 4    1  0.4917371E-005  0.4808551E+03  0.7818608E-02  0.1018900E+00
         -2   -1    0    0    0  501 -0.00000000000E+00  0.00000000000E+00  0.68456700886E+02  0.68456700934E+02  0.25500000000E-02 0. -1.
          2   -1    0    0  501    0  0.00000000000E+00 -0.00000000000E+00 -0.84440838052E+03  0.84440838052E+03  0.25500000000E-02 0.  1.
    5000001    1    1    2    0    0  0.90491980655E+02  0.76285079357E+02 -0.26499981745E+03  0.35190071774E+03  0.19900000000E+03 0.  0.
   -5000001    1    1    2    0    0 -0.90491980655E+02 -0.76285079357E+02 -0.51095186218E+03  0.56096436371E+03  0.19900000000E+03 0.  0.
<mgrwt>
<rscale>  0 0.48085512E+03</rscale>
<asrwt>0</asrwt>
<pdfrwt beam="1">  1        2 0.12062976E+00 0.48085512E+03</pdfrwt>
<pdfrwt beam="2">  1       -2 0.97795292E-02 0.48085512E+03</pdfrwt>
<totfact> 0.25157021E+03</totfact>
</mgrwt>
</event>
<event>
 4    1  0.4917371E-005  0.5385784E+03  0.7818608E-02  0.1004173E+00
          2   -1    0    0  501    0  0.00000000000E+00  0.00000000000E+00  0.90689019125E+03  0.90689019126E+03  0.25500000000E-02 0.  1.
         -2   -1    0    0    0  501 -0.00000000000E+00 -0.00000000000E+00 -0.79961909447E+02  0.79961909488E+02  0.25500000000E-02 0. -1.
    5000001    1    1    2    0    0  0.12217856604E+03 -0.13323641995E+03  0.44162039261E+03  0.51701945493E+03  0.19900000000E+03 0.  0.
   -5000001    1    1    2    0    0 -0.12217856604E+03  0.13323641995E+03  0.38530788919E+03  0.46983264582E+03  0.19900000000E+03 0.  0.
<mgrwt>
<rscale>  0 0.53857839E+03</rscale>
<asrwt>0</asrwt>
<pdfrwt beam="1">  1        2 0.12955574E+00 0.53857839E+03</pdfrwt>
<pdfrwt beam="2">  1       -2 0.11423130E-01 0.53857839E+03</pdfrwt>
<totfact> 0.17800757E+03</totfact>
</mgrwt>
</event>
<event>
 4    1  0.4917371E-005  0.4516040E+03  0.7818608E-02  0.1027245E+00
          2   -1    0    0  501    0  0.00000000000E+00  0.00000000000E+00  0.25548818139E+04  0.25548818139E+04  0.25500000000E-02 0.  1.
         -2   -1    0    0    0  501 -0.00000000000E+00 -0.00000000000E+00 -0.19956516369E+02  0.19956516532E+02  0.25500000000E-02 0. -1.
    5000001    1    1    2    0    0 -0.47652200305E+02  0.93068726456E+02  0.13888158732E+04  0.14068912714E+04  0.19900000000E+03 0.  0.
   -5000001    1    1    2    0    0  0.47652200305E+02 -0.93068726456E+02  0.11461094243E+04  0.11679470590E+04  0.19900000000E+03 0.  0.
<mgrwt>
<rscale>  0 0.45160399E+03</rscale>
<asrwt>0</asrwt>
<pdfrwt beam="1">  1        2 0.36498326E+00 0.45160399E+03</pdfrwt>
<pdfrwt beam="2">  1       -2 0.28509298E-02 0.45160399E+03</pdfrwt>
<totfact> 0.21221498E+03</totfact>
</mgrwt>
</event>
<event>
 4    1  0.4917371E-005  0.5605985E+03  0.7818608E-02  0.9990701E-01
         -2   -1    0    0    0  501 -0.00000000000E+00  0.00000000000E+00  0.44196289634E+02  0.44196289708E+02  0.25500000000E-02 0. -1.
          2   -1    0    0  501    0  0.00000000000E+00 -0.00000000000E+00 -0.17776980208E+04  0.17776980208E+04  0.25500000000E-02 0.  1.
    5000001    1    1    2    0    0  0.35754228192E+02  0.13652655671E+03 -0.13152948060E+04  0.13377291550E+04  0.19900000000E+03 0.  0.
   -5000001    1    1    2    0    0 -0.35754228192E+02 -0.13652655671E+03 -0.41820692514E+03  0.48416515545E+03  0.19900000000E+03 0.  0.
<mgrwt>
<rscale>  0 0.56059845E+03</rscale>
<asrwt>0</asrwt>
<pdfrwt beam="1">  1        2 0.25395681E+00 0.56059845E+03</pdfrwt>
<pdfrwt beam="2">  1       -2 0.63137568E-02 0.56059845E+03</pdfrwt>
<totfact> 0.15308948E+03</totfact>
</mgrwt>
</event>
<event>
 4    1  0.4917371E-005  0.5236681E+03  0.7818608E-02  0.1007779E+00
          2   -1    0    0  501    0  0.00000000000E+00  0.00000000000E+00  0.31600396326E+04  0.31600396326E+04  0.25500000000E-02 0.  1.
         -2   -1    0    0    0  501 -0.00000000000E+00 -0.00000000000E+00 -0.21695003406E+02  0.21695003556E+02  0.25500000000E-02 0. -1.
    5000001    1    1    2    0    0 -0.10751695237E+03  0.10104923784E+03  0.20841970520E+04  0.20988685512E+04  0.19900000000E+03 0.  0.
   -5000001    1    1    2    0    0  0.10751695237E+03 -0.10104923784E+03  0.10541475772E+04  0.10828660850E+04  0.19900000000E+03 0.  0.
<mgrwt>
<rscale>  0 0.52366810E+03</rscale>
<asrwt>0</asrwt>
<pdfrwt beam="1">  1        2 0.45143419E+00 0.52366810E+03</pdfrwt>
<pdfrwt beam="2">  1       -2 0.30992865E-02 0.52366810E+03</pdfrwt>
<totfact> 0.88719197E+02</totfact>
</mgrwt>
</event>
<event>
 4    1  0.4917371E-005  0.4987015E+03  0.7818608E-02  0.1014118E+00
          2   -1    0    0  501    0  0.00000000000E+00  0.00000000000E+00  0.16311844135E+04  0.16311844135E+04  0.25500000000E-02 0.  1.
         -2   -1    0    0    0  501 -0.00000000000E+00 -0.00000000000E+00 -0.38116962765E+02  0.38116962851E+02  0.25500000000E-02 0. -1.
    5000001    1    1    2    0    0  0.10854904045E+03  0.10196669369E+03  0.73003324314E+03  0.77118716074E+03  0.19900000000E+03 0.  0.
   -5000001    1    1    2    0    0 -0.10854904045E+03 -0.10196669369E+03  0.86303420761E+03  0.89811421562E+03  0.19900000000E+03 0.  0.
<mgrwt>
<rscale>  0 0.49870150E+03</rscale>
<asrwt>0</asrwt>
<pdfrwt beam="1">  1        2 0.23302636E+00 0.49870150E+03</pdfrwt>
<pdfrwt beam="2">  1       -2 0.54452799E-02 0.49870150E+03</pdfrwt>
<totfact> 0.22922008E+03</totfact>
</mgrwt>
</event>
<event>
 4    1  0.4917371E-005  0.1199060E+04  0.7818608E-02  0.9113679E-01
          2   -1    0    0  501    0  0.00000000000E+00  0.00000000000E+00  0.18657540094E+04  0.18657540094E+04  0.25500000000E-02 0.  1.
         -2   -1    0    0    0  501 -0.00000000000E+00 -0.00000000000E+00 -0.19264939885E+03  0.19264939886E+03  0.25500000000E-02 0. -1.
    5000001    1    1    2    0    0 -0.46477116463E+03  0.16988663263E+03  0.36654008947E+03  0.64716793849E+03  0.19900000000E+03 0.  0.
   -5000001    1    1    2    0    0  0.46477116463E+03 -0.16988663263E+03  0.13065645211E+04  0.14112354698E+04  0.19900000000E+03 0.  0.
<mgrwt>
<rscale>  0 0.11990603E+04</rscale>
<asrwt>0</asrwt>
<pdfrwt beam="1">  1        2 0.26653628E+00 0.11990603E+04</pdfrwt>
<pdfrwt beam="2">  1       -2 0.27521344E-01 0.11990603E+04</pdfrwt>
<totfact> 0.11173574E+02</totfact>
</mgrwt>
</event>
<event>
 4    1  0.4917371E-005  0.1052401E+04  0.7818608E-02  0.9252869E-01
          2   -1    0    0  501    0  0.00000000000E+00  0.00000000000E+00  0.12981548719E+04  0.12981548719E+04  0.25500000000E-02 0. -1.
         -2   -1    0    0    0  501 -0.00000000000E+00 -0.00000000000E+00 -0.21329255563E+03  0.21329255565E+03  0.25500000000E-02 0.  1.
    5000001    1    1    2    0    0 -0.44900601389E+02  0.34638779845E+03  0.54791829396E+02  0.40571383448E+03  0.19900000000E+03 0.  0.
   -5000001    1    1    2    0    0  0.44900601389E+02 -0.34638779845E+03  0.10300704869E+04  0.11057335931E+04  0.19900000000E+03 0.  0.
<mgrwt>
<rscale>  0 0.10524006E+04</rscale>
<asrwt>0</asrwt>
<pdfrwt beam="1">  1        2 0.18545070E+00 0.10524006E+04</pdfrwt>
<pdfrwt beam="2">  1       -2 0.30470364E-01 0.10524006E+04</pdfrwt>
<totfact> 0.18616993E+02</totfact>
</mgrwt>
</event>
<event>
 4    1  0.4917371E-005  0.4565170E+03  0.7818608E-02  0.1025796E+00
          2   -1    0    0  501    0  0.00000000000E+00  0.00000000000E+00  0.24464409313E+03  0.24464409314E+03  0.25500000000E-02 0.  1.
         -2   -1    0    0    0  501 -0.00000000000E+00 -0.00000000000E+00 -0.21297036130E+03  0.21297036132E+03  0.25500000000E-02 0. -1.
    5000001    1    1    2    0    0  0.53595682054E+02  0.95988089297E+02  0.36250755872E+02  0.23022017228E+03  0.19900000000E+03 0.  0.
   -5000001    1    1    2    0    0 -0.53595682054E+02 -0.95988089297E+02 -0.45770240460E+01  0.22739428219E+03  0.19900000000E+03 0.  0.
<mgrwt>
<rscale>  0 0.45651699E+03</rscale>
<asrwt>0</asrwt>
<pdfrwt beam="1">  1        2 0.34949156E-01 0.45651699E+03</pdfrwt>
<pdfrwt beam="2">  1       -2 0.30424337E-01 0.45651699E+03</pdfrwt>
<totfact> 0.14889208E+03</totfact>
</mgrwt>
</event>
<event>
 4    1  0.4917371E-005  0.6425949E+03  0.7818608E-02  0.9820774E-01
          2   -1    0    0  501    0  0.00000000000E+00  0.00000000000E+00  0.76385611567E+03  0.76385611567E+03  0.25500000000E-02 0.  1.
         -2   -1    0    0    0  501 -0.00000000000E+00 -0.00000000000E+00 -0.13514594200E+03  0.13514594202E+03  0.25500000000E-02 0. -1.
    5000001    1    1    2    0    0 -0.22819719676E+03  0.28731189719E+02  0.45928428696E+03  0.55085615012E+03  0.19900000000E+03 0.  0.
   -5000001    1    1    2    0    0  0.22819719676E+03 -0.28731189719E+02  0.16942588671E+03  0.34814590757E+03  0.19900000000E+03 0.  0.
<mgrwt>
<rscale>  0 0.64259491E+03</rscale>
<asrwt>0</asrwt>
<pdfrwt beam="1">  1        2 0.10912230E+00 0.64259491E+03</pdfrwt>
<pdfrwt beam="2">  1       -2 0.19306563E-01 0.64259491E+03</pdfrwt>
<totfact> 0.91826856E+02</totfact>
</mgrwt>
</event>
<event>
 4    1  0.4917371E-005  0.1604964E+04  0.7818608E-02  0.8817504E-01
          2   -1    0    0  501    0  0.00000000000E+00  0.00000000000E+00  0.29546970003E+04  0.29546970004E+04  0.25500000000E-02 0.  1.
         -2   -1    0    0    0  501 -0.00000000000E+00 -0.00000000000E+00 -0.21795035623E+03  0.21795035624E+03  0.25500000000E-02 0. -1.
    5000001    1    1    2    0    0 -0.74084271382E+03  0.21849312417E+03  0.11939116813E+04  0.14358319103E+04  0.19900000000E+03 0.  0.
   -5000001    1    1    2    0    0  0.74084271382E+03 -0.21849312417E+03  0.15428349628E+04  0.17368154463E+04  0.19900000000E+03 0.  0.
<mgrwt>
<rscale>  0 0.16049639E+04</rscale>
<asrwt>0</asrwt>
<pdfrwt beam="1">  1        2 0.42209955E+00 0.16049639E+04</pdfrwt>
<pdfrwt beam="2">  1       -2 0.31135767E-01 0.16049639E+04</pdfrwt>
<totfact> 0.23047265E+01</totfact>
</mgrwt>
</event>
<event>
 4    1  0.4917371E-005  0.1017837E+04  0.7818608E-02  0.9289196E-01
         -2   -1    0    0    0  501 -0.00000000000E+00  0.00000000000E+00  0.32948470304E+03  0.32948470305E+03  0.25500000000E-02 0. -1.
          2   -1    0    0  501    0  0.00000000000E+00 -0.00000000000E+00 -0.78606923380E+03  0.78606923381E+03  0.25500000000E-02 0.  1.
    5000001    1    1    2    0    0 -0.76905345790E+01  0.37825466515E+03  0.74373949887E+02  0.43389885971E+03  0.19900000000E+03 0.  0.
   -5000001    1    1    2    0    0  0.76905345790E+01 -0.37825466515E+03 -0.53095848065E+03  0.68165507715E+03  0.19900000000E+03 0.  0.
<mgrwt>
<rscale>  0 0.10178365E+04</rscale>
<asrwt>0</asrwt>
<pdfrwt beam="1">  1        2 0.11229560E+00 0.10178365E+04</pdfrwt>
<pdfrwt beam="2">  1       -2 0.47069244E-01 0.10178365E+04</pdfrwt>
<totfact> 0.16583170E+02</totfact>
</mgrwt>
</event>
<event>
 4    1  0.4917371E-005  0.9329675E+03  0.7818608E-02  0.9385284E-01
         -2   -1    0    0    0  501 -0.00000000000E+00  0.00000000000E+00  0.74775109953E+02  0.74775109996E+02  0.25500000000E-02 0. -1.
          2   -1    0    0  501    0  0.00000000000E+00 -0.00000000000E+00 -0.29101538485E+04  0.29101538485E+04  0.25500000000E-02 0.  1.
    5000001    1    1    2    0    0  0.15081081300E+02 -0.41284964377E+03 -0.16916778019E+04  0.17527256069E+04  0.19900000000E+03 0.  0.
   -5000001    1    1    2    0    0 -0.15081081300E+02  0.41284964377E+03 -0.11437009366E+04  0.12322033516E+04  0.19900000000E+03 0.  0.
<mgrwt>
<rscale>  0 0.93296747E+03</rscale>
<asrwt>0</asrwt>
<pdfrwt beam="1">  1        2 0.41573619E+00 0.93296747E+03</pdfrwt>
<pdfrwt beam="2">  1       -2 0.10682160E-01 0.93296747E+03</pdfrwt>
<totfact> 0.16737209E+02</totfact>
</mgrwt>
</event>
<event>
 4    1  0.4917371E-005  0.6520202E+03  0.7818608E-02  0.9802996E-01
          2   -1    0    0  501    0  0.00000000000E+00  0.00000000000E+00  0.14895772415E+04  0.14895772415E+04  0.25500000000E-02 0.  1.
         -2   -1    0    0    0  501 -0.00000000000E+00 -0.00000000000E+00 -0.71350843853E+02  0.71350843899E+02  0.25500000000E-02 0. -1.
    5000001    1    1    2    0    0 -0.25381970205E+03 -0.34441832005E+02  0.63077045566E+03  0.70928347554E+03  0.19900000000E+03 0.  0.
   -5000001    1    1    2    0    0  0.25381970205E+03  0.34441832005E+02  0.78745594200E+03  0.85164460988E+03  0.19900000000E+03 0.  0.
<mgrwt>
<rscale>  0 0.65202022E+03</rscale>
<asrwt>0</asrwt>
<pdfrwt beam="1">  1        2 0.21279675E+00 0.65202022E+03</pdfrwt>
<pdfrwt beam="2">  1       -2 0.10192978E-01 0.65202022E+03</pdfrwt>
<totfact> 0.99806080E+02</totfact>
</mgrwt>
</event>
<event>
 4    1  0.4917371E-005  0.1170865E+04  0.7818608E-02  0.9138748E-01
          2   -1    0    0  501    0  0.00000000000E+00  0.00000000000E+00  0.89136499871E+03  0.89136499872E+03  0.25500000000E-02 0.  1.
         -2   -1    0    0    0  501 -0.00000000000E+00 -0.00000000000E+00 -0.38450129472E+03  0.38450129472E+03  0.25500000000E-02 0. -1.
    5000001    1    1    2    0    0  0.46350925024E+03 -0.28323403783E+03  0.35130690806E+03  0.67681599338E+03  0.19900000000E+03 0.  0.
   -5000001    1    1    2    0    0 -0.46350925024E+03  0.28323403783E+03  0.15555679594E+03  0.59905030006E+03  0.19900000000E+03 0.  0.
<mgrwt>
<rscale>  0 0.11708646E+04</rscale>
<asrwt>0</asrwt>
<pdfrwt beam="1">  1        2 0.12733786E+00 0.11708646E+04</pdfrwt>
<pdfrwt beam="2">  1       -2 0.54928756E-01 0.11708646E+04</pdfrwt>
<totfact> 0.10156796E+02</totfact>
</mgrwt>
</event>
<event>
 4    1  0.4917371E-005  0.4813730E+03  0.7818608E-02  0.1018759E+00
         -2   -1    0    0    0  501 -0.00000000000E+00  0.00000000000E+00  0.36162047202E+03  0.36162047203E+03  0.25500000000E-02 0. -1.
          2   -1    0    0  501    0  0.00000000000E+00 -0.00000000000E+00 -0.16019552883E+03  0.16019552885E+03  0.25500000000E-02 0.  1.
    5000001    1    1    2    0    0  0.40478117926E+02 -0.11697123976E+03  0.16016789686E+03  0.28385824657E+03  0.19900000000E+03 0.  0.
   -5000001    1    1    2    0    0 -0.40478117926E+02  0.11697123976E+03  0.41257046340E+02  0.23795775431E+03  0.19900000000E+03 0.  0.
<mgrwt>
<rscale>  0 0.48137296E+03</rscale>
<asrwt>0</asrwt>
<pdfrwt beam="1">  1        2 0.22885076E-01 0.48137296E+03</pdfrwt>
<pdfrwt beam="2">  1       -2 0.51660067E-01 0.48137296E+03</pdfrwt>
<totfact> 0.86198848E+02</totfact>
</mgrwt>
</event>
<event>
 4    1  0.4917371E-005  0.4930674E+03  0.7818608E-02  0.1015604E+00
         -2   -1    0    0    0  501 -0.00000000000E+00  0.00000000000E+00  0.20623904960E+03  0.20623904962E+03  0.25500000000E-02 0. -1.
          2   -1    0    0  501    0  0.00000000000E+00 -0.00000000000E+00 -0.29470110274E+03  0.29470110275E+03  0.25500000000E-02 0.  1.
    5000001    1    1    2    0    0 -0.82752105529E+01 -0.14117472093E+03 -0.93448151342E+01  0.24430944826E+03  0.19900000000E+03 0.  0.
   -5000001    1    1    2    0    0  0.82752105529E+01  0.14117472093E+03 -0.79117238004E+02  0.25663070410E+03  0.19900000000E+03 0.  0.
<mgrwt>
<rscale>  0 0.49306744E+03</rscale>
<asrwt>0</asrwt>
<pdfrwt beam="1">  1        2 0.42100158E-01 0.49306744E+03</pdfrwt>
<pdfrwt beam="2">  1       -2 0.29462721E-01 0.49306744E+03</pdfrwt>
<totfact> 0.12874625E+03</totfact>
</mgrwt>
</event>
<event>
 4    1  0.4917371E-005  0.6211665E+03  0.7818608E-02  0.9862440E-01
         -2   -1    0    0    0  501 -0.00000000000E+00  0.00000000000E+00  0.57108618694E+02  0.57108618751E+02  0.25500000000E-02 0. -1.
          2   -1    0    0  501    0  0.00000000000E+00 -0.00000000000E+00 -0.16890960080E+04  0.16890960080E+04  0.25500000000E-02 0.  1.
    5000001    1    1    2    0    0  0.10890429699E+03 -0.17322915164E+03 -0.47178366512E+03  0.55140666622E+03  0.19900000000E+03 0.  0.
   -5000001    1    1    2    0    0 -0.10890429699E+03  0.17322915164E+03 -0.11602037242E+04  0.11947979606E+04  0.19900000000E+03 0.  0.
<mgrwt>
<rscale>  0 0.62116645E+03</rscale>
<asrwt>0</asrwt>
<pdfrwt beam="1">  1        2 0.24129940E+00 0.62116645E+03</pdfrwt>
<pdfrwt beam="2">  1       -2 0.81583752E-02 0.62116645E+03</pdfrwt>
<totfact> 0.11287236E+03</totfact>
</mgrwt>
</event>
<event>
 4    1  0.4917371E-005  0.5201890E+03  0.7818608E-02  0.1008640E+00
          2   -1    0    0  501    0  0.00000000000E+00  0.00000000000E+00  0.12782476095E+03  0.12782476097E+03  0.25500000000E-02 0.  1.
         -2   -1    0    0    0  501 -0.00000000000E+00 -0.00000000000E+00 -0.52923345438E+03  0.52923345439E+03  0.25500000000E-02 0. -1.
    5000001    1    1    2    0    0 -0.39005192395E+02 -0.14309387996E+03 -0.29895871134E+03  0.38855446800E+03  0.19900000000E+03 0.  0.
   -5000001    1    1    2    0    0  0.39005192395E+02  0.14309387996E+03 -0.10244998209E+03  0.26850374736E+03  0.19900000000E+03 0.  0.
<mgrwt>
<rscale>  0 0.52018896E+03</rscale>
<asrwt>0</asrwt>
<pdfrwt beam="1">  1        2 0.18260680E-01 0.52018896E+03</pdfrwt>
<pdfrwt beam="2">  1       -2 0.75604778E-01 0.52018896E+03</pdfrwt>
<totfact> 0.50068236E+02</totfact>
</mgrwt>
</event>
<event>
 4    1  0.4917371E-005  0.5844327E+03  0.7818608E-02  0.9938240E-01
         -2   -1    0    0    0  501 -0.00000000000E+00  0.00000000000E+00  0.33924353776E+03  0.33924353777E+03  0.25500000000E-02 0. -1.
          2   -1    0    0  501    0  0.00000000000E+00 -0.00000000000E+00 -0.25170822821E+03  0.25170822823E+03  0.25500000000E-02 0.  1.
    5000001    1    1    2    0    0 -0.17084409613E+03 -0.12587421541E+03  0.15940384948E+02  0.29135394138E+03  0.19900000000E+03 0.  0.
   -5000001    1    1    2    0    0  0.17084409613E+03  0.12587421541E+03  0.71594924599E+02  0.29959782462E+03  0.19900000000E+03 0.  0.
<mgrwt>
<rscale>  0 0.58443268E+03</rscale>
<asrwt>0</asrwt>
<pdfrwt beam="1">  1        2 0.35958318E-01 0.58443268E+03</pdfrwt>
<pdfrwt beam="2">  1       -2 0.48463362E-01 0.58443268E+03</pdfrwt>
<totfact> 0.58927703E+02</totfact>
</mgrwt>
</event>
<event>
 4    1  0.4917371E-005  0.5729266E+03  0.7818608E-02  0.9963223E-01
         -2   -1    0    0    0  501 -0.00000000000E+00  0.00000000000E+00  0.44386900518E+03  0.44386900519E+03  0.25500000000E-02 0. -1.
          2   -1    0    0  501    0  0.00000000000E+00 -0.00000000000E+00 -0.18487713279E+03  0.18487713281E+03  0.25500000000E-02 0.  1.
    5000001    1    1    2    0    0 -0.90669452527E+02 -0.16043340319E+03  0.28315610646E+02  0.27269506832E+03  0.19900000000E+03 0.  0.
   -5000001    1    1    2    0    0  0.90669452527E+02  0.16043340319E+03  0.23067626175E+03  0.35605106967E+03  0.19900000000E+03 0.  0.
<mgrwt>
<rscale>  0 0.57292662E+03</rscale>
<asrwt>0</asrwt>
<pdfrwt beam="1">  1        2 0.26411019E-01 0.57292662E+03</pdfrwt>
<pdfrwt beam="2">  1       -2 0.63409857E-01 0.57292662E+03</pdfrwt>
<totfact> 0.47781124E+02</totfact>
</mgrwt>
</event>
<event>
 4    1  0.4917371E-005  0.8253107E+03  0.7818608E-02  0.9524087E-01
         -2   -1    0    0    0  501 -0.00000000000E+00  0.00000000000E+00  0.11057033676E+03  0.11057033679E+03  0.25500000000E-02 0. -1.
          2   -1    0    0  501    0  0.00000000000E+00 -0.00000000000E+00 -0.15400553399E+04  0.15400553399E+04  0.25500000000E-02 0.  1.
    5000001    1    1    2    0    0  0.15774235822E+03 -0.32460401866E+03 -0.67312426857E+03  0.78927036017E+03  0.19900000000E+03 0.  0.
   -5000001    1    1    2    0    0 -0.15774235822E+03  0.32460401866E+03 -0.75636073461E+03  0.86135531656E+03  0.19900000000E+03 0.  0.
<mgrwt>
<rscale>  0 0.82531070E+03</rscale>
<asrwt>0</asrwt>
<pdfrwt beam="1">  1        2 0.22000789E+00 0.82531070E+03</pdfrwt>
<pdfrwt beam="2">  1       -2 0.15795763E-01 0.82531070E+03</pdfrwt>
<totfact> 0.44961445E+02</totfact>
</mgrwt>
</event>
<event>
 4    1  0.4917371E-005  0.9290139E+03  0.7818608E-02  0.9390022E-01
          2   -1    0    0  501    0  0.00000000000E+00  0.00000000000E+00  0.51452151733E+03  0.51452151734E+03  0.25500000000E-02 0.  1.
         -2   -1    0    0    0  501 -0.00000000000E+00 -0.00000000000E+00 -0.41935412888E+03  0.41935412889E+03  0.25500000000E-02 0. -1.
    5000001    1    1    2    0    0 -0.18529090437E+03  0.36780035872E+03 -0.33808539621E+02  0.45864347861E+03  0.19900000000E+03 0.  0.
   -5000001    1    1    2    0    0  0.18529090437E+03 -0.36780035872E+03  0.12897592808E+03  0.47523216762E+03  0.19900000000E+03 0.  0.
<mgrwt>
<rscale>  0 0.92901393E+03</rscale>
<asrwt>0</asrwt>
<pdfrwt beam="1">  1        2 0.73503074E-01 0.92901393E+03</pdfrwt>
<pdfrwt beam="2">  1       -2 0.59907733E-01 0.92901393E+03</pdfrwt>
<totfact> 0.16919215E+02</totfact>
</mgrwt>
</event>
<event>
 4    1  0.4917371E-005  0.4221441E+03  0.7818608E-02  0.1036371E+00
         -2   -1    0    0    0  501 -0.00000000000E+00  0.00000000000E+00  0.68962259406E+02  0.68962259453E+02  0.25500000000E-02 0. -1.
          2   -1    0    0  501    0  0.00000000000E+00 -0.00000000000E+00 -0.64602601348E+03  0.64602601348E+03  0.25500000000E-02 0.  1.
    5000001    1    1    2    0    0  0.38162970390E+02  0.17153383763E+02 -0.38433883747E+03  0.43481949458E+03  0.19900000000E+03 0.  0.
   -5000001    1    1    2    0    0 -0.38162970390E+02 -0.17153383763E+02 -0.19272491660E+03  0.28016877835E+03  0.19900000000E+03 0.  0.
<mgrwt>
<rscale>  0 0.42214412E+03</rscale>
<asrwt>0</asrwt>
<pdfrwt beam="1">  1        2 0.92289427E-01 0.42214412E+03</pdfrwt>
<pdfrwt beam="2">  1       -2 0.98517517E-02 0.42214412E+03</pdfrwt>
<totfact> 0.34547917E+03</totfact>
</mgrwt>
</event>
<event>
 4    1  0.4917371E-005  0.5224911E+03  0.7818608E-02  0.1008070E+00
          2   -1    0    0  501    0  0.00000000000E+00  0.00000000000E+00  0.59030693180E+03  0.59030693180E+03  0.25500000000E-02 0.  1.
         -2   -1    0    0    0  501 -0.00000000000E+00 -0.00000000000E+00 -0.11561653279E+03  0.11561653282E+03  0.25500000000E-02 0. -1.
    5000001    1    1    2    0    0  0.90764380470E+02 -0.13092506063E+03  0.31458942237E+03  0.40490375267E+03  0.19900000000E+03 0.  0.
   -5000001    1    1    2    0    0 -0.90764380470E+02  0.13092506063E+03  0.16010097663E+03  0.30101971195E+03  0.19900000000E+03 0.  0.
<mgrwt>
<rscale>  0 0.52249111E+03</rscale>
<asrwt>0</asrwt>
<pdfrwt beam="1">  1        2 0.84329562E-01 0.52249111E+03</pdfrwt>
<pdfrwt beam="2">  1       -2 0.16516647E-01 0.52249111E+03</pdfrwt>
<totfact> 0.16415696E+03</totfact>
</mgrwt>
</event>
<event>
 4    1  0.4917371E-005  0.6531527E+03  0.7818608E-02  0.9800881E-01
         -2   -1    0    0    0  501 -0.00000000000E+00  0.00000000000E+00  0.97495619388E+02  0.97495619421E+02  0.25500000000E-02 0. -1.
          2   -1    0    0  501    0  0.00000000000E+00 -0.00000000000E+00 -0.10939168817E+04  0.10939168817E+04  0.25500000000E-02 0.  1.
    5000001    1    1    2    0    0  0.58142094007E+02 -0.13203116302E+03 -0.10597349012E+03  0.26766417712E+03  0.19900000000E+03 0.  0.
   -5000001    1    1    2    0    0 -0.58142094007E+02  0.13203116302E+03 -0.89044777218E+03  0.92374832400E+03  0.19900000000E+03 0.  0.
<mgrwt>
<rscale>  0 0.65315267E+03</rscale>
<asrwt>0</asrwt>
<pdfrwt beam="1">  1        2 0.15627383E+00 0.65315267E+03</pdfrwt>
<pdfrwt beam="2">  1       -2 0.13927946E-01 0.65315267E+03</pdfrwt>
<totfact> 0.98383557E+02</totfact>
</mgrwt>
</event>
<event>
 4    1  0.4917371E-005  0.6686871E+03  0.7818608E-02  0.9772332E-01
          2   -1    0    0  501    0  0.00000000000E+00  0.00000000000E+00  0.41211501703E+03  0.41211501704E+03  0.25500000000E-02 0.  1.
         -2   -1    0    0    0  501 -0.00000000000E+00 -0.00000000000E+00 -0.27124860712E+03  0.27124860713E+03  0.25500000000E-02 0. -1.
    5000001    1    1    2    0    0 -0.53309744422E+02 -0.11359796896E+03  0.31321462574E+03  0.39172800408E+03  0.19900000000E+03 0.  0.
   -5000001    1    1    2    0    0  0.53309744422E+02  0.11359796896E+03 -0.17234821583E+03  0.29163562009E+03  0.19900000000E+03 0.  0.
<mgrwt>
<rscale>  0 0.66868714E+03</rscale>
<asrwt>0</asrwt>
<pdfrwt beam="1">  1        2 0.58873573E-01 0.66868714E+03</pdfrwt>
<pdfrwt beam="2">  1       -2 0.38749801E-01 0.66868714E+03</pdfrwt>
<totfact> 0.52965541E+02</totfact>
</mgrwt>
</event>
<event>
 4    1  0.4917371E-005  0.7016516E+03  0.7818608E-02  0.9714412E-01
         -2   -1    0    0    0  501 -0.00000000000E+00  0.00000000000E+00  0.25797715520E+03  0.25797715521E+03  0.25500000000E-02 0. -1.
          2   -1    0    0  501    0  0.00000000000E+00 -0.00000000000E+00 -0.47709166441E+03  0.47709166442E+03  0.25500000000E-02 0.  1.
    5000001    1    1    2    0    0 -0.20898973609E+02  0.27676156877E+03 -0.19365508964E+03  0.39260288689E+03  0.19900000000E+03 0.  0.
   -5000001    1    1    2    0    0  0.20898973609E+02 -0.27676156877E+03 -0.25459419572E+02  0.34246593275E+03  0.19900000000E+03 0.  0.
<mgrwt>
<rscale>  0 0.70165162E+03</rscale>
<asrwt>0</asrwt>
<pdfrwt beam="1">  1        2 0.68155952E-01 0.70165162E+03</pdfrwt>
<pdfrwt beam="2">  1       -2 0.36853880E-01 0.70165162E+03</pdfrwt>
<totfact> 0.49435486E+02</totfact>
</mgrwt>
</event>
<event>
 4    1  0.4917371E-005  0.4694967E+03  0.7818608E-02  0.1022062E+00
         -2   -1    0    0    0  501 -0.00000000000E+00  0.00000000000E+00  0.19645999130E+02  0.19645999295E+02  0.25500000000E-02 0. -1.
          2   -1    0    0  501    0  0.00000000000E+00 -0.00000000000E+00 -0.28049874971E+04  0.28049874971E+04  0.25500000000E-02 0.  1.
    5000001    1    1    2    0    0 -0.10110655384E+03 -0.50758885528E+01 -0.95643777256E+03  0.98215198042E+03  0.19900000000E+03 0.  0.
   -5000001    1    1    2    0    0  0.10110655384E+03  0.50758885528E+01 -0.18289037254E+04  0.18424815160E+04  0.19900000000E+03 0.  0.
<mgrwt>
<rscale>  0 0.46949668E+03</rscale>
<asrwt>0</asrwt>
<pdfrwt beam="1">  1        2 0.40071224E+00 0.46949668E+03</pdfrwt>
<pdfrwt beam="2">  1       -2 0.28065731E-02 0.46949668E+03</pdfrwt>
<totfact> 0.16105787E+03</totfact>
</mgrwt>
</event>
<event>
 4    1  0.4917371E-005  0.6978926E+03  0.7818608E-02  0.9720843E-01
         -2   -1    0    0    0  501 -0.00000000000E+00  0.00000000000E+00  0.49418656291E+02  0.49418656357E+02  0.25500000000E-02 0. -1.
          2   -1    0    0  501    0  0.00000000000E+00 -0.00000000000E+00 -0.24639180310E+04  0.24639180310E+04  0.25500000000E-02 0.  1.
    5000001    1    1    2    0    0 -0.25008542011E+03 -0.66268602973E+02 -0.76283601463E+03  0.82973130007E+03  0.19900000000E+03 0.  0.
   -5000001    1    1    2    0    0  0.25008542011E+03  0.66268602973E+02 -0.16516633601E+04  0.16836053873E+04  0.19900000000E+03 0.  0.
<mgrwt>
<rscale>  0 0.69789259E+03</rscale>
<asrwt>0</asrwt>
<pdfrwt beam="1">  1        2 0.35198821E+00 0.69789259E+03</pdfrwt>
<pdfrwt beam="2">  1       -2 0.70598096E-02 0.69789259E+03</pdfrwt>
<totfact> 0.57282907E+02</totfact>
</mgrwt>
</event>
<event>
 4    1  0.4917371E-005  0.6577730E+03  0.7818608E-02  0.9792302E-01
          2   -1    0    0  501    0  0.00000000000E+00  0.00000000000E+00  0.16435888813E+04  0.16435888813E+04  0.25500000000E-02 0.  1.
         -2   -1    0    0    0  501 -0.00000000000E+00 -0.00000000000E+00 -0.65811056430E+02  0.65811056480E+02  0.25500000000E-02 0. -1.
    5000001    1    1    2    0    0 -0.44756886668E+02  0.23036856363E+03  0.48702351287E+03  0.57607790801E+03  0.19900000000E+03 0.  0.
   -5000001    1    1    2    0    0  0.44756886668E+02 -0.23036856363E+03  0.10907543120E+04  0.11333220297E+04  0.19900000000E+03 0.  0.
<mgrwt>
<rscale>  0 0.65777297E+03</rscale>
<asrwt>0</asrwt>
<pdfrwt beam="1">  1        2 0.23479839E+00 0.65777297E+03</pdfrwt>
<pdfrwt beam="2">  1       -2 0.94015804E-02 0.65777297E+03</pdfrwt>
<totfact> 0.94662893E+02</totfact>
</mgrwt>
</event>
<event>
 4    1  0.4917371E-005  0.4802827E+03  0.7818608E-02  0.1019058E+00
          2   -1    0    0  501    0  0.00000000000E+00  0.00000000000E+00  0.77053231710E+03  0.77053231710E+03  0.25500000000E-02 0.  1.
         -2   -1    0    0    0  501 -0.00000000000E+00 -0.00000000000E+00 -0.74841580207E+02  0.74841580250E+02  0.25500000000E-02 0. -1.
    5000001    1    1    2    0    0  0.43697044983E+02  0.10854339633E+03  0.46427900545E+03  0.51850467262E+03  0.19900000000E+03 0.  0.
   -5000001    1    1    2    0    0 -0.43697044983E+02 -0.10854339633E+03  0.23141173144E+03  0.32686922473E+03  0.19900000000E+03 0.  0.
<mgrwt>
<rscale>  0 0.48028265E+03</rscale>
<asrwt>0</asrwt>
<pdfrwt beam="1">  1        2 0.11007605E+00 0.48028265E+03</pdfrwt>
<pdfrwt beam="2">  1       -2 0.10691654E-01 0.48028265E+03</pdfrwt>
<totfact> 0.24470323E+03</totfact>
</mgrwt>
</event>
<event>
 4    1  0.4917371E-005  0.7294556E+03  0.7818608E-02  0.9668144E-01
          2   -1    0    0  501    0  0.00000000000E+00  0.00000000000E+00  0.24038411337E+03  0.24038411338E+03  0.25500000000E-02 0. -1.
         -2   -1    0    0    0  501 -0.00000000000E+00 -0.00000000000E+00 -0.55339086891E+03  0.55339086891E+03  0.25500000000E-02 0.  1.
    5000001    1    1    2    0    0 -0.30077011168E+03 -0.53980759510E+02 -0.14890242643E+03  0.39389023226E+03  0.19900000000E+03 0.  0.
   -5000001    1    1    2    0    0  0.30077011168E+03  0.53980759510E+02 -0.16410432911E+03  0.39988475003E+03  0.19900000000E+03 0.  0.
<mgrwt>
<rscale>  0 0.72945561E+03</rscale>
<asrwt>0</asrwt>
<pdfrwt beam="1">  1        2 0.34340588E-01 0.72945561E+03</pdfrwt>
<pdfrwt beam="2">  1       -2 0.79055838E-01 0.72945561E+03</pdfrwt>
<totfact> 0.21888227E+02</totfact>
</mgrwt>
</event>
<event>
 4    1  0.4917371E-005  0.4421860E+03  0.7818608E-02  0.1030078E+00
          2   -1    0    0  501    0  0.00000000000E+00  0.00000000000E+00  0.25915584623E+03  0.25915584625E+03  0.25500000000E-02 0.  1.
         -2   -1    0    0    0  501 -0.00000000000E+00 -0.00000000000E+00 -0.18862050140E+03  0.18862050141E+03  0.25500000000E-02 0. -1.
    5000001    1    1    2    0    0  0.23232416921E+02  0.86213401345E+02  0.71899728998E+02  0.22965858747E+03  0.19900000000E+03 0.  0.
   -5000001    1    1    2    0    0 -0.23232416921E+02 -0.86213401345E+02 -0.13643841602E+01  0.21811776019E+03  0.19900000000E+03 0.  0.
<mgrwt>
<rscale>  0 0.44218596E+03</rscale>
<asrwt>0</asrwt>
<pdfrwt beam="1">  1        2 0.37022264E-01 0.44218596E+03</pdfrwt>
<pdfrwt beam="2">  1       -2 0.26945786E-01 0.44218596E+03</pdfrwt>
<totfact> 0.17429609E+03</totfact>
</mgrwt>
</event>
<event>
 4    1  0.4917371E-005  0.6991072E+03  0.7818608E-02  0.9718760E-01
         -2   -1    0    0    0  501 -0.00000000000E+00  0.00000000000E+00  0.43427779702E+02  0.43427779777E+02  0.25500000000E-02 0. -1.
          2   -1    0    0  501    0  0.00000000000E+00 -0.00000000000E+00 -0.28135844934E+04  0.28135844934E+04  0.25500000000E-02 0.  1.
    5000001    1    1    2    0    0 -0.26674334297E+03  0.98334131672E+02 -0.15567722476E+04  0.15949803897E+04  0.19900000000E+03 0.  0.
   -5000001    1    1    2    0    0  0.26674334297E+03 -0.98334131672E+02 -0.12133844660E+04  0.12620318834E+04  0.19900000000E+03 0.  0.
<mgrwt>
<rscale>  0 0.69910722E+03</rscale>
<asrwt>0</asrwt>
<pdfrwt beam="1">  1        2 0.40194053E+00 0.69910722E+03</pdfrwt>
<pdfrwt beam="2">  1       -2 0.62039703E-02 0.69910722E+03</pdfrwt>
<totfact> 0.46118333E+02</totfact>
</mgrwt>
</event>
<event>
 4    1  0.4917371E-005  0.5677192E+03  0.7818608E-02  0.9974739E-01
         -2   -1    0    0    0  501 -0.00000000000E+00  0.00000000000E+00  0.14075071129E+04  0.14075071129E+04  0.25500000000E-02 0. -1.
          2   -1    0    0  501    0  0.00000000000E+00 -0.00000000000E+00 -0.57247496783E+02  0.57247496840E+02  0.25500000000E-02 0.  1.
    5000001    1    1    2    0    0 -0.10603291530E+03  0.17972753777E+02  0.23267045911E+03  0.32450353087E+03  0.19900000000E+03 0.  0.
   -5000001    1    1    2    0    0  0.10603291530E+03 -0.17972753777E+02  0.11175891570E+04  0.11402510789E+04  0.19900000000E+03 0.  0.
<mgrwt>
<rscale>  0 0.56771915E+03</rscale>
<asrwt>0</asrwt>
<pdfrwt beam="1">  1        2 0.81782135E-02 0.56771915E+03</pdfrwt>
<pdfrwt beam="2">  1       -2 0.20107245E+00 0.56771915E+03</pdfrwt>
<totfact> 0.11571405E+02</totfact>
</mgrwt>
</event>
<event>
 4    1  0.4917371E-005  0.9450292E+03  0.7818608E-02  0.9370980E-01
         -2   -1    0    0    0  501 -0.00000000000E+00  0.00000000000E+00  0.38607124755E+03  0.38607124756E+03  0.25500000000E-02 0. -1.
          2   -1    0    0  501    0  0.00000000000E+00 -0.00000000000E+00 -0.57831312604E+03  0.57831312604E+03  0.25500000000E-02 0.  1.
    5000001    1    1    2    0    0 -0.19874333918E+03  0.34086110588E+03  0.74588972362E+02  0.44816260795E+03  0.19900000000E+03 0.  0.
   -5000001    1    1    2    0    0  0.19874333918E+03 -0.34086110588E+03 -0.26683085085E+03  0.51622176565E+03  0.19900000000E+03 0.  0.
<mgrwt>
<rscale>  0 0.94502925E+03</rscale>
<asrwt>0</asrwt>
<pdfrwt beam="1">  1        2 0.82616161E-01 0.94502925E+03</pdfrwt>
<pdfrwt beam="2">  1       -2 0.55153035E-01 0.94502925E+03</pdfrwt>
<totfact> 0.17542494E+02</totfact>
</mgrwt>
</event>
<event>
 4    1  0.4917371E-005  0.4927112E+03  0.7818608E-02  0.1015699E+00
         -2   -1    0    0    0  501 -0.00000000000E+00  0.00000000000E+00  0.14525315715E+03  0.14525315718E+03  0.25500000000E-02 0. -1.
          2   -1    0    0  501    0  0.00000000000E+00 -0.00000000000E+00 -0.41782964602E+03  0.41782964603E+03  0.25500000000E-02 0.  1.
    5000001    1    1    2    0    0 -0.70953619780E+02  0.85852136776E+02 -0.29784100382E+02  0.22998499556E+03  0.19900000000E+03 0.  0.
   -5000001    1    1    2    0    0  0.70953619780E+02 -0.85852136776E+02 -0.24279238849E+03  0.33309780764E+03  0.19900000000E+03 0.  0.
<mgrwt>
<rscale>  0 0.49271117E+03</rscale>
<asrwt>0</asrwt>
<pdfrwt beam="1">  1        2 0.59689949E-01 0.49271117E+03</pdfrwt>
<pdfrwt beam="2">  1       -2 0.20750451E-01 0.49271117E+03</pdfrwt>
<totfact> 0.16402151E+03</totfact>
</mgrwt>
</event>
<event>
 4    1  0.4917371E-005  0.8544454E+03  0.7818608E-02  0.9484390E-01
          2   -1    0    0  501    0  0.00000000000E+00  0.00000000000E+00  0.71864301126E+03  0.71864301126E+03  0.25500000000E-02 0.  1.
         -2   -1    0    0    0  501 -0.00000000000E+00 -0.00000000000E+00 -0.25397761828E+03  0.25397761829E+03  0.25500000000E-02 0. -1.
    5000001    1    1    2    0    0  0.32037111248E+03 -0.88177789532E+02  0.27104971360E+02  0.38826363691E+03  0.19900000000E+03 0.  0.
   -5000001    1    1    2    0    0 -0.32037111248E+03  0.88177789532E+02  0.43756042162E+03  0.58435699264E+03  0.19900000000E+03 0.  0.
<mgrwt>
<rscale>  0 0.85444541E+03</rscale>
<asrwt>0</asrwt>
<pdfrwt beam="1">  1        2 0.10266329E+00 0.85444541E+03</pdfrwt>
<pdfrwt beam="2">  1       -2 0.36282517E-01 0.85444541E+03</pdfrwt>
<totfact> 0.31215155E+02</totfact>
</mgrwt>
</event>
<event>
 4    1  0.4917371E-005  0.1121156E+04  0.7818608E-02  0.9184813E-01
         -2   -1    0    0    0  501 -0.00000000000E+00  0.00000000000E+00  0.66238272871E+03  0.66238272871E+03  0.25500000000E-02 0. -1.
          2   -1    0    0  501    0  0.00000000000E+00 -0.00000000000E+00 -0.47442030339E+03  0.47442030340E+03  0.25500000000E-02 0.  1.
    5000001    1    1    2    0    0 -0.43163391049E+03  0.26414551780E+03 -0.44177972380E+02  0.54555786173E+03  0.19900000000E+03 0.  0.
   -5000001    1    1    2    0    0  0.43163391049E+03 -0.26414551780E+03  0.23214039769E+03  0.59124517038E+03  0.19900000000E+03 0.  0.
<mgrwt>
<rscale>  0 0.11211562E+04</rscale>
<asrwt>0</asrwt>
<pdfrwt beam="1">  1        2 0.67774330E-01 0.11211562E+04</pdfrwt>
<pdfrwt beam="2">  1       -2 0.94626103E-01 0.11211562E+04</pdfrwt>
<totfact> 0.66583458E+01</totfact>
</mgrwt>
</event>
<event>
 4    1  0.4917371E-005  0.5206261E+03  0.7818608E-02  0.1008531E+00
          2   -1    0    0  501    0  0.00000000000E+00  0.00000000000E+00  0.16480002362E+04  0.16480002362E+04  0.25500000000E-02 0.  1.
         -2   -1    0    0    0  501 -0.00000000000E+00 -0.00000000000E+00 -0.41118242610E+02  0.41118242689E+02  0.25500000000E-02 0. -1.
    5000001    1    1    2    0    0  0.62203223148E+02  0.14482966857E+03  0.99029694547E+03  0.10223179124E+04  0.19900000000E+03 0.  0.
   -5000001    1    1    2    0    0 -0.62203223148E+02 -0.14482966857E+03  0.61658504814E+03  0.66680056648E+03  0.19900000000E+03 0.  0.
<mgrwt>
<rscale>  0 0.52062606E+03</rscale>
<asrwt>0</asrwt>
<pdfrwt beam="1">  1        2 0.23542865E+00 0.52062606E+03</pdfrwt>
<pdfrwt beam="2">  1       -2 0.58740336E-02 0.52062606E+03</pdfrwt>
<totfact> 0.19964156E+03</totfact>
</mgrwt>
</event>
<event>
 4    1  0.4917371E-005  0.1180049E+04  0.7818608E-02  0.9130501E-01
          2   -1    0    0  501    0  0.00000000000E+00  0.00000000000E+00  0.76473685449E+03  0.76473685450E+03  0.25500000000E-02 0.  1.
         -2   -1    0    0    0  501 -0.00000000000E+00 -0.00000000000E+00 -0.45522690670E+03  0.45522690670E+03  0.25500000000E-02 0. -1.
    5000001    1    1    2    0    0 -0.49883374395E+03 -0.20546955164E+03  0.18090712722E+02  0.57530958156E+03  0.19900000000E+03 0.  0.
   -5000001    1    1    2    0    0  0.49883374395E+03  0.20546955164E+03  0.29141923507E+03  0.64465417964E+03  0.19900000000E+03 0.  0.
<mgrwt>
<rscale>  0 0.11800488E+04</rscale>
<asrwt>0</asrwt>
<pdfrwt beam="1">  1        2 0.10924812E+00 0.11800488E+04</pdfrwt>
<pdfrwt beam="2">  1       -2 0.65032416E-01 0.11800488E+04</pdfrwt>
<totfact> 0.86865342E+01</totfact>
</mgrwt>
</event>
<event>
 4    1  0.4917371E-005  0.5251935E+03  0.7818608E-02  0.1007404E+00
         -2   -1    0    0    0  501 -0.00000000000E+00  0.00000000000E+00  0.64959499423E+03  0.64959499424E+03  0.25500000000E-02 0. -1.
          2   -1    0    0  501    0  0.00000000000E+00 -0.00000000000E+00 -0.10615393367E+03  0.10615393371E+03  0.25500000000E-02 0.  1.
    5000001    1    1    2    0    0 -0.16417227373E+03 -0.48581328060E+02  0.26224249779E+03  0.37105903647E+03  0.19900000000E+03 0.  0.
   -5000001    1    1    2    0    0  0.16417227373E+03  0.48581328060E+02  0.28119856276E+03  0.38468989147E+03  0.19900000000E+03 0.  0.
<mgrwt>
<rscale>  0 0.52519354E+03</rscale>
<asrwt>0</asrwt>
<pdfrwt beam="1">  1        2 0.15164848E-01 0.52519354E+03</pdfrwt>
<pdfrwt beam="2">  1       -2 0.92799281E-01 0.52519354E+03</pdfrwt>
<totfact> 0.39359224E+02</totfact>
</mgrwt>
</event>
<event>
 4    1  0.4917371E-005  0.7294584E+03  0.7818608E-02  0.9668140E-01
          2   -1    0    0  501    0  0.00000000000E+00  0.00000000000E+00  0.27720683012E+04  0.27720683012E+04  0.25500000000E-02 0.  1.
         -2   -1    0    0    0  501 -0.00000000000E+00 -0.00000000000E+00 -0.47988496348E+02  0.47988496416E+02  0.25500000000E-02 0. -1.
    5000001    1    1    2    0    0 -0.28478349637E+03 -0.13846377919E+02  0.17878754566E+04  0.18213711896E+04  0.19900000000E+03 0.  0.
   -5000001    1    1    2    0    0  0.28478349637E+03  0.13846377919E+02  0.93620434831E+03  0.99868560808E+03  0.19900000000E+03 0.  0.
<mgrwt>
<rscale>  0 0.72945840E+03</rscale>
<asrwt>0</asrwt>
<pdfrwt beam="1">  1        2 0.39600994E+00 0.72945840E+03</pdfrwt>
<pdfrwt beam="2">  1       -2 0.68554963E-02 0.72945840E+03</pdfrwt>
<totfact> 0.41332183E+02</totfact>
</mgrwt>
</event>
<event>
 4    1  0.4917371E-005  0.6303077E+03  0.7818608E-02  0.9844449E-01
         -2   -1    0    0    0  501 -0.00000000000E+00  0.00000000000E+00  0.24013411808E+03  0.24013411810E+03  0.25500000000E-02 0. -1.
          2   -1    0    0  501    0  0.00000000000E+00 -0.00000000000E+00 -0.41361025589E+03  0.41361025590E+03  0.25500000000E-02 0.  1.
    5000001    1    1    2    0    0  0.13388378806E+03  0.20296899926E+03 -0.61339774883E+02  0.32013255278E+03  0.19900000000E+03 0.  0.
   -5000001    1    1    2    0    0 -0.13388378806E+03 -0.20296899926E+03 -0.11213636292E+03  0.33361182121E+03  0.19900000000E+03 0.  0.
<mgrwt>
<rscale>  0 0.63030765E+03</rscale>
<asrwt>0</asrwt>
<pdfrwt beam="1">  1        2 0.59087179E-01 0.63030765E+03</pdfrwt>
<pdfrwt beam="2">  1       -2 0.34304874E-01 0.63030765E+03</pdfrwt>
<totfact> 0.66637988E+02</totfact>
</mgrwt>
</event>
<event>
 4    1  0.4917371E-005  0.6625995E+03  0.7818608E-02  0.9783420E-01
         -2   -1    0    0    0  501 -0.00000000000E+00  0.00000000000E+00  0.30846070667E+02  0.30846070773E+02  0.25500000000E-02 0. -1.
          2   -1    0    0  501    0  0.00000000000E+00 -0.00000000000E+00 -0.35582987854E+04  0.35582987854E+04  0.25500000000E-02 0.  1.
    5000001    1    1    2    0    0 -0.22872393159E+03  0.12158292699E+03 -0.20634398887E+04  0.20891343230E+04  0.19900000000E+03 0.  0.
   -5000001    1    1    2    0    0  0.22872393159E+03 -0.12158292699E+03 -0.14640128260E+04  0.15000105332E+04  0.19900000000E+03 0.  0.
<mgrwt>
<rscale>  0 0.66259954E+03</rscale>
<asrwt>0</asrwt>
<pdfrwt beam="1">  1        2 0.50832813E+00 0.66259954E+03</pdfrwt>
<pdfrwt beam="2">  1       -2 0.44065838E-02 0.66259954E+03</pdfrwt>
<totfact> 0.29998093E+02</totfact>
</mgrwt>
</event>
<event>
 4    1  0.4917371E-005  0.5169355E+03  0.7818608E-02  0.1009451E+00
          2   -1    0    0  501    0  0.00000000000E+00  0.00000000000E+00  0.20939752051E+04  0.20939752051E+04  0.25500000000E-02 0. -1.
         -2   -1    0    0    0  501 -0.00000000000E+00 -0.00000000000E+00 -0.31903707812E+02  0.31903707914E+02  0.25500000000E-02 0.  1.
    5000001    1    1    2    0    0  0.13041636223E+03  0.50480298723E+02  0.13906797814E+04  0.14117889157E+04  0.19900000000E+03 0.  0.
   -5000001    1    1    2    0    0 -0.13041636223E+03 -0.50480298723E+02  0.67139171582E+03  0.71408999725E+03  0.19900000000E+03 0.  0.
<mgrwt>
<rscale>  0 0.51693548E+03</rscale>
<asrwt>0</asrwt>
<pdfrwt beam="1">  1        2 0.29913941E+00 0.51693548E+03</pdfrwt>
<pdfrwt beam="2">  1       -2 0.45576710E-02 0.51693548E+03</pdfrwt>
<totfact> 0.17666792E+03</totfact>
</mgrwt>
</event>
<event>
 4    1  0.4917371E-005  0.4563446E+03  0.7818608E-02  0.1025847E+00
          2   -1    0    0  501    0  0.00000000000E+00  0.00000000000E+00  0.41775758542E+03  0.41775758543E+03  0.25500000000E-02 0.  1.
         -2   -1    0    0    0  501 -0.00000000000E+00 -0.00000000000E+00 -0.12462395893E+03  0.12462395895E+03  0.25500000000E-02 0. -1.
    5000001    1    1    2    0    0  0.74410752883E+02  0.82072059074E+02  0.16289873477E+03  0.28001746519E+03  0.19900000000E+03 0.  0.
   -5000001    1    1    2    0    0 -0.74410752883E+02 -0.82072059074E+02  0.13023489173E+03  0.26236407919E+03  0.19900000000E+03 0.  0.
<mgrwt>
<rscale>  0 0.45634462E+03</rscale>
<asrwt>0</asrwt>
<pdfrwt beam="1">  1        2 0.59679654E-01 0.45634462E+03</pdfrwt>
<pdfrwt beam="2">  1       -2 0.17803423E-01 0.45634462E+03</pdfrwt>
<totfact> 0.21350846E+03</totfact>
</mgrwt>
</event>
<event>
 4    1  0.4917371E-005  0.6670802E+03  0.7818608E-02  0.9775247E-01
         -2   -1    0    0    0  501 -0.00000000000E+00  0.00000000000E+00  0.87103358481E+02  0.87103358519E+02  0.25500000000E-02 0. -1.
          2   -1    0    0  501    0  0.00000000000E+00 -0.00000000000E+00 -0.12772066856E+04  0.12772066856E+04  0.25500000000E-02 0.  1.
    5000001    1    1    2    0    0  0.14615741541E+03  0.22328093545E+03 -0.55256147707E+03  0.64509034418E+03  0.19900000000E+03 0.  0.
   -5000001    1    1    2    0    0 -0.14615741541E+03 -0.22328093545E+03 -0.63754185003E+03  0.71921969992E+03  0.19900000000E+03 0.  0.
<mgrwt>
<rscale>  0 0.66708018E+03</rscale>
<asrwt>0</asrwt>
<pdfrwt beam="1">  1        2 0.18245809E+00 0.66708018E+03</pdfrwt>
<pdfrwt beam="2">  1       -2 0.12443338E-01 0.66708018E+03</pdfrwt>
<totfact> 0.93430287E+02</totfact>
</mgrwt>
</event>
<event>
 4    1  0.4917371E-005  0.5914274E+03  0.7818608E-02  0.9923353E-01
          2   -1    0    0  501    0  0.00000000000E+00  0.00000000000E+00  0.74746539061E+03  0.74746539061E+03  0.25500000000E-02 0.  1.
         -2   -1    0    0    0  501 -0.00000000000E+00 -0.00000000000E+00 -0.11699083203E+03  0.11699083206E+03  0.25500000000E-02 0. -1.
    5000001    1    1    2    0    0 -0.14723879374E+03  0.10342000606E+03  0.13343653315E+03  0.29963522559E+03  0.19900000000E+03 0.  0.
   -5000001    1    1    2    0    0  0.14723879374E+03 -0.10342000606E+03  0.49703802543E+03  0.56482099709E+03  0.19900000000E+03 0.  0.
<mgrwt>
<rscale>  0 0.59142742E+03</rscale>
<asrwt>0</asrwt>
<pdfrwt beam="1">  1        2 0.10678077E+00 0.59142742E+03</pdfrwt>
<pdfrwt beam="2">  1       -2 0.16712976E-01 0.59142742E+03</pdfrwt>
<totfact> 0.12102890E+03</totfact>
</mgrwt>
</event>
<event>
 4    1  0.4917371E-005  0.4530238E+03  0.7818608E-02  0.1026824E+00
         -2   -1    0    0    0  501 -0.00000000000E+00  0.00000000000E+00  0.14134150843E+02  0.14134151073E+02  0.25500000000E-02 0. -1.
          2   -1    0    0  501    0  0.00000000000E+00 -0.00000000000E+00 -0.36300482282E+04  0.36300482282E+04  0.25500000000E-02 0.  1.
    5000001    1    1    2    0    0 -0.95401754398E+02 -0.45319248383E+02 -0.19968349493E+04  0.20095039547E+04  0.19900000000E+03 0.  0.
   -5000001    1    1    2    0    0  0.95401754398E+02  0.45319248383E+02 -0.16190791280E+04  0.16346784246E+04  0.19900000000E+03 0.  0.
<mgrwt>
<rscale>  0 0.45302384E+03</rscale>
<asrwt>0</asrwt>
<pdfrwt beam="1">  1        2 0.51857772E+00 0.45302384E+03</pdfrwt>
<pdfrwt beam="2">  1       -2 0.20191667E-02 0.45302384E+03</pdfrwt>
<totfact> 0.91088682E+02</totfact>
</mgrwt>
</event>
<event>
 4    1  0.4917371E-005  0.8991694E+03  0.7818608E-02  0.9426620E-01
          2   -1    0    0  501    0  0.00000000000E+00  0.00000000000E+00  0.17031656474E+04  0.17031656474E+04  0.25500000000E-02 0.  1.
         -2   -1    0    0    0  501 -0.00000000000E+00 -0.00000000000E+00 -0.11867688901E+03  0.11867688904E+03  0.25500000000E-02 0. -1.
    5000001    1    1    2    0    0 -0.26014937277E+03  0.28737538857E+03  0.56787205519E+03  0.71578067952E+03  0.19900000000E+03 0.  0.
   -5000001    1    1    2    0    0  0.26014937277E+03 -0.28737538857E+03  0.10166167032E+04  0.11060618569E+04  0.19900000000E+03 0.  0.
<mgrwt>
<rscale>  0 0.89916940E+03</rscale>
<asrwt>0</asrwt>
<pdfrwt beam="1">  1        2 0.24330937E+00 0.89916940E+03</pdfrwt>
<pdfrwt beam="2">  1       -2 0.16953842E-01 0.89916940E+03</pdfrwt>
<totfact> 0.32644063E+02</totfact>
</mgrwt>
</event>
<event>
 4    1  0.4917371E-005  0.4700304E+03  0.7818608E-02  0.1021912E+00
         -2   -1    0    0    0  501 -0.00000000000E+00  0.00000000000E+00  0.98559142883E+02  0.98559142916E+02  0.25500000000E-02 0. -1.
          2   -1    0    0  501    0  0.00000000000E+00 -0.00000000000E+00 -0.56039595851E+03  0.56039595852E+03  0.25500000000E-02 0.  1.
    5000001    1    1    2    0    0  0.81606763430E+02 -0.68969001770E+02 -0.13990272939E+03  0.26568808918E+03  0.19900000000E+03 0.  0.
   -5000001    1    1    2    0    0 -0.81606763430E+02  0.68969001770E+02 -0.32193408624E+03  0.39326701225E+03  0.19900000000E+03 0.  0.
<mgrwt>
<rscale>  0 0.47003040E+03</rscale>
<asrwt>0</asrwt>
<pdfrwt beam="1">  1        2 0.80056564E-01 0.47003040E+03</pdfrwt>
<pdfrwt beam="2">  1       -2 0.14079878E-01 0.47003040E+03</pdfrwt>
<totfact> 0.22785074E+03</totfact>
</mgrwt>
</event>
<event>
 4    1  0.4917371E-005  0.6570089E+03  0.7818608E-02  0.9793716E-01
          2   -1    0    0  501    0  0.00000000000E+00  0.00000000000E+00  0.16122261409E+04  0.16122261409E+04  0.25500000000E-02 0.  1.
         -2   -1    0    0    0  501 -0.00000000000E+00 -0.00000000000E+00 -0.66935514565E+02  0.66935514614E+02  0.25500000000E-02 0. -1.
    5000001    1    1    2    0    0  0.14249372190E+03 -0.36460513888E+02  0.13248350270E+04  0.13477472606E+04  0.19900000000E+03 0.  0.
   -5000001    1    1    2    0    0 -0.14249372190E+03  0.36460513888E+02  0.22045559940E+03  0.33141439492E+03  0.19900000000E+03 0.  0.
<mgrwt>
<rscale>  0 0.65700894E+03</rscale>
<asrwt>0</asrwt>
<pdfrwt beam="1">  1        2 0.23031800E+00 0.65700894E+03</pdfrwt>
<pdfrwt beam="2">  1       -2 0.95622170E-02 0.65700894E+03</pdfrwt>
<totfact> 0.95590205E+02</totfact>
</mgrwt>
</event>
<event>
 4    1  0.4917371E-005  0.7025274E+03  0.7818608E-02  0.9712920E-01
          2   -1    0    0  501    0  0.00000000000E+00  0.00000000000E+00  0.58838023375E+03  0.58838023376E+03  0.25500000000E-02 0.  1.
         -2   -1    0    0    0  501 -0.00000000000E+00 -0.00000000000E+00 -0.20970482684E+03  0.20970482685E+03  0.25500000000E-02 0. -1.
    5000001    1    1    2    0    0 -0.15493439267E+03 -0.22821970159E+03  0.28899894080E+03  0.44632979511E+03  0.19900000000E+03 0.  0.
   -5000001    1    1    2    0    0  0.15493439267E+03  0.22821970159E+03  0.89676466118E+02  0.35175526549E+03  0.19900000000E+03 0.  0.
<mgrwt>
<rscale>  0 0.70252737E+03</rscale>
<asrwt>0</asrwt>
<pdfrwt beam="1">  1        2 0.84054318E-01 0.70252737E+03</pdfrwt>
<pdfrwt beam="2">  1       -2 0.29957833E-01 0.70252737E+03</pdfrwt>
<totfact> 0.57330744E+02</totfact>
</mgrwt>
</event>
<event>
 4    1  0.4917371E-005  0.7020955E+03  0.7818608E-02  0.9713655E-01
          2   -1    0    0  501    0  0.00000000000E+00  0.00000000000E+00  0.12532968069E+04  0.12532968069E+04  0.25500000000E-02 0.  1.
         -2   -1    0    0    0  501 -0.00000000000E+00 -0.00000000000E+00 -0.98328295864E+02  0.98328295897E+02  0.25500000000E-02 0. -1.
    5000001    1    1    2    0    0 -0.13344936048E+03 -0.18493671979E+03  0.91982851937E+03  0.96834695600E+03  0.19900000000E+03 0.  0.
   -5000001    1    1    2    0    0  0.13344936048E+03  0.18493671979E+03  0.23513999166E+03  0.38327814680E+03  0.19900000000E+03 0.  0.
<mgrwt>
<rscale>  0 0.70209555E+03</rscale>
<asrwt>0</asrwt>
<pdfrwt beam="1">  1        2 0.17904238E+00 0.70209555E+03</pdfrwt>
<pdfrwt beam="2">  1       -2 0.14046901E-01 0.70209555E+03</pdfrwt>
<totfact> 0.78595253E+02</totfact>
</mgrwt>
</event>
<event>
 4    1  0.4917371E-005  0.6393981E+03  0.7818608E-02  0.9826879E-01
          2   -1    0    0  501    0  0.00000000000E+00  0.00000000000E+00  0.19940161484E+03  0.19940161486E+03  0.25500000000E-02 0.  1.
         -2   -1    0    0    0  501 -0.00000000000E+00 -0.00000000000E+00 -0.51257105989E+03  0.51257105990E+03  0.25500000000E-02 0. -1.
    5000001    1    1    2    0    0 -0.39024115130E+00 -0.25020757342E+03 -0.15835059642E+03  0.35676307751E+03  0.19900000000E+03 0.  0.
   -5000001    1    1    2    0    0  0.39024115130E+00  0.25020757342E+03 -0.15481884863E+03  0.35520959725E+03  0.19900000000E+03 0.  0.
<mgrwt>
<rscale>  0 0.63939815E+03</rscale>
<asrwt>0</asrwt>
<pdfrwt beam="1">  1        2 0.28485945E-01 0.63939815E+03</pdfrwt>
<pdfrwt beam="2">  1       -2 0.73224437E-01 0.63939815E+03</pdfrwt>
<totfact> 0.32092070E+02</totfact>
</mgrwt>
</event>
<event>
 4    1  0.4917371E-005  0.5144902E+03  0.7818608E-02  0.1010064E+00
          2   -1    0    0  501    0  0.00000000000E+00  0.00000000000E+00  0.46442546771E+03  0.46442546772E+03  0.25500000000E-02 0. -1.
         -2   -1    0    0    0  501 -0.00000000000E+00 -0.00000000000E+00 -0.14248796289E+03  0.14248796292E+03  0.25500000000E-02 0.  1.
    5000001    1    1    2    0    0  0.58866034987E+02 -0.11290015131E+03  0.40886312569E+02  0.23975893059E+03  0.19900000000E+03 0.  0.
   -5000001    1    1    2    0    0 -0.58866034987E+02  0.11290015131E+03  0.28105119225E+03  0.36715450005E+03  0.19900000000E+03 0.  0.
<mgrwt>
<rscale>  0 0.51449019E+03</rscale>
<asrwt>0</asrwt>
<pdfrwt beam="1">  1        2 0.66346497E-01 0.51449019E+03</pdfrwt>
<pdfrwt beam="2">  1       -2 0.20355423E-01 0.51449019E+03</pdfrwt>
<totfact> 0.15077719E+03</totfact>
</mgrwt>
</event>
<event>
 4    1  0.4917371E-005  0.5470758E+03  0.7818608E-02  0.1002173E+00
          2   -1    0    0  501    0  0.00000000000E+00  0.00000000000E+00  0.52574151503E+03  0.52574151503E+03  0.25500000000E-02 0.  1.
         -2   -1    0    0    0  501 -0.00000000000E+00 -0.00000000000E+00 -0.14231895941E+03  0.14231895943E+03  0.25500000000E-02 0. -1.
    5000001    1    1    2    0    0  0.17051057331E+03 -0.58807368474E+02  0.12837826776E+03  0.29768127558E+03  0.19900000000E+03 0.  0.
   -5000001    1    1    2    0    0 -0.17051057331E+03  0.58807368474E+02  0.25504428786E+03  0.37037919888E+03  0.19900000000E+03 0.  0.
<mgrwt>
<rscale>  0 0.54707581E+03</rscale>
<asrwt>0</asrwt>
<pdfrwt beam="1">  1        2 0.75105933E-01 0.54707581E+03</pdfrwt>
<pdfrwt beam="2">  1       -2 0.20331279E-01 0.54707581E+03</pdfrwt>
<totfact> 0.13130315E+03</totfact>
</mgrwt>
</event>
<event>
 4    1  0.4917371E-005  0.6293134E+03  0.7818608E-02  0.9846390E-01
          2   -1    0    0  501    0  0.00000000000E+00  0.00000000000E+00  0.12428777863E+04  0.12428777863E+04  0.25500000000E-02 0.  1.
         -2   -1    0    0    0  501 -0.00000000000E+00 -0.00000000000E+00 -0.79660952036E+02  0.79660952077E+02  0.25500000000E-02 0. -1.
    5000001    1    1    2    0    0  0.14804641252E+02 -0.23744405585E+03  0.47022640727E+03  0.56330518474E+03  0.19900000000E+03 0.  0.
   -5000001    1    1    2    0    0 -0.14804641252E+02  0.23744405585E+03  0.69299042696E+03  0.75923355360E+03  0.19900000000E+03 0.  0.
<mgrwt>
<rscale>  0 0.62931336E+03</rscale>
<asrwt>0</asrwt>
<pdfrwt beam="1">  1        2 0.17755396E+00 0.62931336E+03</pdfrwt>
<pdfrwt beam="2">  1       -2 0.11380137E-01 0.62931336E+03</pdfrwt>
<totfact> 0.11320968E+03</totfact>
</mgrwt>
</event>
<event>
 4    1  0.4917371E-005  0.4516050E+03  0.7818608E-02  0.1027244E+00
          2   -1    0    0  501    0  0.00000000000E+00  0.00000000000E+00  0.12748154271E+04  0.12748154271E+04  0.25500000000E-02 0.  1.
         -2   -1    0    0    0  501 -0.00000000000E+00 -0.00000000000E+00 -0.39995420052E+02  0.39995420134E+02  0.25500000000E-02 0. -1.
    5000001    1    1    2    0    0 -0.84069798978E+02 -0.91171422371E+01  0.42794571362E+03  0.47946781663E+03  0.19900000000E+03 0.  0.
   -5000001    1    1    2    0    0  0.84069798978E+02  0.91171422371E+01  0.80687429348E+03  0.83534303065E+03  0.19900000000E+03 0.  0.
<mgrwt>
<rscale>  0 0.45160504E+03</rscale>
<asrwt>0</asrwt>
<pdfrwt beam="1">  1        2 0.18211650E+00 0.45160504E+03</pdfrwt>
<pdfrwt beam="2">  1       -2 0.57136310E-02 0.45160504E+03</pdfrwt>
<totfact> 0.32676492E+03</totfact>
</mgrwt>
</event>
<event>
 4    1  0.4917371E-005  0.6370198E+03  0.7818608E-02  0.9831445E-01
         -2   -1    0    0    0  501 -0.00000000000E+00  0.00000000000E+00  0.66267671361E+02  0.66267671410E+02  0.25500000000E-02 0. -1.
          2   -1    0    0  501    0  0.00000000000E+00 -0.00000000000E+00 -0.15308905039E+04  0.15308905039E+04  0.25500000000E-02 0.  1.
    5000001    1    1    2    0    0  0.23997453247E+03 -0.59277098229E+02 -0.66383139065E+03  0.73578166994E+03  0.19900000000E+03 0.  0.
   -5000001    1    1    2    0    0 -0.23997453247E+03  0.59277098229E+02 -0.80079144193E+03  0.86137650541E+03  0.19900000000E+03 0.  0.
<mgrwt>
<rscale>  0 0.63701978E+03</rscale>
<asrwt>0</asrwt>
<pdfrwt beam="1">  1        2 0.21869862E+00 0.63701978E+03</pdfrwt>
<pdfrwt beam="2">  1       -2 0.94668112E-02 0.63701978E+03</pdfrwt>
<totfact> 0.10712752E+03</totfact>
</mgrwt>
</event>
<event>
 4    1  0.4917371E-005  0.5452528E+03  0.7818608E-02  0.1002599E+00
          2   -1    0    0  501    0  0.00000000000E+00  0.00000000000E+00  0.29158482118E+03  0.29158482119E+03  0.25500000000E-02 0.  1.
         -2   -1    0    0    0  501 -0.00000000000E+00 -0.00000000000E+00 -0.25490066189E+03  0.25490066190E+03  0.25500000000E-02 0. -1.
    5000001    1    1    2    0    0  0.95930312088E+02  0.59083737669E+02  0.16710488597E+03  0.28322880459E+03  0.19900000000E+03 0.  0.
   -5000001    1    1    2    0    0 -0.95930312088E+02 -0.59083737669E+02 -0.13042072668E+03  0.26325667851E+03  0.19900000000E+03 0.  0.
<mgrwt>
<rscale>  0 0.54525284E+03</rscale>
<asrwt>0</asrwt>
<pdfrwt beam="1">  1        2 0.41654975E-01 0.54525284E+03</pdfrwt>
<pdfrwt beam="2">  1       -2 0.36414380E-01 0.54525284E+03</pdfrwt>
<totfact> 0.87670112E+02</totfact>
</mgrwt>
</event>
<event>
 4    1  0.4917371E-005  0.9321928E+03  0.7818608E-02  0.9386210E-01
          2   -1    0    0  501    0  0.00000000000E+00  0.00000000000E+00  0.63311396103E+03  0.63311396103E+03  0.25500000000E-02 0.  1.
         -2   -1    0    0    0  501 -0.00000000000E+00 -0.00000000000E+00 -0.34313864268E+03  0.34313864269E+03  0.25500000000E-02 0. -1.
    5000001    1    1    2    0    0 -0.39997533653E+03  0.86078183567E+01  0.60897997538E+01  0.44686961189E+03  0.19900000000E+03 0.  0.
   -5000001    1    1    2    0    0  0.39997533653E+03 -0.86078183567E+01  0.28388551860E+03  0.52938299183E+03  0.19900000000E+03 0.  0.
<mgrwt>
<rscale>  0 0.93219282E+03</rscale>
<asrwt>0</asrwt>
<pdfrwt beam="1">  1        2 0.90444851E-01 0.93219282E+03</pdfrwt>
<pdfrwt beam="2">  1       -2 0.49019806E-01 0.93219282E+03</pdfrwt>
<totfact> 0.20073702E+02</totfact>
</mgrwt>
</event>
<event>
 4    1  0.4917371E-005  0.4468126E+03  0.7818608E-02  0.1028677E+00
          2   -1    0    0  501    0  0.00000000000E+00  0.00000000000E+00  0.23777934578E+04  0.23777934578E+04  0.25500000000E-02 0.  1.
         -2   -1    0    0    0  501 -0.00000000000E+00 -0.00000000000E+00 -0.20990207824E+02  0.20990207979E+02  0.25500000000E-02 0. -1.
    5000001    1    1    2    0    0  0.19118887096E+02 -0.99671614399E+02  0.11948760278E+04  0.12155779220E+04  0.19900000000E+03 0.  0.
   -5000001    1    1    2    0    0 -0.19118887096E+02  0.99671614399E+02  0.11619272221E+04  0.11832057438E+04  0.19900000000E+03 0.  0.
<mgrwt>
<rscale>  0 0.44681262E+03</rscale>
<asrwt>0</asrwt>
<pdfrwt beam="1">  1        2 0.33968490E+00 0.44681262E+03</pdfrwt>
<pdfrwt beam="2">  1       -2 0.29986001E-02 0.44681262E+03</pdfrwt>
<totfact> 0.24186039E+03</totfact>
</mgrwt>
</event>
<event>
 4    1  0.4917371E-005  0.4983046E+03  0.7818608E-02  0.1014222E+00
         -2   -1    0    0    0  501 -0.00000000000E+00  0.00000000000E+00  0.38933116729E+02  0.38933116812E+02  0.25500000000E-02 0. -1.
          2   -1    0    0  501    0  0.00000000000E+00 -0.00000000000E+00 -0.15944488638E+04  0.15944488638E+04  0.25500000000E-02 0.  1.
    5000001    1    1    2    0    0  0.12512638897E+03 -0.81312337005E+02 -0.73053429521E+03  0.77171864422E+03  0.19900000000E+03 0.  0.
   -5000001    1    1    2    0    0 -0.12512638897E+03  0.81312337005E+02 -0.82498145188E+03  0.86166333640E+03  0.19900000000E+03 0.  0.
<mgrwt>
<rscale>  0 0.49830458E+03</rscale>
<asrwt>0</asrwt>
<pdfrwt beam="1">  1        2 0.22777837E+00 0.49830458E+03</pdfrwt>
<pdfrwt beam="2">  1       -2 0.55618748E-02 0.49830458E+03</pdfrwt>
<totfact> 0.23157880E+03</totfact>
</mgrwt>
</event>
<event>
 4    1  0.4917371E-005  0.8444214E+03  0.7818608E-02  0.9497855E-01
          2   -1    0    0  501    0  0.00000000000E+00  0.00000000000E+00  0.50642903285E+03  0.50642903286E+03  0.25500000000E-02 0.  1.
         -2   -1    0    0    0  501 -0.00000000000E+00 -0.00000000000E+00 -0.35199771067E+03  0.35199771068E+03  0.25500000000E-02 0. -1.
    5000001    1    1    2    0    0  0.48145474086E+02 -0.36200228518E+03  0.15120480325E+03  0.44252404870E+03  0.19900000000E+03 0.  0.
   -5000001    1    1    2    0    0 -0.48145474086E+02  0.36200228518E+03  0.32265189274E+01  0.41590269484E+03  0.19900000000E+03 0.  0.
<mgrwt>
<rscale>  0 0.84442136E+03</rscale>
<asrwt>0</asrwt>
<pdfrwt beam="1">  1        2 0.72347005E-01 0.84442136E+03</pdfrwt>
<pdfrwt beam="2">  1       -2 0.50285387E-01 0.84442136E+03</pdfrwt>
<totfact> 0.24869823E+02</totfact>
</mgrwt>
</event>
<event>
 4    1  0.4917371E-005  0.6065985E+03  0.7818608E-02  0.9891810E-01
         -2   -1    0    0    0  501 -0.00000000000E+00  0.00000000000E+00  0.58531320634E+02  0.58531320689E+02  0.25500000000E-02 0. -1.
          2   -1    0    0  501    0  0.00000000000E+00 -0.00000000000E+00 -0.15716445217E+04  0.15716445217E+04  0.25500000000E-02 0.  1.
    5000001    1    1    2    0    0 -0.52434550017E+02  0.18604360820E+03 -0.42711292559E+03  0.50930153877E+03  0.19900000000E+03 0.  0.
   -5000001    1    1    2    0    0  0.52434550017E+02 -0.18604360820E+03 -0.10860002755E+04  0.11208743036E+04  0.19900000000E+03 0.  0.
<mgrwt>
<rscale>  0 0.60659848E+03</rscale>
<asrwt>0</asrwt>
<pdfrwt beam="1">  1        2 0.22452062E+00 0.60659848E+03</pdfrwt>
<pdfrwt beam="2">  1       -2 0.83616182E-02 0.60659848E+03</pdfrwt>
<totfact> 0.12473444E+03</totfact>
</mgrwt>
</event>
<event>
 4    1  0.4917371E-005  0.6813809E+03  0.7818608E-02  0.9749614E-01
          2   -1    0    0  501    0  0.00000000000E+00  0.00000000000E+00  0.55764801929E+03  0.55764801930E+03  0.25500000000E-02 0.  1.
         -2   -1    0    0    0  501 -0.00000000000E+00 -0.00000000000E+00 -0.20814202642E+03  0.20814202644E+03  0.25500000000E-02 0. -1.
    5000001    1    1    2    0    0 -0.22208711255E+03  0.56406796986E+01  0.35981635413E+03  0.46735779819E+03  0.19900000000E+03 0.  0.
   -5000001    1    1    2    0    0  0.22208711255E+03 -0.56406796986E+01 -0.10310361260E+02  0.29843224755E+03  0.19900000000E+03 0.  0.
<mgrwt>
<rscale>  0 0.68138092E+03</rscale>
<asrwt>0</asrwt>
<pdfrwt beam="1">  1        2 0.79664002E-01 0.68138092E+03</pdfrwt>
<pdfrwt beam="2">  1       -2 0.29734575E-01 0.68138092E+03</pdfrwt>
<totfact> 0.61928827E+02</totfact>
</mgrwt>
</event>
<event>
 4    1  0.4917371E-005  0.4367804E+03  0.7818608E-02  0.1031739E+00
          2   -1    0    0  501    0  0.00000000000E+00  0.00000000000E+00  0.30655067033E+03  0.30655067034E+03  0.25500000000E-02 0.  1.
         -2   -1    0    0    0  501 -0.00000000000E+00 -0.00000000000E+00 -0.15558367832E+03  0.15558367834E+03  0.25500000000E-02 0. -1.
    5000001    1    1    2    0    0 -0.57765563403E+02  0.39763109294E+01  0.14833226097E+03  0.25486492698E+03  0.19900000000E+03 0.  0.
   -5000001    1    1    2    0    0  0.57765563403E+02 -0.39763109294E+01  0.26347310479E+01  0.20726942170E+03  0.19900000000E+03 0.  0.
<mgrwt>
<rscale>  0 0.43678041E+03</rscale>
<asrwt>0</asrwt>
<pdfrwt beam="1">  1        2 0.43792953E-01 0.43678041E+03</pdfrwt>
<pdfrwt beam="2">  1       -2 0.22226239E-01 0.43678041E+03</pdfrwt>
<totfact> 0.20418984E+03</totfact>
</mgrwt>
</event>
<event>
 4    1  0.4917371E-005  0.5249428E+03  0.7818608E-02  0.1007466E+00
         -2   -1    0    0    0  501 -0.00000000000E+00  0.00000000000E+00  0.38142297295E+02  0.38142297380E+02  0.25500000000E-02 0. -1.
          2   -1    0    0  501    0  0.00000000000E+00 -0.00000000000E+00 -0.18061637184E+04  0.18061637184E+04  0.25500000000E-02 0.  1.
    5000001    1    1    2    0    0  0.40134553437E+02  0.10346899588E+03 -0.42628193065E+03  0.48335690736E+03  0.19900000000E+03 0.  0.
   -5000001    1    1    2    0    0 -0.40134553437E+02 -0.10346899588E+03 -0.13417394905E+04  0.13609491085E+04  0.19900000000E+03 0.  0.
<mgrwt>
<rscale>  0 0.52494279E+03</rscale>
<asrwt>0</asrwt>
<pdfrwt beam="1">  1        2 0.25802333E+00 0.52494279E+03</pdfrwt>
<pdfrwt beam="2">  1       -2 0.54489008E-02 0.52494279E+03</pdfrwt>
<totfact> 0.18666537E+03</totfact>
</mgrwt>
</event>
<event>
 4    1  0.4917371E-005  0.5433902E+03  0.7818608E-02  0.1003036E+00
          2   -1    0    0  501    0  0.00000000000E+00  0.00000000000E+00  0.14747829402E+04  0.14747829402E+04  0.25500000000E-02 0.  1.
         -2   -1    0    0    0  501 -0.00000000000E+00 -0.00000000000E+00 -0.50053626589E+02  0.50053626654E+02  0.25500000000E-02 0. -1.
    5000001    1    1    2    0    0 -0.15365468283E+02 -0.17989943793E+03  0.59951228356E+03  0.65697479672E+03  0.19900000000E+03 0.  0.
   -5000001    1    1    2    0    0  0.15365468283E+02  0.17989943793E+03  0.82521703007E+03  0.86786177016E+03  0.19900000000E+03 0.  0.
<mgrwt>
<rscale>  0 0.54339023E+03</rscale>
<asrwt>0</asrwt>
<pdfrwt beam="1">  1        2 0.21068321E+00 0.54339023E+03</pdfrwt>
<pdfrwt beam="2">  1       -2 0.71505203E-02 0.54339023E+03</pdfrwt>
<totfact> 0.17993103E+03</totfact>
</mgrwt>
</event>
<event>
 4    1  0.4917371E-005  0.5285410E+03  0.7818608E-02  0.1006587E+00
         -2   -1    0    0    0  501 -0.00000000000E+00  0.00000000000E+00  0.55413233909E+02  0.55413233968E+02  0.25500000000E-02 0. -1.
          2   -1    0    0  501    0  0.00000000000E+00 -0.00000000000E+00 -0.12603289955E+04  0.12603289955E+04  0.25500000000E-02 0.  1.
    5000001    1    1    2    0    0  0.24299974835E+02 -0.15404564136E+03 -0.79395224381E+03  0.83323568926E+03  0.19900000000E+03 0.  0.
   -5000001    1    1    2    0    0 -0.24299974835E+02  0.15404564136E+03 -0.41096351774E+03  0.48250654018E+03  0.19900000000E+03 0.  0.
<mgrwt>
<rscale>  0 0.52854103E+03</rscale>
<asrwt>0</asrwt>
<pdfrwt beam="1">  1        2 0.18004698E+00 0.52854103E+03</pdfrwt>
<pdfrwt beam="2">  1       -2 0.79161771E-02 0.52854103E+03</pdfrwt>
<totfact> 0.19936433E+03</totfact>
</mgrwt>
</event>
<event>
 4    1  0.4917371E-005  0.4972083E+03  0.7818608E-02  0.1014510E+00
          2   -1    0    0  501    0  0.00000000000E+00  0.00000000000E+00  0.18663941669E+03  0.18663941671E+03  0.25500000000E-02 0.  1.
         -2   -1    0    0    0  501 -0.00000000000E+00 -0.00000000000E+00 -0.33114136285E+03  0.33114136286E+03  0.25500000000E-02 0. -1.
    5000001    1    1    2    0    0 -0.33590162866E+02  0.13600225470E+03 -0.19374927814E+02  0.24413377512E+03  0.19900000000E+03 0.  0.
   -5000001    1    1    2    0    0  0.33590162866E+02 -0.13600225470E+03 -0.12512701835E+03  0.27364700445E+03  0.19900000000E+03 0.  0.
<mgrwt>
<rscale>  0 0.49720833E+03</rscale>
<asrwt>0</asrwt>
<pdfrwt beam="1">  1        2 0.26662774E-01 0.49720833E+03</pdfrwt>
<pdfrwt beam="2">  1       -2 0.47305909E-01 0.49720833E+03</pdfrwt>
<totfact> 0.86491436E+02</totfact>
</mgrwt>
</event>
<event>
 4    1  0.4917371E-005  0.1077537E+04  0.7818608E-02  0.9227366E-01
          2   -1    0    0  501    0  0.00000000000E+00  0.00000000000E+00  0.12413779644E+04  0.12413779644E+04  0.25500000000E-02 0.  1.
         -2   -1    0    0    0  501 -0.00000000000E+00 -0.00000000000E+00 -0.23383014977E+03  0.23383014978E+03  0.25500000000E-02 0. -1.
    5000001    1    1    2    0    0 -0.39398125655E+03 -0.10434210522E+03  0.10565859585E+03  0.46569651524E+03  0.19900000000E+03 0.  0.
   -5000001    1    1    2    0    0  0.39398125655E+03  0.10434210522E+03  0.90188921875E+03  0.10095115989E+04  0.19900000000E+03 0.  0.
<mgrwt>
<rscale>  0 0.10775372E+04</rscale>
<asrwt>0</asrwt>
<pdfrwt beam="1">  1        2 0.17733971E+00 0.10775372E+04</pdfrwt>
<pdfrwt beam="2">  1       -2 0.33404307E-01 0.10775372E+04</pdfrwt>
<totfact> 0.16822574E+02</totfact>
</mgrwt>
</event>
<event>
 4    1  0.4917371E-005  0.5845641E+03  0.7818608E-02  0.9937958E-01
         -2   -1    0    0    0  501 -0.00000000000E+00  0.00000000000E+00  0.22736016816E+04  0.22736016816E+04  0.25500000000E-02 0. -1.
          2   -1    0    0  501    0  0.00000000000E+00 -0.00000000000E+00 -0.37574209357E+02  0.37574209444E+02  0.25500000000E-02 0.  1.
    5000001    1    1    2    0    0 -0.11700019050E+03  0.15923594846E+03  0.79240150346E+03  0.84056306994E+03  0.19900000000E+03 0.  0.
   -5000001    1    1    2    0    0  0.11700019050E+03 -0.15923594846E+03  0.14436259687E+04  0.14706128211E+04  0.19900000000E+03 0.  0.
<mgrwt>
<rscale>  0 0.58456406E+03</rscale>
<asrwt>0</asrwt>
<pdfrwt beam="1">  1        2 0.53677435E-02 0.58456406E+03</pdfrwt>
<pdfrwt beam="2">  1       -2 0.32480028E+00 0.58456406E+03</pdfrwt>
<totfact> 0.35847487E+01</totfact>
</mgrwt>
</event>
<event>
 4    1  0.4917371E-005  0.6256123E+03  0.7818608E-02  0.9853649E-01
          2   -1    0    0  501    0  0.00000000000E+00  0.00000000000E+00  0.51856636754E+02  0.51856636817E+02  0.25500000000E-02 0.  1.
         -2   -1    0    0    0  501 -0.00000000000E+00 -0.00000000000E+00 -0.18868886178E+04  0.18868886178E+04  0.25500000000E-02 0. -1.
    5000001    1    1    2    0    0  0.23027752872E+03 -0.66467495331E+02 -0.10052240927E+04  0.10523887802E+04  0.19900000000E+03 0.  0.
   -5000001    1    1    2    0    0 -0.23027752872E+03  0.66467495331E+02 -0.82980788841E+03  0.88635647447E+03  0.19900000000E+03 0.  0.
<mgrwt>
<rscale>  0 0.62561233E+03</rscale>
<asrwt>0</asrwt>
<pdfrwt beam="1">  1        2 0.74080921E-02 0.62561233E+03</pdfrwt>
<pdfrwt beam="2">  1       -2 0.26955547E+00 0.62561233E+03</pdfrwt>
<totfact> 0.49873600E+01</totfact>
</mgrwt>
</event>
<event>
 4    1  0.4917371E-005  0.1340068E+04  0.7818608E-02  0.8998381E-01
         -2   -1    0    0    0  501 -0.00000000000E+00  0.00000000000E+00  0.31683412389E+03  0.31683412390E+03  0.25500000000E-02 0. -1.
          2   -1    0    0  501    0  0.00000000000E+00 -0.00000000000E+00 -0.14169732020E+04  0.14169732020E+04  0.25500000000E-02 0.  1.
    5000001    1    1    2    0    0  0.33348313942E+03  0.52523192574E+03 -0.74312596096E+03  0.98940223062E+03  0.19900000000E+03 0.  0.
   -5000001    1    1    2    0    0 -0.33348313942E+03 -0.52523192574E+03 -0.35701311718E+03  0.74440509532E+03  0.19900000000E+03 0.  0.
<mgrwt>
<rscale>  0 0.13400679E+04</rscale>
<asrwt>0</asrwt>
<pdfrwt beam="1">  1        2 0.20242474E+00 0.13400679E+04</pdfrwt>
<pdfrwt beam="2">  1       -2 0.45262018E-01 0.13400679E+04</pdfrwt>
<totfact> 0.73316655E+01</totfact>
</mgrwt>
</event>
<event>
 4    1  0.4917371E-005  0.1033059E+04  0.7818608E-02  0.9273011E-01
          2   -1    0    0  501    0  0.00000000000E+00  0.00000000000E+00  0.13197995515E+04  0.13197995515E+04  0.25500000000E-02 0.  1.
         -2   -1    0    0    0  501 -0.00000000000E+00 -0.00000000000E+00 -0.20215398369E+03  0.20215398371E+03  0.25500000000E-02 0. -1.
    5000001    1    1    2    0    0  0.22927432511E+03  0.20128483030E+03  0.10983608864E+04  0.11571862148E+04  0.19900000000E+03 0.  0.
   -5000001    1    1    2    0    0 -0.22927432511E+03 -0.20128483030E+03  0.19284681395E+02  0.36476732035E+03  0.19900000000E+03 0.  0.
<mgrwt>
<rscale>  0 0.10330590E+04</rscale>
<asrwt>0</asrwt>
<pdfrwt beam="1">  1        2 0.18854279E+00 0.10330590E+04</pdfrwt>
<pdfrwt beam="2">  1       -2 0.28879140E-01 0.10330590E+04</pdfrwt>
<totfact> 0.20032247E+02</totfact>
</mgrwt>
</event>
<event>
 4    1  0.4917371E-005  0.4511661E+03  0.7818608E-02  0.1027375E+00
          2   -1    0    0  501    0  0.00000000000E+00  0.00000000000E+00  0.13680527128E+04  0.13680527128E+04  0.25500000000E-02 0.  1.
         -2   -1    0    0    0  501 -0.00000000000E+00 -0.00000000000E+00 -0.37197182264E+02  0.37197182351E+02  0.25500000000E-02 0. -1.
    5000001    1    1    2    0    0 -0.94998924463E+02  0.45785241486E+02  0.62534327379E+03  0.66466254149E+03  0.19900000000E+03 0.  0.
   -5000001    1    1    2    0    0  0.94998924463E+02 -0.45785241486E+02  0.70551225676E+03  0.74058735367E+03  0.19900000000E+03 0.  0.
<mgrwt>
<rscale>  0 0.45116607E+03</rscale>
<asrwt>0</asrwt>
<pdfrwt beam="1">  1        2 0.19543608E+00 0.45116607E+03</pdfrwt>
<pdfrwt beam="2">  1       -2 0.53138837E-02 0.45116607E+03</pdfrwt>
<totfact> 0.32592249E+03</totfact>
</mgrwt>
</event>
<event>
 4    1  0.4917371E-005  0.4389062E+03  0.7818608E-02  0.1031083E+00
          2   -1    0    0  501    0  0.00000000000E+00  0.00000000000E+00  0.18528060253E+04  0.18528060253E+04  0.25500000000E-02 0.  1.
         -2   -1    0    0    0  501 -0.00000000000E+00 -0.00000000000E+00 -0.25992828280E+02  0.25992828406E+02  0.25500000000E-02 0. -1.
    5000001    1    1    2    0    0  0.15579642650E+02  0.86524939013E+02  0.79012877277E+03  0.81953265212E+03  0.19900000000E+03 0.  0.
   -5000001    1    1    2    0    0 -0.15579642650E+02 -0.86524939013E+02  0.10366844242E+04  0.10592662016E+04  0.19900000000E+03 0.  0.
<mgrwt>
<rscale>  0 0.43890623E+03</rscale>
<asrwt>0</asrwt>
<pdfrwt beam="1">  1        2 0.26468670E+00 0.43890623E+03</pdfrwt>
<pdfrwt beam="2">  1       -2 0.37132594E-02 0.43890623E+03</pdfrwt>
<totfact> 0.31966355E+03</totfact>
</mgrwt>
</event>
<event>
 4    1  0.4917371E-005  0.7193928E+03  0.7818608E-02  0.9684631E-01
          2   -1    0    0  501    0  0.00000000000E+00  0.00000000000E+00  0.34391879441E+03  0.34391879442E+03  0.25500000000E-02 0.  1.
         -2   -1    0    0    0  501 -0.00000000000E+00 -0.00000000000E+00 -0.37619780218E+03  0.37619780219E+03  0.25500000000E-02 0. -1.
    5000001    1    1    2    0    0 -0.21998005290E+03  0.17121150146E+03 -0.12614043600E+03  0.36498905668E+03  0.19900000000E+03 0.  0.
   -5000001    1    1    2    0    0  0.21998005290E+03 -0.17121150146E+03  0.93861428227E+02  0.35512753993E+03  0.19900000000E+03 0.  0.
<mgrwt>
<rscale>  0 0.71939278E+03</rscale>
<asrwt>0</asrwt>
<pdfrwt beam="1">  1        2 0.49131256E-01 0.71939278E+03</pdfrwt>
<pdfrwt beam="2">  1       -2 0.53742543E-01 0.71939278E+03</pdfrwt>
<totfact> 0.33682194E+02</totfact>
</mgrwt>
</event>
<event>
 4    1  0.4917371E-005  0.5907127E+03  0.7818608E-02  0.9924864E-01
         -2   -1    0    0    0  501 -0.00000000000E+00  0.00000000000E+00  0.43949286538E+02  0.43949286612E+02  0.25500000000E-02 0. -1.
          2   -1    0    0  501    0  0.00000000000E+00 -0.00000000000E+00 -0.19849101345E+04  0.19849101345E+04  0.25500000000E-02 0.  1.
    5000001    1    1    2    0    0  0.10253502713E+03 -0.19167618059E+03 -0.10375381528E+04  0.10785822215E+04  0.19900000000E+03 0.  0.
   -5000001    1    1    2    0    0 -0.10253502713E+03  0.19167618059E+03 -0.90342269515E+03  0.95027719962E+03  0.19900000000E+03 0.  0.
<mgrwt>
<rscale>  0 0.59071274E+03</rscale>
<asrwt>0</asrwt>
<pdfrwt beam="1">  1        2 0.28355853E+00 0.59071274E+03</pdfrwt>
<pdfrwt beam="2">  1       -2 0.62784708E-02 0.59071274E+03</pdfrwt>
<totfact> 0.12132985E+03</totfact>
</mgrwt>
</event>
<event>
 4    1  0.4917371E-005  0.6419768E+03  0.7818608E-02  0.9821952E-01
         -2   -1    0    0    0  501 -0.00000000000E+00  0.00000000000E+00  0.16317581290E+03  0.16317581292E+03  0.25500000000E-02 0. -1.
          2   -1    0    0  501    0  0.00000000000E+00 -0.00000000000E+00 -0.63142662151E+03  0.63142662151E+03  0.25500000000E-02 0.  1.
    5000001    1    1    2    0    0  0.69011718920E+01 -0.24502264496E+03 -0.16249835175E+03  0.35509215288E+03  0.19900000000E+03 0.  0.
   -5000001    1    1    2    0    0 -0.69011718920E+01  0.24502264496E+03 -0.30575245686E+03  0.43951028155E+03  0.19900000000E+03 0.  0.
<mgrwt>
<rscale>  0 0.64197680E+03</rscale>
<asrwt>0</asrwt>
<pdfrwt beam="1">  1        2 0.90203802E-01 0.64197680E+03</pdfrwt>
<pdfrwt beam="2">  1       -2 0.23310831E-01 0.64197680E+03</pdfrwt>
<totfact> 0.83249311E+02</totfact>
</mgrwt>
</event>
<event>
 4    1  0.4917371E-005  0.5893081E+03  0.7818608E-02  0.9927840E-01
         -2   -1    0    0    0  501 -0.00000000000E+00  0.00000000000E+00  0.12395457258E+03  0.12395457261E+03  0.25500000000E-02 0. -1.
          2   -1    0    0  501    0  0.00000000000E+00 -0.00000000000E+00 -0.70042591162E+03  0.70042591163E+03  0.25500000000E-02 0.  1.
    5000001    1    1    2    0    0  0.20939040131E+03  0.17268979866E+02 -0.21063242274E+03  0.35792397983E+03  0.19900000000E+03 0.  0.
   -5000001    1    1    2    0    0 -0.20939040131E+03 -0.17268979866E+02 -0.36583891630E+03  0.46645650441E+03  0.19900000000E+03 0.  0.
<mgrwt>
<rscale>  0 0.58930805E+03</rscale>
<asrwt>0</asrwt>
<pdfrwt beam="1">  1        2 0.10006084E+00 0.58930805E+03</pdfrwt>
<pdfrwt beam="2">  1       -2 0.17707796E-01 0.58930805E+03</pdfrwt>
<totfact> 0.11881524E+03</totfact>
</mgrwt>
</event>
<event>
 4    1  0.4917371E-005  0.5188699E+03  0.7818608E-02  0.1008968E+00
         -2   -1    0    0    0  501 -0.00000000000E+00  0.00000000000E+00  0.20432737135E+03  0.20432737136E+03  0.25500000000E-02 0. -1.
          2   -1    0    0  501    0  0.00000000000E+00 -0.00000000000E+00 -0.32940523303E+03  0.32940523304E+03  0.25500000000E-02 0.  1.
    5000001    1    1    2    0    0 -0.10341984682E+03 -0.12109738106E+03 -0.11235405016E+03  0.27854025383E+03  0.19900000000E+03 0.  0.
   -5000001    1    1    2    0    0  0.10341984682E+03  0.12109738106E+03 -0.12723811522E+02  0.25519235058E+03  0.19900000000E+03 0.  0.
<mgrwt>
<rscale>  0 0.51886995E+03</rscale>
<asrwt>0</asrwt>
<pdfrwt beam="1">  1        2 0.47057890E-01 0.51886995E+03</pdfrwt>
<pdfrwt beam="2">  1       -2 0.29189625E-01 0.51886995E+03</pdfrwt>
<totfact> 0.11590323E+03</totfact>
</mgrwt>
</event>
<event>
 4    1  0.4917371E-005  0.1334757E+04  0.7818608E-02  0.9002448E-01
          2   -1    0    0  501    0  0.00000000000E+00  0.00000000000E+00  0.57186726296E+03  0.57186726297E+03  0.25500000000E-02 0. -1.
         -2   -1    0    0    0  501 -0.00000000000E+00 -0.00000000000E+00 -0.77884155836E+03  0.77884155836E+03  0.25500000000E-02 0.  1.
    5000001    1    1    2    0    0  0.11651607930E+03  0.56429747024E+03 -0.37836810861E+03  0.71747547503E+03  0.19900000000E+03 0.  0.
   -5000001    1    1    2    0    0 -0.11651607930E+03 -0.56429747024E+03  0.17139381321E+03  0.63323334630E+03  0.19900000000E+03 0.  0.
<mgrwt>
<rscale>  0 0.13347569E+04</rscale>
<asrwt>0</asrwt>
<pdfrwt beam="1">  1        2 0.81695324E-01 0.13347569E+04</pdfrwt>
<pdfrwt beam="2">  1       -2 0.11126308E+00 0.13347569E+04</pdfrwt>
<totfact> 0.35943222E+01</totfact>
</mgrwt>
</event>
<event>
 4    1  0.4917371E-005  0.1428613E+04  0.7818608E-02  0.8933364E-01
          2   -1    0    0  501    0  0.00000000000E+00  0.00000000000E+00  0.22789535631E+04  0.22789535631E+04  0.25500000000E-02 0.  1.
         -2   -1    0    0    0  501 -0.00000000000E+00 -0.00000000000E+00 -0.22388944613E+03  0.22388944615E+03  0.25500000000E-02 0. -1.
    5000001    1    1    2    0    0 -0.43911509161E+03  0.52256779449E+03  0.90699802717E+03  0.11524519881E+04  0.19900000000E+03 0.  0.
   -5000001    1    1    2    0    0  0.43911509161E+03 -0.52256779449E+03  0.11480660898E+04  0.13503910212E+04  0.19900000000E+03 0.  0.
<mgrwt>
<rscale>  0 0.14286128E+04</rscale>
<asrwt>0</asrwt>
<pdfrwt beam="1">  1        2 0.32556478E+00 0.14286128E+04</pdfrwt>
<pdfrwt beam="2">  1       -2 0.31984208E-01 0.14286128E+04</pdfrwt>
<totfact> 0.50928309E+01</totfact>
</mgrwt>
</event>
<event>
 4    1  0.4917371E-005  0.4267436E+03  0.7818608E-02  0.1034894E+00
         -2   -1    0    0    0  501 -0.00000000000E+00  0.00000000000E+00  0.23600216519E+03  0.23600216521E+03  0.25500000000E-02 0. -1.
          2   -1    0    0  501    0  0.00000000000E+00 -0.00000000000E+00 -0.19291145317E+03  0.19291145319E+03  0.25500000000E-02 0.  1.
    5000001    1    1    2    0    0  0.69593405500E+02  0.11015239092E+02 -0.96275667948E+01  0.21132502839E+03  0.19900000000E+03 0.  0.
   -5000001    1    1    2    0    0 -0.69593405500E+02 -0.11015239092E+02  0.52718278813E+02  0.21758859001E+03  0.19900000000E+03 0.  0.
<mgrwt>
<rscale>  0 0.42674358E+03</rscale>
<asrwt>0</asrwt>
<pdfrwt beam="1">  1        2 0.27558779E-01 0.42674358E+03</pdfrwt>
<pdfrwt beam="2">  1       -2 0.33714595E-01 0.42674358E+03</pdfrwt>
<totfact> 0.16017250E+03</totfact>
</mgrwt>
</event>
<event>
 4    1  0.4917371E-005  0.7197177E+03  0.7818608E-02  0.9684094E-01
          2   -1    0    0  501    0  0.00000000000E+00  0.00000000000E+00  0.12643838560E+03  0.12643838562E+03  0.25500000000E-02 0.  1.
         -2   -1    0    0    0  501 -0.00000000000E+00 -0.00000000000E+00 -0.10242014751E+04  0.10242014751E+04  0.25500000000E-02 0. -1.
    5000001    1    1    2    0    0 -0.21596768985E+03 -0.20189385592E+03 -0.36903729115E+03  0.51302309342E+03  0.19900000000E+03 0.  0.
   -5000001    1    1    2    0    0  0.21596768985E+03  0.20189385592E+03 -0.52872579837E+03  0.63761676733E+03  0.19900000000E+03 0.  0.
<mgrwt>
<rscale>  0 0.71971767E+03</rscale>
<asrwt>0</asrwt>
<pdfrwt beam="1">  1        2 0.18062627E-01 0.71971767E+03</pdfrwt>
<pdfrwt beam="2">  1       -2 0.14631449E+00 0.71971767E+03</pdfrwt>
<totfact> 0.10383211E+02</totfact>
</mgrwt>
</event>
<event>
 4    1  0.4917371E-005  0.6896004E+03  0.7818608E-02  0.9735184E-01
         -2   -1    0    0    0  501 -0.00000000000E+00  0.00000000000E+00  0.64608179677E+02  0.64608179727E+02  0.25500000000E-02 0. -1.
          2   -1    0    0  501    0  0.00000000000E+00 -0.00000000000E+00 -0.18401260009E+04  0.18401260009E+04  0.25500000000E-02 0.  1.
    5000001    1    1    2    0    0 -0.12616982400E+03 -0.24777107913E+03 -0.76495146022E+03  0.83789084530E+03  0.19900000000E+03 0.  0.
   -5000001    1    1    2    0    0  0.12616982400E+03  0.24777107913E+03 -0.10105663610E+04  0.10668433353E+04  0.19900000000E+03 0.  0.
<mgrwt>
<rscale>  0 0.68960044E+03</rscale>
<asrwt>0</asrwt>
<pdfrwt beam="1">  1        2 0.26287511E+00 0.68960044E+03</pdfrwt>
<pdfrwt beam="2">  1       -2 0.92297410E-02 0.68960044E+03</pdfrwt>
<totfact> 0.77327439E+02</totfact>
</mgrwt>
</event>
<event>
 4    1  0.4917371E-005  0.5310635E+03  0.7818608E-02  0.1005975E+00
          2   -1    0    0  501    0  0.00000000000E+00  0.00000000000E+00  0.24252419762E+04  0.24252419762E+04  0.25500000000E-02 0.  1.
         -2   -1    0    0    0  501 -0.00000000000E+00 -0.00000000000E+00 -0.29072193555E+02  0.29072193667E+02  0.25500000000E-02 0. -1.
    5000001    1    1    2    0    0 -0.30149753002E+02  0.17153884031E+03  0.13085691881E+04  0.13350239329E+04  0.19900000000E+03 0.  0.
   -5000001    1    1    2    0    0  0.30149753002E+02 -0.17153884031E+03  0.10876005945E+04  0.11192902369E+04  0.19900000000E+03 0.  0.
<mgrwt>
<rscale>  0 0.53106348E+03</rscale>
<asrwt>0</asrwt>
<pdfrwt beam="1">  1        2 0.34646322E+00 0.53106348E+03</pdfrwt>
<pdfrwt beam="2">  1       -2 0.41531695E-02 0.53106348E+03</pdfrwt>
<totfact> 0.13873334E+03</totfact>
</mgrwt>
</event>
<event>
 4    1  0.4917371E-005  0.6246423E+03  0.7818608E-02  0.9855560E-01
         -2   -1    0    0    0  501 -0.00000000000E+00  0.00000000000E+00  0.10789413333E+03  0.10789413336E+03  0.25500000000E-02 0. -1.
          2   -1    0    0  501    0  0.00000000000E+00 -0.00000000000E+00 -0.90407613752E+03  0.90407613752E+03  0.25500000000E-02 0.  1.
    5000001    1    1    2    0    0 -0.91997782583E+01  0.17180872543E+03 -0.12535583167E+03  0.29140686091E+03  0.19900000000E+03 0.  0.
   -5000001    1    1    2    0    0  0.91997782583E+01 -0.17180872543E+03 -0.67082617252E+03  0.72056340998E+03  0.19900000000E+03 0.  0.
<mgrwt>
<rscale>  0 0.62464233E+03</rscale>
<asrwt>0</asrwt>
<pdfrwt beam="1">  1        2 0.12915373E+00 0.62464233E+03</pdfrwt>
<pdfrwt beam="2">  1       -2 0.15413448E-01 0.62464233E+03</pdfrwt>
<totfact> 0.10851455E+03</totfact>
</mgrwt>
</event>
<event>
 4    1  0.4917371E-005  0.1191530E+04  0.7818608E-02  0.9120303E-01
         -2   -1    0    0    0  501 -0.00000000000E+00  0.00000000000E+00  0.74093401346E+03  0.74093401346E+03  0.25500000000E-02 0. -1.
          2   -1    0    0  501    0  0.00000000000E+00 -0.00000000000E+00 -0.47903815762E+03  0.47903815763E+03  0.25500000000E-02 0.  1.
    5000001    1    1    2    0    0 -0.33478635239E+03  0.24955981856E+03  0.51537375316E+03  0.69251217335E+03  0.19900000000E+03 0.  0.
   -5000001    1    1    2    0    0  0.33478635239E+03 -0.24955981856E+03 -0.25347789732E+03  0.52745999774E+03  0.19900000000E+03 0.  0.
<mgrwt>
<rscale>  0 0.11915295E+04</rscale>
<asrwt>0</asrwt>
<pdfrwt beam="1">  1        2 0.68434022E-01 0.11915295E+04</pdfrwt>
<pdfrwt beam="2">  1       -2 0.10584772E+00 0.11915295E+04</pdfrwt>
<totfact> 0.50254067E+01</totfact>
</mgrwt>
</event>
<event>
 4    1  0.4917371E-005  0.5602676E+03  0.7818608E-02  0.9991449E-01
          2   -1    0    0  501    0  0.00000000000E+00  0.00000000000E+00  0.20066832452E+04  0.20066832452E+04  0.25500000000E-02 0.  1.
         -2   -1    0    0    0  501 -0.00000000000E+00 -0.00000000000E+00 -0.39106787922E+02  0.39106788005E+02  0.25500000000E-02 0. -1.
    5000001    1    1    2    0    0  0.69867793782E+02  0.17452470263E+03  0.76673235087E+03  0.81413750577E+03  0.19900000000E+03 0.  0.
   -5000001    1    1    2    0    0 -0.69867793782E+02 -0.17452470263E+03  0.12008441064E+04  0.12316525274E+04  0.19900000000E+03 0.  0.
<mgrwt>
<rscale>  0 0.56026757E+03</rscale>
<asrwt>0</asrwt>
<pdfrwt beam="1">  1        2 0.28666904E+00 0.56026757E+03</pdfrwt>
<pdfrwt beam="2">  1       -2 0.55866839E-02 0.56026757E+03</pdfrwt>
<totfact> 0.14223380E+03</totfact>
</mgrwt>
</event>
<event>
 4    1  0.4917371E-005  0.5043983E+03  0.7818608E-02  0.1012637E+00
         -2   -1    0    0    0  501 -0.00000000000E+00  0.00000000000E+00  0.10191189421E+03  0.10191189424E+03  0.25500000000E-02 0. -1.
          2   -1    0    0  501    0  0.00000000000E+00 -0.00000000000E+00 -0.62411183623E+03  0.62411183624E+03  0.25500000000E-02 0.  1.
    5000001    1    1    2    0    0 -0.47948740038E+02 -0.14027416960E+03 -0.32591221852E+03  0.40962873253E+03  0.19900000000E+03 0.  0.
   -5000001    1    1    2    0    0  0.47948740038E+02  0.14027416960E+03 -0.19628772350E+03  0.31639499795E+03  0.19900000000E+03 0.  0.
<mgrwt>
<rscale>  0 0.50439833E+03</rscale>
<asrwt>0</asrwt>
<pdfrwt beam="1">  1        2 0.89158832E-01 0.50439833E+03</pdfrwt>
<pdfrwt beam="2">  1       -2 0.14558842E-01 0.50439833E+03</pdfrwt>
<totfact> 0.19016162E+03</totfact>
</mgrwt>
</event>
<event>
 4    1  0.4917371E-005  0.7543150E+03  0.7818608E-02  0.9628605E-01
          2   -1    0    0  501    0  0.00000000000E+00  0.00000000000E+00  0.11329704856E+04  0.11329704856E+04  0.25500000000E-02 0.  1.
         -2   -1    0    0    0  501 -0.00000000000E+00 -0.00000000000E+00 -0.12555294086E+03  0.12555294089E+03  0.25500000000E-02 0. -1.
    5000001    1    1    2    0    0  0.29379860024E+03 -0.14800763057E+01  0.29052146734E+03  0.45861043503E+03  0.19900000000E+03 0.  0.
   -5000001    1    1    2    0    0 -0.29379860024E+03  0.14800763057E+01  0.71689607744E+03  0.79991299150E+03  0.19900000000E+03 0.  0.
<mgrwt>
<rscale>  0 0.75431499E+03</rscale>
<asrwt>0</asrwt>
<pdfrwt beam="1">  1        2 0.16185293E+00 0.75431499E+03</pdfrwt>
<pdfrwt beam="2">  1       -2 0.17936135E-01 0.75431499E+03</pdfrwt>
<totfact> 0.60548105E+02</totfact>
</mgrwt>
</event>
<event>
 4    1  0.4917371E-005  0.6077223E+03  0.7818608E-02  0.9889513E-01
         -2   -1    0    0    0  501 -0.00000000000E+00  0.00000000000E+00  0.32468089286E+03  0.32468089287E+03  0.25500000000E-02 0. -1.
          2   -1    0    0  501    0  0.00000000000E+00 -0.00000000000E+00 -0.28437642119E+03  0.28437642120E+03  0.25500000000E-02 0.  1.
    5000001    1    1    2    0    0 -0.19810704033E+03  0.69523566702E+02  0.11336550634E+03  0.31069706111E+03  0.19900000000E+03 0.  0.
   -5000001    1    1    2    0    0  0.19810704033E+03 -0.69523566702E+02 -0.73061034670E+02  0.29836025296E+03  0.19900000000E+03 0.  0.
<mgrwt>
<rscale>  0 0.60772227E+03</rscale>
<asrwt>0</asrwt>
<pdfrwt beam="1">  1        2 0.40625203E-01 0.60772227E+03</pdfrwt>
<pdfrwt beam="2">  1       -2 0.46382985E-01 0.60772227E+03</pdfrwt>
<totfact> 0.56189007E+02</totfact>
</mgrwt>
</event>
<event>
 4    1  0.4917371E-005  0.6310461E+03  0.7818608E-02  0.9843009E-01
          2   -1    0    0  501    0  0.00000000000E+00  0.00000000000E+00  0.23208656981E+04  0.23208656981E+04  0.25500000000E-02 0.  1.
         -2   -1    0    0    0  501 -0.00000000000E+00 -0.00000000000E+00 -0.42895547278E+02  0.42895547354E+02  0.25500000000E-02 0. -1.
    5000001    1    1    2    0    0  0.21434897125E+03 -0.11020936184E+03  0.13006284582E+04  0.13376572697E+04  0.19900000000E+03 0.  0.
   -5000001    1    1    2    0    0 -0.21434897125E+03  0.11020936184E+03  0.97734169260E+03  0.10261039757E+04  0.19900000000E+03 0.  0.
<mgrwt>
<rscale>  0 0.63104613E+03</rscale>
<asrwt>0</asrwt>
<pdfrwt beam="1">  1        2 0.33155225E+00 0.63104613E+03</pdfrwt>
<pdfrwt beam="2">  1       -2 0.61279351E-02 0.63104613E+03</pdfrwt>
<totfact> 0.85152492E+02</totfact>
</mgrwt>
</event>
<event>
 4    1  0.4917371E-005  0.5423184E+03  0.7818608E-02  0.1003288E+00
          2   -1    0    0  501    0  0.00000000000E+00  0.00000000000E+00  0.41867737746E+03  0.41867737746E+03  0.25500000000E-02 0.  1.
         -2   -1    0    0    0  501 -0.00000000000E+00 -0.00000000000E+00 -0.17561807935E+03  0.17561807937E+03  0.25500000000E-02 0. -1.
    5000001    1    1    2    0    0 -0.55233681714E+02 -0.16732446261E+03  0.62740171481E+02  0.27310357834E+03  0.19900000000E+03 0.  0.
   -5000001    1    1    2    0    0  0.55233681714E+02  0.16732446261E+03  0.18031912663E+03  0.32119187849E+03  0.19900000000E+03 0.  0.
<mgrwt>
<rscale>  0 0.54231842E+03</rscale>
<asrwt>0</asrwt>
<pdfrwt beam="1">  1        2 0.59811054E-01 0.54231842E+03</pdfrwt>
<pdfrwt beam="2">  1       -2 0.25088297E-01 0.54231842E+03</pdfrwt>
<totfact> 0.11702723E+03</totfact>
</mgrwt>
</event>
<event>
 4    1  0.4917371E-005  0.7153191E+03  0.7818608E-02  0.9691387E-01
          2   -1    0    0  501    0  0.00000000000E+00  0.00000000000E+00  0.12559350579E+03  0.12559350581E+03  0.25500000000E-02 0.  1.
         -2   -1    0    0    0  501 -0.00000000000E+00 -0.00000000000E+00 -0.10185267444E+04  0.10185267444E+04  0.25500000000E-02 0. -1.
    5000001    1    1    2    0    0  0.26761109332E+03 -0.12812370485E+03 -0.47360854408E+03  0.59324314917E+03  0.19900000000E+03 0.  0.
   -5000001    1    1    2    0    0 -0.26761109332E+03  0.12812370485E+03 -0.41932469457E+03  0.55087710108E+03  0.19900000000E+03 0.  0.
<mgrwt>
<rscale>  0 0.71531907E+03</rscale>
<asrwt>0</asrwt>
<pdfrwt beam="1">  1        2 0.17941930E-01 0.71531907E+03</pdfrwt>
<pdfrwt beam="2">  1       -2 0.14550382E+00 0.71531907E+03</pdfrwt>
<totfact> 0.10621806E+02</totfact>
</mgrwt>
</event>
<event>
 4    1  0.4917371E-005  0.4598899E+03  0.7818608E-02  0.1024813E+00
         -2   -1    0    0    0  501 -0.00000000000E+00  0.00000000000E+00  0.11374312349E+03  0.11374312352E+03  0.25500000000E-02 0. -1.
          2   -1    0    0  501    0  0.00000000000E+00 -0.00000000000E+00 -0.46486044028E+03  0.46486044029E+03  0.25500000000E-02 0.  1.
    5000001    1    1    2    0    0 -0.17708242934E+02 -0.10174532688E+03 -0.23980964327E+03  0.32829157530E+03  0.19900000000E+03 0.  0.
   -5000001    1    1    2    0    0  0.17708242934E+02  0.10174532688E+03 -0.11130767352E+03  0.25031198851E+03  0.19900000000E+03 0.  0.
<mgrwt>
<rscale>  0 0.45988989E+03</rscale>
<asrwt>0</asrwt>
<pdfrwt beam="1">  1        2 0.66408633E-01 0.45988989E+03</pdfrwt>
<pdfrwt beam="2">  1       -2 0.16249018E-01 0.45988989E+03</pdfrwt>
<totfact> 0.22143212E+03</totfact>
</mgrwt>
</event>
<event>
 4    1  0.4917371E-005  0.9163446E+03  0.7818608E-02  0.9405377E-01
          2   -1    0    0  501    0  0.00000000000E+00  0.00000000000E+00  0.16257711461E+04  0.16257711461E+04  0.25500000000E-02 0.  1.
         -2   -1    0    0    0  501 -0.00000000000E+00 -0.00000000000E+00 -0.12912140836E+03  0.12912140839E+03  0.25500000000E-02 0. -1.
    5000001    1    1    2    0    0  0.28416634650E+03  0.14964245598E+03  0.25195710773E+03  0.45412196737E+03  0.19900000000E+03 0.  0.
   -5000001    1    1    2    0    0 -0.28416634650E+03 -0.14964245598E+03  0.12446926300E+04  0.13007705871E+04  0.19900000000E+03 0.  0.
<mgrwt>
<rscale>  0 0.91634461E+03</rscale>
<asrwt>0</asrwt>
<pdfrwt beam="1">  1        2 0.23225303E+00 0.91634461E+03</pdfrwt>
<pdfrwt beam="2">  1       -2 0.18445915E-01 0.91634461E+03</pdfrwt>
<totfact> 0.30913222E+02</totfact>
</mgrwt>
</event>
<event>
 4    1  0.4917371E-005  0.5971410E+03  0.7818608E-02  0.9911355E-01
         -2   -1    0    0    0  501 -0.00000000000E+00  0.00000000000E+00  0.59643849167E+03  0.59643849167E+03  0.25500000000E-02 0. -1.
          2   -1    0    0  501    0  0.00000000000E+00 -0.00000000000E+00 -0.14946109422E+03  0.14946109424E+03  0.25500000000E-02 0.  1.
    5000001    1    1    2    0    0 -0.15044428784E+03 -0.12902388756E+03  0.35003059134E+03  0.44877952513E+03  0.19900000000E+03 0.  0.
   -5000001    1    1    2    0    0  0.15044428784E+03  0.12902388756E+03  0.96946806105E+02  0.29712006078E+03  0.19900000000E+03 0.  0.
<mgrwt>
<rscale>  0 0.59714102E+03</rscale>
<asrwt>0</asrwt>
<pdfrwt beam="1">  1        2 0.21351584E-01 0.59714102E+03</pdfrwt>
<pdfrwt beam="2">  1       -2 0.85205501E-01 0.59714102E+03</pdfrwt>
<totfact> 0.31868786E+02</totfact>
</mgrwt>
</event>
<event>
 4    1  0.4917371E-005  0.7665849E+03  0.7818608E-02  0.9609685E-01
          2   -1    0    0  501    0  0.00000000000E+00  0.00000000000E+00  0.69407164254E+03  0.69407164255E+03  0.25500000000E-02 0.  1.
         -2   -1    0    0    0  501 -0.00000000000E+00 -0.00000000000E+00 -0.21166851083E+03  0.21166851085E+03  0.25500000000E-02 0. -1.
    5000001    1    1    2    0    0 -0.11594050533E+03 -0.30599757690E+03  0.22307396797E+03  0.44321519946E+03  0.19900000000E+03 0.  0.
   -5000001    1    1    2    0    0  0.11594050533E+03  0.30599757690E+03  0.25932916374E+03  0.46252495394E+03  0.19900000000E+03 0.  0.
<mgrwt>
<rscale>  0 0.76658492E+03</rscale>
<asrwt>0</asrwt>
<pdfrwt beam="1">  1        2 0.99153094E-01 0.76658492E+03</pdfrwt>
<pdfrwt beam="2">  1       -2 0.30238358E-01 0.76658492E+03</pdfrwt>
<totfact> 0.46110022E+02</totfact>
</mgrwt>
</event>
<event>
 4    1  0.4917371E-005  0.7823465E+03  0.7818608E-02  0.9585927E-01
         -2   -1    0    0    0  501 -0.00000000000E+00  0.00000000000E+00  0.96365923044E+03  0.96365923044E+03  0.25500000000E-02 0. -1.
          2   -1    0    0  501    0  0.00000000000E+00 -0.00000000000E+00 -0.15878696167E+03  0.15878696169E+03  0.25500000000E-02 0.  1.
    5000001    1    1    2    0    0  0.11475523045E+02  0.30342025891E+03  0.19343970819E+03  0.41135807011E+03  0.19900000000E+03 0.  0.
   -5000001    1    1    2    0    0 -0.11475523045E+02 -0.30342025891E+03  0.61143256058E+03  0.71108812202E+03  0.19900000000E+03 0.  0.
<mgrwt>
<rscale>  0 0.78234653E+03</rscale>
<asrwt>0</asrwt>
<pdfrwt beam="1">  1        2 0.22683853E-01 0.78234653E+03</pdfrwt>
<pdfrwt beam="2">  1       -2 0.13766560E+00 0.78234653E+03</pdfrwt>
<totfact> 0.92818691E+01</totfact>
</mgrwt>
</event>
<event>
 4    1  0.4917371E-005  0.6084189E+03  0.7818608E-02  0.9888092E-01
          2   -1    0    0  501    0  0.00000000000E+00  0.00000000000E+00  0.14391594544E+04  0.14391594544E+04  0.25500000000E-02 0.  1.
         -2   -1    0    0    0  501 -0.00000000000E+00 -0.00000000000E+00 -0.64303783266E+02  0.64303783317E+02  0.25500000000E-02 0. -1.
    5000001    1    1    2    0    0 -0.22894184573E+03  0.45057295496E+01  0.74310862429E+03  0.80264942398E+03  0.19900000000E+03 0.  0.
   -5000001    1    1    2    0    0  0.22894184573E+03 -0.45057295496E+01  0.63174704681E+03  0.70081381370E+03  0.19900000000E+03 0.  0.
<mgrwt>
<rscale>  0 0.60841893E+03</rscale>
<asrwt>0</asrwt>
<pdfrwt beam="1">  1        2 0.20559422E+00 0.60841893E+03</pdfrwt>
<pdfrwt beam="2">  1       -2 0.91862544E-02 0.60841893E+03</pdfrwt>
<totfact> 0.12573632E+03</totfact>
</mgrwt>
</event>
<event>
 4    1  0.4917371E-005  0.7217427E+03  0.7818608E-02  0.9680755E-01
          2   -1    0    0  501    0  0.00000000000E+00  0.00000000000E+00  0.30784772216E+04  0.30784772216E+04  0.25500000000E-02 0.  1.
         -2   -1    0    0    0  501 -0.00000000000E+00 -0.00000000000E+00 -0.42302774921E+02  0.42302774998E+02  0.25500000000E-02 0. -1.
    5000001    1    1    2    0    0  0.11518073422E+03 -0.27647446999E+03  0.16494097516E+04  0.16881523221E+04  0.19900000000E+03 0.  0.
   -5000001    1    1    2    0    0 -0.11518073422E+03  0.27647446999E+03  0.13867646951E+04  0.14326276745E+04  0.19900000000E+03 0.  0.
<mgrwt>
<rscale>  0 0.72174269E+03</rscale>
<asrwt>0</asrwt>
<pdfrwt beam="1">  1        2 0.43978242E+00 0.72174269E+03</pdfrwt>
<pdfrwt beam="2">  1       -2 0.60432542E-02 0.72174269E+03</pdfrwt>
<totfact> 0.34442180E+02</totfact>
</mgrwt>
</event>
<event>
 4    1  0.4917371E-005  0.5221897E+03  0.7818608E-02  0.1008144E+00
          2   -1    0    0  501    0  0.00000000000E+00  0.00000000000E+00  0.11071612743E+04  0.11071612743E+04  0.25500000000E-02 0.  1.
         -2   -1    0    0    0  501 -0.00000000000E+00 -0.00000000000E+00 -0.61572360442E+02  0.61572360495E+02  0.25500000000E-02 0. -1.
    5000001    1    1    2    0    0 -0.99975234365E+02  0.13611021013E+03  0.50720821309E+03  0.57042283283E+03  0.19900000000E+03 0.  0.
   -5000001    1    1    2    0    0  0.99975234365E+02 -0.13611021013E+03  0.53838070073E+03  0.59831080193E+03  0.19900000000E+03 0.  0.
<mgrwt>
<rscale>  0 0.52218975E+03</rscale>
<asrwt>0</asrwt>
<pdfrwt beam="1">  1        2 0.15816589E+00 0.52218975E+03</pdfrwt>
<pdfrwt beam="2">  1       -2 0.87960521E-02 0.52218975E+03</pdfrwt>
<totfact> 0.20544606E+03</totfact>
</mgrwt>
</event>
<event>
 4    1  0.4917371E-005  0.4636917E+03  0.7818608E-02  0.1023716E+00
         -2   -1    0    0    0  501 -0.00000000000E+00  0.00000000000E+00  0.83602957311E+02  0.83602957350E+02  0.25500000000E-02 0. -1.
          2   -1    0    0  501    0  0.00000000000E+00 -0.00000000000E+00 -0.64294976009E+03  0.64294976010E+03  0.25500000000E-02 0.  1.
    5000001    1    1    2    0    0  0.88779393877E+02 -0.32090252282E+02 -0.16625048763E+03  0.27595613729E+03  0.19900000000E+03 0.  0.
   -5000001    1    1    2    0    0 -0.88779393877E+02  0.32090252282E+02 -0.39309631515E+03  0.45059658016E+03  0.19900000000E+03 0.  0.
<mgrwt>
<rscale>  0 0.46369171E+03</rscale>
<asrwt>0</asrwt>
<pdfrwt beam="1">  1        2 0.91849963E-01 0.46369171E+03</pdfrwt>
<pdfrwt beam="2">  1       -2 0.11943280E-01 0.46369171E+03</pdfrwt>
<totfact> 0.25459032E+03</totfact>
</mgrwt>
</event>
<event>
 4    1  0.4917371E-005  0.7354183E+03  0.7818608E-02  0.9658508E-01
         -2   -1    0    0    0  501 -0.00000000000E+00  0.00000000000E+00  0.91057443307E+02  0.91057443343E+02  0.25500000000E-02 0. -1.
          2   -1    0    0  501    0  0.00000000000E+00 -0.00000000000E+00 -0.14848872381E+04  0.14848872381E+04  0.25500000000E-02 0.  1.
    5000001    1    1    2    0    0  0.27341694997E+03  0.18129858090E+02 -0.10039106620E+04  0.10594919243E+04  0.19900000000E+03 0.  0.
   -5000001    1    1    2    0    0 -0.27341694997E+03 -0.18129858090E+02 -0.38991913277E+03  0.51645275716E+03  0.19900000000E+03 0.  0.
<mgrwt>
<rscale>  0 0.73541834E+03</rscale>
<asrwt>0</asrwt>
<pdfrwt beam="1">  1        2 0.21212673E+00 0.73541834E+03</pdfrwt>
<pdfrwt beam="2">  1       -2 0.13008207E-01 0.73541834E+03</pdfrwt>
<totfact> 0.66952015E+02</totfact>
</mgrwt>
</event>
<event>
 4    1  0.4917371E-005  0.4259564E+03  0.7818608E-02  0.1035145E+00
          2   -1    0    0  501    0  0.00000000000E+00  0.00000000000E+00  0.17887697038E+03  0.17887697040E+03  0.25500000000E-02 0.  1.
         -2   -1    0    0    0  501 -0.00000000000E+00 -0.00000000000E+00 -0.25358049621E+03  0.25358049623E+03  0.25500000000E-02 0. -1.
    5000001    1    1    2    0    0 -0.40978640521E+01  0.74826585666E+02 -0.49488310022E+02  0.21832522356E+03  0.19900000000E+03 0.  0.
   -5000001    1    1    2    0    0  0.40978640521E+01 -0.74826585666E+02 -0.25215215814E+02  0.21413224307E+03  0.19900000000E+03 0.  0.
<mgrwt>
<rscale>  0 0.42595639E+03</rscale>
<asrwt>0</asrwt>
<pdfrwt beam="1">  1        2 0.25553853E-01 0.42595639E+03</pdfrwt>
<pdfrwt beam="2">  1       -2 0.36225785E-01 0.42595639E+03</pdfrwt>
<totfact> 0.15233745E+03</totfact>
</mgrwt>
</event>
<event>
 4    1  0.4917371E-005  0.6321635E+03  0.7818608E-02  0.9840836E-01
          2   -1    0    0  501    0  0.00000000000E+00  0.00000000000E+00  0.33243714250E+04  0.33243714250E+04  0.25500000000E-02 0.  1.
         -2   -1    0    0    0  501 -0.00000000000E+00 -0.00000000000E+00 -0.30053105654E+02  0.30053105763E+02  0.25500000000E-02 0. -1.
    5000001    1    1    2    0    0  0.19248046237E+03 -0.73344584761E+02  0.23566625512E+04  0.23740024298E+04  0.19900000000E+03 0.  0.
   -5000001    1    1    2    0    0 -0.19248046237E+03  0.73344584761E+02  0.93765576817E+03  0.98042210098E+03  0.19900000000E+03 0.  0.
<mgrwt>
<rscale>  0 0.63216354E+03</rscale>
<asrwt>0</asrwt>
<pdfrwt beam="1">  1        2 0.47491023E+00 0.63216354E+03</pdfrwt>
<pdfrwt beam="2">  1       -2 0.42933005E-02 0.63216354E+03</pdfrwt>
<totfact> 0.43023093E+02</totfact>
</mgrwt>
</event>
<event>
 4    1  0.4917371E-005  0.7477110E+03  0.7818608E-02  0.9638948E-01
          2   -1    0    0  501    0  0.00000000000E+00  0.00000000000E+00  0.12271283339E+04  0.12271283339E+04  0.25500000000E-02 0.  1.
         -2   -1    0    0    0  501 -0.00000000000E+00 -0.00000000000E+00 -0.11389836988E+03  0.11389836991E+03  0.25500000000E-02 0. -1.
    5000001    1    1    2    0    0  0.26565556451E+03 -0.16068155943E+03  0.66681697488E+03  0.76199561710E+03  0.19900000000E+03 0.  0.
   -5000001    1    1    2    0    0 -0.26565556451E+03  0.16068155943E+03  0.44641298912E+03  0.57903108668E+03  0.19900000000E+03 0.  0.
<mgrwt>
<rscale>  0 0.74771095E+03</rscale>
<asrwt>0</asrwt>
<pdfrwt beam="1">  1        2 0.17530404E+00 0.74771095E+03</pdfrwt>
<pdfrwt beam="2">  1       -2 0.16271197E-01 0.74771095E+03</pdfrwt>
<totfact> 0.63272848E+02</totfact>
</mgrwt>
</event>
<event>
 4    1  0.4917371E-005  0.6978314E+03  0.7818608E-02  0.9720948E-01
         -2   -1    0    0    0  501 -0.00000000000E+00  0.00000000000E+00  0.15418921469E+03  0.15418921471E+03  0.25500000000E-02 0. -1.
          2   -1    0    0  501    0  0.00000000000E+00 -0.00000000000E+00 -0.78956339414E+03  0.78956339415E+03  0.25500000000E-02 0.  1.
    5000001    1    1    2    0    0 -0.19391853128E+03 -0.51917185415E+02 -0.59432430890E+03  0.65812018284E+03  0.19900000000E+03 0.  0.
   -5000001    1    1    2    0    0  0.19391853128E+03  0.51917185415E+02 -0.41049870558E+02  0.28563242601E+03  0.19900000000E+03 0.  0.
<mgrwt>
<rscale>  0 0.69783138E+03</rscale>
<asrwt>0</asrwt>
<pdfrwt beam="1">  1        2 0.11279477E+00 0.69783138E+03</pdfrwt>
<pdfrwt beam="2">  1       -2 0.22027031E-01 0.69783138E+03</pdfrwt>
<totfact> 0.69792184E+02</totfact>
</mgrwt>
</event>
<event>
 4    1  0.4917371E-005  0.6383620E+03  0.7818608E-02  0.9828865E-01
         -2   -1    0    0    0  501 -0.00000000000E+00  0.00000000000E+00  0.21445638673E+03  0.21445638675E+03  0.25500000000E-02 0. -1.
          2   -1    0    0  501    0  0.00000000000E+00 -0.00000000000E+00 -0.47504536343E+03  0.47504536344E+03  0.25500000000E-02 0.  1.
    5000001    1    1    2    0    0  0.31070108985E+01  0.20449761481E+03 -0.28474122125E+03  0.40312217882E+03  0.19900000000E+03 0.  0.
   -5000001    1    1    2    0    0 -0.31070108985E+01 -0.20449761481E+03  0.24152244551E+02  0.28637957137E+03  0.19900000000E+03 0.  0.
<mgrwt>
<rscale>  0 0.63836200E+03</rscale>
<asrwt>0</asrwt>
<pdfrwt beam="1">  1        2 0.67863623E-01 0.63836200E+03</pdfrwt>
<pdfrwt beam="2">  1       -2 0.30636627E-01 0.63836200E+03</pdfrwt>
<totfact> 0.70485264E+02</totfact>
</mgrwt>
</event>
<event>
 4    1  0.4917371E-005  0.6733370E+03  0.7818608E-02  0.9763948E-01
          2   -1    0    0  501    0  0.00000000000E+00  0.00000000000E+00  0.10518904067E+04  0.10518904067E+04  0.25500000000E-02 0.  1.
         -2   -1    0    0    0  501 -0.00000000000E+00 -0.00000000000E+00 -0.10775426988E+03  0.10775426991E+03  0.25500000000E-02 0. -1.
    5000001    1    1    2    0    0  0.19035005875E+03  0.16146388297E+03  0.65628245366E+03  0.72980229470E+03  0.19900000000E+03 0.  0.
   -5000001    1    1    2    0    0 -0.19035005875E+03 -0.16146388297E+03  0.28785368313E+03  0.42984238188E+03  0.19900000000E+03 0.  0.
<mgrwt>
<rscale>  0 0.67333701E+03</rscale>
<asrwt>0</asrwt>
<pdfrwt beam="1">  1        2 0.15027005E+00 0.67333701E+03</pdfrwt>
<pdfrwt beam="2">  1       -2 0.15393468E-01 0.67333701E+03</pdfrwt>
<totfact> 0.87977826E+02</totfact>
</mgrwt>
</event>
<event>
 4    1  0.4917371E-005  0.4227934E+03  0.7818608E-02  0.1036161E+00
          2   -1    0    0  501    0  0.00000000000E+00  0.00000000000E+00  0.11082785446E+04  0.11082785446E+04  0.25500000000E-02 0.  1.
         -2   -1    0    0    0  501 -0.00000000000E+00 -0.00000000000E+00 -0.40322506132E+02  0.40322506213E+02  0.25500000000E-02 0. -1.
    5000001    1    1    2    0    0 -0.11822207542E+02 -0.68982730601E+02  0.49661118163E+03  0.53955726984E+03  0.19900000000E+03 0.  0.
   -5000001    1    1    2    0    0  0.11822207542E+02  0.68982730601E+02  0.57134485678E+03  0.60904378093E+03  0.19900000000E+03 0.  0.
<mgrwt>
<rscale>  0 0.42279342E+03</rscale>
<asrwt>0</asrwt>
<pdfrwt beam="1">  1        2 0.15832549E+00 0.42279342E+03</pdfrwt>
<pdfrwt beam="2">  1       -2 0.57603588E-02 0.42279342E+03</pdfrwt>
<totfact> 0.39919465E+03</totfact>
</mgrwt>
</event>
<event>
 4    1  0.4917371E-005  0.5882949E+03  0.7818608E-02  0.9929992E-01
          2   -1    0    0  501    0  0.00000000000E+00  0.00000000000E+00  0.87207034978E+03  0.87207034978E+03  0.25500000000E-02 0.  1.
         -2   -1    0    0    0  501 -0.00000000000E+00 -0.00000000000E+00 -0.99215312189E+02  0.99215312221E+02  0.25500000000E-02 0. -1.
    5000001    1    1    2    0    0  0.16602102007E+03  0.98786256786E+02  0.54819384727E+03  0.61436080426E+03  0.19900000000E+03 0.  0.
   -5000001    1    1    2    0    0 -0.16602102007E+03 -0.98786256786E+02  0.22466119033E+03  0.35692485774E+03  0.19900000000E+03 0.  0.
<mgrwt>
<rscale>  0 0.58829493E+03</rscale>
<asrwt>0</asrwt>
<pdfrwt beam="1">  1        2 0.12458148E+00 0.58829493E+03</pdfrwt>
<pdfrwt beam="2">  1       -2 0.14173616E-01 0.58829493E+03</pdfrwt>
<totfact> 0.13117532E+03</totfact>
</mgrwt>
</event>
<event>
 4    1  0.4917371E-005  0.4668472E+03  0.7818608E-02  0.1022814E+00
         -2   -1    0    0    0  501 -0.00000000000E+00  0.00000000000E+00  0.15150891836E+03  0.15150891838E+03  0.25500000000E-02 0. -1.
          2   -1    0    0  501    0  0.00000000000E+00 -0.00000000000E+00 -0.35962616231E+03  0.35962616232E+03  0.25500000000E-02 0.  1.
    5000001    1    1    2    0    0 -0.78931032625E+02  0.48285864083E+02 -0.19112585979E+03  0.29101843045E+03  0.19900000000E+03 0.  0.
   -5000001    1    1    2    0    0  0.78931032625E+02 -0.48285864083E+02 -0.16991384168E+02  0.22011665025E+03  0.19900000000E+03 0.  0.
<mgrwt>
<rscale>  0 0.46684717E+03</rscale>
<asrwt>0</asrwt>
<pdfrwt beam="1">  1        2 0.51375166E-01 0.46684717E+03</pdfrwt>
<pdfrwt beam="2">  1       -2 0.21644131E-01 0.46684717E+03</pdfrwt>
<totfact> 0.17971530E+03</totfact>
</mgrwt>
</event>
<event>
 4    1  0.4917371E-005  0.5693903E+03  0.7818608E-02  0.9971029E-01
         -2   -1    0    0    0  501 -0.00000000000E+00  0.00000000000E+00  0.85669116772E+02  0.85669116810E+02  0.25500000000E-02 0. -1.
          2   -1    0    0  501    0  0.00000000000E+00 -0.00000000000E+00 -0.94609755146E+03  0.94609755146E+03  0.25500000000E-02 0.  1.
    5000001    1    1    2    0    0 -0.17428115605E+03  0.28579266901E+02 -0.24667132236E+03  0.36282011676E+03  0.19900000000E+03 0.  0.
   -5000001    1    1    2    0    0  0.17428115605E+03 -0.28579266901E+02 -0.61375711232E+03  0.66894655151E+03  0.19900000000E+03 0.  0.
<mgrwt>
<rscale>  0 0.56939035E+03</rscale>
<asrwt>0</asrwt>
<pdfrwt beam="1">  1        2 0.13515679E+00 0.56939035E+03</pdfrwt>
<pdfrwt beam="2">  1       -2 0.12238446E-01 0.56939035E+03</pdfrwt>
<totfact> 0.15008176E+03</totfact>
</mgrwt>
</event>
<event>
 4    1  0.4917371E-005  0.8005489E+03  0.7818608E-02  0.9559223E-01
          2   -1    0    0  501    0  0.00000000000E+00  0.00000000000E+00  0.15702529920E+04  0.15702529920E+04  0.25500000000E-02 0.  1.
         -2   -1    0    0    0  501 -0.00000000000E+00 -0.00000000000E+00 -0.10203428927E+03  0.10203428930E+03  0.25500000000E-02 0. -1.
    5000001    1    1    2    0    0  0.18854563944E+02 -0.22112118301E+03  0.17605497312E+03  0.34618842516E+03  0.19900000000E+03 0.  0.
   -5000001    1    1    2    0    0 -0.18854563944E+02  0.22112118301E+03  0.12921637296E+04  0.13260988562E+04  0.19900000000E+03 0.  0.
<mgrwt>
<rscale>  0 0.80054893E+03</rscale>
<asrwt>0</asrwt>
<pdfrwt beam="1">  1        2 0.22432184E+00 0.80054893E+03</pdfrwt>
<pdfrwt beam="2">  1       -2 0.14576328E-01 0.80054893E+03</pdfrwt>
<totfact> 0.49748642E+02</totfact>
</mgrwt>
</event>
<event>
 4    1  0.4917371E-005  0.5079268E+03  0.7818608E-02  0.1011730E+00
          2   -1    0    0  501    0  0.00000000000E+00  0.00000000000E+00  0.37695859951E+03  0.37695859952E+03  0.25500000000E-02 0.  1.
         -2   -1    0    0    0  501 -0.00000000000E+00 -0.00000000000E+00 -0.17109946493E+03  0.17109946495E+03  0.25500000000E-02 0. -1.
    5000001    1    1    2    0    0 -0.14545003561E+02  0.15699392700E+03  0.10956038279E+03  0.27651966968E+03  0.19900000000E+03 0.  0.
   -5000001    1    1    2    0    0  0.14545003561E+02 -0.15699392700E+03  0.96298751795E+02  0.27153839478E+03  0.19900000000E+03 0.  0.
<mgrwt>
<rscale>  0 0.50792682E+03</rscale>
<asrwt>0</asrwt>
<pdfrwt beam="1">  1        2 0.53851227E-01 0.50792682E+03</pdfrwt>
<pdfrwt beam="2">  1       -2 0.24442781E-01 0.50792682E+03</pdfrwt>
<totfact> 0.13771610E+03</totfact>
</mgrwt>
</event>
<event>
 4    1  0.4917371E-005  0.5713197E+03  0.7818608E-02  0.9966763E-01
          2   -1    0    0  501    0  0.00000000000E+00  0.00000000000E+00  0.27543105084E+04  0.27543105084E+04  0.25500000000E-02 0.  1.
         -2   -1    0    0    0  501 -0.00000000000E+00 -0.00000000000E+00 -0.29626851807E+02  0.29626851916E+02  0.25500000000E-02 0. -1.
    5000001    1    1    2    0    0 -0.15912545122E+03 -0.12215346354E+03  0.11580218268E+04  0.11919974535E+04  0.19900000000E+03 0.  0.
   -5000001    1    1    2    0    0  0.15912545122E+03  0.12215346354E+03  0.15666618298E+04  0.15919399068E+04  0.19900000000E+03 0.  0.
<mgrwt>
<rscale>  0 0.57131970E+03</rscale>
<asrwt>0</asrwt>
<pdfrwt beam="1">  1        2 0.39347291E+00 0.57131970E+03</pdfrwt>
<pdfrwt beam="2">  1       -2 0.42324076E-02 0.57131970E+03</pdfrwt>
<totfact> 0.90861431E+02</totfact>
</mgrwt>
</event>
<event>
 4    1  0.4917371E-005  0.4542578E+03  0.7818608E-02  0.1026460E+00
         -2   -1    0    0    0  501 -0.00000000000E+00  0.00000000000E+00  0.15469430102E+03  0.15469430104E+03  0.25500000000E-02 0. -1.
          2   -1    0    0  501    0  0.00000000000E+00 -0.00000000000E+00 -0.33348058979E+03  0.33348058980E+03  0.25500000000E-02 0.  1.
    5000001    1    1    2    0    0 -0.67439881981E+02 -0.73114666733E+02 -0.40232023309E+02  0.22608296679E+03  0.19900000000E+03 0.  0.
   -5000001    1    1    2    0    0  0.67439881981E+02  0.73114666733E+02 -0.13855426546E+03  0.26209192405E+03  0.19900000000E+03 0.  0.
<mgrwt>
<rscale>  0 0.45425784E+03</rscale>
<asrwt>0</asrwt>
<pdfrwt beam="1">  1        2 0.47640084E-01 0.45425784E+03</pdfrwt>
<pdfrwt beam="2">  1       -2 0.22099186E-01 0.45425784E+03</pdfrwt>
<totfact> 0.18818321E+03</totfact>
</mgrwt>
</event>
<event>
 4    1  0.4917371E-005  0.4867386E+03  0.7818608E-02  0.1017299E+00
         -2   -1    0    0    0  501 -0.00000000000E+00  0.00000000000E+00  0.84560665192E+02  0.84560665231E+02  0.25500000000E-02 0. -1.
          2   -1    0    0  501    0  0.00000000000E+00 -0.00000000000E+00 -0.70042745290E+03  0.70042745291E+03  0.25500000000E-02 0.  1.
    5000001    1    1    2    0    0 -0.73995379780E+02 -0.58744047431E+02 -0.47476881450E+03  0.52338571490E+03  0.19900000000E+03 0.  0.
   -5000001    1    1    2    0    0  0.73995379780E+02  0.58744047431E+02 -0.14109797321E+03  0.26160240324E+03  0.19900000000E+03 0.  0.
<mgrwt>
<rscale>  0 0.48673858E+03</rscale>
<asrwt>0</asrwt>
<pdfrwt beam="1">  1        2 0.10006106E+00 0.48673858E+03</pdfrwt>
<pdfrwt beam="2">  1       -2 0.12080095E-01 0.48673858E+03</pdfrwt>
<totfact> 0.22556861E+03</totfact>
</mgrwt>
</event>
<event>
 4    1  0.4917371E-005  0.5882239E+03  0.7818608E-02  0.9930143E-01
         -2   -1    0    0    0  501 -0.00000000000E+00  0.00000000000E+00  0.65440800798E+03  0.65440800798E+03  0.25500000000E-02 0. -1.
          2   -1    0    0  501    0  0.00000000000E+00 -0.00000000000E+00 -0.13218334986E+03  0.13218334988E+03  0.25500000000E-02 0.  1.
    5000001    1    1    2    0    0 -0.19563404859E+03 -0.49029719246E+02  0.36661171981E+03  0.46333761712E+03  0.19900000000E+03 0.  0.
   -5000001    1    1    2    0    0  0.19563404859E+03  0.49029719246E+02  0.15561293831E+03  0.32325374074E+03  0.19900000000E+03 0.  0.
<mgrwt>
<rscale>  0 0.58822391E+03</rscale>
<asrwt>0</asrwt>
<pdfrwt beam="1">  1        2 0.18883335E-01 0.58822391E+03</pdfrwt>
<pdfrwt beam="2">  1       -2 0.93486861E-01 0.58822391E+03</pdfrwt>
<totfact> 0.29754108E+02</totfact>
</mgrwt>
</event>
<event>
 4    1  0.4917371E-005  0.4981299E+03  0.7818608E-02  0.1014268E+00
         -2   -1    0    0    0  501 -0.00000000000E+00  0.00000000000E+00  0.36806823693E+03  0.36806823694E+03  0.25500000000E-02 0. -1.
          2   -1    0    0  501    0  0.00000000000E+00 -0.00000000000E+00 -0.16853764859E+03  0.16853764861E+03  0.25500000000E-02 0.  1.
    5000001    1    1    2    0    0  0.64172597225E+02  0.13448084971E+03  0.83458913482E+02  0.26223960687E+03  0.19900000000E+03 0.  0.
   -5000001    1    1    2    0    0 -0.64172597225E+02 -0.13448084971E+03  0.11607167486E+03  0.27436627868E+03  0.19900000000E+03 0.  0.
<mgrwt>
<rscale>  0 0.49812992E+03</rscale>
<asrwt>0</asrwt>
<pdfrwt beam="1">  1        2 0.24076807E-01 0.49812992E+03</pdfrwt>
<pdfrwt beam="2">  1       -2 0.52581176E-01 0.49812992E+03</pdfrwt>
<totfact> 0.78460812E+02</totfact>
</mgrwt>
</event>
<event>
 4    1  0.4917371E-005  0.4685356E+03  0.7818608E-02  0.1022334E+00
         -2   -1    0    0    0  501 -0.00000000000E+00  0.00000000000E+00  0.88932524528E+02  0.88932524565E+02  0.25500000000E-02 0. -1.
          2   -1    0    0  501    0  0.00000000000E+00 -0.00000000000E+00 -0.61711279332E+03  0.61711279332E+03  0.25500000000E-02 0.  1.
    5000001    1    1    2    0    0  0.67711140660E+02  0.30563716540E+02 -0.11520635994E+03  0.24164528696E+03  0.19900000000E+03 0.  0.
   -5000001    1    1    2    0    0 -0.67711140660E+02 -0.30563716540E+02 -0.41297390885E+03  0.46440003093E+03  0.19900000000E+03 0.  0.
<mgrwt>
<rscale>  0 0.46853559E+03</rscale>
<asrwt>0</asrwt>
<pdfrwt beam="1">  1        2 0.88158968E-01 0.46853559E+03</pdfrwt>
<pdfrwt beam="2">  1       -2 0.12704647E-01 0.46853559E+03</pdfrwt>
<totfact> 0.24146351E+03</totfact>
</mgrwt>
</event>
<event>
 4    1  0.4917371E-005  0.9494842E+03  0.7818608E-02  0.9365754E-01
          2   -1    0    0  501    0  0.00000000000E+00  0.00000000000E+00  0.23766776886E+03  0.23766776887E+03  0.25500000000E-02 0.  1.
         -2   -1    0    0    0  501 -0.00000000000E+00 -0.00000000000E+00 -0.94829890581E+03  0.94829890582E+03  0.25500000000E-02 0. -1.
    5000001    1    1    2    0    0  0.12119629308E+03 -0.48866661611E+02  0.15771778405E+03  0.28557379340E+03  0.19900000000E+03 0.  0.
   -5000001    1    1    2    0    0 -0.12119629308E+03  0.48866661611E+02 -0.86834892100E+03  0.90039288129E+03  0.19900000000E+03 0.  0.
<mgrwt>
<rscale>  0 0.94948425E+03</rscale>
<asrwt>0</asrwt>
<pdfrwt beam="1">  1        2 0.33952539E-01 0.94948425E+03</pdfrwt>
<pdfrwt beam="2">  1       -2 0.13547127E+00 0.94948425E+03</pdfrwt>
<totfact> 0.60567708E+01</totfact>
</mgrwt>
</event>
<event>
 4    1  0.4917371E-005  0.7043196E+03  0.7818608E-02  0.9709873E-01
          2   -1    0    0  501    0  0.00000000000E+00  0.00000000000E+00  0.88268773290E+03  0.88268773291E+03  0.25500000000E-02 0.  1.
         -2   -1    0    0    0  501 -0.00000000000E+00 -0.00000000000E+00 -0.14049876472E+03  0.14049876474E+03  0.25500000000E-02 0. -1.
    5000001    1    1    2    0    0  0.13232282871E+03  0.21674419499E+03  0.16601670920E+03  0.36283594750E+03  0.19900000000E+03 0.  0.
   -5000001    1    1    2    0    0 -0.13232282871E+03 -0.21674419499E+03  0.57617225899E+03  0.66035055015E+03  0.19900000000E+03 0.  0.
<mgrwt>
<rscale>  0 0.70431963E+03</rscale>
<asrwt>0</asrwt>
<pdfrwt beam="1">  1        2 0.12609825E+00 0.70431963E+03</pdfrwt>
<pdfrwt beam="2">  1       -2 0.20071251E-01 0.70431963E+03</pdfrwt>
<totfact> 0.71044249E+02</totfact>
</mgrwt>
</event>
<event>
 4    1  0.4917371E-005  0.8821813E+03  0.7818608E-02  0.9448134E-01
          2   -1    0    0  501    0  0.00000000000E+00  0.00000000000E+00  0.39001247412E+03  0.39001247413E+03  0.25500000000E-02 0.  1.
         -2   -1    0    0    0  501 -0.00000000000E+00 -0.00000000000E+00 -0.49885834606E+03  0.49885834606E+03  0.25500000000E-02 0. -1.
    5000001    1    1    2    0    0  0.31423039029E+03 -0.59154117536E+02 -0.28577245874E+03  0.47276510656E+03  0.19900000000E+03 0.  0.
   -5000001    1    1    2    0    0 -0.31423039029E+03  0.59154117536E+02  0.17692658680E+03  0.41610571363E+03  0.19900000000E+03 0.  0.
<mgrwt>
<rscale>  0 0.88218134E+03</rscale>
<asrwt>0</asrwt>
<pdfrwt beam="1">  1        2 0.55716068E-01 0.88218134E+03</pdfrwt>
<pdfrwt beam="2">  1       -2 0.71265478E-01 0.88218134E+03</pdfrwt>
<totfact> 0.15975405E+02</totfact>
</mgrwt>
</event>
<event>
 4    1  0.4917371E-005  0.6033427E+03  0.7818608E-02  0.9898495E-01
          2   -1    0    0  501    0  0.00000000000E+00  0.00000000000E+00  0.20835177331E+04  0.20835177331E+04  0.25500000000E-02 0.  1.
         -2   -1    0    0    0  501 -0.00000000000E+00 -0.00000000000E+00 -0.43678824181E+02  0.43678824255E+02  0.25500000000E-02 0. -1.
    5000001    1    1    2    0    0 -0.26023583260E+02  0.22408848437E+03  0.94016340809E+03  0.98711757639E+03  0.19900000000E+03 0.  0.
   -5000001    1    1    2    0    0  0.26023583260E+02 -0.22408848437E+03  0.10996755008E+04  0.11400789810E+04  0.19900000000E+03 0.  0.
<mgrwt>
<rscale>  0 0.60334270E+03</rscale>
<asrwt>0</asrwt>
<pdfrwt beam="1">  1        2 0.29764539E+00 0.60334270E+03</pdfrwt>
<pdfrwt beam="2">  1       -2 0.62398321E-02 0.60334270E+03</pdfrwt>
<totfact> 0.10923548E+03</totfact>
</mgrwt>
</event>
<event>
 4    1  0.4917371E-005  0.8486265E+03  0.7818608E-02  0.9492182E-01
          2   -1    0    0  501    0  0.00000000000E+00  0.00000000000E+00  0.64703050156E+03  0.64703050156E+03  0.25500000000E-02 0.  1.
         -2   -1    0    0    0  501 -0.00000000000E+00 -0.00000000000E+00 -0.27825848873E+03  0.27825848874E+03  0.25500000000E-02 0. -1.
    5000001    1    1    2    0    0  0.32884138816E+03 -0.16957741145E+03  0.11944388820E+03  0.43676194829E+03  0.19900000000E+03 0.  0.
   -5000001    1    1    2    0    0 -0.32884138816E+03  0.16957741145E+03  0.24932812463E+03  0.48852704201E+03  0.19900000000E+03 0.  0.
<mgrwt>
<rscale>  0 0.84862649E+03</rscale>
<asrwt>0</asrwt>
<pdfrwt beam="1">  1        2 0.92432929E-01 0.84862649E+03</pdfrwt>
<pdfrwt beam="2">  1       -2 0.39751213E-01 0.84862649E+03</pdfrwt>
<totfact> 0.29769075E+02</totfact>
</mgrwt>
</event>
<event>
 4    1  0.4917371E-005  0.4649718E+03  0.7818608E-02  0.1023349E+00
         -2   -1    0    0    0  501 -0.00000000000E+00  0.00000000000E+00  0.84115858921E+02  0.84115858960E+02  0.25500000000E-02 0. -1.
          2   -1    0    0  501    0  0.00000000000E+00 -0.00000000000E+00 -0.64256244653E+03  0.64256244654E+03  0.25500000000E-02 0.  1.
    5000001    1    1    2    0    0  0.11682095626E+03  0.20094229440E+02 -0.24805334440E+03  0.33938529070E+03  0.19900000000E+03 0.  0.
   -5000001    1    1    2    0    0 -0.11682095626E+03 -0.20094229440E+02 -0.31039324321E+03  0.38729301479E+03  0.19900000000E+03 0.  0.
<mgrwt>
<rscale>  0 0.46497179E+03</rscale>
<asrwt>0</asrwt>
<pdfrwt beam="1">  1        2 0.91794632E-01 0.46497179E+03</pdfrwt>
<pdfrwt beam="2">  1       -2 0.12016552E-01 0.46497179E+03</pdfrwt>
<totfact> 0.25224092E+03</totfact>
</mgrwt>
</event>
<event>
 4    1  0.4917371E-005  0.4749615E+03  0.7818608E-02  0.1020529E+00
         -2   -1    0    0    0  501 -0.00000000000E+00  0.00000000000E+00  0.47937487310E+02  0.47937487378E+02  0.25500000000E-02 0. -1.
          2   -1    0    0  501    0  0.00000000000E+00 -0.00000000000E+00 -0.11764717008E+04  0.11764717008E+04  0.25500000000E-02 0.  1.
    5000001    1    1    2    0    0 -0.10698239683E+03 -0.68176050985E+02 -0.49592129208E+03  0.54921046522E+03  0.19900000000E+03 0.  0.
   -5000001    1    1    2    0    0  0.10698239683E+03  0.68176050985E+02 -0.63261292137E+03  0.67519872293E+03  0.19900000000E+03 0.  0.
<mgrwt>
<rscale>  0 0.47496146E+03</rscale>
<asrwt>0</asrwt>
<pdfrwt beam="1">  1        2 0.16806737E+00 0.47496146E+03</pdfrwt>
<pdfrwt beam="2">  1       -2 0.68482132E-02 0.47496146E+03</pdfrwt>
<totfact> 0.27902403E+03</totfact>
</mgrwt>
</event>
<event>
 4    1  0.4917371E-005  0.5589999E+03  0.7818608E-02  0.9994320E-01
         -2   -1    0    0    0  501 -0.00000000000E+00  0.00000000000E+00  0.13021445768E+03  0.13021445770E+03  0.25500000000E-02 0. -1.
          2   -1    0    0  501    0  0.00000000000E+00 -0.00000000000E+00 -0.59993502187E+03  0.59993502188E+03  0.25500000000E-02 0.  1.
    5000001    1    1    2    0    0 -0.21775731683E+01 -0.11504468757E+03 -0.44253406025E+03  0.49867566258E+03  0.19900000000E+03 0.  0.
   -5000001    1    1    2    0    0  0.21775731683E+01  0.11504468757E+03 -0.27186503940E+02  0.23147381700E+03  0.19900000000E+03 0.  0.
<mgrwt>
<rscale>  0 0.55899987E+03</rscale>
<asrwt>0</asrwt>
<pdfrwt beam="1">  1        2 0.85705001E-01 0.55899987E+03</pdfrwt>
<pdfrwt beam="2">  1       -2 0.18602066E-01 0.55899987E+03</pdfrwt>
<totfact> 0.13144463E+03</totfact>
</mgrwt>
</event>
<event>
 4    1  0.4917371E-005  0.6840279E+03  0.7818608E-02  0.9744943E-01
          2   -1    0    0  501    0  0.00000000000E+00  0.00000000000E+00  0.34737478314E+03  0.34737478315E+03  0.25500000000E-02 0.  1.
         -2   -1    0    0    0  501 -0.00000000000E+00 -0.00000000000E+00 -0.33673585424E+03  0.33673585425E+03  0.25500000000E-02 0. -1.
    5000001    1    1    2    0    0  0.26637510052E+03 -0.35743589174E+02  0.77016669603E+02  0.34317031594E+03  0.19900000000E+03 0.  0.
   -5000001    1    1    2    0    0 -0.26637510052E+03  0.35743589174E+02 -0.66377740705E+02  0.34094032147E+03  0.19900000000E+03 0.  0.
<mgrwt>
<rscale>  0 0.68402791E+03</rscale>
<asrwt>0</asrwt>
<pdfrwt beam="1">  1        2 0.49624969E-01 0.68402791E+03</pdfrwt>
<pdfrwt beam="2">  1       -2 0.48105122E-01 0.68402791E+03</pdfrwt>
<totfact> 0.41790433E+02</totfact>
</mgrwt>
</event>
<event>
 4    1  0.4917371E-005  0.1324582E+04  0.7818608E-02  0.9010296E-01
          2   -1    0    0  501    0  0.00000000000E+00  0.00000000000E+00  0.80864627374E+03  0.80864627374E+03  0.25500000000E-02 0.  1.
         -2   -1    0    0    0  501 -0.00000000000E+00 -0.00000000000E+00 -0.54242393102E+03  0.54242393103E+03  0.25500000000E-02 0. -1.
    5000001    1    1    2    0    0  0.35001738620E+03  0.48403088290E+03  0.34272014489E+03  0.71683761338E+03  0.19900000000E+03 0.  0.
   -5000001    1    1    2    0    0 -0.35001738620E+03 -0.48403088290E+03 -0.76497802170E+02  0.63423259139E+03  0.19900000000E+03 0.  0.
<mgrwt>
<rscale>  0 0.13245816E+04</rscale>
<asrwt>0</asrwt>
<pdfrwt beam="1">  1        2 0.11552090E+00 0.13245816E+04</pdfrwt>
<pdfrwt beam="2">  1       -2 0.77489133E-01 0.13245816E+04</pdfrwt>
<totfact> 0.54547715E+01</totfact>
</mgrwt>
</event>
<event>
 4    1  0.4917371E-005  0.6875918E+03  0.7818608E-02  0.9738690E-01
          2   -1    0    0  501    0  0.00000000000E+00  0.00000000000E+00  0.14923389540E+04  0.14923389540E+04  0.25500000000E-02 0.  1.
         -2   -1    0    0    0  501 -0.00000000000E+00 -0.00000000000E+00 -0.79201583063E+02  0.79201583104E+02  0.25500000000E-02 0. -1.
    5000001    1    1    2    0    0 -0.26125108048E+03 -0.70285348440E+02  0.87456134962E+03  0.93683014015E+03  0.19900000000E+03 0.  0.
   -5000001    1    1    2    0    0  0.26125108048E+03  0.70285348440E+02  0.53857602129E+03  0.63471039693E+03  0.19900000000E+03 0.  0.
<mgrwt>
<rscale>  0 0.68759176E+03</rscale>
<asrwt>0</asrwt>
<pdfrwt beam="1">  1        2 0.21319127E+00 0.68759176E+03</pdfrwt>
<pdfrwt beam="2">  1       -2 0.11314512E-01 0.68759176E+03</pdfrwt>
<totfact> 0.83747320E+02</totfact>
</mgrwt>
</event>
<event>
 4    1  0.4917371E-005  0.5387324E+03  0.7818608E-02  0.1004136E+00
         -2   -1    0    0    0  501 -0.00000000000E+00  0.00000000000E+00  0.34382619730E+03  0.34382619731E+03  0.25500000000E-02 0. -1.
          2   -1    0    0  501    0  0.00000000000E+00 -0.00000000000E+00 -0.21103148231E+03  0.21103148232E+03  0.25500000000E-02 0.  1.
    5000001    1    1    2    0    0 -0.98783545308E+02  0.15163882339E+03  0.81130441918E+02  0.28095492554E+03  0.19900000000E+03 0.  0.
   -5000001    1    1    2    0    0  0.98783545308E+02 -0.15163882339E+03  0.51664273073E+02  0.27390275408E+03  0.19900000000E+03 0.  0.
<mgrwt>
<rscale>  0 0.53873241E+03</rscale>
<asrwt>0</asrwt>
<pdfrwt beam="1">  1        2 0.30147355E-01 0.53873241E+03</pdfrwt>
<pdfrwt beam="2">  1       -2 0.49118028E-01 0.53873241E+03</pdfrwt>
<totfact> 0.69844578E+02</totfact>
</mgrwt>
</event>
<event>
 4    1  0.4917371E-005  0.7721284E+03  0.7818608E-02  0.9601260E-01
         -2   -1    0    0    0  501 -0.00000000000E+00  0.00000000000E+00  0.28985983252E+03  0.28985983253E+03  0.25500000000E-02 0. -1.
          2   -1    0    0  501    0  0.00000000000E+00 -0.00000000000E+00 -0.51419878994E+03  0.51419878995E+03  0.25500000000E-02 0.  1.
    5000001    1    1    2    0    0 -0.31994348643E+03 -0.71690323520E+02 -0.15805097604E+03  0.41483062571E+03  0.19900000000E+03 0.  0.
   -5000001    1    1    2    0    0  0.31994348643E+03  0.71690323520E+02 -0.66287981380E+02  0.38922799677E+03  0.19900000000E+03 0.  0.
<mgrwt>
<rscale>  0 0.77212842E+03</rscale>
<asrwt>0</asrwt>
<pdfrwt beam="1">  1        2 0.73456970E-01 0.77212842E+03</pdfrwt>
<pdfrwt beam="2">  1       -2 0.41408548E-01 0.77212842E+03</pdfrwt>
<totfact> 0.36125500E+02</totfact>
</mgrwt>
</event>
<event>
 4    1  0.4917371E-005  0.1187105E+04  0.7818608E-02  0.9124219E-01
          2   -1    0    0  501    0  0.00000000000E+00  0.00000000000E+00  0.77896250110E+03  0.77896250111E+03  0.25500000000E-02 0.  1.
         -2   -1    0    0    0  501 -0.00000000000E+00 -0.00000000000E+00 -0.45227382849E+03  0.45227382850E+03  0.25500000000E-02 0. -1.
    5000001    1    1    2    0    0 -0.48572772038E+03 -0.27131262672E+03  0.22166086388E+03  0.63109151344E+03  0.19900000000E+03 0.  0.
   -5000001    1    1    2    0    0  0.48572772038E+03  0.27131262672E+03  0.10502780874E+03  0.60014481616E+03  0.19900000000E+03 0.  0.
<mgrwt>
<rscale>  0 0.11871046E+04</rscale>
<asrwt>0</asrwt>
<pdfrwt beam="1">  1        2 0.11128036E+00 0.11871046E+04</pdfrwt>
<pdfrwt beam="2">  1       -2 0.64610548E-01 0.11871046E+04</pdfrwt>
<totfact> 0.85999630E+01</totfact>
</mgrwt>
</event>
<event>
 4    1  0.4917371E-005  0.1501162E+04  0.7818608E-02  0.8883680E-01
         -2   -1    0    0    0  501 -0.00000000000E+00  0.00000000000E+00  0.75709756455E+03  0.75709756455E+03  0.25500000000E-02 0. -1.
          2   -1    0    0  501    0  0.00000000000E+00 -0.00000000000E+00 -0.74412075158E+03  0.74412075158E+03  0.25500000000E-02 0.  1.
    5000001    1    1    2    0    0 -0.45465871707E+03  0.56161892984E+03  0.46994702132E+02  0.75095930209E+03  0.19900000000E+03 0.  0.
   -5000001    1    1    2    0    0  0.45465871707E+03 -0.56161892984E+03 -0.34017889162E+02  0.75025901404E+03  0.19900000000E+03 0.  0.
<mgrwt>
<rscale>  0 0.15011622E+04</rscale>
<asrwt>0</asrwt>
<pdfrwt beam="1">  1        2 0.10630296E+00 0.15011622E+04</pdfrwt>
<pdfrwt beam="2">  1       -2 0.10815680E+00 0.15011622E+04</pdfrwt>
<totfact> 0.27630317E+01</totfact>
</mgrwt>
</event>
<event>
 4    1  0.4917371E-005  0.6752187E+03  0.7818608E-02  0.9760576E-01
         -2   -1    0    0    0  501 -0.00000000000E+00  0.00000000000E+00  0.14249641084E+03  0.14249641087E+03  0.25500000000E-02 0.  1.
          2   -1    0    0  501    0  0.00000000000E+00 -0.00000000000E+00 -0.79988024731E+03  0.79988024731E+03  0.25500000000E-02 0. -1.
    5000001    1    1    2    0    0  0.21200576974E+03  0.12628075961E+03 -0.16661609533E+03  0.35812735147E+03  0.19900000000E+03 0.  0.
   -5000001    1    1    2    0    0 -0.21200576974E+03 -0.12628075961E+03 -0.49076774113E+03  0.58424930671E+03  0.19900000000E+03 0.  0.
<mgrwt>
<rscale>  0 0.67521867E+03</rscale>
<asrwt>0</asrwt>
<pdfrwt beam="1">  1        2 0.11426860E+00 0.67521867E+03</pdfrwt>
<pdfrwt beam="2">  1       -2 0.20356631E-01 0.67521867E+03</pdfrwt>
<totfact> 0.78904766E+02</totfact>
</mgrwt>
</event>
<event>
 4    1  0.4917371E-005  0.7718685E+03  0.7818608E-02  0.9601653E-01
          2   -1    0    0  501    0  0.00000000000E+00  0.00000000000E+00  0.19605830041E+04  0.19605830041E+04  0.25500000000E-02 0.  1.
         -2   -1    0    0    0  501 -0.00000000000E+00 -0.00000000000E+00 -0.75969883507E+02  0.75969883550E+02  0.25500000000E-02 0. -1.
    5000001    1    1    2    0    0  0.32345277281E+03  0.64290182158E+02  0.10063588761E+04  0.10775500504E+04  0.19900000000E+03 0.  0.
   -5000001    1    1    2    0    0 -0.32345277281E+03 -0.64290182158E+02  0.87825424456E+03  0.95900283725E+03  0.19900000000E+03 0.  0.
<mgrwt>
<rscale>  0 0.77186854E+03</rscale>
<asrwt>0</asrwt>
<pdfrwt beam="1">  1        2 0.28008329E+00 0.77186854E+03</pdfrwt>
<pdfrwt beam="2">  1       -2 0.10852841E-01 0.77186854E+03</pdfrwt>
<totfact> 0.51373210E+02</totfact>
</mgrwt>
</event>
<event>
 4    1  0.4917371E-005  0.6632402E+03  0.7818608E-02  0.9782247E-01
         -2   -1    0    0    0  501 -0.00000000000E+00  0.00000000000E+00  0.21978589290E+03  0.21978589292E+03  0.25500000000E-02 0. -1.
          2   -1    0    0  501    0  0.00000000000E+00 -0.00000000000E+00 -0.50035918683E+03  0.50035918684E+03  0.25500000000E-02 0.  1.
    5000001    1    1    2    0    0 -0.17221292957E+03  0.19386408998E+03 -0.79537108814E+02  0.33640411736E+03  0.19900000000E+03 0.  0.
   -5000001    1    1    2    0    0  0.17221292957E+03 -0.19386408998E+03 -0.20103618511E+03  0.38374096240E+03  0.19900000000E+03 0.  0.
<mgrwt>
<rscale>  0 0.66324020E+03</rscale>
<asrwt>0</asrwt>
<pdfrwt beam="1">  1        2 0.71479883E-01 0.66324020E+03</pdfrwt>
<pdfrwt beam="2">  1       -2 0.31397985E-01 0.66324020E+03</pdfrwt>
<totfact> 0.63449044E+02</totfact>
</mgrwt>
</event>
<event>
 4    1  0.4917371E-005  0.8156873E+03  0.7818608E-02  0.9537584E-01
          2   -1    0    0  501    0  0.00000000000E+00  0.00000000000E+00  0.13402011472E+04  0.13402011472E+04  0.25500000000E-02 0.  1.
         -2   -1    0    0    0  501 -0.00000000000E+00 -0.00000000000E+00 -0.12411303772E+03  0.12411303775E+03  0.25500000000E-02 0. -1.
    5000001    1    1    2    0    0  0.16410492931E+03 -0.20516080938E+03  0.17677196398E+03  0.37399293145E+03  0.19900000000E+03 0.  0.
   -5000001    1    1    2    0    0 -0.16410492931E+03  0.20516080938E+03  0.10393161455E+04  0.10903212535E+04  0.19900000000E+03 0.  0.
<mgrwt>
<rscale>  0 0.81568728E+03</rscale>
<asrwt>0</asrwt>
<pdfrwt beam="1">  1        2 0.19145730E+00 0.81568728E+03</pdfrwt>
<pdfrwt beam="2">  1       -2 0.17730434E-01 0.81568728E+03</pdfrwt>
<totfact> 0.47159435E+02</totfact>
</mgrwt>
</event>
<event>
 4    1  0.4917371E-005  0.5498467E+03  0.7818608E-02  0.1001529E+00
         -2   -1    0    0    0  501 -0.00000000000E+00  0.00000000000E+00  0.27031308540E+02  0.27031308660E+02  0.25500000000E-02 0. -1.
          2   -1    0    0  501    0  0.00000000000E+00 -0.00000000000E+00 -0.27961225931E+04  0.27961225931E+04  0.25500000000E-02 0.  1.
    5000001    1    1    2    0    0 -0.35012004093E+02 -0.18640083040E+03 -0.14013743035E+04  0.14280833479E+04  0.19900000000E+03 0.  0.
   -5000001    1    1    2    0    0  0.35012004093E+02  0.18640083040E+03 -0.13677169811E+04  0.13950705539E+04  0.19900000000E+03 0.  0.
<mgrwt>
<rscale>  0 0.54984672E+03</rscale>
<asrwt>0</asrwt>
<pdfrwt beam="1">  1        2 0.39944590E+00 0.54984672E+03</pdfrwt>
<pdfrwt beam="2">  1       -2 0.38616173E-02 0.54984672E+03</pdfrwt>
<totfact> 0.99596065E+02</totfact>
</mgrwt>
</event>
<event>
 4    1  0.4917371E-005  0.7127850E+03  0.7818608E-02  0.9695615E-01
         -2   -1    0    0    0  501 -0.00000000000E+00  0.00000000000E+00  0.10494881262E+04  0.10494881262E+04  0.25500000000E-02 0. -1.
          2   -1    0    0  501    0  0.00000000000E+00 -0.00000000000E+00 -0.12102623995E+03  0.12102623997E+03  0.25500000000E-02 0.  1.
    5000001    1    1    2    0    0 -0.70180556414E+02  0.23262554067E+03  0.74085087336E+03  0.80467444922E+03  0.19900000000E+03 0.  0.
   -5000001    1    1    2    0    0  0.70180556414E+02 -0.23262554067E+03  0.18761101286E+03  0.36583991693E+03  0.19900000000E+03 0.  0.
<mgrwt>
<rscale>  0 0.71278497E+03</rscale>
<asrwt>0</asrwt>
<pdfrwt beam="1">  1        2 0.17289464E-01 0.71278497E+03</pdfrwt>
<pdfrwt beam="2">  1       -2 0.14992687E+00 0.71278497E+03</pdfrwt>
<totfact> 0.10263360E+02</totfact>
</mgrwt>
</event>
<event>
 4    1  0.4917371E-005  0.4455755E+03  0.7818608E-02  0.1029050E+00
         -2   -1    0    0    0  501 -0.00000000000E+00  0.00000000000E+00  0.14678914585E+03  0.14678914587E+03  0.25500000000E-02 0. -1.
          2   -1    0    0  501    0  0.00000000000E+00 -0.00000000000E+00 -0.33813386228E+03  0.33813386229E+03  0.25500000000E-02 0.  1.
    5000001    1    1    2    0    0  0.91877558934E+02 -0.30008195825E+02 -0.67055814589E+02  0.23116976429E+03  0.19900000000E+03 0.  0.
   -5000001    1    1    2    0    0 -0.91877558934E+02  0.30008195825E+02 -0.12428890185E+03  0.25375324387E+03  0.19900000000E+03 0.  0.
<mgrwt>
<rscale>  0 0.44557550E+03</rscale>
<asrwt>0</asrwt>
<pdfrwt beam="1">  1        2 0.48304837E-01 0.44557550E+03</pdfrwt>
<pdfrwt beam="2">  1       -2 0.20969878E-01 0.44557550E+03</pdfrwt>
<totfact> 0.20310638E+03</totfact>
</mgrwt>
</event>
<event>
 4    1  0.4917371E-005  0.4832988E+03  0.7818608E-02  0.1018232E+00
         -2   -1    0    0    0  501 -0.00000000000E+00  0.00000000000E+00  0.16526709109E+02  0.16526709306E+02  0.25500000000E-02 0. -1.
          2   -1    0    0  501    0  0.00000000000E+00 -0.00000000000E+00 -0.35333375221E+04  0.35333375221E+04  0.25500000000E-02 0.  1.
    5000001    1    1    2    0    0  0.10827981049E+03 -0.39173982008E+02 -0.23048275169E+04  0.23162663925E+04  0.19900000000E+03 0.  0.
   -5000001    1    1    2    0    0 -0.10827981049E+03  0.39173982008E+02 -0.12119832961E+04  0.12335978390E+04  0.19900000000E+03 0.  0.
<mgrwt>
<rscale>  0 0.48329884E+03</rscale>
<asrwt>0</asrwt>
<pdfrwt beam="1">  1        2 0.50476202E+00 0.48329884E+03</pdfrwt>
<pdfrwt beam="2">  1       -2 0.23609607E-02 0.48329884E+03</pdfrwt>
<totfact> 0.82050249E+02</totfact>
</mgrwt>
</event>
<event>
 4    1  0.4917371E-005  0.4522341E+03  0.7818608E-02  0.1027058E+00
          2   -1    0    0  501    0  0.00000000000E+00  0.00000000000E+00  0.98041433661E+03  0.98041433661E+03  0.25500000000E-02 0.  1.
         -2   -1    0    0    0  501 -0.00000000000E+00 -0.00000000000E+00 -0.52150310312E+02  0.52150310374E+02  0.25500000000E-02 0. -1.
    5000001    1    1    2    0    0  0.29545524891E+02  0.98609207110E+02  0.39445732495E+03  0.45364556096E+03  0.19900000000E+03 0.  0.
   -5000001    1    1    2    0    0 -0.29545524891E+02 -0.98609207110E+02  0.53380670134E+03  0.57891908603E+03  0.19900000000E+03 0.  0.
<mgrwt>
<rscale>  0 0.45223406E+03</rscale>
<asrwt>0</asrwt>
<pdfrwt beam="1">  1        2 0.14005917E+00 0.45223406E+03</pdfrwt>
<pdfrwt beam="2">  1       -2 0.74500455E-02 0.45223406E+03</pdfrwt>
<totfact> 0.31786664E+03</totfact>
</mgrwt>
</event>
<event>
 4    1  0.4917371E-005  0.1426498E+04  0.7818608E-02  0.8934858E-01
         -2   -1    0    0    0  501 -0.00000000000E+00  0.00000000000E+00  0.25491883020E+03  0.25491883021E+03  0.25500000000E-02 0. -1.
          2   -1    0    0  501    0  0.00000000000E+00 -0.00000000000E+00 -0.19956331515E+04  0.19956331515E+04  0.25500000000E-02 0.  1.
    5000001    1    1    2    0    0 -0.68411097924E+03 -0.26873805340E+02 -0.90165067460E+03  0.11494803053E+04  0.19900000000E+03 0.  0.
   -5000001    1    1    2    0    0  0.68411097924E+03  0.26873805340E+02 -0.83906364671E+03  0.11010716764E+04  0.19900000000E+03 0.  0.
<mgrwt>
<rscale>  0 0.14264985E+04</rscale>
<asrwt>0</asrwt>
<pdfrwt beam="1">  1        2 0.28509044E+00 0.14264985E+04</pdfrwt>
<pdfrwt beam="2">  1       -2 0.36416977E-01 0.14264985E+04</pdfrwt>
<totfact> 0.55671243E+01</totfact>
</mgrwt>
</event>
<event>
 4    1  0.4917371E-005  0.7518058E+03  0.7818608E-02  0.9632522E-01
         -2   -1    0    0    0  501 -0.00000000000E+00  0.00000000000E+00  0.15349349085E+04  0.15349349085E+04  0.25500000000E-02 0. -1.
          2   -1    0    0  501    0  0.00000000000E+00 -0.00000000000E+00 -0.92057970785E+02  0.92057970820E+02  0.25500000000E-02 0.  1.
    5000001    1    1    2    0    0  0.53533449738E+02  0.31413250375E+03  0.69432800870E+03  0.78945388961E+03  0.19900000000E+03 0.  0.
   -5000001    1    1    2    0    0 -0.53533449738E+02 -0.31413250375E+03  0.74854892897E+03  0.83753898967E+03  0.19900000000E+03 0.  0.
<mgrwt>
<rscale>  0 0.75180581E+03</rscale>
<asrwt>0</asrwt>
<pdfrwt beam="1">  1        2 0.13151138E-01 0.75180581E+03</pdfrwt>
<pdfrwt beam="2">  1       -2 0.21927642E+00 0.75180581E+03</pdfrwt>
<totfact> 0.48067660E+01</totfact>
</mgrwt>
</event>
<event>
 4    1  0.4917371E-005  0.5173519E+03  0.7818608E-02  0.1009346E+00
         -2   -1    0    0    0  501 -0.00000000000E+00  0.00000000000E+00  0.44576767114E+02  0.44576767187E+02  0.25500000000E-02 0. -1.
          2   -1    0    0  501    0  0.00000000000E+00 -0.00000000000E+00 -0.15010787479E+04  0.15010787479E+04  0.25500000000E-02 0.  1.
    5000001    1    1    2    0    0  0.82442675527E+02 -0.10219757847E+03 -0.42842788276E+03  0.49029847085E+03  0.19900000000E+03 0.  0.
   -5000001    1    1    2    0    0 -0.82442675527E+02  0.10219757847E+03 -0.10280740980E+04  0.10553570442E+04  0.19900000000E+03 0.  0.
<mgrwt>
<rscale>  0 0.51735186E+03</rscale>
<asrwt>0</asrwt>
<pdfrwt beam="1">  1        2 0.21443979E+00 0.51735186E+03</pdfrwt>
<pdfrwt beam="2">  1       -2 0.63681105E-02 0.51735186E+03</pdfrwt>
<totfact> 0.20934353E+03</totfact>
</mgrwt>
</event>
<event>
 4    1  0.4917371E-005  0.5834920E+03  0.7818608E-02  0.9940259E-01
          2   -1    0    0  501    0  0.00000000000E+00  0.00000000000E+00  0.46145419914E+04  0.46145419914E+04  0.25500000000E-02 0.  1.
         -2   -1    0    0    0  501 -0.00000000000E+00 -0.00000000000E+00 -0.18445110243E+02  0.18445110419E+02  0.25500000000E-02 0. -1.
    5000001    1    1    2    0    0 -0.11844092327E+03 -0.14828590587E+03  0.30718633278E+04  0.30841469269E+04  0.19900000000E+03 0.  0.
   -5000001    1    1    2    0    0  0.11844092327E+03  0.14828590587E+03  0.15242335533E+04  0.15488401749E+04  0.19900000000E+03 0.  0.
<mgrwt>
<rscale>  0 0.58349203E+03</rscale>
<asrwt>0</asrwt>
<pdfrwt beam="1">  1        2 0.65922142E+00 0.58349203E+03</pdfrwt>
<pdfrwt beam="2">  1       -2 0.26350112E-02 0.58349203E+03</pdfrwt>
<totfact> 0.12433013E+02</totfact>
</mgrwt>
</event>
<event>
 4    1  0.4917371E-005  0.7994136E+03  0.7818608E-02  0.9560866E-01
         -2   -1    0    0    0  501 -0.00000000000E+00  0.00000000000E+00  0.65795427250E+03  0.65795427251E+03  0.25500000000E-02 0.  1.
          2   -1    0    0  501    0  0.00000000000E+00 -0.00000000000E+00 -0.24282164023E+03  0.24282164025E+03  0.25500000000E-02 0. -1.
    5000001    1    1    2    0    0  0.92314503926E+02 -0.30245049744E+03  0.47552327988E+02  0.37664372414E+03  0.19900000000E+03 0.  0.
   -5000001    1    1    2    0    0 -0.92314503926E+02  0.30245049744E+03  0.36758030428E+03  0.52413218861E+03  0.19900000000E+03 0.  0.
<mgrwt>
<rscale>  0 0.79941362E+03</rscale>
<asrwt>0</asrwt>
<pdfrwt beam="1">  1        2 0.34688806E-01 0.79941362E+03</pdfrwt>
<pdfrwt beam="2">  1       -2 0.93993467E-01 0.79941362E+03</pdfrwt>
<totfact> 0.14540414E+02</totfact>
</mgrwt>
</event>
<event>
 4    1  0.4917371E-005  0.7729492E+03  0.7818608E-02  0.9600019E-01
         -2   -1    0    0    0  501 -0.00000000000E+00  0.00000000000E+00  0.12931297543E+03  0.12931297545E+03  0.25500000000E-02 0. -1.
          2   -1    0    0  501    0  0.00000000000E+00 -0.00000000000E+00 -0.11550473518E+04  0.11550473518E+04  0.25500000000E-02 0.  1.
    5000001    1    1    2    0    0  0.28301283882E+03 -0.13721018203E+02 -0.79815166728E+03  0.87001817065E+03  0.19900000000E+03 0.  0.
   -5000001    1    1    2    0    0 -0.28301283882E+03  0.13721018203E+02 -0.22758270913E+03  0.41434215665E+03  0.19900000000E+03 0.  0.
<mgrwt>
<rscale>  0 0.77294918E+03</rscale>
<asrwt>0</asrwt>
<pdfrwt beam="1">  1        2 0.16500676E+00 0.77294918E+03</pdfrwt>
<pdfrwt beam="2">  1       -2 0.18473283E-01 0.77294918E+03</pdfrwt>
<totfact> 0.55833881E+02</totfact>
</mgrwt>
</event>
<event>
 4    1  0.4917371E-005  0.9682250E+03  0.7818608E-02  0.9344098E-01
          2   -1    0    0  501    0  0.00000000000E+00  0.00000000000E+00  0.26683042906E+04  0.26683042906E+04  0.25500000000E-02 0.  1.
         -2   -1    0    0    0  501 -0.00000000000E+00 -0.00000000000E+00 -0.87832901442E+02  0.87832901479E+02  0.25500000000E-02 0. -1.
    5000001    1    1    2    0    0  0.21708599779E+03 -0.38118710620E+03  0.14277576192E+04  0.15068253912E+04  0.19900000000E+03 0.  0.
   -5000001    1    1    2    0    0 -0.21708599779E+03  0.38118710620E+03  0.11527137700E+04  0.12493118009E+04  0.19900000000E+03 0.  0.
<mgrwt>
<rscale>  0 0.96822499E+03</rscale>
<asrwt>0</asrwt>
<pdfrwt beam="1">  1        2 0.38118634E+00 0.96822499E+03</pdfrwt>
<pdfrwt beam="2">  1       -2 0.12547557E-01 0.96822499E+03</pdfrwt>
<totfact> 0.17233432E+02</totfact>
</mgrwt>
</event>
<event>
 4    1  0.4917371E-005  0.6361781E+03  0.7818608E-02  0.9833066E-01
         -2   -1    0    0    0  501 -0.00000000000E+00  0.00000000000E+00  0.59460255962E+02  0.59460256017E+02  0.25500000000E-02 0. -1.
          2   -1    0    0  501    0  0.00000000000E+00 -0.00000000000E+00 -0.17016516684E+04  0.17016516684E+04  0.25500000000E-02 0.  1.
    5000001    1    1    2    0    0 -0.22269081310E+03 -0.10509866422E+03 -0.73609965243E+03  0.80129933594E+03  0.19900000000E+03 0.  0.
   -5000001    1    1    2    0    0  0.22269081310E+03  0.10509866422E+03 -0.90609175996E+03  0.95981258844E+03  0.19900000000E+03 0.  0.
<mgrwt>
<rscale>  0 0.63617810E+03</rscale>
<asrwt>0</asrwt>
<pdfrwt beam="1">  1        2 0.24309307E+00 0.63617810E+03</pdfrwt>
<pdfrwt beam="2">  1       -2 0.84943233E-02 0.63617810E+03</pdfrwt>
<totfact> 0.10419659E+03</totfact>
</mgrwt>
</event>
<event>
 4    1  0.4917371E-005  0.4981405E+03  0.7818608E-02  0.1014265E+00
          2   -1    0    0  501    0  0.00000000000E+00  0.00000000000E+00  0.34481438235E+03  0.34481438236E+03  0.25500000000E-02 0.  1.
         -2   -1    0    0    0  501 -0.00000000000E+00 -0.00000000000E+00 -0.17991124374E+03  0.17991124376E+03  0.25500000000E-02 0. -1.
    5000001    1    1    2    0    0  0.12284914159E+02  0.11825950363E+03 -0.13507695856E+02  0.23220613076E+03  0.19900000000E+03 0.  0.
   -5000001    1    1    2    0    0 -0.12284914159E+02 -0.11825950363E+03  0.17841083446E+03  0.29251949536E+03  0.19900000000E+03 0.  0.
<mgrwt>
<rscale>  0 0.49814048E+03</rscale>
<asrwt>0</asrwt>
<pdfrwt beam="1">  1        2 0.49259197E-01 0.49814048E+03</pdfrwt>
<pdfrwt beam="2">  1       -2 0.25701606E-01 0.49814048E+03</pdfrwt>
<totfact> 0.13884861E+03</totfact>
</mgrwt>
</event>
<event>
 4    1  0.4917371E-005  0.4701797E+03  0.7818608E-02  0.1021870E+00
          2   -1    0    0  501    0  0.00000000000E+00  0.00000000000E+00  0.42940349344E+03  0.42940349345E+03  0.25500000000E-02 0.  1.
         -2   -1    0    0    0  501 -0.00000000000E+00 -0.00000000000E+00 -0.12870700192E+03  0.12870700194E+03  0.25500000000E-02 0. -1.
    5000001    1    1    2    0    0  0.10586246594E+03 -0.46277895339E+02  0.93201983220E+02  0.24826621794E+03  0.19900000000E+03 0.  0.
   -5000001    1    1    2    0    0 -0.10586246594E+03  0.46277895339E+02  0.20749450831E+03  0.30984427745E+03  0.19900000000E+03 0.  0.
<mgrwt>
<rscale>  0 0.47017969E+03</rscale>
<asrwt>0</asrwt>
<pdfrwt beam="1">  1        2 0.61343356E-01 0.47017969E+03</pdfrwt>
<pdfrwt beam="2">  1       -2 0.18386715E-01 0.47017969E+03</pdfrwt>
<totfact> 0.19605669E+03</totfact>
</mgrwt>
</event>
<event>
 4    1  0.4917371E-005  0.6388996E+03  0.7818608E-02  0.9827834E-01
          2   -1    0    0  501    0  0.00000000000E+00  0.00000000000E+00  0.21570306411E+03  0.21570306412E+03  0.25500000000E-02 0.  1.
         -2   -1    0    0    0  501 -0.00000000000E+00 -0.00000000000E+00 -0.47309565984E+03  0.47309565985E+03  0.25500000000E-02 0. -1.
    5000001    1    1    2    0    0 -0.12471472561E+03  0.20989001362E+03 -0.18614609515E+03  0.36586739312E+03  0.19900000000E+03 0.  0.
   -5000001    1    1    2    0    0  0.12471472561E+03 -0.20989001362E+03 -0.71246500581E+02  0.32293133086E+03  0.19900000000E+03 0.  0.
<mgrwt>
<rscale>  0 0.63889963E+03</rscale>
<asrwt>0</asrwt>
<pdfrwt beam="1">  1        2 0.30814724E-01 0.63889963E+03</pdfrwt>
<pdfrwt beam="2">  1       -2 0.67585094E-01 0.63889963E+03</pdfrwt>
<totfact> 0.34974223E+02</totfact>
</mgrwt>
</event>
<event>
 4    1  0.4917371E-005  0.7078037E+03  0.7818608E-02  0.9703979E-01
         -2   -1    0    0    0  501 -0.00000000000E+00  0.00000000000E+00  0.67501994371E+02  0.67501994419E+02  0.25500000000E-02 0. -1.
          2   -1    0    0  501    0  0.00000000000E+00 -0.00000000000E+00 -0.18554490935E+04  0.18554490935E+04  0.25500000000E-02 0.  1.
    5000001    1    1    2    0    0  0.14074243685E+02 -0.29045763022E+03 -0.80461668785E+03  0.87839212978E+03  0.19900000000E+03 0.  0.
   -5000001    1    1    2    0    0 -0.14074243685E+02  0.29045763022E+03 -0.98333041129E+03  0.10445589581E+04  0.19900000000E+03 0.  0.
<mgrwt>
<rscale>  0 0.70780369E+03</rscale>
<asrwt>0</asrwt>
<pdfrwt beam="1">  1        2 0.26506413E+00 0.70780369E+03</pdfrwt>
<pdfrwt beam="2">  1       -2 0.96431432E-02 0.70780369E+03</pdfrwt>
<totfact> 0.70685206E+02</totfact>
</mgrwt>
</event>
<event>
 4    1  0.4917371E-005  0.5335407E+03  0.7818608E-02  0.1005377E+00
         -2   -1    0    0    0  501 -0.00000000000E+00  0.00000000000E+00  0.38000306935E+02  0.38000307020E+02  0.25500000000E-02 0. -1.
          2   -1    0    0  501    0  0.00000000000E+00 -0.00000000000E+00 -0.18727854205E+04  0.18727854205E+04  0.25500000000E-02 0.  1.
    5000001    1    1    2    0    0  0.15751601190E+03  0.80121564390E+02 -0.85187653743E+03  0.89248271362E+03  0.19900000000E+03 0.  0.
   -5000001    1    1    2    0    0 -0.15751601190E+03 -0.80121564390E+02 -0.98290857613E+03  0.10183030139E+04  0.19900000000E+03 0.  0.
<mgrwt>
<rscale>  0 0.53354070E+03</rscale>
<asrwt>0</asrwt>
<pdfrwt beam="1">  1        2 0.26754072E+00 0.53354070E+03</pdfrwt>
<pdfrwt beam="2">  1       -2 0.54286165E-02 0.53354070E+03</pdfrwt>
<totfact> 0.17378025E+03</totfact>
</mgrwt>
</event>
<event>
 4    1  0.4917371E-005  0.9944549E+03  0.7818608E-02  0.9314648E-01
         -2   -1    0    0    0  501 -0.00000000000E+00  0.00000000000E+00  0.60289990723E+03  0.60289990724E+03  0.25500000000E-02 0. -1.
          2   -1    0    0  501    0  0.00000000000E+00 -0.00000000000E+00 -0.41007658812E+03  0.41007658812E+03  0.25500000000E-02 0.  1.
    5000001    1    1    2    0    0  0.19748123881E+03  0.35700772314E+03  0.30312170179E+03  0.54583616604E+03  0.19900000000E+03 0.  0.
   -5000001    1    1    2    0    0 -0.19748123881E+03 -0.35700772314E+03 -0.11029838267E+03  0.46714032932E+03  0.19900000000E+03 0.  0.
<mgrwt>
<rscale>  0 0.99445490E+03</rscale>
<asrwt>0</asrwt>
<pdfrwt beam="1">  1        2 0.58582370E-01 0.99445490E+03</pdfrwt>
<pdfrwt beam="2">  1       -2 0.86128558E-01 0.99445490E+03</pdfrwt>
<totfact> 0.98282145E+01</totfact>
</mgrwt>
</event>
<event>
 4    1  0.4917371E-005  0.5674902E+03  0.7818608E-02  0.9975248E-01
          2   -1    0    0  501    0  0.00000000000E+00  0.00000000000E+00  0.60107927894E+03  0.60107927895E+03  0.25500000000E-02 0.  1.
         -2   -1    0    0    0  501 -0.00000000000E+00 -0.00000000000E+00 -0.13394450939E+03  0.13394450941E+03  0.25500000000E-02 0. -1.
    5000001    1    1    2    0    0 -0.18889455638E+03  0.67087058499E+02  0.19860986299E+03  0.34529509774E+03  0.19900000000E+03 0.  0.
   -5000001    1    1    2    0    0  0.18889455638E+03 -0.67087058499E+02  0.26852490656E+03  0.38972869062E+03  0.19900000000E+03 0.  0.
<mgrwt>
<rscale>  0 0.56749016E+03</rscale>
<asrwt>0</asrwt>
<pdfrwt beam="1">  1        2 0.85868472E-01 0.56749016E+03</pdfrwt>
<pdfrwt beam="2">  1       -2 0.19134929E-01 0.56749016E+03</pdfrwt>
<totfact> 0.12490264E+03</totfact>
</mgrwt>
</event>
<event>
 4    1  0.4917371E-005  0.7676012E+03  0.7818608E-02  0.9608134E-01
         -2   -1    0    0    0  501 -0.00000000000E+00  0.00000000000E+00  0.94898675705E+02  0.94898675739E+02  0.25500000000E-02 0. -1.
          2   -1    0    0  501    0  0.00000000000E+00 -0.00000000000E+00 -0.15522125337E+04  0.15522125337E+04  0.25500000000E-02 0.  1.
    5000001    1    1    2    0    0 -0.21083095836E+03 -0.17672775932E+03 -0.11126246061E+04  0.11632785170E+04  0.19900000000E+03 0.  0.
   -5000001    1    1    2    0    0  0.21083095836E+03  0.17672775932E+03 -0.34468925180E+03  0.48383269239E+03  0.19900000000E+03 0.  0.
<mgrwt>
<rscale>  0 0.76760123E+03</rscale>
<asrwt>0</asrwt>
<pdfrwt beam="1">  1        2 0.22174463E+00 0.76760123E+03</pdfrwt>
<pdfrwt beam="2">  1       -2 0.13556955E-01 0.76760123E+03</pdfrwt>
<totfact> 0.57523391E+02</totfact>
</mgrwt>
</event>
<event>
 4    1  0.4917371E-005  0.7632744E+03  0.7818608E-02  0.9614752E-01
         -2   -1    0    0    0  501 -0.00000000000E+00  0.00000000000E+00  0.30593824278E+03  0.30593824279E+03  0.25500000000E-02 0. -1.
          2   -1    0    0  501    0  0.00000000000E+00 -0.00000000000E+00 -0.47606650219E+03  0.47606650220E+03  0.25500000000E-02 0.  1.
    5000001    1    1    2    0    0 -0.21545644563E+03  0.24416596324E+03 -0.87860872111E+02  0.39161081499E+03  0.19900000000E+03 0.  0.
   -5000001    1    1    2    0    0  0.21545644563E+03 -0.24416596324E+03 -0.82267387299E+02  0.39039393000E+03  0.19900000000E+03 0.  0.
<mgrwt>
<rscale>  0 0.76327439E+03</rscale>
<asrwt>0</asrwt>
<pdfrwt beam="1">  1        2 0.68009500E-01 0.76327439E+03</pdfrwt>
<pdfrwt beam="2">  1       -2 0.43705463E-01 0.76327439E+03</pdfrwt>
<totfact> 0.35482029E+02</totfact>
</mgrwt>
</event>
<event>
 4    1  0.4917371E-005  0.8806707E+03  0.7818608E-02  0.9450072E-01
         -2   -1    0    0    0  501 -0.00000000000E+00  0.00000000000E+00  0.82059979688E+02  0.82059979727E+02  0.25500000000E-02 0. -1.
          2   -1    0    0  501    0  0.00000000000E+00 -0.00000000000E+00 -0.23628476858E+04  0.23628476858E+04  0.25500000000E-02 0.  1.
    5000001    1    1    2    0    0 -0.51484334127E+02 -0.20636705969E+03 -0.22359481935E+03  0.36719700874E+03  0.19900000000E+03 0.  0.
   -5000001    1    1    2    0    0  0.51484334127E+02  0.20636705969E+03 -0.20571928867E+04  0.20777106568E+04  0.19900000000E+03 0.  0.
<mgrwt>
<rscale>  0 0.88067073E+03</rscale>
<asrwt>0</asrwt>
<pdfrwt beam="1">  1        2 0.33754963E+00 0.88067073E+03</pdfrwt>
<pdfrwt beam="2">  1       -2 0.11722856E-01 0.88067073E+03</pdfrwt>
<totfact> 0.28023837E+02</totfact>
</mgrwt>
</event>
<event>
 4    1  0.4917371E-005  0.5463771E+03  0.7818608E-02  0.1002336E+00
         -2   -1    0    0    0  501 -0.00000000000E+00  0.00000000000E+00  0.86240925607E+02  0.86240925645E+02  0.25500000000E-02 0. -1.
          2   -1    0    0  501    0  0.00000000000E+00 -0.00000000000E+00 -0.86538955068E+03  0.86538955069E+03  0.25500000000E-02 0.  1.
    5000001    1    1    2    0    0  0.17696279409E+03 -0.29930228268E+02 -0.48205479152E+03  0.55153374429E+03  0.19900000000E+03 0.  0.
   -5000001    1    1    2    0    0 -0.17696279409E+03  0.29930228268E+02 -0.29709383356E+03  0.40009673205E+03  0.19900000000E+03 0.  0.
<mgrwt>
<rscale>  0 0.54637714E+03</rscale>
<asrwt>0</asrwt>
<pdfrwt beam="1">  1        2 0.12362707E+00 0.54637714E+03</pdfrwt>
<pdfrwt beam="2">  1       -2 0.12320133E-01 0.54637714E+03</pdfrwt>
<totfact> 0.16729416E+03</totfact>
</mgrwt>
</event>
<event>
 4    1  0.4917371E-005  0.5912167E+03  0.7818608E-02  0.9923798E-01
         -2   -1    0    0    0  501 -0.00000000000E+00  0.00000000000E+00  0.91869490009E+02  0.91869490044E+02  0.25500000000E-02 0. -1.
          2   -1    0    0  501    0  0.00000000000E+00 -0.00000000000E+00 -0.95117849945E+03  0.95117849945E+03  0.25500000000E-02 0.  1.
    5000001    1    1    2    0    0  0.15265839584E+03 -0.15564552602E+03 -0.45772577751E+03  0.54465034929E+03  0.19900000000E+03 0.  0.
   -5000001    1    1    2    0    0 -0.15265839584E+03  0.15564552602E+03 -0.40158323193E+03  0.49839764020E+03  0.19900000000E+03 0.  0.
<mgrwt>
<rscale>  0 0.59121666E+03</rscale>
<asrwt>0</asrwt>
<pdfrwt beam="1">  1        2 0.13588264E+00 0.59121666E+03</pdfrwt>
<pdfrwt beam="2">  1       -2 0.13124213E-01 0.59121666E+03</pdfrwt>
<totfact> 0.13268408E+03</totfact>
</mgrwt>
</event>
<event>
 4    1  0.4917371E-005  0.4852315E+03  0.7818608E-02  0.1017707E+00
          2   -1    0    0  501    0  0.00000000000E+00  0.00000000000E+00  0.22421608083E+04  0.22421608084E+04  0.25500000000E-02 0.  1.
         -2   -1    0    0    0  501 -0.00000000000E+00 -0.00000000000E+00 -0.26252532256E+02  0.26252532380E+02  0.25500000000E-02 0. -1.
    5000001    1    1    2    0    0  0.13581379490E+03 -0.20972395519E+02  0.11986245886E+04  0.12227784479E+04  0.19900000000E+03 0.  0.
   -5000001    1    1    2    0    0 -0.13581379490E+03  0.20972395519E+02  0.10172836875E+04  0.10456348928E+04  0.19900000000E+03 0.  0.
<mgrwt>
<rscale>  0 0.48523149E+03</rscale>
<asrwt>0</asrwt>
<pdfrwt beam="1">  1        2 0.32030868E+00 0.48523149E+03</pdfrwt>
<pdfrwt beam="2">  1       -2 0.37503618E-02 0.48523149E+03</pdfrwt>
<totfact> 0.20110375E+03</totfact>
</mgrwt>
</event>
<event>
 4    1  0.4917371E-005  0.7005294E+03  0.7818608E-02  0.9716327E-01
          2   -1    0    0  501    0  0.00000000000E+00  0.00000000000E+00  0.49979021499E+04  0.49979021499E+04  0.25500000000E-02 0.  1.
         -2   -1    0    0    0  501 -0.00000000000E+00 -0.00000000000E+00 -0.24547369260E+02  0.24547369392E+02  0.25500000000E-02 0. -1.
    5000001    1    1    2    0    0 -0.16540338604E+03  0.22991079579E+03  0.21027842661E+04  0.21310842132E+04  0.19900000000E+03 0.  0.
   -5000001    1    1    2    0    0  0.16540338604E+03 -0.22991079579E+03  0.28705705146E+04  0.28913653061E+04  0.19900000000E+03 0.  0.
<mgrwt>
<rscale>  0 0.70052937E+03</rscale>
<asrwt>0</asrwt>
<pdfrwt beam="1">  1        2 0.71398687E+00 0.70052937E+03</pdfrwt>
<pdfrwt beam="2">  1       -2 0.35067629E-02 0.70052937E+03</pdfrwt>
<totfact> 0.36519646E+01</totfact>
</mgrwt>
</event>
<event>
 4    1  0.4917371E-005  0.5719866E+03  0.7818608E-02  0.9965292E-01
         -2   -1    0    0    0  501 -0.00000000000E+00  0.00000000000E+00  0.17848719330E+03  0.17848719331E+03  0.25500000000E-02 0. -1.
          2   -1    0    0  501    0  0.00000000000E+00 -0.00000000000E+00 -0.45825235907E+03  0.45825235908E+03  0.25500000000E-02 0.  1.
    5000001    1    1    2    0    0  0.10080389210E+03 -0.17884097107E+03 -0.13236041608E+03  0.31506475103E+03  0.19900000000E+03 0.  0.
   -5000001    1    1    2    0    0 -0.10080389210E+03  0.17884097107E+03 -0.14740474970E+03  0.32167480136E+03  0.19900000000E+03 0.  0.
<mgrwt>
<rscale>  0 0.57198663E+03</rscale>
<asrwt>0</asrwt>
<pdfrwt beam="1">  1        2 0.65464622E-01 0.57198663E+03</pdfrwt>
<pdfrwt beam="2">  1       -2 0.25498171E-01 0.57198663E+03</pdfrwt>
<totfact> 0.10274722E+03</totfact>
</mgrwt>
</event>
<event>
 4    1  0.4917371E-005  0.4737847E+03  0.7818608E-02  0.1020857E+00
         -2   -1    0    0    0  501 -0.00000000000E+00  0.00000000000E+00  0.26513037119E+03  0.26513037120E+03  0.25500000000E-02 0. -1.
          2   -1    0    0  501    0  0.00000000000E+00 -0.00000000000E+00 -0.21166185818E+03  0.21166185819E+03  0.25500000000E-02 0.  1.
    5000001    1    1    2    0    0  0.22339661646E+02  0.48588474667E+02  0.14433962956E+03  0.25158463588E+03  0.19900000000E+03 0.  0.
   -5000001    1    1    2    0    0 -0.22339661646E+02 -0.48588474667E+02 -0.90871116541E+02  0.22520759351E+03  0.19900000000E+03 0.  0.
<mgrwt>
<rscale>  0 0.47378471E+03</rscale>
<asrwt>0</asrwt>
<pdfrwt beam="1">  1        2 0.30237408E-01 0.47378471E+03</pdfrwt>
<pdfrwt beam="2">  1       -2 0.37875767E-01 0.47378471E+03</pdfrwt>
<totfact> 0.11594611E+03</totfact>
</mgrwt>
</event>
<event>
 4    1  0.4917371E-005  0.1259751E+04  0.7818608E-02  0.9062106E-01
          2   -1    0    0  501    0  0.00000000000E+00  0.00000000000E+00  0.29748417868E+03  0.29748417870E+03  0.25500000000E-02 0.  1.
         -2   -1    0    0    0  501 -0.00000000000E+00 -0.00000000000E+00 -0.13336620890E+04  0.13336620890E+04  0.25500000000E-02 0. -1.
    5000001    1    1    2    0    0  0.24986292069E+03  0.45600812889E+03 -0.89949411119E+03  0.10578589456E+04  0.19900000000E+03 0.  0.
   -5000001    1    1    2    0    0 -0.24986292069E+03 -0.45600812889E+03 -0.13668379916E+03  0.57328732212E+03  0.19900000000E+03 0.  0.
<mgrwt>
<rscale>  0 0.12597514E+04</rscale>
<asrwt>0</asrwt>
<pdfrwt beam="1">  1        2 0.42497740E-01 0.12597514E+04</pdfrwt>
<pdfrwt beam="2">  1       -2 0.19052315E+00 0.12597514E+04</pdfrwt>
<totfact> 0.18199858E+01</totfact>
</mgrwt>
</event>
<event>
 4    1  0.4917371E-005  0.7458026E+03  0.7818608E-02  0.9641958E-01
         -2   -1    0    0    0  501 -0.00000000000E+00  0.00000000000E+00  0.23376432050E+03  0.23376432051E+03  0.25500000000E-02 0. -1.
          2   -1    0    0  501    0  0.00000000000E+00 -0.00000000000E+00 -0.59485293399E+03  0.59485293399E+03  0.25500000000E-02 0.  1.
    5000001    1    1    2    0    0  0.16525034159E+02  0.13043494563E+03 -0.49902383716E+03  0.55309324879E+03  0.19900000000E+03 0.  0.
   -5000001    1    1    2    0    0 -0.16525034159E+02 -0.13043494563E+03  0.13793522368E+03  0.27552400572E+03  0.19900000000E+03 0.  0.
<mgrwt>
<rscale>  0 0.74580263E+03</rscale>
<asrwt>0</asrwt>
<pdfrwt beam="1">  1        2 0.84978990E-01 0.74580263E+03</pdfrwt>
<pdfrwt beam="2">  1       -2 0.33394903E-01 0.74580263E+03</pdfrwt>
<totfact> 0.46139369E+02</totfact>
</mgrwt>
</event>
<event>
 4    1  0.4917371E-005  0.6121075E+03  0.7818608E-02  0.9880601E-01
          2   -1    0    0  501    0  0.00000000000E+00  0.00000000000E+00  0.38043404370E+03  0.38043404371E+03  0.25500000000E-02 0.  1.
         -2   -1    0    0    0  501 -0.00000000000E+00 -0.00000000000E+00 -0.24621583026E+03  0.24621583028E+03  0.25500000000E-02 0. -1.
    5000001    1    1    2    0    0  0.64903975300E+02  0.21431349439E+03  0.13124804529E+03  0.32706245471E+03  0.19900000000E+03 0.  0.
   -5000001    1    1    2    0    0 -0.64903975300E+02 -0.21431349439E+03  0.29701681415E+01  0.29958741927E+03  0.19900000000E+03 0.  0.
<mgrwt>
<rscale>  0 0.61210745E+03</rscale>
<asrwt>0</asrwt>
<pdfrwt beam="1">  1        2 0.54347721E-01 0.61210745E+03</pdfrwt>
<pdfrwt beam="2">  1       -2 0.35173690E-01 0.61210745E+03</pdfrwt>
<totfact> 0.69772339E+02</totfact>
</mgrwt>
</event>
<event>
 4    1  0.4917371E-005  0.6708973E+03  0.7818608E-02  0.9768338E-01
         -2   -1    0    0    0  501 -0.00000000000E+00  0.00000000000E+00  0.34193890681E+03  0.34193890682E+03  0.25500000000E-02 0. -1.
          2   -1    0    0  501    0  0.00000000000E+00 -0.00000000000E+00 -0.32908155577E+03  0.32908155578E+03  0.25500000000E-02 0.  1.
    5000001    1    1    2    0    0  0.25251626311E+03  0.63357968480E+00 -0.89296384373E+02  0.33367605371E+03  0.19900000000E+03 0.  0.
   -5000001    1    1    2    0    0 -0.25251626311E+03 -0.63357968480E+00  0.10215373541E+03  0.33734440890E+03  0.19900000000E+03 0.  0.
<mgrwt>
<rscale>  0 0.67089727E+03</rscale>
<asrwt>0</asrwt>
<pdfrwt beam="1">  1        2 0.47011651E-01 0.67089727E+03</pdfrwt>
<pdfrwt beam="2">  1       -2 0.48848415E-01 0.67089727E+03</pdfrwt>
<totfact> 0.43033666E+02</totfact>
</mgrwt>
</event>
<event>
 4    1  0.4917371E-005  0.7413930E+03  0.7818608E-02  0.9648951E-01
          2   -1    0    0  501    0  0.00000000000E+00  0.00000000000E+00  0.18844970370E+04  0.18844970370E+04  0.25500000000E-02 0.  1.
         -2   -1    0    0    0  501 -0.00000000000E+00 -0.00000000000E+00 -0.72919133092E+02  0.72919133137E+02  0.25500000000E-02 0. -1.
    5000001    1    1    2    0    0 -0.15231047884E+03 -0.20000759527E+03  0.41459089352E+03  0.52410698252E+03  0.19900000000E+03 0.  0.
   -5000001    1    1    2    0    0  0.15231047884E+03  0.20000759527E+03  0.13969870104E+04  0.14333091876E+04  0.19900000000E+03 0.  0.
<mgrwt>
<rscale>  0 0.74139299E+03</rscale>
<asrwt>0</asrwt>
<pdfrwt beam="1">  1        2 0.26921387E+00 0.74139299E+03</pdfrwt>
<pdfrwt beam="2">  1       -2 0.10417019E-01 0.74139299E+03</pdfrwt>
<totfact> 0.60146804E+02</totfact>
</mgrwt>
</event>
<event>
 4    1  0.4917371E-005  0.4685886E+03  0.7818608E-02  0.1022319E+00
          2   -1    0    0  501    0  0.00000000000E+00  0.00000000000E+00  0.10435928626E+04  0.10435928626E+04  0.25500000000E-02 0.  1.
         -2   -1    0    0    0  501 -0.00000000000E+00 -0.00000000000E+00 -0.52600801828E+02  0.52600801890E+02  0.25500000000E-02 0. -1.
    5000001    1    1    2    0    0 -0.35531645749E+01  0.11606627727E+03  0.39600298647E+03  0.45815212647E+03  0.19900000000E+03 0.  0.
   -5000001    1    1    2    0    0  0.35531645749E+01 -0.11606627727E+03  0.59498907429E+03  0.63804153800E+03  0.19900000000E+03 0.  0.
<mgrwt>
<rscale>  0 0.46858861E+03</rscale>
<asrwt>0</asrwt>
<pdfrwt beam="1">  1        2 0.14908471E+00 0.46858861E+03</pdfrwt>
<pdfrwt beam="2">  1       -2 0.75143997E-02 0.46858861E+03</pdfrwt>
<totfact> 0.28742720E+03</totfact>
</mgrwt>
</event>
<event>
 4    1  0.4917371E-005  0.5549230E+03  0.7818608E-02  0.1000361E+00
         -2   -1    0    0    0  501 -0.00000000000E+00  0.00000000000E+00  0.31558271500E+02  0.31558271603E+02  0.25500000000E-02 0. -1.
          2   -1    0    0  501    0  0.00000000000E+00 -0.00000000000E+00 -0.24394520014E+04  0.24394520014E+04  0.25500000000E-02 0.  1.
    5000001    1    1    2    0    0 -0.71098615100E+02 -0.14639799526E+03 -0.16687674745E+04  0.16884529221E+04  0.19900000000E+03 0.  0.
   -5000001    1    1    2    0    0  0.71098615100E+02  0.14639799526E+03 -0.73912625541E+03  0.78255735095E+03  0.19900000000E+03 0.  0.
<mgrwt>
<rscale>  0 0.55492302E+03</rscale>
<asrwt>0</asrwt>
<pdfrwt beam="1">  1        2 0.34849302E+00 0.55492302E+03</pdfrwt>
<pdfrwt beam="2">  1       -2 0.45083261E-02 0.55492302E+03</pdfrwt>
<totfact> 0.12007598E+03</totfact>
</mgrwt>
</event>
<event>
 4    1  0.4917371E-005  0.6594188E+03  0.7818608E-02  0.9789264E-01
         -2   -1    0    0    0  501 -0.00000000000E+00  0.00000000000E+00  0.31257171702E+02  0.31257171806E+02  0.25500000000E-02 0. -1.
          2   -1    0    0  501    0  0.00000000000E+00 -0.00000000000E+00 -0.34778666309E+04  0.34778666309E+04  0.25500000000E-02 0.  1.
    5000001    1    1    2    0    0 -0.54057658048E+00  0.84017767638E+02 -0.39773897108E+03  0.45261083352E+03  0.19900000000E+03 0.  0.
   -5000001    1    1    2    0    0  0.54057658048E+00 -0.84017767638E+02 -0.30488704881E+04  0.30565129692E+04  0.19900000000E+03 0.  0.
<mgrwt>
<rscale>  0 0.65941876E+03</rscale>
<asrwt>0</asrwt>
<pdfrwt beam="1">  1        2 0.49683784E+00 0.65941876E+03</pdfrwt>
<pdfrwt beam="2">  1       -2 0.44653125E-02 0.65941876E+03</pdfrwt>
<totfact> 0.32842433E+02</totfact>
</mgrwt>
</event>
<event>
 4    1  0.4917371E-005  0.7924365E+03  0.7818608E-02  0.9571030E-01
          2   -1    0    0  501    0  0.00000000000E+00  0.00000000000E+00  0.22507899124E+04  0.22507899124E+04  0.25500000000E-02 0.  1.
         -2   -1    0    0    0  501 -0.00000000000E+00 -0.00000000000E+00 -0.69748366483E+02  0.69748366530E+02  0.25500000000E-02 0. -1.
    5000001    1    1    2    0    0 -0.31093360267E+03  0.90321893852E+02  0.76246397292E+03  0.85193313104E+03  0.19900000000E+03 0.  0.
   -5000001    1    1    2    0    0  0.31093360267E+03 -0.90321893852E+02  0.14185775730E+04  0.14686051479E+04  0.19900000000E+03 0.  0.
<mgrwt>
<rscale>  0 0.79243655E+03</rscale>
<asrwt>0</asrwt>
<pdfrwt beam="1">  1        2 0.32154137E+00 0.79243655E+03</pdfrwt>
<pdfrwt beam="2">  1       -2 0.99640536E-02 0.79243655E+03</pdfrwt>
<totfact> 0.42032239E+02</totfact>
</mgrwt>
</event>
<event>
 4    1  0.4917371E-005  0.6020519E+03  0.7818608E-02  0.9901158E-01
         -2   -1    0    0    0  501 -0.00000000000E+00  0.00000000000E+00  0.30696990030E+03  0.30696990031E+03  0.25500000000E-02 0. -1.
          2   -1    0    0  501    0  0.00000000000E+00 -0.00000000000E+00 -0.29519713108E+03  0.29519713109E+03  0.25500000000E-02 0.  1.
    5000001    1    1    2    0    0  0.15767565342E+03 -0.16065912586E+03  0.24401203711E+02  0.30144549283E+03  0.19900000000E+03 0.  0.
   -5000001    1    1    2    0    0 -0.15767565342E+03  0.16065912586E+03 -0.12628434483E+02  0.30072153857E+03  0.19900000000E+03 0.  0.
<mgrwt>
<rscale>  0 0.60205194E+03</rscale>
<asrwt>0</asrwt>
<pdfrwt beam="1">  1        2 0.42171019E-01 0.60205194E+03</pdfrwt>
<pdfrwt beam="2">  1       -2 0.43852843E-01 0.60205194E+03</pdfrwt>
<totfact> 0.60277532E+02</totfact>
</mgrwt>
</event>
<event>
 4    1  0.4917371E-005  0.8637298E+03  0.7818608E-02  0.9472092E-01
          2   -1    0    0  501    0  0.00000000000E+00  0.00000000000E+00  0.30178404976E+04  0.30178404976E+04  0.25500000000E-02 0.  1.
         -2   -1    0    0    0  501 -0.00000000000E+00 -0.00000000000E+00 -0.61801574841E+02  0.61801574893E+02  0.25500000000E-02 0. -1.
    5000001    1    1    2    0    0 -0.24820738646E+03 -0.28667624218E+03  0.16770544772E+04  0.17308676709E+04  0.19900000000E+03 0.  0.
   -5000001    1    1    2    0    0  0.24820738646E+03  0.28667624218E+03  0.12789844455E+04  0.13487744016E+04  0.19900000000E+03 0.  0.
<mgrwt>
<rscale>  0 0.86372981E+03</rscale>
<asrwt>0</asrwt>
<pdfrwt beam="1">  1        2 0.43112005E+00 0.86372981E+03</pdfrwt>
<pdfrwt beam="2">  1       -2 0.88287968E-02 0.86372981E+03</pdfrwt>
<totfact> 0.20058567E+02</totfact>
</mgrwt>
</event>
<event>
 4    1  0.4917371E-005  0.6412858E+03  0.7818608E-02  0.9823269E-01
         -2   -1    0    0    0  501 -0.00000000000E+00  0.00000000000E+00  0.77436259982E+02  0.77436260024E+02  0.25500000000E-02 0. -1.
          2   -1    0    0  501    0  0.00000000000E+00 -0.00000000000E+00 -0.13276969341E+04  0.13276969341E+04  0.25500000000E-02 0.  1.
    5000001    1    1    2    0    0  0.21526618330E+03 -0.11251165133E+03 -0.48291876070E+03  0.57602945307E+03  0.19900000000E+03 0.  0.
   -5000001    1    1    2    0    0 -0.21526618330E+03  0.11251165133E+03 -0.76734191338E+03  0.82910374103E+03  0.19900000000E+03 0.  0.
<mgrwt>
<rscale>  0 0.64128585E+03</rscale>
<asrwt>0</asrwt>
<pdfrwt beam="1">  1        2 0.18967098E+00 0.64128585E+03</pdfrwt>
<pdfrwt beam="2">  1       -2 0.11062324E-01 0.64128585E+03</pdfrwt>
<totfact> 0.10652292E+03</totfact>
</mgrwt>
</event>
<event>
 4    1  0.4917371E-005  0.6866976E+03  0.7818608E-02  0.9740255E-01
         -2   -1    0    0    0  501 -0.00000000000E+00  0.00000000000E+00  0.24608650296E+03  0.24608650297E+03  0.25500000000E-02 0. -1.
          2   -1    0    0  501    0  0.00000000000E+00 -0.00000000000E+00 -0.47905269782E+03  0.47905269783E+03  0.25500000000E-02 0.  1.
    5000001    1    1    2    0    0 -0.25765370630E+03 -0.97288810310E+02 -0.64355108368E+02  0.34582238932E+03  0.19900000000E+03 0.  0.
   -5000001    1    1    2    0    0  0.25765370630E+03  0.97288810310E+02 -0.16861108650E+03  0.37931681148E+03  0.19900000000E+03 0.  0.
<mgrwt>
<rscale>  0 0.68669761E+03</rscale>
<asrwt>0</asrwt>
<pdfrwt beam="1">  1        2 0.68436099E-01 0.68669761E+03</pdfrwt>
<pdfrwt beam="2">  1       -2 0.35155215E-01 0.68669761E+03</pdfrwt>
<totfact> 0.53864591E+02</totfact>
</mgrwt>
</event>
<event>
 4    1  0.4917371E-005  0.5879850E+03  0.7818608E-02  0.9930652E-01
         -2   -1    0    0    0  501 -0.00000000000E+00  0.00000000000E+00  0.14928286142E+04  0.14928286142E+04  0.25500000000E-02 0. -1.
          2   -1    0    0  501    0  0.00000000000E+00 -0.00000000000E+00 -0.57897870178E+02  0.57897870234E+02  0.25500000000E-02 0.  1.
    5000001    1    1    2    0    0  0.11807090482E+03 -0.17801702271E+03  0.62611231612E+03  0.69083169538E+03  0.19900000000E+03 0.  0.
   -5000001    1    1    2    0    0 -0.11807090482E+03  0.17801702271E+03  0.80881842792E+03  0.85989478908E+03  0.19900000000E+03 0.  0.
<mgrwt>
<rscale>  0 0.58798502E+03</rscale>
<asrwt>0</asrwt>
<pdfrwt beam="1">  1        2 0.82711256E-02 0.58798502E+03</pdfrwt>
<pdfrwt beam="2">  1       -2 0.21326120E+00 0.58798502E+03</pdfrwt>
<totfact> 0.95294781E+01</totfact>
</mgrwt>
</event>
<event>
 4    1  0.4917371E-005  0.5201321E+03  0.7818608E-02  0.1008654E+00
         -2   -1    0    0    0  501 -0.00000000000E+00  0.00000000000E+00  0.39162559785E+03  0.39162559786E+03  0.25500000000E-02 0. -1.
          2   -1    0    0  501    0  0.00000000000E+00 -0.00000000000E+00 -0.17270157181E+03  0.17270157182E+03  0.25500000000E-02 0.  1.
    5000001    1    1    2    0    0  0.50968555270E+02  0.69056867867E+02  0.26543628752E+03  0.34267195298E+03  0.19900000000E+03 0.  0.
   -5000001    1    1    2    0    0 -0.50968555270E+02 -0.69056867867E+02 -0.46512261473E+02  0.22165521671E+03  0.19900000000E+03 0.  0.
<mgrwt>
<rscale>  0 0.52013212E+03</rscale>
<asrwt>0</asrwt>
<pdfrwt beam="1">  1        2 0.24671653E-01 0.52013212E+03</pdfrwt>
<pdfrwt beam="2">  1       -2 0.55946513E-01 0.52013212E+03</pdfrwt>
<totfact> 0.67169648E+02</totfact>
</mgrwt>
</event>
<event>
 4    1  0.4917371E-005  0.5536825E+03  0.7818608E-02  0.1000645E+00
         -2   -1    0    0    0  501 -0.00000000000E+00  0.00000000000E+00  0.10850595045E+03  0.10850595048E+03  0.25500000000E-02 0. -1.
          2   -1    0    0  501    0  0.00000000000E+00 -0.00000000000E+00 -0.70633063521E+03  0.70633063522E+03  0.25500000000E-02 0.  1.
    5000001    1    1    2    0    0 -0.55715797576E+02  0.13514465404E+03 -0.48314578322E+03  0.54258563883E+03  0.19900000000E+03 0.  0.
   -5000001    1    1    2    0    0  0.55715797576E+02 -0.13514465404E+03 -0.11467890154E+03  0.27225094687E+03  0.19900000000E+03 0.  0.
<mgrwt>
<rscale>  0 0.55368250E+03</rscale>
<asrwt>0</asrwt>
<pdfrwt beam="1">  1        2 0.10090437E+00 0.55368250E+03</pdfrwt>
<pdfrwt beam="2">  1       -2 0.15500850E-01 0.55368250E+03</pdfrwt>
<totfact> 0.14751420E+03</totfact>
</mgrwt>
</event>
<event>
 4    1  0.4917371E-005  0.1269056E+04  0.7818608E-02  0.9054470E-01
         -2   -1    0    0    0  501 -0.00000000000E+00  0.00000000000E+00  0.41111412831E+03  0.41111412832E+03  0.25500000000E-02 0. -1.
          2   -1    0    0  501    0  0.00000000000E+00 -0.00000000000E+00 -0.97935334934E+03  0.97935334934E+03  0.25500000000E-02 0.  1.
    5000001    1    1    2    0    0 -0.23644444718E+03  0.55156208604E+03 -0.22513338058E+03  0.67112796873E+03  0.19900000000E+03 0.  0.
   -5000001    1    1    2    0    0  0.23644444718E+03 -0.55156208604E+03 -0.34310584045E+03  0.71933950893E+03  0.19900000000E+03 0.  0.
<mgrwt>
<rscale>  0 0.12690563E+04</rscale>
<asrwt>0</asrwt>
<pdfrwt beam="1">  1        2 0.13990762E+00 0.12690563E+04</pdfrwt>
<pdfrwt beam="2">  1       -2 0.58730590E-01 0.12690563E+04</pdfrwt>
<totfact> 0.77056981E+01</totfact>
</mgrwt>
</event>
<event>
 4    1  0.4917371E-005  0.5499252E+03  0.7818608E-02  0.1001511E+00
          2   -1    0    0  501    0  0.00000000000E+00  0.00000000000E+00  0.89397804471E+03  0.89397804472E+03  0.25500000000E-02 0.  1.
         -2   -1    0    0    0  501 -0.00000000000E+00 -0.00000000000E+00 -0.84570776800E+02  0.84570776838E+02  0.25500000000E-02 0. -1.
    5000001    1    1    2    0    0  0.14504549769E+03  0.50034814167E+02  0.60334433354E+03  0.65358018930E+03  0.19900000000E+03 0.  0.
   -5000001    1    1    2    0    0 -0.14504549769E+03 -0.50034814167E+02  0.20606293438E+03  0.32496863226E+03  0.19900000000E+03 0.  0.
<mgrwt>
<rscale>  0 0.54992515E+03</rscale>
<asrwt>0</asrwt>
<pdfrwt beam="1">  1        2 0.12771115E+00 0.54992515E+03</pdfrwt>
<pdfrwt beam="2">  1       -2 0.12081540E-01 0.54992515E+03</pdfrwt>
<totfact> 0.16549995E+03</totfact>
</mgrwt>
</event>
<event>
 4    1  0.4917371E-005  0.1355815E+04  0.7818608E-02  0.8986438E-01
          2   -1    0    0  501    0  0.00000000000E+00  0.00000000000E+00  0.16949445762E+04  0.16949445762E+04  0.25500000000E-02 0.  1.
         -2   -1    0    0    0  501 -0.00000000000E+00 -0.00000000000E+00 -0.27113496370E+03  0.27113496371E+03  0.25500000000E-02 0. -1.
    5000001    1    1    2    0    0 -0.62859601060E+03 -0.12942411623E+03  0.84220649683E+03  0.10774025848E+04  0.19900000000E+03 0.  0.
   -5000001    1    1    2    0    0  0.62859601060E+03  0.12942411623E+03  0.58160311566E+03  0.88867695511E+03  0.19900000000E+03 0.  0.
<mgrwt>
<rscale>  0 0.13558152E+04</rscale>
<asrwt>0</asrwt>
<pdfrwt beam="1">  1        2 0.24213493E+00 0.13558152E+04</pdfrwt>
<pdfrwt beam="2">  1       -2 0.38733567E-01 0.13558152E+04</pdfrwt>
<totfact> 0.70989016E+01</totfact>
</mgrwt>
</event>
<event>
 4    1  0.4917371E-005  0.4868758E+03  0.7818608E-02  0.1017262E+00
         -2   -1    0    0    0  501 -0.00000000000E+00  0.00000000000E+00  0.27565400271E+03  0.27565400272E+03  0.25500000000E-02 0. -1.
          2   -1    0    0  501    0  0.00000000000E+00 -0.00000000000E+00 -0.21498690302E+03  0.21498690304E+03  0.25500000000E-02 0.  1.
    5000001    1    1    2    0    0 -0.98327879798E+02  0.51114758447E+02  0.11690429058E+03  0.25602481058E+03  0.19900000000E+03 0.  0.
   -5000001    1    1    2    0    0  0.98327879798E+02 -0.51114758447E+02 -0.56237190894E+02  0.23461609518E+03  0.19900000000E+03 0.  0.
<mgrwt>
<rscale>  0 0.48687576E+03</rscale>
<asrwt>0</asrwt>
<pdfrwt beam="1">  1        2 0.30712415E-01 0.48687576E+03</pdfrwt>
<pdfrwt beam="2">  1       -2 0.39379143E-01 0.48687576E+03</pdfrwt>
<totfact> 0.10575195E+03</totfact>
</mgrwt>
</event>
<event>
 4    1  0.4917371E-005  0.5981973E+03  0.7818608E-02  0.9909153E-01
          2   -1    0    0  501    0  0.00000000000E+00  0.00000000000E+00  0.44448271668E+03  0.44448271668E+03  0.25500000000E-02 0.  1.
         -2   -1    0    0    0  501 -0.00000000000E+00 -0.00000000000E+00 -0.20126766309E+03  0.20126766311E+03  0.25500000000E-02 0. -1.
    5000001    1    1    2    0    0  0.19998868018E+03  0.17561681171E+02  0.16086710246E+02  0.28313188992E+03  0.19900000000E+03 0.  0.
   -5000001    1    1    2    0    0 -0.19998868018E+03 -0.17561681171E+02  0.22712834334E+03  0.36261848987E+03  0.19900000000E+03 0.  0.
<mgrwt>
<rscale>  0 0.59819728E+03</rscale>
<asrwt>0</asrwt>
<pdfrwt beam="1">  1        2 0.63497530E-01 0.59819728E+03</pdfrwt>
<pdfrwt beam="2">  1       -2 0.28752524E-01 0.59819728E+03</pdfrwt>
<totfact> 0.85461435E+02</totfact>
</mgrwt>
</event>
<event>
 4    1  0.4917371E-005  0.5627368E+03  0.7818608E-02  0.9985881E-01
         -2   -1    0    0    0  501 -0.00000000000E+00  0.00000000000E+00  0.13985826259E+03  0.13985826261E+03  0.25500000000E-02 0. -1.
          2   -1    0    0  501    0  0.00000000000E+00 -0.00000000000E+00 -0.56606008862E+03  0.56606008862E+03  0.25500000000E-02 0.  1.
    5000001    1    1    2    0    0 -0.17306231585E+03 -0.94712449327E+02 -0.18121332769E+03  0.33370688239E+03  0.19900000000E+03 0.  0.
   -5000001    1    1    2    0    0  0.17306231585E+03  0.94712449327E+02 -0.24498849833E+03  0.37221146884E+03  0.19900000000E+03 0.  0.
<mgrwt>
<rscale>  0 0.56273681E+03</rscale>
<asrwt>0</asrwt>
<pdfrwt beam="1">  1        2 0.80865726E-01 0.56273681E+03</pdfrwt>
<pdfrwt beam="2">  1       -2 0.19979752E-01 0.56273681E+03</pdfrwt>
<totfact> 0.12429951E+03</totfact>
</mgrwt>
</event>
<event>
 4    1  0.4917371E-005  0.1067221E+04  0.7818608E-02  0.9237743E-01
          2   -1    0    0  501    0  0.00000000000E+00  0.00000000000E+00  0.18960572360E+04  0.18960572360E+04  0.25500000000E-02 0.  1.
         -2   -1    0    0    0  501 -0.00000000000E+00 -0.00000000000E+00 -0.15017478171E+03  0.15017478173E+03  0.25500000000E-02 0. -1.
    5000001    1    1    2    0    0 -0.24507670760E+03  0.41499964590E+03  0.65558071245E+03  0.83766005590E+03  0.19900000000E+03 0.  0.
   -5000001    1    1    2    0    0  0.24507670760E+03 -0.41499964590E+03  0.10903017419E+04  0.12085719619E+04  0.19900000000E+03 0.  0.
<mgrwt>
<rscale>  0 0.10672207E+04</rscale>
<asrwt>0</asrwt>
<pdfrwt beam="1">  1        2 0.27086533E+00 0.10672207E+04</pdfrwt>
<pdfrwt beam="2">  1       -2 0.21453539E-01 0.10672207E+04</pdfrwt>
<totfact> 0.17050960E+02</totfact>
</mgrwt>
</event>
<event>
 4    1  0.4917371E-005  0.1402733E+04  0.7818608E-02  0.8951843E-01
          2   -1    0    0  501    0  0.00000000000E+00  0.00000000000E+00  0.69487532298E+03  0.69487532299E+03  0.25500000000E-02 0.  1.
         -2   -1    0    0    0  501 -0.00000000000E+00 -0.00000000000E+00 -0.70791802694E+03  0.70791802694E+03  0.25500000000E-02 0. -1.
    5000001    1    1    2    0    0  0.59383621122E+03  0.18940661284E+03 -0.25911385468E+03  0.70374519567E+03  0.19900000000E+03 0.  0.
   -5000001    1    1    2    0    0 -0.59383621122E+03 -0.18940661284E+03  0.24607115072E+03  0.69904815425E+03  0.19900000000E+03 0.  0.
<mgrwt>
<rscale>  0 0.14027327E+04</rscale>
<asrwt>0</asrwt>
<pdfrwt beam="1">  1        2 0.99267903E-01 0.14027327E+04</pdfrwt>
<pdfrwt beam="2">  1       -2 0.10113115E+00 0.14027327E+04</pdfrwt>
<totfact> 0.35610135E+01</totfact>
</mgrwt>
</event>
<event>
 4    1  0.4917371E-005  0.4499035E+03  0.7818608E-02  0.1027751E+00
         -2   -1    0    0    0  501 -0.00000000000E+00  0.00000000000E+00  0.68629095115E+02  0.68629095163E+02  0.25500000000E-02 0. -1.
          2   -1    0    0  501    0  0.00000000000E+00 -0.00000000000E+00 -0.73734458406E+03  0.73734458406E+03  0.25500000000E-02 0.  1.
    5000001    1    1    2    0    0 -0.99440800078E+02 -0.23859395535E+02 -0.37616191573E+03  0.43767171524E+03  0.19900000000E+03 0.  0.
   -5000001    1    1    2    0    0  0.99440800078E+02  0.23859395535E+02 -0.29255357321E+03  0.36830196398E+03  0.19900000000E+03 0.  0.
<mgrwt>
<rscale>  0 0.44990351E+03</rscale>
<asrwt>0</asrwt>
<pdfrwt beam="1">  1        2 0.10533494E+00 0.44990351E+03</pdfrwt>
<pdfrwt beam="2">  1       -2 0.98041569E-02 0.44990351E+03</pdfrwt>
<totfact> 0.29710507E+03</totfact>
</mgrwt>
</event>
<event>
 4    1  0.4917371E-005  0.8837027E+03  0.7818608E-02  0.9446186E-01
         -2   -1    0    0    0  501 -0.00000000000E+00  0.00000000000E+00  0.80518820227E+03  0.80518820227E+03  0.25500000000E-02 0. -1.
          2   -1    0    0  501    0  0.00000000000E+00 -0.00000000000E+00 -0.24246830069E+03  0.24246830070E+03  0.25500000000E-02 0.  1.
    5000001    1    1    2    0    0 -0.15561402894E+03 -0.15380715848E+03 -0.10781063298E+03  0.31479596659E+03  0.19900000000E+03 0.  0.
   -5000001    1    1    2    0    0  0.15561402894E+03  0.15380715848E+03  0.67053053456E+03  0.73286053637E+03  0.19900000000E+03 0.  0.
<mgrwt>
<rscale>  0 0.88370270E+03</rscale>
<asrwt>0</asrwt>
<pdfrwt beam="1">  1        2 0.34638328E-01 0.88370270E+03</pdfrwt>
<pdfrwt beam="2">  1       -2 0.11502689E+00 0.88370270E+03</pdfrwt>
<totfact> 0.89535205E+01</totfact>
</mgrwt>
</event>
<event>
 4    1  0.4917371E-005  0.4669363E+03  0.7818608E-02  0.1022788E+00
          2   -1    0    0  501    0  0.00000000000E+00  0.00000000000E+00  0.20647955576E+04  0.20647955576E+04  0.25500000000E-02 0.  1.
         -2   -1    0    0    0  501 -0.00000000000E+00 -0.00000000000E+00 -0.26398435459E+02  0.26398435583E+02  0.25500000000E-02 0. -1.
    5000001    1    1    2    0    0 -0.48030721165E+02 -0.10222329450E+03  0.81154576580E+03  0.84318686073E+03  0.19900000000E+03 0.  0.
   -5000001    1    1    2    0    0  0.48030721165E+02  0.10222329450E+03  0.12268513564E+04  0.12480071325E+04  0.19900000000E+03 0.  0.
<mgrwt>
<rscale>  0 0.46693628E+03</rscale>
<asrwt>0</asrwt>
<pdfrwt beam="1">  1        2 0.29497077E+00 0.46693628E+03</pdfrwt>
<pdfrwt beam="2">  1       -2 0.37712053E-02 0.46693628E+03</pdfrwt>
<totfact> 0.24470307E+03</totfact>
</mgrwt>
</event>
<event>
 4    1  0.4917371E-005  0.7247097E+03  0.7818608E-02  0.9675884E-01
          2   -1    0    0  501    0  0.00000000000E+00  0.00000000000E+00  0.75145833189E+03  0.75145833189E+03  0.25500000000E-02 0.  1.
         -2   -1    0    0    0  501 -0.00000000000E+00 -0.00000000000E+00 -0.17472829323E+03  0.17472829324E+03  0.25500000000E-02 0. -1.
    5000001    1    1    2    0    0 -0.23636037225E+03  0.18652853139E+03  0.24713232698E+03  0.43741799875E+03  0.19900000000E+03 0.  0.
   -5000001    1    1    2    0    0  0.23636037225E+03 -0.18652853139E+03  0.32959771168E+03  0.48876862639E+03  0.19900000000E+03 0.  0.
<mgrwt>
<rscale>  0 0.72470968E+03</rscale>
<asrwt>0</asrwt>
<pdfrwt beam="1">  1        2 0.10735119E+00 0.72470968E+03</pdfrwt>
<pdfrwt beam="2">  1       -2 0.24961185E-01 0.72470968E+03</pdfrwt>
<totfact> 0.59398857E+02</totfact>
</mgrwt>
</event>
<event>
 4    1  0.4917371E-005  0.5986580E+03  0.7818608E-02  0.9908194E-01
         -2   -1    0    0    0  501 -0.00000000000E+00  0.00000000000E+00  0.98609504069E+02  0.98609504102E+02  0.25500000000E-02 0. -1.
          2   -1    0    0  501    0  0.00000000000E+00 -0.00000000000E+00 -0.90861259701E+03  0.90861259702E+03  0.25500000000E-02 0.  1.
    5000001    1    1    2    0    0  0.42120576363E+02 -0.21044040097E+03 -0.51057592922E+03  0.58851345338E+03  0.19900000000E+03 0.  0.
   -5000001    1    1    2    0    0 -0.42120576363E+02  0.21044040097E+03 -0.29942716372E+03  0.41870864774E+03  0.19900000000E+03 0.  0.
<mgrwt>
<rscale>  0 0.59865796E+03</rscale>
<asrwt>0</asrwt>
<pdfrwt beam="1">  1        2 0.12980179E+00 0.59865796E+03</pdfrwt>
<pdfrwt beam="2">  1       -2 0.14087073E-01 0.59865796E+03</pdfrwt>
<totfact> 0.12545681E+03</totfact>
</mgrwt>
</event>
<event>
 4    1  0.4917371E-005  0.7642627E+03  0.7818608E-02  0.9613236E-01
          2   -1    0    0  501    0  0.00000000000E+00  0.00000000000E+00  0.10247859524E+04  0.10247859524E+04  0.25500000000E-02 0.  1.
         -2   -1    0    0    0  501 -0.00000000000E+00 -0.00000000000E+00 -0.14249255619E+03  0.14249255621E+03  0.25500000000E-02 0. -1.
    5000001    1    1    2    0    0  0.31077523889E+03 -0.16248206835E+02  0.59062284112E+03  0.69662155708E+03  0.19900000000E+03 0.  0.
   -5000001    1    1    2    0    0 -0.31077523889E+03  0.16248206835E+02  0.29167055512E+03  0.47065695157E+03  0.19900000000E+03 0.  0.
<mgrwt>
<rscale>  0 0.76426270E+03</rscale>
<asrwt>0</asrwt>
<pdfrwt beam="1">  1        2 0.14639799E+00 0.76426270E+03</pdfrwt>
<pdfrwt beam="2">  1       -2 0.20356080E-01 0.76426270E+03</pdfrwt>
<totfact> 0.56285722E+02</totfact>
</mgrwt>
</event>
<event>
 4    1  0.4917371E-005  0.6139272E+03  0.7818608E-02  0.9876926E-01
         -2   -1    0    0    0  501 -0.00000000000E+00  0.00000000000E+00  0.12504240237E+03  0.12504240239E+03  0.25500000000E-02 0. -1.
          2   -1    0    0  501    0  0.00000000000E+00 -0.00000000000E+00 -0.75355758947E+03  0.75355758948E+03  0.25500000000E-02 0.  1.
    5000001    1    1    2    0    0 -0.60468970957E+02 -0.21047219396E+03 -0.43114214381E+03  0.52291451409E+03  0.19900000000E+03 0.  0.
   -5000001    1    1    2    0    0  0.60468970957E+02  0.21047219396E+03 -0.19737304330E+03  0.35568547778E+03  0.19900000000E+03 0.  0.
<mgrwt>
<rscale>  0 0.61392720E+03</rscale>
<asrwt>0</asrwt>
<pdfrwt beam="1">  1        2 0.10765108E+00 0.61392720E+03</pdfrwt>
<pdfrwt beam="2">  1       -2 0.17863201E-01 0.61392720E+03</pdfrwt>
<totfact> 0.10687883E+03</totfact>
</mgrwt>
</event>
<event>
 4    1  0.4917371E-005  0.6625713E+03  0.7818608E-02  0.9783472E-01
         -2   -1    0    0    0  501 -0.00000000000E+00  0.00000000000E+00  0.49836714763E+03  0.49836714763E+03  0.25500000000E-02 0. -1.
          2   -1    0    0  501    0  0.00000000000E+00 -0.00000000000E+00 -0.22021950853E+03  0.22021950855E+03  0.25500000000E-02 0.  1.
    5000001    1    1    2    0    0  0.17328814982E+03  0.17546674055E+03  0.34305624423E+02  0.31874007557E+03  0.19900000000E+03 0.  0.
   -5000001    1    1    2    0    0 -0.17328814982E+03 -0.17546674055E+03  0.24384201467E+03  0.39984658061E+03  0.19900000000E+03 0.  0.
<mgrwt>
<rscale>  0 0.66257126E+03</rscale>
<asrwt>0</asrwt>
<pdfrwt beam="1">  1        2 0.31459930E-01 0.66257126E+03</pdfrwt>
<pdfrwt beam="2">  1       -2 0.71195306E-01 0.66257126E+03</pdfrwt>
<totfact> 0.30500233E+02</totfact>
</mgrwt>
</event>
<event>
 4    1  0.4917371E-005  0.7681803E+03  0.7818608E-02  0.9607252E-01
          2   -1    0    0  501    0  0.00000000000E+00  0.00000000000E+00  0.19756757369E+04  0.19756757369E+04  0.25500000000E-02 0.  1.
         -2   -1    0    0    0  501 -0.00000000000E+00 -0.00000000000E+00 -0.74670778517E+02  0.74670778561E+02  0.25500000000E-02 0. -1.
    5000001    1    1    2    0    0  0.25354827290E+03  0.15774341954E+03  0.58497737023E+03  0.68627198455E+03  0.19900000000E+03 0.  0.
   -5000001    1    1    2    0    0 -0.25354827290E+03 -0.15774341954E+03  0.13160275882E+04  0.13640745309E+04  0.19900000000E+03 0.  0.
<mgrwt>
<rscale>  0 0.76818031E+03</rscale>
<asrwt>0</asrwt>
<pdfrwt beam="1">  1        2 0.28223944E+00 0.76818031E+03</pdfrwt>
<pdfrwt beam="2">  1       -2 0.10667252E-01 0.76818031E+03</pdfrwt>
<totfact> 0.51935742E+02</totfact>
</mgrwt>
</event>
<event>
 4    1  0.4917371E-005  0.5081009E+03  0.7818608E-02  0.1011686E+00
         -2   -1    0    0    0  501 -0.00000000000E+00  0.00000000000E+00  0.83980001752E+02  0.83980001791E+02  0.25500000000E-02 0. -1.
          2   -1    0    0  501    0  0.00000000000E+00 -0.00000000000E+00 -0.76853584835E+03  0.76853584836E+03  0.25500000000E-02 0.  1.
    5000001    1    1    2    0    0  0.10316667601E+03 -0.91862966026E+02 -0.21385435641E+03  0.32313596724E+03  0.19900000000E+03 0.  0.
   -5000001    1    1    2    0    0 -0.10316667601E+03  0.91862966026E+02 -0.47070149019E+03  0.52937988291E+03  0.19900000000E+03 0.  0.
<mgrwt>
<rscale>  0 0.50810094E+03</rscale>
<asrwt>0</asrwt>
<pdfrwt beam="1">  1        2 0.10979083E+00 0.50810094E+03</pdfrwt>
<pdfrwt beam="2">  1       -2 0.11997144E-01 0.50810094E+03</pdfrwt>
<totfact> 0.20348742E+03</totfact>
</mgrwt>
</event>
<event>
 4    1  0.4917371E-005  0.6258304E+03  0.7818608E-02  0.9853219E-01
          2   -1    0    0  501    0  0.00000000000E+00  0.00000000000E+00  0.49557749213E+03  0.49557749214E+03  0.25500000000E-02 0.  1.
         -2   -1    0    0    0  501 -0.00000000000E+00 -0.00000000000E+00 -0.19757944156E+03  0.19757944158E+03  0.25500000000E-02 0. -1.
    5000001    1    1    2    0    0 -0.18552374399E+03 -0.14852662981E+03  0.10154464186E+03  0.32617715070E+03  0.19900000000E+03 0.  0.
   -5000001    1    1    2    0    0  0.18552374399E+03  0.14852662981E+03  0.19645340871E+03  0.36697978301E+03  0.19900000000E+03 0.  0.
<mgrwt>
<rscale>  0 0.62583041E+03</rscale>
<asrwt>0</asrwt>
<pdfrwt beam="1">  1        2 0.70796784E-01 0.62583041E+03</pdfrwt>
<pdfrwt beam="2">  1       -2 0.28225635E-01 0.62583041E+03</pdfrwt>
<totfact> 0.78153652E+02</totfact>
</mgrwt>
</event>
<event>
 4    1  0.4917371E-005  0.8739702E+03  0.7818608E-02  0.9458718E-01
          2   -1    0    0  501    0  0.00000000000E+00  0.00000000000E+00  0.15811981495E+03  0.15811981497E+03  0.25500000000E-02 0.  1.
         -2   -1    0    0    0  501 -0.00000000000E+00 -0.00000000000E+00 -0.12076662429E+04  0.12076662429E+04  0.25500000000E-02 0. -1.
    5000001    1    1    2    0    0 -0.22797798013E+03 -0.30811785983E+03 -0.62895505912E+03  0.76295218812E+03  0.19900000000E+03 0.  0.
   -5000001    1    1    2    0    0  0.22797798013E+03  0.30811785983E+03 -0.42059136880E+03  0.60283386972E+03  0.19900000000E+03 0.  0.
<mgrwt>
<rscale>  0 0.87397017E+03</rscale>
<asrwt>0</asrwt>
<pdfrwt beam="1">  1        2 0.22588546E-01 0.87397017E+03</pdfrwt>
<pdfrwt beam="2">  1       -2 0.17252374E+00 0.87397017E+03</pdfrwt>
<totfact> 0.50737259E+01</totfact>
</mgrwt>
</event>
<event>
 4    1  0.4917371E-005  0.4362749E+03  0.7818608E-02  0.1031896E+00
         -2   -1    0    0    0  501 -0.00000000000E+00  0.00000000000E+00  0.70654384685E+03  0.70654384686E+03  0.25500000000E-02 0. -1.
          2   -1    0    0  501    0  0.00000000000E+00 -0.00000000000E+00 -0.67347486654E+02  0.67347486702E+02  0.25500000000E-02 0.  1.
    5000001    1    1    2    0    0 -0.66059621516E+02 -0.60015064777E+02  0.31222635585E+03  0.38085690080E+03  0.19900000000E+03 0.  0.
   -5000001    1    1    2    0    0  0.66059621516E+02  0.60015064777E+02  0.32697000434E+03  0.39303443276E+03  0.19900000000E+03 0.  0.
<mgrwt>
<rscale>  0 0.43627492E+03</rscale>
<asrwt>0</asrwt>
<pdfrwt beam="1">  1        2 0.96210693E-02 0.43627492E+03</pdfrwt>
<pdfrwt beam="2">  1       -2 0.10093484E+00 0.43627492E+03</pdfrwt>
<totfact> 0.56826942E+02</totfact>
</mgrwt>
</event>
<event>
 4    1  0.4917371E-005  0.7287969E+03  0.7818608E-02  0.9669215E-01
         -2   -1    0    0    0  501 -0.00000000000E+00  0.00000000000E+00  0.15554755808E+04  0.15554755808E+04  0.25500000000E-02 0. -1.
          2   -1    0    0  501    0  0.00000000000E+00 -0.00000000000E+00 -0.85366953957E+02  0.85366953995E+02  0.25500000000E-02 0.  1.
    5000001    1    1    2    0    0 -0.29322287378E+03 -0.74367559730E+02  0.64290947300E+03  0.73786433585E+03  0.19900000000E+03 0.  0.
   -5000001    1    1    2    0    0  0.29322287378E+03  0.74367559730E+02  0.82719915383E+03  0.90297819893E+03  0.19900000000E+03 0.  0.
<mgrwt>
<rscale>  0 0.72879685E+03</rscale>
<asrwt>0</asrwt>
<pdfrwt beam="1">  1        2 0.12195281E-01 0.72879685E+03</pdfrwt>
<pdfrwt beam="2">  1       -2 0.22221076E+00 0.72879685E+03</pdfrwt>
<totfact> 0.50685953E+01</totfact>
</mgrwt>
</event>
<event>
 4    1  0.4917371E-005  0.9689399E+03  0.7818608E-02  0.9343283E-01
          2   -1    0    0  501    0  0.00000000000E+00  0.00000000000E+00  0.23123280586E+03  0.23123280588E+03  0.25500000000E-02 0.  1.
         -2   -1    0    0    0  501 -0.00000000000E+00 -0.00000000000E+00 -0.10150424623E+04  0.10150424623E+04  0.25500000000E-02 0. -1.
    5000001    1    1    2    0    0  0.23142971240E+03  0.21200287962E+03 -0.79168142536E+03  0.87456584201E+03  0.19900000000E+03 0.  0.
   -5000001    1    1    2    0    0 -0.23142971240E+03 -0.21200287962E+03  0.78717689368E+01  0.37170942616E+03  0.19900000000E+03 0.  0.
<mgrwt>
<rscale>  0 0.96893987E+03</rscale>
<asrwt>0</asrwt>
<pdfrwt beam="1">  1        2 0.33033259E-01 0.96893987E+03</pdfrwt>
<pdfrwt beam="2">  1       -2 0.14500606E+00 0.96893987E+03</pdfrwt>
<totfact> 0.52296256E+01</totfact>
</mgrwt>
</event>
<event>
 4    1  0.4917371E-005  0.5736846E+03  0.7818608E-02  0.9961558E-01
          2   -1    0    0  501    0  0.00000000000E+00  0.00000000000E+00  0.63450909450E+03  0.63450909451E+03  0.25500000000E-02 0.  1.
         -2   -1    0    0    0  501 -0.00000000000E+00 -0.00000000000E+00 -0.12967271620E+03  0.12967271622E+03  0.25500000000E-02 0. -1.
    5000001    1    1    2    0    0  0.15422230260E+03 -0.13707505347E+03  0.23887115255E+03  0.37314141612E+03  0.19900000000E+03 0.  0.
   -5000001    1    1    2    0    0 -0.15422230260E+03  0.13707505347E+03  0.26596522576E+03  0.39104039461E+03  0.19900000000E+03 0.  0.
<mgrwt>
<rscale>  0 0.57368464E+03</rscale>
<asrwt>0</asrwt>
<pdfrwt beam="1">  1        2 0.90644157E-01 0.57368464E+03</pdfrwt>
<pdfrwt beam="2">  1       -2 0.18524674E-01 0.57368464E+03</pdfrwt>
<totfact> 0.12389678E+03</totfact>
</mgrwt>
</event>
<event>
 4    1  0.4917371E-005  0.1090380E+04  0.7818608E-02  0.9214619E-01
          2   -1    0    0  501    0  0.00000000000E+00  0.00000000000E+00  0.47832670836E+03  0.47832670836E+03  0.25500000000E-02 0.  1.
         -2   -1    0    0    0  501 -0.00000000000E+00 -0.00000000000E+00 -0.62140008760E+03  0.62140008761E+03  0.25500000000E-02 0. -1.
    5000001    1    1    2    0    0 -0.40249603109E+03 -0.25218770816E+03  0.10896544801E+03  0.52638024664E+03  0.19900000000E+03 0.  0.
   -5000001    1    1    2    0    0  0.40249603109E+03  0.25218770816E+03 -0.25203882725E+03  0.57334654933E+03  0.19900000000E+03 0.  0.
<mgrwt>
<rscale>  0 0.10903802E+04</rscale>
<asrwt>0</asrwt>
<pdfrwt beam="1">  1        2 0.68332387E-01 0.10903802E+04</pdfrwt>
<pdfrwt beam="2">  1       -2 0.88771441E-01 0.10903802E+04</pdfrwt>
<totfact> 0.76636078E+01</totfact>
</mgrwt>
</event>
<event>
 4    1  0.4917371E-005  0.6774075E+03  0.7818608E-02  0.9756668E-01
          2   -1    0    0  501    0  0.00000000000E+00  0.00000000000E+00  0.11180522824E+04  0.11180522824E+04  0.25500000000E-02 0.  1.
         -2   -1    0    0    0  501 -0.00000000000E+00 -0.00000000000E+00 -0.10260720489E+03  0.10260720492E+03  0.25500000000E-02 0. -1.
    5000001    1    1    2    0    0  0.76436363850E+02  0.15155072445E+03  0.11994948551E+03  0.28774818657E+03  0.19900000000E+03 0.  0.
   -5000001    1    1    2    0    0 -0.76436363850E+02 -0.15155072445E+03  0.89549559194E+03  0.93291130071E+03  0.19900000000E+03 0.  0.
<mgrwt>
<rscale>  0 0.67740747E+03</rscale>
<asrwt>0</asrwt>
<pdfrwt beam="1">  1        2 0.15972175E+00 0.67740747E+03</pdfrwt>
<pdfrwt beam="2">  1       -2 0.14658172E-01 0.67740747E+03</pdfrwt>
<totfact> 0.87354476E+02</totfact>
</mgrwt>
</event>
<event>
 4    1  0.4917371E-005  0.8461177E+03  0.7818608E-02  0.9495562E-01
          2   -1    0    0  501    0  0.00000000000E+00  0.00000000000E+00  0.38917356818E+03  0.38917356819E+03  0.25500000000E-02 0.  1.
         -2   -1    0    0    0  501 -0.00000000000E+00 -0.00000000000E+00 -0.45989455592E+03  0.45989455592E+03  0.25500000000E-02 0. -1.
    5000001    1    1    2    0    0  0.29012565525E+03  0.16241330414E+03 -0.20573718047E+03  0.43872515841E+03  0.19900000000E+03 0.  0.
   -5000001    1    1    2    0    0 -0.29012565525E+03 -0.16241330414E+03  0.13501619273E+03  0.41034296570E+03  0.19900000000E+03 0.  0.
<mgrwt>
<rscale>  0 0.84611773E+03</rscale>
<asrwt>0</asrwt>
<pdfrwt beam="1">  1        2 0.55596224E-01 0.84611773E+03</pdfrwt>
<pdfrwt beam="2">  1       -2 0.65699223E-01 0.84611773E+03</pdfrwt>
<totfact> 0.19137346E+02</totfact>
</mgrwt>
</event>
<event>
 4    1  0.4917371E-005  0.4588361E+03  0.7818608E-02  0.1025119E+00
         -2   -1    0    0    0  501 -0.00000000000E+00  0.00000000000E+00  0.40246216257E+02  0.40246216338E+02  0.25500000000E-02 0. -1.
          2   -1    0    0  501    0  0.00000000000E+00 -0.00000000000E+00 -0.13077660623E+04  0.13077660623E+04  0.25500000000E-02 0.  1.
    5000001    1    1    2    0    0  0.57974229889E+02  0.93581519717E+02 -0.72253705036E+03  0.75748221188E+03  0.19900000000E+03 0.  0.
   -5000001    1    1    2    0    0 -0.57974229889E+02 -0.93581519717E+02 -0.54498279567E+03  0.59053006675E+03  0.19900000000E+03 0.  0.
<mgrwt>
<rscale>  0 0.45883607E+03</rscale>
<asrwt>0</asrwt>
<pdfrwt beam="1">  1        2 0.18682370E+00 0.45883607E+03</pdfrwt>
<pdfrwt beam="2">  1       -2 0.57494603E-02 0.45883607E+03</pdfrwt>
<totfact> 0.31063358E+03</totfact>
</mgrwt>
</event>
<event>
 4    1  0.4917371E-005  0.7107301E+03  0.7818608E-02  0.9699056E-01
          2   -1    0    0  501    0  0.00000000000E+00  0.00000000000E+00  0.32012798552E+04  0.32012798552E+04  0.25500000000E-02 0.  1.
         -2   -1    0    0    0  501 -0.00000000000E+00 -0.00000000000E+00 -0.39448075656E+02  0.39448075739E+02  0.25500000000E-02 0. -1.
    5000001    1    1    2    0    0 -0.95191229376E+02  0.25123925953E+03  0.21299935083E+04  0.21560741827E+04  0.19900000000E+03 0.  0.
   -5000001    1    1    2    0    0  0.95191229376E+02 -0.25123925953E+03  0.10318382712E+04  0.10846537483E+04  0.19900000000E+03 0.  0.
<mgrwt>
<rscale>  0 0.71073013E+03</rscale>
<asrwt>0</asrwt>
<pdfrwt beam="1">  1        2 0.45732569E+00 0.71073013E+03</pdfrwt>
<pdfrwt beam="2">  1       -2 0.56354394E-02 0.71073013E+03</pdfrwt>
<totfact> 0.32851886E+02</totfact>
</mgrwt>
</event>
<event>
 4    1  0.4917371E-005  0.4865771E+03  0.7818608E-02  0.1017343E+00
         -2   -1    0    0    0  501 -0.00000000000E+00  0.00000000000E+00  0.37003445858E+03  0.37003445859E+03  0.25500000000E-02 0. -1.
          2   -1    0    0  501    0  0.00000000000E+00 -0.00000000000E+00 -0.15995623808E+03  0.15995623810E+03  0.25500000000E-02 0.  1.
    5000001    1    1    2    0    0  0.13134204210E+03 -0.40860390168E+02  0.13319116868E+03  0.27615428825E+03  0.19900000000E+03 0.  0.
   -5000001    1    1    2    0    0 -0.13134204210E+03  0.40860390168E+02  0.76887051821E+02  0.25383640843E+03  0.19900000000E+03 0.  0.
<mgrwt>
<rscale>  0 0.48657711E+03</rscale>
<asrwt>0</asrwt>
<pdfrwt beam="1">  1        2 0.22850892E-01 0.48657711E+03</pdfrwt>
<pdfrwt beam="2">  1       -2 0.52862065E-01 0.48657711E+03</pdfrwt>
<totfact> 0.82397411E+02</totfact>
</mgrwt>
</event>
<event>
 4    1  0.4917371E-005  0.7424679E+03  0.7818608E-02  0.9647242E-01
         -2   -1    0    0    0  501 -0.00000000000E+00  0.00000000000E+00  0.13334368776E+03  0.13334368778E+03  0.25500000000E-02 0. -1.
          2   -1    0    0  501    0  0.00000000000E+00 -0.00000000000E+00 -0.10335295800E+04  0.10335295800E+04  0.25500000000E-02 0.  1.
    5000001    1    1    2    0    0 -0.22758257569E+03  0.14497053908E+03 -0.70058363496E+03  0.77667799990E+03  0.19900000000E+03 0.  0.
   -5000001    1    1    2    0    0  0.22758257569E+03 -0.14497053908E+03 -0.19960225725E+03  0.39019526786E+03  0.19900000000E+03 0.  0.
<mgrwt>
<rscale>  0 0.74246790E+03</rscale>
<asrwt>0</asrwt>
<pdfrwt beam="1">  1        2 0.14764708E+00 0.74246790E+03</pdfrwt>
<pdfrwt beam="2">  1       -2 0.19049099E-01 0.74246790E+03</pdfrwt>
<totfact> 0.62484146E+02</totfact>
</mgrwt>
</event>
<event>
 4    1  0.4917371E-005  0.8037480E+03  0.7818608E-02  0.9554608E-01
         -2   -1    0    0    0  501 -0.00000000000E+00  0.00000000000E+00  0.59989882507E+03  0.59989882507E+03  0.25500000000E-02 0. -1.
          2   -1    0    0  501    0  0.00000000000E+00 -0.00000000000E+00 -0.26921661545E+03  0.26921661546E+03  0.25500000000E-02 0.  1.
    5000001    1    1    2    0    0  0.22653474301E+03 -0.24108401941E+03  0.44627689067E+02  0.38862851779E+03  0.19900000000E+03 0.  0.
   -5000001    1    1    2    0    0 -0.22653474301E+03  0.24108401941E+03  0.28605452055E+03  0.48048692275E+03  0.19900000000E+03 0.  0.
<mgrwt>
<rscale>  0 0.80374805E+03</rscale>
<asrwt>0</asrwt>
<pdfrwt beam="1">  1        2 0.38459516E-01 0.80374805E+03</pdfrwt>
<pdfrwt beam="2">  1       -2 0.85699832E-01 0.80374805E+03</pdfrwt>
<totfact> 0.16029007E+02</totfact>
</mgrwt>
</event>
<event>
 4    1  0.4917371E-005  0.7878794E+03  0.7818608E-02  0.9577729E-01
         -2   -1    0    0    0  501 -0.00000000000E+00  0.00000000000E+00  0.11634001894E+03  0.11634001897E+03  0.25500000000E-02 0. -1.
          2   -1    0    0  501    0  0.00000000000E+00 -0.00000000000E+00 -0.13339219209E+04  0.13339219209E+04  0.25500000000E-02 0.  1.
    5000001    1    1    2    0    0  0.59288778961E+02 -0.33438082124E+03 -0.57900724936E+03  0.70012576565E+03  0.19900000000E+03 0.  0.
   -5000001    1    1    2    0    0 -0.59288778961E+02  0.33438082124E+03 -0.63857465264E+03  0.75013617425E+03  0.19900000000E+03 0.  0.
<mgrwt>
<rscale>  0 0.78787944E+03</rscale>
<asrwt>0</asrwt>
<pdfrwt beam="1">  1        2 0.19056027E+00 0.78787944E+03</pdfrwt>
<pdfrwt beam="2">  1       -2 0.16620003E-01 0.78787944E+03</pdfrwt>
<totfact> 0.53186951E+02</totfact>
</mgrwt>
</event>
<event>
 4    1  0.4917371E-005  0.5847479E+03  0.7818608E-02  0.9937564E-01
         -2   -1    0    0    0  501 -0.00000000000E+00  0.00000000000E+00  0.49337816334E+02  0.49337816400E+02  0.25500000000E-02 0. -1.
          2   -1    0    0  501    0  0.00000000000E+00 -0.00000000000E+00 -0.17325966444E+04  0.17325966444E+04  0.25500000000E-02 0.  1.
    5000001    1    1    2    0    0  0.86380741462E+02 -0.19101998010E+03 -0.97554912628E+03  0.10174710625E+04  0.19900000000E+03 0.  0.
   -5000001    1    1    2    0    0 -0.86380741462E+02  0.19101998010E+03 -0.70770970175E+03  0.76446339824E+03  0.19900000000E+03 0.  0.
<mgrwt>
<rscale>  0 0.58474793E+03</rscale>
<asrwt>0</asrwt>
<pdfrwt beam="1">  1        2 0.24751377E+00 0.58474793E+03</pdfrwt>
<pdfrwt beam="2">  1       -2 0.70482606E-02 0.58474793E+03</pdfrwt>
<totfact> 0.13554147E+03</totfact>
</mgrwt>
</event>
<event>
 4    1  0.4917371E-005  0.7052767E+03  0.7818608E-02  0.9708251E-01
         -2   -1    0    0    0  501 -0.00000000000E+00  0.00000000000E+00  0.41796923498E+02  0.41796923575E+02  0.25500000000E-02 0. -1.
          2   -1    0    0  501    0  0.00000000000E+00 -0.00000000000E+00 -0.29751905580E+04  0.29751905580E+04  0.25500000000E-02 0.  1.
    5000001    1    1    2    0    0  0.22137178624E+03 -0.15227617884E+03 -0.19460955135E+04  0.19746093918E+04  0.19900000000E+03 0.  0.
   -5000001    1    1    2    0    0 -0.22137178624E+03  0.15227617884E+03 -0.98729812102E+03  0.10423780898E+04  0.19900000000E+03 0.  0.
<mgrwt>
<rscale>  0 0.70527672E+03</rscale>
<asrwt>0</asrwt>
<pdfrwt beam="1">  1        2 0.42502709E+00 0.70527672E+03</pdfrwt>
<pdfrwt beam="2">  1       -2 0.59709910E-02 0.70527672E+03</pdfrwt>
<totfact> 0.40060318E+02</totfact>
</mgrwt>
</event>
<event>
 4    1  0.4917371E-005  0.9914495E+03  0.7818608E-02  0.9317973E-01
          2   -1    0    0  501    0  0.00000000000E+00  0.00000000000E+00  0.11823017867E+04  0.11823017867E+04  0.25500000000E-02 0.  1.
         -2   -1    0    0    0  501 -0.00000000000E+00 -0.00000000000E+00 -0.20785136399E+03  0.20785136400E+03  0.25500000000E-02 0. -1.
    5000001    1    1    2    0    0  0.10535200712E+03 -0.27722669452E+03  0.96926110867E+03  0.10329674643E+04  0.19900000000E+03 0.  0.
   -5000001    1    1    2    0    0 -0.10535200712E+03  0.27722669452E+03  0.51893140102E+01  0.35718568636E+03  0.19900000000E+03 0.  0.
<mgrwt>
<rscale>  0 0.99144952E+03</rscale>
<asrwt>0</asrwt>
<pdfrwt beam="1">  1        2 0.16890026E+00 0.99144952E+03</pdfrwt>
<pdfrwt beam="2">  1       -2 0.29693051E-01 0.99144952E+03</pdfrwt>
<totfact> 0.22774115E+02</totfact>
</mgrwt>
</event>
<event>
 4    1  0.4917371E-005  0.6083295E+03  0.7818608E-02  0.9888274E-01
          2   -1    0    0  501    0  0.00000000000E+00  0.00000000000E+00  0.26445681983E+04  0.26445681983E+04  0.25500000000E-02 0.  1.
         -2   -1    0    0    0  501 -0.00000000000E+00 -0.00000000000E+00 -0.34983477944E+02  0.34983478037E+02  0.25500000000E-02 0. -1.
    5000001    1    1    2    0    0 -0.18721396331E+03  0.50248772129E+02  0.18503651907E+04  0.18711029758E+04  0.19900000000E+03 0.  0.
   -5000001    1    1    2    0    0  0.18721396331E+03 -0.50248772129E+02  0.75921952963E+03  0.80844870049E+03  0.19900000000E+03 0.  0.
<mgrwt>
<rscale>  0 0.60832949E+03</rscale>
<asrwt>0</asrwt>
<pdfrwt beam="1">  1        2 0.37779563E+00 0.60832949E+03</pdfrwt>
<pdfrwt beam="2">  1       -2 0.49976374E-02 0.60832949E+03</pdfrwt>
<totfact> 0.79972335E+02</totfact>
</mgrwt>
</event>
<event>
 4    1  0.4917371E-005  0.4648722E+03  0.7818608E-02  0.1023378E+00
         -2   -1    0    0    0  501 -0.00000000000E+00  0.00000000000E+00  0.62013247468E+02  0.62013247521E+02  0.25500000000E-02 0. -1.
          2   -1    0    0  501    0  0.00000000000E+00 -0.00000000000E+00 -0.87120957796E+03  0.87120957796E+03  0.25500000000E-02 0.  1.
    5000001    1    1    2    0    0 -0.11864890329E+03 -0.18093339251E+02 -0.39548587357E+03  0.45871015617E+03  0.19900000000E+03 0.  0.
   -5000001    1    1    2    0    0  0.11864890329E+03  0.18093339251E+02 -0.41371045692E+03  0.47451266931E+03  0.19900000000E+03 0.  0.
<mgrwt>
<rscale>  0 0.46487218E+03</rscale>
<asrwt>0</asrwt>
<pdfrwt beam="1">  1        2 0.12445850E+00 0.46487218E+03</pdfrwt>
<pdfrwt beam="2">  1       -2 0.88590359E-02 0.46487218E+03</pdfrwt>
<totfact> 0.28298323E+03</totfact>
</mgrwt>
</event>
<event>
 4    1  0.4917371E-005  0.1126346E+04  0.7818608E-02  0.9179887E-01
          2   -1    0    0  501    0  0.00000000000E+00  0.00000000000E+00  0.27717419135E+04  0.27717419135E+04  0.25500000000E-02 0.  1.
         -2   -1    0    0    0  501 -0.00000000000E+00 -0.00000000000E+00 -0.11442757822E+03  0.11442757825E+03  0.25500000000E-02 0. -1.
    5000001    1    1    2    0    0 -0.20586702757E+03  0.44524633326E+03  0.18211296645E+04  0.18965072595E+04  0.19900000000E+03 0.  0.
   -5000001    1    1    2    0    0  0.20586702757E+03 -0.44524633326E+03  0.83618467075E+03  0.98966223224E+03  0.19900000000E+03 0.  0.
<mgrwt>
<rscale>  0 0.11263458E+04</rscale>
<asrwt>0</asrwt>
<pdfrwt beam="1">  1        2 0.39596308E+00 0.11263458E+04</pdfrwt>
<pdfrwt beam="2">  1       -2 0.16346799E-01 0.11263458E+04</pdfrwt>
<totfact> 0.95765563E+01</totfact>
</mgrwt>
</event>
<event>
 4    1  0.4917371E-005  0.8707688E+03  0.7818608E-02  0.9462878E-01
          2   -1    0    0  501    0  0.00000000000E+00  0.00000000000E+00  0.16896193227E+04  0.16896193227E+04  0.25500000000E-02 0.  1.
         -2   -1    0    0    0  501 -0.00000000000E+00 -0.00000000000E+00 -0.11219071185E+03  0.11219071188E+03  0.25500000000E-02 0. -1.
    5000001    1    1    2    0    0  0.30873419145E+03  0.22824850635E+03  0.68433848042E+03  0.80952723080E+03  0.19900000000E+03 0.  0.
   -5000001    1    1    2    0    0 -0.30873419145E+03 -0.22824850635E+03  0.89309013045E+03  0.99228280381E+03  0.19900000000E+03 0.  0.
<mgrwt>
<rscale>  0 0.87076884E+03</rscale>
<asrwt>0</asrwt>
<pdfrwt beam="1">  1        2 0.24137417E+00 0.87076884E+03</pdfrwt>
<pdfrwt beam="2">  1       -2 0.16027246E-01 0.87076884E+03</pdfrwt>
<totfact> 0.36585647E+02</totfact>
</mgrwt>
</event>
<event>
 4    1  0.4917371E-005  0.5605403E+03  0.7818608E-02  0.9990833E-01
         -2   -1    0    0    0  501 -0.00000000000E+00  0.00000000000E+00  0.63849594705E+02  0.63849594756E+02  0.25500000000E-02 0. -1.
          2   -1    0    0  501    0  0.00000000000E+00 -0.00000000000E+00 -0.12302560422E+04  0.12302560422E+04  0.25500000000E-02 0.  1.
    5000001    1    1    2    0    0 -0.18064555788E+03 -0.15999366617E+02 -0.40345904288E+03  0.48504535520E+03  0.19900000000E+03 0.  0.
   -5000001    1    1    2    0    0  0.18064555788E+03  0.15999366617E+02 -0.76294740460E+03  0.80906028175E+03  0.19900000000E+03 0.  0.
<mgrwt>
<rscale>  0 0.56054027E+03</rscale>
<asrwt>0</asrwt>
<pdfrwt beam="1">  1        2 0.17575085E+00 0.56054027E+03</pdfrwt>
<pdfrwt beam="2">  1       -2 0.91213715E-02 0.56054027E+03</pdfrwt>
<totfact> 0.16505608E+03</totfact>
</mgrwt>
</event>
<event>
 4    1  0.4917371E-005  0.6239333E+03  0.7818608E-02  0.9856960E-01
         -2   -1    0    0    0  501 -0.00000000000E+00  0.00000000000E+00  0.28470056423E+03  0.28470056424E+03  0.25500000000E-02 0. -1.
          2   -1    0    0  501    0  0.00000000000E+00 -0.00000000000E+00 -0.34184406108E+03  0.34184406109E+03  0.25500000000E-02 0.  1.
    5000001    1    1    2    0    0  0.21587381879E+03  0.73632544873E+02  0.47235522672E+02  0.30635837169E+03  0.19900000000E+03 0.  0.
   -5000001    1    1    2    0    0 -0.21587381879E+03 -0.73632544873E+02 -0.10437901952E+03  0.32018625364E+03  0.19900000000E+03 0.  0.
<mgrwt>
<rscale>  0 0.62393332E+03</rscale>
<asrwt>0</asrwt>
<pdfrwt beam="1">  1        2 0.48834866E-01 0.62393332E+03</pdfrwt>
<pdfrwt beam="2">  1       -2 0.40671509E-01 0.62393332E+03</pdfrwt>
<totfact> 0.59399747E+02</totfact>
</mgrwt>
</event>
<event>
 4    1  0.4917371E-005  0.7520043E+03  0.7818608E-02  0.9632211E-01
          2   -1    0    0  501    0  0.00000000000E+00  0.00000000000E+00  0.40171369648E+03  0.40171369648E+03  0.25500000000E-02 0.  1.
         -2   -1    0    0    0  501 -0.00000000000E+00 -0.00000000000E+00 -0.35193624058E+03  0.35193624058E+03  0.25500000000E-02 0. -1.
    5000001    1    1    2    0    0 -0.23789881090E+03  0.72412725625E+02  0.22516889804E+03  0.39005317548E+03  0.19900000000E+03 0.  0.
   -5000001    1    1    2    0    0  0.23789881090E+03 -0.72412725625E+02 -0.17539144214E+03  0.36359676159E+03  0.19900000000E+03 0.  0.
<mgrwt>
<rscale>  0 0.75200428E+03</rscale>
<asrwt>0</asrwt>
<pdfrwt beam="1">  1        2 0.57387671E-01 0.75200428E+03</pdfrwt>
<pdfrwt beam="2">  1       -2 0.50276606E-01 0.75200428E+03</pdfrwt>
<totfact> 0.32443239E+02</totfact>
</mgrwt>
</event>
<event>
 4    1  0.4917371E-005  0.4129943E+03  0.7818608E-02  0.1039371E+00
         -2   -1    0    0    0  501 -0.00000000000E+00  0.00000000000E+00  0.23659148668E+02  0.23659148805E+02  0.25500000000E-02 0. -1.
          2   -1    0    0  501    0  0.00000000000E+00 -0.00000000000E+00 -0.18023079883E+04  0.18023079883E+04  0.25500000000E-02 0.  1.
    5000001    1    1    2    0    0  0.49383613517E+02 -0.13682348131E+02 -0.79935093589E+03  0.82534166661E+03  0.19900000000E+03 0.  0.
   -5000001    1    1    2    0    0 -0.49383613517E+02  0.13682348131E+02 -0.97929790375E+03  0.10006254705E+04  0.19900000000E+03 0.  0.
<mgrwt>
<rscale>  0 0.41299430E+03</rscale>
<asrwt>0</asrwt>
<pdfrwt beam="1">  1        2 0.25747248E+00 0.41299430E+03</pdfrwt>
<pdfrwt beam="2">  1       -2 0.33798795E-02 0.41299430E+03</pdfrwt>
<totfact> 0.39080691E+03</totfact>
</mgrwt>
</event>
<event>
 4    1  0.4917371E-005  0.7101647E+03  0.7818608E-02  0.9700005E-01
          2   -1    0    0  501    0  0.00000000000E+00  0.00000000000E+00  0.20765460289E+04  0.20765460289E+04  0.25500000000E-02 0.  1.
         -2   -1    0    0    0  501 -0.00000000000E+00 -0.00000000000E+00 -0.60717875981E+02  0.60717876034E+02  0.25500000000E-02 0. -1.
    5000001    1    1    2    0    0 -0.24037767605E+03  0.44902203273E+01  0.15175913725E+04  0.15493502390E+04  0.19900000000E+03 0.  0.
   -5000001    1    1    2    0    0  0.24037767605E+03 -0.44902203273E+01  0.49823678040E+03  0.58791366591E+03  0.19900000000E+03 0.  0.
<mgrwt>
<rscale>  0 0.71016467E+03</rscale>
<asrwt>0</asrwt>
<pdfrwt beam="1">  1        2 0.29664944E+00 0.71016467E+03</pdfrwt>
<pdfrwt beam="2">  1       -2 0.86739820E-02 0.71016467E+03</pdfrwt>
<totfact> 0.64837188E+02</totfact>
</mgrwt>
</event>
<event>
 4    1  0.4917371E-005  0.6915248E+03  0.7818608E-02  0.9731837E-01
         -2   -1    0    0    0  501 -0.00000000000E+00  0.00000000000E+00  0.40496166311E+03  0.40496166312E+03  0.25500000000E-02 0. -1.
          2   -1    0    0  501    0  0.00000000000E+00 -0.00000000000E+00 -0.29521715575E+03  0.29521715577E+03  0.25500000000E-02 0.  1.
    5000001    1    1    2    0    0 -0.27626687790E+03  0.22019537389E+02  0.11163073247E+03  0.35898561014E+03  0.19900000000E+03 0.  0.
   -5000001    1    1    2    0    0  0.27626687790E+03 -0.22019537389E+02 -0.18862251067E+01  0.34119320875E+03  0.19900000000E+03 0.  0.
<mgrwt>
<rscale>  0 0.69152478E+03</rscale>
<asrwt>0</asrwt>
<pdfrwt beam="1">  1        2 0.42173879E-01 0.69152478E+03</pdfrwt>
<pdfrwt beam="2">  1       -2 0.57851666E-01 0.69152478E+03</pdfrwt>
<totfact> 0.34259098E+02</totfact>
</mgrwt>
</event>
<event>
 4    1  0.4917371E-005  0.4957119E+03  0.7818608E-02  0.1014904E+00
         -2   -1    0    0    0  501 -0.00000000000E+00  0.00000000000E+00  0.78068155633E+02  0.78068155674E+02  0.25500000000E-02 0. -1.
          2   -1    0    0  501    0  0.00000000000E+00 -0.00000000000E+00 -0.78690962598E+03  0.78690962599E+03  0.25500000000E-02 0.  1.
    5000001    1    1    2    0    0  0.12882495111E+03 -0.63370578255E+02 -0.29347616689E+03  0.38254536822E+03  0.19900000000E+03 0.  0.
   -5000001    1    1    2    0    0 -0.12882495111E+03  0.63370578255E+02 -0.41536530346E+03  0.48243241343E+03  0.19900000000E+03 0.  0.
<mgrwt>
<rscale>  0 0.49571195E+03</rscale>
<asrwt>0</asrwt>
<pdfrwt beam="1">  1        2 0.11241566E+00 0.49571195E+03</pdfrwt>
<pdfrwt beam="2">  1       -2 0.11152594E-01 0.49571195E+03</pdfrwt>
<totfact> 0.22255404E+03</totfact>
</mgrwt>
</event>
<event>
 4    1  0.4917371E-005  0.8587209E+03  0.7818608E-02  0.9478706E-01
         -2   -1    0    0    0  501 -0.00000000000E+00  0.00000000000E+00  0.18169139224E+03  0.18169139226E+03  0.25500000000E-02 0. -1.
          2   -1    0    0  501    0  0.00000000000E+00 -0.00000000000E+00 -0.10146346592E+04  0.10146346592E+04  0.25500000000E-02 0.  1.
    5000001    1    1    2    0    0  0.16718205076E+03 -0.32475007348E+03 -0.56480722920E+03  0.70144183970E+03  0.19900000000E+03 0.  0.
   -5000001    1    1    2    0    0 -0.16718205076E+03  0.32475007348E+03 -0.26813603778E+03  0.49488421179E+03  0.19900000000E+03 0.  0.
<mgrwt>
<rscale>  0 0.85872087E+03</rscale>
<asrwt>0</asrwt>
<pdfrwt beam="1">  1        2 0.14494781E+00 0.85872087E+03</pdfrwt>
<pdfrwt beam="2">  1       -2 0.25955914E-01 0.85872087E+03</pdfrwt>
<totfact> 0.36865414E+02</totfact>
</mgrwt>
</event>
<event>
 4    1  0.4917371E-005  0.4239782E+03  0.7818608E-02  0.1035779E+00
         -2   -1    0    0    0  501 -0.00000000000E+00  0.00000000000E+00  0.20075288050E+02  0.20075288212E+02  0.25500000000E-02 0. -1.
          2   -1    0    0  501    0  0.00000000000E+00 -0.00000000000E+00 -0.22385424913E+04  0.22385424913E+04  0.25500000000E-02 0.  1.
    5000001    1    1    2    0    0  0.48190249052E+01  0.56244700577E+02 -0.13563432229E+04  0.13720257387E+04  0.19900000000E+03 0.  0.
   -5000001    1    1    2    0    0 -0.48190249052E+01 -0.56244700577E+02 -0.86212398035E+03  0.88659204082E+03  0.19900000000E+03 0.  0.
<mgrwt>
<rscale>  0 0.42397823E+03</rscale>
<asrwt>0</asrwt>
<pdfrwt beam="1">  1        2 0.31979163E+00 0.42397823E+03</pdfrwt>
<pdfrwt beam="2">  1       -2 0.28678997E-02 0.42397823E+03</pdfrwt>
<totfact> 0.30402082E+03</totfact>
</mgrwt>
</event>
<event>
 4    1  0.4917371E-005  0.1204227E+04  0.7818608E-02  0.9109165E-01
          2   -1    0    0  501    0  0.00000000000E+00  0.00000000000E+00  0.10625546060E+04  0.10625546060E+04  0.25500000000E-02 0.  1.
         -2   -1    0    0    0  501 -0.00000000000E+00 -0.00000000000E+00 -0.34119717037E+03  0.34119717038E+03  0.25500000000E-02 0. -1.
    5000001    1    1    2    0    0 -0.33841888620E+03  0.42640793245E+03  0.17060180390E+03  0.60419950586E+03  0.19900000000E+03 0.  0.
   -5000001    1    1    2    0    0  0.33841888620E+03 -0.42640793245E+03  0.55075563170E+03  0.79955227048E+03  0.19900000000E+03 0.  0.
<mgrwt>
<rscale>  0 0.12042269E+04</rscale>
<asrwt>0</asrwt>
<pdfrwt beam="1">  1        2 0.15179352E+00 0.12042269E+04</pdfrwt>
<pdfrwt beam="2">  1       -2 0.48742452E-01 0.12042269E+04</pdfrwt>
<totfact> 0.10113480E+02</totfact>
</mgrwt>
</event>
<event>
 4    1  0.4917371E-005  0.6107780E+03  0.7818608E-02  0.9883294E-01
         -2   -1    0    0    0  501 -0.00000000000E+00  0.00000000000E+00  0.10358272371E+03  0.10358272375E+03  0.25500000000E-02 0. -1.
          2   -1    0    0  501    0  0.00000000000E+00 -0.00000000000E+00 -0.90036666880E+03  0.90036666881E+03  0.25500000000E-02 0.  1.
    5000001    1    1    2    0    0  0.18343026360E+03  0.30395851494E+02 -0.62550457442E+03  0.68222250184E+03  0.19900000000E+03 0.  0.
   -5000001    1    1    2    0    0 -0.18343026360E+03 -0.30395851494E+02 -0.17127937067E+03  0.32172689071E+03  0.19900000000E+03 0.  0.
<mgrwt>
<rscale>  0 0.61077797E+03</rscale>
<asrwt>0</asrwt>
<pdfrwt beam="1">  1        2 0.12862381E+00 0.61077797E+03</pdfrwt>
<pdfrwt beam="2">  1       -2 0.14797532E-01 0.61077797E+03</pdfrwt>
<totfact> 0.11691334E+03</totfact>
</mgrwt>
</event>
<event>
 4    1  0.4917371E-005  0.7329185E+03  0.7818608E-02  0.9662536E-01
          2   -1    0    0  501    0  0.00000000000E+00  0.00000000000E+00  0.16581394465E+04  0.16581394465E+04  0.25500000000E-02 0. -1.
         -2   -1    0    0    0  501 -0.00000000000E+00 -0.00000000000E+00 -0.80989804371E+02  0.80989804411E+02  0.25500000000E-02 0.  1.
    5000001    1    1    2    0    0 -0.17875907640E+03  0.24162191637E+03  0.94517482204E+03  0.10115791625E+04  0.19900000000E+03 0.  0.
   -5000001    1    1    2    0    0  0.17875907640E+03 -0.24162191637E+03  0.63197482007E+03  0.72755008836E+03  0.19900000000E+03 0.  0.
<mgrwt>
<rscale>  0 0.73291852E+03</rscale>
<asrwt>0</asrwt>
<pdfrwt beam="1">  1        2 0.23687706E+00 0.73291852E+03</pdfrwt>
<pdfrwt beam="2">  1       -2 0.11569972E-01 0.73291852E+03</pdfrwt>
<totfact> 0.66077325E+02</totfact>
</mgrwt>
</event>
<event>
 4    1  0.4917371E-005  0.4230204E+03  0.7818608E-02  0.1036088E+00
         -2   -1    0    0    0  501 -0.00000000000E+00  0.00000000000E+00  0.14059817094E+03  0.14059817096E+03  0.25500000000E-02 0. -1.
          2   -1    0    0  501    0  0.00000000000E+00 -0.00000000000E+00 -0.31818733360E+03  0.31818733361E+03  0.25500000000E-02 0.  1.
    5000001    1    1    2    0    0  0.32823169657E+02  0.20929176662E+02 -0.15404941231E+03  0.25465194351E+03  0.19900000000E+03 0.  0.
   -5000001    1    1    2    0    0 -0.32823169657E+02 -0.20929176662E+02 -0.23539750346E+02  0.20413356105E+03  0.19900000000E+03 0.  0.
<mgrwt>
<rscale>  0 0.42302036E+03</rscale>
<asrwt>0</asrwt>
<pdfrwt beam="1">  1        2 0.45455333E-01 0.42302036E+03</pdfrwt>
<pdfrwt beam="2">  1       -2 0.20085453E-01 0.42302036E+03</pdfrwt>
<totfact> 0.23377337E+03</totfact>
</mgrwt>
</event>
<event>
 4    1  0.4917371E-005  0.6842169E+03  0.7818608E-02  0.9744611E-01
         -2   -1    0    0    0  501 -0.00000000000E+00  0.00000000000E+00  0.12006479482E+03  0.12006479484E+03  0.25500000000E-02 0. -1.
          2   -1    0    0  501    0  0.00000000000E+00 -0.00000000000E+00 -0.97479187031E+03  0.97479187032E+03  0.25500000000E-02 0.  1.
    5000001    1    1    2    0    0  0.19540816274E+03  0.16330773869E+03 -0.60686285356E+03  0.68755893610E+03  0.19900000000E+03 0.  0.
   -5000001    1    1    2    0    0 -0.19540816274E+03 -0.16330773869E+03 -0.24786422194E+03  0.40729772906E+03  0.19900000000E+03 0.  0.
<mgrwt>
<rscale>  0 0.68421688E+03</rscale>
<asrwt>0</asrwt>
<pdfrwt beam="1">  1        2 0.13925598E+00 0.68421688E+03</pdfrwt>
<pdfrwt beam="2">  1       -2 0.17152114E-01 0.68421688E+03</pdfrwt>
<totfact> 0.81496370E+02</totfact>
</mgrwt>
</event>
<event>
 4    1  0.4917371E-005  0.8998206E+03  0.7818608E-02  0.9425806E-01
          2   -1    0    0  501    0  0.00000000000E+00  0.00000000000E+00  0.31332330985E+03  0.31332330986E+03  0.25500000000E-02 0.  1.
         -2   -1    0    0    0  501 -0.00000000000E+00 -0.00000000000E+00 -0.64603967996E+03  0.64603967996E+03  0.25500000000E-02 0. -1.
    5000001    1    1    2    0    0 -0.19560988495E+03 -0.34067969074E+03 -0.68105926078E+02  0.44560666056E+03  0.19900000000E+03 0.  0.
   -5000001    1    1    2    0    0  0.19560988495E+03  0.34067969074E+03 -0.26461044403E+03  0.51375632926E+03  0.19900000000E+03 0.  0.
<mgrwt>
<rscale>  0 0.89982063E+03</rscale>
<asrwt>0</asrwt>
<pdfrwt beam="1">  1        2 0.44760473E-01 0.89982063E+03</pdfrwt>
<pdfrwt beam="2">  1       -2 0.92291382E-01 0.89982063E+03</pdfrwt>
<totfact> 0.11370370E+02</totfact>
</mgrwt>
</event>
<event>
 4    1  0.4917371E-005  0.8555639E+03  0.7818608E-02  0.9482900E-01
         -2   -1    0    0    0  501 -0.00000000000E+00  0.00000000000E+00  0.84048366174E+03  0.84048366175E+03  0.25500000000E-02 0. -1.
          2   -1    0    0  501    0  0.00000000000E+00 -0.00000000000E+00 -0.21772866426E+03  0.21772866428E+03  0.25500000000E-02 0.  1.
    5000001    1    1    2    0    0 -0.72048795975E+02  0.21252785404E+03  0.68864452699E+03  0.75112675514E+03  0.19900000000E+03 0.  0.
   -5000001    1    1    2    0    0  0.72048795975E+02 -0.21252785404E+03 -0.65889529507E+02  0.30708557088E+03  0.19900000000E+03 0.  0.
<mgrwt>
<rscale>  0 0.85556387E+03</rscale>
<asrwt>0</asrwt>
<pdfrwt beam="1">  1        2 0.31104095E-01 0.85556387E+03</pdfrwt>
<pdfrwt beam="2">  1       -2 0.12006909E+00 0.85556387E+03</pdfrwt>
<totfact> 0.91052288E+01</totfact>
</mgrwt>
</event>
<event>
 4    1  0.4917371E-005  0.6919068E+03  0.7818608E-02  0.9731174E-01
         -2   -1    0    0    0  501 -0.00000000000E+00  0.00000000000E+00  0.51713116466E+02  0.51713116529E+02  0.25500000000E-02 0. -1.
          2   -1    0    0  501    0  0.00000000000E+00 -0.00000000000E+00 -0.23143789493E+04  0.23143789493E+04  0.25500000000E-02 0.  1.
    5000001    1    1    2    0    0  0.24437645245E+03 -0.12492961846E+03 -0.89551238999E+03  0.95753365513E+03  0.19900000000E+03 0.  0.
   -5000001    1    1    2    0    0 -0.24437645245E+03  0.12492961846E+03 -0.13671534429E+04  0.14085584107E+04  0.19900000000E+03 0.  0.
<mgrwt>
<rscale>  0 0.69190678E+03</rscale>
<asrwt>0</asrwt>
<pdfrwt beam="1">  1        2 0.33062550E+00 0.69190678E+03</pdfrwt>
<pdfrwt beam="2">  1       -2 0.73875895E-02 0.69190678E+03</pdfrwt>
<totfact> 0.63588451E+02</totfact>
</mgrwt>
</event>
<event>
 4    1  0.4917371E-005  0.6915946E+03  0.7818608E-02  0.9731716E-01
         -2   -1    0    0    0  501 -0.00000000000E+00  0.00000000000E+00  0.17275595104E+03  0.17275595106E+03  0.25500000000E-02 0. -1.
          2   -1    0    0  501    0  0.00000000000E+00 -0.00000000000E+00 -0.69216577799E+03  0.69216577800E+03  0.25500000000E-02 0.  1.
    5000001    1    1    2    0    0  0.20003131554E+03  0.10058077758E+03 -0.43648880428E+02  0.30271313942E+03  0.19900000000E+03 0.  0.
   -5000001    1    1    2    0    0 -0.20003131554E+03 -0.10058077758E+03 -0.47576094652E+03  0.56220858963E+03  0.19900000000E+03 0.  0.
<mgrwt>
<rscale>  0 0.69159456E+03</rscale>
<asrwt>0</asrwt>
<pdfrwt beam="1">  1        2 0.98880824E-01 0.69159456E+03</pdfrwt>
<pdfrwt beam="2">  1       -2 0.24679422E-01 0.69159456E+03</pdfrwt>
<totfact> 0.67199041E+02</totfact>
</mgrwt>
</event>
<event>
 4    1  0.4917371E-005  0.8784266E+03  0.7818608E-02  0.9452958E-01
          2   -1    0    0  501    0  0.00000000000E+00  0.00000000000E+00  0.44886907048E+03  0.44886907048E+03  0.25500000000E-02 0.  1.
         -2   -1    0    0    0  501 -0.00000000000E+00 -0.00000000000E+00 -0.42976518937E+03  0.42976518937E+03  0.25500000000E-02 0. -1.
    5000001    1    1    2    0    0  0.33435141004E+03 -0.96934752508E+02 -0.16971122140E+03  0.43541946478E+03  0.19900000000E+03 0.  0.
   -5000001    1    1    2    0    0 -0.33435141004E+03  0.96934752508E+02  0.18881510251E+03  0.44321479508E+03  0.19900000000E+03 0.  0.
<mgrwt>
<rscale>  0 0.87842655E+03</rscale>
<asrwt>0</asrwt>
<pdfrwt beam="1">  1        2 0.64124153E-01 0.87842655E+03</pdfrwt>
<pdfrwt beam="2">  1       -2 0.61395027E-01 0.87842655E+03</pdfrwt>
<totfact> 0.18815944E+02</totfact>
</mgrwt>
</event>
<event>
 4    1  0.4917371E-005  0.9801426E+03  0.7818608E-02  0.9330596E-01
         -2   -1    0    0    0  501 -0.00000000000E+00  0.00000000000E+00  0.85672982439E+02  0.85672982477E+02  0.25500000000E-02 0. -1.
          2   -1    0    0  501    0  0.00000000000E+00 -0.00000000000E+00 -0.28033329953E+04  0.28033329953E+04  0.25500000000E-02 0.  1.
    5000001    1    1    2    0    0 -0.33370292353E+03 -0.20224064807E+03 -0.71097536327E+03  0.83507238494E+03  0.19900000000E+03 0.  0.
   -5000001    1    1    2    0    0  0.33370292353E+03  0.20224064807E+03 -0.20066846496E+04  0.20539335929E+04  0.19900000000E+03 0.  0.
<mgrwt>
<rscale>  0 0.98014264E+03</rscale>
<asrwt>0</asrwt>
<pdfrwt beam="1">  1        2 0.40047608E+00 0.98014264E+03</pdfrwt>
<pdfrwt beam="2">  1       -2 0.12238999E-01 0.98014264E+03</pdfrwt>
<totfact> 0.15204196E+02</totfact>
</mgrwt>
</event>
<event>
 4    1  0.4917371E-005  0.1166939E+04  0.7818608E-02  0.9142297E-01
          2   -1    0    0  501    0  0.00000000000E+00  0.00000000000E+00  0.14538642251E+04  0.14538642251E+04  0.25500000000E-02 0.  1.
         -2   -1    0    0    0  501 -0.00000000000E+00 -0.00000000000E+00 -0.23415995284E+03  0.23415995286E+03  0.25500000000E-02 0. -1.
    5000001    1    1    2    0    0 -0.31205594088E+03 -0.42978797052E+03  0.41183371654E+03  0.70093125192E+03  0.19900000000E+03 0.  0.
   -5000001    1    1    2    0    0  0.31205594088E+03  0.42978797052E+03  0.80787055572E+03  0.98709292604E+03  0.19900000000E+03 0.  0.
<mgrwt>
<rscale>  0 0.11669392E+04</rscale>
<asrwt>0</asrwt>
<pdfrwt beam="1">  1        2 0.20769489E+00 0.11669392E+04</pdfrwt>
<pdfrwt beam="2">  1       -2 0.33451422E-01 0.11669392E+04</pdfrwt>
<totfact> 0.12763518E+02</totfact>
</mgrwt>
</event>
<event>
 4    1  0.4917371E-005  0.6432910E+03  0.7818608E-02  0.9819450E-01
         -2   -1    0    0    0  501 -0.00000000000E+00  0.00000000000E+00  0.84374085994E+02  0.84374086033E+02  0.25500000000E-02 0. -1.
          2   -1    0    0  501    0  0.00000000000E+00 -0.00000000000E+00 -0.12261565948E+04  0.12261565948E+04  0.25500000000E-02 0.  1.
    5000001    1    1    2    0    0  0.19215959963E+02  0.25131813552E+03 -0.53417682713E+03  0.62327838163E+03  0.19900000000E+03 0.  0.
   -5000001    1    1    2    0    0 -0.19215959963E+02 -0.25131813552E+03 -0.60760568165E+03  0.68725229919E+03  0.19900000000E+03 0.  0.
<mgrwt>
<rscale>  0 0.64329104E+03</rscale>
<asrwt>0</asrwt>
<pdfrwt beam="1">  1        2 0.17516522E+00 0.64329104E+03</pdfrwt>
<pdfrwt beam="2">  1       -2 0.12053442E-01 0.64329104E+03</pdfrwt>
<totfact> 0.10517720E+03</totfact>
</mgrwt>
</event>
<event>
 4    1  0.4917371E-005  0.6000974E+03  0.7818608E-02  0.9905204E-01
         -2   -1    0    0    0  501 -0.00000000000E+00  0.00000000000E+00  0.80236461375E+02  0.80236461415E+02  0.25500000000E-02 0. -1.
          2   -1    0    0  501    0  0.00000000000E+00 -0.00000000000E+00 -0.11220488125E+04  0.11220488125E+04  0.25500000000E-02 0.  1.
    5000001    1    1    2    0    0 -0.70272038381E+02 -0.17595782260E+03 -0.76239793336E+03  0.81040170502E+03  0.19900000000E+03 0.  0.
   -5000001    1    1    2    0    0  0.70272038381E+02  0.17595782260E+03 -0.27941441775E+03  0.39188356888E+03  0.19900000000E+03 0.  0.
<mgrwt>
<rscale>  0 0.60009741E+03</rscale>
<asrwt>0</asrwt>
<pdfrwt beam="1">  1        2 0.16029268E+00 0.60009741E+03</pdfrwt>
<pdfrwt beam="2">  1       -2 0.11462352E-01 0.60009741E+03</pdfrwt>
<totfact> 0.13101860E+03</totfact>
</mgrwt>
</event>
<event>
 4    1  0.4917371E-005  0.4930778E+03  0.7818608E-02  0.1015602E+00
         -2   -1    0    0    0  501 -0.00000000000E+00  0.00000000000E+00  0.42713137036E+02  0.42713137113E+02  0.25500000000E-02 0. -1.
          2   -1    0    0  501    0  0.00000000000E+00 -0.00000000000E+00 -0.14230147386E+04  0.14230147386E+04  0.25500000000E-02 0.  1.
    5000001    1    1    2    0    0  0.79001313228E+02 -0.12006190486E+03 -0.62208159757E+03  0.66876197748E+03  0.19900000000E+03 0.  0.
   -5000001    1    1    2    0    0 -0.79001313228E+02  0.12006190486E+03 -0.75822000401E+03  0.79696589825E+03  0.19900000000E+03 0.  0.
<mgrwt>
<rscale>  0 0.49307778E+03</rscale>
<asrwt>0</asrwt>
<pdfrwt beam="1">  1        2 0.20328779E+00 0.49307778E+03</pdfrwt>
<pdfrwt beam="2">  1       -2 0.61018776E-02 0.49307778E+03</pdfrwt>
<totfact> 0.24590304E+03</totfact>
</mgrwt>
</event>
<event>
 4    1  0.4917371E-005  0.5676695E+03  0.7818608E-02  0.9974849E-01
         -2   -1    0    0    0  501 -0.00000000000E+00  0.00000000000E+00  0.21163062186E+03  0.21163062188E+03  0.25500000000E-02 0. -1.
          2   -1    0    0  501    0  0.00000000000E+00 -0.00000000000E+00 -0.38067351983E+03  0.38067351983E+03  0.25500000000E-02 0.  1.
    5000001    1    1    2    0    0 -0.72739697195E+02  0.17124107275E+03 -0.13986943284E+01  0.27242893549E+03  0.19900000000E+03 0.  0.
   -5000001    1    1    2    0    0  0.72739697195E+02 -0.17124107275E+03 -0.16764420364E+03  0.31987520622E+03  0.19900000000E+03 0.  0.
<mgrwt>
<rscale>  0 0.56766953E+03</rscale>
<asrwt>0</asrwt>
<pdfrwt beam="1">  1        2 0.54381931E-01 0.56766953E+03</pdfrwt>
<pdfrwt beam="2">  1       -2 0.30232946E-01 0.56766953E+03</pdfrwt>
<totfact> 0.92612943E+02</totfact>
</mgrwt>
</event>
<event>
 4    1  0.4917371E-005  0.1279496E+04  0.7818608E-02  0.9045985E-01
          2   -1    0    0  501    0  0.00000000000E+00  0.00000000000E+00  0.17762719784E+04  0.17762719784E+04  0.25500000000E-02 0.  1.
         -2   -1    0    0    0  501 -0.00000000000E+00 -0.00000000000E+00 -0.23041367522E+03  0.23041367523E+03  0.25500000000E-02 0. -1.
    5000001    1    1    2    0    0  0.58470997450E+03  0.16341026490E+03  0.72120513802E+03  0.96349702650E+03  0.19900000000E+03 0.  0.
   -5000001    1    1    2    0    0 -0.58470997450E+03 -0.16341026490E+03  0.82465316514E+03  0.10431886271E+04  0.19900000000E+03 0.  0.
<mgrwt>
<rscale>  0 0.12794958E+04</rscale>
<asrwt>0</asrwt>
<pdfrwt beam="1">  1        2 0.25375314E+00 0.12794958E+04</pdfrwt>
<pdfrwt beam="2">  1       -2 0.32916240E-01 0.12794958E+04</pdfrwt>
<totfact> 0.88490867E+01</totfact>
</mgrwt>
</event>
<event>
 4    1  0.4917371E-005  0.5108446E+03  0.7818608E-02  0.1010986E+00
          2   -1    0    0  501    0  0.00000000000E+00  0.00000000000E+00  0.90495966134E+03  0.90495966134E+03  0.25500000000E-02 0.  1.
         -2   -1    0    0    0  501 -0.00000000000E+00 -0.00000000000E+00 -0.72092211037E+02  0.72092211083E+02  0.25500000000E-02 0. -1.
    5000001    1    1    2    0    0 -0.13273143565E+03 -0.89553829552E+02  0.41371503504E+03  0.48620844564E+03  0.19900000000E+03 0.  0.
   -5000001    1    1    2    0    0  0.13273143565E+03  0.89553829552E+02  0.41915241527E+03  0.49084342679E+03  0.19900000000E+03 0.  0.
<mgrwt>
<rscale>  0 0.51084457E+03</rscale>
<asrwt>0</asrwt>
<pdfrwt beam="1">  1        2 0.12927995E+00 0.51084457E+03</pdfrwt>
<pdfrwt beam="2">  1       -2 0.10298887E-01 0.51084457E+03</pdfrwt>
<totfact> 0.21131849E+03</totfact>
</mgrwt>
</event>
<event>
 4    1  0.4917371E-005  0.6057885E+03  0.7818608E-02  0.9893469E-01
         -2   -1    0    0    0  501 -0.00000000000E+00  0.00000000000E+00  0.22603839967E+02  0.22603840110E+02  0.25500000000E-02 0. -1.
          2   -1    0    0  501    0  0.00000000000E+00 -0.00000000000E+00 -0.40588200083E+04  0.40588200083E+04  0.25500000000E-02 0.  1.
    5000001    1    1    2    0    0 -0.56786499021E+02 -0.21354058184E+03 -0.16299258622E+04  0.16568293825E+04  0.19900000000E+03 0.  0.
   -5000001    1    1    2    0    0  0.56786499021E+02  0.21354058184E+03 -0.24062903062E+04  0.24245944659E+04  0.19900000000E+03 0.  0.
<mgrwt>
<rscale>  0 0.60578847E+03</rscale>
<asrwt>0</asrwt>
<pdfrwt beam="1">  1        2 0.57983096E+00 0.60578847E+03</pdfrwt>
<pdfrwt beam="2">  1       -2 0.32291226E-02 0.60578847E+03</pdfrwt>
<totfact> 0.23350630E+02</totfact>
</mgrwt>
</event>
<event>
 4    1  0.4917371E-005  0.5822831E+03  0.7818608E-02  0.9942860E-01
         -2   -1    0    0    0  501 -0.00000000000E+00  0.00000000000E+00  0.80852623508E+03  0.80852623509E+03  0.25500000000E-02 0. -1.
          2   -1    0    0  501    0  0.00000000000E+00 -0.00000000000E+00 -0.10483691008E+03  0.10483691011E+03  0.25500000000E-02 0.  1.
    5000001    1    1    2    0    0 -0.52044062923E+02  0.17894903966E+03  0.51204864759E+03  0.58010874910E+03  0.19900000000E+03 0.  0.
   -5000001    1    1    2    0    0  0.52044062923E+02 -0.17894903966E+03  0.19164067741E+03  0.33325439610E+03  0.19900000000E+03 0.  0.
<mgrwt>
<rscale>  0 0.58228307E+03</rscale>
<asrwt>0</asrwt>
<pdfrwt beam="1">  1        2 0.14976701E-01 0.58228307E+03</pdfrwt>
<pdfrwt beam="2">  1       -2 0.11550375E+00 0.58228307E+03</pdfrwt>
<totfact> 0.23739858E+02</totfact>
</mgrwt>
</event>
<event>
 4    1  0.4917371E-005  0.5285991E+03  0.7818608E-02  0.1006572E+00
          2   -1    0    0  501    0  0.00000000000E+00  0.00000000000E+00  0.19133834960E+04  0.19133834960E+04  0.25500000000E-02 0.  1.
         -2   -1    0    0    0  501 -0.00000000000E+00 -0.00000000000E+00 -0.36508229034E+02  0.36508229123E+02  0.25500000000E-02 0. -1.
    5000001    1    1    2    0    0 -0.93969865997E+02 -0.63171475513E+01  0.39902833007E+03  0.45573550472E+03  0.19900000000E+03 0.  0.
   -5000001    1    1    2    0    0  0.93969865997E+02  0.63171475513E+01  0.14778469369E+04  0.14941562204E+04  0.19900000000E+03 0.  0.
<mgrwt>
<rscale>  0 0.52859907E+03</rscale>
<asrwt>0</asrwt>
<pdfrwt beam="1">  1        2 0.27334053E+00 0.52859907E+03</pdfrwt>
<pdfrwt beam="2">  1       -2 0.52154607E-02 0.52859907E+03</pdfrwt>
<totfact> 0.17650270E+03</totfact>
</mgrwt>
</event>
<event>
 4    1  0.4917371E-005  0.8938270E+03  0.7818608E-02  0.9433331E-01
         -2   -1    0    0    0  501 -0.00000000000E+00  0.00000000000E+00  0.69903952640E+03  0.69903952640E+03  0.25500000000E-02 0. -1.
          2   -1    0    0  501    0  0.00000000000E+00 -0.00000000000E+00 -0.28572303631E+03  0.28572303632E+03  0.25500000000E-02 0.  1.
    5000001    1    1    2    0    0 -0.26693001248E+03  0.15597418758E+02 -0.12134835829E+03  0.35471303204E+03  0.19900000000E+03 0.  0.
   -5000001    1    1    2    0    0  0.26693001248E+03 -0.15597418758E+02  0.53466484837E+03  0.63004953069E+03  0.19900000000E+03 0.  0.
<mgrwt>
<rscale>  0 0.89382704E+03</rscale>
<asrwt>0</asrwt>
<pdfrwt beam="1">  1        2 0.40817576E-01 0.89382704E+03</pdfrwt>
<pdfrwt beam="2">  1       -2 0.99862790E-01 0.89382704E+03</pdfrwt>
<totfact> 0.10475054E+02</totfact>
</mgrwt>
</event>
<event>
 4    1  0.4917371E-005  0.7749200E+03  0.7818608E-02  0.9597046E-01
          2   -1    0    0  501    0  0.00000000000E+00  0.00000000000E+00  0.27386001068E+03  0.27386001069E+03  0.25500000000E-02 0.  1.
         -2   -1    0    0    0  501 -0.00000000000E+00 -0.00000000000E+00 -0.54818241153E+03  0.54818241153E+03  0.25500000000E-02 0. -1.
    5000001    1    1    2    0    0  0.24435703021E+03  0.19436492218E+03 -0.16042217563E+02  0.37060279806E+03  0.19900000000E+03 0.  0.
   -5000001    1    1    2    0    0 -0.24435703021E+03 -0.19436492218E+03 -0.25828018329E+03  0.45143962416E+03  0.19900000000E+03 0.  0.
<mgrwt>
<rscale>  0 0.77491997E+03</rscale>
<asrwt>0</asrwt>
<pdfrwt beam="1">  1        2 0.39122859E-01 0.77491997E+03</pdfrwt>
<pdfrwt beam="2">  1       -2 0.78311773E-01 0.77491997E+03</pdfrwt>
<totfact> 0.19298465E+02</totfact>
</mgrwt>
</event>
<event>
 4    1  0.4917371E-005  0.5677367E+03  0.7818608E-02  0.9974699E-01
         -2   -1    0    0    0  501 -0.00000000000E+00  0.00000000000E+00  0.17102515369E+03  0.17102515371E+03  0.25500000000E-02 0. -1.
          2   -1    0    0  501    0  0.00000000000E+00 -0.00000000000E+00 -0.47116603473E+03  0.47116603473E+03  0.25500000000E-02 0.  1.
    5000001    1    1    2    0    0  0.16399302578E+03 -0.11863955125E+03 -0.15385391990E+03  0.32286387889E+03  0.19900000000E+03 0.  0.
   -5000001    1    1    2    0    0 -0.16399302578E+03  0.11863955125E+03 -0.14628696114E+03  0.31932730955E+03  0.19900000000E+03 0.  0.
<mgrwt>
<rscale>  0 0.56773671E+03</rscale>
<asrwt>0</asrwt>
<pdfrwt beam="1">  1        2 0.67309433E-01 0.56773671E+03</pdfrwt>
<pdfrwt beam="2">  1       -2 0.24432165E-01 0.56773671E+03</pdfrwt>
<totfact> 0.10751334E+03</totfact>
</mgrwt>
</event>
<event>
 4    1  0.4917371E-005  0.1448689E+04  0.7818608E-02  0.8919310E-01
          2   -1    0    0  501    0  0.00000000000E+00  0.00000000000E+00  0.35961990211E+04  0.35961990211E+04  0.25500000000E-02 0.  1.
         -2   -1    0    0    0  501 -0.00000000000E+00 -0.00000000000E+00 -0.14589703822E+03  0.14589703824E+03  0.25500000000E-02 0. -1.
    5000001    1    1    2    0    0 -0.52963969545E+03 -0.45226027830E+03  0.17355540716E+04  0.18806399181E+04  0.19900000000E+03 0.  0.
   -5000001    1    1    2    0    0  0.52963969545E+03  0.45226027830E+03  0.17147479113E+04  0.18614561412E+04  0.19900000000E+03 0.  0.
<mgrwt>
<rscale>  0 0.14486888E+04</rscale>
<asrwt>0</asrwt>
<pdfrwt beam="1">  1        2 0.51374274E+00 0.14486888E+04</pdfrwt>
<pdfrwt beam="2">  1       -2 0.20842433E-01 0.14486888E+04</pdfrwt>
<totfact> 0.20495163E+01</totfact>
</mgrwt>
</event>
<event>
 4    1  0.4917371E-005  0.1053018E+04  0.7818608E-02  0.9252234E-01
         -2   -1    0    0    0  501 -0.00000000000E+00  0.00000000000E+00  0.11730538317E+03  0.11730538319E+03  0.25500000000E-02 0. -1.
          2   -1    0    0  501    0  0.00000000000E+00 -0.00000000000E+00 -0.23631629610E+04  0.23631629610E+04  0.25500000000E-02 0.  1.
    5000001    1    1    2    0    0  0.42143204332E+03 -0.38294260696E+01 -0.54597461804E+03  0.71785020386E+03  0.19900000000E+03 0.  0.
   -5000001    1    1    2    0    0 -0.42143204332E+03  0.38294260696E+01 -0.16998829598E+04  0.17626181403E+04  0.19900000000E+03 0.  0.
<mgrwt>
<rscale>  0 0.10530180E+04</rscale>
<asrwt>0</asrwt>
<pdfrwt beam="1">  1        2 0.33759468E+00 0.10530180E+04</pdfrwt>
<pdfrwt beam="2">  1       -2 0.16757913E-01 0.10530180E+04</pdfrwt>
<totfact> 0.15137816E+02</totfact>
</mgrwt>
</event>
<event>
 4    1  0.4917371E-005  0.7323348E+03  0.7818608E-02  0.9663479E-01
         -2   -1    0    0    0  501 -0.00000000000E+00  0.00000000000E+00  0.51045484201E+02  0.51045484265E+02  0.25500000000E-02 0. -1.
          2   -1    0    0  501    0  0.00000000000E+00 -0.00000000000E+00 -0.26266485571E+04  0.26266485571E+04  0.25500000000E-02 0.  1.
    5000001    1    1    2    0    0  0.25003342072E+03  0.15544983023E+03 -0.96495776437E+03  0.10283121356E+04  0.19900000000E+03 0.  0.
   -5000001    1    1    2    0    0 -0.25003342072E+03 -0.15544983023E+03 -0.16106453085E+04  0.16493819058E+04  0.19900000000E+03 0.  0.
<mgrwt>
<rscale>  0 0.73233475E+03</rscale>
<asrwt>0</asrwt>
<pdfrwt beam="1">  1        2 0.37523542E+00 0.73233475E+03</pdfrwt>
<pdfrwt beam="2">  1       -2 0.72922137E-02 0.73233475E+03</pdfrwt>
<totfact> 0.44686044E+02</totfact>
</mgrwt>
</event>
<event>
 4    1  0.4917371E-005  0.7298873E+03  0.7818608E-02  0.9667443E-01
         -2   -1    0    0    0  501 -0.00000000000E+00  0.00000000000E+00  0.15269942356E+03  0.15269942358E+03  0.25500000000E-02 0. -1.
          2   -1    0    0  501    0  0.00000000000E+00 -0.00000000000E+00 -0.87219622804E+03  0.87219622804E+03  0.25500000000E-02 0.  1.
    5000001    1    1    2    0    0 -0.11541514892E+03 -0.27472516337E+03 -0.26258246509E+03  0.44423543641E+03  0.19900000000E+03 0.  0.
   -5000001    1    1    2    0    0  0.11541514892E+03  0.27472516337E+03 -0.45691433939E+03  0.58066021521E+03  0.19900000000E+03 0.  0.
<mgrwt>
<rscale>  0 0.72988728E+03</rscale>
<asrwt>0</asrwt>
<pdfrwt beam="1">  1        2 0.12459946E+00 0.72988728E+03</pdfrwt>
<pdfrwt beam="2">  1       -2 0.21814204E-01 0.72988728E+03</pdfrwt>
<totfact> 0.62305367E+02</totfact>
</mgrwt>
</event>
<event>
 4    1  0.4917371E-005  0.4710764E+03  0.7818608E-02  0.1021617E+00
         -2   -1    0    0    0  501 -0.00000000000E+00  0.00000000000E+00  0.68070346504E+02  0.68070346552E+02  0.25500000000E-02 0. -1.
          2   -1    0    0  501    0  0.00000000000E+00 -0.00000000000E+00 -0.81501338268E+03  0.81501338269E+03  0.25500000000E-02 0.  1.
    5000001    1    1    2    0    0 -0.35092374010E+02 -0.99339273005E+02 -0.24389990595E+03  0.33194567326E+03  0.19900000000E+03 0.  0.
   -5000001    1    1    2    0    0  0.35092374010E+02  0.99339273005E+02 -0.50304313023E+03  0.55113805598E+03  0.19900000000E+03 0.  0.
<mgrwt>
<rscale>  0 0.47107640E+03</rscale>
<asrwt>0</asrwt>
<pdfrwt beam="1">  1        2 0.11643048E+00 0.47107640E+03</pdfrwt>
<pdfrwt beam="2">  1       -2 0.97243357E-02 0.47107640E+03</pdfrwt>
<totfact> 0.26565944E+03</totfact>
</mgrwt>
</event>
<event>
 4    1  0.4917371E-005  0.1426526E+04  0.7818608E-02  0.8934838E-01
          2   -1    0    0  501    0  0.00000000000E+00  0.00000000000E+00  0.15296666202E+04  0.15296666202E+04  0.25500000000E-02 0.  1.
         -2   -1    0    0    0  501 -0.00000000000E+00 -0.00000000000E+00 -0.33258518224E+03  0.33258518225E+03  0.25500000000E-02 0. -1.
    5000001    1    1    2    0    0  0.28392753371E+03  0.23406288315E+03  0.13527029184E+04  0.14159118839E+04  0.19900000000E+03 0.  0.
   -5000001    1    1    2    0    0 -0.28392753371E+03 -0.23406288315E+03 -0.15562148044E+03  0.44633991850E+03  0.19900000000E+03 0.  0.
<mgrwt>
<rscale>  0 0.14265265E+04</rscale>
<asrwt>0</asrwt>
<pdfrwt beam="1">  1        2 0.21852381E+00 0.14265265E+04</pdfrwt>
<pdfrwt beam="2">  1       -2 0.47512168E-01 0.14265265E+04</pdfrwt>
<totfact> 0.57536550E+01</totfact>
</mgrwt>
</event>
<event>
 4    1  0.4917371E-005  0.7854304E+03  0.7818608E-02  0.9581349E-01
         -2   -1    0    0    0  501 -0.00000000000E+00  0.00000000000E+00  0.42516628796E+03  0.42516628797E+03  0.25500000000E-02 0. -1.
          2   -1    0    0  501    0  0.00000000000E+00 -0.00000000000E+00 -0.36274092123E+03  0.36274092124E+03  0.25500000000E-02 0.  1.
    5000001    1    1    2    0    0  0.26842442065E+03 -0.20258442261E+03  0.70478078208E+02  0.39706457585E+03  0.19900000000E+03 0.  0.
   -5000001    1    1    2    0    0 -0.26842442065E+03  0.20258442261E+03 -0.80527114818E+01  0.39084263336E+03  0.19900000000E+03 0.  0.
<mgrwt>
<rscale>  0 0.78543036E+03</rscale>
<asrwt>0</asrwt>
<pdfrwt beam="1">  1        2 0.51820131E-01 0.78543036E+03</pdfrwt>
<pdfrwt beam="2">  1       -2 0.60738041E-01 0.78543036E+03</pdfrwt>
<totfact> 0.24533002E+02</totfact>
</mgrwt>
</event>
<event>
 4    1  0.4917371E-005  0.6498772E+03  0.7818608E-02  0.9807010E-01
         -2   -1    0    0    0  501 -0.00000000000E+00  0.00000000000E+00  0.55782094994E+02  0.55782095053E+02  0.25500000000E-02 0. -1.
          2   -1    0    0  501    0  0.00000000000E+00 -0.00000000000E+00 -0.18928135070E+04  0.18928135070E+04  0.25500000000E-02 0.  1.
    5000001    1    1    2    0    0 -0.16952083494E+03  0.60925955558E+02 -0.14675991782E+04  0.14919442461E+04  0.19900000000E+03 0.  0.
   -5000001    1    1    2    0    0  0.16952083494E+03 -0.60925955558E+02 -0.36943223377E+03  0.45665135594E+03  0.19900000000E+03 0.  0.
<mgrwt>
<rscale>  0 0.64987723E+03</rscale>
<asrwt>0</asrwt>
<pdfrwt beam="1">  1        2 0.27040189E+00 0.64987723E+03</pdfrwt>
<pdfrwt beam="2">  1       -2 0.79688719E-02 0.64987723E+03</pdfrwt>
<totfact> 0.92271111E+02</totfact>
</mgrwt>
</event>
<event>
 4    1  0.4917371E-005  0.5692529E+03  0.7818608E-02  0.9971333E-01
          2   -1    0    0  501    0  0.00000000000E+00  0.00000000000E+00  0.12394778484E+03  0.12394778486E+03  0.25500000000E-02 0.  1.
         -2   -1    0    0    0  501 -0.00000000000E+00 -0.00000000000E+00 -0.65359962116E+03  0.65359962117E+03  0.25500000000E-02 0. -1.
    5000001    1    1    2    0    0 -0.43651259101E+02  0.17741449863E+03 -0.38722449194E+03  0.47214949318E+03  0.19900000000E+03 0.  0.
   -5000001    1    1    2    0    0  0.43651259101E+02 -0.17741449863E+03 -0.14242734438E+03  0.30539791285E+03  0.19900000000E+03 0.  0.
<mgrwt>
<rscale>  0 0.56925293E+03</rscale>
<asrwt>0</asrwt>
<pdfrwt beam="1">  1        2 0.17706827E-01 0.56925293E+03</pdfrwt>
<pdfrwt beam="2">  1       -2 0.93371372E-01 0.56925293E+03</pdfrwt>
<totfact> 0.32211294E+02</totfact>
</mgrwt>
</event>
<event>
 4    1  0.4917371E-005  0.8556790E+03  0.7818608E-02  0.9482746E-01
          2   -1    0    0  501    0  0.00000000000E+00  0.00000000000E+00  0.51063082088E+03  0.51063082088E+03  0.25500000000E-02 0.  1.
         -2   -1    0    0    0  501 -0.00000000000E+00 -0.00000000000E+00 -0.35847155009E+03  0.35847155010E+03  0.25500000000E-02 0. -1.
    5000001    1    1    2    0    0 -0.15162839902E+03 -0.33646875810E+03  0.16252188837E+03  0.44968517962E+03  0.19900000000E+03 0.  0.
   -5000001    1    1    2    0    0  0.15162839902E+03  0.33646875810E+03 -0.10362617579E+02  0.41941719136E+03  0.19900000000E+03 0.  0.
<mgrwt>
<rscale>  0 0.85567896E+03</rscale>
<asrwt>0</asrwt>
<pdfrwt beam="1">  1        2 0.72947260E-01 0.85567896E+03</pdfrwt>
<pdfrwt beam="2">  1       -2 0.51210222E-01 0.85567896E+03</pdfrwt>
<totfact> 0.23724108E+02</totfact>
</mgrwt>
</event>
<event>
 4    1  0.4917371E-005  0.4391523E+03  0.7818608E-02  0.1031007E+00
          2   -1    0    0  501    0  0.00000000000E+00  0.00000000000E+00  0.14605055574E+04  0.14605055574E+04  0.25500000000E-02 0.  1.
         -2   -1    0    0    0  501 -0.00000000000E+00 -0.00000000000E+00 -0.33011637894E+02  0.33011637992E+02  0.25500000000E-02 0. -1.
    5000001    1    1    2    0    0  0.21604622852E+02  0.84270063872E+02  0.60383509219E+03  0.64170555706E+03  0.19900000000E+03 0.  0.
   -5000001    1    1    2    0    0 -0.21604622852E+02 -0.84270063872E+02  0.82365882727E+03  0.85181163829E+03  0.19900000000E+03 0.  0.
<mgrwt>
<rscale>  0 0.43915228E+03</rscale>
<asrwt>0</asrwt>
<pdfrwt beam="1">  1        2 0.20864360E+00 0.43915228E+03</pdfrwt>
<pdfrwt beam="2">  1       -2 0.47159493E-02 0.43915228E+03</pdfrwt>
<totfact> 0.35041245E+03</totfact>
</mgrwt>
</event>
<event>
 4    1  0.4917371E-005  0.1161213E+04  0.7818608E-02  0.9147501E-01
          2   -1    0    0  501    0  0.00000000000E+00  0.00000000000E+00  0.17521942515E+04  0.17521942515E+04  0.25500000000E-02 0.  1.
         -2   -1    0    0    0  501 -0.00000000000E+00 -0.00000000000E+00 -0.19238965916E+03  0.19238965917E+03  0.25500000000E-02 0. -1.
    5000001    1    1    2    0    0 -0.53955914738E+03 -0.17252383070E+02  0.91049359005E+03  0.10770428477E+04  0.19900000000E+03 0.  0.
   -5000001    1    1    2    0    0  0.53955914738E+03  0.17252383070E+02  0.64931100225E+03  0.86754106294E+03  0.19900000000E+03 0.  0.
<mgrwt>
<rscale>  0 0.11612133E+04</rscale>
<asrwt>0</asrwt>
<pdfrwt beam="1">  1        2 0.25031344E+00 0.11612133E+04</pdfrwt>
<pdfrwt beam="2">  1       -2 0.27484239E-01 0.11612133E+04</pdfrwt>
<totfact> 0.12849308E+02</totfact>
</mgrwt>
</event>
<event>
 4    1  0.4917371E-005  0.4830373E+03  0.7818608E-02  0.1018304E+00
          2   -1    0    0  501    0  0.00000000000E+00  0.00000000000E+00  0.58008606692E+03  0.58008606693E+03  0.25500000000E-02 0.  1.
         -2   -1    0    0    0  501 -0.00000000000E+00 -0.00000000000E+00 -0.10055621542E+03  0.10055621545E+03  0.25500000000E-02 0. -1.
    5000001    1    1    2    0    0  0.72003448956E+02  0.10003291040E+03  0.32359301336E+03  0.39938016741E+03  0.19900000000E+03 0.  0.
   -5000001    1    1    2    0    0 -0.72003448956E+02 -0.10003291040E+03  0.15593683815E+03  0.28126211497E+03  0.19900000000E+03 0.  0.
<mgrwt>
<rscale>  0 0.48303731E+03</rscale>
<asrwt>0</asrwt>
<pdfrwt beam="1">  1        2 0.82869437E-01 0.48303731E+03</pdfrwt>
<pdfrwt beam="2">  1       -2 0.14365174E-01 0.48303731E+03</pdfrwt>
<totfact> 0.21178874E+03</totfact>
</mgrwt>
</event>
<event>
 4    1  0.4917371E-005  0.6017157E+03  0.7818608E-02  0.9901853E-01
         -2   -1    0    0    0  501 -0.00000000000E+00  0.00000000000E+00  0.15784146532E+04  0.15784146532E+04  0.25500000000E-02 0. -1.
          2   -1    0    0  501    0  0.00000000000E+00 -0.00000000000E+00 -0.57345801369E+02  0.57345801426E+02  0.25500000000E-02 0.  1.
    5000001    1    1    2    0    0 -0.11287853112E+03 -0.18673404427E+03  0.60429108816E+03  0.67259191588E+03  0.19900000000E+03 0.  0.
   -5000001    1    1    2    0    0  0.11287853112E+03  0.18673404427E+03  0.91677776368E+03  0.96316853876E+03  0.19900000000E+03 0.  0.
<mgrwt>
<rscale>  0 0.60171572E+03</rscale>
<asrwt>0</asrwt>
<pdfrwt beam="1">  1        2 0.81922575E-02 0.60171572E+03</pdfrwt>
<pdfrwt beam="2">  1       -2 0.22548780E+00 0.60171572E+03</pdfrwt>
<totfact> 0.80907793E+01</totfact>
</mgrwt>
</event>
<event>
 4    1  0.4917371E-005  0.7089724E+03  0.7818608E-02  0.9702010E-01
         -2   -1    0    0    0  501 -0.00000000000E+00  0.00000000000E+00  0.88096008080E+03  0.88096008081E+03  0.25500000000E-02 0. -1.
          2   -1    0    0  501    0  0.00000000000E+00 -0.00000000000E+00 -0.14264036242E+03  0.14264036245E+03  0.25500000000E-02 0.  1.
    5000001    1    1    2    0    0 -0.24813570145E+03 -0.62506243635E+02  0.57628628831E+03  0.66119985097E+03  0.19900000000E+03 0.  0.
   -5000001    1    1    2    0    0  0.24813570145E+03  0.62506243635E+02  0.16203343007E+03  0.36240059229E+03  0.19900000000E+03 0.  0.
<mgrwt>
<rscale>  0 0.70897240E+03</rscale>
<asrwt>0</asrwt>
<pdfrwt beam="1">  1        2 0.20377194E-01 0.70897240E+03</pdfrwt>
<pdfrwt beam="2">  1       -2 0.12585144E+00 0.70897240E+03</pdfrwt>
<totfact> 0.13246992E+02</totfact>
</mgrwt>
</event>
<event>
 4    1  0.4917371E-005  0.5063125E+03  0.7818608E-02  0.1012144E+00
         -2   -1    0    0    0  501 -0.00000000000E+00  0.00000000000E+00  0.55915195444E+03  0.55915195445E+03  0.25500000000E-02 0. -1.
          2   -1    0    0  501    0  0.00000000000E+00 -0.00000000000E+00 -0.11461657831E+03  0.11461657834E+03  0.25500000000E-02 0.  1.
    5000001    1    1    2    0    0 -0.77547356307E+01  0.15627378786E+03  0.21916074230E+03  0.33483438244E+03  0.19900000000E+03 0.  0.
   -5000001    1    1    2    0    0  0.77547356307E+01 -0.15627378786E+03  0.22537463383E+03  0.33893415035E+03  0.19900000000E+03 0.  0.
<mgrwt>
<rscale>  0 0.50631249E+03</rscale>
<asrwt>0</asrwt>
<pdfrwt beam="1">  1        2 0.16373797E-01 0.50631249E+03</pdfrwt>
<pdfrwt beam="2">  1       -2 0.79878849E-01 0.50631249E+03</pdfrwt>
<totfact> 0.50451601E+02</totfact>
</mgrwt>
</event>
<event>
 4    1  0.4917371E-005  0.5484187E+03  0.7818608E-02  0.1001861E+00
          2   -1    0    0  501    0  0.00000000000E+00  0.00000000000E+00  0.57541674454E+02  0.57541674510E+02  0.25500000000E-02 0.  1.
         -2   -1    0    0    0  501 -0.00000000000E+00 -0.00000000000E+00 -0.13067183312E+04  0.13067183312E+04  0.25500000000E-02 0. -1.
    5000001    1    1    2    0    0  0.16444780565E+03  0.89320394820E+02 -0.56527283413E+03  0.62781811914E+03  0.19900000000E+03 0.  0.
   -5000001    1    1    2    0    0 -0.16444780565E+03 -0.89320394820E+02 -0.68390382262E+03  0.73644188658E+03  0.19900000000E+03 0.  0.
<mgrwt>
<rscale>  0 0.54841868E+03</rscale>
<asrwt>0</asrwt>
<pdfrwt beam="1">  1        2 0.82202401E-02 0.54841868E+03</pdfrwt>
<pdfrwt beam="2">  1       -2 0.18667403E+00 0.54841868E+03</pdfrwt>
<totfact> 0.14295861E+02</totfact>
</mgrwt>
</event>
<event>
 4    1  0.4917371E-005  0.5388113E+03  0.7818608E-02  0.1004117E+00
          2   -1    0    0  501    0  0.00000000000E+00  0.00000000000E+00  0.16365884977E+04  0.16365884977E+04  0.25500000000E-02 0.  1.
         -2   -1    0    0    0  501 -0.00000000000E+00 -0.00000000000E+00 -0.44347982339E+02  0.44347982413E+02  0.25500000000E-02 0. -1.
    5000001    1    1    2    0    0 -0.13551274484E+03  0.68317093894E+02  0.48496946395E+03  0.54573556811E+03  0.19900000000E+03 0.  0.
   -5000001    1    1    2    0    0  0.13551274484E+03 -0.68317093894E+02  0.11072710514E+04  0.11352009120E+04  0.19900000000E+03 0.  0.
<mgrwt>
<rscale>  0 0.53881128E+03</rscale>
<asrwt>0</asrwt>
<pdfrwt beam="1">  1        2 0.23379832E+00 0.53881128E+03</pdfrwt>
<pdfrwt beam="2">  1       -2 0.63354270E-02 0.53881128E+03</pdfrwt>
<totfact> 0.17967372E+03</totfact>
</mgrwt>
</event>
<event>
 4    1  0.4917371E-005  0.7812642E+03  0.7818608E-02  0.9587539E-01
         -2   -1    0    0    0  501 -0.00000000000E+00  0.00000000000E+00  0.17443053135E+03  0.17443053137E+03  0.25500000000E-02 0. -1.
          2   -1    0    0  501    0  0.00000000000E+00 -0.00000000000E+00 -0.87480925779E+03  0.87480925779E+03  0.25500000000E-02 0.  1.
    5000001    1    1    2    0    0 -0.14743399602E+03 -0.24208723708E+03 -0.10752018383E+03  0.36263563458E+03  0.19900000000E+03 0.  0.
   -5000001    1    1    2    0    0  0.14743399602E+03  0.24208723708E+03 -0.59285854261E+03  0.68660415458E+03  0.19900000000E+03 0.  0.
<mgrwt>
<rscale>  0 0.78126422E+03</rscale>
<asrwt>0</asrwt>
<pdfrwt beam="1">  1        2 0.12497275E+00 0.78126422E+03</pdfrwt>
<pdfrwt beam="2">  1       -2 0.24918648E-01 0.78126422E+03</pdfrwt>
<totfact> 0.48849507E+02</totfact>
</mgrwt>
</event>
<event>
 4    1  0.4917371E-005  0.7940650E+03  0.7818608E-02  0.9568648E-01
          2   -1    0    0  501    0  0.00000000000E+00  0.00000000000E+00  0.19304329194E+04  0.19304329194E+04  0.25500000000E-02 0.  1.
         -2   -1    0    0    0  501 -0.00000000000E+00 -0.00000000000E+00 -0.81657751843E+02  0.81657751883E+02  0.25500000000E-02 0. -1.
    5000001    1    1    2    0    0 -0.12195282496E+03  0.28556764320E+03  0.55187289276E+03  0.66376657051E+03  0.19900000000E+03 0.  0.
   -5000001    1    1    2    0    0  0.12195282496E+03 -0.28556764320E+03  0.12969022748E+04  0.13483241007E+04  0.19900000000E+03 0.  0.
<mgrwt>
<rscale>  0 0.79406502E+03</rscale>
<asrwt>0</asrwt>
<pdfrwt beam="1">  1        2 0.27577616E+00 0.79406502E+03</pdfrwt>
<pdfrwt beam="2">  1       -2 0.11665392E-01 0.79406502E+03</pdfrwt>
<totfact> 0.47188008E+02</totfact>
</mgrwt>
</event>
<event>
 4    1  0.4917371E-005  0.4999465E+03  0.7818608E-02  0.1013793E+00
         -2   -1    0    0    0  501 -0.00000000000E+00  0.00000000000E+00  0.66332692514E+03  0.66332692515E+03  0.25500000000E-02 0. -1.
          2   -1    0    0  501    0  0.00000000000E+00 -0.00000000000E+00 -0.94201858890E+02  0.94201858925E+02  0.25500000000E-02 0.  1.
    5000001    1    1    2    0    0 -0.96778623202E+02 -0.67225351112E+02  0.42831112422E+03  0.48676151129E+03  0.19900000000E+03 0.  0.
   -5000001    1    1    2    0    0  0.96778623202E+02  0.67225351112E+02  0.14081394203E+03  0.27076727279E+03  0.19900000000E+03 0.  0.
<mgrwt>
<rscale>  0 0.49994651E+03</rscale>
<asrwt>0</asrwt>
<pdfrwt beam="1">  1        2 0.13457408E-01 0.49994651E+03</pdfrwt>
<pdfrwt beam="2">  1       -2 0.94760989E-01 0.49994651E+03</pdfrwt>
<totfact> 0.43367587E+02</totfact>
</mgrwt>
</event>
<event>
 4    1  0.4917371E-005  0.5348938E+03  0.7818608E-02  0.1005052E+00
          2   -1    0    0  501    0  0.00000000000E+00  0.00000000000E+00  0.48802260347E+03  0.48802260348E+03  0.25500000000E-02 0.  1.
         -2   -1    0    0    0  501 -0.00000000000E+00 -0.00000000000E+00 -0.14656664629E+03  0.14656664631E+03  0.25500000000E-02 0. -1.
    5000001    1    1    2    0    0 -0.10784850518E+03  0.86150332606E+02  0.36118349237E+02  0.24486468718E+03  0.19900000000E+03 0.  0.
   -5000001    1    1    2    0    0  0.10784850518E+03 -0.86150332606E+02  0.30533760794E+03  0.38972456261E+03  0.19900000000E+03 0.  0.
<mgrwt>
<rscale>  0 0.53489377E+03</rscale>
<asrwt>0</asrwt>
<pdfrwt beam="1">  1        2 0.69717513E-01 0.53489377E+03</pdfrwt>
<pdfrwt beam="2">  1       -2 0.20938093E-01 0.53489377E+03</pdfrwt>
<totfact> 0.13575213E+03</totfact>
</mgrwt>
</event>
<event>
 4    1  0.4917371E-005  0.6960692E+03  0.7818608E-02  0.9723978E-01
         -2   -1    0    0    0  501 -0.00000000000E+00  0.00000000000E+00  0.13539003879E+03  0.13539003881E+03  0.25500000000E-02 0.  1.
          2   -1    0    0  501    0  0.00000000000E+00 -0.00000000000E+00 -0.89466030364E+03  0.89466030364E+03  0.25500000000E-02 0. -1.
    5000001    1    1    2    0    0  0.21688101131E+03 -0.14092126627E+03 -0.20063976706E+03  0.38308418459E+03  0.19900000000E+03 0.  0.
   -5000001    1    1    2    0    0 -0.21688101131E+03  0.14092126627E+03 -0.55863049780E+03  0.64696615787E+03  0.19900000000E+03 0.  0.
<mgrwt>
<rscale>  0 0.69606923E+03</rscale>
<asrwt>0</asrwt>
<pdfrwt beam="1">  1        2 0.12780861E+00 0.69606923E+03</pdfrwt>
<pdfrwt beam="2">  1       -2 0.19341435E-01 0.69606923E+03</pdfrwt>
<totfact> 0.74448151E+02</totfact>
</mgrwt>
</event>
<event>
 4    1  0.4917371E-005  0.7738531E+03  0.7818608E-02  0.9598654E-01
          2   -1    0    0  501    0  0.00000000000E+00  0.00000000000E+00  0.73032343587E+03  0.73032343587E+03  0.25500000000E-02 0.  1.
         -2   -1    0    0    0  501 -0.00000000000E+00 -0.00000000000E+00 -0.20499433163E+03  0.20499433165E+03  0.25500000000E-02 0. -1.
    5000001    1    1    2    0    0  0.95129343535E+02  0.31272568056E+03  0.33171880700E+03  0.50644378780E+03  0.19900000000E+03 0.  0.
   -5000001    1    1    2    0    0 -0.95129343535E+02 -0.31272568056E+03  0.19361029724E+03  0.42887397972E+03  0.19900000000E+03 0.  0.
<mgrwt>
<rscale>  0 0.77385312E+03</rscale>
<asrwt>0</asrwt>
<pdfrwt beam="1">  1        2 0.10433192E+00 0.77385312E+03</pdfrwt>
<pdfrwt beam="2">  1       -2 0.29284904E-01 0.77385312E+03</pdfrwt>
<totfact> 0.45926113E+02</totfact>
</mgrwt>
</event>
<event>
 4    1  0.4917371E-005  0.1229364E+04  0.7818608E-02  0.9087536E-01
         -2   -1    0    0    0  501 -0.00000000000E+00  0.00000000000E+00  0.12727011714E+04  0.12727011714E+04  0.25500000000E-02 0. -1.
          2   -1    0    0  501    0  0.00000000000E+00 -0.00000000000E+00 -0.29687559209E+03  0.29687559210E+03  0.25500000000E-02 0.  1.
    5000001    1    1    2    0    0 -0.50308055943E+03  0.23958557193E+03  0.70056406527E+03  0.91699634956E+03  0.19900000000E+03 0.  0.
   -5000001    1    1    2    0    0  0.50308055943E+03 -0.23958557193E+03  0.27526151403E+03  0.65258041394E+03  0.19900000000E+03 0.  0.
<mgrwt>
<rscale>  0 0.12293639E+04</rscale>
<asrwt>0</asrwt>
<pdfrwt beam="1">  1        2 0.42410799E-01 0.12293639E+04</pdfrwt>
<pdfrwt beam="2">  1       -2 0.18181445E+00 0.12293639E+04</pdfrwt>
<totfact> 0.20940302E+01</totfact>
</mgrwt>
</event>
<event>
 4    1  0.4917371E-005  0.6474341E+03  0.7818608E-02  0.9811606E-01
         -2   -1    0    0    0  501 -0.00000000000E+00  0.00000000000E+00  0.36187125026E+02  0.36187125115E+02  0.25500000000E-02 0. -1.
          2   -1    0    0  501    0  0.00000000000E+00 -0.00000000000E+00 -0.28958569879E+04  0.28958569879E+04  0.25500000000E-02 0.  1.
    5000001    1    1    2    0    0 -0.13211491085E+03  0.48724693308E+02 -0.23943903786E+04  0.24067685245E+04  0.19900000000E+03 0.  0.
   -5000001    1    1    2    0    0  0.13211491085E+03 -0.48724693308E+02 -0.46527948432E+03  0.52527558855E+03  0.19900000000E+03 0.  0.
<mgrwt>
<rscale>  0 0.64743413E+03</rscale>
<asrwt>0</asrwt>
<pdfrwt beam="1">  1        2 0.41369371E+00 0.64743413E+03</pdfrwt>
<pdfrwt beam="2">  1       -2 0.51695912E-02 0.64743413E+03</pdfrwt>
<totfact> 0.55699528E+02</totfact>
</mgrwt>
</event>
<event>
 4    1  0.4917371E-005  0.4319296E+03  0.7818608E-02  0.1033252E+00
          2   -1    0    0  501    0  0.00000000000E+00  0.00000000000E+00  0.29532488331E+04  0.29532488331E+04  0.25500000000E-02 0.  1.
         -2   -1    0    0    0  501 -0.00000000000E+00 -0.00000000000E+00 -0.15793048551E+02  0.15793048757E+02  0.25500000000E-02 0. -1.
    5000001    1    1    2    0    0 -0.27736321319E+02 -0.78384439075E+02  0.15460031149E+04  0.15609740725E+04  0.19900000000E+03 0.  0.
   -5000001    1    1    2    0    0  0.27736321319E+02  0.78384439075E+02  0.13914526697E+04  0.14080678093E+04  0.19900000000E+03 0.  0.
<mgrwt>
<rscale>  0 0.43192964E+03</rscale>
<asrwt>0</asrwt>
<pdfrwt beam="1">  1        2 0.42189233E+00 0.43192964E+03</pdfrwt>
<pdfrwt beam="2">  1       -2 0.22561518E-02 0.43192964E+03</pdfrwt>
<totfact> 0.18709888E+03</totfact>
</mgrwt>
</event>
<event>
 4    1  0.4917371E-005  0.4339893E+03  0.7818608E-02  0.1032607E+00
         -2   -1    0    0    0  501 -0.00000000000E+00  0.00000000000E+00  0.12288049762E+03  0.12288049765E+03  0.25500000000E-02 0. -1.
          2   -1    0    0  501    0  0.00000000000E+00 -0.00000000000E+00 -0.38319076844E+03  0.38319076845E+03  0.25500000000E-02 0.  1.
    5000001    1    1    2    0    0  0.43963253975E+02 -0.73636810567E+02 -0.14347743252E+03  0.25988828603E+03  0.19900000000E+03 0.  0.
   -5000001    1    1    2    0    0 -0.43963253975E+02  0.73636810567E+02 -0.11683283830E+03  0.24618298007E+03  0.19900000000E+03 0.  0.
<mgrwt>
<rscale>  0 0.43398927E+03</rscale>
<asrwt>0</asrwt>
<pdfrwt beam="1">  1        2 0.54741538E-01 0.43398927E+03</pdfrwt>
<pdfrwt beam="2">  1       -2 0.17554357E-01 0.43398927E+03</pdfrwt>
<totfact> 0.24038642E+03</totfact>
</mgrwt>
</event>
<event>
 4    1  0.4917371E-005  0.8411332E+03  0.7818608E-02  0.9502316E-01
         -2   -1    0    0    0  501 -0.00000000000E+00  0.00000000000E+00  0.30067339221E+03  0.30067339222E+03  0.25500000000E-02 0. -1.
          2   -1    0    0  501    0  0.00000000000E+00 -0.00000000000E+00 -0.58826708726E+03  0.58826708726E+03  0.25500000000E-02 0.  1.
    5000001    1    1    2    0    0 -0.26007162331E+03 -0.62904001952E+02  0.12705270051E+03  0.35684387541E+03  0.19900000000E+03 0.  0.
   -5000001    1    1    2    0    0  0.26007162331E+03  0.62904001952E+02 -0.41464639555E+03  0.53209660407E+03  0.19900000000E+03 0.  0.
<mgrwt>
<rscale>  0 0.84113319E+03</rscale>
<asrwt>0</asrwt>
<pdfrwt beam="1">  1        2 0.84038155E-01 0.84113319E+03</pdfrwt>
<pdfrwt beam="2">  1       -2 0.42953342E-01 0.84113319E+03</pdfrwt>
<totfact> 0.28660451E+02</totfact>
</mgrwt>
</event>
<event>
 4    1  0.4917371E-005  0.5692768E+03  0.7818608E-02  0.9971280E-01
         -2   -1    0    0    0  501 -0.00000000000E+00  0.00000000000E+00  0.61793899677E+02  0.61793899729E+02  0.25500000000E-02 0. -1.
          2   -1    0    0  501    0  0.00000000000E+00 -0.00000000000E+00 -0.13111169487E+04  0.13111169487E+04  0.25500000000E-02 0.  1.
    5000001    1    1    2    0    0  0.21120292372E+01 -0.16880317379E+03 -0.35054562157E+03  0.43701510838E+03  0.19900000000E+03 0.  0.
   -5000001    1    1    2    0    0 -0.21120292372E+01  0.16880317379E+03 -0.89877742747E+03  0.93589574007E+03  0.19900000000E+03 0.  0.
<mgrwt>
<rscale>  0 0.56927684E+03</rscale>
<asrwt>0</asrwt>
<pdfrwt beam="1">  1        2 0.18730240E+00 0.56927684E+03</pdfrwt>
<pdfrwt beam="2">  1       -2 0.88277008E-02 0.56927684E+03</pdfrwt>
<totfact> 0.15707645E+03</totfact>
</mgrwt>
</event>
<event>
 4    1  0.4917371E-005  0.5661069E+03  0.7818608E-02  0.9978331E-01
          2   -1    0    0  501    0  0.00000000000E+00  0.00000000000E+00  0.18810376223E+04  0.18810376223E+04  0.25500000000E-02 0.  1.
         -2   -1    0    0    0  501 -0.00000000000E+00 -0.00000000000E+00 -0.42593114795E+02  0.42593114871E+02  0.25500000000E-02 0. -1.
    5000001    1    1    2    0    0  0.71451940870E+02  0.17458743752E+03  0.11578599958E+04  0.11898852562E+04  0.19900000000E+03 0.  0.
   -5000001    1    1    2    0    0 -0.71451940870E+02 -0.17458743752E+03  0.68058451177E+03  0.73374548098E+03  0.19900000000E+03 0.  0.
<mgrwt>
<rscale>  0 0.56610689E+03</rscale>
<asrwt>0</asrwt>
<pdfrwt beam="1">  1        2 0.26871962E+00 0.56610689E+03</pdfrwt>
<pdfrwt beam="2">  1       -2 0.60847317E-02 0.56610689E+03</pdfrwt>
<totfact> 0.14387264E+03</totfact>
</mgrwt>
</event>
<event>
 4    1  0.4917371E-005  0.5353408E+03  0.7818608E-02  0.1004945E+00
         -2   -1    0    0    0  501 -0.00000000000E+00  0.00000000000E+00  0.43091524444E+02  0.43091524520E+02  0.25500000000E-02 0. -1.
          2   -1    0    0  501    0  0.00000000000E+00 -0.00000000000E+00 -0.16626803972E+04  0.16626803972E+04  0.25500000000E-02 0.  1.
    5000001    1    1    2    0    0 -0.11088669040E+02  0.83238028392E+02 -0.30604288799E+03  0.37458614129E+03  0.19900000000E+03 0.  0.
   -5000001    1    1    2    0    0  0.11088669040E+02 -0.83238028392E+02 -0.13135459847E+04  0.13311857804E+04  0.19900000000E+03 0.  0.
<mgrwt>
<rscale>  0 0.53534076E+03</rscale>
<asrwt>0</asrwt>
<pdfrwt beam="1">  1        2 0.23752573E+00 0.53534076E+03</pdfrwt>
<pdfrwt beam="2">  1       -2 0.61559331E-02 0.53534076E+03</pdfrwt>
<totfact> 0.18230484E+03</totfact>
</mgrwt>
</event>
<event>
 4    1  0.4917371E-005  0.1104751E+04  0.7818608E-02  0.9200573E-01
          2   -1    0    0  501    0  0.00000000000E+00  0.00000000000E+00  0.41544095642E+04  0.41544095642E+04  0.25500000000E-02 0. -1.
         -2   -1    0    0    0  501 -0.00000000000E+00 -0.00000000000E+00 -0.73444551611E+02  0.73444551655E+02  0.25500000000E-02 0.  1.
    5000001    1    1    2    0    0 -0.19239381351E+03  0.45379637817E+03  0.14655286066E+04  0.15589488860E+04  0.19900000000E+03 0.  0.
   -5000001    1    1    2    0    0  0.19239381351E+03 -0.45379637817E+03  0.26154364060E+04  0.26689052299E+04  0.19900000000E+03 0.  0.
<mgrwt>
<rscale>  0 0.11047511E+04</rscale>
<asrwt>0</asrwt>
<pdfrwt beam="1">  1        2 0.59348724E+00 0.11047511E+04</pdfrwt>
<pdfrwt beam="2">  1       -2 0.10492076E-01 0.11047511E+04</pdfrwt>
<totfact> 0.29280034E+01</totfact>
</mgrwt>
</event>
<event>
 4    1  0.4917371E-005  0.8359454E+03  0.7818608E-02  0.9509397E-01
          2   -1    0    0  501    0  0.00000000000E+00  0.00000000000E+00  0.21435056528E+04  0.21435056528E+04  0.25500000000E-02 0.  1.
         -2   -1    0    0    0  501 -0.00000000000E+00 -0.00000000000E+00 -0.81502541163E+02  0.81502541203E+02  0.25500000000E-02 0. -1.
    5000001    1    1    2    0    0 -0.36268950136E+03  0.52746479686E+02  0.11050653876E+04  0.11811419798E+04  0.19900000000E+03 0.  0.
   -5000001    1    1    2    0    0  0.36268950136E+03 -0.52746479686E+02  0.95693772399E+03  0.10438662142E+04  0.19900000000E+03 0.  0.
<mgrwt>
<rscale>  0 0.83594535E+03</rscale>
<asrwt>0</asrwt>
<pdfrwt beam="1">  1        2 0.30621508E+00 0.83594535E+03</pdfrwt>
<pdfrwt beam="2">  1       -2 0.11643221E-01 0.83594535E+03</pdfrwt>
<totfact> 0.36803009E+02</totfact>
</mgrwt>
</event>
<event>
 4    1  0.4917371E-005  0.6137030E+03  0.7818608E-02  0.9877377E-01
          2   -1    0    0  501    0  0.00000000000E+00  0.00000000000E+00  0.37380156885E+04  0.37380156885E+04  0.25500000000E-02 0. -1.
         -2   -1    0    0    0  501 -0.00000000000E+00 -0.00000000000E+00 -0.25189261051E+02  0.25189261180E+02  0.25500000000E-02 0.  1.
    5000001    1    1    2    0    0 -0.23016445458E+03 -0.13741692903E+02  0.16276044193E+04  0.16558567740E+04  0.19900000000E+03 0.  0.
   -5000001    1    1    2    0    0  0.23016445458E+03  0.13741692903E+02  0.20852220082E+04  0.21073481757E+04  0.19900000000E+03 0.  0.
<mgrwt>
<rscale>  0 0.61370303E+03</rscale>
<asrwt>0</asrwt>
<pdfrwt beam="1">  1        2 0.53400173E+00 0.61370303E+03</pdfrwt>
<pdfrwt beam="2">  1       -2 0.35984693E-02 0.61370303E+03</pdfrwt>
<totfact> 0.31967734E+02</totfact>
</mgrwt>
</event>
<event>
 4    1  0.4917371E-005  0.7708477E+03  0.7818608E-02  0.9603200E-01
         -2   -1    0    0    0  501 -0.00000000000E+00  0.00000000000E+00  0.11984678145E+03  0.11984678148E+03  0.25500000000E-02 0. -1.
          2   -1    0    0  501    0  0.00000000000E+00 -0.00000000000E+00 -0.12395120832E+04  0.12395120832E+04  0.25500000000E-02 0.  1.
    5000001    1    1    2    0    0  0.18028100597E+03  0.23012585833E+03 -0.28954895968E+03  0.45705442984E+03  0.19900000000E+03 0.  0.
   -5000001    1    1    2    0    0 -0.18028100597E+03 -0.23012585833E+03 -0.83011634207E+03  0.90230443486E+03  0.19900000000E+03 0.  0.
<mgrwt>
<rscale>  0 0.77084767E+03</rscale>
<asrwt>0</asrwt>
<pdfrwt beam="1">  1        2 0.17707315E+00 0.77084767E+03</pdfrwt>
<pdfrwt beam="2">  1       -2 0.17120970E-01 0.77084767E+03</pdfrwt>
<totfact> 0.57022575E+02</totfact>
</mgrwt>
</event>
<event>
 4    1  0.4917371E-005  0.5190719E+03  0.7818608E-02  0.1008917E+00
          2   -1    0    0  501    0  0.00000000000E+00  0.00000000000E+00  0.18543447361E+04  0.18543447361E+04  0.25500000000E-02 0.  1.
         -2   -1    0    0    0  501 -0.00000000000E+00 -0.00000000000E+00 -0.36324907319E+02  0.36324907409E+02  0.25500000000E-02 0. -1.
    5000001    1    1    2    0    0  0.40554324157E+02 -0.96124359051E+02  0.13821490627E+04  0.14002933897E+04  0.19900000000E+03 0.  0.
   -5000001    1    1    2    0    0 -0.40554324157E+02  0.96124359051E+02  0.43587076605E+03  0.49037625382E+03  0.19900000000E+03 0.  0.
<mgrwt>
<rscale>  0 0.51907187E+03</rscale>
<asrwt>0</asrwt>
<pdfrwt beam="1">  1        2 0.26490641E+00 0.51907187E+03</pdfrwt>
<pdfrwt beam="2">  1       -2 0.51892720E-02 0.51907187E+03</pdfrwt>
<totfact> 0.19048926E+03</totfact>
</mgrwt>
</event>
<event>
 4    1  0.4917371E-005  0.5635322E+03  0.7818608E-02  0.9984094E-01
         -2   -1    0    0    0  501 -0.00000000000E+00  0.00000000000E+00  0.12857541042E+03  0.12857541044E+03  0.25500000000E-02 0. -1.
          2   -1    0    0  501    0  0.00000000000E+00 -0.00000000000E+00 -0.61747530825E+03  0.61747530826E+03  0.25500000000E-02 0.  1.
    5000001    1    1    2    0    0 -0.58021386005E+02 -0.18975290538E+03 -0.21736708024E+03  0.35527748860E+03  0.19900000000E+03 0.  0.
   -5000001    1    1    2    0    0  0.58021386005E+02  0.18975290538E+03 -0.27153281759E+03  0.39077323010E+03  0.19900000000E+03 0.  0.
<mgrwt>
<rscale>  0 0.56353222E+03</rscale>
<asrwt>0</asrwt>
<pdfrwt beam="1">  1        2 0.88210757E-01 0.56353222E+03</pdfrwt>
<pdfrwt beam="2">  1       -2 0.18367916E-01 0.56353222E+03</pdfrwt>
<totfact> 0.12985583E+03</totfact>
</mgrwt>
</event>
<event>
 4    1  0.4917371E-005  0.7700757E+03  0.7818608E-02  0.9604371E-01
         -2   -1    0    0    0  501 -0.00000000000E+00  0.00000000000E+00  0.49582406508E+02  0.49582406574E+02  0.25500000000E-02 0. -1.
          2   -1    0    0  501    0  0.00000000000E+00 -0.00000000000E+00 -0.29900557332E+04  0.29900557332E+04  0.25500000000E-02 0.  1.
    5000001    1    1    2    0    0  0.25107896941E+03 -0.16063336851E+03 -0.20257883203E+04  0.20572464720E+04  0.19900000000E+03 0.  0.
   -5000001    1    1    2    0    0 -0.25107896941E+03  0.16063336851E+03 -0.91468500634E+03  0.98239166771E+03  0.19900000000E+03 0.  0.
<mgrwt>
<rscale>  0 0.77007573E+03</rscale>
<asrwt>0</asrwt>
<pdfrwt beam="1">  1        2 0.42715071E+00 0.77007573E+03</pdfrwt>
<pdfrwt beam="2">  1       -2 0.70832028E-02 0.77007573E+03</pdfrwt>
<totfact> 0.29835535E+02</totfact>
</mgrwt>
</event>
<event>
 4    1  0.4917371E-005  0.5732119E+03  0.7818608E-02  0.9962596E-01
          2   -1    0    0  501    0  0.00000000000E+00  0.00000000000E+00  0.13487515118E+04  0.13487515118E+04  0.25500000000E-02 0.  1.
         -2   -1    0    0    0  501 -0.00000000000E+00 -0.00000000000E+00 -0.60902960464E+02  0.60902960518E+02  0.25500000000E-02 0. -1.
    5000001    1    1    2    0    0  0.54241083777E+02  0.19820869085E+03  0.68744482166E+03  0.74458724346E+03  0.19900000000E+03 0.  0.
   -5000001    1    1    2    0    0 -0.54241083777E+02 -0.19820869085E+03  0.60040372969E+03  0.66506722887E+03  0.19900000000E+03 0.  0.
<mgrwt>
<rscale>  0 0.57321186E+03</rscale>
<asrwt>0</asrwt>
<pdfrwt beam="1">  1        2 0.19267875E+00 0.57321186E+03</pdfrwt>
<pdfrwt beam="2">  1       -2 0.87004244E-02 0.57321186E+03</pdfrwt>
<totfact> 0.15342542E+03</totfact>
</mgrwt>
</event>
<event>
 4    1  0.4917371E-005  0.6813031E+03  0.7818608E-02  0.9749752E-01
         -2   -1    0    0    0  501 -0.00000000000E+00  0.00000000000E+00  0.12157791522E+03  0.12157791524E+03  0.25500000000E-02 0. -1.
          2   -1    0    0  501    0  0.00000000000E+00 -0.00000000000E+00 -0.95447816492E+03  0.95447816492E+03  0.25500000000E-02 0.  1.
    5000001    1    1    2    0    0 -0.17594106825E+03  0.21070189387E+03 -0.46864039539E+03  0.57842490245E+03  0.19900000000E+03 0.  0.
   -5000001    1    1    2    0    0  0.17594106825E+03 -0.21070189387E+03 -0.36425985431E+03  0.49763117772E+03  0.19900000000E+03 0.  0.
<mgrwt>
<rscale>  0 0.68130306E+03</rscale>
<asrwt>0</asrwt>
<pdfrwt beam="1">  1        2 0.13635402E+00 0.68130306E+03</pdfrwt>
<pdfrwt beam="2">  1       -2 0.17368274E-01 0.68130306E+03</pdfrwt>
<totfact> 0.82134615E+02</totfact>
</mgrwt>
</event>
<event>
 4    1  0.4917371E-005  0.6728980E+03  0.7818608E-02  0.9764737E-01
          2   -1    0    0  501    0  0.00000000000E+00  0.00000000000E+00  0.98117240805E+03  0.98117240806E+03  0.25500000000E-02 0.  1.
         -2   -1    0    0    0  501 -0.00000000000E+00 -0.00000000000E+00 -0.11537006556E+03  0.11537006559E+03  0.25500000000E-02 0. -1.
    5000001    1    1    2    0    0  0.20488194909E+03 -0.13987300220E+03  0.25397443421E+03  0.40699518798E+03  0.19900000000E+03 0.  0.
   -5000001    1    1    2    0    0 -0.20488194909E+03  0.13987300220E+03  0.61182790828E+03  0.68954728566E+03  0.19900000000E+03 0.  0.
<mgrwt>
<rscale>  0 0.67289799E+03</rscale>
<asrwt>0</asrwt>
<pdfrwt beam="1">  1        2 0.14016749E+00 0.67289799E+03</pdfrwt>
<pdfrwt beam="2">  1       -2 0.16481438E-01 0.67289799E+03</pdfrwt>
<totfact> 0.86483342E+02</totfact>
</mgrwt>
</event>
<event>
 4    1  0.4917371E-005  0.6863052E+03  0.7818608E-02  0.9740943E-01
         -2   -1    0    0    0  501 -0.00000000000E+00  0.00000000000E+00  0.81279290531E+02  0.81279290571E+02  0.25500000000E-02 0. -1.
          2   -1    0    0  501    0  0.00000000000E+00 -0.00000000000E+00 -0.14487540213E+04  0.14487540213E+04  0.25500000000E-02 0.  1.
    5000001    1    1    2    0    0 -0.70234174647E+02 -0.26768632467E+03 -0.77190047462E+03  0.84381286457E+03  0.19900000000E+03 0.  0.
   -5000001    1    1    2    0    0  0.70234174647E+02  0.26768632467E+03 -0.59557425617E+03  0.68622044732E+03  0.19900000000E+03 0.  0.
<mgrwt>
<rscale>  0 0.68630518E+03</rscale>
<asrwt>0</asrwt>
<pdfrwt beam="1">  1        2 0.20696484E+00 0.68630518E+03</pdfrwt>
<pdfrwt beam="2">  1       -2 0.11611328E-01 0.68630518E+03</pdfrwt>
<totfact> 0.84615662E+02</totfact>
</mgrwt>
</event>
<event>
 4    1  0.4917371E-005  0.6552034E+03  0.7818608E-02  0.9797064E-01
         -2   -1    0    0    0  501 -0.00000000000E+00  0.00000000000E+00  0.31418179980E+03  0.31418179981E+03  0.25500000000E-02 0. -1.
          2   -1    0    0  501    0  0.00000000000E+00 -0.00000000000E+00 -0.34159485501E+03  0.34159485502E+03  0.25500000000E-02 0.  1.
    5000001    1    1    2    0    0  0.25193454142E+03  0.65144601791E+02 -0.11048257270E+02  0.32777720526E+03  0.19900000000E+03 0.  0.
   -5000001    1    1    2    0    0 -0.25193454142E+03 -0.65144601791E+02 -0.16364797943E+02  0.32799944956E+03  0.19900000000E+03 0.  0.
<mgrwt>
<rscale>  0 0.65520344E+03</rscale>
<asrwt>0</asrwt>
<pdfrwt beam="1">  1        2 0.48799265E-01 0.65520344E+03</pdfrwt>
<pdfrwt beam="2">  1       -2 0.44883114E-01 0.65520344E+03</pdfrwt>
<totfact> 0.48941551E+02</totfact>
</mgrwt>
</event>
<event>
 4    1  0.4917371E-005  0.8345054E+03  0.7818608E-02  0.9511372E-01
         -2   -1    0    0    0  501 -0.00000000000E+00  0.00000000000E+00  0.99849200135E+02  0.99849200168E+02  0.25500000000E-02 0. -1.
          2   -1    0    0  501    0  0.00000000000E+00 -0.00000000000E+00 -0.17436275919E+04  0.17436275919E+04  0.25500000000E-02 0.  1.
    5000001    1    1    2    0    0  0.81638628341E+02  0.30525664293E+03 -0.41066867367E+03  0.55506417938E+03  0.19900000000E+03 0.  0.
   -5000001    1    1    2    0    0 -0.81638628341E+02 -0.30525664293E+03 -0.12331097181E+04  0.12884126127E+04  0.19900000000E+03 0.  0.
<mgrwt>
<rscale>  0 0.83450541E+03</rscale>
<asrwt>0</asrwt>
<pdfrwt beam="1">  1        2 0.24908964E+00 0.83450541E+03</pdfrwt>
<pdfrwt beam="2">  1       -2 0.14264172E-01 0.83450541E+03</pdfrwt>
<totfact> 0.41908355E+02</totfact>
</mgrwt>
</event>
<event>
 4    1  0.4917371E-005  0.1009643E+04  0.7818608E-02  0.9298031E-01
         -2   -1    0    0    0  501 -0.00000000000E+00  0.00000000000E+00  0.35772632592E+03  0.35772632593E+03  0.25500000000E-02 0. -1.
          2   -1    0    0  501    0  0.00000000000E+00 -0.00000000000E+00 -0.71240200950E+03  0.71240200950E+03  0.25500000000E-02 0.  1.
    5000001    1    1    2    0    0 -0.25537641010E+03  0.38731313302E+03 -0.18149446285E+03  0.53644180848E+03  0.19900000000E+03 0.  0.
   -5000001    1    1    2    0    0  0.25537641010E+03 -0.38731313302E+03 -0.17318122072E+03  0.53368652695E+03  0.19900000000E+03 0.  0.
<mgrwt>
<rscale>  0 0.10096434E+04</rscale>
<asrwt>0</asrwt>
<pdfrwt beam="1">  1        2 0.10177172E+00 0.10096434E+04</pdfrwt>
<pdfrwt beam="2">  1       -2 0.51103761E-01 0.10096434E+04</pdfrwt>
<totfact> 0.15900398E+02</totfact>
</mgrwt>
</event>
<event>
 4    1  0.4917371E-005  0.5647413E+03  0.7818608E-02  0.9981383E-01
          2   -1    0    0  501    0  0.00000000000E+00  0.00000000000E+00  0.16778591527E+04  0.16778591527E+04  0.25500000000E-02 0.  1.
         -2   -1    0    0    0  501 -0.00000000000E+00 -0.00000000000E+00 -0.47520784901E+02  0.47520784969E+02  0.25500000000E-02 0. -1.
    5000001    1    1    2    0    0  0.19801489200E+03 -0.21891285316E+02  0.75086110325E+03  0.80192426213E+03  0.19900000000E+03 0.  0.
   -5000001    1    1    2    0    0 -0.19801489200E+03  0.21891285316E+02  0.87947726459E+03  0.92345567558E+03  0.19900000000E+03 0.  0.
<mgrwt>
<rscale>  0 0.56474130E+03</rscale>
<asrwt>0</asrwt>
<pdfrwt beam="1">  1        2 0.23969411E+00 0.56474130E+03</pdfrwt>
<pdfrwt beam="2">  1       -2 0.67886851E-02 0.56474130E+03</pdfrwt>
<totfact> 0.15343407E+03</totfact>
</mgrwt>
</event>
<event>
 4    1  0.4917371E-005  0.6624325E+03  0.7818608E-02  0.9783726E-01
          2   -1    0    0  501    0  0.00000000000E+00  0.00000000000E+00  0.11050274979E+04  0.11050274979E+04  0.25500000000E-02 0.  1.
         -2   -1    0    0    0  501 -0.00000000000E+00 -0.00000000000E+00 -0.99277347894E+02  0.99277347927E+02  0.25500000000E-02 0. -1.
    5000001    1    1    2    0    0  0.74086359755E+02 -0.25112411379E+03  0.43127502437E+03  0.54235712946E+03  0.19900000000E+03 0.  0.
   -5000001    1    1    2    0    0 -0.74086359755E+02  0.25112411379E+03  0.57447512560E+03  0.66194771633E+03  0.19900000000E+03 0.  0.
<mgrwt>
<rscale>  0 0.66243249E+03</rscale>
<asrwt>0</asrwt>
<pdfrwt beam="1">  1        2 0.15786106E+00 0.66243249E+03</pdfrwt>
<pdfrwt beam="2">  1       -2 0.14182479E-01 0.66243249E+03</pdfrwt>
<totfact> 0.94002087E+02</totfact>
</mgrwt>
</event>
<event>
 4    1  0.4917371E-005  0.6674741E+03  0.7818608E-02  0.9774532E-01
          2   -1    0    0  501    0  0.00000000000E+00  0.00000000000E+00  0.53059946802E+03  0.53059946802E+03  0.25500000000E-02 0.  1.
         -2   -1    0    0    0  501 -0.00000000000E+00 -0.00000000000E+00 -0.20991428308E+03  0.20991428309E+03  0.25500000000E-02 0. -1.
    5000001    1    1    2    0    0 -0.14617813000E+03 -0.69445634091E+02 -0.76536739661E+02  0.26767445583E+03  0.19900000000E+03 0.  0.
   -5000001    1    1    2    0    0  0.14617813000E+03  0.69445634091E+02  0.39722192460E+03  0.47283929529E+03  0.19900000000E+03 0.  0.
<mgrwt>
<rscale>  0 0.66747407E+03</rscale>
<asrwt>0</asrwt>
<pdfrwt beam="1">  1        2 0.75799923E-01 0.66747407E+03</pdfrwt>
<pdfrwt beam="2">  1       -2 0.29987755E-01 0.66747407E+03</pdfrwt>
<totfact> 0.64598960E+02</totfact>
</mgrwt>
</event>
<event>
 4    1  0.4917371E-005  0.6369988E+03  0.7818608E-02  0.9831486E-01
         -2   -1    0    0    0  501 -0.00000000000E+00  0.00000000000E+00  0.32120883883E+03  0.32120883884E+03  0.25500000000E-02 0. -1.
          2   -1    0    0  501    0  0.00000000000E+00 -0.00000000000E+00 -0.31581277919E+03  0.31581277920E+03  0.25500000000E-02 0.  1.
    5000001    1    1    2    0    0  0.62274162664E+02  0.16810585735E+03  0.17505039261E+03  0.31997076517E+03  0.19900000000E+03 0.  0.
   -5000001    1    1    2    0    0 -0.62274162664E+02 -0.16810585735E+03 -0.16965433296E+03  0.31705085287E+03  0.19900000000E+03 0.  0.
<mgrwt>
<rscale>  0 0.63699876E+03</rscale>
<asrwt>0</asrwt>
<pdfrwt beam="1">  1        2 0.45116111E-01 0.63699876E+03</pdfrwt>
<pdfrwt beam="2">  1       -2 0.45886977E-01 0.63699876E+03</pdfrwt>
<totfact> 0.51099754E+02</totfact>
</mgrwt>
</event>
<event>
 4    1  0.4917371E-005  0.9168068E+03  0.7818608E-02  0.9404813E-01
         -2   -1    0    0    0  501 -0.00000000000E+00  0.00000000000E+00  0.75905212231E+02  0.75905212274E+02  0.25500000000E-02 0. -1.
          2   -1    0    0  501    0  0.00000000000E+00 -0.00000000000E+00 -0.27683697462E+04  0.27683697462E+04  0.25500000000E-02 0.  1.
    5000001    1    1    2    0    0 -0.35061126324E+03 -0.19810361523E+03 -0.10625833665E+04  0.11536280644E+04  0.19900000000E+03 0.  0.
   -5000001    1    1    2    0    0  0.35061126324E+03  0.19810361523E+03 -0.16298811675E+04  0.16906468941E+04  0.19900000000E+03 0.  0.
<mgrwt>
<rscale>  0 0.91680684E+03</rscale>
<asrwt>0</asrwt>
<pdfrwt beam="1">  1        2 0.39548133E+00 0.91680684E+03</pdfrwt>
<pdfrwt beam="2">  1       -2 0.10843603E-01 0.91680684E+03</pdfrwt>
<totfact> 0.19498729E+02</totfact>
</mgrwt>
</event>
<event>
 4    1  0.4917371E-005  0.6087914E+03  0.7818608E-02  0.9887333E-01
         -2   -1    0    0    0  501 -0.00000000000E+00  0.00000000000E+00  0.53483252200E+02  0.53483252260E+02  0.25500000000E-02 0. -1.
          2   -1    0    0  501    0  0.00000000000E+00 -0.00000000000E+00 -0.17324440372E+04  0.17324440372E+04  0.25500000000E-02 0.  1.
    5000001    1    1    2    0    0  0.94190555158E+02 -0.20467298192E+03 -0.97995026980E+03  0.10250202054E+04  0.19900000000E+03 0.  0.
   -5000001    1    1    2    0    0 -0.94190555158E+02  0.20467298192E+03 -0.69901051522E+03  0.76090708408E+03  0.19900000000E+03 0.  0.
<mgrwt>
<rscale>  0 0.60879140E+03</rscale>
<asrwt>0</asrwt>
<pdfrwt beam="1">  1        2 0.24749197E+00 0.60879140E+03</pdfrwt>
<pdfrwt beam="2">  1       -2 0.76404657E-02 0.60879140E+03</pdfrwt>
<totfact> 0.11916922E+03</totfact>
</mgrwt>
</event>
<event>
 4    1  0.4917371E-005  0.4980674E+03  0.7818608E-02  0.1014285E+00
         -2   -1    0    0    0  501 -0.00000000000E+00  0.00000000000E+00  0.13035615090E+03  0.13035615093E+03  0.25500000000E-02 0. -1.
          2   -1    0    0  501    0  0.00000000000E+00 -0.00000000000E+00 -0.47575649550E+03  0.47575649551E+03  0.25500000000E-02 0.  1.
    5000001    1    1    2    0    0  0.10328457592E+03 -0.49695574876E+00 -0.40794757568E+02  0.22788848772E+03  0.19900000000E+03 0.  0.
   -5000001    1    1    2    0    0 -0.10328457592E+03  0.49695574876E+00 -0.30460558703E+03  0.37822415872E+03  0.19900000000E+03 0.  0.
<mgrwt>
<rscale>  0 0.49806741E+03</rscale>
<asrwt>0</asrwt>
<pdfrwt beam="1">  1        2 0.67965213E-01 0.49806741E+03</pdfrwt>
<pdfrwt beam="2">  1       -2 0.18622308E-01 0.49806741E+03</pdfrwt>
<totfact> 0.17115501E+03</totfact>
</mgrwt>
</event>
<event>
 4    1  0.4917371E-005  0.4497342E+03  0.7818608E-02  0.1027801E+00
          2   -1    0    0  501    0  0.00000000000E+00  0.00000000000E+00  0.57200839486E+02  0.57200839543E+02  0.25500000000E-02 0.  1.
         -2   -1    0    0    0  501 -0.00000000000E+00 -0.00000000000E+00 -0.88399409972E+03  0.88399409972E+03  0.25500000000E-02 0. -1.
    5000001    1    1    2    0    0 -0.29324614403E+02 -0.91448726453E+02 -0.50072859453E+03  0.54731428628E+03  0.19900000000E+03 0.  0.
   -5000001    1    1    2    0    0  0.29324614403E+02  0.91448726453E+02 -0.32606466570E+03  0.39388065298E+03  0.19900000000E+03 0.  0.
<mgrwt>
<rscale>  0 0.44973416E+03</rscale>
<asrwt>0</asrwt>
<pdfrwt beam="1">  1        2 0.81715490E-02 0.44973416E+03</pdfrwt>
<pdfrwt beam="2">  1       -2 0.12628486E+00 0.44973416E+03</pdfrwt>
<totfact> 0.40740551E+02</totfact>
</mgrwt>
</event>
<event>
 4    1  0.4917371E-005  0.6333761E+03  0.7818608E-02  0.9838483E-01
         -2   -1    0    0    0  501 -0.00000000000E+00  0.00000000000E+00  0.48115433594E+02  0.48115433662E+02  0.25500000000E-02 0. -1.
          2   -1    0    0  501    0  0.00000000000E+00 -0.00000000000E+00 -0.20843898631E+04  0.20843898631E+04  0.25500000000E-02 0.  1.
    5000001    1    1    2    0    0 -0.19596140982E+02  0.22717779033E+03 -0.13321174548E+04  0.13660642996E+04  0.19900000000E+03 0.  0.
   -5000001    1    1    2    0    0  0.19596140982E+02 -0.22717779033E+03 -0.70415697467E+03  0.76644099717E+03  0.19900000000E+03 0.  0.
<mgrwt>
<rscale>  0 0.63337610E+03</rscale>
<asrwt>0</asrwt>
<pdfrwt beam="1">  1        2 0.29776992E+00 0.63337610E+03</pdfrwt>
<pdfrwt beam="2">  1       -2 0.68736347E-02 0.63337610E+03</pdfrwt>
<totfact> 0.93538281E+02</totfact>
</mgrwt>
</event>
<event>
 4    1  0.4917371E-005  0.5721960E+03  0.7818608E-02  0.9964831E-01
          2   -1    0    0  501    0  0.00000000000E+00  0.00000000000E+00  0.32924287060E+03  0.32924287061E+03  0.25500000000E-02 0.  1.
         -2   -1    0    0    0  501 -0.00000000000E+00 -0.00000000000E+00 -0.24860696831E+03  0.24860696832E+03  0.25500000000E-02 0. -1.
    5000001    1    1    2    0    0 -0.19631303441E+03 -0.50107710983E+02  0.53130587305E+01  0.28404017105E+03  0.19900000000E+03 0.  0.
   -5000001    1    1    2    0    0  0.19631303441E+03  0.50107710983E+02  0.75322843567E+02  0.29380966788E+03  0.19900000000E+03 0.  0.
<mgrwt>
<rscale>  0 0.57219602E+03</rscale>
<asrwt>0</asrwt>
<pdfrwt beam="1">  1        2 0.47034696E-01 0.57219602E+03</pdfrwt>
<pdfrwt beam="2">  1       -2 0.35515281E-01 0.57219602E+03</pdfrwt>
<totfact> 0.80411419E+02</totfact>
</mgrwt>
</event>
<event>
 4    1  0.4917371E-005  0.1012890E+04  0.7818608E-02  0.9294519E-01
          2   -1    0    0  501    0  0.00000000000E+00  0.00000000000E+00  0.21671437107E+04  0.21671437107E+04  0.25500000000E-02 0.  1.
         -2   -1    0    0    0  501 -0.00000000000E+00 -0.00000000000E+00 -0.11835241461E+03  0.11835241464E+03  0.25500000000E-02 0. -1.
    5000001    1    1    2    0    0 -0.59293082240E+02  0.42169690914E+03  0.14497857772E+04  0.15240812815E+04  0.19900000000E+03 0.  0.
   -5000001    1    1    2    0    0  0.59293082240E+02 -0.42169690914E+03  0.59900551887E+03  0.76141484384E+03  0.19900000000E+03 0.  0.
<mgrwt>
<rscale>  0 0.10128903E+04</rscale>
<asrwt>0</asrwt>
<pdfrwt beam="1">  1        2 0.30959194E+00 0.10128903E+04</pdfrwt>
<pdfrwt beam="2">  1       -2 0.16907489E-01 0.10128903E+04</pdfrwt>
<totfact> 0.18855035E+02</totfact>
</mgrwt>
</event>
<event>
 4    1  0.4917371E-005  0.5308436E+03  0.7818608E-02  0.1006028E+00
         -2   -1    0    0    0  501 -0.00000000000E+00  0.00000000000E+00  0.24334658809E+02  0.24334658943E+02  0.25500000000E-02 0. -1.
          2   -1    0    0  501    0  0.00000000000E+00 -0.00000000000E+00 -0.28949956679E+04  0.28949956679E+04  0.25500000000E-02 0.  1.
    5000001    1    1    2    0    0 -0.15977678851E+03 -0.72800093023E+02 -0.14594630701E+04  0.14833954054E+04  0.19900000000E+03 0.  0.
   -5000001    1    1    2    0    0  0.15977678851E+03  0.72800093023E+02 -0.14111979390E+04  0.14359349214E+04  0.19900000000E+03 0.  0.
<mgrwt>
<rscale>  0 0.53084360E+03</rscale>
<asrwt>0</asrwt>
<pdfrwt beam="1">  1        2 0.41357059E+00 0.53084360E+03</pdfrwt>
<pdfrwt beam="2">  1       -2 0.34763817E-02 0.53084360E+03</pdfrwt>
<totfact> 0.10379466E+03</totfact>
</mgrwt>
</event>
<event>
 4    1  0.4917371E-005  0.4518646E+03  0.7818608E-02  0.1027167E+00
         -2   -1    0    0    0  501 -0.00000000000E+00  0.00000000000E+00  0.60508299236E+02  0.60508299289E+02  0.25500000000E-02 0. -1.
          2   -1    0    0  501    0  0.00000000000E+00 -0.00000000000E+00 -0.84361010910E+03  0.84361010911E+03  0.25500000000E-02 0.  1.
    5000001    1    1    2    0    0 -0.28011817480E+02  0.14666432421E+02 -0.18706478504E+03  0.27494363052E+03  0.19900000000E+03 0.  0.
   -5000001    1    1    2    0    0  0.28011817480E+02 -0.14666432421E+02 -0.59603702482E+03  0.62917477788E+03  0.19900000000E+03 0.  0.
<mgrwt>
<rscale>  0 0.45186464E+03</rscale>
<asrwt>0</asrwt>
<pdfrwt beam="1">  1        2 0.12051572E+00 0.45186464E+03</pdfrwt>
<pdfrwt beam="2">  1       -2 0.86440432E-02 0.45186464E+03</pdfrwt>
<totfact> 0.30678634E+03</totfact>
</mgrwt>
</event>
<event>
 4    1  0.4917371E-005  0.7029374E+03  0.7818608E-02  0.9712222E-01
          2   -1    0    0  501    0  0.00000000000E+00  0.00000000000E+00  0.24686662176E+04  0.24686662176E+04  0.25500000000E-02 0.  1.
         -2   -1    0    0    0  501 -0.00000000000E+00 -0.00000000000E+00 -0.50039260623E+02  0.50039260688E+02  0.25500000000E-02 0. -1.
    5000001    1    1    2    0    0  0.26322821715E+03  0.54480458137E+02  0.15964228908E+04  0.16310807034E+04  0.19900000000E+03 0.  0.
   -5000001    1    1    2    0    0 -0.26322821715E+03 -0.54480458137E+02  0.82220406623E+03  0.88762477497E+03  0.19900000000E+03 0.  0.
<mgrwt>
<rscale>  0 0.70293736E+03</rscale>
<asrwt>0</asrwt>
<pdfrwt beam="1">  1        2 0.35266662E+00 0.70293736E+03</pdfrwt>
<pdfrwt beam="2">  1       -2 0.71484654E-02 0.70293736E+03</pdfrwt>
<totfact> 0.55822973E+02</totfact>
</mgrwt>
</event>
<event>
 4    1  0.4917371E-005  0.4867443E+03  0.7818608E-02  0.1017298E+00
          2   -1    0    0  501    0  0.00000000000E+00  0.00000000000E+00  0.25030413315E+04  0.25030413315E+04  0.25500000000E-02 0.  1.
         -2   -1    0    0    0  501 -0.00000000000E+00 -0.00000000000E+00 -0.23663212014E+02  0.23663212151E+02  0.25500000000E-02 0. -1.
    5000001    1    1    2    0    0 -0.61914752732E+02 -0.66316868772E+02  0.68549615127E+03  0.71953967028E+03  0.19900000000E+03 0.  0.
   -5000001    1    1    2    0    0  0.61914752732E+02  0.66316868772E+02  0.17938819682E+04  0.18071648734E+04  0.19900000000E+03 0.  0.
<mgrwt>
<rscale>  0 0.48674428E+03</rscale>
<asrwt>0</asrwt>
<pdfrwt beam="1">  1        2 0.35757738E+00 0.48674428E+03</pdfrwt>
<pdfrwt beam="2">  1       -2 0.33804585E-02 0.48674428E+03</pdfrwt>
<totfact> 0.17389820E+03</totfact>
</mgrwt>
</event>
<event>
 4    1  0.4917371E-005  0.6146724E+03  0.7818608E-02  0.9875425E-01
          2   -1    0    0  501    0  0.00000000000E+00  0.00000000000E+00  0.16157411127E+04  0.16157411127E+04  0.25500000000E-02 0.  1.
         -2   -1    0    0    0  501 -0.00000000000E+00 -0.00000000000E+00 -0.58459569991E+02  0.58459570046E+02  0.25500000000E-02 0. -1.
    5000001    1    1    2    0    0  0.93229726652E+02 -0.15221987020E+03  0.36563998838E+03  0.45294179749E+03  0.19900000000E+03 0.  0.
   -5000001    1    1    2    0    0 -0.93229726652E+02  0.15221987020E+03  0.11916415544E+04  0.12212588853E+04  0.19900000000E+03 0.  0.
<mgrwt>
<rscale>  0 0.61467237E+03</rscale>
<asrwt>0</asrwt>
<pdfrwt beam="1">  1        2 0.23082020E+00 0.61467237E+03</pdfrwt>
<pdfrwt beam="2">  1       -2 0.83513658E-02 0.61467237E+03</pdfrwt>
<totfact> 0.11857714E+03</totfact>
</mgrwt>
</event>
<event>
 4    1  0.4917371E-005  0.9354935E+03  0.7818608E-02  0.9382269E-01
         -2   -1    0    0    0  501 -0.00000000000E+00  0.00000000000E+00  0.25561260051E+03  0.25561260053E+03  0.25500000000E-02 0. -1.
          2   -1    0    0  501    0  0.00000000000E+00 -0.00000000000E+00 -0.85593201945E+03  0.85593201945E+03  0.25500000000E-02 0.  1.
    5000001    1    1    2    0    0 -0.19194562511E+03 -0.36272461993E+03 -0.17682954423E+03  0.48916455372E+03  0.19900000000E+03 0.  0.
   -5000001    1    1    2    0    0  0.19194562511E+03  0.36272461993E+03 -0.42348987471E+03  0.62238006626E+03  0.19900000000E+03 0.  0.
<mgrwt>
<rscale>  0 0.93549347E+03</rscale>
<asrwt>0</asrwt>
<pdfrwt beam="1">  1        2 0.12227600E+00 0.93549347E+03</pdfrwt>
<pdfrwt beam="2">  1       -2 0.36516086E-01 0.93549347E+03</pdfrwt>
<totfact> 0.24544491E+02</totfact>
</mgrwt>
</event>
<event>
 4    1  0.4917371E-005  0.8628829E+03  0.7818608E-02  0.9473207E-01
          2   -1    0    0  501    0  0.00000000000E+00  0.00000000000E+00  0.25668108215E+04  0.25668108215E+04  0.25500000000E-02 0.  1.
         -2   -1    0    0    0  501 -0.00000000000E+00 -0.00000000000E+00 -0.72518684343E+02  0.72518684388E+02  0.25500000000E-02 0. -1.
    5000001    1    1    2    0    0  0.38838713004E+02 -0.38019490449E+03  0.11798446889E+04  0.12560617425E+04  0.19900000000E+03 0.  0.
   -5000001    1    1    2    0    0 -0.38838713004E+02  0.38019490449E+03  0.13144474482E+04  0.13832677634E+04  0.19900000000E+03 0.  0.
<mgrwt>
<rscale>  0 0.86288294E+03</rscale>
<asrwt>0</asrwt>
<pdfrwt beam="1">  1        2 0.36668736E+00 0.86288294E+03</pdfrwt>
<pdfrwt beam="2">  1       -2 0.10359809E-01 0.86288294E+03</pdfrwt>
<totfact> 0.26968141E+02</totfact>
</mgrwt>
</event>
<event>
 4    1  0.4917371E-005  0.5153887E+03  0.7818608E-02  0.1009839E+00
         -2   -1    0    0    0  501 -0.00000000000E+00  0.00000000000E+00  0.20322687115E+02  0.20322687275E+02  0.25500000000E-02 0. -1.
          2   -1    0    0  501    0  0.00000000000E+00 -0.00000000000E+00 -0.32675980886E+04  0.32675980886E+04  0.25500000000E-02 0.  1.
    5000001    1    1    2    0    0 -0.12627080721E+03  0.49835551060E+02 -0.22075438303E+04  0.22206482525E+04  0.19900000000E+03 0.  0.
   -5000001    1    1    2    0    0  0.12627080721E+03 -0.49835551060E+02 -0.10397315712E+04  0.10672725233E+04  0.19900000000E+03 0.  0.
<mgrwt>
<rscale>  0 0.51538868E+03</rscale>
<asrwt>0</asrwt>
<pdfrwt beam="1">  1        2 0.46679939E+00 0.51538868E+03</pdfrwt>
<pdfrwt beam="2">  1       -2 0.29032431E-02 0.51538868E+03</pdfrwt>
<totfact> 0.85330803E+02</totfact>
</mgrwt>
</event>
<event>
 4    1  0.4917371E-005  0.4974865E+03  0.7818608E-02  0.1014437E+00
         -2   -1    0    0    0  501 -0.00000000000E+00  0.00000000000E+00  0.37222893687E+02  0.37222893774E+02  0.25500000000E-02 0. -1.
          2   -1    0    0  501    0  0.00000000000E+00 -0.00000000000E+00 -0.16622354638E+04  0.16622354638E+04  0.25500000000E-02 0.  1.
    5000001    1    1    2    0    0  0.11591199825E+03  0.18384798230E+02 -0.11274286087E+04  0.11508561421E+04  0.19900000000E+03 0.  0.
   -5000001    1    1    2    0    0 -0.11591199825E+03 -0.18384798230E+02 -0.49758396138E+03  0.54860221542E+03  0.19900000000E+03 0.  0.
<mgrwt>
<rscale>  0 0.49748654E+03</rscale>
<asrwt>0</asrwt>
<pdfrwt beam="1">  1        2 0.23746216E+00 0.49748654E+03</pdfrwt>
<pdfrwt beam="2">  1       -2 0.53175573E-02 0.49748654E+03</pdfrwt>
<totfact> 0.22934058E+03</totfact>
</mgrwt>
</event>
<event>
 4    1  0.4917371E-005  0.8501151E+03  0.7818608E-02  0.9490183E-01
          2   -1    0    0  501    0  0.00000000000E+00  0.00000000000E+00  0.50227934863E+03  0.50227934864E+03  0.25500000000E-02 0.  1.
         -2   -1    0    0    0  501 -0.00000000000E+00 -0.00000000000E+00 -0.35970802938E+03  0.35970802939E+03  0.25500000000E-02 0. -1.
    5000001    1    1    2    0    0 -0.36767980316E+03 -0.70754050615E+02  0.10133637760E+03  0.43596402920E+03  0.19900000000E+03 0.  0.
   -5000001    1    1    2    0    0  0.36767980316E+03  0.70754050615E+02  0.41234941661E+02  0.42602334883E+03  0.19900000000E+03 0.  0.
<mgrwt>
<rscale>  0 0.85011509E+03</rscale>
<asrwt>0</asrwt>
<pdfrwt beam="1">  1        2 0.71754192E-01 0.85011509E+03</pdfrwt>
<pdfrwt beam="2">  1       -2 0.51386862E-01 0.85011509E+03</pdfrwt>
<totfact> 0.24013880E+02</totfact>
</mgrwt>
</event>
<event>
 4    1  0.4917371E-005  0.1133200E+04  0.7818608E-02  0.9173423E-01
          2   -1    0    0  501    0  0.00000000000E+00  0.00000000000E+00  0.46399259668E+03  0.46399259669E+03  0.25500000000E-02 0.  1.
         -2   -1    0    0    0  501 -0.00000000000E+00 -0.00000000000E+00 -0.69189855763E+03  0.69189855763E+03  0.25500000000E-02 0. -1.
    5000001    1    1    2    0    0  0.36679318835E+03 -0.18352724414E+03  0.22925928343E+03  0.51027474109E+03  0.19900000000E+03 0.  0.
   -5000001    1    1    2    0    0 -0.36679318835E+03  0.18352724414E+03 -0.45716524438E+03  0.64561641323E+03  0.19900000000E+03 0.  0.
<mgrwt>
<rscale>  0 0.11332004E+04</rscale>
<asrwt>0</asrwt>
<pdfrwt beam="1">  1        2 0.66284657E-01 0.11332004E+04</pdfrwt>
<pdfrwt beam="2">  1       -2 0.98842650E-01 0.11332004E+04</pdfrwt>
<totfact> 0.61595778E+01</totfact>
</mgrwt>
</event>
<event>
 4    1  0.4917371E-005  0.6576040E+03  0.7818608E-02  0.9792614E-01
          2   -1    0    0  501    0  0.00000000000E+00  0.00000000000E+00  0.19046029372E+04  0.19046029372E+04  0.25500000000E-02 0.  1.
         -2   -1    0    0    0  501 -0.00000000000E+00 -0.00000000000E+00 -0.56762890313E+02  0.56762890370E+02  0.25500000000E-02 0. -1.
    5000001    1    1    2    0    0  0.24781612581E+03 -0.46755186044E+02  0.71490661399E+03  0.78376740578E+03  0.19900000000E+03 0.  0.
   -5000001    1    1    2    0    0 -0.24781612581E+03  0.46755186044E+02  0.11329334329E+04  0.11775984218E+04  0.19900000000E+03 0.  0.
<mgrwt>
<rscale>  0 0.65760404E+03</rscale>
<asrwt>0</asrwt>
<pdfrwt beam="1">  1        2 0.27208618E+00 0.65760404E+03</pdfrwt>
<pdfrwt beam="2">  1       -2 0.81089830E-02 0.65760404E+03</pdfrwt>
<totfact> 0.88479784E+02</totfact>
</mgrwt>
</event>
<event>
 4    1  0.4917371E-005  0.7838416E+03  0.7818608E-02  0.9583705E-01
          2   -1    0    0  501    0  0.00000000000E+00  0.00000000000E+00  0.22702715130E+03  0.22702715132E+03  0.25500000000E-02 0. -1.
         -2   -1    0    0    0  501 -0.00000000000E+00 -0.00000000000E+00 -0.67657949432E+03  0.67657949433E+03  0.25500000000E-02 0.  1.
    5000001    1    1    2    0    0 -0.30610583003E+03  0.39693012176E+02 -0.67030522437E+02  0.37332345939E+03  0.19900000000E+03 0.  0.
   -5000001    1    1    2    0    0  0.30610583003E+03 -0.39693012176E+02 -0.38252182058E+03  0.53028318625E+03  0.19900000000E+03 0.  0.
<mgrwt>
<rscale>  0 0.78384160E+03</rscale>
<asrwt>0</asrwt>
<pdfrwt beam="1">  1        2 0.32432451E-01 0.78384160E+03</pdfrwt>
<pdfrwt beam="2">  1       -2 0.96654212E-01 0.78384160E+03</pdfrwt>
<totfact> 0.14698492E+02</totfact>
</mgrwt>
</event>
<event>
 4    1  0.4917371E-005  0.4356548E+03  0.7818608E-02  0.1032088E+00
         -2   -1    0    0    0  501 -0.00000000000E+00  0.00000000000E+00  0.10428602755E+03  0.10428602758E+03  0.25500000000E-02 0. -1.
          2   -1    0    0  501    0  0.00000000000E+00 -0.00000000000E+00 -0.45498679562E+03  0.45498679562E+03  0.25500000000E-02 0.  1.
    5000001    1    1    2    0    0 -0.46092657008E+02  0.74415041658E+02 -0.15785956722E+03  0.26866852145E+03  0.19900000000E+03 0.  0.
   -5000001    1    1    2    0    0  0.46092657008E+02 -0.74415041658E+02 -0.19284120085E+03  0.29060430176E+03  0.19900000000E+03 0.  0.
<mgrwt>
<rscale>  0 0.43565475E+03</rscale>
<asrwt>0</asrwt>
<pdfrwt beam="1">  1        2 0.64998113E-01 0.43565475E+03</pdfrwt>
<pdfrwt beam="2">  1       -2 0.14898004E-01 0.43565475E+03</pdfrwt>
<totfact> 0.26222420E+03</totfact>
</mgrwt>
</event>
<event>
 4    1  0.4917371E-005  0.9833565E+03  0.7818608E-02  0.9326990E-01
          2   -1    0    0  501    0  0.00000000000E+00  0.00000000000E+00  0.11517008479E+04  0.11517008479E+04  0.25500000000E-02 0.  1.
         -2   -1    0    0    0  501 -0.00000000000E+00 -0.00000000000E+00 -0.20990476850E+03  0.20990476851E+03  0.25500000000E-02 0. -1.
    5000001    1    1    2    0    0 -0.16811415211E+03  0.39129754325E+03  0.67045294162E+03  0.81883104632E+03  0.19900000000E+03 0.  0.
   -5000001    1    1    2    0    0  0.16811415211E+03 -0.39129754325E+03  0.27134313774E+03  0.54277457005E+03  0.19900000000E+03 0.  0.
<mgrwt>
<rscale>  0 0.98335650E+03</rscale>
<asrwt>0</asrwt>
<pdfrwt beam="1">  1        2 0.16452869E+00 0.98335650E+03</pdfrwt>
<pdfrwt beam="2">  1       -2 0.29986396E-01 0.98335650E+03</pdfrwt>
<totfact> 0.23297262E+02</totfact>
</mgrwt>
</event>
<event>
 4    1  0.4917371E-005  0.5401846E+03  0.7818608E-02  0.1003792E+00
         -2   -1    0    0    0  501 -0.00000000000E+00  0.00000000000E+00  0.25687308375E+02  0.25687308502E+02  0.25500000000E-02 0. -1.
          2   -1    0    0  501    0  0.00000000000E+00 -0.00000000000E+00 -0.28399183693E+04  0.28399183693E+04  0.25500000000E-02 0.  1.
    5000001    1    1    2    0    0  0.78313582995E+02  0.11348407520E+03 -0.77192140231E+03  0.80899647956E+03  0.19900000000E+03 0.  0.
   -5000001    1    1    2    0    0 -0.78313582995E+02 -0.11348407520E+03 -0.20423096586E+04  0.20566091982E+04  0.19900000000E+03 0.  0.
<mgrwt>
<rscale>  0 0.54018463E+03</rscale>
<asrwt>0</asrwt>
<pdfrwt beam="1">  1        2 0.40570242E+00 0.54018463E+03</pdfrwt>
<pdfrwt beam="2">  1       -2 0.36696173E-02 0.54018463E+03</pdfrwt>
<totfact> 0.10216353E+03</totfact>
</mgrwt>
</event>
<event>
 4    1  0.4917371E-005  0.4670670E+03  0.7818608E-02  0.1022751E+00
          2   -1    0    0  501    0  0.00000000000E+00  0.00000000000E+00  0.20466892728E+04  0.20466892728E+04  0.25500000000E-02 0.  1.
         -2   -1    0    0    0  501 -0.00000000000E+00 -0.00000000000E+00 -0.26646882200E+02  0.26646882322E+02  0.25500000000E-02 0. -1.
    5000001    1    1    2    0    0 -0.91573793975E+02  0.37734625006E+02  0.13278782209E+04  0.13463547939E+04  0.19900000000E+03 0.  0.
   -5000001    1    1    2    0    0  0.91573793975E+02 -0.37734625006E+02  0.69216416971E+03  0.72698136118E+03  0.19900000000E+03 0.  0.
<mgrwt>
<rscale>  0 0.46706697E+03</rscale>
<asrwt>0</asrwt>
<pdfrwt beam="1">  1        2 0.29238417E+00 0.46706697E+03</pdfrwt>
<pdfrwt beam="2">  1       -2 0.38066976E-02 0.46706697E+03</pdfrwt>
<totfact> 0.24629202E+03</totfact>
</mgrwt>
</event>
<event>
 4    1  0.4917371E-005  0.5681706E+03  0.7818608E-02  0.9973735E-01
         -2   -1    0    0    0  501 -0.00000000000E+00  0.00000000000E+00  0.60809708404E+02  0.60809708458E+02  0.25500000000E-02 0. -1.
          2   -1    0    0  501    0  0.00000000000E+00 -0.00000000000E+00 -0.13271642016E+04  0.13271642016E+04  0.25500000000E-02 0.  1.
    5000001    1    1    2    0    0  0.14716492716E+03 -0.11427981196E+03 -0.82839512579E+03  0.87209912031E+03  0.19900000000E+03 0.  0.
   -5000001    1    1    2    0    0 -0.14716492716E+03  0.11427981196E+03 -0.43795936743E+03  0.51587478978E+03  0.19900000000E+03 0.  0.
<mgrwt>
<rscale>  0 0.56817064E+03</rscale>
<asrwt>0</asrwt>
<pdfrwt beam="1">  1        2 0.18959487E+00 0.56817064E+03</pdfrwt>
<pdfrwt beam="2">  1       -2 0.86871020E-02 0.56817064E+03</pdfrwt>
<totfact> 0.15798906E+03</totfact>
</mgrwt>
</event>
<event>
 4    1  0.4917371E-005  0.4240826E+03  0.7818608E-02  0.1035746E+00
         -2   -1    0    0    0  501 -0.00000000000E+00  0.00000000000E+00  0.15764786982E+03  0.15764786984E+03  0.25500000000E-02 0. -1.
          2   -1    0    0  501    0  0.00000000000E+00 -0.00000000000E+00 -0.28520220868E+03  0.28520220869E+03  0.25500000000E-02 0.  1.
    5000001    1    1    2    0    0 -0.51914068431E+02 -0.51626305811E+02 -0.64213665156E+02  0.22155076336E+03  0.19900000000E+03 0.  0.
   -5000001    1    1    2    0    0  0.51914068431E+02  0.51626305811E+02 -0.63340673704E+02  0.22129931518E+03  0.19900000000E+03 0.  0.
<mgrwt>
<rscale>  0 0.42408264E+03</rscale>
<asrwt>0</asrwt>
<pdfrwt beam="1">  1        2 0.40743172E-01 0.42408264E+03</pdfrwt>
<pdfrwt beam="2">  1       -2 0.22521124E-01 0.42408264E+03</pdfrwt>
<totfact> 0.21582531E+03</totfact>
</mgrwt>
</event>
<event>
 4    1  0.4917371E-005  0.8485339E+03  0.7818608E-02  0.9492307E-01
          2   -1    0    0  501    0  0.00000000000E+00  0.00000000000E+00  0.11933889805E+04  0.11933889805E+04  0.25500000000E-02 0.  1.
         -2   -1    0    0    0  501 -0.00000000000E+00 -0.00000000000E+00 -0.15083299311E+03  0.15083299313E+03  0.25500000000E-02 0. -1.
    5000001    1    1    2    0    0  0.10406254112E+03  0.34720241452E+03  0.37079932261E+03  0.55540225671E+03  0.19900000000E+03 0.  0.
   -5000001    1    1    2    0    0 -0.10406254112E+03 -0.34720241452E+03  0.67175666477E+03  0.78881971691E+03  0.19900000000E+03 0.  0.
<mgrwt>
<rscale>  0 0.84853387E+03</rscale>
<asrwt>0</asrwt>
<pdfrwt beam="1">  1        2 0.17048414E+00 0.84853387E+03</pdfrwt>
<pdfrwt beam="2">  1       -2 0.21547571E-01 0.84853387E+03</pdfrwt>
<totfact> 0.40412668E+02</totfact>
</mgrwt>
</event>
<event>
 4    1  0.4917371E-005  0.6639081E+03  0.7818608E-02  0.9781026E-01
         -2   -1    0    0    0  501 -0.00000000000E+00  0.00000000000E+00  0.12448847463E+03  0.12448847465E+03  0.25500000000E-02 0. -1.
          2   -1    0    0  501    0  0.00000000000E+00 -0.00000000000E+00 -0.88517019355E+03  0.88517019355E+03  0.25500000000E-02 0.  1.
    5000001    1    1    2    0    0  0.24442916546E+03 -0.81978865676E+02 -0.28265113034E+03  0.43122942018E+03  0.19900000000E+03 0.  0.
   -5000001    1    1    2    0    0 -0.24442916546E+03  0.81978865676E+02 -0.47803058858E+03  0.57842924802E+03  0.19900000000E+03 0.  0.
<mgrwt>
<rscale>  0 0.66390809E+03</rscale>
<asrwt>0</asrwt>
<pdfrwt beam="1">  1        2 0.12645288E+00 0.66390809E+03</pdfrwt>
<pdfrwt beam="2">  1       -2 0.17784068E-01 0.66390809E+03</pdfrwt>
<totfact> 0.87391648E+02</totfact>
</mgrwt>
</event>
<event>
 4    1  0.4917371E-005  0.1253218E+04  0.7818608E-02  0.9067509E-01
          2   -1    0    0  501    0  0.00000000000E+00  0.00000000000E+00  0.17507854635E+04  0.17507854635E+04  0.25500000000E-02 0. -1.
         -2   -1    0    0    0  501 -0.00000000000E+00 -0.00000000000E+00 -0.22426431857E+03  0.22426431859E+03  0.25500000000E-02 0.  1.
    5000001    1    1    2    0    0 -0.44832987856E+00  0.59414184902E+03  0.75421119225E+03  0.98053060139E+03  0.19900000000E+03 0.  0.
   -5000001    1    1    2    0    0  0.44832987856E+00 -0.59414184902E+03  0.77230995271E+03  0.99451918072E+03  0.19900000000E+03 0.  0.
<mgrwt>
<rscale>  0 0.12532178E+04</rscale>
<asrwt>0</asrwt>
<pdfrwt beam="1">  1        2 0.25011221E+00 0.12532178E+04</pdfrwt>
<pdfrwt beam="2">  1       -2 0.32037760E-01 0.12532178E+04</pdfrwt>
<totfact> 0.96169737E+01</totfact>
</mgrwt>
</event>
<event>
 4    1  0.4917371E-005  0.5803215E+03  0.7818608E-02  0.9947095E-01
         -2   -1    0    0    0  501 -0.00000000000E+00  0.00000000000E+00  0.26457221051E+03  0.26457221052E+03  0.25500000000E-02 0. -1.
          2   -1    0    0  501    0  0.00000000000E+00 -0.00000000000E+00 -0.31822409657E+03  0.31822409658E+03  0.25500000000E-02 0.  1.
    5000001    1    1    2    0    0 -0.10779471487E+03  0.13795984838E+03 -0.14539566770E+03  0.30231361283E+03  0.19900000000E+03 0.  0.
   -5000001    1    1    2    0    0  0.10779471487E+03 -0.13795984838E+03  0.91743781639E+02  0.28048269427E+03  0.19900000000E+03 0.  0.
<mgrwt>
<rscale>  0 0.58032147E+03</rscale>
<asrwt>0</asrwt>
<pdfrwt beam="1">  1        2 0.45460585E-01 0.58032147E+03</pdfrwt>
<pdfrwt beam="2">  1       -2 0.37796030E-01 0.58032147E+03</pdfrwt>
<totfact> 0.74127198E+02</totfact>
</mgrwt>
</event>
<event>
 4    1  0.4917371E-005  0.5500020E+03  0.7818608E-02  0.1001493E+00
         -2   -1    0    0    0  501 -0.00000000000E+00  0.00000000000E+00  0.73398482599E+03  0.73398482600E+03  0.25500000000E-02 0. -1.
          2   -1    0    0  501    0  0.00000000000E+00 -0.00000000000E+00 -0.10303422260E+03  0.10303422263E+03  0.25500000000E-02 0.  1.
    5000001    1    1    2    0    0 -0.98419605245E+02 -0.14429667710E+03  0.42850876882E+03  0.50371491409E+03  0.19900000000E+03 0.  0.
   -5000001    1    1    2    0    0  0.98419605245E+02  0.14429667710E+03  0.20244183457E+03  0.33330413454E+03  0.19900000000E+03 0.  0.
<mgrwt>
<rscale>  0 0.55000202E+03</rscale>
<asrwt>0</asrwt>
<pdfrwt beam="1">  1        2 0.14719175E-01 0.55000202E+03</pdfrwt>
<pdfrwt beam="2">  1       -2 0.10485497E+00 0.55000202E+03</pdfrwt>
<totfact> 0.30624725E+02</totfact>
</mgrwt>
</event>
<event>
 4    1  0.4917371E-005  0.5052509E+03  0.7818608E-02  0.1012417E+00
          2   -1    0    0  501    0  0.00000000000E+00  0.00000000000E+00  0.90052777136E+03  0.90052777136E+03  0.25500000000E-02 0.  1.
         -2   -1    0    0    0  501 -0.00000000000E+00 -0.00000000000E+00 -0.70869142078E+02  0.70869142124E+02  0.25500000000E-02 0. -1.
    5000001    1    1    2    0    0 -0.20217633397E+02  0.13718140900E+03  0.27900128224E+03  0.36968933872E+03  0.19900000000E+03 0.  0.
   -5000001    1    1    2    0    0  0.20217633397E+02 -0.13718140900E+03  0.55065734704E+03  0.60170757477E+03  0.19900000000E+03 0.  0.
<mgrwt>
<rscale>  0 0.50525095E+03</rscale>
<asrwt>0</asrwt>
<pdfrwt beam="1">  1        2 0.12864682E+00 0.50525095E+03</pdfrwt>
<pdfrwt beam="2">  1       -2 0.10124163E-01 0.50525095E+03</pdfrwt>
<totfact> 0.21867568E+03</totfact>
</mgrwt>
</event>
<event>
 4    1  0.4917371E-005  0.4811363E+03  0.7818608E-02  0.1018823E+00
         -2   -1    0    0    0  501 -0.00000000000E+00  0.00000000000E+00  0.11910544492E+03  0.11910544495E+03  0.25500000000E-02 0. -1.
          2   -1    0    0  501    0  0.00000000000E+00 -0.00000000000E+00 -0.48589750029E+03  0.48589750029E+03  0.25500000000E-02 0.  1.
    5000001    1    1    2    0    0 -0.12972348234E+02  0.12590673805E+03 -0.12373356662E+03  0.26633021611E+03  0.19900000000E+03 0.  0.
   -5000001    1    1    2    0    0  0.12972348234E+02 -0.12590673805E+03 -0.24305848875E+03  0.33867272913E+03  0.19900000000E+03 0.  0.
<mgrwt>
<rscale>  0 0.48113631E+03</rscale>
<asrwt>0</asrwt>
<pdfrwt beam="1">  1        2 0.69413928E-01 0.48113631E+03</pdfrwt>
<pdfrwt beam="2">  1       -2 0.17015064E-01 0.48113631E+03</pdfrwt>
<totfact> 0.19497350E+03</totfact>
</mgrwt>
</event>
<event>
 4    1  0.4917371E-005  0.4957429E+03  0.7818608E-02  0.1014896E+00
          2   -1    0    0  501    0  0.00000000000E+00  0.00000000000E+00  0.79101433283E+03  0.79101433284E+03  0.25500000000E-02 0.  1.
         -2   -1    0    0    0  501 -0.00000000000E+00 -0.00000000000E+00 -0.77672743851E+02  0.77672743892E+02  0.25500000000E-02 0. -1.
    5000001    1    1    2    0    0  0.91611641536E+02 -0.11554253998E+03  0.37388276581E+03  0.44847752896E+03  0.19900000000E+03 0.  0.
   -5000001    1    1    2    0    0 -0.91611641536E+02  0.11554253998E+03  0.33945882317E+03  0.42020954777E+03  0.19900000000E+03 0.  0.
<mgrwt>
<rscale>  0 0.49574289E+03</rscale>
<asrwt>0</asrwt>
<pdfrwt beam="1">  1        2 0.11300205E+00 0.49574289E+03</pdfrwt>
<pdfrwt beam="2">  1       -2 0.11096106E-01 0.49574289E+03</pdfrwt>
<totfact> 0.22293252E+03</totfact>
</mgrwt>
</event>
<event>
 4    1  0.4917371E-005  0.9801070E+03  0.7818608E-02  0.9330636E-01
          2   -1    0    0  501    0  0.00000000000E+00  0.00000000000E+00  0.27934996693E+04  0.27934996693E+04  0.25500000000E-02 0.  1.
         -2   -1    0    0    0  501 -0.00000000000E+00 -0.00000000000E+00 -0.85968306914E+02  0.85968306951E+02  0.25500000000E-02 0. -1.
    5000001    1    1    2    0    0  0.36181255952E+03  0.24701847505E+03  0.16266118441E+04  0.16962881674E+04  0.19900000000E+03 0.  0.
   -5000001    1    1    2    0    0 -0.36181255952E+03 -0.24701847505E+03  0.10809195183E+04  0.11831798089E+04  0.19900000000E+03 0.  0.
<mgrwt>
<rscale>  0 0.98010701E+03</rscale>
<asrwt>0</asrwt>
<pdfrwt beam="1">  1        2 0.39907137E+00 0.98010701E+03</pdfrwt>
<pdfrwt beam="2">  1       -2 0.12281187E-01 0.98010701E+03</pdfrwt>
<totfact> 0.15302376E+02</totfact>
</mgrwt>
</event>
<event>
 4    1  0.4917371E-005  0.5505242E+03  0.7818608E-02  0.1001373E+00
         -2   -1    0    0    0  501 -0.00000000000E+00  0.00000000000E+00  0.27364123570E+03  0.27364123571E+03  0.25500000000E-02 0. -1.
          2   -1    0    0  501    0  0.00000000000E+00 -0.00000000000E+00 -0.27689254079E+03  0.27689254081E+03  0.25500000000E-02 0.  1.
    5000001    1    1    2    0    0  0.18562480441E+03 -0.26710666297E+02 -0.33220337778E+02  0.27545347801E+03  0.19900000000E+03 0.  0.
   -5000001    1    1    2    0    0 -0.18562480441E+03  0.26710666297E+02  0.29969032684E+02  0.27508029851E+03  0.19900000000E+03 0.  0.
<mgrwt>
<rscale>  0 0.55052418E+03</rscale>
<asrwt>0</asrwt>
<pdfrwt beam="1">  1        2 0.39556077E-01 0.55052418E+03</pdfrwt>
<pdfrwt beam="2">  1       -2 0.39091605E-01 0.55052418E+03</pdfrwt>
<totfact> 0.81004587E+02</totfact>
</mgrwt>
</event>
<event>
 4    1  0.4917371E-005  0.8925197E+03  0.7818608E-02  0.9434981E-01
          2   -1    0    0  501    0  0.00000000000E+00  0.00000000000E+00  0.40244757523E+03  0.40244757524E+03  0.25500000000E-02 0. -1.
         -2   -1    0    0    0  501 -0.00000000000E+00 -0.00000000000E+00 -0.49484172456E+03  0.49484172456E+03  0.25500000000E-02 0.  1.
    5000001    1    1    2    0    0 -0.16022367325E+03 -0.36516338344E+03 -0.69362130599E+02  0.45102996268E+03  0.19900000000E+03 0.  0.
   -5000001    1    1    2    0    0  0.16022367325E+03  0.36516338344E+03 -0.23032018730E+02  0.44625933712E+03  0.19900000000E+03 0.  0.
<mgrwt>
<rscale>  0 0.89251970E+03</rscale>
<asrwt>0</asrwt>
<pdfrwt beam="1">  1        2 0.57492511E-01 0.89251970E+03</pdfrwt>
<pdfrwt beam="2">  1       -2 0.70691674E-01 0.89251970E+03</pdfrwt>
<totfact> 0.15691626E+02</totfact>
</mgrwt>
</event>
<event>
 4    1  0.4917371E-005  0.9514704E+03  0.7818608E-02  0.9363434E-01
          2   -1    0    0  501    0  0.00000000000E+00  0.00000000000E+00  0.69440429768E+03  0.69440429769E+03  0.25500000000E-02 0.  1.
         -2   -1    0    0    0  501 -0.00000000000E+00 -0.00000000000E+00 -0.32592536271E+03  0.32592536272E+03  0.25500000000E-02 0. -1.
    5000001    1    1    2    0    0 -0.38738058178E+03 -0.14797615414E+03  0.31453288486E+03  0.55721862226E+03  0.19900000000E+03 0.  0.
   -5000001    1    1    2    0    0  0.38738058178E+03  0.14797615414E+03  0.53946050109E+02  0.46311103815E+03  0.19900000000E+03 0.  0.
<mgrwt>
<rscale>  0 0.95147038E+03</rscale>
<asrwt>0</asrwt>
<pdfrwt beam="1">  1        2 0.99200612E-01 0.95147038E+03</pdfrwt>
<pdfrwt beam="2">  1       -2 0.46560767E-01 0.95147038E+03</pdfrwt>
<totfact> 0.19880886E+02</totfact>
</mgrwt>
</event>
<event>
 4    1  0.4917371E-005  0.6494937E+03  0.7818608E-02  0.9807730E-01
          2   -1    0    0  501    0  0.00000000000E+00  0.00000000000E+00  0.47969164712E+03  0.47969164713E+03  0.25500000000E-02 0.  1.
         -2   -1    0    0    0  501 -0.00000000000E+00 -0.00000000000E+00 -0.21985066411E+03  0.21985066412E+03  0.25500000000E-02 0. -1.
    5000001    1    1    2    0    0  0.12457022896E+03  0.21582771608E+03  0.19596602745E+03  0.37430339150E+03  0.19900000000E+03 0.  0.
   -5000001    1    1    2    0    0 -0.12457022896E+03 -0.21582771608E+03  0.63874955555E+02  0.32523891975E+03  0.19900000000E+03 0.  0.
<mgrwt>
<rscale>  0 0.64949373E+03</rscale>
<asrwt>0</asrwt>
<pdfrwt beam="1">  1        2 0.68527377E-01 0.64949373E+03</pdfrwt>
<pdfrwt beam="2">  1       -2 0.31407238E-01 0.64949373E+03</pdfrwt>
<totfact> 0.66550729E+02</totfact>
</mgrwt>
</event>
<event>
 4    1  0.4917371E-005  0.5766771E+03  0.7818608E-02  0.9955011E-01
          2   -1    0    0  501    0  0.00000000000E+00  0.00000000000E+00  0.38275991022E+03  0.38275991023E+03  0.25500000000E-02 0.  1.
         -2   -1    0    0    0  501 -0.00000000000E+00 -0.00000000000E+00 -0.21720955410E+03  0.21720955411E+03  0.25500000000E-02 0. -1.
    5000001    1    1    2    0    0  0.94529908470E+02  0.16102002102E+03 -0.14125132387E+02  0.27324690324E+03  0.19900000000E+03 0.  0.
   -5000001    1    1    2    0    0 -0.94529908470E+02 -0.16102002102E+03  0.17967548852E+03  0.32672256111E+03  0.19900000000E+03 0.  0.
<mgrwt>
<rscale>  0 0.57667707E+03</rscale>
<asrwt>0</asrwt>
<pdfrwt beam="1">  1        2 0.54679987E-01 0.57667707E+03</pdfrwt>
<pdfrwt beam="2">  1       -2 0.31029937E-01 0.57667707E+03</pdfrwt>
<totfact> 0.87717454E+02</totfact>
</mgrwt>
</event>
<event>
 4    1  0.4917371E-005  0.7421098E+03  0.7818608E-02  0.9647811E-01
         -2   -1    0    0    0  501 -0.00000000000E+00  0.00000000000E+00  0.25333404201E+03  0.25333404202E+03  0.25500000000E-02 0. -1.
          2   -1    0    0  501    0  0.00000000000E+00 -0.00000000000E+00 -0.54347905894E+03  0.54347905895E+03  0.25500000000E-02 0.  1.
    5000001    1    1    2    0    0  0.92282790800E+02  0.18072729099E+03  0.11105316850E+03  0.30514303764E+03  0.19900000000E+03 0.  0.
   -5000001    1    1    2    0    0 -0.92282790800E+02 -0.18072729099E+03 -0.40119818543E+03  0.49167006333E+03  0.19900000000E+03 0.  0.
<mgrwt>
<rscale>  0 0.74210982E+03</rscale>
<asrwt>0</asrwt>
<pdfrwt beam="1">  1        2 0.77639865E-01 0.74210982E+03</pdfrwt>
<pdfrwt beam="2">  1       -2 0.36190578E-01 0.74210982E+03</pdfrwt>
<totfact> 0.44027327E+02</totfact>
</mgrwt>
</event>
<event>
 4    1  0.4917371E-005  0.9546127E+03  0.7818608E-02  0.9359775E-01
         -2   -1    0    0    0  501 -0.00000000000E+00  0.00000000000E+00  0.38446353197E+03  0.38446353198E+03  0.25500000000E-02 0. -1.
          2   -1    0    0  501    0  0.00000000000E+00 -0.00000000000E+00 -0.59256941946E+03  0.59256941947E+03  0.25500000000E-02 0.  1.
    5000001    1    1    2    0    0 -0.25404214211E+03  0.27168750441E+03  0.12450513484E+03  0.43983410353E+03  0.19900000000E+03 0.  0.
   -5000001    1    1    2    0    0  0.25404214211E+03 -0.27168750441E+03 -0.33261102234E+03  0.53719884792E+03  0.19900000000E+03 0.  0.
<mgrwt>
<rscale>  0 0.95461266E+03</rscale>
<asrwt>0</asrwt>
<pdfrwt beam="1">  1        2 0.84652774E-01 0.95461266E+03</pdfrwt>
<pdfrwt beam="2">  1       -2 0.54923362E-01 0.95461266E+03</pdfrwt>
<totfact> 0.17184993E+02</totfact>
</mgrwt>
</event>
<event>
 4    1  0.4917371E-005  0.5741867E+03  0.7818608E-02  0.9960457E-01
         -2   -1    0    0    0  501 -0.00000000000E+00  0.00000000000E+00  0.93040888317E+02  0.93040888352E+02  0.25500000000E-02 0.  1.
          2   -1    0    0  501    0  0.00000000000E+00 -0.00000000000E+00 -0.88587504623E+03  0.88587504624E+03  0.25500000000E-02 0. -1.
    5000001    1    1    2    0    0  0.15848815740E+03 -0.10398614256E+03 -0.25490241089E+03  0.37484377140E+03  0.19900000000E+03 0.  0.
   -5000001    1    1    2    0    0 -0.15848815740E+03  0.10398614256E+03 -0.53793174703E+03  0.60407216319E+03  0.19900000000E+03 0.  0.
<mgrwt>
<rscale>  0 0.57418673E+03</rscale>
<asrwt>0</asrwt>
<pdfrwt beam="1">  1        2 0.12655357E+00 0.57418673E+03</pdfrwt>
<pdfrwt beam="2">  1       -2 0.13291556E-01 0.57418673E+03</pdfrwt>
<totfact> 0.14303152E+03</totfact>
</mgrwt>
</event>
<event>
 4    1  0.4917371E-005  0.4716096E+03  0.7818608E-02  0.1021467E+00
         -2   -1    0    0    0  501 -0.00000000000E+00  0.00000000000E+00  0.30368120164E+03  0.30368120165E+03  0.25500000000E-02 0. -1.
          2   -1    0    0  501    0  0.00000000000E+00 -0.00000000000E+00 -0.18309962571E+03  0.18309962572E+03  0.25500000000E-02 0.  1.
    5000001    1    1    2    0    0 -0.61650739132E+02  0.74179595092E+02  0.14477423117E+03  0.26431799783E+03  0.19900000000E+03 0.  0.
   -5000001    1    1    2    0    0  0.61650739132E+02 -0.74179595092E+02 -0.24192655237E+02  0.22246282955E+03  0.19900000000E+03 0.  0.
<mgrwt>
<rscale>  0 0.47160965E+03</rscale>
<asrwt>0</asrwt>
<pdfrwt beam="1">  1        2 0.26157090E-01 0.47160965E+03</pdfrwt>
<pdfrwt beam="2">  1       -2 0.43383028E-01 0.47160965E+03</pdfrwt>
<totfact> 0.10489081E+03</totfact>
</mgrwt>
</event>
<event>
 4    1  0.4917371E-005  0.5969935E+03  0.7818608E-02  0.9911663E-01
         -2   -1    0    0    0  501 -0.00000000000E+00  0.00000000000E+00  0.31252300978E+03  0.31252300979E+03  0.25500000000E-02 0. -1.
          2   -1    0    0  501    0  0.00000000000E+00 -0.00000000000E+00 -0.28509999032E+03  0.28509999033E+03  0.25500000000E-02 0.  1.
    5000001    1    1    2    0    0  0.48867744826E+02  0.20401675374E+03 -0.60450445268E+02  0.29540844373E+03  0.19900000000E+03 0.  0.
   -5000001    1    1    2    0    0 -0.48867744826E+02 -0.20401675374E+03  0.87873464730E+02  0.30221455639E+03  0.19900000000E+03 0.  0.
<mgrwt>
<rscale>  0 0.59699349E+03</rscale>
<asrwt>0</asrwt>
<pdfrwt beam="1">  1        2 0.40728570E-01 0.59699349E+03</pdfrwt>
<pdfrwt beam="2">  1       -2 0.44646144E-01 0.59699349E+03</pdfrwt>
<totfact> 0.60461390E+02</totfact>
</mgrwt>
</event>
<event>
 4    1  0.4917371E-005  0.6419659E+03  0.7818608E-02  0.9821973E-01
         -2   -1    0    0    0  501 -0.00000000000E+00  0.00000000000E+00  0.94809635668E+03  0.94809635668E+03  0.25500000000E-02 0. -1.
          2   -1    0    0  501    0  0.00000000000E+00 -0.00000000000E+00 -0.10867043860E+03  0.10867043863E+03  0.25500000000E-02 0.  1.
    5000001    1    1    2    0    0  0.18641858693E+03 -0.39299445928E+02  0.14856033707E+03  0.31299761941E+03  0.19900000000E+03 0.  0.
   -5000001    1    1    2    0    0 -0.18641858693E+03  0.39299445928E+02  0.69086558101E+03  0.74376917591E+03  0.19900000000E+03 0.  0.
<mgrwt>
<rscale>  0 0.64196588E+03</rscale>
<asrwt>0</asrwt>
<pdfrwt beam="1">  1        2 0.15524349E-01 0.64196588E+03</pdfrwt>
<pdfrwt beam="2">  1       -2 0.13544233E+00 0.64196588E+03</pdfrwt>
<totfact> 0.15252979E+02</totfact>
</mgrwt>
</event>
<event>
 4    1  0.4917371E-005  0.8941773E+03  0.7818608E-02  0.9432890E-01
          2   -1    0    0  501    0  0.00000000000E+00  0.00000000000E+00  0.95288955194E+03  0.95288955194E+03  0.25500000000E-02 0.  1.
         -2   -1    0    0    0  501 -0.00000000000E+00 -0.00000000000E+00 -0.20977062822E+03  0.20977062823E+03  0.25500000000E-02 0. -1.
    5000001    1    1    2    0    0  0.12210589496E+03  0.37095135450E+03  0.48619230663E+03  0.65459813322E+03  0.19900000000E+03 0.  0.
   -5000001    1    1    2    0    0 -0.12210589496E+03 -0.37095135450E+03  0.25692661709E+03  0.50806204696E+03  0.19900000000E+03 0.  0.
<mgrwt>
<rscale>  0 0.89417725E+03</rscale>
<asrwt>0</asrwt>
<pdfrwt beam="1">  1        2 0.13612708E+00 0.89417725E+03</pdfrwt>
<pdfrwt beam="2">  1       -2 0.29967233E-01 0.89417725E+03</pdfrwt>
<totfact> 0.30881297E+02</totfact>
</mgrwt>
</event>
<event>
 4    1  0.4917371E-005  0.1033578E+04  0.7818608E-02  0.9272465E-01
          2   -1    0    0  501    0  0.00000000000E+00  0.00000000000E+00  0.90692659548E+03  0.90692659548E+03  0.25500000000E-02 0.  1.
         -2   -1    0    0    0  501 -0.00000000000E+00 -0.00000000000E+00 -0.29447908619E+03  0.29447908620E+03  0.25500000000E-02 0. -1.
    5000001    1    1    2    0    0  0.26587494087E+03 -0.23777082442E+03 -0.61802462780E+02  0.41309199161E+03  0.19900000000E+03 0.  0.
   -5000001    1    1    2    0    0 -0.26587494087E+03  0.23777082442E+03  0.67424997207E+03  0.78831369007E+03  0.19900000000E+03 0.  0.
<mgrwt>
<rscale>  0 0.10335781E+04</rscale>
<asrwt>0</asrwt>
<pdfrwt beam="1">  1        2 0.12956094E+00 0.10335781E+04</pdfrwt>
<pdfrwt beam="2">  1       -2 0.42068441E-01 0.10335781E+04</pdfrwt>
<totfact> 0.17154757E+02</totfact>
</mgrwt>
</event>
<event>
 4    1  0.4917371E-005  0.5560720E+03  0.7818608E-02  0.1000098E+00
          2   -1    0    0  501    0  0.00000000000E+00  0.00000000000E+00  0.22259419201E+04  0.22259419201E+04  0.25500000000E-02 0.  1.
         -2   -1    0    0    0  501 -0.00000000000E+00 -0.00000000000E+00 -0.34728678066E+02  0.34728678160E+02  0.25500000000E-02 0. -1.
    5000001    1    1    2    0    0 -0.10882727579E+03 -0.12123882015E+03  0.15250973325E+04  0.15466302406E+04  0.19900000000E+03 0.  0.
   -5000001    1    1    2    0    0  0.10882727579E+03  0.12123882015E+03  0.66611590953E+03  0.71404035768E+03  0.19900000000E+03 0.  0.
<mgrwt>
<rscale>  0 0.55607201E+03</rscale>
<asrwt>0</asrwt>
<pdfrwt beam="1">  1        2 0.31799176E+00 0.55607201E+03</pdfrwt>
<pdfrwt beam="2">  1       -2 0.49612388E-02 0.55607201E+03</pdfrwt>
<totfact> 0.13280118E+03</totfact>
</mgrwt>
</event>
<event>
 4    1  0.4917371E-005  0.7373910E+03  0.7818608E-02  0.9655342E-01
         -2   -1    0    0    0  501 -0.00000000000E+00  0.00000000000E+00  0.44035341333E+02  0.44035341406E+02  0.25500000000E-02 0. -1.
          2   -1    0    0  501    0  0.00000000000E+00 -0.00000000000E+00 -0.30869831081E+04  0.30869831081E+04  0.25500000000E-02 0.  1.
    5000001    1    1    2    0    0  0.25107729169E+03 -0.18141441643E+03 -0.14382293298E+04  0.14846062111E+04  0.19900000000E+03 0.  0.
   -5000001    1    1    2    0    0 -0.25107729169E+03  0.18141441643E+03 -0.16047184370E+04  0.16464122384E+04  0.19900000000E+03 0.  0.
<mgrwt>
<rscale>  0 0.73739095E+03</rscale>
<asrwt>0</asrwt>
<pdfrwt beam="1">  1        2 0.44099745E+00 0.73739095E+03</pdfrwt>
<pdfrwt beam="2">  1       -2 0.62907650E-02 0.73739095E+03</pdfrwt>
<totfact> 0.31935129E+02</totfact>
</mgrwt>
</event>
<event>
 4    1  0.4917371E-005  0.5765984E+03  0.7818608E-02  0.9955183E-01
          2   -1    0    0  501    0  0.00000000000E+00  0.00000000000E+00  0.50460845323E+03  0.50460845324E+03  0.25500000000E-02 0.  1.
         -2   -1    0    0    0  501 -0.00000000000E+00 -0.00000000000E+00 -0.16471470903E+03  0.16471470905E+03  0.25500000000E-02 0. -1.
    5000001    1    1    2    0    0 -0.11764510990E+03 -0.15256550674E+03  0.26280344529E+03  0.38181573644E+03  0.19900000000E+03 0.  0.
   -5000001    1    1    2    0    0  0.11764510990E+03  0.15256550674E+03  0.77090298912E+02  0.28750742585E+03  0.19900000000E+03 0.  0.
<mgrwt>
<rscale>  0 0.57659842E+03</rscale>
<asrwt>0</asrwt>
<pdfrwt beam="1">  1        2 0.72086922E-01 0.57659842E+03</pdfrwt>
<pdfrwt beam="2">  1       -2 0.23530673E-01 0.57659842E+03</pdfrwt>
<totfact> 0.10637152E+03</totfact>
</mgrwt>
</event>
<event>
 4    1  0.4917371E-005  0.1099427E+04  0.7818608E-02  0.9205750E-01
          2   -1    0    0  501    0  0.00000000000E+00  0.00000000000E+00  0.26721933118E+04  0.26721933118E+04  0.25500000000E-02 0.  1.
         -2   -1    0    0    0  501 -0.00000000000E+00 -0.00000000000E+00 -0.11308503408E+03  0.11308503411E+03  0.25500000000E-02 0. -1.
    5000001    1    1    2    0    0 -0.10501940258E+03 -0.33202990099E+03  0.22318903691E+04  0.22676438322E+04  0.19900000000E+03 0.  0.
   -5000001    1    1    2    0    0  0.10501940258E+03  0.33202990099E+03  0.32721790865E+03  0.51763451374E+03  0.19900000000E+03 0.  0.
<mgrwt>
<rscale>  0 0.10994273E+04</rscale>
<asrwt>0</asrwt>
<pdfrwt beam="1">  1        2 0.38174193E+00 0.10994273E+04</pdfrwt>
<pdfrwt beam="2">  1       -2 0.16155004E-01 0.10994273E+04</pdfrwt>
<totfact> 0.11069458E+02</totfact>
</mgrwt>
</event>
<event>
 4    1  0.4917371E-005  0.5024169E+03  0.7818608E-02  0.1013150E+00
         -2   -1    0    0    0  501 -0.00000000000E+00  0.00000000000E+00  0.32424482900E+02  0.32424483001E+02  0.25500000000E-02 0. -1.
          2   -1    0    0  501    0  0.00000000000E+00 -0.00000000000E+00 -0.19462360416E+04  0.19462360416E+04  0.25500000000E-02 0.  1.
    5000001    1    1    2    0    0  0.41951306786E+02 -0.54410593780E+02 -0.41714142770E+03  0.46725624186E+03  0.19900000000E+03 0.  0.
   -5000001    1    1    2    0    0 -0.41951306786E+02  0.54410593780E+02 -0.14966701310E+04  0.15114042828E+04  0.19900000000E+03 0.  0.
<mgrwt>
<rscale>  0 0.50241695E+03</rscale>
<asrwt>0</asrwt>
<pdfrwt beam="1">  1        2 0.27803365E+00 0.50241695E+03</pdfrwt>
<pdfrwt beam="2">  1       -2 0.46320702E-02 0.50241695E+03</pdfrwt>
<totfact> 0.20435165E+03</totfact>
</mgrwt>
</event>
<event>
 4    1  0.4917371E-005  0.1251016E+04  0.7818608E-02  0.9069338E-01
         -2   -1    0    0    0  501 -0.00000000000E+00  0.00000000000E+00  0.78272084376E+03  0.78272084377E+03  0.25500000000E-02 0. -1.
          2   -1    0    0  501    0  0.00000000000E+00 -0.00000000000E+00 -0.49987184246E+03  0.49987184247E+03  0.25500000000E-02 0.  1.
    5000001    1    1    2    0    0 -0.22027528506E+03  0.47533936003E+03  0.42626886280E+03  0.70411281184E+03  0.19900000000E+03 0.  0.
   -5000001    1    1    2    0    0  0.22027528506E+03 -0.47533936003E+03 -0.14341986150E+03  0.57847987439E+03  0.19900000000E+03 0.  0.
<mgrwt>
<rscale>  0 0.12510158E+04</rscale>
<asrwt>0</asrwt>
<pdfrwt beam="1">  1        2 0.71410263E-01 0.12510158E+04</pdfrwt>
<pdfrwt beam="2">  1       -2 0.11181726E+00 0.12510158E+04</pdfrwt>
<totfact> 0.41752030E+01</totfact>
</mgrwt>
</event>
<event>
 4    1  0.4917371E-005  0.4520887E+03  0.7818608E-02  0.1027101E+00
          2   -1    0    0  501    0  0.00000000000E+00  0.00000000000E+00  0.97658998518E+03  0.97658998518E+03  0.25500000000E-02 0.  1.
         -2   -1    0    0    0  501 -0.00000000000E+00 -0.00000000000E+00 -0.52320870959E+02  0.52320871021E+02  0.25500000000E-02 0. -1.
    5000001    1    1    2    0    0  0.16466014510E+02  0.81709894309E+02  0.61560891333E+03  0.65232121737E+03  0.19900000000E+03 0.  0.
   -5000001    1    1    2    0    0 -0.16466014510E+02 -0.81709894309E+02  0.30866020089E+03  0.37658963883E+03  0.19900000000E+03 0.  0.
<mgrwt>
<rscale>  0 0.45208866E+03</rscale>
<asrwt>0</asrwt>
<pdfrwt beam="1">  1        2 0.13951285E+00 0.45208866E+03</pdfrwt>
<pdfrwt beam="2">  1       -2 0.74744104E-02 0.45208866E+03</pdfrwt>
<totfact> 0.31793710E+03</totfact>
</mgrwt>
</event>
<event>
 4    1  0.4917371E-005  0.7905749E+03  0.7818608E-02  0.9573761E-01
         -2   -1    0    0    0  501 -0.00000000000E+00  0.00000000000E+00  0.62007853859E+03  0.62007853859E+03  0.25500000000E-02 0. -1.
          2   -1    0    0  501    0  0.00000000000E+00 -0.00000000000E+00 -0.25198768721E+03  0.25198768722E+03  0.25500000000E-02 0.  1.
    5000001    1    1    2    0    0 -0.26956001512E+03  0.18238913755E+03  0.69820810168E+02  0.38781999018E+03  0.19900000000E+03 0.  0.
   -5000001    1    1    2    0    0  0.26956001512E+03 -0.18238913755E+03  0.29827004121E+03  0.48424623564E+03  0.19900000000E+03 0.  0.
<mgrwt>
<rscale>  0 0.79057487E+03</rscale>
<asrwt>0</asrwt>
<pdfrwt beam="1">  1        2 0.35998241E-01 0.79057487E+03</pdfrwt>
<pdfrwt beam="2">  1       -2 0.88582647E-01 0.79057487E+03</pdfrwt>
<totfact> 0.16006610E+02</totfact>
</mgrwt>
</event>
<event>
 4    1  0.4917371E-005  0.8598416E+03  0.7818608E-02  0.9477222E-01
         -2   -1    0    0    0  501 -0.00000000000E+00  0.00000000000E+00  0.10585957533E+03  0.10585957537E+03  0.25500000000E-02 0. -1.
          2   -1    0    0  501    0  0.00000000000E+00 -0.00000000000E+00 -0.17460101190E+04  0.17460101190E+04  0.25500000000E-02 0.  1.
    5000001    1    1    2    0    0  0.25966239986E+03 -0.27815697470E+03 -0.77515429139E+03  0.88614955845E+03  0.19900000000E+03 0.  0.
   -5000001    1    1    2    0    0 -0.25966239986E+03  0.27815697470E+03 -0.86499625231E+03  0.96572013596E+03  0.19900000000E+03 0.  0.
<mgrwt>
<rscale>  0 0.85984159E+03</rscale>
<asrwt>0</asrwt>
<pdfrwt beam="1">  1        2 0.24943000E+00 0.85984159E+03</pdfrwt>
<pdfrwt beam="2">  1       -2 0.15122798E-01 0.85984159E+03</pdfrwt>
<totfact> 0.37802203E+02</totfact>
</mgrwt>
</event>
<event>
 4    1  0.4917371E-005  0.6187509E+03  0.7818608E-02  0.9867250E-01
         -2   -1    0    0    0  501 -0.00000000000E+00  0.00000000000E+00  0.16144202668E+04  0.16144202668E+04  0.25500000000E-02 0. -1.
          2   -1    0    0  501    0  0.00000000000E+00 -0.00000000000E+00 -0.59286406684E+02  0.59286406739E+02  0.25500000000E-02 0.  1.
    5000001    1    1    2    0    0  0.20848519882E+03  0.87354927316E+02  0.58600541243E+03  0.65886288775E+03  0.19900000000E+03 0.  0.
   -5000001    1    1    2    0    0 -0.20848519882E+03 -0.87354927316E+02  0.96912844769E+03  0.10148437858E+04  0.19900000000E+03 0.  0.
<mgrwt>
<rscale>  0 0.61875092E+03</rscale>
<asrwt>0</asrwt>
<pdfrwt beam="1">  1        2 0.84694860E-02 0.61875092E+03</pdfrwt>
<pdfrwt beam="2">  1       -2 0.23063148E+00 0.61875092E+03</pdfrwt>
<totfact> 0.71974763E+01</totfact>
</mgrwt>
</event>
<event>
 4    1  0.4917371E-005  0.8014517E+03  0.7818608E-02  0.9557918E-01
         -2   -1    0    0    0  501 -0.00000000000E+00  0.00000000000E+00  0.68343518472E+02  0.68343518520E+02  0.25500000000E-02 0. -1.
          2   -1    0    0  501    0  0.00000000000E+00 -0.00000000000E+00 -0.23496188031E+04  0.23496188031E+04  0.25500000000E-02 0.  1.
    5000001    1    1    2    0    0 -0.27338959132E+03 -0.19784438572E+03 -0.88649512386E+03  0.96920527971E+03  0.19900000000E+03 0.  0.
   -5000001    1    1    2    0    0  0.27338959132E+03  0.19784438572E+03 -0.13947801608E+04  0.14487570419E+04  0.19900000000E+03 0.  0.
<mgrwt>
<rscale>  0 0.80145172E+03</rscale>
<asrwt>0</asrwt>
<pdfrwt beam="1">  1        2 0.33565978E+00 0.80145172E+03</pdfrwt>
<pdfrwt beam="2">  1       -2 0.97633612E-02 0.80145172E+03</pdfrwt>
<totfact> 0.38655389E+02</totfact>
</mgrwt>
</event>
<event>
 4    1  0.4917371E-005  0.9224652E+03  0.7818608E-02  0.9397926E-01
          2   -1    0    0  501    0  0.00000000000E+00  0.00000000000E+00  0.76022295504E+03  0.76022295505E+03  0.25500000000E-02 0.  1.
         -2   -1    0    0    0  501 -0.00000000000E+00 -0.00000000000E+00 -0.27983306548E+03  0.27983306550E+03  0.25500000000E-02 0. -1.
    5000001    1    1    2    0    0  0.23673505423E+03  0.33668034063E+03  0.17126776736E+03  0.48819134139E+03  0.19900000000E+03 0.  0.
   -5000001    1    1    2    0    0 -0.23673505423E+03 -0.33668034063E+03  0.30912212220E+03  0.55186467916E+03  0.19900000000E+03 0.  0.
<mgrwt>
<rscale>  0 0.92246522E+03</rscale>
<asrwt>0</asrwt>
<pdfrwt beam="1">  1        2 0.10860328E+00 0.92246522E+03</pdfrwt>
<pdfrwt beam="2">  1       -2 0.39976152E-01 0.92246522E+03</pdfrwt>
<totfact> 0.24038523E+02</totfact>
</mgrwt>
</event>
<event>
 4    1  0.4917371E-005  0.5777781E+03  0.7818608E-02  0.9952613E-01
         -2   -1    0    0    0  501 -0.00000000000E+00  0.00000000000E+00  0.38545630879E+02  0.38545630964E+02  0.25500000000E-02 0. -1.
          2   -1    0    0  501    0  0.00000000000E+00 -0.00000000000E+00 -0.21651452758E+04  0.21651452758E+04  0.25500000000E-02 0.  1.
    5000001    1    1    2    0    0  0.11142224207E+03 -0.27721912559E+02 -0.17312805932E+04  0.17464583914E+04  0.19900000000E+03 0.  0.
   -5000001    1    1    2    0    0 -0.11142224207E+03  0.27721912559E+02 -0.39531905173E+03  0.45723251538E+03  0.19900000000E+03 0.  0.
<mgrwt>
<rscale>  0 0.57777813E+03</rscale>
<asrwt>0</asrwt>
<pdfrwt beam="1">  1        2 0.30930639E+00 0.57777813E+03</pdfrwt>
<pdfrwt beam="2">  1       -2 0.55065201E-02 0.57777813E+03</pdfrwt>
<totfact> 0.12102822E+03</totfact>
</mgrwt>
</event>
<event>
 4    1  0.4917371E-005  0.6317584E+03  0.7818608E-02  0.9841623E-01
          2   -1    0    0  501    0  0.00000000000E+00  0.00000000000E+00  0.89511529974E+03  0.89511529974E+03  0.25500000000E-02 0.  1.
         -2   -1    0    0    0  501 -0.00000000000E+00 -0.00000000000E+00 -0.11147131287E+03  0.11147131290E+03  0.25500000000E-02 0. -1.
    5000001    1    1    2    0    0 -0.86070852272E+02  0.21149173583E+03  0.24894085685E+03  0.39205802650E+03  0.19900000000E+03 0.  0.
   -5000001    1    1    2    0    0  0.86070852272E+02 -0.21149173583E+03  0.53470313002E+03  0.61452858615E+03  0.19900000000E+03 0.  0.
<mgrwt>
<rscale>  0 0.63175843E+03</rscale>
<asrwt>0</asrwt>
<pdfrwt beam="1">  1        2 0.12787362E+00 0.63175843E+03</pdfrwt>
<pdfrwt beam="2">  1       -2 0.15924473E-01 0.63175843E+03</pdfrwt>
<totfact> 0.10404804E+03</totfact>
</mgrwt>
</event>
<event>
 4    1  0.4917371E-005  0.1011260E+04  0.7818608E-02  0.9296280E-01
         -2   -1    0    0    0  501 -0.00000000000E+00  0.00000000000E+00  0.14548857929E+03  0.14548857931E+03  0.25500000000E-02 0. -1.
          2   -1    0    0  501    0  0.00000000000E+00 -0.00000000000E+00 -0.17572640587E+04  0.17572640587E+04  0.25500000000E-02 0.  1.
    5000001    1    1    2    0    0 -0.33447859950E+03 -0.31063559249E+03 -0.64088348208E+03  0.81160522574E+03  0.19900000000E+03 0.  0.
   -5000001    1    1    2    0    0  0.33447859950E+03  0.31063559249E+03 -0.97089199733E+03  0.10911474123E+04  0.19900000000E+03 0.  0.
<mgrwt>
<rscale>  0 0.10112603E+04</rscale>
<asrwt>0</asrwt>
<pdfrwt beam="1">  1        2 0.25103771E+00 0.10112603E+04</pdfrwt>
<pdfrwt beam="2">  1       -2 0.20784084E-01 0.10112603E+04</pdfrwt>
<totfact> 0.21326731E+02</totfact>
</mgrwt>
</event>
<event>
 4    1  0.4917371E-005  0.4135763E+03  0.7818608E-02  0.1039178E+00
         -2   -1    0    0    0  501 -0.00000000000E+00  0.00000000000E+00  0.61843118381E+02  0.61843118433E+02  0.25500000000E-02 0. -1.
          2   -1    0    0  501    0  0.00000000000E+00 -0.00000000000E+00 -0.69144862561E+03  0.69144862561E+03  0.25500000000E-02 0.  1.
    5000001    1    1    2    0    0  0.32013958238E+02 -0.43602991408E+02 -0.34267834216E+03  0.39994444685E+03  0.19900000000E+03 0.  0.
   -5000001    1    1    2    0    0 -0.32013958238E+02  0.43602991408E+02 -0.28692716507E+03  0.35334729720E+03  0.19900000000E+03 0.  0.
<mgrwt>
<rscale>  0 0.41357630E+03</rscale>
<asrwt>0</asrwt>
<pdfrwt beam="1">  1        2 0.98778371E-01 0.41357630E+03</pdfrwt>
<pdfrwt beam="2">  1       -2 0.88347316E-02 0.41357630E+03</pdfrwt>
<totfact> 0.37909454E+03</totfact>
</mgrwt>
</event>
<event>
 4    1  0.4917371E-005  0.7004210E+03  0.7818608E-02  0.9716513E-01
          2   -1    0    0  501    0  0.00000000000E+00  0.00000000000E+00  0.20846577789E+04  0.20846577789E+04  0.25500000000E-02 0.  1.
         -2   -1    0    0    0  501 -0.00000000000E+00 -0.00000000000E+00 -0.58833339855E+02  0.58833339911E+02  0.25500000000E-02 0. -1.
    5000001    1    1    2    0    0 -0.51844689276E+02 -0.27091275336E+03  0.12683096383E+04  0.13131229685E+04  0.19900000000E+03 0.  0.
   -5000001    1    1    2    0    0  0.51844689276E+02  0.27091275336E+03  0.75751480072E+03  0.83036815031E+03  0.19900000000E+03 0.  0.
<mgrwt>
<rscale>  0 0.70042096E+03</rscale>
<asrwt>0</asrwt>
<pdfrwt beam="1">  1        2 0.29780828E+00 0.70042096E+03</pdfrwt>
<pdfrwt beam="2">  1       -2 0.84047620E-02 0.70042096E+03</pdfrwt>
<totfact> 0.67607540E+02</totfact>
</mgrwt>
</event>
<event>
 4    1  0.4917371E-005  0.5988581E+03  0.7818608E-02  0.9907778E-01
         -2   -1    0    0    0  501 -0.00000000000E+00  0.00000000000E+00  0.59842987696E+02  0.59842987750E+02  0.25500000000E-02 0. -1.
          2   -1    0    0  501    0  0.00000000000E+00 -0.00000000000E+00 -0.14982163872E+04  0.14982163872E+04  0.25500000000E-02 0.  1.
    5000001    1    1    2    0    0 -0.65185137040E+02 -0.19888423657E+03 -0.51345841242E+03  0.58910489977E+03  0.19900000000E+03 0.  0.
   -5000001    1    1    2    0    0  0.65185137040E+02  0.19888423657E+03 -0.92491498708E+03  0.96895447518E+03  0.19900000000E+03 0.  0.
<mgrwt>
<rscale>  0 0.59885806E+03</rscale>
<asrwt>0</asrwt>
<pdfrwt beam="1">  1        2 0.21403089E+00 0.59885806E+03</pdfrwt>
<pdfrwt beam="2">  1       -2 0.85489992E-02 0.59885806E+03</pdfrwt>
<totfact> 0.13145915E+03</totfact>
</mgrwt>
</event>
<event>
 4    1  0.4917371E-005  0.6053961E+03  0.7818608E-02  0.9894274E-01
         -2   -1    0    0    0  501 -0.00000000000E+00  0.00000000000E+00  0.88579346025E+03  0.88579346026E+03  0.25500000000E-02 0. -1.
          2   -1    0    0  501    0  0.00000000000E+00 -0.00000000000E+00 -0.10343959569E+03  0.10343959572E+03  0.25500000000E-02 0.  1.
    5000001    1    1    2    0    0  0.21779571592E+03 -0.65397778866E+02  0.36225540656E+03  0.47174338674E+03  0.19900000000E+03 0.  0.
   -5000001    1    1    2    0    0 -0.21779571592E+03  0.65397778866E+02  0.42009845800E+03  0.51748966924E+03  0.19900000000E+03 0.  0.
<mgrwt>
<rscale>  0 0.60539613E+03</rscale>
<asrwt>0</asrwt>
<pdfrwt beam="1">  1        2 0.14777085E-01 0.60539613E+03</pdfrwt>
<pdfrwt beam="2">  1       -2 0.12654193E+00 0.60539613E+03</pdfrwt>
<totfact> 0.19245531E+02</totfact>
</mgrwt>
</event>
<event>
 4    1  0.4917371E-005  0.5138484E+03  0.7818608E-02  0.1010226E+00
         -2   -1    0    0    0  501 -0.00000000000E+00  0.00000000000E+00  0.69446276443E+02  0.69446276490E+02  0.25500000000E-02 0. -1.
          2   -1    0    0  501    0  0.00000000000E+00 -0.00000000000E+00 -0.95051942298E+03  0.95051942299E+03  0.25500000000E-02 0.  1.
    5000001    1    1    2    0    0 -0.12742678679E+03 -0.10072696932E+03 -0.45056527015E+03  0.51864590137E+03  0.19900000000E+03 0.  0.
   -5000001    1    1    2    0    0  0.12742678679E+03  0.10072696932E+03 -0.43050787639E+03  0.50131979811E+03  0.19900000000E+03 0.  0.
<mgrwt>
<rscale>  0 0.51384836E+03</rscale>
<asrwt>0</asrwt>
<pdfrwt beam="1">  1        2 0.13578848E+00 0.51384836E+03</pdfrwt>
<pdfrwt beam="2">  1       -2 0.99208972E-02 0.51384836E+03</pdfrwt>
<totfact> 0.21010722E+03</totfact>
</mgrwt>
</event>
<event>
 4    1  0.4917371E-005  0.4866075E+03  0.7818608E-02  0.1017335E+00
          2   -1    0    0  501    0  0.00000000000E+00  0.00000000000E+00  0.52032552109E+03  0.52032552109E+03  0.25500000000E-02 0.  1.
         -2   -1    0    0    0  501 -0.00000000000E+00 -0.00000000000E+00 -0.11376862068E+03  0.11376862070E+03  0.25500000000E-02 0. -1.
    5000001    1    1    2    0    0 -0.12011910815E+03 -0.65470502653E+02  0.24195042291E+03  0.34184206003E+03  0.19900000000E+03 0.  0.
   -5000001    1    1    2    0    0  0.12011910815E+03  0.65470502653E+02  0.16460647750E+03  0.29225208176E+03  0.19900000000E+03 0.  0.
<mgrwt>
<rscale>  0 0.48660751E+03</rscale>
<asrwt>0</asrwt>
<pdfrwt beam="1">  1        2 0.74332218E-01 0.48660751E+03</pdfrwt>
<pdfrwt beam="2">  1       -2 0.16252660E-01 0.48660751E+03</pdfrwt>
<totfact> 0.19503772E+03</totfact>
</mgrwt>
</event>
<event>
 4    1  0.4917371E-005  0.5463016E+03  0.7818608E-02  0.1002354E+00
          2   -1    0    0  501    0  0.00000000000E+00  0.00000000000E+00  0.40690289215E+03  0.40690289215E+03  0.25500000000E-02 0.  1.
         -2   -1    0    0    0  501 -0.00000000000E+00 -0.00000000000E+00 -0.18336406334E+03  0.18336406335E+03  0.25500000000E-02 0. -1.
    5000001    1    1    2    0    0 -0.17192235745E+03  0.72842772343E+02  0.12486956970E+03  0.30009461160E+03  0.19900000000E+03 0.  0.
   -5000001    1    1    2    0    0  0.17192235745E+03 -0.72842772343E+02  0.98669259112E+02  0.29017234391E+03  0.19900000000E+03 0.  0.
<mgrwt>
<rscale>  0 0.54630163E+03</rscale>
<asrwt>0</asrwt>
<pdfrwt beam="1">  1        2 0.58128985E-01 0.54630163E+03</pdfrwt>
<pdfrwt beam="2">  1       -2 0.26194866E-01 0.54630163E+03</pdfrwt>
<totfact> 0.11176946E+03</totfact>
</mgrwt>
</event>
<event>
 4    1  0.4917371E-005  0.7787413E+03  0.7818608E-02  0.9591308E-01
          2   -1    0    0  501    0  0.00000000000E+00  0.00000000000E+00  0.19008461811E+04  0.19008461811E+04  0.25500000000E-02 0.  1.
         -2   -1    0    0    0  501 -0.00000000000E+00 -0.00000000000E+00 -0.79758961673E+02  0.79758961714E+02  0.25500000000E-02 0. -1.
    5000001    1    1    2    0    0  0.28534318515E+03 -0.16245803069E+03  0.74581099360E+03  0.83883751896E+03  0.19900000000E+03 0.  0.
   -5000001    1    1    2    0    0 -0.28534318515E+03  0.16245803069E+03  0.10752762258E+04  0.11417676238E+04  0.19900000000E+03 0.  0.
<mgrwt>
<rscale>  0 0.77874134E+03</rscale>
<asrwt>0</asrwt>
<pdfrwt beam="1">  1        2 0.27154947E+00 0.77874134E+03</pdfrwt>
<pdfrwt beam="2">  1       -2 0.11394137E-01 0.77874134E+03</pdfrwt>
<totfact> 0.50827466E+02</totfact>
</mgrwt>
</event>
<event>
 4    1  0.4917371E-005  0.4773541E+03  0.7818608E-02  0.1019865E+00
         -2   -1    0    0    0  501 -0.00000000000E+00  0.00000000000E+00  0.16194746833E+03  0.16194746835E+03  0.25500000000E-02 0. -1.
          2   -1    0    0  501    0  0.00000000000E+00 -0.00000000000E+00 -0.35176059675E+03  0.35176059675E+03  0.25500000000E-02 0.  1.
    5000001    1    1    2    0    0  0.81396448597E+02 -0.75896739196E+02 -0.17085033933E+03  0.28491496155E+03  0.19900000000E+03 0.  0.
   -5000001    1    1    2    0    0 -0.81396448597E+02  0.75896739196E+02 -0.18962789089E+02  0.22879310356E+03  0.19900000000E+03 0.  0.
<mgrwt>
<rscale>  0 0.47735412E+03</rscale>
<asrwt>0</asrwt>
<pdfrwt beam="1">  1        2 0.50251514E-01 0.47735412E+03</pdfrwt>
<pdfrwt beam="2">  1       -2 0.23135353E-01 0.47735412E+03</pdfrwt>
<totfact> 0.16379869E+03</totfact>
</mgrwt>
</event>
<event>
 4    1  0.4917371E-005  0.6673673E+03  0.7818608E-02  0.9774726E-01
         -2   -1    0    0    0  501 -0.00000000000E+00  0.00000000000E+00  0.58081133479E+02  0.58081133535E+02  0.25500000000E-02 0. -1.
          2   -1    0    0  501    0  0.00000000000E+00 -0.00000000000E+00 -0.19170558544E+04  0.19170558544E+04  0.25500000000E-02 0.  1.
    5000001    1    1    2    0    0  0.96643585207E+02 -0.23017639579E+03 -0.12167758126E+04  0.12579608634E+04  0.19900000000E+03 0.  0.
   -5000001    1    1    2    0    0 -0.96643585207E+02  0.23017639579E+03 -0.64219890827E+03  0.71717612448E+03  0.19900000000E+03 0.  0.
<mgrwt>
<rscale>  0 0.66736730E+03</rscale>
<asrwt>0</asrwt>
<pdfrwt beam="1">  1        2 0.27386508E+00 0.66736730E+03</pdfrwt>
<pdfrwt beam="2">  1       -2 0.82973060E-02 0.66736730E+03</pdfrwt>
<totfact> 0.84018131E+02</totfact>
</mgrwt>
</event>
<event>
 4    1  0.4917371E-005  0.5181162E+03  0.7818608E-02  0.1009156E+00
         -2   -1    0    0    0  501 -0.00000000000E+00  0.00000000000E+00  0.35385044136E+02  0.35385044228E+02  0.25500000000E-02 0. -1.
          2   -1    0    0  501    0  0.00000000000E+00 -0.00000000000E+00 -0.18965952798E+04  0.18965952798E+04  0.25500000000E-02 0.  1.
    5000001    1    1    2    0    0 -0.13799158042E+03 -0.19033565719E+02 -0.59488068534E+03  0.64256360205E+03  0.19900000000E+03 0.  0.
   -5000001    1    1    2    0    0  0.13799158042E+03  0.19033565719E+02 -0.12663295503E+04  0.12894167220E+04  0.19900000000E+03 0.  0.
<mgrwt>
<rscale>  0 0.51811623E+03</rscale>
<asrwt>0</asrwt>
<pdfrwt beam="1">  1        2 0.27094212E+00 0.51811623E+03</pdfrwt>
<pdfrwt beam="2">  1       -2 0.50550075E-02 0.51811623E+03</pdfrwt>
<totfact> 0.18895362E+03</totfact>
</mgrwt>
</event>
<event>
 4    1  0.4917371E-005  0.4733237E+03  0.7818608E-02  0.1020986E+00
         -2   -1    0    0    0  501 -0.00000000000E+00  0.00000000000E+00  0.17644638671E+03  0.17644638673E+03  0.25500000000E-02 0. -1.
          2   -1    0    0  501    0  0.00000000000E+00 -0.00000000000E+00 -0.31742692558E+03  0.31742692559E+03  0.25500000000E-02 0.  1.
    5000001    1    1    2    0    0  0.58471072487E+02 -0.95976753667E+02 -0.13461942756E+03  0.26524289593E+03  0.19900000000E+03 0.  0.
   -5000001    1    1    2    0    0 -0.58471072487E+02  0.95976753667E+02 -0.63611113011E+01  0.22863041639E+03  0.19900000000E+03 0.  0.
<mgrwt>
<rscale>  0 0.47332371E+03</rscale>
<asrwt>0</asrwt>
<pdfrwt beam="1">  1        2 0.45346703E-01 0.47332371E+03</pdfrwt>
<pdfrwt beam="2">  1       -2 0.25206627E-01 0.47332371E+03</pdfrwt>
<totfact> 0.15739362E+03</totfact>
</mgrwt>
</event>
<event>
 4    1  0.4917371E-005  0.4476898E+03  0.7818608E-02  0.1028413E+00
          2   -1    0    0  501    0  0.00000000000E+00  0.00000000000E+00  0.11506004230E+04  0.11506004231E+04  0.25500000000E-02 0.  1.
         -2   -1    0    0    0  501 -0.00000000000E+00 -0.00000000000E+00 -0.43548166881E+02  0.43548166955E+02  0.25500000000E-02 0. -1.
    5000001    1    1    2    0    0 -0.48834896247E+01  0.68980974535E+02  0.75531863308E+03  0.78414887668E+03  0.19900000000E+03 0.  0.
   -5000001    1    1    2    0    0  0.48834896247E+01 -0.68980974535E+02  0.35173362309E+03  0.40999971333E+03  0.19900000000E+03 0.  0.
<mgrwt>
<rscale>  0 0.44768980E+03</rscale>
<asrwt>0</asrwt>
<pdfrwt beam="1">  1        2 0.16437148E+00 0.44768980E+03</pdfrwt>
<pdfrwt beam="2">  1       -2 0.62211672E-02 0.44768980E+03</pdfrwt>
<totfact> 0.33524624E+03</totfact>
</mgrwt>
</event>
<event>
 4    1  0.4917371E-005  0.1301055E+04  0.7818608E-02  0.9028729E-01
          2   -1    0    0  501    0  0.00000000000E+00  0.00000000000E+00  0.56116315063E+03  0.56116315064E+03  0.25500000000E-02 0.  1.
         -2   -1    0    0    0  501 -0.00000000000E+00 -0.00000000000E+00 -0.75412277763E+03  0.75412277764E+03  0.25500000000E-02 0. -1.
    5000001    1    1    2    0    0  0.26180935427E+03  0.47366599603E+03 -0.40090700802E+03  0.70230409571E+03  0.19900000000E+03 0.  0.
   -5000001    1    1    2    0    0 -0.26180935427E+03 -0.47366599603E+03  0.20794738102E+03  0.61298183256E+03  0.19900000000E+03 0.  0.
<mgrwt>
<rscale>  0 0.13010548E+04</rscale>
<asrwt>0</asrwt>
<pdfrwt beam="1">  1        2 0.80166165E-01 0.13010548E+04</pdfrwt>
<pdfrwt beam="2">  1       -2 0.10773183E+00 0.13010548E+04</pdfrwt>
<totfact> 0.39827100E+01</totfact>
</mgrwt>
</event>
<event>
 4    1  0.4917371E-005  0.6622558E+03  0.7818608E-02  0.9784050E-01
          2   -1    0    0  501    0  0.00000000000E+00  0.00000000000E+00  0.47982937867E+03  0.47982937867E+03  0.25500000000E-02 0.  1.
         -2   -1    0    0    0  501 -0.00000000000E+00 -0.00000000000E+00 -0.22850971254E+03  0.22850971255E+03  0.25500000000E-02 0. -1.
    5000001    1    1    2    0    0 -0.10826796735E+03 -0.86794288334E+02  0.36670715698E+03  0.43969346166E+03  0.19900000000E+03 0.  0.
   -5000001    1    1    2    0    0  0.10826796735E+03  0.86794288334E+02 -0.11538749085E+03  0.26864562957E+03  0.19900000000E+03 0.  0.
<mgrwt>
<rscale>  0 0.66225576E+03</rscale>
<asrwt>0</asrwt>
<pdfrwt beam="1">  1        2 0.68547053E-01 0.66225576E+03</pdfrwt>
<pdfrwt beam="2">  1       -2 0.32644245E-01 0.66225576E+03</pdfrwt>
<totfact> 0.61876478E+02</totfact>
</mgrwt>
</event>
<event>
 4    1  0.4917371E-005  0.6826468E+03  0.7818608E-02  0.9747377E-01
         -2   -1    0    0    0  501 -0.00000000000E+00  0.00000000000E+00  0.27569618539E+03  0.27569618540E+03  0.25500000000E-02 0. -1.
          2   -1    0    0  501    0  0.00000000000E+00 -0.00000000000E+00 -0.42257267399E+03  0.42257267400E+03  0.25500000000E-02 0.  1.
    5000001    1    1    2    0    0  0.20310770217E+03 -0.11487062561E+03  0.79832984759E+02  0.31689478501E+03  0.19900000000E+03 0.  0.
   -5000001    1    1    2    0    0 -0.20310770217E+03  0.11487062561E+03 -0.22670947336E+03  0.38137407439E+03  0.19900000000E+03 0.  0.
<mgrwt>
<rscale>  0 0.68264683E+03</rscale>
<asrwt>0</asrwt>
<pdfrwt beam="1">  1        2 0.60367524E-01 0.68264683E+03</pdfrwt>
<pdfrwt beam="2">  1       -2 0.39385170E-01 0.68264683E+03</pdfrwt>
<totfact> 0.49889265E+02</totfact>
</mgrwt>
</event>
<event>
 4    1  0.4917371E-005  0.6006847E+03  0.7818608E-02  0.9903987E-01
         -2   -1    0    0    0  501 -0.00000000000E+00  0.00000000000E+00  0.39929408875E+02  0.39929408957E+02  0.25500000000E-02 0. -1.
          2   -1    0    0  501    0  0.00000000000E+00 -0.00000000000E+00 -0.22591250161E+04  0.22591250161E+04  0.25500000000E-02 0.  1.
    5000001    1    1    2    0    0  0.13076928125E+03  0.18171723917E+03 -0.10255025845E+04  0.10683530834E+04  0.19900000000E+03 0.  0.
   -5000001    1    1    2    0    0 -0.13076928125E+03 -0.18171723917E+03 -0.11936930227E+04  0.12307013417E+04  0.19900000000E+03 0.  0.
<mgrwt>
<rscale>  0 0.60068470E+03</rscale>
<asrwt>0</asrwt>
<pdfrwt beam="1">  1        2 0.32273207E+00 0.60068470E+03</pdfrwt>
<pdfrwt beam="2">  1       -2 0.57042027E-02 0.60068470E+03</pdfrwt>
<totfact> 0.10257384E+03</totfact>
</mgrwt>
</event>
<event>
 4    1  0.4917371E-005  0.5639083E+03  0.7818608E-02  0.9983250E-01
          2   -1    0    0  501    0  0.00000000000E+00  0.00000000000E+00  0.14171586421E+04  0.14171586421E+04  0.25500000000E-02 0.  1.
         -2   -1    0    0    0  501 -0.00000000000E+00 -0.00000000000E+00 -0.56096845867E+02  0.56096845925E+02  0.25500000000E-02 0. -1.
    5000001    1    1    2    0    0  0.13808049139E+03  0.12817381134E+03  0.50718503778E+03  0.57648279295E+03  0.19900000000E+03 0.  0.
   -5000001    1    1    2    0    0 -0.13808049139E+03 -0.12817381134E+03  0.85387675849E+03  0.89677269512E+03  0.19900000000E+03 0.  0.
<mgrwt>
<rscale>  0 0.56390825E+03</rscale>
<asrwt>0</asrwt>
<pdfrwt beam="1">  1        2 0.20245126E+00 0.56390825E+03</pdfrwt>
<pdfrwt beam="2">  1       -2 0.80138342E-02 0.56390825E+03</pdfrwt>
<totfact> 0.16092311E+03</totfact>
</mgrwt>
</event>
<event>
 4    1  0.4917371E-005  0.4395605E+03  0.7818608E-02  0.1030882E+00
          2   -1    0    0  501    0  0.00000000000E+00  0.00000000000E+00  0.33040967934E+03  0.33040967935E+03  0.25500000000E-02 0.  1.
         -2   -1    0    0    0  501 -0.00000000000E+00 -0.00000000000E+00 -0.14619231886E+03  0.14619231888E+03  0.25500000000E-02 0. -1.
    5000001    1    1    2    0    0  0.88027211423E+02 -0.15171568271E+02  0.12127110867E+03  0.24957293169E+03  0.19900000000E+03 0.  0.
   -5000001    1    1    2    0    0 -0.88027211423E+02  0.15171568271E+02  0.62946251809E+02  0.22702906653E+03  0.19900000000E+03 0.  0.
<mgrwt>
<rscale>  0 0.43956050E+03</rscale>
<asrwt>0</asrwt>
<pdfrwt beam="1">  1        2 0.47201383E-01 0.43956050E+03</pdfrwt>
<pdfrwt beam="2">  1       -2 0.20884617E-01 0.43956050E+03</pdfrwt>
<totfact> 0.20975770E+03</totfact>
</mgrwt>
</event>
<event>
 4    1  0.4917371E-005  0.4960597E+03  0.7818608E-02  0.1014813E+00
          2   -1    0    0  501    0  0.00000000000E+00  0.00000000000E+00  0.33815539852E+04  0.33815539852E+04  0.25500000000E-02 0.  1.
         -2   -1    0    0    0  501 -0.00000000000E+00 -0.00000000000E+00 -0.18192469597E+02  0.18192469776E+02  0.25500000000E-02 0. -1.
    5000001    1    1    2    0    0  0.59487621777E+02  0.13251645421E+03  0.14856142252E+04  0.15059050481E+04  0.19900000000E+03 0.  0.
   -5000001    1    1    2    0    0 -0.59487621777E+02 -0.13251645421E+03  0.18777472904E+04  0.18938414068E+04  0.19900000000E+03 0.  0.
<mgrwt>
<rscale>  0 0.49605975E+03</rscale>
<asrwt>0</asrwt>
<pdfrwt beam="1">  1        2 0.48307882E+00 0.49605975E+03</pdfrwt>
<pdfrwt beam="2">  1       -2 0.25989260E-02 0.49605975E+03</pdfrwt>
<totfact> 0.87001273E+02</totfact>
</mgrwt>
</event>
<event>
 4    1  0.4917371E-005  0.6435140E+03  0.7818608E-02  0.9819026E-01
          2   -1    0    0  501    0  0.00000000000E+00  0.00000000000E+00  0.31483515236E+03  0.31483515237E+03  0.25500000000E-02 0.  1.
         -2   -1    0    0    0  501 -0.00000000000E+00 -0.00000000000E+00 -0.32883100965E+03  0.32883100966E+03  0.25500000000E-02 0. -1.
    5000001    1    1    2    0    0 -0.73985937695E+02 -0.13289919828E+03  0.19501627878E+03  0.31744049028E+03  0.19900000000E+03 0.  0.
   -5000001    1    1    2    0    0  0.73985937695E+02  0.13289919828E+03 -0.20901213608E+03  0.32622567175E+03  0.19900000000E+03 0.  0.
<mgrwt>
<rscale>  0 0.64351398E+03</rscale>
<asrwt>0</asrwt>
<pdfrwt beam="1">  1        2 0.44976451E-01 0.64351398E+03</pdfrwt>
<pdfrwt beam="2">  1       -2 0.46975858E-01 0.64351398E+03</pdfrwt>
<totfact> 0.48920407E+02</totfact>
</mgrwt>
</event>
<event>
 4    1  0.4917371E-005  0.5988772E+03  0.7818608E-02  0.9907738E-01
          2   -1    0    0  501    0  0.00000000000E+00  0.00000000000E+00  0.39363840476E+03  0.39363840477E+03  0.25500000000E-02 0.  1.
         -2   -1    0    0    0  501 -0.00000000000E+00 -0.00000000000E+00 -0.22778129119E+03  0.22778129120E+03  0.25500000000E-02 0. -1.
    5000001    1    1    2    0    0 -0.83798983448E+02  0.20027633826E+03  0.26765575792E+02  0.29571993058E+03  0.19900000000E+03 0.  0.
   -5000001    1    1    2    0    0  0.83798983448E+02 -0.20027633826E+03  0.13909153779E+03  0.32569976539E+03  0.19900000000E+03 0.  0.
<mgrwt>
<rscale>  0 0.59887716E+03</rscale>
<asrwt>0</asrwt>
<pdfrwt beam="1">  1        2 0.56234057E-01 0.59887716E+03</pdfrwt>
<pdfrwt beam="2">  1       -2 0.32540185E-01 0.59887716E+03</pdfrwt>
<totfact> 0.77805267E+02</totfact>
</mgrwt>
</event>
<event>
 4    1  0.4917371E-005  0.4390049E+03  0.7818608E-02  0.1031053E+00
         -2   -1    0    0    0  501 -0.00000000000E+00  0.00000000000E+00  0.89799430422E+02  0.89799430458E+02  0.25500000000E-02 0. -1.
          2   -1    0    0  501    0  0.00000000000E+00 -0.00000000000E+00 -0.53654380750E+03  0.53654380751E+03  0.25500000000E-02 0.  1.
    5000001    1    1    2    0    0  0.83208444749E+02 -0.14435536073E+02 -0.27766871286E+03  0.35189905382E+03  0.19900000000E+03 0.  0.
   -5000001    1    1    2    0    0 -0.83208444749E+02  0.14435536073E+02 -0.16907566422E+03  0.27444418414E+03  0.19900000000E+03 0.  0.
<mgrwt>
<rscale>  0 0.43900491E+03</rscale>
<asrwt>0</asrwt>
<pdfrwt beam="1">  1        2 0.76649114E-01 0.43900491E+03</pdfrwt>
<pdfrwt beam="2">  1       -2 0.12828490E-01 0.43900491E+03</pdfrwt>
<totfact> 0.27915352E+03</totfact>
</mgrwt>
</event>
<event>
 4    1  0.4917371E-005  0.4885124E+03  0.7818608E-02  0.1016822E+00
          2   -1    0    0  501    0  0.00000000000E+00  0.00000000000E+00  0.24323555181E+03  0.24323555183E+03  0.25500000000E-02 0.  1.
         -2   -1    0    0    0  501 -0.00000000000E+00 -0.00000000000E+00 -0.24528113691E+03  0.24528113692E+03  0.25500000000E-02 0. -1.
    5000001    1    1    2    0    0  0.20366603626E+02 -0.12186029534E+03  0.68226371002E+02  0.24396837464E+03  0.19900000000E+03 0.  0.
   -5000001    1    1    2    0    0 -0.20366603626E+02  0.12186029534E+03 -0.70271956098E+02  0.24454831412E+03  0.19900000000E+03 0.  0.
<mgrwt>
<rscale>  0 0.48851241E+03</rscale>
<asrwt>0</asrwt>
<pdfrwt beam="1">  1        2 0.34747936E-01 0.48851241E+03</pdfrwt>
<pdfrwt beam="2">  1       -2 0.35040162E-01 0.48851241E+03</pdfrwt>
<totfact> 0.11519855E+03</totfact>
</mgrwt>
</event>
<event>
 4    1  0.4917371E-005  0.8733720E+03  0.7818608E-02  0.9459494E-01
          2   -1    0    0  501    0  0.00000000000E+00  0.00000000000E+00  0.15444852843E+04  0.15444852843E+04  0.25500000000E-02 0.  1.
         -2   -1    0    0    0  501 -0.00000000000E+00 -0.00000000000E+00 -0.12346810615E+03  0.12346810618E+03  0.25500000000E-02 0. -1.
    5000001    1    1    2    0    0 -0.36829356757E+03 -0.12314133615E+03  0.74301606284E+03  0.86167152106E+03  0.19900000000E+03 0.  0.
   -5000001    1    1    2    0    0  0.36829356757E+03  0.12314133615E+03  0.67800111532E+03  0.80628186942E+03  0.19900000000E+03 0.  0.
<mgrwt>
<rscale>  0 0.87337202E+03</rscale>
<asrwt>0</asrwt>
<pdfrwt beam="1">  1        2 0.22064076E+00 0.87337202E+03</pdfrwt>
<pdfrwt beam="2">  1       -2 0.17638301E-01 0.87337202E+03</pdfrwt>
<totfact> 0.36920049E+02</totfact>
</mgrwt>
</event>
<event>
 4    1  0.4917371E-005  0.5729625E+03  0.7818608E-02  0.9963144E-01
         -2   -1    0    0    0  501 -0.00000000000E+00  0.00000000000E+00  0.11983958668E+03  0.11983958671E+03  0.25500000000E-02 0. -1.
          2   -1    0    0  501    0  0.00000000000E+00 -0.00000000000E+00 -0.68484481003E+03  0.68484481003E+03  0.25500000000E-02 0.  1.
    5000001    1    1    2    0    0 -0.16118111107E+03  0.12535195832E+03 -0.24332801914E+03  0.37483594935E+03  0.19900000000E+03 0.  0.
   -5000001    1    1    2    0    0  0.16118111107E+03 -0.12535195832E+03 -0.32167720420E+03  0.42984844739E+03  0.19900000000E+03 0.  0.
<mgrwt>
<rscale>  0 0.57296254E+03</rscale>
<asrwt>0</asrwt>
<pdfrwt beam="1">  1        2 0.97834970E-01 0.57296254E+03</pdfrwt>
<pdfrwt beam="2">  1       -2 0.17119941E-01 0.57296254E+03</pdfrwt>
<totfact> 0.12939891E+03</totfact>
</mgrwt>
</event>
<event>
 4    1  0.4917371E-005  0.5800526E+03  0.7818608E-02  0.9947677E-01
         -2   -1    0    0    0  501 -0.00000000000E+00  0.00000000000E+00  0.52998424641E+02  0.52998424702E+02  0.25500000000E-02 0. -1.
          2   -1    0    0  501    0  0.00000000000E+00 -0.00000000000E+00 -0.15871272347E+04  0.15871272347E+04  0.25500000000E-02 0.  1.
    5000001    1    1    2    0    0  0.61948405115E+02  0.18807930247E+03 -0.97296755165E+03  0.10126590174E+04  0.19900000000E+03 0.  0.
   -5000001    1    1    2    0    0 -0.61948405115E+02 -0.18807930247E+03 -0.56116125841E+03  0.62746664202E+03  0.19900000000E+03 0.  0.
<mgrwt>
<rscale>  0 0.58005256E+03</rscale>
<asrwt>0</asrwt>
<pdfrwt beam="1">  1        2 0.22673243E+00 0.58005256E+03</pdfrwt>
<pdfrwt beam="2">  1       -2 0.75712045E-02 0.58005256E+03</pdfrwt>
<totfact> 0.14359731E+03</totfact>
</mgrwt>
</event>
<event>
 4    1  0.4917371E-005  0.4920188E+03  0.7818608E-02  0.1015883E+00
         -2   -1    0    0    0  501 -0.00000000000E+00  0.00000000000E+00  0.49528120979E+03  0.49528120979E+03  0.25500000000E-02 0.  1.
          2   -1    0    0  501    0  0.00000000000E+00 -0.00000000000E+00 -0.12219447562E+03  0.12219447565E+03  0.25500000000E-02 0. -1.
    5000001    1    1    2    0    0  0.10614575720E+03 -0.96336488342E+02  0.21074819590E+03  0.32336271095E+03  0.19900000000E+03 0.  0.
   -5000001    1    1    2    0    0 -0.10614575720E+03  0.96336488342E+02  0.16233853827E+03  0.29411297449E+03  0.19900000000E+03 0.  0.
<mgrwt>
<rscale>  0 0.49201881E+03</rscale>
<asrwt>0</asrwt>
<pdfrwt beam="1">  1        2 0.17456354E-01 0.49201881E+03</pdfrwt>
<pdfrwt beam="2">  1       -2 0.70754458E-01 0.49201881E+03</pdfrwt>
<totfact> 0.61064816E+02</totfact>
</mgrwt>
</event>
<event>
 4    1  0.4917371E-005  0.8540723E+03  0.7818608E-02  0.9484887E-01
         -2   -1    0    0    0  501 -0.00000000000E+00  0.00000000000E+00  0.14677379266E+03  0.14677379268E+03  0.25500000000E-02 0.  1.
          2   -1    0    0  501    0  0.00000000000E+00 -0.00000000000E+00 -0.12424553033E+04  0.12424553033E+04  0.25500000000E-02 0. -1.
    5000001    1    1    2    0    0 -0.37200956853E+03  0.49831721166E+02 -0.61845363701E+03  0.75030675103E+03  0.19900000000E+03 0.  0.
   -5000001    1    1    2    0    0  0.37200956853E+03 -0.49831721166E+02 -0.47722787368E+03  0.63892234499E+03  0.19900000000E+03 0.  0.
<mgrwt>
<rscale>  0 0.85407231E+03</rscale>
<asrwt>0</asrwt>
<pdfrwt beam="1">  1        2 0.17749361E+00 0.85407231E+03</pdfrwt>
<pdfrwt beam="2">  1       -2 0.20967685E-01 0.85407231E+03</pdfrwt>
<totfact> 0.39780543E+02</totfact>
</mgrwt>
</event>
<event>
 4    1  0.4917371E-005  0.5112673E+03  0.7818608E-02  0.1010879E+00
         -2   -1    0    0    0  501 -0.00000000000E+00  0.00000000000E+00  0.60438471005E+02  0.60438471059E+02  0.25500000000E-02 0. -1.
          2   -1    0    0  501    0  0.00000000000E+00 -0.00000000000E+00 -0.10812410802E+04  0.10812410802E+04  0.25500000000E-02 0.  1.
    5000001    1    1    2    0    0 -0.14376745490E+03  0.24284921084E+02 -0.36079239979E+03  0.43707092586E+03  0.19900000000E+03 0.  0.
   -5000001    1    1    2    0    0  0.14376745490E+03 -0.24284921084E+02 -0.66001020941E+03  0.70460862541E+03  0.19900000000E+03 0.  0.
<mgrwt>
<rscale>  0 0.51126728E+03</rscale>
<asrwt>0</asrwt>
<pdfrwt beam="1">  1        2 0.15446300E+00 0.51126728E+03</pdfrwt>
<pdfrwt beam="2">  1       -2 0.86340680E-02 0.51126728E+03</pdfrwt>
<totfact> 0.21911563E+03</totfact>
</mgrwt>
</event>
<event>
 4    1  0.4917371E-005  0.5084362E+03  0.7818608E-02  0.1011600E+00
          2   -1    0    0  501    0  0.00000000000E+00  0.00000000000E+00  0.71040094037E+03  0.71040094038E+03  0.25500000000E-02 0.  1.
         -2   -1    0    0    0  501 -0.00000000000E+00 -0.00000000000E+00 -0.90972342899E+02  0.90972342935E+02  0.25500000000E-02 0. -1.
    5000001    1    1    2    0    0  0.14363874004E+03 -0.66159568716E+02  0.31614797460E+03  0.40565960856E+03  0.19900000000E+03 0.  0.
   -5000001    1    1    2    0    0 -0.14363874004E+03  0.66159568716E+02  0.30328062288E+03  0.39571367475E+03  0.19900000000E+03 0.  0.
<mgrwt>
<rscale>  0 0.50843618E+03</rscale>
<asrwt>0</asrwt>
<pdfrwt beam="1">  1        2 0.10148585E+00 0.50843618E+03</pdfrwt>
<pdfrwt beam="2">  1       -2 0.12996049E-01 0.50843618E+03</pdfrwt>
<totfact> 0.19661251E+03</totfact>
</mgrwt>
</event>
<event>
 4    1  0.4917371E-005  0.4402493E+03  0.7818608E-02  0.1030670E+00
         -2   -1    0    0    0  501 -0.00000000000E+00  0.00000000000E+00  0.10774670138E+03  0.10774670141E+03  0.25500000000E-02 0. -1.
          2   -1    0    0  501    0  0.00000000000E+00 -0.00000000000E+00 -0.44971082604E+03  0.44971082605E+03  0.25500000000E-02 0.  1.
    5000001    1    1    2    0    0 -0.41283495860E+02 -0.79894864487E+02 -0.20603499438E+03  0.30023146956E+03  0.19900000000E+03 0.  0.
   -5000001    1    1    2    0    0  0.41283495860E+02  0.79894864487E+02 -0.13592913028E+03  0.25722605790E+03  0.19900000000E+03 0.  0.
<mgrwt>
<rscale>  0 0.44024928E+03</rscale>
<asrwt>0</asrwt>
<pdfrwt beam="1">  1        2 0.64244403E-01 0.44024928E+03</pdfrwt>
<pdfrwt beam="2">  1       -2 0.15392386E-01 0.44024928E+03</pdfrwt>
<totfact> 0.25155713E+03</totfact>
</mgrwt>
</event>
<event>
 4    1  0.4917371E-005  0.6476697E+03  0.7818608E-02  0.9811162E-01
         -2   -1    0    0    0  501 -0.00000000000E+00  0.00000000000E+00  0.22871298003E+03  0.22871298005E+03  0.25500000000E-02 0. -1.
          2   -1    0    0  501    0  0.00000000000E+00 -0.00000000000E+00 -0.45851793468E+03  0.45851793469E+03  0.25500000000E-02 0.  1.
    5000001    1    1    2    0    0 -0.18263740606E+03 -0.17302625940E+03 -0.67764916547E+02  0.32785300434E+03  0.19900000000E+03 0.  0.
   -5000001    1    1    2    0    0  0.18263740606E+03  0.17302625940E+03 -0.16204003810E+03  0.35937791040E+03  0.19900000000E+03 0.  0.
<mgrwt>
<rscale>  0 0.64766968E+03</rscale>
<asrwt>0</asrwt>
<pdfrwt beam="1">  1        2 0.65502561E-01 0.64766968E+03</pdfrwt>
<pdfrwt beam="2">  1       -2 0.32673283E-01 0.64766968E+03</pdfrwt>
<totfact> 0.65050037E+02</totfact>
</mgrwt>
</event>
<event>
 4    1  0.4917371E-005  0.6830172E+03  0.7818608E-02  0.9746724E-01
         -2   -1    0    0    0  501 -0.00000000000E+00  0.00000000000E+00  0.44301075690E+02  0.44301075764E+02  0.25500000000E-02 0. -1.
          2   -1    0    0  501    0  0.00000000000E+00 -0.00000000000E+00 -0.26326251623E+04  0.26326251623E+04  0.25500000000E-02 0.  1.
    5000001    1    1    2    0    0 -0.25970442215E+02  0.26675171247E+03 -0.15766806999E+04  0.16116308416E+04  0.19900000000E+03 0.  0.
   -5000001    1    1    2    0    0  0.25970442215E+02 -0.26675171247E+03 -0.10116433867E+04  0.10652953965E+04  0.19900000000E+03 0.  0.
<mgrwt>
<rscale>  0 0.68301721E+03</rscale>
<asrwt>0</asrwt>
<pdfrwt beam="1">  1        2 0.37608921E+00 0.68301721E+03</pdfrwt>
<pdfrwt beam="2">  1       -2 0.63287268E-02 0.68301721E+03</pdfrwt>
<totfact> 0.55749408E+02</totfact>
</mgrwt>
</event>
<event>
 4    1  0.4917371E-005  0.7971939E+03  0.7818608E-02  0.9564088E-01
         -2   -1    0    0    0  501 -0.00000000000E+00  0.00000000000E+00  0.46339320635E+02  0.46339320705E+02  0.25500000000E-02 0. -1.
          2   -1    0    0  501    0  0.00000000000E+00 -0.00000000000E+00 -0.34286111816E+04  0.34286111816E+04  0.25500000000E-02 0.  1.
    5000001    1    1    2    0    0 -0.31006173825E+03 -0.10493649709E+03 -0.12110827489E+04  0.12702253244E+04  0.19900000000E+03 0.  0.
   -5000001    1    1    2    0    0  0.31006173825E+03  0.10493649709E+03 -0.21711891121E+04  0.22047251780E+04  0.19900000000E+03 0.  0.
<mgrwt>
<rscale>  0 0.79719386E+03</rscale>
<asrwt>0</asrwt>
<pdfrwt beam="1">  1        2 0.48980144E+00 0.79719386E+03</pdfrwt>
<pdfrwt beam="2">  1       -2 0.66199051E-02 0.79719386E+03</pdfrwt>
<totfact> 0.18677472E+02</totfact>
</mgrwt>
</event>
<event>
 4    1  0.4917371E-005  0.5178236E+03  0.7818608E-02  0.1009229E+00
         -2   -1    0    0    0  501 -0.00000000000E+00  0.00000000000E+00  0.37241357600E+03  0.37241357600E+03  0.25500000000E-02 0. -1.
          2   -1    0    0  501    0  0.00000000000E+00 -0.00000000000E+00 -0.18000232404E+03  0.18000232405E+03  0.25500000000E-02 0.  1.
    5000001    1    1    2    0    0  0.16233806325E+03 -0.31024516458E+02  0.84610215313E+02  0.27216916787E+03  0.19900000000E+03 0.  0.
   -5000001    1    1    2    0    0 -0.16233806325E+03  0.31024516458E+02  0.10780103665E+03  0.28024673219E+03  0.19900000000E+03 0.  0.
<mgrwt>
<rscale>  0 0.51782356E+03</rscale>
<asrwt>0</asrwt>
<pdfrwt beam="1">  1        2 0.25714618E-01 0.51782356E+03</pdfrwt>
<pdfrwt beam="2">  1       -2 0.53201939E-01 0.51782356E+03</pdfrwt>
<totfact> 0.71063411E+02</totfact>
</mgrwt>
</event>
<event>
 4    1  0.4917371E-005  0.5159178E+03  0.7818608E-02  0.1009706E+00
         -2   -1    0    0    0  501 -0.00000000000E+00  0.00000000000E+00  0.19693082664E+03  0.19693082666E+03  0.25500000000E-02 0. -1.
          2   -1    0    0  501    0  0.00000000000E+00 -0.00000000000E+00 -0.33789933108E+03  0.33789933108E+03  0.25500000000E-02 0.  1.
    5000001    1    1    2    0    0 -0.32279219632E+02 -0.12952465545E+03  0.28532622653E+02  0.24131658655E+03  0.19900000000E+03 0.  0.
   -5000001    1    1    2    0    0  0.32279219632E+02  0.12952465545E+03 -0.16950112708E+03  0.29351357119E+03  0.19900000000E+03 0.  0.
<mgrwt>
<rscale>  0 0.51591780E+03</rscale>
<asrwt>0</asrwt>
<pdfrwt beam="1">  1        2 0.48271333E-01 0.51591780E+03</pdfrwt>
<pdfrwt beam="2">  1       -2 0.28132975E-01 0.51591780E+03</pdfrwt>
<totfact> 0.12056401E+03</totfact>
</mgrwt>
</event>
<event>
 4    1  0.4917371E-005  0.4494240E+03  0.7818608E-02  0.1027894E+00
          2   -1    0    0  501    0  0.00000000000E+00  0.00000000000E+00  0.26650543427E+04  0.26650543427E+04  0.25500000000E-02 0.  1.
         -2   -1    0    0    0  501 -0.00000000000E+00 -0.00000000000E+00 -0.18947258916E+02  0.18947259087E+02  0.25500000000E-02 0. -1.
    5000001    1    1    2    0    0 -0.63984287483E+02  0.75582170943E+02  0.15200259158E+04  0.15361921880E+04  0.19900000000E+03 0.  0.
   -5000001    1    1    2    0    0  0.63984287483E+02 -0.75582170943E+02  0.11260811679E+04  0.11478094137E+04  0.19900000000E+03 0.  0.
<mgrwt>
<rscale>  0 0.44942396E+03</rscale>
<asrwt>0</asrwt>
<pdfrwt beam="1">  1        2 0.38072215E+00 0.44942396E+03</pdfrwt>
<pdfrwt beam="2">  1       -2 0.27067506E-02 0.44942396E+03</pdfrwt>
<totfact> 0.20146784E+03</totfact>
</mgrwt>
</event>
<event>
 4    1  0.4917371E-005  0.5161994E+03  0.7818608E-02  0.1009635E+00
          2   -1    0    0  501    0  0.00000000000E+00  0.00000000000E+00  0.44377562473E+03  0.44377562473E+03  0.25500000000E-02 0.  1.
         -2   -1    0    0    0  501 -0.00000000000E+00 -0.00000000000E+00 -0.15011066301E+03  0.15011066303E+03  0.25500000000E-02 0. -1.
    5000001    1    1    2    0    0 -0.68156275119E+02  0.12084206816E+03  0.24822241638E+03  0.34707845117E+03  0.19900000000E+03 0.  0.
   -5000001    1    1    2    0    0  0.68156275119E+02 -0.12084206816E+03  0.45442545336E+02  0.24680783659E+03  0.19900000000E+03 0.  0.
<mgrwt>
<rscale>  0 0.51619939E+03</rscale>
<asrwt>0</asrwt>
<pdfrwt beam="1">  1        2 0.63396517E-01 0.51619939E+03</pdfrwt>
<pdfrwt beam="2">  1       -2 0.21444381E-01 0.51619939E+03</pdfrwt>
<totfact> 0.14484739E+03</totfact>
</mgrwt>
</event>
<event>
 4    1  0.4917371E-005  0.9929315E+03  0.7818608E-02  0.9316331E-01
          2   -1    0    0  501    0  0.00000000000E+00  0.00000000000E+00  0.25529529858E+04  0.25529529858E+04  0.25500000000E-02 0.  1.
         -2   -1    0    0    0  501 -0.00000000000E+00 -0.00000000000E+00 -0.96546339207E+02  0.96546339241E+02  0.25500000000E-02 0. -1.
    5000001    1    1    2    0    0  0.40803685014E+03 -0.17746063919E+03  0.97659920591E+03  0.10914821842E+04  0.19900000000E+03 0.  0.
   -5000001    1    1    2    0    0 -0.40803685014E+03  0.17746063919E+03  0.14798074407E+04  0.15580171408E+04  0.19900000000E+03 0.  0.
<mgrwt>
<rscale>  0 0.99293155E+03</rscale>
<asrwt>0</asrwt>
<pdfrwt beam="1">  1        2 0.36470757E+00 0.99293155E+03</pdfrwt>
<pdfrwt beam="2">  1       -2 0.13792334E-01 0.99293155E+03</pdfrwt>
<totfact> 0.16879413E+02</totfact>
</mgrwt>
</event>
<event>
 4    1  0.4917371E-005  0.5821159E+03  0.7818608E-02  0.9943221E-01
         -2   -1    0    0    0  501 -0.00000000000E+00  0.00000000000E+00  0.10248658166E+03  0.10248658169E+03  0.25500000000E-02 0. -1.
          2   -1    0    0  501    0  0.00000000000E+00 -0.00000000000E+00 -0.82659348544E+03  0.82659348544E+03  0.25500000000E-02 0.  1.
    5000001    1    1    2    0    0  0.19758764688E+03 -0.40721756250E+02 -0.46809825471E+03  0.54718928689E+03  0.19900000000E+03 0.  0.
   -5000001    1    1    2    0    0 -0.19758764688E+03  0.40721756250E+02 -0.25600864908E+03  0.38189078024E+03  0.19900000000E+03 0.  0.
<mgrwt>
<rscale>  0 0.58211594E+03</rscale>
<asrwt>0</asrwt>
<pdfrwt beam="1">  1        2 0.11808478E+00 0.58211594E+03</pdfrwt>
<pdfrwt beam="2">  1       -2 0.14640941E-01 0.58211594E+03</pdfrwt>
<totfact> 0.13324503E+03</totfact>
</mgrwt>
</event>
<event>
 4    1  0.4917371E-005  0.6703994E+03  0.7818608E-02  0.9769237E-01
          2   -1    0    0  501    0  0.00000000000E+00  0.00000000000E+00  0.11242135755E+04  0.11242135755E+04  0.25500000000E-02 0.  1.
         -2   -1    0    0    0  501 -0.00000000000E+00 -0.00000000000E+00 -0.99944393525E+02  0.99944393558E+02  0.25500000000E-02 0. -1.
    5000001    1    1    2    0    0 -0.25728640046E+03 -0.31631274879E+01  0.36433413956E+03  0.48841238978E+03  0.19900000000E+03 0.  0.
   -5000001    1    1    2    0    0  0.25728640046E+03  0.31631274879E+01  0.65993504244E+03  0.73574557931E+03  0.19900000000E+03 0.  0.
<mgrwt>
<rscale>  0 0.67039942E+03</rscale>
<asrwt>0</asrwt>
<pdfrwt beam="1">  1        2 0.16060194E+00 0.67039942E+03</pdfrwt>
<pdfrwt beam="2">  1       -2 0.14277771E-01 0.67039942E+03</pdfrwt>
<totfact> 0.90575696E+02</totfact>
</mgrwt>
</event>
<event>
 4    1  0.4917371E-005  0.7051539E+03  0.7818608E-02  0.9708459E-01
         -2   -1    0    0    0  501 -0.00000000000E+00  0.00000000000E+00  0.19780095024E+03  0.19780095026E+03  0.25500000000E-02 0. -1.
          2   -1    0    0  501    0  0.00000000000E+00 -0.00000000000E+00 -0.62846256797E+03  0.62846256797E+03  0.25500000000E-02 0.  1.
    5000001    1    1    2    0    0 -0.12046968827E+03 -0.26487282482E+03 -0.22264218879E+03  0.41694256600E+03  0.19900000000E+03 0.  0.
   -5000001    1    1    2    0    0  0.12046968827E+03  0.26487282482E+03 -0.20801942894E+03  0.40932095223E+03  0.19900000000E+03 0.  0.
<mgrwt>
<rscale>  0 0.70515386E+03</rscale>
<asrwt>0</asrwt>
<pdfrwt beam="1">  1        2 0.89780366E-01 0.70515386E+03</pdfrwt>
<pdfrwt beam="2">  1       -2 0.28257279E-01 0.70515386E+03</pdfrwt>
<totfact> 0.59047431E+02</totfact>
</mgrwt>
</event>
<event>
 4    1  0.4917371E-005  0.5253415E+03  0.7818608E-02  0.1007368E+00
         -2   -1    0    0    0  501 -0.00000000000E+00  0.00000000000E+00  0.94043088902E+02  0.94043088937E+02  0.25500000000E-02 0. -1.
          2   -1    0    0  501    0  0.00000000000E+00 -0.00000000000E+00 -0.73366293821E+03  0.73366293822E+03  0.25500000000E-02 0.  1.
    5000001    1    1    2    0    0  0.13558569139E+03 -0.28996627483E+02 -0.16091550944E+03  0.29106543129E+03  0.19900000000E+03 0.  0.
   -5000001    1    1    2    0    0 -0.13558569139E+03  0.28996627483E+02 -0.47870433987E+03  0.53664059586E+03  0.19900000000E+03 0.  0.
<mgrwt>
<rscale>  0 0.52534152E+03</rscale>
<asrwt>0</asrwt>
<pdfrwt beam="1">  1        2 0.10480899E+00 0.52534152E+03</pdfrwt>
<pdfrwt beam="2">  1       -2 0.13434727E-01 0.52534152E+03</pdfrwt>
<totfact> 0.17887124E+03</totfact>
</mgrwt>
</event>
<event>
 4    1  0.4917371E-005  0.6711595E+03  0.7818608E-02  0.9767865E-01
          2   -1    0    0  501    0  0.00000000000E+00  0.00000000000E+00  0.25089426253E+04  0.25089426253E+04  0.25500000000E-02 0.  1.
         -2   -1    0    0    0  501 -0.00000000000E+00 -0.00000000000E+00 -0.44884955682E+02  0.44884955754E+02  0.25500000000E-02 0. -1.
    5000001    1    1    2    0    0 -0.26891982597E+02 -0.22771635840E+03  0.17759696471E+04  0.18017344715E+04  0.19900000000E+03 0.  0.
   -5000001    1    1    2    0    0  0.26891982597E+02  0.22771635840E+03  0.68808802254E+03  0.75209310951E+03  0.19900000000E+03 0.  0.
<mgrwt>
<rscale>  0 0.67115953E+03</rscale>
<asrwt>0</asrwt>
<pdfrwt beam="1">  1        2 0.35842049E+00 0.67115953E+03</pdfrwt>
<pdfrwt beam="2">  1       -2 0.64121345E-02 0.67115953E+03</pdfrwt>
<totfact> 0.63359821E+02</totfact>
</mgrwt>
</event>
<event>
 4    1  0.4917371E-005  0.8508650E+03  0.7818608E-02  0.9489177E-01
          2   -1    0    0  501    0  0.00000000000E+00  0.00000000000E+00  0.18060153791E+04  0.18060153791E+04  0.25500000000E-02 0.  1.
         -2   -1    0    0    0  501 -0.00000000000E+00 -0.00000000000E+00 -0.10021664473E+03  0.10021664476E+03  0.25500000000E-02 0. -1.
    5000001    1    1    2    0    0 -0.11134146535E+03 -0.34101064784E+03  0.60035941273E+03  0.72712970528E+03  0.19900000000E+03 0.  0.
   -5000001    1    1    2    0    0  0.11134146535E+03  0.34101064784E+03  0.11054393217E+04  0.11791023186E+04  0.19900000000E+03 0.  0.
<mgrwt>
<rscale>  0 0.85086498E+03</rscale>
<asrwt>0</asrwt>
<pdfrwt beam="1">  1        2 0.25800217E+00 0.85086498E+03</pdfrwt>
<pdfrwt beam="2">  1       -2 0.14316665E-01 0.85086498E+03</pdfrwt>
<totfact> 0.38660718E+02</totfact>
</mgrwt>
</event>
<event>
 4    1  0.4917371E-005  0.4832185E+03  0.7818608E-02  0.1018254E+00
          2   -1    0    0  501    0  0.00000000000E+00  0.00000000000E+00  0.17017409109E+04  0.17017409109E+04  0.25500000000E-02 0.  1.
         -2   -1    0    0    0  501 -0.00000000000E+00 -0.00000000000E+00 -0.34303123141E+02  0.34303123236E+02  0.25500000000E-02 0. -1.
    5000001    1    1    2    0    0  0.50195473867E+02  0.12057980627E+03  0.68493933068E+03  0.72512203248E+03  0.19900000000E+03 0.  0.
   -5000001    1    1    2    0    0 -0.50195473867E+02 -0.12057980627E+03  0.98249845712E+03  0.10109220017E+04  0.19900000000E+03 0.  0.
<mgrwt>
<rscale>  0 0.48321849E+03</rscale>
<asrwt>0</asrwt>
<pdfrwt beam="1">  1        2 0.24310596E+00 0.48321849E+03</pdfrwt>
<pdfrwt beam="2">  1       -2 0.49004438E-02 0.48321849E+03</pdfrwt>
<totfact> 0.24859760E+03</totfact>
</mgrwt>
</event>
<event>
 4    1  0.4917371E-005  0.4497584E+03  0.7818608E-02  0.1027794E+00
          2   -1    0    0  501    0  0.00000000000E+00  0.00000000000E+00  0.13309603822E+03  0.13309603825E+03  0.25500000000E-02 0.  1.
         -2   -1    0    0    0  501 -0.00000000000E+00 -0.00000000000E+00 -0.37995610031E+03  0.37995610032E+03  0.25500000000E-02 0. -1.
    5000001    1    1    2    0    0 -0.69913227265E+02  0.77932771865E+02 -0.12014850187E+03  0.25494712938E+03  0.19900000000E+03 0.  0.
   -5000001    1    1    2    0    0  0.69913227265E+02 -0.77932771865E+02 -0.12671156022E+03  0.25810500919E+03  0.19900000000E+03 0.  0.
<mgrwt>
<rscale>  0 0.44975839E+03</rscale>
<asrwt>0</asrwt>
<pdfrwt beam="1">  1        2 0.19013720E-01 0.44975839E+03</pdfrwt>
<pdfrwt beam="2">  1       -2 0.54279443E-01 0.44975839E+03</pdfrwt>
<totfact> 0.96553839E+02</totfact>
</mgrwt>
</event>
<event>
 4    1  0.4917371E-005  0.5047386E+03  0.7818608E-02  0.1012549E+00
          2   -1    0    0  501    0  0.00000000000E+00  0.00000000000E+00  0.10369331413E+04  0.10369331413E+04  0.25500000000E-02 0.  1.
         -2   -1    0    0    0  501 -0.00000000000E+00 -0.00000000000E+00 -0.61421758493E+02  0.61421758546E+02  0.25500000000E-02 0. -1.
    5000001    1    1    2    0    0 -0.84047104674E+02  0.10680769909E+03  0.32465865895E+03  0.40432171005E+03  0.19900000000E+03 0.  0.
   -5000001    1    1    2    0    0  0.84047104674E+02 -0.10680769909E+03  0.65085272387E+03  0.69403318981E+03  0.19900000000E+03 0.  0.
<mgrwt>
<rscale>  0 0.50473857E+03</rscale>
<asrwt>0</asrwt>
<pdfrwt beam="1">  1        2 0.14813331E+00 0.50473857E+03</pdfrwt>
<pdfrwt beam="2">  1       -2 0.87745365E-02 0.50473857E+03</pdfrwt>
<totfact> 0.22676506E+03</totfact>
</mgrwt>
</event>
<event>
 4    1  0.4917371E-005  0.4315918E+03  0.7818608E-02  0.1033358E+00
         -2   -1    0    0    0  501 -0.00000000000E+00  0.00000000000E+00  0.13924177936E+03  0.13924177938E+03  0.25500000000E-02 0. -1.
          2   -1    0    0  501    0  0.00000000000E+00 -0.00000000000E+00 -0.33443889700E+03  0.33443889701E+03  0.25500000000E-02 0.  1.
    5000001    1    1    2    0    0  0.80731359421E+02 -0.21178189548E+02 -0.98579600318E+02  0.23724461154E+03  0.19900000000E+03 0.  0.
   -5000001    1    1    2    0    0 -0.80731359421E+02  0.21178189548E+02 -0.96617517323E+02  0.23643606485E+03  0.19900000000E+03 0.  0.
<mgrwt>
<rscale>  0 0.43159178E+03</rscale>
<asrwt>0</asrwt>
<pdfrwt beam="1">  1        2 0.47776985E-01 0.43159178E+03</pdfrwt>
<pdfrwt beam="2">  1       -2 0.19891683E-01 0.43159178E+03</pdfrwt>
<totfact> 0.22519072E+03</totfact>
</mgrwt>
</event>
<event>
 4    1  0.4917371E-005  0.8783044E+03  0.7818608E-02  0.9453116E-01
         -2   -1    0    0    0  501 -0.00000000000E+00  0.00000000000E+00  0.13059739192E+04  0.13059739192E+04  0.25500000000E-02 0. -1.
          2   -1    0    0  501    0  0.00000000000E+00 -0.00000000000E+00 -0.14767112112E+03  0.14767112114E+03  0.25500000000E-02 0.  1.
    5000001    1    1    2    0    0 -0.21197877831E+03 -0.17548258795E+03  0.11832982732E+03  0.35962770911E+03  0.19900000000E+03 0.  0.
   -5000001    1    1    2    0    0  0.21197877831E+03  0.17548258795E+03  0.10399729708E+04  0.10940173313E+04  0.19900000000E+03 0.  0.
<mgrwt>
<rscale>  0 0.87830435E+03</rscale>
<asrwt>0</asrwt>
<pdfrwt beam="1">  1        2 0.21095875E-01 0.87830435E+03</pdfrwt>
<pdfrwt beam="2">  1       -2 0.18656770E+00 0.87830435E+03</pdfrwt>
<totfact> 0.43972911E+01</totfact>
</mgrwt>
</event>
<event>
 4    1  0.4917371E-005  0.6029007E+03  0.7818608E-02  0.9899406E-01
          2   -1    0    0  501    0  0.00000000000E+00  0.00000000000E+00  0.12694506065E+04  0.12694506065E+04  0.25500000000E-02 0.  1.
         -2   -1    0    0    0  501 -0.00000000000E+00 -0.00000000000E+00 -0.71583973058E+02  0.71583973103E+02  0.25500000000E-02 0. -1.
    5000001    1    1    2    0    0 -0.18817980688E+03 -0.61771386671E+02  0.35482696253E+03  0.45247156515E+03  0.19900000000E+03 0.  0.
   -5000001    1    1    2    0    0  0.18817980688E+03  0.61771386671E+02  0.84303967090E+03  0.88856301444E+03  0.19900000000E+03 0.  0.
<mgrwt>
<rscale>  0 0.60290072E+03</rscale>
<asrwt>0</asrwt>
<pdfrwt beam="1">  1        2 0.18135009E+00 0.60290072E+03</pdfrwt>
<pdfrwt beam="2">  1       -2 0.10226282E-01 0.60290072E+03</pdfrwt>
<totfact> 0.13042346E+03</totfact>
</mgrwt>
</event>
<event>
 4    1  0.4917371E-005  0.4621846E+03  0.7818608E-02  0.1024150E+00
          2   -1    0    0  501    0  0.00000000000E+00  0.00000000000E+00  0.85876504637E+03  0.85876504638E+03  0.25500000000E-02 0.  1.
         -2   -1    0    0    0  501 -0.00000000000E+00 -0.00000000000E+00 -0.62186571269E+02  0.62186571321E+02  0.25500000000E-02 0. -1.
    5000001    1    1    2    0    0 -0.58914147732E+02 -0.99471021288E+02  0.35662076797E+03  0.42443460395E+03  0.19900000000E+03 0.  0.
   -5000001    1    1    2    0    0  0.58914147732E+02  0.99471021288E+02  0.43995770713E+03  0.49651701375E+03  0.19900000000E+03 0.  0.
<mgrwt>
<rscale>  0 0.46218461E+03</rscale>
<asrwt>0</asrwt>
<pdfrwt beam="1">  1        2 0.12268072E+00 0.46218461E+03</pdfrwt>
<pdfrwt beam="2">  1       -2 0.88837962E-02 0.46218461E+03</pdfrwt>
<totfact> 0.28704902E+03</totfact>
</mgrwt>
</event>
<event>
 4    1  0.4917371E-005  0.4873462E+03  0.7818608E-02  0.1017136E+00
          2   -1    0    0  501    0  0.00000000000E+00  0.00000000000E+00  0.44518932963E+03  0.44518932964E+03  0.25500000000E-02 0.  1.
         -2   -1    0    0    0  501 -0.00000000000E+00 -0.00000000000E+00 -0.13337377621E+03  0.13337377623E+03  0.25500000000E-02 0. -1.
    5000001    1    1    2    0    0  0.11820246013E+03  0.56944817753E+01  0.65719264607E+02  0.24067461529E+03  0.19900000000E+03 0.  0.
   -5000001    1    1    2    0    0 -0.11820246013E+03 -0.56944817753E+01  0.24609628882E+03  0.33788849059E+03  0.19900000000E+03 0.  0.
<mgrwt>
<rscale>  0 0.48734621E+03</rscale>
<asrwt>0</asrwt>
<pdfrwt beam="1">  1        2 0.63598476E-01 0.48734621E+03</pdfrwt>
<pdfrwt beam="2">  1       -2 0.19053397E-01 0.48734621E+03</pdfrwt>
<totfact> 0.17721174E+03</totfact>
</mgrwt>
</event>
<event>
 4    1  0.4917371E-005  0.6815029E+03  0.7818608E-02  0.9749398E-01
         -2   -1    0    0    0  501 -0.00000000000E+00  0.00000000000E+00  0.12069972510E+03  0.12069972513E+03  0.25500000000E-02 0. -1.
          2   -1    0    0  501    0  0.00000000000E+00 -0.00000000000E+00 -0.96198687727E+03  0.96198687727E+03  0.25500000000E-02 0.  1.
    5000001    1    1    2    0    0  0.17449614025E+03 -0.18001782987E+03 -0.23499802058E+03  0.39708990381E+03  0.19900000000E+03 0.  0.
   -5000001    1    1    2    0    0 -0.17449614025E+03  0.18001782987E+03 -0.60628913159E+03  0.68559669859E+03  0.19900000000E+03 0.  0.
<mgrwt>
<rscale>  0 0.68150290E+03</rscale>
<asrwt>0</asrwt>
<pdfrwt beam="1">  1        2 0.13742669E+00 0.68150290E+03</pdfrwt>
<pdfrwt beam="2">  1       -2 0.17242818E-01 0.68150290E+03</pdfrwt>
<totfact> 0.82266084E+02</totfact>
</mgrwt>
</event>
<event>
 4    1  0.4917371E-005  0.9234255E+03  0.7818608E-02  0.9396763E-01
         -2   -1    0    0    0  501 -0.00000000000E+00  0.00000000000E+00  0.32478479751E+03  0.32478479752E+03  0.25500000000E-02 0. -1.
          2   -1    0    0  501    0  0.00000000000E+00 -0.00000000000E+00 -0.65636892101E+03  0.65636892101E+03  0.25500000000E-02 0.  1.
    5000001    1    1    2    0    0 -0.24600163417E+03 -0.28515465169E+03  0.23525595098E+02  0.42659633499E+03  0.19900000000E+03 0.  0.
   -5000001    1    1    2    0    0  0.24600163417E+03  0.28515465169E+03 -0.35510971860E+03  0.55455738354E+03  0.19900000000E+03 0.  0.
<mgrwt>
<rscale>  0 0.92342546E+03</rscale>
<asrwt>0</asrwt>
<pdfrwt beam="1">  1        2 0.93766988E-01 0.92342546E+03</pdfrwt>
<pdfrwt beam="2">  1       -2 0.46397828E-01 0.92342546E+03</pdfrwt>
<totfact> 0.21479945E+02</totfact>
</mgrwt>
</event>
<event>
 4    1  0.4917371E-005  0.6905809E+03  0.7818608E-02  0.9733477E-01
         -2   -1    0    0    0  501 -0.00000000000E+00  0.00000000000E+00  0.15025330556E+03  0.15025330559E+03  0.25500000000E-02 0. -1.
          2   -1    0    0  501    0  0.00000000000E+00 -0.00000000000E+00 -0.79349669404E+03  0.79349669405E+03  0.25500000000E-02 0.  1.
    5000001    1    1    2    0    0  0.51544633288E+02  0.21435725544E+03 -0.56230924080E+03  0.63592339513E+03  0.19900000000E+03 0.  0.
   -5000001    1    1    2    0    0 -0.51544633288E+02 -0.21435725544E+03 -0.80934147679E+02  0.30782660450E+03  0.19900000000E+03 0.  0.
<mgrwt>
<rscale>  0 0.69058092E+03</rscale>
<asrwt>0</asrwt>
<pdfrwt beam="1">  1        2 0.11335667E+00 0.69058092E+03</pdfrwt>
<pdfrwt beam="2">  1       -2 0.21464758E-01 0.69058092E+03</pdfrwt>
<totfact> 0.72604189E+02</totfact>
</mgrwt>
</event>
<event>
 4    1  0.4917371E-005  0.4458895E+03  0.7818608E-02  0.1028955E+00
          2   -1    0    0  501    0  0.00000000000E+00  0.00000000000E+00  0.22925791990E+04  0.22925791990E+04  0.25500000000E-02 0.  1.
         -2   -1    0    0    0  501 -0.00000000000E+00 -0.00000000000E+00 -0.21680546230E+02  0.21680546380E+02  0.25500000000E-02 0. -1.
    5000001    1    1    2    0    0 -0.46378531572E+02  0.80425908379E+02  0.93550334464E+03  0.96093017580E+03  0.19900000000E+03 0.  0.
   -5000001    1    1    2    0    0  0.46378531572E+02 -0.80425908379E+02  0.13353953081E+04  0.13533295696E+04  0.19900000000E+03 0.  0.
<mgrwt>
<rscale>  0 0.44588954E+03</rscale>
<asrwt>0</asrwt>
<pdfrwt beam="1">  1        2 0.32751120E+00 0.44588954E+03</pdfrwt>
<pdfrwt beam="2">  1       -2 0.30972220E-02 0.44588954E+03</pdfrwt>
<totfact> 0.25417504E+03</totfact>
</mgrwt>
</event>
<event>
 4    1  0.4917371E-005  0.8560983E+03  0.7818608E-02  0.9482188E-01
         -2   -1    0    0    0  501 -0.00000000000E+00  0.00000000000E+00  0.10544386484E+03  0.10544386487E+03  0.25500000000E-02 0. -1.
          2   -1    0    0  501    0  0.00000000000E+00 -0.00000000000E+00 -0.17376647483E+04  0.17376647483E+04  0.25500000000E-02 0.  1.
    5000001    1    1    2    0    0  0.13997218867E+03 -0.62747730961E+02 -0.15621997558E+04  0.15822763881E+04  0.19900000000E+03 0.  0.
   -5000001    1    1    2    0    0 -0.13997218867E+03  0.62747730961E+02 -0.70021127735E+02  0.26083222514E+03  0.19900000000E+03 0.  0.
<mgrwt>
<rscale>  0 0.85609833E+03</rscale>
<asrwt>0</asrwt>
<pdfrwt beam="1">  1        2 0.24823780E+00 0.85609833E+03</pdfrwt>
<pdfrwt beam="2">  1       -2 0.15063410E-01 0.85609833E+03</pdfrwt>
<totfact> 0.38440793E+02</totfact>
</mgrwt>
</event>
<event>
 4    1  0.4917371E-005  0.6440050E+03  0.7818608E-02  0.9818094E-01
          2   -1    0    0  501    0  0.00000000000E+00  0.00000000000E+00  0.24694839390E+04  0.24694839390E+04  0.25500000000E-02 0.  1.
         -2   -1    0    0    0  501 -0.00000000000E+00 -0.00000000000E+00 -0.41986746851E+02  0.41986746929E+02  0.25500000000E-02 0. -1.
    5000001    1    1    2    0    0 -0.90985360953E+02  0.15688296249E+03  0.52497828936E+03  0.58999474924E+03  0.19900000000E+03 0.  0.
   -5000001    1    1    2    0    0  0.90985360953E+02 -0.15688296249E+03  0.19025189028E+04  0.19214759367E+04  0.19900000000E+03 0.  0.
<mgrwt>
<rscale>  0 0.64400496E+03</rscale>
<asrwt>0</asrwt>
<pdfrwt beam="1">  1        2 0.35278326E+00 0.64400496E+03</pdfrwt>
<pdfrwt beam="2">  1       -2 0.59981094E-02 0.64400496E+03</pdfrwt>
<totfact> 0.73887855E+02</totfact>
</mgrwt>
</event>
<event>
 4    1  0.4917371E-005  0.7861347E+03  0.7818608E-02  0.9580306E-01
          2   -1    0    0  501    0  0.00000000000E+00  0.00000000000E+00  0.12479704932E+04  0.12479704932E+04  0.25500000000E-02 0.  1.
         -2   -1    0    0    0  501 -0.00000000000E+00 -0.00000000000E+00 -0.12380257209E+03  0.12380257212E+03  0.25500000000E-02 0. -1.
    5000001    1    1    2    0    0 -0.21131999209E+03  0.18500491925E+03  0.89324944528E+03  0.95727662183E+03  0.19900000000E+03 0.  0.
   -5000001    1    1    2    0    0  0.21131999209E+03 -0.18500491925E+03  0.23091847587E+03  0.41449644353E+03  0.19900000000E+03 0.  0.
<mgrwt>
<rscale>  0 0.78613474E+03</rscale>
<asrwt>0</asrwt>
<pdfrwt beam="1">  1        2 0.17828149E+00 0.78613474E+03</pdfrwt>
<pdfrwt beam="2">  1       -2 0.17686083E-01 0.78613474E+03</pdfrwt>
<totfact> 0.53307359E+02</totfact>
</mgrwt>
</event>
<event>
 4    1  0.4917371E-005  0.8035944E+03  0.7818608E-02  0.9554829E-01
         -2   -1    0    0    0  501 -0.00000000000E+00  0.00000000000E+00  0.16368905728E+03  0.16368905730E+03  0.25500000000E-02 0. -1.
          2   -1    0    0  501    0  0.00000000000E+00 -0.00000000000E+00 -0.98626618487E+03  0.98626618488E+03  0.25500000000E-02 0.  1.
    5000001    1    1    2    0    0  0.14195266133E+03 -0.31832922437E+03 -0.38429093200E+03  0.55566588303E+03  0.19900000000E+03 0.  0.
   -5000001    1    1    2    0    0 -0.14195266133E+03  0.31832922437E+03 -0.43828619560E+03  0.59428935914E+03  0.19900000000E+03 0.  0.
<mgrwt>
<rscale>  0 0.80359438E+03</rscale>
<asrwt>0</asrwt>
<pdfrwt beam="1">  1        2 0.14089517E+00 0.80359438E+03</pdfrwt>
<pdfrwt beam="2">  1       -2 0.23384152E-01 0.80359438E+03</pdfrwt>
<totfact> 0.46423003E+02</totfact>
</mgrwt>
</event>
<event>
 4    1  0.4917371E-005  0.6064726E+03  0.7818608E-02  0.9892068E-01
          2   -1    0    0  501    0  0.00000000000E+00  0.00000000000E+00  0.12699860705E+03  0.12699860708E+03  0.25500000000E-02 0.  1.
         -2   -1    0    0    0  501 -0.00000000000E+00 -0.00000000000E+00 -0.72404141674E+03  0.72404141674E+03  0.25500000000E-02 0. -1.
    5000001    1    1    2    0    0 -0.21386400534E+03  0.35252819788E+02 -0.40135933698E+03  0.49766544130E+03  0.19900000000E+03 0.  0.
   -5000001    1    1    2    0    0  0.21386400534E+03 -0.35252819788E+02 -0.19568347270E+03  0.35337458252E+03  0.19900000000E+03 0.  0.
<mgrwt>
<rscale>  0 0.60647259E+03</rscale>
<asrwt>0</asrwt>
<pdfrwt beam="1">  1        2 0.18142659E-01 0.60647259E+03</pdfrwt>
<pdfrwt beam="2">  1       -2 0.10343449E+00 0.60647259E+03</pdfrwt>
<totfact> 0.24590103E+02</totfact>
</mgrwt>
</event>
<event>
 4    1  0.4917371E-005  0.5295098E+03  0.7818608E-02  0.1006351E+00
         -2   -1    0    0    0  501 -0.00000000000E+00  0.00000000000E+00  0.17509063003E+03  0.17509063005E+03  0.25500000000E-02 0. -1.
          2   -1    0    0  501    0  0.00000000000E+00 -0.00000000000E+00 -0.40033636831E+03  0.40033636832E+03  0.25500000000E-02 0.  1.
    5000001    1    1    2    0    0 -0.13313622770E+03 -0.36011189037E+02  0.37729718496E+01  0.24215139103E+03  0.19900000000E+03 0.  0.
   -5000001    1    1    2    0    0  0.13313622770E+03  0.36011189037E+02 -0.22901871013E+03  0.33327560734E+03  0.19900000000E+03 0.  0.
<mgrwt>
<rscale>  0 0.52950976E+03</rscale>
<asrwt>0</asrwt>
<pdfrwt beam="1">  1        2 0.57190910E-01 0.52950976E+03</pdfrwt>
<pdfrwt beam="2">  1       -2 0.25012947E-01 0.52950976E+03</pdfrwt>
<totfact> 0.12365455E+03</totfact>
</mgrwt>
</event>
<event>
 4    1  0.4917371E-005  0.7871284E+03  0.7818608E-02  0.9578837E-01
         -2   -1    0    0    0  501 -0.00000000000E+00  0.00000000000E+00  0.68876888964E+02  0.68876889012E+02  0.25500000000E-02 0. -1.
          2   -1    0    0  501    0  0.00000000000E+00 -0.00000000000E+00 -0.22488354099E+04  0.22488354099E+04  0.25500000000E-02 0.  1.
    5000001    1    1    2    0    0  0.37069634017E+02 -0.15134541567E+03 -0.19782875715E+04  0.19943676462E+04  0.19900000000E+03 0.  0.
   -5000001    1    1    2    0    0 -0.37069634017E+02  0.15134541567E+03 -0.20167094948E+03  0.32334465277E+03  0.19900000000E+03 0.  0.
<mgrwt>
<rscale>  0 0.78712842E+03</rscale>
<asrwt>0</asrwt>
<pdfrwt beam="1">  1        2 0.32126215E+00 0.78712842E+03</pdfrwt>
<pdfrwt beam="2">  1       -2 0.98395570E-02 0.78712842E+03</pdfrwt>
<totfact> 0.43016355E+02</totfact>
</mgrwt>
</event>
<event>
 4    1  0.4917371E-005  0.9865975E+03  0.7818608E-02  0.9323368E-01
          2   -1    0    0  501    0  0.00000000000E+00  0.00000000000E+00  0.41729013724E+03  0.41729013725E+03  0.25500000000E-02 0.  1.
         -2   -1    0    0    0  501 -0.00000000000E+00 -0.00000000000E+00 -0.58315218544E+03  0.58315218544E+03  0.25500000000E-02 0. -1.
    5000001    1    1    2    0    0  0.38499473970E+03  0.22831438647E+03 -0.23853299909E+02  0.49042674131E+03  0.19900000000E+03 0.  0.
   -5000001    1    1    2    0    0 -0.38499473970E+03 -0.22831438647E+03 -0.14200874829E+03  0.51001558139E+03  0.19900000000E+03 0.  0.
<mgrwt>
<rscale>  0 0.98659750E+03</rscale>
<asrwt>0</asrwt>
<pdfrwt beam="1">  1        2 0.59612877E-01 0.98659750E+03</pdfrwt>
<pdfrwt beam="2">  1       -2 0.83307455E-01 0.98659750E+03</pdfrwt>
<totfact> 0.10401069E+02</totfact>
</mgrwt>
</event>
<event>
 4    1  0.4917371E-005  0.5047778E+03  0.7818608E-02  0.1012539E+00
         -2   -1    0    0    0  501 -0.00000000000E+00  0.00000000000E+00  0.17283629398E+04  0.17283629398E+04  0.25500000000E-02 0. -1.
          2   -1    0    0  501    0  0.00000000000E+00 -0.00000000000E+00 -0.36855781095E+02  0.36855781183E+02  0.25500000000E-02 0.  1.
    5000001    1    1    2    0    0 -0.12393968669E+03 -0.73506475357E+02  0.10477021813E+04  0.10761250432E+04  0.19900000000E+03 0.  0.
   -5000001    1    1    2    0    0  0.12393968669E+03  0.73506475357E+02  0.64380497732E+03  0.68909367773E+03  0.19900000000E+03 0.  0.
<mgrwt>
<rscale>  0 0.50477784E+03</rscale>
<asrwt>0</asrwt>
<pdfrwt beam="1">  1        2 0.52651115E-02 0.50477784E+03</pdfrwt>
<pdfrwt beam="2">  1       -2 0.24690900E+00 0.50477784E+03</pdfrwt>
<totfact> 0.10810691E+02</totfact>
</mgrwt>
</event>
<event>
 4    1  0.4917371E-005  0.4827672E+03  0.7818608E-02  0.1018377E+00
         -2   -1    0    0    0  501 -0.00000000000E+00  0.00000000000E+00  0.39549194633E+02  0.39549194715E+02  0.25500000000E-02 0. -1.
          2   -1    0    0  501    0  0.00000000000E+00 -0.00000000000E+00 -0.14732547038E+04  0.14732547038E+04  0.25500000000E-02 0.  1.
    5000001    1    1    2    0    0  0.12509650063E+03  0.15966764036E+02 -0.88150791817E+03  0.91244796115E+03  0.19900000000E+03 0.  0.
   -5000001    1    1    2    0    0 -0.12509650063E+03 -0.15966764036E+02 -0.55219759104E+03  0.60035593740E+03  0.19900000000E+03 0.  0.
<mgrwt>
<rscale>  0 0.48276718E+03</rscale>
<asrwt>0</asrwt>
<pdfrwt beam="1">  1        2 0.21046492E+00 0.48276718E+03</pdfrwt>
<pdfrwt beam="2">  1       -2 0.56498859E-02 0.48276718E+03</pdfrwt>
<totfact> 0.26099329E+03</totfact>
</mgrwt>
</event>
<event>
 4    1  0.4917371E-005  0.4784414E+03  0.7818608E-02  0.1019564E+00
         -2   -1    0    0    0  501 -0.00000000000E+00  0.00000000000E+00  0.82906169653E+03  0.82906169653E+03  0.25500000000E-02 0. -1.
          2   -1    0    0  501    0  0.00000000000E+00 -0.00000000000E+00 -0.69025680190E+02  0.69025680238E+02  0.25500000000E-02 0.  1.
    5000001    1    1    2    0    0  0.11300605185E+03 -0.35102041927E+02  0.26703176319E+03  0.35342535797E+03  0.19900000000E+03 0.  0.
   -5000001    1    1    2    0    0 -0.11300605185E+03  0.35102041927E+02  0.49300425315E+03  0.54466201881E+03  0.19900000000E+03 0.  0.
<mgrwt>
<rscale>  0 0.47844142E+03</rscale>
<asrwt>0</asrwt>
<pdfrwt beam="1">  1        2 0.98608122E-02 0.47844142E+03</pdfrwt>
<pdfrwt beam="2">  1       -2 0.11843738E+00 0.47844142E+03</pdfrwt>
<totfact> 0.37551318E+02</totfact>
</mgrwt>
</event>
<event>
 4    1  0.4917371E-005  0.1670367E+04  0.7818608E-02  0.8778448E-01
         -2   -1    0    0    0  501 -0.00000000000E+00  0.00000000000E+00  0.36551763887E+03  0.36551763888E+03  0.25500000000E-02 0. -1.
          2   -1    0    0  501    0  0.00000000000E+00 -0.00000000000E+00 -0.19083386968E+04  0.19083386968E+04  0.25500000000E-02 0.  1.
    5000001    1    1    2    0    0  0.77250566711E+03 -0.17352954858E+03 -0.10112952144E+04  0.12996909327E+04  0.19900000000E+03 0.  0.
   -5000001    1    1    2    0    0 -0.77250566711E+03  0.17352954858E+03 -0.53152584353E+03  0.97416540294E+03  0.19900000000E+03 0.  0.
<mgrwt>
<rscale>  0 0.16703670E+04</rscale>
<asrwt>0</asrwt>
<pdfrwt beam="1">  1        2 0.27261981E+00 0.16703670E+04</pdfrwt>
<pdfrwt beam="2">  1       -2 0.52216807E-01 0.16703670E+04</pdfrwt>
<totfact> 0.29601402E+01</totfact>
</mgrwt>
</event>
<event>
 4    1  0.4917371E-005  0.6804234E+03  0.7818608E-02  0.9751309E-01
         -2   -1    0    0    0  501 -0.00000000000E+00  0.00000000000E+00  0.27420259220E+02  0.27420259338E+02  0.25500000000E-02 0. -1.
          2   -1    0    0  501    0  0.00000000000E+00 -0.00000000000E+00 -0.42211127337E+04  0.42211127337E+04  0.25500000000E-02 0.  1.
    5000001    1    1    2    0    0 -0.23271700364E+03  0.74410294884E+02 -0.12960384170E+04  0.13337955893E+04  0.19900000000E+03 0.  0.
   -5000001    1    1    2    0    0  0.23271700364E+03 -0.74410294884E+02 -0.28976540575E+04  0.29147374037E+04  0.19900000000E+03 0.  0.
<mgrwt>
<rscale>  0 0.68042341E+03</rscale>
<asrwt>0</asrwt>
<pdfrwt beam="1">  1        2 0.60301569E+00 0.68042341E+03</pdfrwt>
<pdfrwt beam="2">  1       -2 0.39171826E-02 0.68042341E+03</pdfrwt>
<totfact> 0.13253930E+02</totfact>
</mgrwt>
</event>
<event>
 4    1  0.4917371E-005  0.5513882E+03  0.7818608E-02  0.1001173E+00
         -2   -1    0    0    0  501 -0.00000000000E+00  0.00000000000E+00  0.51576856185E+02  0.51576856248E+02  0.25500000000E-02 0. -1.
          2   -1    0    0  501    0  0.00000000000E+00 -0.00000000000E+00 -0.14736694954E+04  0.14736694954E+04  0.25500000000E-02 0.  1.
    5000001    1    1    2    0    0 -0.55425798631E+02 -0.14760020483E+03 -0.41378155881E+03  0.48546268449E+03  0.19900000000E+03 0.  0.
   -5000001    1    1    2    0    0  0.55425798631E+02  0.14760020483E+03 -0.10083110804E+04  0.10397836671E+04  0.19900000000E+03 0.  0.
<mgrwt>
<rscale>  0 0.55138821E+03</rscale>
<asrwt>0</asrwt>
<pdfrwt beam="1">  1        2 0.21052419E+00 0.55138821E+03</pdfrwt>
<pdfrwt beam="2">  1       -2 0.73681232E-02 0.55138821E+03</pdfrwt>
<totfact> 0.17179557E+03</totfact>
</mgrwt>
</event>
<event>
 4    1  0.4917371E-005  0.4313980E+03  0.7818608E-02  0.1033419E+00
         -2   -1    0    0    0  501 -0.00000000000E+00  0.00000000000E+00  0.42059632754E+02  0.42059632831E+02  0.25500000000E-02 0. -1.
          2   -1    0    0  501    0  0.00000000000E+00 -0.00000000000E+00 -0.11061925023E+04  0.11061925023E+04  0.25500000000E-02 0.  1.
    5000001    1    1    2    0    0 -0.74306439027E+02 -0.56099177204E+01 -0.43347091508E+03  0.48275351089E+03  0.19900000000E+03 0.  0.
   -5000001    1    1    2    0    0  0.74306439027E+02  0.56099177204E+01 -0.63066195448E+03  0.66549862425E+03  0.19900000000E+03 0.  0.
<mgrwt>
<rscale>  0 0.43139796E+03</rscale>
<asrwt>0</asrwt>
<pdfrwt beam="1">  1        2 0.15802748E+00 0.43139796E+03</pdfrwt>
<pdfrwt beam="2">  1       -2 0.60085197E-02 0.43139796E+03</pdfrwt>
<totfact> 0.37499303E+03</totfact>
</mgrwt>
</event>
<event>
 4    1  0.4917371E-005  0.4991509E+03  0.7818608E-02  0.1014001E+00
         -2   -1    0    0    0  501 -0.00000000000E+00  0.00000000000E+00  0.27702906545E+02  0.27702906662E+02  0.25500000000E-02 0. -1.
          2   -1    0    0  501    0  0.00000000000E+00 -0.00000000000E+00 -0.22484244963E+04  0.22484244963E+04  0.25500000000E-02 0.  1.
    5000001    1    1    2    0    0  0.62219321437E+02 -0.19732975009E+02 -0.49137121087E+03  0.53414164894E+03  0.19900000000E+03 0.  0.
   -5000001    1    1    2    0    0 -0.62219321437E+02  0.19732975009E+02 -0.17293503789E+04  0.17419857540E+04  0.19900000000E+03 0.  0.
<mgrwt>
<rscale>  0 0.49915085E+03</rscale>
<asrwt>0</asrwt>
<pdfrwt beam="1">  1        2 0.32120338E+00 0.49915085E+03</pdfrwt>
<pdfrwt beam="2">  1       -2 0.39575595E-02 0.49915085E+03</pdfrwt>
<totfact> 0.18378444E+03</totfact>
</mgrwt>
</event>
<event>
 4    1  0.4917371E-005  0.4452643E+03  0.7818608E-02  0.1029144E+00
          2   -1    0    0  501    0  0.00000000000E+00  0.00000000000E+00  0.12319949209E+04  0.12319949209E+04  0.25500000000E-02 0.  1.
         -2   -1    0    0    0  501 -0.00000000000E+00 -0.00000000000E+00 -0.40231559119E+02  0.40231559200E+02  0.25500000000E-02 0. -1.
    5000001    1    1    2    0    0  0.60037819572E+02  0.28780179924E+02  0.38338227615E+03  0.43705355301E+03  0.19900000000E+03 0.  0.
   -5000001    1    1    2    0    0 -0.60037819572E+02 -0.28780179924E+02  0.80838108562E+03  0.83517292708E+03  0.19900000000E+03 0.  0.
<mgrwt>
<rscale>  0 0.44526431E+03</rscale>
<asrwt>0</asrwt>
<pdfrwt beam="1">  1        2 0.17599923E+00 0.44526431E+03</pdfrwt>
<pdfrwt beam="2">  1       -2 0.57473672E-02 0.44526431E+03</pdfrwt>
<totfact> 0.34166061E+03</totfact>
</mgrwt>
</event>
<event>
 4    1  0.4917371E-005  0.5836566E+03  0.7818608E-02  0.9939906E-01
         -2   -1    0    0    0  501 -0.00000000000E+00  0.00000000000E+00  0.43493164388E+02  0.43493164463E+02  0.25500000000E-02 0. -1.
          2   -1    0    0  501    0  0.00000000000E+00 -0.00000000000E+00 -0.19580954840E+04  0.19580954840E+04  0.25500000000E-02 0.  1.
    5000001    1    1    2    0    0  0.13380036046E+03  0.13709943460E+03 -0.63442816794E+03  0.69195295483E+03  0.19900000000E+03 0.  0.
   -5000001    1    1    2    0    0 -0.13380036046E+03 -0.13709943460E+03 -0.12801741517E+04  0.13096356936E+04  0.19900000000E+03 0.  0.
<mgrwt>
<rscale>  0 0.58365664E+03</rscale>
<asrwt>0</asrwt>
<pdfrwt beam="1">  1        2 0.27972787E+00 0.58365664E+03</pdfrwt>
<pdfrwt beam="2">  1       -2 0.62133104E-02 0.58365664E+03</pdfrwt>
<totfact> 0.12726114E+03</totfact>
</mgrwt>
</event>
<event>
 4    1  0.4917371E-005  0.1180527E+04  0.7818608E-02  0.9130074E-01
          2   -1    0    0  501    0  0.00000000000E+00  0.00000000000E+00  0.50523644996E+03  0.50523644997E+03  0.25500000000E-02 0. -1.
         -2   -1    0    0    0  501 -0.00000000000E+00 -0.00000000000E+00 -0.68959983651E+03  0.68959983652E+03  0.25500000000E-02 0.  1.
    5000001    1    1    2    0    0 -0.29549624663E+03 -0.41995058259E+03  0.12283974378E+03  0.56424030895E+03  0.19900000000E+03 0.  0.
   -5000001    1    1    2    0    0  0.29549624663E+03  0.41995058259E+03 -0.30720313033E+03  0.63059597753E+03  0.19900000000E+03 0.  0.
<mgrwt>
<rscale>  0 0.11805270E+04</rscale>
<asrwt>0</asrwt>
<pdfrwt beam="1">  1        2 0.72176636E-01 0.11805270E+04</pdfrwt>
<pdfrwt beam="2">  1       -2 0.98514261E-01 0.11805270E+04</pdfrwt>
<totfact> 0.56158593E+01</totfact>
</mgrwt>
</event>
<event>
 4    1  0.4917371E-005  0.6609467E+03  0.7818608E-02  0.9786453E-01
          2   -1    0    0  501    0  0.00000000000E+00  0.00000000000E+00  0.24973648426E+03  0.24973648427E+03  0.25500000000E-02 0.  1.
         -2   -1    0    0    0  501 -0.00000000000E+00 -0.00000000000E+00 -0.43731152423E+03  0.43731152424E+03  0.25500000000E-02 0. -1.
    5000001    1    1    2    0    0 -0.15889438359E+03  0.20112556029E+03 -0.15880952762E+03  0.36127604709E+03  0.19900000000E+03 0.  0.
   -5000001    1    1    2    0    0  0.15889438359E+03 -0.20112556029E+03 -0.28765512351E+02  0.32577196141E+03  0.19900000000E+03 0.  0.
<mgrwt>
<rscale>  0 0.66094672E+03</rscale>
<asrwt>0</asrwt>
<pdfrwt beam="1">  1        2 0.35676641E-01 0.66094672E+03</pdfrwt>
<pdfrwt beam="2">  1       -2 0.62473075E-01 0.66094672E+03</pdfrwt>
<totfact> 0.35114429E+02</totfact>
</mgrwt>
</event>
<event>
 4    1  0.4917371E-005  0.4641435E+03  0.7818608E-02  0.1023586E+00
         -2   -1    0    0    0  501 -0.00000000000E+00  0.00000000000E+00  0.59466269645E+02  0.59466269699E+02  0.25500000000E-02 0. -1.
          2   -1    0    0  501    0  0.00000000000E+00 -0.00000000000E+00 -0.90567819418E+03  0.90567819419E+03  0.25500000000E-02 0.  1.
    5000001    1    1    2    0    0  0.71063783868E+02  0.95038474618E+02 -0.45052979468E+03  0.50661668836E+03  0.19900000000E+03 0.  0.
   -5000001    1    1    2    0    0 -0.71063783868E+02 -0.95038474618E+02 -0.39568212986E+03  0.45852777552E+03  0.19900000000E+03 0.  0.
<mgrwt>
<rscale>  0 0.46414353E+03</rscale>
<asrwt>0</asrwt>
<pdfrwt beam="1">  1        2 0.12938259E+00 0.46414353E+03</pdfrwt>
<pdfrwt beam="2">  1       -2 0.84951819E-02 0.46414353E+03</pdfrwt>
<totfact> 0.28745548E+03</totfact>
</mgrwt>
</event>
<event>
 4    1  0.4917371E-005  0.7307779E+03  0.7818608E-02  0.9665999E-01
          2   -1    0    0  501    0  0.00000000000E+00  0.00000000000E+00  0.71725257801E+03  0.71725257802E+03  0.25500000000E-02 0.  1.
         -2   -1    0    0    0  501 -0.00000000000E+00 -0.00000000000E+00 -0.18613957854E+03  0.18613957856E+03  0.25500000000E-02 0. -1.
    5000001    1    1    2    0    0 -0.30188953250E+03  0.86300655468E+01  0.32974792151E+03  0.48943483693E+03  0.19900000000E+03 0.  0.
   -5000001    1    1    2    0    0  0.30188953250E+03 -0.86300655468E+01  0.20136507797E+03  0.41395731964E+03  0.19900000000E+03 0.  0.
<mgrwt>
<rscale>  0 0.73077792E+03</rscale>
<asrwt>0</asrwt>
<pdfrwt beam="1">  1        2 0.10246465E+00 0.73077792E+03</pdfrwt>
<pdfrwt beam="2">  1       -2 0.26591368E-01 0.73077792E+03</pdfrwt>
<totfact> 0.56137405E+02</totfact>
</mgrwt>
</event>
<event>
 4    1  0.4917371E-005  0.1778119E+04  0.7818608E-02  0.8718023E-01
         -2   -1    0    0    0  501 -0.00000000000E+00  0.00000000000E+00  0.52804164252E+03  0.52804164253E+03  0.25500000000E-02 0. -1.
          2   -1    0    0  501    0  0.00000000000E+00 -0.00000000000E+00 -0.14969031394E+04  0.14969031394E+04  0.25500000000E-02 0.  1.
    5000001    1    1    2    0    0 -0.64252070217E+03  0.57850685185E+03 -0.55007973337E+03  0.10438830123E+04  0.19900000000E+03 0.  0.
   -5000001    1    1    2    0    0  0.64252070217E+03 -0.57850685185E+03 -0.41878176351E+03  0.98106176961E+03  0.19900000000E+03 0.  0.
<mgrwt>
<rscale>  0 0.17781194E+04</rscale>
<asrwt>0</asrwt>
<pdfrwt beam="1">  1        2 0.21384330E+00 0.17781194E+04</pdfrwt>
<pdfrwt beam="2">  1       -2 0.75434521E-01 0.17781194E+04</pdfrwt>
<totfact> 0.21942197E+01</totfact>
</mgrwt>
</event>
<event>
 4    1  0.4917371E-005  0.7148421E+03  0.7818608E-02  0.9692182E-01
         -2   -1    0    0    0  501 -0.00000000000E+00  0.00000000000E+00  0.17280547088E+03  0.17280547090E+03  0.25500000000E-02 0. -1.
          2   -1    0    0  501    0  0.00000000000E+00 -0.00000000000E+00 -0.73926938824E+03  0.73926938825E+03  0.25500000000E-02 0.  1.
    5000001    1    1    2    0    0  0.12031178496E+03 -0.24290475615E+03 -0.12868785448E+03  0.36005445429E+03  0.19900000000E+03 0.  0.
   -5000001    1    1    2    0    0 -0.12031178496E+03  0.24290475615E+03 -0.43777606288E+03  0.55202040487E+03  0.19900000000E+03 0.  0.
<mgrwt>
<rscale>  0 0.71484207E+03</rscale>
<asrwt>0</asrwt>
<pdfrwt beam="1">  1        2 0.10560991E+00 0.71484207E+03</pdfrwt>
<pdfrwt beam="2">  1       -2 0.24686496E-01 0.71484207E+03</pdfrwt>
<totfact> 0.61867815E+02</totfact>
</mgrwt>
</event>
<event>
 4    1  0.4917371E-005  0.7804814E+03  0.7818608E-02  0.9588707E-01
         -2   -1    0    0    0  501 -0.00000000000E+00  0.00000000000E+00  0.21252627661E+03  0.21252627663E+03  0.25500000000E-02 0. -1.
          2   -1    0    0  501    0  0.00000000000E+00 -0.00000000000E+00 -0.71655985066E+03  0.71655985067E+03  0.25500000000E-02 0.  1.
    5000001    1    1    2    0    0 -0.16873943008E+01  0.27417452200E+03 -0.21458803342E+02  0.33946427803E+03  0.19900000000E+03 0.  0.
   -5000001    1    1    2    0    0  0.16873943008E+01 -0.27417452200E+03 -0.48257477071E+03  0.58962184927E+03  0.19900000000E+03 0.  0.
<mgrwt>
<rscale>  0 0.78048138E+03</rscale>
<asrwt>0</asrwt>
<pdfrwt beam="1">  1        2 0.10236569E+00 0.78048138E+03</pdfrwt>
<pdfrwt beam="2">  1       -2 0.30360897E-01 0.78048138E+03</pdfrwt>
<totfact> 0.43975262E+02</totfact>
</mgrwt>
</event>
<event>
 4    1  0.4917371E-005  0.1936516E+04  0.7818608E-02  0.8636890E-01
          2   -1    0    0  501    0  0.00000000000E+00  0.00000000000E+00  0.35036816788E+04  0.35036816788E+04  0.25500000000E-02 0.  1.
         -2   -1    0    0    0  501 -0.00000000000E+00 -0.00000000000E+00 -0.26758252807E+03  0.26758252808E+03  0.25500000000E-02 0. -1.
    5000001    1    1    2    0    0 -0.38918899822E+03 -0.86059345019E+03  0.17667947761E+04  0.20132694662E+04  0.19900000000E+03 0.  0.
   -5000001    1    1    2    0    0  0.38918899822E+03  0.86059345019E+03  0.14693043747E+04  0.17579947407E+04  0.19900000000E+03 0.  0.
<mgrwt>
<rscale>  0 0.19365165E+04</rscale>
<asrwt>0</asrwt>
<pdfrwt beam="1">  1        2 0.50052596E+00 0.19365165E+04</pdfrwt>
<pdfrwt beam="2">  1       -2 0.38226075E-01 0.19365165E+04</pdfrwt>
<totfact> 0.72682341E+00</totfact>
</mgrwt>
</event>
<event>
 4    1  0.4917371E-005  0.1486087E+04  0.7818608E-02  0.8893758E-01
         -2   -1    0    0    0  501 -0.00000000000E+00  0.00000000000E+00  0.21155821024E+03  0.21155821026E+03  0.25500000000E-02 0. -1.
          2   -1    0    0  501    0  0.00000000000E+00 -0.00000000000E+00 -0.26097470432E+04  0.26097470432E+04  0.25500000000E-02 0.  1.
    5000001    1    1    2    0    0 -0.35744363642E+03  0.53519215304E+03 -0.60381942838E+03  0.90465214087E+03  0.19900000000E+03 0.  0.
   -5000001    1    1    2    0    0  0.35744363642E+03 -0.53519215304E+03 -0.17943694046E+04  0.19166531126E+04  0.19900000000E+03 0.  0.
<mgrwt>
<rscale>  0 0.14860867E+04</rscale>
<asrwt>0</asrwt>
<pdfrwt beam="1">  1        2 0.37282099E+00 0.14860867E+04</pdfrwt>
<pdfrwt beam="2">  1       -2 0.30222603E-01 0.14860867E+04</pdfrwt>
<totfact> 0.37841546E+01</totfact>
</mgrwt>
</event>
<event>
 4    1  0.4917371E-005  0.5185352E+03  0.7818608E-02  0.1009051E+00
         -2   -1    0    0    0  501 -0.00000000000E+00  0.00000000000E+00  0.31557808121E+02  0.31557808224E+02  0.25500000000E-02 0. -1.
          2   -1    0    0  501    0  0.00000000000E+00 -0.00000000000E+00 -0.21300493890E+04  0.21300493890E+04  0.25500000000E-02 0.  1.
    5000001    1    1    2    0    0 -0.24752206561E+02 -0.13865876551E+03 -0.68155583187E+03  0.72384962315E+03  0.19900000000E+03 0.  0.
   -5000001    1    1    2    0    0  0.24752206561E+02  0.13865876551E+03 -0.14169357490E+04  0.14377575741E+04  0.19900000000E+03 0.  0.
<mgrwt>
<rscale>  0 0.51853521E+03</rscale>
<asrwt>0</asrwt>
<pdfrwt beam="1">  1        2 0.30429268E+00 0.51853521E+03</pdfrwt>
<pdfrwt beam="2">  1       -2 0.45082597E-02 0.51853521E+03</pdfrwt>
<totfact> 0.17233536E+03</totfact>
</mgrwt>
</event>
<event>
 4    1  0.4917371E-005  0.4577132E+03  0.7818608E-02  0.1025447E+00
         -2   -1    0    0    0  501 -0.00000000000E+00  0.00000000000E+00  0.47850352917E+02  0.47850352985E+02  0.25500000000E-02 0. -1.
          2   -1    0    0  501    0  0.00000000000E+00 -0.00000000000E+00 -0.10945655859E+04  0.10945655859E+04  0.25500000000E-02 0.  1.
    5000001    1    1    2    0    0  0.94706349733E+02 -0.28861039616E+02 -0.38728764170E+03  0.44653663870E+03  0.19900000000E+03 0.  0.
   -5000001    1    1    2    0    0 -0.94706349733E+02  0.28861039616E+02 -0.65942759132E+03  0.69587930022E+03  0.19900000000E+03 0.  0.
<mgrwt>
<rscale>  0 0.45771323E+03</rscale>
<asrwt>0</asrwt>
<pdfrwt beam="1">  1        2 0.15636650E+00 0.45771323E+03</pdfrwt>
<pdfrwt beam="2">  1       -2 0.68357654E-02 0.45771323E+03</pdfrwt>
<totfact> 0.31145755E+03</totfact>
</mgrwt>
</event>
<event>
 4    1  0.4917371E-005  0.8679463E+03  0.7818608E-02  0.9466562E-01
          2   -1    0    0  501    0  0.00000000000E+00  0.00000000000E+00  0.31728385369E+04  0.31728385369E+04  0.25500000000E-02 0.  1.
         -2   -1    0    0    0  501 -0.00000000000E+00 -0.00000000000E+00 -0.59357799795E+02  0.59357799850E+02  0.25500000000E-02 0. -1.
    5000001    1    1    2    0    0 -0.64038915103E+02  0.31469550807E+03  0.23519382686E+04  0.23820891807E+04  0.19900000000E+03 0.  0.
   -5000001    1    1    2    0    0  0.64038915103E+02 -0.31469550807E+03  0.76154246846E+03  0.85010715602E+03  0.19900000000E+03 0.  0.
<mgrwt>
<rscale>  0 0.86794635E+03</rscale>
<asrwt>0</asrwt>
<pdfrwt beam="1">  1        2 0.45326279E+00 0.86794635E+03</pdfrwt>
<pdfrwt beam="2">  1       -2 0.84796830E-02 0.86794635E+03</pdfrwt>
<totfact> 0.17535518E+02</totfact>
</mgrwt>
</event>
<event>
 4    1  0.4917371E-005  0.1297767E+04  0.7818608E-02  0.9031338E-01
         -2   -1    0    0    0  501 -0.00000000000E+00  0.00000000000E+00  0.12898203992E+03  0.12898203994E+03  0.25500000000E-02 0. -1.
          2   -1    0    0  501    0  0.00000000000E+00 -0.00000000000E+00 -0.32644048364E+04  0.32644048364E+04  0.25500000000E-02 0.  1.
    5000001    1    1    2    0    0 -0.47280824860E+03 -0.36669021502E+03 -0.19680325407E+04  0.20665823079E+04  0.19900000000E+03 0.  0.
   -5000001    1    1    2    0    0  0.47280824860E+03  0.36669021502E+03 -0.11673902557E+04  0.13268045684E+04  0.19900000000E+03 0.  0.
<mgrwt>
<rscale>  0 0.12977667E+04</rscale>
<asrwt>0</asrwt>
<pdfrwt beam="1">  1        2 0.46634350E+00 0.12977667E+04</pdfrwt>
<pdfrwt beam="2">  1       -2 0.18426008E-01 0.12977667E+04</pdfrwt>
<totfact> 0.40775491E+01</totfact>
</mgrwt>
</event>
<event>
 4    1  0.4917371E-005  0.1087886E+04  0.7818608E-02  0.9217080E-01
          2   -1    0    0  501    0  0.00000000000E+00  0.00000000000E+00  0.32584637003E+03  0.32584637004E+03  0.25500000000E-02 0.  1.
         -2   -1    0    0    0  501 -0.00000000000E+00 -0.00000000000E+00 -0.90801630394E+03  0.90801630395E+03  0.25500000000E-02 0. -1.
    5000001    1    1    2    0    0  0.61757615579E+02  0.46580876224E+03 -0.77445466450E+02  0.51613041602E+03  0.19900000000E+03 0.  0.
   -5000001    1    1    2    0    0 -0.61757615579E+02 -0.46580876224E+03 -0.50472446747E+03  0.71773225796E+03  0.19900000000E+03 0.  0.
<mgrwt>
<rscale>  0 0.10878857E+04</rscale>
<asrwt>0</asrwt>
<pdfrwt beam="1">  1        2 0.46549482E-01 0.10878857E+04</pdfrwt>
<pdfrwt beam="2">  1       -2 0.12971661E+00 0.10878857E+04</pdfrwt>
<totfact> 0.47198585E+01</totfact>
</mgrwt>
</event>
<event>
 4    1  0.4917371E-005  0.4795772E+03  0.7818608E-02  0.1019251E+00
         -2   -1    0    0    0  501 -0.00000000000E+00  0.00000000000E+00  0.56990101664E+03  0.56990101665E+03  0.25500000000E-02 0. -1.
          2   -1    0    0  501    0  0.00000000000E+00 -0.00000000000E+00 -0.10089220937E+03  0.10089220940E+03  0.25500000000E-02 0.  1.
    5000001    1    1    2    0    0 -0.13142622232E+03 -0.10485706206E+02  0.26623929926E+03  0.35758518764E+03  0.19900000000E+03 0.  0.
   -5000001    1    1    2    0    0  0.13142622232E+03  0.10485706206E+02  0.20276950801E+03  0.31320803841E+03  0.19900000000E+03 0.  0.
<mgrwt>
<rscale>  0 0.47957720E+03</rscale>
<asrwt>0</asrwt>
<pdfrwt beam="1">  1        2 0.14413173E-01 0.47957720E+03</pdfrwt>
<pdfrwt beam="2">  1       -2 0.81414432E-01 0.47957720E+03</pdfrwt>
<totfact> 0.56372500E+02</totfact>
</mgrwt>
</event>
<event>
 4    1  0.4917371E-005  0.1297989E+04  0.7818608E-02  0.9031161E-01
          2   -1    0    0  501    0  0.00000000000E+00  0.00000000000E+00  0.11211199840E+04  0.11211199840E+04  0.25500000000E-02 0.  1.
         -2   -1    0    0    0  501 -0.00000000000E+00 -0.00000000000E+00 -0.37569034929E+03  0.37569034929E+03  0.25500000000E-02 0. -1.
    5000001    1    1    2    0    0  0.49106600673E+01 -0.52778273446E+03  0.74283632177E+03  0.93273014872E+03  0.19900000000E+03 0.  0.
   -5000001    1    1    2    0    0 -0.49106600673E+01  0.52778273446E+03  0.25933129533E+01  0.56408018459E+03  0.19900000000E+03 0.  0.
<mgrwt>
<rscale>  0 0.12979892E+04</rscale>
<asrwt>0</asrwt>
<pdfrwt beam="1">  1        2 0.16016000E+00 0.12979892E+04</pdfrwt>
<pdfrwt beam="2">  1       -2 0.53670050E-01 0.12979892E+04</pdfrwt>
<totfact> 0.76175150E+01</totfact>
</mgrwt>
</event>
<event>
 4    1  0.4917371E-005  0.4865184E+03  0.7818608E-02  0.1017359E+00
          2   -1    0    0  501    0  0.00000000000E+00  0.00000000000E+00  0.14071936280E+04  0.14071936280E+04  0.25500000000E-02 0.  1.
         -2   -1    0    0    0  501 -0.00000000000E+00 -0.00000000000E+00 -0.42051804906E+02  0.42051804983E+02  0.25500000000E-02 0. -1.
    5000001    1    1    2    0    0 -0.74215341431E+02 -0.11556155405E+03  0.60310633598E+03  0.64976968394E+03  0.19900000000E+03 0.  0.
   -5000001    1    1    2    0    0  0.74215341431E+02  0.11556155405E+03  0.76203548710E+03  0.79947574903E+03  0.19900000000E+03 0.  0.
<mgrwt>
<rscale>  0 0.48651837E+03</rscale>
<asrwt>0</asrwt>
<pdfrwt beam="1">  1        2 0.20102761E+00 0.48651837E+03</pdfrwt>
<pdfrwt beam="2">  1       -2 0.60074023E-02 0.48651837E+03</pdfrwt>
<totfact> 0.25685154E+03</totfact>
</mgrwt>
</event>
<event>
 4    1  0.4917371E-005  0.6831459E+03  0.7818608E-02  0.9746497E-01
          2   -1    0    0  501    0  0.00000000000E+00  0.00000000000E+00  0.10418761666E+04  0.10418761666E+04  0.25500000000E-02 0.  1.
         -2   -1    0    0    0  501 -0.00000000000E+00 -0.00000000000E+00 -0.11198266610E+03  0.11198266613E+03  0.25500000000E-02 0. -1.
    5000001    1    1    2    0    0 -0.23016329116E+03  0.80645529338E+02  0.68897338934E+03  0.75747222604E+03  0.19900000000E+03 0.  0.
   -5000001    1    1    2    0    0  0.23016329116E+03 -0.80645529338E+02  0.24092011115E+03  0.39638660668E+03  0.19900000000E+03 0.  0.
<mgrwt>
<rscale>  0 0.68314587E+03</rscale>
<asrwt>0</asrwt>
<pdfrwt beam="1">  1        2 0.14883945E+00 0.68314587E+03</pdfrwt>
<pdfrwt beam="2">  1       -2 0.15997524E-01 0.68314587E+03</pdfrwt>
<totfact> 0.83538079E+02</totfact>
</mgrwt>
</event>
<event>
 4    1  0.4917371E-005  0.5468545E+03  0.7818608E-02  0.1002225E+00
          2   -1    0    0  501    0  0.00000000000E+00  0.00000000000E+00  0.35045478166E+03  0.35045478167E+03  0.25500000000E-02 0.  1.
         -2   -1    0    0    0  501 -0.00000000000E+00 -0.00000000000E+00 -0.21332985894E+03  0.21332985896E+03  0.25500000000E-02 0. -1.
    5000001    1    1    2    0    0  0.83927112861E+01 -0.86521630381E+02  0.23985388108E+03  0.32355419082E+03  0.19900000000E+03 0.  0.
   -5000001    1    1    2    0    0 -0.83927112861E+01  0.86521630381E+02 -0.10272895837E+03  0.24023044981E+03  0.19900000000E+03 0.  0.
<mgrwt>
<rscale>  0 0.54685453E+03</rscale>
<asrwt>0</asrwt>
<pdfrwt beam="1">  1        2 0.50064969E-01 0.54685453E+03</pdfrwt>
<pdfrwt beam="2">  1       -2 0.30475694E-01 0.54685453E+03</pdfrwt>
<totfact> 0.99997191E+02</totfact>
</mgrwt>
</event>
<event>
 4    1  0.4917371E-005  0.4985490E+03  0.7818608E-02  0.1014158E+00
          2   -1    0    0  501    0  0.00000000000E+00  0.00000000000E+00  0.16414166898E+03  0.16414166900E+03  0.25500000000E-02 0.  1.
         -2   -1    0    0    0  501 -0.00000000000E+00 -0.00000000000E+00 -0.37856192375E+03  0.37856192375E+03  0.25500000000E-02 0. -1.
    5000001    1    1    2    0    0  0.12296275408E+03 -0.71910784635E+02 -0.55623277049E+02  0.25097001572E+03  0.19900000000E+03 0.  0.
   -5000001    1    1    2    0    0 -0.12296275408E+03  0.71910784635E+02 -0.15879697772E+03  0.29173357704E+03  0.19900000000E+03 0.  0.
<mgrwt>
<rscale>  0 0.49854904E+03</rscale>
<asrwt>0</asrwt>
<pdfrwt beam="1">  1        2 0.23448810E-01 0.49854904E+03</pdfrwt>
<pdfrwt beam="2">  1       -2 0.54080274E-01 0.49854904E+03</pdfrwt>
<totfact> 0.76349120E+02</totfact>
</mgrwt>
</event>
<event>
 4    1  0.4917371E-005  0.5919560E+03  0.7818608E-02  0.9922237E-01
          2   -1    0    0  501    0  0.00000000000E+00  0.00000000000E+00  0.19103947677E+03  0.19103947679E+03  0.25500000000E-02 0. -1.
         -2   -1    0    0    0  501 -0.00000000000E+00 -0.00000000000E+00 -0.45855949740E+03  0.45855949740E+03  0.25500000000E-02 0.  1.
    5000001    1    1    2    0    0  0.21708710357E+03 -0.15176388693E+01 -0.10133901023E+03  0.31144776249E+03  0.19900000000E+03 0.  0.
   -5000001    1    1    2    0    0 -0.21708710357E+03  0.15176388693E+01 -0.16618101039E+03  0.33815121171E+03  0.19900000000E+03 0.  0.
<mgrwt>
<rscale>  0 0.59195597E+03</rscale>
<asrwt>0</asrwt>
<pdfrwt beam="1">  1        2 0.27291354E-01 0.59195597E+03</pdfrwt>
<pdfrwt beam="2">  1       -2 0.65508499E-01 0.59195597E+03</pdfrwt>
<totfact> 0.42933568E+02</totfact>
</mgrwt>
</event>
<event>
 4    1  0.4917371E-005  0.7168353E+03  0.7818608E-02  0.9688867E-01
         -2   -1    0    0    0  501 -0.00000000000E+00  0.00000000000E+00  0.54580030299E+03  0.54580030299E+03  0.25500000000E-02 0. -1.
          2   -1    0    0  501    0  0.00000000000E+00 -0.00000000000E+00 -0.23536666676E+03  0.23536666678E+03  0.25500000000E-02 0.  1.
    5000001    1    1    2    0    0 -0.12058216381E+03  0.22199290738E+03 -0.17229072858E+02  0.32205395528E+03  0.19900000000E+03 0.  0.
   -5000001    1    1    2    0    0  0.12058216381E+03 -0.22199290738E+03  0.32766270908E+03  0.45911301450E+03  0.19900000000E+03 0.  0.
<mgrwt>
<rscale>  0 0.71683526E+03</rscale>
<asrwt>0</asrwt>
<pdfrwt beam="1">  1        2 0.33623810E-01 0.71683526E+03</pdfrwt>
<pdfrwt beam="2">  1       -2 0.77971471E-01 0.71683526E+03</pdfrwt>
<totfact> 0.23123397E+02</totfact>
</mgrwt>
</event>
<event>
 4    1  0.4917371E-005  0.5034968E+03  0.7818608E-02  0.1012870E+00
          2   -1    0    0  501    0  0.00000000000E+00  0.00000000000E+00  0.10996995554E+03  0.10996995557E+03  0.25500000000E-02 0.  1.
         -2   -1    0    0    0  501 -0.00000000000E+00 -0.00000000000E+00 -0.57631434574E+03  0.57631434575E+03  0.25500000000E-02 0. -1.
    5000001    1    1    2    0    0 -0.15773130983E+02 -0.15261921278E+03 -0.25406034804E+03  0.35733608301E+03  0.19900000000E+03 0.  0.
   -5000001    1    1    2    0    0  0.15773130983E+02  0.15261921278E+03 -0.21228404216E+03  0.32894821830E+03  0.19900000000E+03 0.  0.
<mgrwt>
<rscale>  0 0.50349682E+03</rscale>
<asrwt>0</asrwt>
<pdfrwt beam="1">  1        2 0.15709994E-01 0.50349682E+03</pdfrwt>
<pdfrwt beam="2">  1       -2 0.82330619E-01 0.50349682E+03</pdfrwt>
<totfact> 0.49546116E+02</totfact>
</mgrwt>
</event>
<event>
 4    1  0.4917371E-005  0.6806692E+03  0.7818608E-02  0.9750874E-01
         -2   -1    0    0    0  501 -0.00000000000E+00  0.00000000000E+00  0.91590664937E+03  0.91590664938E+03  0.25500000000E-02 0. -1.
          2   -1    0    0  501    0  0.00000000000E+00 -0.00000000000E+00 -0.12646226986E+03  0.12646226988E+03  0.25500000000E-02 0.  1.
    5000001    1    1    2    0    0 -0.75704460217E+02  0.26546240662E+03  0.40240653216E+03  0.52700424263E+03  0.19900000000E+03 0.  0.
   -5000001    1    1    2    0    0  0.75704460217E+02 -0.26546240662E+03  0.38703784736E+03  0.51536467663E+03  0.19900000000E+03 0.  0.
<mgrwt>
<rscale>  0 0.68066918E+03</rscale>
<asrwt>0</asrwt>
<pdfrwt beam="1">  1        2 0.18066038E-01 0.68066918E+03</pdfrwt>
<pdfrwt beam="2">  1       -2 0.13084381E+00 0.68066918E+03</pdfrwt>
<totfact> 0.13861444E+02</totfact>
</mgrwt>
</event>
<event>
 4    1  0.4917371E-005  0.6207424E+03  0.7818608E-02  0.9863283E-01
          2   -1    0    0  501    0  0.00000000000E+00  0.00000000000E+00  0.15254112317E+03  0.15254112320E+03  0.25500000000E-02 0.  1.
         -2   -1    0    0    0  501 -0.00000000000E+00 -0.00000000000E+00 -0.63150374087E+03  0.63150374088E+03  0.25500000000E-02 0. -1.
    5000001    1    1    2    0    0 -0.23403028948E+03  0.44142947366E+02 -0.24357681891E+03  0.39452432486E+03  0.19900000000E+03 0.  0.
   -5000001    1    1    2    0    0  0.23403028948E+03 -0.44142947366E+02 -0.23538579878E+03  0.38952053921E+03  0.19900000000E+03 0.  0.
<mgrwt>
<rscale>  0 0.62074243E+03</rscale>
<asrwt>0</asrwt>
<pdfrwt beam="1">  1        2 0.21791589E-01 0.62074243E+03</pdfrwt>
<pdfrwt beam="2">  1       -2 0.90214819E-01 0.62074243E+03</pdfrwt>
<totfact> 0.27300010E+02</totfact>
</mgrwt>
</event>
<event>
 4    1  0.4917371E-005  0.7392164E+03  0.7818608E-02  0.9652422E-01
         -2   -1    0    0    0  501 -0.00000000000E+00  0.00000000000E+00  0.13850592555E+03  0.13850592558E+03  0.25500000000E-02 0. -1.
          2   -1    0    0  501    0  0.00000000000E+00 -0.00000000000E+00 -0.98631310812E+03  0.98631310813E+03  0.25500000000E-02 0.  1.
    5000001    1    1    2    0    0 -0.23450838150E+03 -0.12085818868E+03 -0.67581761607E+03  0.75228407729E+03  0.19900000000E+03 0.  0.
   -5000001    1    1    2    0    0  0.23450838150E+03  0.12085818868E+03 -0.17198956650E+03  0.37253495641E+03  0.19900000000E+03 0.  0.
<mgrwt>
<rscale>  0 0.73921637E+03</rscale>
<asrwt>0</asrwt>
<pdfrwt beam="1">  1        2 0.14090187E+00 0.73921637E+03</pdfrwt>
<pdfrwt beam="2">  1       -2 0.19786561E-01 0.73921637E+03</pdfrwt>
<totfact> 0.62506306E+02</totfact>
</mgrwt>
</event>
<event>
 4    1  0.4917371E-005  0.7769468E+03  0.7818608E-02  0.9593998E-01
         -2   -1    0    0    0  501 -0.00000000000E+00  0.00000000000E+00  0.71684206925E+02  0.71684206970E+02  0.25500000000E-02 0. -1.
          2   -1    0    0  501    0  0.00000000000E+00 -0.00000000000E+00 -0.21052276112E+04  0.21052276112E+04  0.25500000000E-02 0.  1.
    5000001    1    1    2    0    0  0.31688669217E+03 -0.19783055122E+01 -0.72438798116E+03  0.81532817725E+03  0.19900000000E+03 0.  0.
   -5000001    1    1    2    0    0 -0.31688669217E+03  0.19783055122E+01 -0.13091554231E+04  0.13615836409E+04  0.19900000000E+03 0.  0.
<mgrwt>
<rscale>  0 0.77694677E+03</rscale>
<asrwt>0</asrwt>
<pdfrwt beam="1">  1        2 0.30074676E+00 0.77694677E+03</pdfrwt>
<pdfrwt beam="2">  1       -2 0.10240602E-01 0.77694677E+03</pdfrwt>
<totfact> 0.47708003E+02</totfact>
</mgrwt>
</event>
<event>
 4    1  0.4917371E-005  0.5433199E+03  0.7818608E-02  0.1003052E+00
          2   -1    0    0  501    0  0.00000000000E+00  0.00000000000E+00  0.10588974312E+04  0.10588974312E+04  0.25500000000E-02 0.  1.
         -2   -1    0    0    0  501 -0.00000000000E+00 -0.00000000000E+00 -0.69694308877E+02  0.69694308924E+02  0.25500000000E-02 0. -1.
    5000001    1    1    2    0    0 -0.38403355119E+01 -0.92825873734E+02  0.82673980880E+03  0.85541282576E+03  0.19900000000E+03 0.  0.
   -5000001    1    1    2    0    0  0.38403355119E+01  0.92825873734E+02  0.16246331350E+03  0.27317891435E+03  0.19900000000E+03 0.  0.
<mgrwt>
<rscale>  0 0.54331989E+03</rscale>
<asrwt>0</asrwt>
<pdfrwt beam="1">  1        2 0.15127105E+00 0.54331989E+03</pdfrwt>
<pdfrwt beam="2">  1       -2 0.99563306E-02 0.54331989E+03</pdfrwt>
<totfact> 0.17955854E+03</totfact>
</mgrwt>
</event>
<event>
 4    1  0.4917371E-005  0.5233284E+03  0.7818608E-02  0.1007863E+00
          2   -1    0    0  501    0  0.00000000000E+00  0.00000000000E+00  0.32731155166E+03  0.32731155167E+03  0.25500000000E-02 0.  1.
         -2   -1    0    0    0  501 -0.00000000000E+00 -0.00000000000E+00 -0.20918339180E+03  0.20918339182E+03  0.25500000000E-02 0. -1.
    5000001    1    1    2    0    0  0.10893185196E+03  0.13017832144E+03  0.51489212664E+02  0.26657959930E+03  0.19900000000E+03 0.  0.
   -5000001    1    1    2    0    0 -0.10893185196E+03 -0.13017832144E+03  0.66638947195E+02  0.26991534419E+03  0.19900000000E+03 0.  0.
<mgrwt>
<rscale>  0 0.52332835E+03</rscale>
<asrwt>0</asrwt>
<pdfrwt beam="1">  1        2 0.46758793E-01 0.52332835E+03</pdfrwt>
<pdfrwt beam="2">  1       -2 0.29883342E-01 0.52332835E+03</pdfrwt>
<totfact> 0.11178838E+03</totfact>
</mgrwt>
</event>
<event>
 4    1  0.4917371E-005  0.9707376E+03  0.7818608E-02  0.9341235E-01
         -2   -1    0    0    0  501 -0.00000000000E+00  0.00000000000E+00  0.26754438865E+03  0.26754438867E+03  0.25500000000E-02 0. -1.
          2   -1    0    0  501    0  0.00000000000E+00 -0.00000000000E+00 -0.88053759348E+03  0.88053759349E+03  0.25500000000E-02 0.  1.
    5000001    1    1    2    0    0  0.43040074238E+03  0.92158093699E+02 -0.25047178981E+03  0.54412777063E+03  0.19900000000E+03 0.  0.
   -5000001    1    1    2    0    0 -0.43040074238E+03 -0.92158093699E+02 -0.36252141501E+03  0.60395421152E+03  0.19900000000E+03 0.  0.
<mgrwt>
<rscale>  0 0.97073764E+03</rscale>
<asrwt>0</asrwt>
<pdfrwt beam="1">  1        2 0.12579108E+00 0.97073764E+03</pdfrwt>
<pdfrwt beam="2">  1       -2 0.38220627E-01 0.97073764E+03</pdfrwt>
<totfact> 0.21605046E+02</totfact>
</mgrwt>
</event>
<event>
 4    1  0.4917371E-005  0.9247241E+03  0.7818608E-02  0.9395192E-01
          2   -1    0    0  501    0  0.00000000000E+00  0.00000000000E+00  0.45230011566E+04  0.45230011566E+04  0.25500000000E-02 0.  1.
         -2   -1    0    0    0  501 -0.00000000000E+00 -0.00000000000E+00 -0.47264779569E+02  0.47264779638E+02  0.25500000000E-02 0. -1.
    5000001    1    1    2    0    0 -0.28192489046E+02  0.37397780844E+03  0.13329619851E+04  0.13989434840E+04  0.19900000000E+03 0.  0.
   -5000001    1    1    2    0    0  0.28192489046E+02 -0.37397780844E+03  0.31427743919E+04  0.31713224522E+04  0.19900000000E+03 0.  0.
<mgrwt>
<rscale>  0 0.92472407E+03</rscale>
<asrwt>0</asrwt>
<pdfrwt beam="1">  1        2 0.64614323E+00 0.92472407E+03</pdfrwt>
<pdfrwt beam="2">  1       -2 0.67521092E-02 0.92472407E+03</pdfrwt>
<totfact> 0.32444010E+01</totfact>
</mgrwt>
</event>
<event>
 4    1  0.4917371E-005  0.4767159E+03  0.7818608E-02  0.1020042E+00
         -2   -1    0    0    0  501 -0.00000000000E+00  0.00000000000E+00  0.58530709790E+03  0.58530709790E+03  0.25500000000E-02 0. -1.
          2   -1    0    0  501    0  0.00000000000E+00 -0.00000000000E+00 -0.97067856049E+02  0.97067856083E+02  0.25500000000E-02 0.  1.
    5000001    1    1    2    0    0 -0.12883829362E+03  0.16735084783E+02  0.27028489050E+03  0.35990872593E+03  0.19900000000E+03 0.  0.
   -5000001    1    1    2    0    0  0.12883829362E+03 -0.16735084783E+02  0.21795435135E+03  0.32246622806E+03  0.19900000000E+03 0.  0.
<mgrwt>
<rscale>  0 0.47671587E+03</rscale>
<asrwt>0</asrwt>
<pdfrwt beam="1">  1        2 0.13866837E-01 0.47671587E+03</pdfrwt>
<pdfrwt beam="2">  1       -2 0.83615300E-01 0.47671587E+03</pdfrwt>
<totfact> 0.55645761E+02</totfact>
</mgrwt>
</event>
<event>
 4    1  0.4917371E-005  0.4887609E+03  0.7818608E-02  0.1016755E+00
         -2   -1    0    0    0  501 -0.00000000000E+00  0.00000000000E+00  0.13901323735E+02  0.13901323969E+02  0.25500000000E-02 0. -1.
          2   -1    0    0  501    0  0.00000000000E+00 -0.00000000000E+00 -0.42961239442E+04  0.42961239442E+04  0.25500000000E-02 0.  1.
    5000001    1    1    2    0    0 -0.13622581303E+03 -0.28303090829E+02 -0.23845774986E+04  0.23969082969E+04  0.19900000000E+03 0.  0.
   -5000001    1    1    2    0    0  0.13622581303E+03  0.28303090829E+02 -0.18976451219E+04  0.19131169713E+04  0.19900000000E+03 0.  0.
<mgrwt>
<rscale>  0 0.48876092E+03</rscale>
<asrwt>0</asrwt>
<pdfrwt beam="1">  1        2 0.61373114E+00 0.48876092E+03</pdfrwt>
<pdfrwt beam="2">  1       -2 0.19859062E-02 0.48876092E+03</pdfrwt>
<totfact> 0.33823850E+02</totfact>
</mgrwt>
</event>
<event>
 4    1  0.4917371E-005  0.8460362E+03  0.7818608E-02  0.9495673E-01
         -2   -1    0    0    0  501 -0.00000000000E+00  0.00000000000E+00  0.14667936823E+03  0.14667936825E+03  0.25500000000E-02 0. -1.
          2   -1    0    0  501    0  0.00000000000E+00 -0.00000000000E+00 -0.12199690770E+04  0.12199690770E+04  0.25500000000E-02 0.  1.
    5000001    1    1    2    0    0 -0.33553253077E+03 -0.15081953232E+03 -0.63899619057E+03  0.76370527175E+03  0.19900000000E+03 0.  0.
   -5000001    1    1    2    0    0  0.33553253077E+03  0.15081953232E+03 -0.43429351822E+03  0.60294317353E+03  0.19900000000E+03 0.  0.
<mgrwt>
<rscale>  0 0.84603615E+03</rscale>
<asrwt>0</asrwt>
<pdfrwt beam="1">  1        2 0.17428129E+00 0.84603615E+03</pdfrwt>
<pdfrwt beam="2">  1       -2 0.20954196E-01 0.84603615E+03</pdfrwt>
<totfact> 0.41015647E+02</totfact>
</mgrwt>
</event>
<event>
 4    1  0.4917371E-005  0.7147077E+03  0.7818608E-02  0.9692406E-01
         -2   -1    0    0    0  501 -0.00000000000E+00  0.00000000000E+00  0.78064681169E+02  0.78064681211E+02  0.25500000000E-02 0. -1.
          2   -1    0    0  501    0  0.00000000000E+00 -0.00000000000E+00 -0.16358455628E+04  0.16358455628E+04  0.25500000000E-02 0.  1.
    5000001    1    1    2    0    0  0.12155920526E+03 -0.11213100653E+03 -0.13699557750E+04  0.13941771152E+04  0.19900000000E+03 0.  0.
   -5000001    1    1    2    0    0 -0.12155920526E+03  0.11213100653E+03 -0.18782510667E+03  0.31973312888E+03  0.19900000000E+03 0.  0.
<mgrwt>
<rscale>  0 0.71470767E+03</rscale>
<asrwt>0</asrwt>
<pdfrwt beam="1">  1        2 0.23369220E+00 0.71470767E+03</pdfrwt>
<pdfrwt beam="2">  1       -2 0.11152098E-01 0.71470767E+03</pdfrwt>
<totfact> 0.72143275E+02</totfact>
</mgrwt>
</event>
<event>
 4    1  0.4917371E-005  0.4416951E+03  0.7818608E-02  0.1030228E+00
         -2   -1    0    0    0  501 -0.00000000000E+00  0.00000000000E+00  0.52124267159E+02  0.52124267221E+02  0.25500000000E-02 0.  1.
          2   -1    0    0  501    0  0.00000000000E+00 -0.00000000000E+00 -0.93571869598E+03  0.93571869599E+03  0.25500000000E-02 0. -1.
    5000001    1    1    2    0    0  0.79389756686E+02  0.42062516475E+02 -0.36759918370E+03  0.42755367922E+03  0.19900000000E+03 0.  0.
   -5000001    1    1    2    0    0 -0.79389756686E+02 -0.42062516475E+02 -0.51599524512E+03  0.56028928398E+03  0.19900000000E+03 0.  0.
<mgrwt>
<rscale>  0 0.44169515E+03</rscale>
<asrwt>0</asrwt>
<pdfrwt beam="1">  1        2 0.13367409E+00 0.44169515E+03</pdfrwt>
<pdfrwt beam="2">  1       -2 0.74463245E-02 0.44169515E+03</pdfrwt>
<totfact> 0.33890047E+03</totfact>
</mgrwt>
</event>
<event>
 4    1  0.4917371E-005  0.7482165E+03  0.7818608E-02  0.9638153E-01
          2   -1    0    0  501    0  0.00000000000E+00  0.00000000000E+00  0.15579382953E+04  0.15579382953E+04  0.25500000000E-02 0. -1.
         -2   -1    0    0    0  501 -0.00000000000E+00 -0.00000000000E+00 -0.89834737744E+02  0.89834737780E+02  0.25500000000E-02 0.  1.
    5000001    1    1    2    0    0 -0.30054340447E+03  0.25445065326E+01  0.95453349080E+03  0.10203273972E+04  0.19900000000E+03 0.  0.
   -5000001    1    1    2    0    0  0.30054340447E+03 -0.25445065326E+01  0.51357006679E+03  0.62744563588E+03  0.19900000000E+03 0.  0.
<mgrwt>
<rscale>  0 0.74821649E+03</rscale>
<asrwt>0</asrwt>
<pdfrwt beam="1">  1        2 0.22256263E+00 0.74821649E+03</pdfrwt>
<pdfrwt beam="2">  1       -2 0.12833533E-01 0.74821649E+03</pdfrwt>
<totfact> 0.62666260E+02</totfact>
</mgrwt>
</event>
<event>
 4    1  0.4917371E-005  0.4406066E+03  0.7818608E-02  0.1030561E+00
          2   -1    0    0  501    0  0.00000000000E+00  0.00000000000E+00  0.14884125756E+04  0.14884125756E+04  0.25500000000E-02 0.  1.
         -2   -1    0    0    0  501 -0.00000000000E+00 -0.00000000000E+00 -0.32607589068E+02  0.32607589168E+02  0.25500000000E-02 0. -1.
    5000001    1    1    2    0    0  0.79913190653E+02  0.36071366248E+02  0.60608260266E+03  0.64391333481E+03  0.19900000000E+03 0.  0.
   -5000001    1    1    2    0    0 -0.79913190653E+02 -0.36071366248E+02  0.84972238387E+03  0.87710682995E+03  0.19900000000E+03 0.  0.
<mgrwt>
<rscale>  0 0.44060661E+03</rscale>
<asrwt>0</asrwt>
<pdfrwt beam="1">  1        2 0.21263035E+00 0.44060661E+03</pdfrwt>
<pdfrwt beam="2">  1       -2 0.46582275E-02 0.44060661E+03</pdfrwt>
<totfact> 0.34542273E+03</totfact>
</mgrwt>
</event>
<event>
 4    1  0.4917371E-005  0.5647244E+03  0.7818608E-02  0.9981421E-01
         -2   -1    0    0    0  501 -0.00000000000E+00  0.00000000000E+00  0.75152986240E+02  0.75152986284E+02  0.25500000000E-02 0. -1.
          2   -1    0    0  501    0  0.00000000000E+00 -0.00000000000E+00 -0.10608815696E+04  0.10608815696E+04  0.25500000000E-02 0.  1.
    5000001    1    1    2    0    0 -0.15304034498E+03  0.10972005827E+03 -0.35542818565E+03  0.44876500926E+03  0.19900000000E+03 0.  0.
   -5000001    1    1    2    0    0  0.15304034498E+03 -0.10972005827E+03 -0.63030039775E+03  0.68726954667E+03  0.19900000000E+03 0.  0.
<mgrwt>
<rscale>  0 0.56472442E+03</rscale>
<asrwt>0</asrwt>
<pdfrwt beam="1">  1        2 0.15155450E+00 0.56472442E+03</pdfrwt>
<pdfrwt beam="2">  1       -2 0.10736142E-01 0.56472442E+03</pdfrwt>
<totfact> 0.15840352E+03</totfact>
</mgrwt>
</event>
<event>
 4    1  0.4917371E-005  0.6253588E+03  0.7818608E-02  0.9854148E-01
         -2   -1    0    0    0  501 -0.00000000000E+00  0.00000000000E+00  0.77122242767E+02  0.77122242809E+02  0.25500000000E-02 0. -1.
          2   -1    0    0  501    0  0.00000000000E+00 -0.00000000000E+00 -0.12677068077E+04  0.12677068077E+04  0.25500000000E-02 0.  1.
    5000001    1    1    2    0    0 -0.14435556259E+03 -0.17342489595E+03 -0.77843379022E+03  0.83455071070E+03  0.19900000000E+03 0.  0.
   -5000001    1    1    2    0    0  0.14435556259E+03  0.17342489595E+03 -0.41215077476E+03  0.51027833985E+03  0.19900000000E+03 0.  0.
<mgrwt>
<rscale>  0 0.62535875E+03</rscale>
<asrwt>0</asrwt>
<pdfrwt beam="1">  1        2 0.18110096E+00 0.62535875E+03</pdfrwt>
<pdfrwt beam="2">  1       -2 0.11017464E-01 0.62535875E+03</pdfrwt>
<totfact> 0.11568474E+03</totfact>
</mgrwt>
</event>
<event>
 4    1  0.4917371E-005  0.6845597E+03  0.7818608E-02  0.9744008E-01
          2   -1    0    0  501    0  0.00000000000E+00  0.00000000000E+00  0.89663361614E+03  0.89663361614E+03  0.25500000000E-02 0. -1.
         -2   -1    0    0    0  501 -0.00000000000E+00 -0.00000000000E+00 -0.13066149608E+03  0.13066149611E+03  0.25500000000E-02 0.  1.
    5000001    1    1    2    0    0  0.45017450439E+02 -0.27420209472E+03  0.35526920478E+03  0.49298130538E+03  0.19900000000E+03 0.  0.
   -5000001    1    1    2    0    0 -0.45017450439E+02  0.27420209472E+03  0.41070291528E+03  0.53431380687E+03  0.19900000000E+03 0.  0.
<mgrwt>
<rscale>  0 0.68455968E+03</rscale>
<asrwt>0</asrwt>
<pdfrwt beam="1">  1        2 0.12809052E+00 0.68455968E+03</pdfrwt>
<pdfrwt beam="2">  1       -2 0.18665928E-01 0.68455968E+03</pdfrwt>
<totfact> 0.78977343E+02</totfact>
</mgrwt>
</event>
<event>
 4    1  0.4917371E-005  0.8582150E+03  0.7818608E-02  0.9479377E-01
          2   -1    0    0  501    0  0.00000000000E+00  0.00000000000E+00  0.62432270297E+03  0.62432270297E+03  0.25500000000E-02 0. -1.
         -2   -1    0    0    0  501 -0.00000000000E+00 -0.00000000000E+00 -0.29493281602E+03  0.29493281603E+03  0.25500000000E-02 0.  1.
    5000001    1    1    2    0    0  0.66376215719E+02 -0.35126361472E+03  0.26108080135E+02  0.40996897552E+03  0.19900000000E+03 0.  0.
   -5000001    1    1    2    0    0 -0.66376215719E+02  0.35126361472E+03  0.30328180681E+03  0.50928654349E+03  0.19900000000E+03 0.  0.
<mgrwt>
<rscale>  0 0.85821501E+03</rscale>
<asrwt>0</asrwt>
<pdfrwt beam="1">  1        2 0.89188957E-01 0.85821501E+03</pdfrwt>
<pdfrwt beam="2">  1       -2 0.42133260E-01 0.85821501E+03</pdfrwt>
<totfact> 0.27717918E+02</totfact>
</mgrwt>
</event>
<event>
 4    1  0.4917371E-005  0.6525795E+03  0.7818608E-02  0.9801951E-01
         -2   -1    0    0    0  501 -0.00000000000E+00  0.00000000000E+00  0.23408001682E+03  0.23408001683E+03  0.25500000000E-02 0. -1.
          2   -1    0    0  501    0  0.00000000000E+00 -0.00000000000E+00 -0.45482311374E+03  0.45482311375E+03  0.25500000000E-02 0.  1.
    5000001    1    1    2    0    0  0.48848821509E+02  0.23655536038E+03 -0.20780949399E+03  0.37567330446E+03  0.19900000000E+03 0.  0.
   -5000001    1    1    2    0    0 -0.48848821509E+02 -0.23655536038E+03 -0.12933602934E+02  0.31322982613E+03  0.19900000000E+03 0.  0.
<mgrwt>
<rscale>  0 0.65257950E+03</rscale>
<asrwt>0</asrwt>
<pdfrwt beam="1">  1        2 0.64974730E-01 0.65257950E+03</pdfrwt>
<pdfrwt beam="2">  1       -2 0.33440003E-01 0.65257950E+03</pdfrwt>
<totfact> 0.62839325E+02</totfact>
</mgrwt>
</event>
<event>
 4    1  0.4917371E-005  0.4827210E+03  0.7818608E-02  0.1018390E+00
          2   -1    0    0  501    0  0.00000000000E+00  0.00000000000E+00  0.27867972533E+02  0.27867972650E+02  0.25500000000E-02 0.  1.
         -2   -1    0    0    0  501 -0.00000000000E+00 -0.00000000000E+00 -0.20903884624E+04  0.20903884624E+04  0.25500000000E-02 0. -1.
    5000001    1    1    2    0    0 -0.41899574812E+01  0.13240861506E+03 -0.88543786727E+03  0.91714274455E+03  0.19900000000E+03 0.  0.
   -5000001    1    1    2    0    0  0.41899574812E+01 -0.13240861506E+03 -0.11770826226E+04  0.12011136905E+04  0.19900000000E+03 0.  0.
<mgrwt>
<rscale>  0 0.48272099E+03</rscale>
<asrwt>0</asrwt>
<pdfrwt beam="1">  1        2 0.39811403E-02 0.48272099E+03</pdfrwt>
<pdfrwt beam="2">  1       -2 0.29862682E+00 0.48272099E+03</pdfrwt>
<totfact> 0.77877318E+01</totfact>
</mgrwt>
</event>
<event>
 4    1  0.4917371E-005  0.6372413E+03  0.7818608E-02  0.9831019E-01
          2   -1    0    0  501    0  0.00000000000E+00  0.00000000000E+00  0.45692639323E+03  0.45692639324E+03  0.25500000000E-02 0.  1.
         -2   -1    0    0    0  501 -0.00000000000E+00 -0.00000000000E+00 -0.22217829159E+03  0.22217829160E+03  0.25500000000E-02 0. -1.
    5000001    1    1    2    0    0  0.18092464989E+03  0.25722579326E+02 -0.62607694804E+02  0.27733752627E+03  0.19900000000E+03 0.  0.
   -5000001    1    1    2    0    0 -0.18092464989E+03 -0.25722579326E+02  0.29735579645E+03  0.40176715857E+03  0.19900000000E+03 0.  0.
<mgrwt>
<rscale>  0 0.63724132E+03</rscale>
<asrwt>0</asrwt>
<pdfrwt beam="1">  1        2 0.65275198E-01 0.63724132E+03</pdfrwt>
<pdfrwt beam="2">  1       -2 0.31739757E-01 0.63724132E+03</pdfrwt>
<totfact> 0.68958968E+02</totfact>
</mgrwt>
</event>
<event>
 4    1  0.4917371E-005  0.5146622E+03  0.7818608E-02  0.1010021E+00
         -2   -1    0    0    0  501 -0.00000000000E+00  0.00000000000E+00  0.40863188701E+02  0.40863188781E+02  0.25500000000E-02 0. -1.
          2   -1    0    0  501    0  0.00000000000E+00 -0.00000000000E+00 -0.16205119281E+04  0.16205119281E+04  0.25500000000E-02 0.  1.
    5000001    1    1    2    0    0 -0.13829615276E+03 -0.63504677804E+02 -0.97969567521E+03  0.10112187132E+04  0.19900000000E+03 0.  0.
   -5000001    1    1    2    0    0  0.13829615276E+03  0.63504677804E+02 -0.59995306414E+03  0.65015640360E+03  0.19900000000E+03 0.  0.
<mgrwt>
<rscale>  0 0.51466216E+03</rscale>
<asrwt>0</asrwt>
<pdfrwt beam="1">  1        2 0.23150166E+00 0.51466216E+03</pdfrwt>
<pdfrwt beam="2">  1       -2 0.58375994E-02 0.51466216E+03</pdfrwt>
<totfact> 0.20822481E+03</totfact>
</mgrwt>
</event>
<event>
 4    1  0.4917371E-005  0.6255476E+03  0.7818608E-02  0.9853776E-01
         -2   -1    0    0    0  501 -0.00000000000E+00  0.00000000000E+00  0.95341934681E+02  0.95341934715E+02  0.25500000000E-02 0. -1.
          2   -1    0    0  501    0  0.00000000000E+00 -0.00000000000E+00 -0.10260695814E+04  0.10260695814E+04  0.25500000000E-02 0.  1.
    5000001    1    1    2    0    0 -0.76691076613E+02  0.22571051724E+03 -0.39829477524E+03  0.50504107438E+03  0.19900000000E+03 0.  0.
   -5000001    1    1    2    0    0  0.76691076613E+02 -0.22571051724E+03 -0.53243287148E+03  0.61637044175E+03  0.19900000000E+03 0.  0.
<mgrwt>
<rscale>  0 0.62554763E+03</rscale>
<asrwt>0</asrwt>
<pdfrwt beam="1">  1        2 0.14658136E+00 0.62554763E+03</pdfrwt>
<pdfrwt beam="2">  1       -2 0.13620277E-01 0.62554763E+03</pdfrwt>
<totfact> 0.11213103E+03</totfact>
</mgrwt>
</event>
<event>
 4    1  0.4917371E-005  0.4411221E+03  0.7818608E-02  0.1030403E+00
          2   -1    0    0  501    0  0.00000000000E+00  0.00000000000E+00  0.18702527607E+04  0.18702527607E+04  0.25500000000E-02 0.  1.
         -2   -1    0    0    0  501 -0.00000000000E+00 -0.00000000000E+00 -0.26011019266E+02  0.26011019391E+02  0.25500000000E-02 0. -1.
    5000001    1    1    2    0    0  0.36745682653E+02 -0.87712945729E+02  0.92874519413E+03  0.95457448198E+03  0.19900000000E+03 0.  0.
   -5000001    1    1    2    0    0 -0.36745682653E+02  0.87712945729E+02  0.91549654733E+03  0.94168929814E+03  0.19900000000E+03 0.  0.
<mgrwt>
<rscale>  0 0.44112212E+03</rscale>
<asrwt>0</asrwt>
<pdfrwt beam="1">  1        2 0.26717897E+00 0.44112212E+03</pdfrwt>
<pdfrwt beam="2">  1       -2 0.37158598E-02 0.44112212E+03</pdfrwt>
<totfact> 0.31298539E+03</totfact>
</mgrwt>
</event>
<event>
 4    1  0.4917371E-005  0.6701511E+03  0.7818608E-02  0.9769685E-01
          2   -1    0    0  501    0  0.00000000000E+00  0.00000000000E+00  0.36026266789E+04  0.36026266789E+04  0.25500000000E-02 0.  1.
         -2   -1    0    0    0  501 -0.00000000000E+00 -0.00000000000E+00 -0.31164932110E+02  0.31164932214E+02  0.25500000000E-02 0. -1.
    5000001    1    1    2    0    0 -0.21394490679E+03 -0.98662159728E+02  0.24962025781E+04  0.25151808992E+04  0.19900000000E+03 0.  0.
   -5000001    1    1    2    0    0  0.21394490679E+03  0.98662159728E+02  0.10752591687E+04  0.11186107119E+04  0.19900000000E+03 0.  0.
<mgrwt>
<rscale>  0 0.67015108E+03</rscale>
<asrwt>0</asrwt>
<pdfrwt beam="1">  1        2 0.51466094E+00 0.67015108E+03</pdfrwt>
<pdfrwt beam="2">  1       -2 0.44521333E-02 0.67015108E+03</pdfrwt>
<totfact> 0.27729733E+02</totfact>
</mgrwt>
</event>
<event>
 4    1  0.4917371E-005  0.1407523E+04  0.7818608E-02  0.8948391E-01
         -2   -1    0    0    0  501 -0.00000000000E+00  0.00000000000E+00  0.20785569837E+03  0.20785569838E+03  0.25500000000E-02 0. -1.
          2   -1    0    0  501    0  0.00000000000E+00 -0.00000000000E+00 -0.23828086508E+04  0.23828086508E+04  0.25500000000E-02 0.  1.
    5000001    1    1    2    0    0 -0.35528844974E+03 -0.44163590478E+03 -0.41268922258E+03  0.72882477273E+03  0.19900000000E+03 0.  0.
   -5000001    1    1    2    0    0  0.35528844974E+03  0.44163590478E+03 -0.17622637299E+04  0.18618395765E+04  0.19900000000E+03 0.  0.
<mgrwt>
<rscale>  0 0.14075232E+04</rscale>
<asrwt>0</asrwt>
<pdfrwt beam="1">  1        2 0.34040122E+00 0.14075232E+04</pdfrwt>
<pdfrwt beam="2">  1       -2 0.29693673E-01 0.14075232E+04</pdfrwt>
<totfact> 0.51786509E+01</totfact>
</mgrwt>
</event>
<event>
 4    1  0.4917371E-005  0.8316763E+03  0.7818608E-02  0.9515266E-01
         -2   -1    0    0    0  501 -0.00000000000E+00  0.00000000000E+00  0.11288990886E+03  0.11288990889E+03  0.25500000000E-02 0. -1.
          2   -1    0    0  501    0  0.00000000000E+00 -0.00000000000E+00 -0.15317700275E+04  0.15317700275E+04  0.25500000000E-02 0.  1.
    5000001    1    1    2    0    0  0.15725881493E+03 -0.88418371852E+02 -0.13371980060E+04  0.13639089598E+04  0.19900000000E+03 0.  0.
   -5000001    1    1    2    0    0 -0.15725881493E+03  0.88418371852E+02 -0.81682112697E+02  0.28075097665E+03  0.19900000000E+03 0.  0.
<mgrwt>
<rscale>  0 0.83167633E+03</rscale>
<asrwt>0</asrwt>
<pdfrwt beam="1">  1        2 0.21882428E+00 0.83167633E+03</pdfrwt>
<pdfrwt beam="2">  1       -2 0.16127131E-01 0.83167633E+03</pdfrwt>
<totfact> 0.43819190E+02</totfact>
</mgrwt>
</event>
<event>
 4    1  0.4917371E-005  0.4265686E+03  0.7818608E-02  0.1034949E+00
          2   -1    0    0  501    0  0.00000000000E+00  0.00000000000E+00  0.15666420145E+04  0.15666420145E+04  0.25500000000E-02 0.  1.
         -2   -1    0    0    0  501 -0.00000000000E+00 -0.00000000000E+00 -0.29036752359E+02  0.29036752471E+02  0.25500000000E-02 0. -1.
    5000001    1    1    2    0    0 -0.15608785582E+02 -0.73264245412E+02  0.70644198982E+03  0.73774830994E+03  0.19900000000E+03 0.  0.
   -5000001    1    1    2    0    0  0.15608785582E+02  0.73264245412E+02  0.83116327233E+03  0.85793045704E+03  0.19900000000E+03 0.  0.
<mgrwt>
<rscale>  0 0.42656862E+03</rscale>
<asrwt>0</asrwt>
<pdfrwt beam="1">  1        2 0.22380606E+00 0.42656862E+03</pdfrwt>
<pdfrwt beam="2">  1       -2 0.41481065E-02 0.42656862E+03</pdfrwt>
<totfact> 0.37613805E+03</totfact>
</mgrwt>
</event>
<event>
 4    1  0.4917371E-005  0.8569299E+03  0.7818608E-02  0.9481083E-01
          2   -1    0    0  501    0  0.00000000000E+00  0.00000000000E+00  0.16099861680E+04  0.16099861680E+04  0.25500000000E-02 0.  1.
         -2   -1    0    0    0  501 -0.00000000000E+00 -0.00000000000E+00 -0.11402719093E+03  0.11402719095E+03  0.25500000000E-02 0. -1.
    5000001    1    1    2    0    0 -0.36429780448E+03 -0.75810399603E+02  0.59849095443E+03  0.73229265296E+03  0.19900000000E+03 0.  0.
   -5000001    1    1    2    0    0  0.36429780448E+03  0.75810399603E+02  0.89746802264E+03  0.99172070600E+03  0.19900000000E+03 0.  0.
<mgrwt>
<rscale>  0 0.85692987E+03</rscale>
<asrwt>0</asrwt>
<pdfrwt beam="1">  1        2 0.22999801E+00 0.85692987E+03</pdfrwt>
<pdfrwt beam="2">  1       -2 0.16289600E-01 0.85692987E+03</pdfrwt>
<totfact> 0.39157022E+02</totfact>
</mgrwt>
</event>
<event>
 4    1  0.4917371E-005  0.6336743E+03  0.7818608E-02  0.9837905E-01
         -2   -1    0    0    0  501 -0.00000000000E+00  0.00000000000E+00  0.28402838274E+02  0.28402838388E+02  0.25500000000E-02 0.  1.
          2   -1    0    0  501    0  0.00000000000E+00 -0.00000000000E+00 -0.35343569147E+04  0.35343569147E+04  0.25500000000E-02 0. -1.
    5000001    1    1    2    0    0 -0.18793326095E+03 -0.13723143467E+03 -0.12950584621E+04  0.13307624872E+04  0.19900000000E+03 0.  0.
   -5000001    1    1    2    0    0  0.18793326095E+03  0.13723143467E+03 -0.22108956144E+04  0.22319972659E+04  0.19900000000E+03 0.  0.
<mgrwt>
<rscale>  0 0.63367426E+03</rscale>
<asrwt>0</asrwt>
<pdfrwt beam="1">  1        2 0.50490785E+00 0.63367426E+03</pdfrwt>
<pdfrwt beam="2">  1       -2 0.40575506E-02 0.63367426E+03</pdfrwt>
<totfact> 0.35338294E+02</totfact>
</mgrwt>
</event>
<event>
 4    1  0.4917371E-005  0.1091354E+04  0.7818608E-02  0.9213660E-01
         -2   -1    0    0    0  501 -0.00000000000E+00  0.00000000000E+00  0.23227553073E+03  0.23227553074E+03  0.25500000000E-02 0. -1.
          2   -1    0    0  501    0  0.00000000000E+00 -0.00000000000E+00 -0.12819404274E+04  0.12819404274E+04  0.25500000000E-02 0.  1.
    5000001    1    1    2    0    0  0.30613298927E+03 -0.22988700896E+03 -0.98833094702E+03  0.10784083201E+04  0.19900000000E+03 0.  0.
   -5000001    1    1    2    0    0 -0.30613298927E+03  0.22988700896E+03 -0.61333949650E+02  0.43580763805E+03  0.19900000000E+03 0.  0.
<mgrwt>
<rscale>  0 0.10913540E+04</rscale>
<asrwt>0</asrwt>
<pdfrwt beam="1">  1        2 0.18313434E+00 0.10913540E+04</pdfrwt>
<pdfrwt beam="2">  1       -2 0.33182219E-01 0.10913540E+04</pdfrwt>
<totfact> 0.16156243E+02</totfact>
</mgrwt>
</event>
<event>
 4    1  0.4917371E-005  0.7257789E+03  0.7818608E-02  0.9674135E-01
         -2   -1    0    0    0  501 -0.00000000000E+00  0.00000000000E+00  0.62209010644E+02  0.62209010697E+02  0.25500000000E-02 0. -1.
          2   -1    0    0  501    0  0.00000000000E+00 -0.00000000000E+00 -0.21168757831E+04  0.21168757831E+04  0.25500000000E-02 0.  1.
    5000001    1    1    2    0    0  0.22516285175E+03  0.15752508676E+03 -0.14138786064E+04  0.14540172546E+04  0.19900000000E+03 0.  0.
   -5000001    1    1    2    0    0 -0.22516285175E+03 -0.15752508676E+03 -0.64078816598E+03  0.72506753922E+03  0.19900000000E+03 0.  0.
<mgrwt>
<rscale>  0 0.72577889E+03</rscale>
<asrwt>0</asrwt>
<pdfrwt beam="1">  1        2 0.30241078E+00 0.72577889E+03</pdfrwt>
<pdfrwt beam="2">  1       -2 0.88870028E-02 0.72577889E+03</pdfrwt>
<totfact> 0.59433834E+02</totfact>
</mgrwt>
</event>
<event>
 4    1  0.4917371E-005  0.8052713E+03  0.7818608E-02  0.9552418E-01
         -2   -1    0    0    0  501 -0.00000000000E+00  0.00000000000E+00  0.16154932501E+03  0.16154932503E+03  0.25500000000E-02 0. -1.
          2   -1    0    0  501    0  0.00000000000E+00 -0.00000000000E+00 -0.10035045475E+04  0.10035045475E+04  0.25500000000E-02 0.  1.
    5000001    1    1    2    0    0  0.85737506107E+02  0.33180701747E+03 -0.52397061792E+03  0.65695739987E+03  0.19900000000E+03 0.  0.
   -5000001    1    1    2    0    0 -0.85737506107E+02 -0.33180701747E+03 -0.31798460460E+03  0.50809647269E+03  0.19900000000E+03 0.  0.
<mgrwt>
<rscale>  0 0.80527134E+03</rscale>
<asrwt>0</asrwt>
<pdfrwt beam="1">  1        2 0.14335779E+00 0.80527134E+03</pdfrwt>
<pdfrwt beam="2">  1       -2 0.23078475E-01 0.80527134E+03</pdfrwt>
<totfact> 0.46373964E+02</totfact>
</mgrwt>
</event>
<event>
 4    1  0.4917371E-005  0.4497638E+03  0.7818608E-02  0.1027793E+00
          2   -1    0    0  501    0  0.00000000000E+00  0.00000000000E+00  0.24798412029E+04  0.24798412029E+04  0.25500000000E-02 0.  1.
         -2   -1    0    0    0  501 -0.00000000000E+00 -0.00000000000E+00 -0.20393188015E+02  0.20393188175E+02  0.25500000000E-02 0. -1.
    5000001    1    1    2    0    0 -0.86696115250E+02 -0.57164754953E+02  0.13057100902E+04  0.13248637157E+04  0.19900000000E+03 0.  0.
   -5000001    1    1    2    0    0  0.86696115250E+02  0.57164754953E+02  0.11537379248E+04  0.11753706754E+04  0.19900000000E+03 0.  0.
<mgrwt>
<rscale>  0 0.44976380E+03</rscale>
<asrwt>0</asrwt>
<pdfrwt beam="1">  1        2 0.35426287E+00 0.44976380E+03</pdfrwt>
<pdfrwt beam="2">  1       -2 0.29133139E-02 0.44976380E+03</pdfrwt>
<totfact> 0.22430909E+03</totfact>
</mgrwt>
</event>
<event>
 4    1  0.4917371E-005  0.6551637E+03  0.7818608E-02  0.9797138E-01
         -2   -1    0    0    0  501 -0.00000000000E+00  0.00000000000E+00  0.29902999383E+03  0.29902999384E+03  0.25500000000E-02 0. -1.
          2   -1    0    0  501    0  0.00000000000E+00 -0.00000000000E+00 -0.35885986108E+03  0.35885986109E+03  0.25500000000E-02 0.  1.
    5000001    1    1    2    0    0  0.73961996796E+02 -0.24893558514E+03 -0.13428348088E+02  0.32744560320E+03  0.19900000000E+03 0.  0.
   -5000001    1    1    2    0    0 -0.73961996796E+02  0.24893558514E+03 -0.46401519164E+02  0.33044425173E+03  0.19900000000E+03 0.  0.
<mgrwt>
<rscale>  0 0.65516368E+03</rscale>
<asrwt>0</asrwt>
<pdfrwt beam="1">  1        2 0.51265694E-01 0.65516368E+03</pdfrwt>
<pdfrwt beam="2">  1       -2 0.42718571E-01 0.65516368E+03</pdfrwt>
<totfact> 0.51097000E+02</totfact>
</mgrwt>
</event>
<event>
 4    1  0.4917371E-005  0.4598570E+03  0.7818608E-02  0.1024823E+00
          2   -1    0    0  501    0  0.00000000000E+00  0.00000000000E+00  0.32774791985E+04  0.32774791985E+04  0.25500000000E-02 0.  1.
         -2   -1    0    0    0  501 -0.00000000000E+00 -0.00000000000E+00 -0.16130416214E+02  0.16130416416E+02  0.25500000000E-02 0. -1.
    5000001    1    1    2    0    0  0.68394512710E+02  0.10621453705E+02  0.97130087526E+03  0.99388984044E+03  0.19900000000E+03 0.  0.
   -5000001    1    1    2    0    0 -0.68394512710E+02 -0.10621453705E+02  0.22900479070E+04  0.22997197745E+04  0.19900000000E+03 0.  0.
<mgrwt>
<rscale>  0 0.45985695E+03</rscale>
<asrwt>0</asrwt>
<pdfrwt beam="1">  1        2 0.46821156E+00 0.45985695E+03</pdfrwt>
<pdfrwt beam="2">  1       -2 0.23043440E-02 0.45985695E+03</pdfrwt>
<totfact> 0.12000109E+03</totfact>
</mgrwt>
</event>
<event>
 4    1  0.4917371E-005  0.6439377E+03  0.7818608E-02  0.9818222E-01
         -2   -1    0    0    0  501 -0.00000000000E+00  0.00000000000E+00  0.26891795032E+03  0.26891795033E+03  0.25500000000E-02 0. -1.
          2   -1    0    0  501    0  0.00000000000E+00 -0.00000000000E+00 -0.38548541204E+03  0.38548541205E+03  0.25500000000E-02 0.  1.
    5000001    1    1    2    0    0 -0.22794765858E+03 -0.97807747761E+02 -0.10946550664E+03  0.33631858070E+03  0.19900000000E+03 0.  0.
   -5000001    1    1    2    0    0  0.22794765858E+03  0.97807747761E+02 -0.71019550805E+01  0.31808478169E+03  0.19900000000E+03 0.  0.
<mgrwt>
<rscale>  0 0.64393772E+03</rscale>
<asrwt>0</asrwt>
<pdfrwt beam="1">  1        2 0.55069345E-01 0.64393772E+03</pdfrwt>
<pdfrwt beam="2">  1       -2 0.38416850E-01 0.64393772E+03</pdfrwt>
<totfact> 0.58048245E+02</totfact>
</mgrwt>
</event>
<event>
 4    1  0.4917371E-005  0.4883738E+03  0.7818608E-02  0.1016859E+00
          2   -1    0    0  501    0  0.00000000000E+00  0.00000000000E+00  0.10453099478E+04  0.10453099478E+04  0.25500000000E-02 0. -1.
         -2   -1    0    0    0  501 -0.00000000000E+00 -0.00000000000E+00 -0.57042641878E+02  0.57042641935E+02  0.25500000000E-02 0.  1.
    5000001    1    1    2    0    0  0.12998211620E+03 -0.17798237637E+02  0.61387357157E+03  0.65852402361E+03  0.19900000000E+03 0.  0.
   -5000001    1    1    2    0    0 -0.12998211620E+03  0.17798237637E+02  0.37439373437E+03  0.44382856615E+03  0.19900000000E+03 0.  0.
<mgrwt>
<rscale>  0 0.48837380E+03</rscale>
<asrwt>0</asrwt>
<pdfrwt beam="1">  1        2 0.14932999E+00 0.48837380E+03</pdfrwt>
<pdfrwt beam="2">  1       -2 0.81489490E-02 0.48837380E+03</pdfrwt>
<totfact> 0.25223218E+03</totfact>
</mgrwt>
</event>
<event>
 4    1  0.4917371E-005  0.4972192E+03  0.7818608E-02  0.1014507E+00
          2   -1    0    0  501    0  0.00000000000E+00  0.00000000000E+00  0.89412333917E+02  0.89412333954E+02  0.25500000000E-02 0.  1.
         -2   -1    0    0    0  501 -0.00000000000E+00 -0.00000000000E+00 -0.69125505280E+03  0.69125505281E+03  0.25500000000E-02 0. -1.
    5000001    1    1    2    0    0 -0.11827000933E+03 -0.44429315346E+02 -0.42498614116E+03  0.48597940218E+03  0.19900000000E+03 0.  0.
   -5000001    1    1    2    0    0  0.11827000933E+03  0.44429315346E+02 -0.17685657773E+03  0.29468798458E+03  0.19900000000E+03 0.  0.
<mgrwt>
<rscale>  0 0.49721918E+03</rscale>
<asrwt>0</asrwt>
<pdfrwt beam="1">  1        2 0.12773191E-01 0.49721918E+03</pdfrwt>
<pdfrwt beam="2">  1       -2 0.98750719E-01 0.49721918E+03</pdfrwt>
<totfact> 0.41999272E+02</totfact>
</mgrwt>
</event>
<event>
 4    1  0.4917371E-005  0.4320924E+03  0.7818608E-02  0.1033201E+00
         -2   -1    0    0    0  501 -0.00000000000E+00  0.00000000000E+00  0.11729669464E+02  0.11729669742E+02  0.25500000000E-02 0. -1.
          2   -1    0    0  501    0  0.00000000000E+00 -0.00000000000E+00 -0.39793081020E+04  0.39793081020E+04  0.25500000000E-02 0.  1.
    5000001    1    1    2    0    0 -0.81750003687E+02  0.17755469436E+02 -0.19029236176E+04  0.19151286155E+04  0.19900000000E+03 0.  0.
   -5000001    1    1    2    0    0  0.81750003687E+02 -0.17755469436E+02 -0.20646548150E+04  0.20759091562E+04  0.19900000000E+03 0.  0.
<mgrwt>
<rscale>  0 0.43209244E+03</rscale>
<asrwt>0</asrwt>
<pdfrwt beam="1">  1        2 0.56847173E+00 0.43209244E+03</pdfrwt>
<pdfrwt beam="2">  1       -2 0.16756696E-02 0.43209244E+03</pdfrwt>
<totfact> 0.72648724E+02</totfact>
</mgrwt>
</event>
<event>
 4    1  0.4917371E-005  0.5199754E+03  0.7818608E-02  0.1008693E+00
         -2   -1    0    0    0  501 -0.00000000000E+00  0.00000000000E+00  0.49719132284E+03  0.49719132285E+03  0.25500000000E-02 0. -1.
          2   -1    0    0  501    0  0.00000000000E+00 -0.00000000000E+00 -0.13595089808E+03  0.13595089811E+03  0.25500000000E-02 0.  1.
    5000001    1    1    2    0    0 -0.71738101903E+02  0.13498878701E+03  0.26342214676E+03  0.36381390199E+03  0.19900000000E+03 0.  0.
   -5000001    1    1    2    0    0  0.71738101903E+02 -0.13498878701E+03  0.97818278006E+02  0.26932831896E+03  0.19900000000E+03 0.  0.
<mgrwt>
<rscale>  0 0.51997541E+03</rscale>
<asrwt>0</asrwt>
<pdfrwt beam="1">  1        2 0.19421557E-01 0.51997541E+03</pdfrwt>
<pdfrwt beam="2">  1       -2 0.71027331E-01 0.51997541E+03</pdfrwt>
<totfact> 0.53395706E+02</totfact>
</mgrwt>
</event>
<event>
 4    1  0.4917371E-005  0.5134443E+03  0.7818608E-02  0.1010328E+00
         -2   -1    0    0    0  501 -0.00000000000E+00  0.00000000000E+00  0.25136271057E+02  0.25136271186E+02  0.25500000000E-02 0. -1.
          2   -1    0    0  501    0  0.00000000000E+00 -0.00000000000E+00 -0.26219587723E+04  0.26219587723E+04  0.25500000000E-02 0.  1.
    5000001    1    1    2    0    0 -0.18148706071E+02  0.13652487319E+03 -0.17400132237E+04  0.17567627715E+04  0.19900000000E+03 0.  0.
   -5000001    1    1    2    0    0  0.18148706071E+02 -0.13652487319E+03 -0.85680927750E+03  0.89033227198E+03  0.19900000000E+03 0.  0.
<mgrwt>
<rscale>  0 0.51344432E+03</rscale>
<asrwt>0</asrwt>
<pdfrwt beam="1">  1        2 0.37456536E+00 0.51344432E+03</pdfrwt>
<pdfrwt beam="2">  1       -2 0.35908975E-02 0.51344432E+03</pdfrwt>
<totfact> 0.13759323E+03</totfact>
</mgrwt>
</event>
<event>
 4    1  0.4917371E-005  0.7063209E+03  0.7818608E-02  0.9706483E-01
          2   -1    0    0  501    0  0.00000000000E+00  0.00000000000E+00  0.26065922140E+03  0.26065922141E+03  0.25500000000E-02 0.  1.
         -2   -1    0    0    0  501 -0.00000000000E+00 -0.00000000000E+00 -0.47848796524E+03  0.47848796524E+03  0.25500000000E-02 0. -1.
    5000001    1    1    2    0    0  0.28215767621E+03  0.43130846379E+02 -0.17212073972E+03  0.38820068675E+03  0.19900000000E+03 0.  0.
   -5000001    1    1    2    0    0 -0.28215767621E+03 -0.43130846379E+02 -0.45708004114E+02  0.35094649990E+03  0.19900000000E+03 0.  0.
<mgrwt>
<rscale>  0 0.70632089E+03</rscale>
<asrwt>0</asrwt>
<pdfrwt beam="1">  1        2 0.37237032E-01 0.70632089E+03</pdfrwt>
<pdfrwt beam="2">  1       -2 0.68355424E-01 0.70632089E+03</pdfrwt>
<totfact> 0.27568099E+02</totfact>
</mgrwt>
</event>
<event>
 4    1  0.4917371E-005  0.5510991E+03  0.7818608E-02  0.1001240E+00
         -2   -1    0    0    0  501 -0.00000000000E+00  0.00000000000E+00  0.57873921576E+02  0.57873921633E+02  0.25500000000E-02 0.  1.
          2   -1    0    0  501    0  0.00000000000E+00 -0.00000000000E+00 -0.13119477513E+04  0.13119477513E+04  0.25500000000E-02 0. -1.
    5000001    1    1    2    0    0 -0.20988280154E+02  0.16519052993E+03 -0.85751870809E+03  0.89591726951E+03  0.19900000000E+03 0.  0.
   -5000001    1    1    2    0    0  0.20988280154E+02 -0.16519052993E+03 -0.39655512159E+03  0.47390440338E+03  0.19900000000E+03 0.  0.
<mgrwt>
<rscale>  0 0.55109912E+03</rscale>
<asrwt>0</asrwt>
<pdfrwt beam="1">  1        2 0.18742109E+00 0.55109912E+03</pdfrwt>
<pdfrwt beam="2">  1       -2 0.82677039E-02 0.55109912E+03</pdfrwt>
<totfact> 0.17432313E+03</totfact>
</mgrwt>
</event>
<event>
 4    1  0.4917371E-005  0.1553188E+04  0.7818608E-02  0.8849834E-01
         -2   -1    0    0    0  501 -0.00000000000E+00  0.00000000000E+00  0.62008250558E+03  0.62008250559E+03  0.25500000000E-02 0. -1.
          2   -1    0    0  501    0  0.00000000000E+00 -0.00000000000E+00 -0.97260969985E+03  0.97260969986E+03  0.25500000000E-02 0.  1.
    5000001    1    1    2    0    0  0.45717917247E+03 -0.32020812198E+03  0.33845049214E+03  0.68241905949E+03  0.19900000000E+03 0.  0.
   -5000001    1    1    2    0    0 -0.45717917247E+03  0.32020812198E+03 -0.69097768641E+03  0.91027314595E+03  0.19900000000E+03 0.  0.
<mgrwt>
<rscale>  0 0.15531880E+04</rscale>
<asrwt>0</asrwt>
<pdfrwt beam="1">  1        2 0.13894424E+00 0.15531880E+04</pdfrwt>
<pdfrwt beam="2">  1       -2 0.88583215E-01 0.15531880E+04</pdfrwt>
<totfact> 0.30888272E+01</totfact>
</mgrwt>
</event>
<event>
 4    1  0.4917371E-005  0.9617151E+03  0.7818608E-02  0.9351561E-01
          2   -1    0    0  501    0  0.00000000000E+00  0.00000000000E+00  0.14417405647E+04  0.14417405647E+04  0.25500000000E-02 0.  1.
         -2   -1    0    0    0  501 -0.00000000000E+00 -0.00000000000E+00 -0.16037836692E+03  0.16037836694E+03  0.25500000000E-02 0. -1.
    5000001    1    1    2    0    0  0.39031909945E+03  0.52290443711E+02  0.32223873663E+03  0.54637175374E+03  0.19900000000E+03 0.  0.
   -5000001    1    1    2    0    0 -0.39031909945E+03 -0.52290443711E+02  0.95912346117E+03  0.10557471779E+04  0.19900000000E+03 0.  0.
<mgrwt>
<rscale>  0 0.96171513E+03</rscale>
<asrwt>0</asrwt>
<pdfrwt beam="1">  1        2 0.20596293E+00 0.96171513E+03</pdfrwt>
<pdfrwt beam="2">  1       -2 0.22911196E-01 0.96171513E+03</pdfrwt>
<totfact> 0.26308962E+02</totfact>
</mgrwt>
</event>
<event>
 4    1  0.4917371E-005  0.5534640E+03  0.7818608E-02  0.1000695E+00
          2   -1    0    0  501    0  0.00000000000E+00  0.00000000000E+00  0.23279373533E+04  0.23279373533E+04  0.25500000000E-02 0.  1.
         -2   -1    0    0    0  501 -0.00000000000E+00 -0.00000000000E+00 -0.32896336479E+02  0.32896336578E+02  0.25500000000E-02 0. -1.
    5000001    1    1    2    0    0 -0.35641983122E+02 -0.18789889998E+03  0.12331789532E+04  0.12636881253E+04  0.19900000000E+03 0.  0.
   -5000001    1    1    2    0    0  0.35641983122E+02  0.18789889998E+03  0.10618620636E+04  0.10971455645E+04  0.19900000000E+03 0.  0.
<mgrwt>
<rscale>  0 0.55346404E+03</rscale>
<asrwt>0</asrwt>
<pdfrwt beam="1">  1        2 0.33256253E+00 0.55346404E+03</pdfrwt>
<pdfrwt beam="2">  1       -2 0.46994759E-02 0.55346404E+03</pdfrwt>
<totfact> 0.12830648E+03</totfact>
</mgrwt>
</event>
<event>
 4    1  0.4917371E-005  0.4602989E+03  0.7818608E-02  0.1024695E+00
          2   -1    0    0  501    0  0.00000000000E+00  0.00000000000E+00  0.34269253397E+04  0.34269253397E+04  0.25500000000E-02 0.  1.
         -2   -1    0    0    0  501 -0.00000000000E+00 -0.00000000000E+00 -0.15456646232E+02  0.15456646442E+02  0.25500000000E-02 0. -1.
    5000001    1    1    2    0    0  0.87107299144E+02  0.53061854536E+02  0.12985443421E+04  0.13176576378E+04  0.19900000000E+03 0.  0.
   -5000001    1    1    2    0    0 -0.87107299144E+02 -0.53061854536E+02  0.21129243514E+04  0.21247243484E+04  0.19900000000E+03 0.  0.
<mgrwt>
<rscale>  0 0.46029892E+03</rscale>
<asrwt>0</asrwt>
<pdfrwt beam="1">  1        2 0.48956133E+00 0.46029892E+03</pdfrwt>
<pdfrwt beam="2">  1       -2 0.22080898E-02 0.46029892E+03</pdfrwt>
<totfact> 0.10504409E+03</totfact>
</mgrwt>
</event>
<event>
 4    1  0.4917371E-005  0.8229854E+03  0.7818608E-02  0.9527330E-01
          2   -1    0    0  501    0  0.00000000000E+00  0.00000000000E+00  0.19559032441E+04  0.19559032441E+04  0.25500000000E-02 0.  1.
         -2   -1    0    0    0  501 -0.00000000000E+00 -0.00000000000E+00 -0.86571896186E+02  0.86571896224E+02  0.25500000000E-02 0. -1.
    5000001    1    1    2    0    0 -0.34687309497E+03  0.80578779155E+01  0.11745067922E+04  0.12407469840E+04  0.19900000000E+03 0.  0.
   -5000001    1    1    2    0    0  0.34687309497E+03 -0.80578779155E+01  0.69482455577E+03  0.80172815637E+03  0.19900000000E+03 0.  0.
<mgrwt>
<rscale>  0 0.82298543E+03</rscale>
<asrwt>0</asrwt>
<pdfrwt beam="1">  1        2 0.27941474E+00 0.82298543E+03</pdfrwt>
<pdfrwt beam="2">  1       -2 0.12367414E-01 0.82298543E+03</pdfrwt>
<totfact> 0.41504426E+02</totfact>
</mgrwt>
</event>
<event>
 4    1  0.4917371E-005  0.4801739E+03  0.7818608E-02  0.1019087E+00
          2   -1    0    0  501    0  0.00000000000E+00  0.00000000000E+00  0.13336465706E+04  0.13336465706E+04  0.25500000000E-02 0.  1.
         -2   -1    0    0    0  501 -0.00000000000E+00 -0.00000000000E+00 -0.43221155993E+02  0.43221156068E+02  0.25500000000E-02 0. -1.
    5000001    1    1    2    0    0 -0.43362831435E+02  0.12445468209E+03  0.71951434522E+03  0.75807070648E+03  0.19900000000E+03 0.  0.
   -5000001    1    1    2    0    0  0.43362831435E+02 -0.12445468209E+03  0.57091106936E+03  0.61879702016E+03  0.19900000000E+03 0.  0.
<mgrwt>
<rscale>  0 0.48017391E+03</rscale>
<asrwt>0</asrwt>
<pdfrwt beam="1">  1        2 0.19052091E+00 0.48017391E+03</pdfrwt>
<pdfrwt beam="2">  1       -2 0.61744516E-02 0.48017391E+03</pdfrwt>
<totfact> 0.26923627E+03</totfact>
</mgrwt>
</event>
<event>
 4    1  0.4917371E-005  0.4802581E+03  0.7818608E-02  0.1019064E+00
         -2   -1    0    0    0  501 -0.00000000000E+00  0.00000000000E+00  0.25255461119E+02  0.25255461248E+02  0.25500000000E-02 0. -1.
          2   -1    0    0  501    0  0.00000000000E+00 -0.00000000000E+00 -0.22831483284E+04  0.22831483284E+04  0.25500000000E-02 0.  1.
    5000001    1    1    2    0    0 -0.11218854975E+03  0.63441468727E+02 -0.94592493829E+03  0.97518515141E+03  0.19900000000E+03 0.  0.
   -5000001    1    1    2    0    0  0.11218854975E+03 -0.63441468727E+02 -0.13119679290E+04  0.13332186382E+04  0.19900000000E+03 0.  0.
<mgrwt>
<rscale>  0 0.48025811E+03</rscale>
<asrwt>0</asrwt>
<pdfrwt beam="1">  1        2 0.32616391E+00 0.48025811E+03</pdfrwt>
<pdfrwt beam="2">  1       -2 0.36079245E-02 0.48025811E+03</pdfrwt>
<totfact> 0.20351700E+03</totfact>
</mgrwt>
</event>
<event>
 4    1  0.4917371E-005  0.7379146E+03  0.7818608E-02  0.9654504E-01
         -2   -1    0    0    0  501 -0.00000000000E+00  0.00000000000E+00  0.42256806255E+02  0.42256806332E+02  0.25500000000E-02 0.  1.
          2   -1    0    0  501    0  0.00000000000E+00 -0.00000000000E+00 -0.32214804089E+04  0.32214804089E+04  0.25500000000E-02 0. -1.
    5000001    1    1    2    0    0  0.23239850922E+03 -0.27521281965E+02 -0.68575490741E+03  0.75141684909E+03  0.19900000000E+03 0.  0.
   -5000001    1    1    2    0    0 -0.23239850922E+03  0.27521281965E+02 -0.24934686952E+04  0.25123203661E+04  0.19900000000E+03 0.  0.
<mgrwt>
<rscale>  0 0.73791456E+03</rscale>
<asrwt>0</asrwt>
<pdfrwt beam="1">  1        2 0.46021133E+00 0.73791456E+03</pdfrwt>
<pdfrwt beam="2">  1       -2 0.60366887E-02 0.73791456E+03</pdfrwt>
<totfact> 0.28644179E+02</totfact>
</mgrwt>
</event>
<event>
 4    1  0.4917371E-005  0.1024591E+04  0.7818608E-02  0.9281977E-01
         -2   -1    0    0    0  501 -0.00000000000E+00  0.00000000000E+00  0.10710051966E+03  0.10710051969E+03  0.25500000000E-02 0. -1.
          2   -1    0    0  501    0  0.00000000000E+00 -0.00000000000E+00 -0.24504726486E+04  0.24504726486E+04  0.25500000000E-02 0.  1.
    5000001    1    1    2    0    0 -0.25273505357E+03  0.35269277710E+03 -0.70751118640E+03  0.85348713008E+03  0.19900000000E+03 0.  0.
   -5000001    1    1    2    0    0  0.25273505357E+03 -0.35269277710E+03 -0.16358609425E+04  0.17040860382E+04  0.19900000000E+03 0.  0.
<mgrwt>
<rscale>  0 0.10245914E+04</rscale>
<asrwt>0</asrwt>
<pdfrwt beam="1">  1        2 0.35006749E+00 0.10245914E+04</pdfrwt>
<pdfrwt beam="2">  1       -2 0.15300076E-01 0.10245914E+04</pdfrwt>
<totfact> 0.15974188E+02</totfact>
</mgrwt>
</event>
<event>
 4    1  0.4917371E-005  0.6107613E+03  0.7818608E-02  0.9883328E-01
          2   -1    0    0  501    0  0.00000000000E+00  0.00000000000E+00  0.20477501543E+03  0.20477501545E+03  0.25500000000E-02 0.  1.
         -2   -1    0    0    0  501 -0.00000000000E+00 -0.00000000000E+00 -0.45541364141E+03  0.45541364142E+03  0.25500000000E-02 0. -1.
    5000001    1    1    2    0    0 -0.21468243789E+03 -0.60019241269E+02 -0.57251111059E+02  0.30425244153E+03  0.19900000000E+03 0.  0.
   -5000001    1    1    2    0    0  0.21468243789E+03  0.60019241269E+02 -0.19338751493E+03  0.35593621534E+03  0.19900000000E+03 0.  0.
<mgrwt>
<rscale>  0 0.61076128E+03</rscale>
<asrwt>0</asrwt>
<pdfrwt beam="1">  1        2 0.29253574E-01 0.61076128E+03</pdfrwt>
<pdfrwt beam="2">  1       -2 0.65059091E-01 0.61076128E+03</pdfrwt>
<totfact> 0.40269465E+02</totfact>
</mgrwt>
</event>
<event>
 4    1  0.4917371E-005  0.5526550E+03  0.7818608E-02  0.1000881E+00
          2   -1    0    0  501    0  0.00000000000E+00  0.00000000000E+00  0.18914863359E+04  0.18914863359E+04  0.25500000000E-02 0.  1.
         -2   -1    0    0    0  501 -0.00000000000E+00 -0.00000000000E+00 -0.40368728592E+02  0.40368728673E+02  0.25500000000E-02 0. -1.
    5000001    1    1    2    0    0  0.11979421419E+03  0.13820850224E+03  0.72464131856E+03  0.77340693325E+03  0.19900000000E+03 0.  0.
   -5000001    1    1    2    0    0 -0.11979421419E+03 -0.13820850224E+03  0.11264762888E+04  0.11584481313E+04  0.19900000000E+03 0.  0.
<mgrwt>
<rscale>  0 0.55265504E+03</rscale>
<asrwt>0</asrwt>
<pdfrwt beam="1">  1        2 0.27021242E+00 0.55265504E+03</pdfrwt>
<pdfrwt beam="2">  1       -2 0.57669595E-02 0.55265504E+03</pdfrwt>
<totfact> 0.15466534E+03</totfact>
</mgrwt>
</event>
<event>
 4    1  0.4917371E-005  0.5435824E+03  0.7818608E-02  0.1002990E+00
         -2   -1    0    0    0  501 -0.00000000000E+00  0.00000000000E+00  0.13474374539E+04  0.13474374539E+04  0.25500000000E-02 0. -1.
          2   -1    0    0  501    0  0.00000000000E+00 -0.00000000000E+00 -0.54822912809E+02  0.54822912868E+02  0.25500000000E-02 0.  1.
    5000001    1    1    2    0    0 -0.27753406156E+02  0.18140515887E+03  0.58357509735E+03  0.64330317694E+03  0.19900000000E+03 0.  0.
   -5000001    1    1    2    0    0  0.27753406156E+02 -0.18140515887E+03  0.70903944378E+03  0.75895718987E+03  0.19900000000E+03 0.  0.
<mgrwt>
<rscale>  0 0.54358236E+03</rscale>
<asrwt>0</asrwt>
<pdfrwt beam="1">  1        2 0.78318441E-02 0.54358236E+03</pdfrwt>
<pdfrwt beam="2">  1       -2 0.19249108E+00 0.54358236E+03</pdfrwt>
<totfact> 0.13934155E+02</totfact>
</mgrwt>
</event>
<event>
 4    1  0.4917371E-005  0.5228452E+03  0.7818608E-02  0.1007982E+00
          2   -1    0    0  501    0  0.00000000000E+00  0.00000000000E+00  0.17415294908E+03  0.17415294910E+03  0.25500000000E-02 0.  1.
         -2   -1    0    0    0  501 -0.00000000000E+00 -0.00000000000E+00 -0.39242389089E+03  0.39242389089E+03  0.25500000000E-02 0. -1.
    5000001    1    1    2    0    0  0.63567225147E+02 -0.15680345153E+03 -0.97633373129E+02  0.27885729338E+03  0.19900000000E+03 0.  0.
   -5000001    1    1    2    0    0 -0.63567225147E+02  0.15680345153E+03 -0.12063756868E+03  0.28771954661E+03  0.19900000000E+03 0.  0.
<mgrwt>
<rscale>  0 0.52284521E+03</rscale>
<asrwt>0</asrwt>
<pdfrwt beam="1">  1        2 0.24878993E-01 0.52284521E+03</pdfrwt>
<pdfrwt beam="2">  1       -2 0.56060555E-01 0.52284521E+03</pdfrwt>
<totfact> 0.66250785E+02</totfact>
</mgrwt>
</event>
<event>
 4    1  0.4917371E-005  0.5151553E+03  0.7818608E-02  0.1009897E+00
         -2   -1    0    0    0  501 -0.00000000000E+00  0.00000000000E+00  0.28371928677E+02  0.28371928792E+02  0.25500000000E-02 0. -1.
          2   -1    0    0  501    0  0.00000000000E+00 -0.00000000000E+00 -0.23384465921E+04  0.23384465921E+04  0.25500000000E-02 0.  1.
    5000001    1    1    2    0    0  0.12794555370E+03  0.29780723238E+02 -0.70750889089E+03  0.74661019741E+03  0.19900000000E+03 0.  0.
   -5000001    1    1    2    0    0 -0.12794555370E+03 -0.29780723238E+02 -0.16025657726E+04  0.16202083235E+04  0.19900000000E+03 0.  0.
<mgrwt>
<rscale>  0 0.51515528E+03</rscale>
<asrwt>0</asrwt>
<pdfrwt beam="1">  1        2 0.33406368E+00 0.51515528E+03</pdfrwt>
<pdfrwt beam="2">  1       -2 0.40531341E-02 0.51515528E+03</pdfrwt>
<totfact> 0.15950758E+03</totfact>
</mgrwt>
</event>
<event>
 4    1  0.4917371E-005  0.7833653E+03  0.7818608E-02  0.9584412E-01
         -2   -1    0    0    0  501 -0.00000000000E+00  0.00000000000E+00  0.12068988000E+03  0.12068988003E+03  0.25500000000E-02 0. -1.
          2   -1    0    0  501    0  0.00000000000E+00 -0.00000000000E+00 -0.12711530231E+04  0.12711530231E+04  0.25500000000E-02 0.  1.
    5000001    1    1    2    0    0  0.29677056324E+03  0.52733515229E+02 -0.84445855350E+03  0.91845785936E+03  0.19900000000E+03 0.  0.
   -5000001    1    1    2    0    0 -0.29677056324E+03 -0.52733515229E+02 -0.30600458964E+03  0.47338504382E+03  0.19900000000E+03 0.  0.
<mgrwt>
<rscale>  0 0.78336532E+03</rscale>
<asrwt>0</asrwt>
<pdfrwt beam="1">  1        2 0.18159328E+00 0.78336532E+03</pdfrwt>
<pdfrwt beam="2">  1       -2 0.17241412E-01 0.78336532E+03</pdfrwt>
<totfact> 0.54075261E+02</totfact>
</mgrwt>
</event>
<event>
 4    1  0.4917371E-005  0.1580720E+04  0.7818608E-02  0.8832480E-01
          2   -1    0    0  501    0  0.00000000000E+00  0.00000000000E+00  0.25022329676E+04  0.25022329676E+04  0.25500000000E-02 0.  1.
         -2   -1    0    0    0  501 -0.00000000000E+00 -0.00000000000E+00 -0.24964473408E+03  0.24964473409E+03  0.25500000000E-02 0. -1.
    5000001    1    1    2    0    0 -0.56548846544E+03  0.35857897664E+03  0.48260274348E+03  0.84903621539E+03  0.19900000000E+03 0.  0.
   -5000001    1    1    2    0    0  0.56548846544E+03 -0.35857897664E+03  0.17699854900E+04  0.19028414863E+04  0.19900000000E+03 0.  0.
<mgrwt>
<rscale>  0 0.15807204E+04</rscale>
<asrwt>0</asrwt>
<pdfrwt beam="1">  1        2 0.35746185E+00 0.15807204E+04</pdfrwt>
<pdfrwt beam="2">  1       -2 0.35663534E-01 0.15807204E+04</pdfrwt>
<totfact> 0.31290787E+01</totfact>
</mgrwt>
</event>
<event>
 4    1  0.4917371E-005  0.5816465E+03  0.7818608E-02  0.9944233E-01
          2   -1    0    0  501    0  0.00000000000E+00  0.00000000000E+00  0.10910079795E+03  0.10910079798E+03  0.25500000000E-02 0.  1.
         -2   -1    0    0    0  501 -0.00000000000E+00 -0.00000000000E+00 -0.77522960145E+03  0.77522960146E+03  0.25500000000E-02 0. -1.
    5000001    1    1    2    0    0 -0.19406886521E+03 -0.60870043474E+02 -0.42440540944E+03  0.51096852956E+03  0.19900000000E+03 0.  0.
   -5000001    1    1    2    0    0  0.19406886521E+03  0.60870043474E+02 -0.24172339407E+03  0.37336186987E+03  0.19900000000E+03 0.  0.
<mgrwt>
<rscale>  0 0.58164652E+03</rscale>
<asrwt>0</asrwt>
<pdfrwt beam="1">  1        2 0.15585829E-01 0.58164652E+03</pdfrwt>
<pdfrwt beam="2">  1       -2 0.11074708E+00 0.58164652E+03</pdfrwt>
<totfact> 0.25048562E+02</totfact>
</mgrwt>
</event>
<event>
 4    1  0.4917371E-005  0.7510229E+03  0.7818608E-02  0.9633747E-01
         -2   -1    0    0    0  501 -0.00000000000E+00  0.00000000000E+00  0.51807638530E+02  0.51807638592E+02  0.25500000000E-02 0. -1.
          2   -1    0    0  501    0  0.00000000000E+00 -0.00000000000E+00 -0.27217775118E+04  0.27217775118E+04  0.25500000000E-02 0.  1.
    5000001    1    1    2    0    0  0.66656852382E+02 -0.31092080550E+03 -0.13981983152E+04  0.14476444356E+04  0.19900000000E+03 0.  0.
   -5000001    1    1    2    0    0 -0.66656852382E+02  0.31092080550E+03 -0.12717715580E+04  0.13259407148E+04  0.19900000000E+03 0.  0.
<mgrwt>
<rscale>  0 0.75102294E+03</rscale>
<asrwt>0</asrwt>
<pdfrwt beam="1">  1        2 0.38882527E+00 0.75102294E+03</pdfrwt>
<pdfrwt beam="2">  1       -2 0.74010929E-02 0.75102294E+03</pdfrwt>
<totfact> 0.38840228E+02</totfact>
</mgrwt>
</event>
<event>
 4    1  0.4917371E-005  0.4459971E+03  0.7818608E-02  0.1028922E+00
         -2   -1    0    0    0  501 -0.00000000000E+00  0.00000000000E+00  0.24359446836E+03  0.24359446837E+03  0.25500000000E-02 0. -1.
          2   -1    0    0  501    0  0.00000000000E+00 -0.00000000000E+00 -0.20414405404E+03  0.20414405405E+03  0.25500000000E-02 0.  1.
    5000001    1    1    2    0    0  0.86425795274E+02 -0.24497816876E+02 -0.25814904936E+02  0.21985670433E+03  0.19900000000E+03 0.  0.
   -5000001    1    1    2    0    0 -0.86425795274E+02  0.24497816876E+02  0.65265319257E+02  0.22788181809E+03  0.19900000000E+03 0.  0.
<mgrwt>
<rscale>  0 0.44599714E+03</rscale>
<asrwt>0</asrwt>
<pdfrwt beam="1">  1        2 0.29163436E-01 0.44599714E+03</pdfrwt>
<pdfrwt beam="2">  1       -2 0.34799210E-01 0.44599714E+03</pdfrwt>
<totfact> 0.14172421E+03</totfact>
</mgrwt>
</event>
<event>
 4    1  0.4917371E-005  0.9828344E+03  0.7818608E-02  0.9327575E-01
         -2   -1    0    0    0  501 -0.00000000000E+00  0.00000000000E+00  0.20728770758E+03  0.20728770760E+03  0.25500000000E-02 0. -1.
          2   -1    0    0  501    0  0.00000000000E+00 -0.00000000000E+00 -0.11650033927E+04  0.11650033927E+04  0.25500000000E-02 0.  1.
    5000001    1    1    2    0    0  0.30110126862E+03 -0.32393763839E+03 -0.36810086078E+03  0.60884875892E+03  0.19900000000E+03 0.  0.
   -5000001    1    1    2    0    0 -0.30110126862E+03  0.32393763839E+03 -0.58961482431E+03  0.76344234135E+03  0.19900000000E+03 0.  0.
<mgrwt>
<rscale>  0 0.98283444E+03</rscale>
<asrwt>0</asrwt>
<pdfrwt beam="1">  1        2 0.16642905E+00 0.98283444E+03</pdfrwt>
<pdfrwt beam="2">  1       -2 0.29612530E-01 0.98283444E+03</pdfrwt>
<totfact> 0.23429521E+02</totfact>
</mgrwt>
</event>
<event>
 4    1  0.4917371E-005  0.1375736E+04  0.7818608E-02  0.8971572E-01
         -2   -1    0    0    0  501 -0.00000000000E+00  0.00000000000E+00  0.42221054628E+03  0.42221054628E+03  0.25500000000E-02 0. -1.
          2   -1    0    0  501    0  0.00000000000E+00 -0.00000000000E+00 -0.11206787453E+04  0.11206787453E+04  0.25500000000E-02 0.  1.
    5000001    1    1    2    0    0  0.38137710822E+02  0.47160831822E+03  0.16432580087E+03  0.53895534104E+03  0.19900000000E+03 0.  0.
   -5000001    1    1    2    0    0 -0.38137710822E+02 -0.47160831822E+03 -0.86279399985E+03  0.10039339505E+04  0.19900000000E+03 0.  0.
<mgrwt>
<rscale>  0 0.13757360E+04</rscale>
<asrwt>0</asrwt>
<pdfrwt beam="1">  1        2 0.16009696E+00 0.13757360E+04</pdfrwt>
<pdfrwt beam="2">  1       -2 0.60315793E-01 0.13757360E+04</pdfrwt>
<totfact> 0.59391789E+01</totfact>
</mgrwt>
</event>
<event>
 4    1  0.4917371E-005  0.4677657E+03  0.7818608E-02  0.1022553E+00
         -2   -1    0    0    0  501 -0.00000000000E+00  0.00000000000E+00  0.15263291046E+02  0.15263291259E+02  0.25500000000E-02 0. -1.
          2   -1    0    0  501    0  0.00000000000E+00 -0.00000000000E+00 -0.35838390544E+04  0.35838390544E+04  0.25500000000E-02 0.  1.
    5000001    1    1    2    0    0 -0.69542299750E+02  0.10125844285E+03 -0.17590310332E+04  0.17745085459E+04  0.19900000000E+03 0.  0.
   -5000001    1    1    2    0    0  0.69542299750E+02 -0.10125844285E+03 -0.18095447302E+04  0.18245937998E+04  0.19900000000E+03 0.  0.
<mgrwt>
<rscale>  0 0.46776566E+03</rscale>
<asrwt>0</asrwt>
<pdfrwt beam="1">  1        2 0.51197647E+00 0.46776566E+03</pdfrwt>
<pdfrwt beam="2">  1       -2 0.21804725E-02 0.46776566E+03</pdfrwt>
<totfact> 0.86412755E+02</totfact>
</mgrwt>
</event>
<event>
 4    1  0.4917371E-005  0.6229058E+03  0.7818608E-02  0.9858991E-01
          2   -1    0    0  501    0  0.00000000000E+00  0.00000000000E+00  0.85383977491E+03  0.85383977492E+03  0.25500000000E-02 0.  1.
         -2   -1    0    0    0  501 -0.00000000000E+00 -0.00000000000E+00 -0.11360786232E+03  0.11360786234E+03  0.25500000000E-02 0. -1.
    5000001    1    1    2    0    0 -0.70670707708E+02  0.22887050071E+03  0.37801347406E+03  0.48976651743E+03  0.19900000000E+03 0.  0.
   -5000001    1    1    2    0    0  0.70670707708E+02 -0.22887050071E+03  0.36221843854E+03  0.47768111983E+03  0.19900000000E+03 0.  0.
<mgrwt>
<rscale>  0 0.62290581E+03</rscale>
<asrwt>0</asrwt>
<pdfrwt beam="1">  1        2 0.12197711E+00 0.62290581E+03</pdfrwt>
<pdfrwt beam="2">  1       -2 0.16229694E-01 0.62290581E+03</pdfrwt>
<totfact> 0.10726698E+03</totfact>
</mgrwt>
</event>
<event>
 4    1  0.4917371E-005  0.7897952E+03  0.7818608E-02  0.9574907E-01
          2   -1    0    0  501    0  0.00000000000E+00  0.00000000000E+00  0.30859910773E+04  0.30859910773E+04  0.25500000000E-02 0.  1.
         -2   -1    0    0    0  501 -0.00000000000E+00 -0.00000000000E+00 -0.50532910093E+02  0.50532910157E+02  0.25500000000E-02 0. -1.
    5000001    1    1    2    0    0 -0.31339193071E+03  0.63277106063E+02  0.19897078329E+04  0.20250325317E+04  0.19900000000E+03 0.  0.
   -5000001    1    1    2    0    0  0.31339193071E+03 -0.63277106063E+02  0.10457503344E+04  0.11114914557E+04  0.19900000000E+03 0.  0.
<mgrwt>
<rscale>  0 0.78979519E+03</rscale>
<asrwt>0</asrwt>
<pdfrwt beam="1">  1        2 0.44085587E+00 0.78979519E+03</pdfrwt>
<pdfrwt beam="2">  1       -2 0.72189871E-02 0.78979519E+03</pdfrwt>
<totfact> 0.25579903E+02</totfact>
</mgrwt>
</event>
<event>
 4    1  0.4917371E-005  0.5303066E+03  0.7818608E-02  0.1006158E+00
         -2   -1    0    0    0  501 -0.00000000000E+00  0.00000000000E+00  0.35539930523E+02  0.35539930614E+02  0.25500000000E-02 0. -1.
          2   -1    0    0  501    0  0.00000000000E+00 -0.00000000000E+00 -0.19782335085E+04  0.19782335085E+04  0.25500000000E-02 0.  1.
    5000001    1    1    2    0    0 -0.72005186788E+02  0.15414413524E+03 -0.11306610711E+04  0.11605777091E+04  0.19900000000E+03 0.  0.
   -5000001    1    1    2    0    0  0.72005186788E+02 -0.15414413524E+03 -0.81203250695E+03  0.85319573000E+03  0.19900000000E+03 0.  0.
<mgrwt>
<rscale>  0 0.53030663E+03</rscale>
<asrwt>0</asrwt>
<pdfrwt beam="1">  1        2 0.28260472E+00 0.53030663E+03</pdfrwt>
<pdfrwt beam="2">  1       -2 0.50771342E-02 0.53030663E+03</pdfrwt>
<totfact> 0.17075120E+03</totfact>
</mgrwt>
</event>
<event>
 4    1  0.4917371E-005  0.7884187E+03  0.7818608E-02  0.9576934E-01
          2   -1    0    0  501    0  0.00000000000E+00  0.00000000000E+00  0.50559260402E+03  0.50559260402E+03  0.25500000000E-02 0.  1.
         -2   -1    0    0    0  501 -0.00000000000E+00 -0.00000000000E+00 -0.30736409053E+03  0.30736409054E+03  0.25500000000E-02 0. -1.
    5000001    1    1    2    0    0  0.31415772210E+03 -0.83924910106E+02 -0.43148693841E+01  0.38125855137E+03  0.19900000000E+03 0.  0.
   -5000001    1    1    2    0    0 -0.31415772210E+03  0.83924910106E+02  0.20254338287E+03  0.43169814320E+03  0.19900000000E+03 0.  0.
<mgrwt>
<rscale>  0 0.78841870E+03</rscale>
<asrwt>0</asrwt>
<pdfrwt beam="1">  1        2 0.72227515E-01 0.78841870E+03</pdfrwt>
<pdfrwt beam="2">  1       -2 0.43909156E-01 0.78841870E+03</pdfrwt>
<totfact> 0.32792660E+02</totfact>
</mgrwt>
</event>
<event>
 4    1  0.4917371E-005  0.5730423E+03  0.7818608E-02  0.9962969E-01
          2   -1    0    0  501    0  0.00000000000E+00  0.00000000000E+00  0.16535780949E+04  0.16535780949E+04  0.25500000000E-02 0.  1.
         -2   -1    0    0    0  501 -0.00000000000E+00 -0.00000000000E+00 -0.49646502019E+02  0.49646502084E+02  0.25500000000E-02 0. -1.
    5000001    1    1    2    0    0 -0.13144390426E+03 -0.60783720213E+02  0.36593359741E+03  0.44099949924E+03  0.19900000000E+03 0.  0.
   -5000001    1    1    2    0    0  0.13144390426E+03  0.60783720213E+02  0.12379979955E+04  0.12622250978E+04  0.19900000000E+03 0.  0.
<mgrwt>
<rscale>  0 0.57304230E+03</rscale>
<asrwt>0</asrwt>
<pdfrwt beam="1">  1        2 0.23622546E+00 0.57304230E+03</pdfrwt>
<pdfrwt beam="2">  1       -2 0.70923568E-02 0.57304230E+03</pdfrwt>
<totfact> 0.14728787E+03</totfact>
</mgrwt>
</event>
<event>
 4    1  0.4917371E-005  0.5919646E+03  0.7818608E-02  0.9922219E-01
          2   -1    0    0  501    0  0.00000000000E+00  0.00000000000E+00  0.95334710417E+03  0.95334710417E+03  0.25500000000E-02 0.  1.
         -2   -1    0    0    0  501 -0.00000000000E+00 -0.00000000000E+00 -0.91892561959E+02  0.91892561994E+02  0.25500000000E-02 0. -1.
    5000001    1    1    2    0    0  0.19660883914E+03 -0.63807048013E+02  0.55900768124E+03  0.62834462096E+03  0.19900000000E+03 0.  0.
   -5000001    1    1    2    0    0 -0.19660883914E+03  0.63807048013E+02  0.30244686097E+03  0.41689504520E+03  0.19900000000E+03 0.  0.
<mgrwt>
<rscale>  0 0.59196455E+03</rscale>
<asrwt>0</asrwt>
<pdfrwt beam="1">  1        2 0.13619245E+00 0.59196455E+03</pdfrwt>
<pdfrwt beam="2">  1       -2 0.13127509E-01 0.59196455E+03</pdfrwt>
<totfact> 0.13221371E+03</totfact>
</mgrwt>
</event>
<event>
 4    1  0.4917371E-005  0.4528677E+03  0.7818608E-02  0.1026870E+00
         -2   -1    0    0    0  501 -0.00000000000E+00  0.00000000000E+00  0.10096832653E+03  0.10096832657E+03  0.25500000000E-02 0. -1.
          2   -1    0    0  501    0  0.00000000000E+00 -0.00000000000E+00 -0.50780571761E+03  0.50780571762E+03  0.25500000000E-02 0.  1.
    5000001    1    1    2    0    0  0.48281739232E+02  0.91503220366E+02 -0.24522787108E+03  0.33232766126E+03  0.19900000000E+03 0.  0.
   -5000001    1    1    2    0    0 -0.48281739232E+02 -0.91503220366E+02 -0.16160952000E+03  0.27644638293E+03  0.19900000000E+03 0.  0.
<mgrwt>
<rscale>  0 0.45286772E+03</rscale>
<asrwt>0</asrwt>
<pdfrwt beam="1">  1        2 0.72543673E-01 0.45286772E+03</pdfrwt>
<pdfrwt beam="2">  1       -2 0.14424047E-01 0.45286772E+03</pdfrwt>
<totfact> 0.24481069E+03</totfact>
</mgrwt>
</event>
<event>
 4    1  0.4917371E-005  0.4229253E+03  0.7818608E-02  0.1036118E+00
          2   -1    0    0  501    0  0.00000000000E+00  0.00000000000E+00  0.75932189908E+03  0.75932189908E+03  0.25500000000E-02 0.  1.
         -2   -1    0    0    0  501 -0.00000000000E+00 -0.00000000000E+00 -0.58889994482E+02  0.58889994537E+02  0.25500000000E-02 0. -1.
    5000001    1    1    2    0    0 -0.59515553083E+02  0.21024640118E+02  0.41528821999E+03  0.46481118985E+03  0.19900000000E+03 0.  0.
   -5000001    1    1    2    0    0  0.59515553083E+02 -0.21024640118E+02  0.28514368461E+03  0.35340070377E+03  0.19900000000E+03 0.  0.
<mgrwt>
<rscale>  0 0.42292535E+03</rscale>
<asrwt>0</asrwt>
<pdfrwt beam="1">  1        2 0.10847454E+00 0.42292535E+03</pdfrwt>
<pdfrwt beam="2">  1       -2 0.84128573E-02 0.42292535E+03</pdfrwt>
<totfact> 0.36559797E+03</totfact>
</mgrwt>
</event>
<event>
 4    1  0.4917371E-005  0.6616526E+03  0.7818608E-02  0.9785156E-01
          2   -1    0    0  501    0  0.00000000000E+00  0.00000000000E+00  0.41638973440E+04  0.41638973440E+04  0.25500000000E-02 0.  1.
         -2   -1    0    0    0  501 -0.00000000000E+00 -0.00000000000E+00 -0.26284519397E+02  0.26284519520E+02  0.25500000000E-02 0. -1.
    5000001    1    1    2    0    0 -0.20023373539E+03  0.13692357444E+03  0.14045024736E+04  0.14391211944E+04  0.19900000000E+03 0.  0.
   -5000001    1    1    2    0    0  0.20023373539E+03 -0.13692357444E+03  0.27331103510E+04  0.27510606691E+04  0.19900000000E+03 0.  0.
<mgrwt>
<rscale>  0 0.66165260E+03</rscale>
<asrwt>0</asrwt>
<pdfrwt beam="1">  1        2 0.59484228E+00 0.66165260E+03</pdfrwt>
<pdfrwt beam="2">  1       -2 0.37549326E-02 0.66165260E+03</pdfrwt>
<totfact> 0.15565933E+02</totfact>
</mgrwt>
</event>
<event>
 4    1  0.4917371E-005  0.8422019E+03  0.7818608E-02  0.9500863E-01
          2   -1    0    0  501    0  0.00000000000E+00  0.00000000000E+00  0.13312678571E+04  0.13312678571E+04  0.25500000000E-02 0.  1.
         -2   -1    0    0    0  501 -0.00000000000E+00 -0.00000000000E+00 -0.13320085827E+03  0.13320085829E+03  0.25500000000E-02 0. -1.
    5000001    1    1    2    0    0 -0.16285851636E+03  0.30440773677E+03  0.36228025089E+03  0.53854892697E+03  0.19900000000E+03 0.  0.
   -5000001    1    1    2    0    0  0.16285851636E+03 -0.30440773677E+03  0.83578674798E+03  0.92591978846E+03  0.19900000000E+03 0.  0.
<mgrwt>
<rscale>  0 0.84220193E+03</rscale>
<asrwt>0</asrwt>
<pdfrwt beam="1">  1        2 0.19018111E+00 0.84220193E+03</pdfrwt>
<pdfrwt beam="2">  1       -2 0.19028695E-01 0.84220193E+03</pdfrwt>
<totfact> 0.42140867E+02</totfact>
</mgrwt>
</event>
<event>
 4    1  0.4917371E-005  0.6751289E+03  0.7818608E-02  0.9760737E-01
         -2   -1    0    0    0  501 -0.00000000000E+00  0.00000000000E+00  0.23999112711E+02  0.23999112846E+02  0.25500000000E-02 0. -1.
          2   -1    0    0  501    0  0.00000000000E+00 -0.00000000000E+00 -0.47480819200E+04  0.47480819200E+04  0.25500000000E-02 0.  1.
    5000001    1    1    2    0    0 -0.23541554746E+03  0.13516873741E+03 -0.21807695435E+04  0.22065919127E+04  0.19900000000E+03 0.  0.
   -5000001    1    1    2    0    0  0.23541554746E+03 -0.13516873741E+03 -0.25433132638E+04  0.25654891201E+04  0.19900000000E+03 0.  0.
<mgrwt>
<rscale>  0 0.67512889E+03</rscale>
<asrwt>0</asrwt>
<pdfrwt beam="1">  1        2 0.67829682E+00 0.67512889E+03</pdfrwt>
<pdfrwt beam="2">  1       -2 0.34284477E-02 0.67512889E+03</pdfrwt>
<totfact> 0.63530651E+01</totfact>
</mgrwt>
</event>
<event>
 4    1  0.4917371E-005  0.5860462E+03  0.7818608E-02  0.9934786E-01
          2   -1    0    0  501    0  0.00000000000E+00  0.00000000000E+00  0.39399478506E+04  0.39399478506E+04  0.25500000000E-02 0.  1.
         -2   -1    0    0    0  501 -0.00000000000E+00 -0.00000000000E+00 -0.21792808067E+02  0.21792808216E+02  0.25500000000E-02 0. -1.
    5000001    1    1    2    0    0  0.39213139395E+02 -0.20745572782E+03  0.16815026152E+04  0.17063492006E+04  0.19900000000E+03 0.  0.
   -5000001    1    1    2    0    0 -0.39213139395E+02  0.20745572782E+03  0.22366524273E+04  0.22553914583E+04  0.19900000000E+03 0.  0.
<mgrwt>
<rscale>  0 0.58604617E+03</rscale>
<asrwt>0</asrwt>
<pdfrwt beam="1">  1        2 0.56284936E+00 0.58604617E+03</pdfrwt>
<pdfrwt beam="2">  1       -2 0.31132602E-02 0.58604617E+03</pdfrwt>
<totfact> 0.29714954E+02</totfact>
</mgrwt>
</event>
<event>
 4    1  0.4917371E-005  0.4786237E+03  0.7818608E-02  0.1019514E+00
         -2   -1    0    0    0  501 -0.00000000000E+00  0.00000000000E+00  0.97438735211E+02  0.97438735244E+02  0.25500000000E-02 0. -1.
          2   -1    0    0  501    0  0.00000000000E+00 -0.00000000000E+00 -0.58775558570E+03  0.58775558570E+03  0.25500000000E-02 0.  1.
    5000001    1    1    2    0    0  0.81619818654E+02  0.80830686672E+02 -0.34091226517E+03  0.41111746162E+03  0.19900000000E+03 0.  0.
   -5000001    1    1    2    0    0 -0.81619818654E+02 -0.80830686672E+02 -0.14940458531E+03  0.27407685933E+03  0.19900000000E+03 0.  0.
<mgrwt>
<rscale>  0 0.47862370E+03</rscale>
<asrwt>0</asrwt>
<pdfrwt beam="1">  1        2 0.83965082E-01 0.47862370E+03</pdfrwt>
<pdfrwt beam="2">  1       -2 0.13919820E-01 0.47862370E+03</pdfrwt>
<totfact> 0.21979911E+03</totfact>
</mgrwt>
</event>
<event>
 4    1  0.4917371E-005  0.4381685E+03  0.7818608E-02  0.1031310E+00
         -2   -1    0    0    0  501 -0.00000000000E+00  0.00000000000E+00  0.60087974238E+02  0.60087974292E+02  0.25500000000E-02 0. -1.
          2   -1    0    0  501    0  0.00000000000E+00 -0.00000000000E+00 -0.79879404521E+03  0.79879404521E+03  0.25500000000E-02 0.  1.
    5000001    1    1    2    0    0 -0.86137738722E+02  0.67397293862E+01 -0.42918723627E+03  0.48090312721E+03  0.19900000000E+03 0.  0.
   -5000001    1    1    2    0    0  0.86137738722E+02 -0.67397293862E+01 -0.30951883470E+03  0.37797889229E+03  0.19900000000E+03 0.  0.
<mgrwt>
<rscale>  0 0.43816853E+03</rscale>
<asrwt>0</asrwt>
<pdfrwt beam="1">  1        2 0.11411343E+00 0.43816853E+03</pdfrwt>
<pdfrwt beam="2">  1       -2 0.85839968E-02 0.43816853E+03</pdfrwt>
<totfact> 0.33248467E+03</totfact>
</mgrwt>
</event>
<event>
 4    1  0.4917371E-005  0.6877432E+03  0.7818608E-02  0.9738426E-01
         -2   -1    0    0    0  501 -0.00000000000E+00  0.00000000000E+00  0.29473834648E+03  0.29473834649E+03  0.25500000000E-02 0. -1.
          2   -1    0    0  501    0  0.00000000000E+00 -0.00000000000E+00 -0.40119546286E+03  0.40119546286E+03  0.25500000000E-02 0.  1.
    5000001    1    1    2    0    0  0.95746467992E+02  0.26349930828E+03 -0.60196474124E+02  0.34903278799E+03  0.19900000000E+03 0.  0.
   -5000001    1    1    2    0    0 -0.95746467992E+02 -0.26349930828E+03 -0.46260642256E+02  0.34690102136E+03  0.19900000000E+03 0.  0.
<mgrwt>
<rscale>  0 0.68774323E+03</rscale>
<asrwt>0</asrwt>
<pdfrwt beam="1">  1        2 0.57313637E-01 0.68774323E+03</pdfrwt>
<pdfrwt beam="2">  1       -2 0.42105478E-01 0.68774323E+03</pdfrwt>
<totfact> 0.46401300E+02</totfact>
</mgrwt>
</event>
<event>
 4    1  0.4917371E-005  0.7291388E+03  0.7818608E-02  0.9668659E-01
         -2   -1    0    0    0  501 -0.00000000000E+00  0.00000000000E+00  0.70205679276E+03  0.70205679276E+03  0.25500000000E-02 0.  1.
          2   -1    0    0  501    0  0.00000000000E+00 -0.00000000000E+00 -0.18931639179E+03  0.18931639180E+03  0.25500000000E-02 0. -1.
    5000001    1    1    2    0    0 -0.18820927318E+03  0.21183582207E+03  0.11691546708E+03  0.36546870244E+03  0.19900000000E+03 0.  0.
   -5000001    1    1    2    0    0  0.18820927318E+03 -0.21183582207E+03  0.39582493390E+03  0.52590448212E+03  0.19900000000E+03 0.  0.
<mgrwt>
<rscale>  0 0.72913883E+03</rscale>
<asrwt>0</asrwt>
<pdfrwt beam="1">  1        2 0.27045199E-01 0.72913883E+03</pdfrwt>
<pdfrwt beam="2">  1       -2 0.10029383E+00 0.72913883E+03</pdfrwt>
<totfact> 0.16579684E+02</totfact>
</mgrwt>
</event>
<event>
 4    1  0.4917371E-005  0.1543670E+04  0.7818608E-02  0.8855921E-01
          2   -1    0    0  501    0  0.00000000000E+00  0.00000000000E+00  0.22906992806E+04  0.22906992806E+04  0.25500000000E-02 0.  1.
         -2   -1    0    0    0  501 -0.00000000000E+00 -0.00000000000E+00 -0.26006448605E+03  0.26006448606E+03  0.25500000000E-02 0. -1.
    5000001    1    1    2    0    0 -0.36195503772E+03  0.54304161430E+03  0.16116098857E+04  0.17500837317E+04  0.19900000000E+03 0.  0.
   -5000001    1    1    2    0    0  0.36195503772E+03 -0.54304161430E+03  0.41902490885E+03  0.80068003499E+03  0.19900000000E+03 0.  0.
<mgrwt>
<rscale>  0 0.15436703E+04</rscale>
<asrwt>0</asrwt>
<pdfrwt beam="1">  1        2 0.32724277E+00 0.15436703E+04</pdfrwt>
<pdfrwt beam="2">  1       -2 0.37152068E-01 0.15436703E+04</pdfrwt>
<totfact> 0.37403434E+01</totfact>
</mgrwt>
</event>
<event>
 4    1  0.4917371E-005  0.9794417E+03  0.7818608E-02  0.9331385E-01
          2   -1    0    0  501    0  0.00000000000E+00  0.00000000000E+00  0.27531551391E+04  0.27531551391E+04  0.25500000000E-02 0.  1.
         -2   -1    0    0    0  501 -0.00000000000E+00 -0.00000000000E+00 -0.87109704307E+02  0.87109704344E+02  0.25500000000E-02 0. -1.
    5000001    1    1    2    0    0  0.32498183701E+03 -0.24872078110E+03  0.80822984236E+03  0.92752989139E+03  0.19900000000E+03 0.  0.
   -5000001    1    1    2    0    0 -0.32498183701E+03  0.24872078110E+03  0.18578155924E+04  0.19127349520E+04  0.19900000000E+03 0.  0.
<mgrwt>
<rscale>  0 0.97944174E+03</rscale>
<asrwt>0</asrwt>
<pdfrwt beam="1">  1        2 0.39330784E+00 0.97944174E+03</pdfrwt>
<pdfrwt beam="2">  1       -2 0.12444245E-01 0.97944174E+03</pdfrwt>
<totfact> 0.15734267E+02</totfact>
</mgrwt>
</event>
<event>
 4    1  0.4917371E-005  0.5347772E+03  0.7818608E-02  0.1005080E+00
          2   -1    0    0  501    0  0.00000000000E+00  0.00000000000E+00  0.10880791665E+04  0.10880791666E+04  0.25500000000E-02 0.  1.
         -2   -1    0    0    0  501 -0.00000000000E+00 -0.00000000000E+00 -0.65709070028E+02  0.65709070078E+02  0.25500000000E-02 0. -1.
    5000001    1    1    2    0    0 -0.65919199912E+02 -0.11457446729E+03  0.77029334339E+03  0.80648960585E+03  0.19900000000E+03 0.  0.
   -5000001    1    1    2    0    0  0.65919199912E+02  0.11457446729E+03  0.25207675313E+03  0.34729863078E+03  0.19900000000E+03 0.  0.
<mgrwt>
<rscale>  0 0.53477723E+03</rscale>
<asrwt>0</asrwt>
<pdfrwt beam="1">  1        2 0.15543989E+00 0.53477723E+03</pdfrwt>
<pdfrwt beam="2">  1       -2 0.93870092E-02 0.53477723E+03</pdfrwt>
<totfact> 0.18984132E+03</totfact>
</mgrwt>
</event>
<event>
 4    1  0.4917371E-005  0.5623313E+03  0.7818608E-02  0.9986793E-01
         -2   -1    0    0    0  501 -0.00000000000E+00  0.00000000000E+00  0.23826088144E+02  0.23826088280E+02  0.25500000000E-02 0. -1.
          2   -1    0    0  501    0  0.00000000000E+00 -0.00000000000E+00 -0.33179652537E+04  0.33179652538E+04  0.25500000000E-02 0.  1.
    5000001    1    1    2    0    0 -0.12247940631E+03  0.10610273128E+03 -0.96445185981E+03  0.99801171558E+03  0.19900000000E+03 0.  0.
   -5000001    1    1    2    0    0  0.12247940631E+03 -0.10610273128E+03 -0.23296873058E+04  0.23437796264E+04  0.19900000000E+03 0.  0.
<mgrwt>
<rscale>  0 0.56233134E+03</rscale>
<asrwt>0</asrwt>
<pdfrwt beam="1">  1        2 0.47399474E+00 0.56233134E+03</pdfrwt>
<pdfrwt beam="2">  1       -2 0.34037290E-02 0.56233134E+03</pdfrwt>
<totfact> 0.62420484E+02</totfact>
</mgrwt>
</event>
<event>
 4    1  0.4917371E-005  0.9384303E+03  0.7818608E-02  0.9378777E-01
          2   -1    0    0  501    0  0.00000000000E+00  0.00000000000E+00  0.22495806673E+03  0.22495806674E+03  0.25500000000E-02 0.  1.
         -2   -1    0    0    0  501 -0.00000000000E+00 -0.00000000000E+00 -0.97868394757E+03  0.97868394758E+03  0.25500000000E-02 0. -1.
    5000001    1    1    2    0    0 -0.29065378454E+03 -0.24853473811E+03 -0.61445002957E+03  0.75059907898E+03  0.19900000000E+03 0.  0.
   -5000001    1    1    2    0    0  0.29065378454E+03  0.24853473811E+03 -0.13927585127E+03  0.45304293534E+03  0.19900000000E+03 0.  0.
<mgrwt>
<rscale>  0 0.93843028E+03</rscale>
<asrwt>0</asrwt>
<pdfrwt beam="1">  1        2 0.32136867E-01 0.93843028E+03</pdfrwt>
<pdfrwt beam="2">  1       -2 0.13981199E+00 0.93843028E+03</pdfrwt>
<totfact> 0.59429165E+01</totfact>
</mgrwt>
</event>
