<event>
 4    1  0.3145406E-005  0.7941887E+03  0.7818608E-02  0.9568467E-01
          2   -1    0    0  501    0  0.00000000000E+00  0.00000000000E+00  0.35885961294E+03  0.35885961295E+03  0.25500000000E-02 0.  1.
         -2   -1    0    0    0  501 -0.00000000000E+00 -0.00000000000E+00 -0.43940285202E+03  0.43940285203E+03  0.25500000000E-02 0. -1.
    5000001    1    1    2    0    0  0.10514700920E+03 -0.32843359803E+03 -0.14822090753E+03  0.41002312043E+03  0.16500000000E+03 0.  0.
   -5000001    1    1    2    0    0 -0.10514700920E+03  0.32843359803E+03  0.67677668448E+02  0.38823934456E+03  0.16500000000E+03 0.  0.
<mgrwt>
<rscale>  0 0.79418874E+03</rscale>
<asrwt>0</asrwt>
<pdfrwt beam="1">  1        2 0.55209171E-01 0.79418874E+03</pdfrwt>
<pdfrwt beam="2">  1       -2 0.67600439E-01 0.79418874E+03</pdfrwt>
<totfact> 0.18164444E+02</totfact>
</mgrwt>
</event>
<event>
 4    1  0.3145406E-005  0.5020728E+03  0.7818608E-02  0.1013239E+00
          2   -1    0    0  501    0  0.00000000000E+00  0.00000000000E+00  0.16438188966E+03  0.16438188968E+03  0.25500000000E-02 0.  1.
         -2   -1    0    0    0  501 -0.00000000000E+00 -0.00000000000E+00 -0.38337114675E+03  0.38337114676E+03  0.25500000000E-02 0. -1.
    5000001    1    1    2    0    0  0.79364183879E+02  0.15588850129E+03 -0.30865266317E+02  0.24244084470E+03  0.16500000000E+03 0.  0.
   -5000001    1    1    2    0    0 -0.79364183879E+02 -0.15588850129E+03 -0.18812399078E+03  0.30531219174E+03  0.16500000000E+03 0.  0.
<mgrwt>
<rscale>  0 0.50207280E+03</rscale>
<asrwt>0</asrwt>
<pdfrwt beam="1">  1        2 0.25289522E-01 0.50207280E+03</pdfrwt>
<pdfrwt beam="2">  1       -2 0.58980176E-01 0.50207280E+03</pdfrwt>
<totfact> 0.58498244E+02</totfact>
</mgrwt>
</event>
<event>
 4    1  0.3145406E-005  0.4201792E+03  0.7818608E-02  0.1037008E+00
          2   -1    0    0  501    0  0.00000000000E+00  0.00000000000E+00  0.34262291433E+03  0.34262291434E+03  0.25500000000E-02 0. -1.
         -2   -1    0    0    0  501 -0.00000000000E+00 -0.00000000000E+00 -0.12882277204E+03  0.12882277207E+03  0.25500000000E-02 0.  1.
    5000001    1    1    2    0    0 -0.11594759787E+03 -0.51743120671E+02  0.75335093229E+02  0.22140815762E+03  0.16500000000E+03 0.  0.
   -5000001    1    1    2    0    0  0.11594759787E+03  0.51743120671E+02  0.13846504906E+03  0.25003752878E+03  0.16500000000E+03 0.  0.
<mgrwt>
<rscale>  0 0.42017917E+03</rscale>
<asrwt>0</asrwt>
<pdfrwt beam="1">  1        2 0.52711218E-01 0.42017917E+03</pdfrwt>
<pdfrwt beam="2">  1       -2 0.19818888E-01 0.42017917E+03</pdfrwt>
<totfact> 0.20334276E+03</totfact>
</mgrwt>
</event>
<event>
 4    1  0.3145406E-005  0.5082606E+03  0.7818608E-02  0.1011645E+00
         -2   -1    0    0    0  501 -0.00000000000E+00  0.00000000000E+00  0.29519279698E+02  0.29519279808E+02  0.25500000000E-02 0. -1.
          2   -1    0    0  501    0  0.00000000000E+00 -0.00000000000E+00 -0.21877973784E+04  0.21877973784E+04  0.25500000000E-02 0.  1.
    5000001    1    1    2    0    0  0.58461715008E+02  0.18182449191E+03 -0.94977723473E+03  0.98274091885E+03  0.16500000000E+03 0.  0.
   -5000001    1    1    2    0    0 -0.58461715008E+02 -0.18182449191E+03 -0.12085008640E+04  0.12345757393E+04  0.16500000000E+03 0.  0.
<mgrwt>
<rscale>  0 0.50826057E+03</rscale>
<asrwt>0</asrwt>
<pdfrwt beam="1">  1        2 0.33658408E+00 0.50826057E+03</pdfrwt>
<pdfrwt beam="2">  1       -2 0.45414294E-02 0.50826057E+03</pdfrwt>
<totfact> 0.13128217E+03</totfact>
</mgrwt>
</event>
<event>
 4    1  0.3145406E-005  0.5047269E+03  0.7818608E-02  0.1012552E+00
          2   -1    0    0  501    0  0.00000000000E+00  0.00000000000E+00  0.13258106307E+04  0.13258106307E+04  0.25500000000E-02 0.  1.
         -2   -1    0    0    0  501 -0.00000000000E+00 -0.00000000000E+00 -0.48036508495E+02  0.48036508563E+02  0.25500000000E-02 0. -1.
    5000001    1    1    2    0    0 -0.60189366985E+02  0.91462251747E+02  0.21305702015E+03  0.29087178829E+03  0.16500000000E+03 0.  0.
   -5000001    1    1    2    0    0  0.60189366985E+02 -0.91462251747E+02  0.10647171020E+04  0.10829753509E+04  0.16500000000E+03 0.  0.
<mgrwt>
<rscale>  0 0.50472691E+03</rscale>
<asrwt>0</asrwt>
<pdfrwt beam="1">  1        2 0.20397083E+00 0.50472691E+03</pdfrwt>
<pdfrwt beam="2">  1       -2 0.73902335E-02 0.50472691E+03</pdfrwt>
<totfact> 0.18090341E+03</totfact>
</mgrwt>
</event>
<event>
 4    1  0.3145406E-005  0.4128273E+03  0.7818608E-02  0.1039426E+00
         -2   -1    0    0    0  501 -0.00000000000E+00  0.00000000000E+00  0.19572700592E+02  0.19572700758E+02  0.25500000000E-02 0. -1.
          2   -1    0    0  501    0  0.00000000000E+00 -0.00000000000E+00 -0.21768382468E+04  0.21768382468E+04  0.25500000000E-02 0.  1.
    5000001    1    1    2    0    0  0.29342925371E+02 -0.91732394880E+02 -0.14943663960E+04  0.15065297094E+04  0.16500000000E+03 0.  0.
   -5000001    1    1    2    0    0 -0.29342925371E+02  0.91732394880E+02 -0.66289915015E+03  0.68988123820E+03  0.16500000000E+03 0.  0.
<mgrwt>
<rscale>  0 0.41282734E+03</rscale>
<asrwt>0</asrwt>
<pdfrwt beam="1">  1        2 0.33489800E+00 0.41282734E+03</pdfrwt>
<pdfrwt beam="2">  1       -2 0.30111864E-02 0.41282734E+03</pdfrwt>
<totfact> 0.25023401E+03</totfact>
</mgrwt>
</event>
<event>
 4    1  0.3145406E-005  0.6883162E+03  0.7818608E-02  0.9737424E-01
          2   -1    0    0  501    0  0.00000000000E+00  0.00000000000E+00  0.70707132056E+03  0.70707132056E+03  0.25500000000E-02 0.  1.
         -2   -1    0    0    0  501 -0.00000000000E+00 -0.00000000000E+00 -0.16751462569E+03  0.16751462571E+03  0.25500000000E-02 0. -1.
    5000001    1    1    2    0    0 -0.17371440044E+03 -0.71479951393E+02 -0.30726401743E+02  0.25190313244E+03  0.16500000000E+03 0.  0.
   -5000001    1    1    2    0    0  0.17371440044E+03  0.71479951393E+02  0.57028309661E+03  0.62268281384E+03  0.16500000000E+03 0.  0.
<mgrwt>
<rscale>  0 0.68831617E+03</rscale>
<asrwt>0</asrwt>
<pdfrwt beam="1">  1        2 0.10878020E+00 0.68831617E+03</pdfrwt>
<pdfrwt beam="2">  1       -2 0.25771481E-01 0.68831617E+03</pdfrwt>
<totfact> 0.55194216E+02</totfact>
</mgrwt>
</event>
<event>
 4    1  0.3145406E-005  0.6392850E+03  0.7818608E-02  0.9827096E-01
         -2   -1    0    0    0  501 -0.00000000000E+00  0.00000000000E+00  0.35734761755E+02  0.35734761846E+02  0.25500000000E-02 0. -1.
          2   -1    0    0  501    0  0.00000000000E+00 -0.00000000000E+00 -0.28591577440E+04  0.28591577440E+04  0.25500000000E-02 0.  1.
    5000001    1    1    2    0    0 -0.48561082666E+02  0.23197335612E+03 -0.79120645310E+03  0.84226033276E+03  0.16500000000E+03 0.  0.
   -5000001    1    1    2    0    0  0.48561082666E+02 -0.23197335612E+03 -0.20322165291E+04  0.20526321730E+04  0.16500000000E+03 0.  0.
<mgrwt>
<rscale>  0 0.63928498E+03</rscale>
<asrwt>0</asrwt>
<pdfrwt beam="1">  1        2 0.43987024E+00 0.63928498E+03</pdfrwt>
<pdfrwt beam="2">  1       -2 0.54976579E-02 0.63928498E+03</pdfrwt>
<totfact> 0.40257308E+02</totfact>
</mgrwt>
</event>
<event>
 4    1  0.3145406E-005  0.4058076E+03  0.7818608E-02  0.1041787E+00
         -2   -1    0    0    0  501 -0.00000000000E+00  0.00000000000E+00  0.19276040476E+02  0.19276040645E+02  0.25500000000E-02 0. -1.
          2   -1    0    0  501    0  0.00000000000E+00 -0.00000000000E+00 -0.21358091816E+04  0.21358091816E+04  0.25500000000E-02 0.  1.
    5000001    1    1    2    0    0 -0.72747966266E+02  0.72684841461E+02 -0.13665377678E+04  0.13802991790E+04  0.16500000000E+03 0.  0.
   -5000001    1    1    2    0    0  0.72747966266E+02 -0.72684841461E+02 -0.74999537331E+03  0.77478604322E+03  0.16500000000E+03 0.  0.
<mgrwt>
<rscale>  0 0.40580756E+03</rscale>
<asrwt>0</asrwt>
<pdfrwt beam="1">  1        2 0.32858584E+00 0.40580756E+03</pdfrwt>
<pdfrwt beam="2">  1       -2 0.29655464E-02 0.40580756E+03</pdfrwt>
<totfact> 0.26951422E+03</totfact>
</mgrwt>
</event>
<event>
 4    1  0.3145406E-005  0.6402356E+03  0.7818608E-02  0.9825276E-01
          2   -1    0    0  501    0  0.00000000000E+00  0.00000000000E+00  0.10206113703E+03  0.10206113706E+03  0.25500000000E-02 0.  1.
         -2   -1    0    0    0  501 -0.00000000000E+00 -0.00000000000E+00 -0.10040588756E+04  0.10040588756E+04  0.25500000000E-02 0. -1.
    5000001    1    1    2    0    0 -0.91682116681E+02  0.15768121975E+03 -0.97008873204E+02  0.26439496792E+03  0.16500000000E+03 0.  0.
   -5000001    1    1    2    0    0  0.91682116681E+02 -0.15768121975E+03 -0.80498886540E+03  0.84172504478E+03  0.16500000000E+03 0.  0.
<mgrwt>
<rscale>  0 0.64023555E+03</rscale>
<asrwt>0</asrwt>
<pdfrwt beam="1">  1        2 0.15701714E-01 0.64023555E+03</pdfrwt>
<pdfrwt beam="2">  1       -2 0.15447059E+00 0.64023555E+03</pdfrwt>
<totfact> 0.10678061E+02</totfact>
</mgrwt>
</event>
<event>
 4    1  0.3145406E-005  0.4066835E+03  0.7818608E-02  0.1041490E+00
          2   -1    0    0  501    0  0.00000000000E+00  0.00000000000E+00  0.21163544730E+03  0.21163544732E+03  0.25500000000E-02 0.  1.
         -2   -1    0    0    0  501 -0.00000000000E+00 -0.00000000000E+00 -0.19537310140E+03  0.19537310142E+03  0.25500000000E-02 0. -1.
    5000001    1    1    2    0    0  0.65996053094E+02  0.65388680638E+02 -0.66034159127E+02  0.20054094034E+03  0.16500000000E+03 0.  0.
   -5000001    1    1    2    0    0 -0.65996053094E+02 -0.65388680638E+02  0.82296505027E+02  0.20646760840E+03  0.16500000000E+03 0.  0.
<mgrwt>
<rscale>  0 0.40668353E+03</rscale>
<asrwt>0</asrwt>
<pdfrwt beam="1">  1        2 0.32559300E-01 0.40668353E+03</pdfrwt>
<pdfrwt beam="2">  1       -2 0.30057400E-01 0.40668353E+03</pdfrwt>
<totfact> 0.16438176E+03</totfact>
</mgrwt>
</event>
<event>
 4    1  0.3145406E-005  0.5464778E+03  0.7818608E-02  0.1002312E+00
          2   -1    0    0  501    0  0.00000000000E+00  0.00000000000E+00  0.27337311811E+03  0.27337311812E+03  0.25500000000E-02 0.  1.
         -2   -1    0    0    0  501 -0.00000000000E+00 -0.00000000000E+00 -0.27310475824E+03  0.27310475825E+03  0.25500000000E-02 0. -1.
    5000001    1    1    2    0    0 -0.16910107480E+03  0.17354518195E+02 -0.13602069881E+03  0.27317207637E+03  0.16500000000E+03 0.  0.
   -5000001    1    1    2    0    0  0.16910107480E+03 -0.17354518195E+02  0.13628905868E+03  0.27330580001E+03  0.16500000000E+03 0.  0.
<mgrwt>
<rscale>  0 0.54647781E+03</rscale>
<asrwt>0</asrwt>
<pdfrwt beam="1">  1        2 0.42057402E-01 0.54647781E+03</pdfrwt>
<pdfrwt beam="2">  1       -2 0.42016117E-01 0.54647781E+03</pdfrwt>
<totfact> 0.65786861E+02</totfact>
</mgrwt>
</event>
<event>
 4    1  0.3145406E-005  0.5218199E+03  0.7818608E-02  0.1008235E+00
         -2   -1    0    0    0  501 -0.00000000000E+00  0.00000000000E+00  0.11785011307E+04  0.11785011307E+04  0.25500000000E-02 0. -1.
          2   -1    0    0  501    0  0.00000000000E+00 -0.00000000000E+00 -0.57763204331E+02  0.57763204387E+02  0.25500000000E-02 0.  1.
    5000001    1    1    2    0    0  0.50201522858E+02  0.12474304450E+03  0.91784996827E+03  0.94220729370E+03  0.16500000000E+03 0.  0.
   -5000001    1    1    2    0    0 -0.50201522858E+02 -0.12474304450E+03  0.20288795809E+03  0.29405704138E+03  0.16500000000E+03 0.  0.
<mgrwt>
<rscale>  0 0.52181990E+03</rscale>
<asrwt>0</asrwt>
<pdfrwt beam="1">  1        2 0.88866477E-02 0.52181990E+03</pdfrwt>
<pdfrwt beam="2">  1       -2 0.18130785E+00 0.52181990E+03</pdfrwt>
<totfact> 0.14059369E+02</totfact>
</mgrwt>
</event>
<event>
 4    1  0.3145406E-005  0.6460231E+03  0.7818608E-02  0.9814270E-01
          2   -1    0    0  501    0  0.00000000000E+00  0.00000000000E+00  0.67828416146E+03  0.67828416147E+03  0.25500000000E-02 0.  1.
         -2   -1    0    0    0  501 -0.00000000000E+00 -0.00000000000E+00 -0.15382410706E+03  0.15382410708E+03  0.25500000000E-02 0. -1.
    5000001    1    1    2    0    0 -0.26539482988E+03  0.74522015157E+02  0.21905624632E+03  0.38884262307E+03  0.16500000000E+03 0.  0.
   -5000001    1    1    2    0    0  0.26539482988E+03 -0.74522015157E+02  0.30540380809E+03  0.44326564548E+03  0.16500000000E+03 0.  0.
<mgrwt>
<rscale>  0 0.64602308E+03</rscale>
<asrwt>0</asrwt>
<pdfrwt beam="1">  1        2 0.10435141E+00 0.64602308E+03</pdfrwt>
<pdfrwt beam="2">  1       -2 0.23665247E-01 0.64602308E+03</pdfrwt>
<totfact> 0.67852060E+02</totfact>
</mgrwt>
</event>
<event>
 4    1  0.3145406E-005  0.2198548E+04  0.7818608E-02  0.8519033E-01
         -2   -1    0    0    0  501 -0.00000000000E+00  0.00000000000E+00  0.62531888632E+03  0.62531888633E+03  0.25500000000E-02 0. -1.
          2   -1    0    0  501    0  0.00000000000E+00 -0.00000000000E+00 -0.19324595873E+04  0.19324595873E+04  0.25500000000E-02 0.  1.
    5000001    1    1    2    0    0  0.67553761995E+03 -0.85136554761E+03 -0.65121311461E+03  0.12776845825E+04  0.16500000000E+03 0.  0.
   -5000001    1    1    2    0    0 -0.67553761995E+03  0.85136554761E+03 -0.65592758635E+03  0.12800938911E+04  0.16500000000E+03 0.  0.
<mgrwt>
<rscale>  0 0.21985481E+04</rscale>
<asrwt>0</asrwt>
<pdfrwt beam="1">  1        2 0.29730147E+00 0.21985481E+04</pdfrwt>
<pdfrwt beam="2">  1       -2 0.96202906E-01 0.21985481E+04</pdfrwt>
<totfact> 0.60259036E+00</totfact>
</mgrwt>
</event>
<event>
 4    1  0.3145406E-005  0.8407408E+03  0.7818608E-02  0.9502849E-01
         -2   -1    0    0    0  501 -0.00000000000E+00  0.00000000000E+00  0.42260418562E+03  0.42260418563E+03  0.25500000000E-02 0. -1.
          2   -1    0    0  501    0  0.00000000000E+00 -0.00000000000E+00 -0.41814841966E+03  0.41814841967E+03  0.25500000000E-02 0.  1.
    5000001    1    1    2    0    0  0.32692882214E+03 -0.20465111695E+03  0.29093441343E+02  0.42051868299E+03  0.16500000000E+03 0.  0.
   -5000001    1    1    2    0    0 -0.32692882214E+03  0.20465111695E+03 -0.24637675383E+02  0.42023392231E+03  0.16500000000E+03 0.  0.
<mgrwt>
<rscale>  0 0.84074080E+03</rscale>
<asrwt>0</asrwt>
<pdfrwt beam="1">  1        2 0.64330526E-01 0.84074080E+03</pdfrwt>
<pdfrwt beam="2">  1       -2 0.65016028E-01 0.84074080E+03</pdfrwt>
<totfact> 0.16605810E+02</totfact>
</mgrwt>
</event>
<event>
 4    1  0.3145406E-005  0.3454845E+03  0.7818608E-02  0.1064484E+00
          2   -1    0    0  501    0  0.00000000000E+00  0.00000000000E+00  0.23196799932E+04  0.23196799932E+04  0.25500000000E-02 0.  1.
         -2   -1    0    0    0  501 -0.00000000000E+00 -0.00000000000E+00 -0.12863796204E+02  0.12863796457E+02  0.25500000000E-02 0. -1.
    5000001    1    1    2    0    0 -0.43248695326E+02 -0.15468599804E+02  0.10016620860E+04  0.10161996171E+04  0.16500000000E+03 0.  0.
   -5000001    1    1    2    0    0  0.43248695326E+02  0.15468599804E+02  0.13051541110E+04  0.13163441726E+04  0.16500000000E+03 0.  0.
<mgrwt>
<rscale>  0 0.34548454E+03</rscale>
<asrwt>0</asrwt>
<pdfrwt beam="1">  1        2 0.35687349E+00 0.34548454E+03</pdfrwt>
<pdfrwt beam="2">  1       -2 0.19790475E-02 0.34548454E+03</pdfrwt>
<totfact> 0.39339183E+03</totfact>
</mgrwt>
</event>
<event>
 4    1  0.3145406E-005  0.6036791E+03  0.7818608E-02  0.9897802E-01
         -2   -1    0    0    0  501 -0.00000000000E+00  0.00000000000E+00  0.18177062758E+03  0.18177062760E+03  0.25500000000E-02 0. -1.
          2   -1    0    0  501    0  0.00000000000E+00 -0.00000000000E+00 -0.50122014123E+03  0.50122014123E+03  0.25500000000E-02 0.  1.
    5000001    1    1    2    0    0  0.75064790403E+02  0.54903276876E+02 -0.42561847171E+03  0.46585960979E+03  0.16500000000E+03 0.  0.
   -5000001    1    1    2    0    0 -0.75064790403E+02 -0.54903276876E+02  0.10616895807E+03  0.21713115904E+03  0.16500000000E+03 0.  0.
<mgrwt>
<rscale>  0 0.60367905E+03</rscale>
<asrwt>0</asrwt>
<pdfrwt beam="1">  1        2 0.77110790E-01 0.60367905E+03</pdfrwt>
<pdfrwt beam="2">  1       -2 0.27964712E-01 0.60367905E+03</pdfrwt>
<totfact> 0.72094210E+02</totfact>
</mgrwt>
</event>
<event>
 4    1  0.3145406E-005  0.3728344E+03  0.7818608E-02  0.1053614E+00
          2   -1    0    0  501    0  0.00000000000E+00  0.00000000000E+00  0.32400490988E+02  0.32400491088E+02  0.25500000000E-02 0.  1.
         -2   -1    0    0    0  501 -0.00000000000E+00 -0.00000000000E+00 -0.10725568406E+04  0.10725568406E+04  0.25500000000E-02 0. -1.
    5000001    1    1    2    0    0  0.56776530493E+02  0.55044579917E+02 -0.41434173753E+03  0.45294321460E+03  0.16500000000E+03 0.  0.
   -5000001    1    1    2    0    0 -0.56776530493E+02 -0.55044579917E+02 -0.62581461213E+03  0.65201411714E+03  0.16500000000E+03 0.  0.
<mgrwt>
<rscale>  0 0.37283438E+03</rscale>
<asrwt>0</asrwt>
<pdfrwt beam="1">  1        2 0.49846918E-02 0.37283438E+03</pdfrwt>
<pdfrwt beam="2">  1       -2 0.16500872E+00 0.37283438E+03</pdfrwt>
<totfact> 0.39050597E+02</totfact>
</mgrwt>
</event>
<event>
 4    1  0.3145406E-005  0.8203711E+03  0.7818608E-02  0.9530990E-01
          2   -1    0    0  501    0  0.00000000000E+00  0.00000000000E+00  0.29614347447E+03  0.29614347449E+03  0.25500000000E-02 0.  1.
         -2   -1    0    0    0  501 -0.00000000000E+00 -0.00000000000E+00 -0.56814422647E+03  0.56814422647E+03  0.25500000000E-02 0. -1.
    5000001    1    1    2    0    0  0.49431558434E+02 -0.13461301867E+03 -0.50165822721E+03  0.54722035844E+03  0.16500000000E+03 0.  0.
   -5000001    1    1    2    0    0 -0.49431558434E+02  0.13461301867E+03  0.22965747522E+03  0.31706734252E+03  0.16500000000E+03 0.  0.
<mgrwt>
<rscale>  0 0.82037115E+03</rscale>
<asrwt>0</asrwt>
<pdfrwt beam="1">  1        2 0.45560535E-01 0.82037115E+03</pdfrwt>
<pdfrwt beam="2">  1       -2 0.87406804E-01 0.82037115E+03</pdfrwt>
<totfact> 0.12676450E+02</totfact>
</mgrwt>
</event>
<event>
 4    1  0.3145406E-005  0.7113927E+03  0.7818608E-02  0.9697945E-01
          2   -1    0    0  501    0  0.00000000000E+00  0.00000000000E+00  0.17451847110E+03  0.17451847112E+03  0.25500000000E-02 0.  1.
         -2   -1    0    0    0  501 -0.00000000000E+00 -0.00000000000E+00 -0.72496555070E+03  0.72496555071E+03  0.25500000000E-02 0. -1.
    5000001    1    1    2    0    0 -0.22576244079E+03 -0.13577541726E+03 -0.49382648494E+03  0.58351798672E+03  0.16500000000E+03 0.  0.
   -5000001    1    1    2    0    0  0.22576244079E+03  0.13577541726E+03 -0.56620594668E+02  0.31596603511E+03  0.16500000000E+03 0.  0.
<mgrwt>
<rscale>  0 0.71139266E+03</rscale>
<asrwt>0</asrwt>
<pdfrwt beam="1">  1        2 0.26848996E-01 0.71139266E+03</pdfrwt>
<pdfrwt beam="2">  1       -2 0.11153316E+00 0.71139266E+03</pdfrwt>
<totfact> 0.12961160E+02</totfact>
</mgrwt>
</event>
<event>
 4    1  0.3145406E-005  0.4200910E+03  0.7818608E-02  0.1037037E+00
         -2   -1    0    0    0  501 -0.00000000000E+00  0.00000000000E+00  0.68828273309E+02  0.68828273356E+02  0.25500000000E-02 0. -1.
          2   -1    0    0  501    0  0.00000000000E+00 -0.00000000000E+00 -0.64100266974E+03  0.64100266974E+03  0.25500000000E-02 0.  1.
    5000001    1    1    2    0    0  0.12619028289E+03 -0.80905949004E+01 -0.33690954171E+03  0.39588190728E+03  0.16500000000E+03 0.  0.
   -5000001    1    1    2    0    0 -0.12619028289E+03  0.80905949004E+01 -0.23526485472E+03  0.31394903581E+03  0.16500000000E+03 0.  0.
<mgrwt>
<rscale>  0 0.42009098E+03</rscale>
<asrwt>0</asrwt>
<pdfrwt beam="1">  1        2 0.98615792E-01 0.42009098E+03</pdfrwt>
<pdfrwt beam="2">  1       -2 0.10588966E-01 0.42009098E+03</pdfrwt>
<totfact> 0.28403499E+03</totfact>
</mgrwt>
</event>
<event>
 4    1  0.3145406E-005  0.9327331E+03  0.7818608E-02  0.9385564E-01
         -2   -1    0    0    0  501 -0.00000000000E+00  0.00000000000E+00  0.10257017212E+03  0.10257017215E+03  0.25500000000E-02 0. -1.
          2   -1    0    0  501    0  0.00000000000E+00 -0.00000000000E+00 -0.21204775270E+04  0.21204775270E+04  0.25500000000E-02 0.  1.
    5000001    1    1    2    0    0  0.29032662048E+03 -0.32522027231E+03 -0.97400882370E+03  0.10798036677E+04  0.16500000000E+03 0.  0.
   -5000001    1    1    2    0    0 -0.29032662048E+03  0.32522027231E+03 -0.10438985312E+04  0.11432440315E+04  0.16500000000E+03 0.  0.
<mgrwt>
<rscale>  0 0.93273307E+03</rscale>
<asrwt>0</asrwt>
<pdfrwt beam="1">  1        2 0.32622728E+00 0.93273307E+03</pdfrwt>
<pdfrwt beam="2">  1       -2 0.15780028E-01 0.93273307E+03</pdfrwt>
<totfact> 0.18605743E+02</totfact>
</mgrwt>
</event>
<event>
 4    1  0.3145406E-005  0.8570959E+03  0.7818608E-02  0.9480862E-01
         -2   -1    0    0    0  501 -0.00000000000E+00  0.00000000000E+00  0.17149629305E+03  0.17149629307E+03  0.25500000000E-02 0. -1.
          2   -1    0    0  501    0  0.00000000000E+00 -0.00000000000E+00 -0.10708880873E+04  0.10708880873E+04  0.25500000000E-02 0.  1.
    5000001    1    1    2    0    0 -0.36399663362E+03  0.55505487025E+02 -0.65902061705E+03  0.77272736595E+03  0.16500000000E+03 0.  0.
   -5000001    1    1    2    0    0  0.36399663362E+03 -0.55505487025E+02 -0.24037117719E+03  0.46965701443E+03  0.16500000000E+03 0.  0.
<mgrwt>
<rscale>  0 0.85709588E+03</rscale>
<asrwt>0</asrwt>
<pdfrwt beam="1">  1        2 0.16475201E+00 0.85709588E+03</pdfrwt>
<pdfrwt beam="2">  1       -2 0.26384046E-01 0.85709588E+03</pdfrwt>
<totfact> 0.29605693E+02</totfact>
</mgrwt>
</event>
<event>
 4    1  0.3145406E-005  0.7494046E+03  0.7818608E-02  0.9636285E-01
          2   -1    0    0  501    0  0.00000000000E+00  0.00000000000E+00  0.29294888503E+03  0.29294888505E+03  0.25500000000E-02 0.  1.
         -2   -1    0    0    0  501 -0.00000000000E+00 -0.00000000000E+00 -0.47927068486E+03  0.47927068487E+03  0.25500000000E-02 0. -1.
    5000001    1    1    2    0    0 -0.17574797507E+03  0.23660461898E+03 -0.26029536864E+03  0.42643613285E+03  0.16500000000E+03 0.  0.
   -5000001    1    1    2    0    0  0.17574797507E+03 -0.23660461898E+03  0.73973568811E+02  0.34578343706E+03  0.16500000000E+03 0.  0.
<mgrwt>
<rscale>  0 0.74940460E+03</rscale>
<asrwt>0</asrwt>
<pdfrwt beam="1">  1        2 0.45069059E-01 0.74940460E+03</pdfrwt>
<pdfrwt beam="2">  1       -2 0.73733951E-01 0.74940460E+03</pdfrwt>
<totfact> 0.18863413E+02</totfact>
</mgrwt>
</event>
<event>
 4    1  0.3145406E-005  0.4263503E+03  0.7818608E-02  0.1035019E+00
          2   -1    0    0  501    0  0.00000000000E+00  0.00000000000E+00  0.23218795825E+04  0.23218795825E+04  0.25500000000E-02 0.  1.
         -2   -1    0    0    0  501 -0.00000000000E+00 -0.00000000000E+00 -0.19571923658E+02  0.19571923824E+02  0.25500000000E-02 0. -1.
    5000001    1    1    2    0    0  0.73074072864E+02 -0.94551986931E+02  0.80648828192E+03  0.83182224498E+03  0.16500000000E+03 0.  0.
   -5000001    1    1    2    0    0 -0.73074072864E+02  0.94551986931E+02  0.14958193770E+04  0.15096292614E+04  0.16500000000E+03 0.  0.
<mgrwt>
<rscale>  0 0.42635033E+03</rscale>
<asrwt>0</asrwt>
<pdfrwt beam="1">  1        2 0.35721209E+00 0.42635033E+03</pdfrwt>
<pdfrwt beam="2">  1       -2 0.30110665E-02 0.42635033E+03</pdfrwt>
<totfact> 0.20860979E+03</totfact>
</mgrwt>
</event>
<event>
 4    1  0.3145406E-005  0.4703378E+03  0.7818608E-02  0.1021825E+00
         -2   -1    0    0    0  501 -0.00000000000E+00  0.00000000000E+00  0.11529801667E+03  0.11529801670E+03  0.25500000000E-02 0. -1.
          2   -1    0    0  501    0  0.00000000000E+00 -0.00000000000E+00 -0.47966487799E+03  0.47966487800E+03  0.25500000000E-02 0.  1.
    5000001    1    1    2    0    0  0.12725619259E+03 -0.10300310323E+03 -0.22736305215E+03  0.32515032725E+03  0.16500000000E+03 0.  0.
   -5000001    1    1    2    0    0 -0.12725619259E+03  0.10300310323E+03 -0.13700380917E+03  0.26981256745E+03  0.16500000000E+03 0.  0.
<mgrwt>
<rscale>  0 0.47033779E+03</rscale>
<asrwt>0</asrwt>
<pdfrwt beam="1">  1        2 0.73794596E-01 0.47033779E+03</pdfrwt>
<pdfrwt beam="2">  1       -2 0.17738157E-01 0.47033779E+03</pdfrwt>
<totfact> 0.16940551E+03</totfact>
</mgrwt>
</event>
<event>
 4    1  0.3145406E-005  0.5442728E+03  0.7818608E-02  0.1002828E+00
         -2   -1    0    0    0  501 -0.00000000000E+00  0.00000000000E+00  0.38008483589E+02  0.38008483675E+02  0.25500000000E-02 0. -1.
          2   -1    0    0  501    0  0.00000000000E+00 -0.00000000000E+00 -0.19484656808E+04  0.19484656808E+04  0.25500000000E-02 0.  1.
    5000001    1    1    2    0    0  0.13865340662E+03 -0.81001132656E+02 -0.42573073284E+03  0.48400166068E+03  0.16500000000E+03 0.  0.
   -5000001    1    1    2    0    0 -0.13865340662E+03  0.81001132656E+02 -0.14847264644E+04  0.15024725038E+04  0.16500000000E+03 0.  0.
<mgrwt>
<rscale>  0 0.54427282E+03</rscale>
<asrwt>0</asrwt>
<pdfrwt beam="1">  1        2 0.29976387E+00 0.54427282E+03</pdfrwt>
<pdfrwt beam="2">  1       -2 0.58474606E-02 0.54427282E+03</pdfrwt>
<totfact> 0.11928121E+03</totfact>
</mgrwt>
</event>
<event>
 4    1  0.3145406E-005  0.7407101E+03  0.7818608E-02  0.9650039E-01
          2   -1    0    0  501    0  0.00000000000E+00  0.00000000000E+00  0.56761059145E+03  0.56761059146E+03  0.25500000000E-02 0.  1.
         -2   -1    0    0    0  501 -0.00000000000E+00 -0.00000000000E+00 -0.24164956357E+03  0.24164956358E+03  0.25500000000E-02 0. -1.
    5000001    1    1    2    0    0 -0.22321641847E+03 -0.20475691905E+03  0.15641049970E+02  0.34528337322E+03  0.16500000000E+03 0.  0.
   -5000001    1    1    2    0    0  0.22321641847E+03  0.20475691905E+03  0.31031997792E+03  0.46397678182E+03  0.16500000000E+03 0.  0.
<mgrwt>
<rscale>  0 0.74071007E+03</rscale>
<asrwt>0</asrwt>
<pdfrwt beam="1">  1        2 0.87324705E-01 0.74071007E+03</pdfrwt>
<pdfrwt beam="2">  1       -2 0.37176856E-01 0.74071007E+03</pdfrwt>
<totfact> 0.36413891E+02</totfact>
</mgrwt>
</event>
<event>
 4    1  0.3145406E-005  0.4276367E+03  0.7818608E-02  0.1034609E+00
         -2   -1    0    0    0  501 -0.00000000000E+00  0.00000000000E+00  0.83535135837E+02  0.83535135876E+02  0.25500000000E-02 0. -1.
          2   -1    0    0  501    0  0.00000000000E+00 -0.00000000000E+00 -0.54729413862E+03  0.54729413862E+03  0.25500000000E-02 0.  1.
    5000001    1    1    2    0    0  0.18150768537E+02  0.92790016962E+02 -0.37606650648E+03  0.42141482525E+03  0.16500000000E+03 0.  0.
   -5000001    1    1    2    0    0 -0.18150768537E+02 -0.92790016962E+02 -0.87692496301E+02  0.20941444925E+03  0.16500000000E+03 0.  0.
<mgrwt>
<rscale>  0 0.42763672E+03</rscale>
<asrwt>0</asrwt>
<pdfrwt beam="1">  1        2 0.84199096E-01 0.42763672E+03</pdfrwt>
<pdfrwt beam="2">  1       -2 0.12851560E-01 0.42763672E+03</pdfrwt>
<totfact> 0.24967243E+03</totfact>
</mgrwt>
</event>
<event>
 4    1  0.3145406E-005  0.4983988E+03  0.7818608E-02  0.1014198E+00
         -2   -1    0    0    0  501 -0.00000000000E+00  0.00000000000E+00  0.39900976930E+02  0.39900977012E+02  0.25500000000E-02 0. -1.
          2   -1    0    0  501    0  0.00000000000E+00 -0.00000000000E+00 -0.15563613107E+04  0.15563613107E+04  0.25500000000E-02 0.  1.
    5000001    1    1    2    0    0  0.11321566767E+03 -0.29846976346E+02 -0.12241958497E+04  0.12408018004E+04  0.16500000000E+03 0.  0.
   -5000001    1    1    2    0    0 -0.11321566767E+03  0.29846976346E+02 -0.29226448404E+03  0.35546048730E+03  0.16500000000E+03 0.  0.
<mgrwt>
<rscale>  0 0.49839878E+03</rscale>
<asrwt>0</asrwt>
<pdfrwt beam="1">  1        2 0.23944016E+00 0.49839878E+03</pdfrwt>
<pdfrwt beam="2">  1       -2 0.61386130E-02 0.49839878E+03</pdfrwt>
<totfact> 0.18046895E+03</totfact>
</mgrwt>
</event>
<event>
 4    1  0.3145406E-005  0.6252127E+03  0.7818608E-02  0.9854436E-01
          2   -1    0    0  501    0  0.00000000000E+00  0.00000000000E+00  0.86680142862E+03  0.86680142863E+03  0.25500000000E-02 0.  1.
         -2   -1    0    0    0  501 -0.00000000000E+00 -0.00000000000E+00 -0.11273946311E+03  0.11273946314E+03  0.25500000000E-02 0. -1.
    5000001    1    1    2    0    0  0.19725793842E+03 -0.84011977601E+02  0.62240857048E+03  0.67866496540E+03  0.16500000000E+03 0.  0.
   -5000001    1    1    2    0    0 -0.19725793842E+03  0.84011977601E+02  0.13165339503E+03  0.30087592637E+03  0.16500000000E+03 0.  0.
<mgrwt>
<rscale>  0 0.62521269E+03</rscale>
<asrwt>0</asrwt>
<pdfrwt beam="1">  1        2 0.13335406E+00 0.62521269E+03</pdfrwt>
<pdfrwt beam="2">  1       -2 0.17344533E-01 0.62521269E+03</pdfrwt>
<totfact> 0.84999212E+02</totfact>
</mgrwt>
</event>
<event>
 4    1  0.3145406E-005  0.4068572E+03  0.7818608E-02  0.1041431E+00
         -2   -1    0    0    0  501 -0.00000000000E+00  0.00000000000E+00  0.76949953388E+02  0.76949953430E+02  0.25500000000E-02 0. -1.
          2   -1    0    0  501    0  0.00000000000E+00 -0.00000000000E+00 -0.53779373497E+03  0.53779373497E+03  0.25500000000E-02 0.  1.
    5000001    1    1    2    0    0  0.22666531665E+02  0.10514864268E+03 -0.30729075384E+03  0.36499673438E+03  0.16500000000E+03 0.  0.
   -5000001    1    1    2    0    0 -0.22666531665E+02 -0.10514864268E+03 -0.15355302774E+03  0.24974695402E+03  0.16500000000E+03 0.  0.
<mgrwt>
<rscale>  0 0.40685724E+03</rscale>
<asrwt>0</asrwt>
<pdfrwt beam="1">  1        2 0.82737495E-01 0.40685724E+03</pdfrwt>
<pdfrwt beam="2">  1       -2 0.11838455E-01 0.40685724E+03</pdfrwt>
<totfact> 0.29127323E+03</totfact>
</mgrwt>
</event>
<event>
 4    1  0.3145406E-005  0.4770639E+03  0.7818608E-02  0.1019945E+00
          2   -1    0    0  501    0  0.00000000000E+00  0.00000000000E+00  0.73434110620E+02  0.73434110664E+02  0.25500000000E-02 0.  1.
         -2   -1    0    0    0  501 -0.00000000000E+00 -0.00000000000E+00 -0.77480995560E+03  0.77480995560E+03  0.25500000000E-02 0. -1.
    5000001    1    1    2    0    0  0.83564656578E+02 -0.13059170754E+03 -0.48416303632E+03  0.53448675535E+03  0.16500000000E+03 0.  0.
   -5000001    1    1    2    0    0 -0.83564656578E+02  0.13059170754E+03 -0.21721280866E+03  0.31375731091E+03  0.16500000000E+03 0.  0.
<mgrwt>
<rscale>  0 0.47706385E+03</rscale>
<asrwt>0</asrwt>
<pdfrwt beam="1">  1        2 0.11297556E-01 0.47706385E+03</pdfrwt>
<pdfrwt beam="2">  1       -2 0.11920153E+00 0.47706385E+03</pdfrwt>
<totfact> 0.31143374E+02</totfact>
</mgrwt>
</event>
<event>
 4    1  0.3145406E-005  0.3863014E+03  0.7818608E-02  0.1048629E+00
          2   -1    0    0  501    0  0.00000000000E+00  0.00000000000E+00  0.15104698431E+04  0.15104698431E+04  0.25500000000E-02 0.  1.
         -2   -1    0    0    0  501 -0.00000000000E+00 -0.00000000000E+00 -0.24699062606E+02  0.24699062738E+02  0.25500000000E-02 0. -1.
    5000001    1    1    2    0    0 -0.98684467583E+02 -0.13773550942E+02  0.69359242217E+03  0.71987761664E+03  0.16500000000E+03 0.  0.
   -5000001    1    1    2    0    0  0.98684467583E+02  0.13773550942E+02  0.79217835828E+03  0.81529128916E+03  0.16500000000E+03 0.  0.
<mgrwt>
<rscale>  0 0.38630138E+03</rscale>
<asrwt>0</asrwt>
<pdfrwt beam="1">  1        2 0.23238007E+00 0.38630138E+03</pdfrwt>
<pdfrwt beam="2">  1       -2 0.37998542E-02 0.38630138E+03</pdfrwt>
<totfact> 0.40066514E+03</totfact>
</mgrwt>
</event>
<event>
 4    1  0.3145406E-005  0.5828605E+03  0.7818608E-02  0.9941617E-01
         -2   -1    0    0    0  501 -0.00000000000E+00  0.00000000000E+00  0.20512716986E+03  0.20512716988E+03  0.25500000000E-02 0. -1.
          2   -1    0    0  501    0  0.00000000000E+00 -0.00000000000E+00 -0.41404365730E+03  0.41404365731E+03  0.25500000000E-02 0.  1.
    5000001    1    1    2    0    0 -0.22829618302E+03  0.38396475301E+02 -0.17258755625E+03  0.33257315145E+03  0.16500000000E+03 0.  0.
   -5000001    1    1    2    0    0  0.22829618302E+03 -0.38396475301E+02 -0.36328931189E+02  0.28659767574E+03  0.16500000000E+03 0.  0.
<mgrwt>
<rscale>  0 0.58286054E+03</rscale>
<asrwt>0</asrwt>
<pdfrwt beam="1">  1        2 0.63699024E-01 0.58286054E+03</pdfrwt>
<pdfrwt beam="2">  1       -2 0.31558026E-01 0.58286054E+03</pdfrwt>
<totfact> 0.71689988E+02</totfact>
</mgrwt>
</event>
<event>
 4    1  0.3145406E-005  0.9187938E+03  0.7818608E-02  0.9402388E-01
          2   -1    0    0  501    0  0.00000000000E+00  0.00000000000E+00  0.76431893864E+03  0.76431893864E+03  0.25500000000E-02 0.  1.
         -2   -1    0    0    0  501 -0.00000000000E+00 -0.00000000000E+00 -0.27612230568E+03  0.27612230569E+03  0.25500000000E-02 0. -1.
    5000001    1    1    2    0    0 -0.36975018644E+03  0.19847407992E+03  0.34355201502E+03  0.56688636233E+03  0.16500000000E+03 0.  0.
   -5000001    1    1    2    0    0  0.36975018644E+03 -0.19847407992E+03  0.14464461794E+03  0.47355488201E+03  0.16500000000E+03 0.  0.
<mgrwt>
<rscale>  0 0.91879379E+03</rscale>
<asrwt>0</asrwt>
<pdfrwt beam="1">  1        2 0.11758753E+00 0.91879379E+03</pdfrwt>
<pdfrwt beam="2">  1       -2 0.42480355E-01 0.91879379E+03</pdfrwt>
<totfact> 0.19251739E+02</totfact>
</mgrwt>
</event>
<event>
 4    1  0.3145406E-005  0.3915234E+03  0.7818608E-02  0.1046755E+00
          2   -1    0    0  501    0  0.00000000000E+00  0.00000000000E+00  0.38932801345E+03  0.38932801345E+03  0.25500000000E-02 0.  1.
         -2   -1    0    0    0  501 -0.00000000000E+00 -0.00000000000E+00 -0.98432814915E+02  0.98432814948E+02  0.25500000000E-02 0. -1.
    5000001    1    1    2    0    0  0.39748442851E+02  0.92061050823E+02  0.10522387456E+03  0.21989142676E+03  0.16500000000E+03 0.  0.
   -5000001    1    1    2    0    0 -0.39748442851E+02 -0.92061050823E+02  0.18567132397E+03  0.26786940164E+03  0.16500000000E+03 0.  0.
<mgrwt>
<rscale>  0 0.39152345E+03</rscale>
<asrwt>0</asrwt>
<pdfrwt beam="1">  1        2 0.59896619E-01 0.39152345E+03</pdfrwt>
<pdfrwt beam="2">  1       -2 0.15143510E-01 0.39152345E+03</pdfrwt>
<totfact> 0.27872394E+03</totfact>
</mgrwt>
</event>
<event>
 4    1  0.3145406E-005  0.5424493E+03  0.7818608E-02  0.1003257E+00
          2   -1    0    0  501    0  0.00000000000E+00  0.00000000000E+00  0.45106327828E+03  0.45106327829E+03  0.25500000000E-02 0.  1.
         -2   -1    0    0    0  501 -0.00000000000E+00 -0.00000000000E+00 -0.16308758387E+03  0.16308758389E+03  0.25500000000E-02 0. -1.
    5000001    1    1    2    0    0  0.20087682931E+03  0.33748524766E+02  0.22281364538E+03  0.34403689344E+03  0.16500000000E+03 0.  0.
   -5000001    1    1    2    0    0 -0.20087682931E+03 -0.33748524766E+02  0.65162049021E+02  0.27011396874E+03  0.16500000000E+03 0.  0.
<mgrwt>
<rscale>  0 0.54244933E+03</rscale>
<asrwt>0</asrwt>
<pdfrwt beam="1">  1        2 0.69394349E-01 0.54244933E+03</pdfrwt>
<pdfrwt beam="2">  1       -2 0.25090398E-01 0.54244933E+03</pdfrwt>
<totfact> 0.99034650E+02</totfact>
</mgrwt>
</event>
<event>
 4    1  0.3145406E-005  0.3593111E+03  0.7818608E-02  0.1058857E+00
         -2   -1    0    0    0  501 -0.00000000000E+00  0.00000000000E+00  0.43403010886E+02  0.43403010961E+02  0.25500000000E-02 0. -1.
          2   -1    0    0  501    0  0.00000000000E+00 -0.00000000000E+00 -0.74363787136E+03  0.74363787137E+03  0.25500000000E-02 0.  1.
    5000001    1    1    2    0    0  0.63694607690E+02  0.31411063781E+02 -0.34413287008E+03  0.38819594311E+03  0.16500000000E+03 0.  0.
   -5000001    1    1    2    0    0 -0.63694607690E+02 -0.31411063781E+02 -0.35610199040E+03  0.39884493922E+03  0.16500000000E+03 0.  0.
<mgrwt>
<rscale>  0 0.35931113E+03</rscale>
<asrwt>0</asrwt>
<pdfrwt beam="1">  1        2 0.11440582E+00 0.35931113E+03</pdfrwt>
<pdfrwt beam="2">  1       -2 0.66773869E-02 0.35931113E+03</pdfrwt>
<totfact> 0.49029191E+03</totfact>
</mgrwt>
</event>
<event>
 4    1  0.3145406E-005  0.3533748E+03  0.7818608E-02  0.1061238E+00
         -2   -1    0    0    0  501 -0.00000000000E+00  0.00000000000E+00  0.51043725837E+02  0.51043725901E+02  0.25500000000E-02 0. -1.
          2   -1    0    0  501    0  0.00000000000E+00 -0.00000000000E+00 -0.61160180788E+03  0.61160180789E+03  0.25500000000E-02 0.  1.
    5000001    1    1    2    0    0  0.25350928526E+02 -0.53390835382E+02 -0.23834075507E+03  0.29584551105E+03  0.16500000000E+03 0.  0.
   -5000001    1    1    2    0    0 -0.25350928526E+02  0.53390835382E+02 -0.32221732698E+03  0.36680002274E+03  0.16500000000E+03 0.  0.
<mgrwt>
<rscale>  0 0.35337479E+03</rscale>
<asrwt>0</asrwt>
<pdfrwt beam="1">  1        2 0.94092581E-01 0.35337479E+03</pdfrwt>
<pdfrwt beam="2">  1       -2 0.78528813E-02 0.35337479E+03</pdfrwt>
<totfact> 0.48226888E+03</totfact>
</mgrwt>
</event>
<event>
 4    1  0.3145406E-005  0.5745707E+03  0.7818608E-02  0.9959615E-01
          2   -1    0    0  501    0  0.00000000000E+00  0.00000000000E+00  0.62195167471E+03  0.62195167472E+03  0.25500000000E-02 0.  1.
         -2   -1    0    0    0  501 -0.00000000000E+00 -0.00000000000E+00 -0.13269981135E+03  0.13269981137E+03  0.25500000000E-02 0. -1.
    5000001    1    1    2    0    0 -0.21294823480E+03  0.19706622243E+01  0.37568527708E+03  0.46229347998E+03  0.16500000000E+03 0.  0.
   -5000001    1    1    2    0    0  0.21294823480E+03 -0.19706622243E+01  0.11356658629E+03  0.29235800611E+03  0.16500000000E+03 0.  0.
<mgrwt>
<rscale>  0 0.57457069E+03</rscale>
<asrwt>0</asrwt>
<pdfrwt beam="1">  1        2 0.95684874E-01 0.57457069E+03</pdfrwt>
<pdfrwt beam="2">  1       -2 0.20415355E-01 0.57457069E+03</pdfrwt>
<totfact> 0.98079065E+02</totfact>
</mgrwt>
</event>
<event>
 4    1  0.3145406E-005  0.6069047E+03  0.7818608E-02  0.9891184E-01
          2   -1    0    0  501    0  0.00000000000E+00  0.00000000000E+00  0.23623881840E+04  0.23623881840E+04  0.25500000000E-02 0. -1.
         -2   -1    0    0    0  501 -0.00000000000E+00 -0.00000000000E+00 -0.38978919679E+02  0.38978919762E+02  0.25500000000E-02 0.  1.
    5000001    1    1    2    0    0  0.22296699773E+03  0.10003739124E+03  0.87812504890E+03  0.92631007941E+03  0.16500000000E+03 0.  0.
   -5000001    1    1    2    0    0 -0.22296699773E+03 -0.10003739124E+03  0.14452842154E+04  0.14750570243E+04  0.16500000000E+03 0.  0.
<mgrwt>
<rscale>  0 0.60690474E+03</rscale>
<asrwt>0</asrwt>
<pdfrwt beam="1">  1        2 0.36344439E+00 0.60690474E+03</pdfrwt>
<pdfrwt beam="2">  1       -2 0.59967560E-02 0.60690474E+03</pdfrwt>
<totfact> 0.67861395E+02</totfact>
</mgrwt>
</event>
<event>
 4    1  0.3145406E-005  0.1121850E+04  0.7818608E-02  0.9184154E-01
          2   -1    0    0  501    0  0.00000000000E+00  0.00000000000E+00  0.96238269512E+03  0.96238269512E+03  0.25500000000E-02 0.  1.
         -2   -1    0    0    0  501 -0.00000000000E+00 -0.00000000000E+00 -0.32693501175E+03  0.32693501176E+03  0.25500000000E-02 0. -1.
    5000001    1    1    2    0    0 -0.32648962375E+03  0.24024754198E+03  0.72095073888E+03  0.84339156015E+03  0.16500000000E+03 0.  0.
   -5000001    1    1    2    0    0  0.32648962375E+03 -0.24024754198E+03 -0.85503055516E+02  0.44592614674E+03  0.16500000000E+03 0.  0.
<mgrwt>
<rscale>  0 0.11218495E+04</rscale>
<asrwt>0</asrwt>
<pdfrwt beam="1">  1        2 0.14805887E+00 0.11218495E+04</pdfrwt>
<pdfrwt beam="2">  1       -2 0.50297695E-01 0.11218495E+04</pdfrwt>
<totfact> 0.98763404E+01</totfact>
</mgrwt>
</event>
<event>
 4    1  0.3145406E-005  0.8059361E+03  0.7818608E-02  0.9551464E-01
         -2   -1    0    0    0  501 -0.00000000000E+00  0.00000000000E+00  0.21035145253E+04  0.21035145253E+04  0.25500000000E-02 0. -1.
          2   -1    0    0  501    0  0.00000000000E+00 -0.00000000000E+00 -0.77196166016E+02  0.77196166058E+02  0.25500000000E-02 0.  1.
    5000001    1    1    2    0    0  0.22748234134E+03 -0.14364529339E+03  0.33521412383E+03  0.46040818275E+03  0.16500000000E+03 0.  0.
   -5000001    1    1    2    0    0 -0.22748234134E+03  0.14364529339E+03  0.16911042354E+04  0.17203025086E+04  0.16500000000E+03 0.  0.
<mgrwt>
<rscale>  0 0.80593612E+03</rscale>
<asrwt>0</asrwt>
<pdfrwt beam="1">  1        2 0.11876335E-01 0.80593612E+03</pdfrwt>
<pdfrwt beam="2">  1       -2 0.32361756E+00 0.80593612E+03</pdfrwt>
<totfact> 0.12662014E+01</totfact>
</mgrwt>
</event>
<event>
 4    1  0.3145406E-005  0.7046730E+03  0.7818608E-02  0.9709274E-01
         -2   -1    0    0    0  501 -0.00000000000E+00  0.00000000000E+00  0.14243848210E+03  0.14243848213E+03  0.25500000000E-02 0. -1.
          2   -1    0    0  501    0  0.00000000000E+00 -0.00000000000E+00 -0.87154123881E+03  0.87154123882E+03  0.25500000000E-02 0.  1.
    5000001    1    1    2    0    0 -0.15719847133E+02  0.27670983974E+03 -0.56855869161E+03  0.65368144750E+03  0.16500000000E+03 0.  0.
   -5000001    1    1    2    0    0  0.15719847133E+02 -0.27670983974E+03 -0.16054406510E+03  0.36029827344E+03  0.16500000000E+03 0.  0.
<mgrwt>
<rscale>  0 0.70467301E+03</rscale>
<asrwt>0</asrwt>
<pdfrwt beam="1">  1        2 0.13408326E+00 0.70467301E+03</pdfrwt>
<pdfrwt beam="2">  1       -2 0.21913613E-01 0.70467301E+03</pdfrwt>
<totfact> 0.56019964E+02</totfact>
</mgrwt>
</event>
<event>
 4    1  0.3145406E-005  0.4516085E+03  0.7818608E-02  0.1027243E+00
         -2   -1    0    0    0  501 -0.00000000000E+00  0.00000000000E+00  0.11234005020E+04  0.11234005020E+04  0.25500000000E-02 0. -1.
          2   -1    0    0  501    0  0.00000000000E+00 -0.00000000000E+00 -0.45386800888E+02  0.45386800959E+02  0.25500000000E-02 0.  1.
    5000001    1    1    2    0    0  0.59977368039E+02 -0.14199392735E+03  0.54348565308E+03  0.58852460882E+03  0.16500000000E+03 0.  0.
   -5000001    1    1    2    0    0 -0.59977368039E+02  0.14199392735E+03  0.53452804804E+03  0.58026269415E+03  0.16500000000E+03 0.  0.
<mgrwt>
<rscale>  0 0.45160848E+03</rscale>
<asrwt>0</asrwt>
<pdfrwt beam="1">  1        2 0.69825851E-02 0.45160848E+03</pdfrwt>
<pdfrwt beam="2">  1       -2 0.17283084E+00 0.45160848E+03</pdfrwt>
<totfact> 0.22018675E+02</totfact>
</mgrwt>
</event>
<event>
 4    1  0.3145406E-005  0.7355047E+03  0.7818608E-02  0.9658370E-01
         -2   -1    0    0    0  501 -0.00000000000E+00  0.00000000000E+00  0.77757037803E+02  0.77757037845E+02  0.25500000000E-02 0. -1.
          2   -1    0    0  501    0  0.00000000000E+00 -0.00000000000E+00 -0.17392870094E+04  0.17392870094E+04  0.25500000000E-02 0.  1.
    5000001    1    1    2    0    0 -0.36729397624E+02  0.26215646014E+03 -0.34955055337E+03  0.46849295363E+03  0.16500000000E+03 0.  0.
   -5000001    1    1    2    0    0  0.36729397624E+02 -0.26215646014E+03 -0.13119794182E+04  0.13485510936E+04  0.16500000000E+03 0.  0.
<mgrwt>
<rscale>  0 0.73550474E+03</rscale>
<asrwt>0</asrwt>
<pdfrwt beam="1">  1        2 0.26758259E+00 0.73550474E+03</pdfrwt>
<pdfrwt beam="2">  1       -2 0.11962622E-01 0.73550474E+03</pdfrwt>
<totfact> 0.48576227E+02</totfact>
</mgrwt>
</event>
<event>
 4    1  0.3145406E-005  0.6082318E+03  0.7818608E-02  0.9888473E-01
          2   -1    0    0  501    0  0.00000000000E+00  0.00000000000E+00  0.86286058351E+03  0.86286058351E+03  0.25500000000E-02 0.  1.
         -2   -1    0    0    0  501 -0.00000000000E+00 -0.00000000000E+00 -0.10718589812E+03  0.10718589815E+03  0.25500000000E-02 0. -1.
    5000001    1    1    2    0    0 -0.93575416470E+02  0.23354682397E+03  0.44846311479E+03  0.54004133441E+03  0.16500000000E+03 0.  0.
   -5000001    1    1    2    0    0  0.93575416470E+02 -0.23354682397E+03  0.30721157060E+03  0.43000514725E+03  0.16500000000E+03 0.  0.
<mgrwt>
<rscale>  0 0.60823182E+03</rscale>
<asrwt>0</asrwt>
<pdfrwt beam="1">  1        2 0.13274778E+00 0.60823182E+03</pdfrwt>
<pdfrwt beam="2">  1       -2 0.16490138E-01 0.60823182E+03</pdfrwt>
<totfact> 0.93275034E+02</totfact>
</mgrwt>
</event>
<event>
 4    1  0.3145406E-005  0.4934426E+03  0.7818608E-02  0.1015505E+00
          2   -1    0    0  501    0  0.00000000000E+00  0.00000000000E+00  0.84518939054E+02  0.84518939092E+02  0.25500000000E-02 0.  1.
         -2   -1    0    0    0  501 -0.00000000000E+00 -0.00000000000E+00 -0.72021011610E+03  0.72021011610E+03  0.25500000000E-02 0. -1.
    5000001    1    1    2    0    0 -0.78481676066E+02 -0.13417056168E+03 -0.15901352474E+03  0.27689603491E+03  0.16500000000E+03 0.  0.
   -5000001    1    1    2    0    0  0.78481676066E+02  0.13417056168E+03 -0.47667765230E+03  0.52783302028E+03  0.16500000000E+03 0.  0.
<mgrwt>
<rscale>  0 0.49344258E+03</rscale>
<asrwt>0</asrwt>
<pdfrwt beam="1">  1        2 0.13002914E-01 0.49344258E+03</pdfrwt>
<pdfrwt beam="2">  1       -2 0.11080155E+00 0.49344258E+03</pdfrwt>
<totfact> 0.31234448E+02</totfact>
</mgrwt>
</event>
<event>
 4    1  0.3145406E-005  0.5473975E+03  0.7818608E-02  0.1002098E+00
         -2   -1    0    0    0  501 -0.00000000000E+00  0.00000000000E+00  0.47243820802E+02  0.47243820871E+02  0.25500000000E-02 0.  1.
          2   -1    0    0  501    0  0.00000000000E+00 -0.00000000000E+00 -0.15856256719E+04  0.15856256719E+04  0.25500000000E-02 0. -1.
    5000001    1    1    2    0    0  0.13931145958E+03  0.14918233830E+03 -0.10006923734E+04  0.10345401293E+04  0.16500000000E+03 0.  0.
   -5000001    1    1    2    0    0 -0.13931145958E+03 -0.14918233830E+03 -0.53768947765E+03  0.59832936348E+03  0.16500000000E+03 0.  0.
<mgrwt>
<rscale>  0 0.54739753E+03</rscale>
<asrwt>0</asrwt>
<pdfrwt beam="1">  1        2 0.24394237E+00 0.54739753E+03</pdfrwt>
<pdfrwt beam="2">  1       -2 0.72682814E-02 0.54739753E+03</pdfrwt>
<totfact> 0.13313859E+03</totfact>
</mgrwt>
</event>
<event>
 4    1  0.3145406E-005  0.1125843E+04  0.7818608E-02  0.9180363E-01
         -2   -1    0    0    0  501 -0.00000000000E+00  0.00000000000E+00  0.17248505177E+03  0.17248505178E+03  0.25500000000E-02 0. -1.
          2   -1    0    0  501    0  0.00000000000E+00 -0.00000000000E+00 -0.18371489649E+04  0.18371489649E+04  0.25500000000E-02 0.  1.
    5000001    1    1    2    0    0  0.16647103592E+02  0.48577360313E+03 -0.41983540635E+03  0.66312886227E+03  0.16500000000E+03 0.  0.
   -5000001    1    1    2    0    0 -0.16647103592E+02 -0.48577360313E+03 -0.12448285068E+04  0.13465051544E+04  0.16500000000E+03 0.  0.
<mgrwt>
<rscale>  0 0.11258432E+04</rscale>
<asrwt>0</asrwt>
<pdfrwt beam="1">  1        2 0.28263829E+00 0.11258432E+04</pdfrwt>
<pdfrwt beam="2">  1       -2 0.26536163E-01 0.11258432E+04</pdfrwt>
<totfact> 0.10503700E+02</totfact>
</mgrwt>
</event>
<event>
 4    1  0.3145406E-005  0.6351320E+03  0.7818608E-02  0.9835085E-01
          2   -1    0    0  501    0  0.00000000000E+00  0.00000000000E+00  0.76226056055E+03  0.76226056055E+03  0.25500000000E-02 0.  1.
         -2   -1    0    0    0  501 -0.00000000000E+00 -0.00000000000E+00 -0.13230144222E+03  0.13230144224E+03  0.25500000000E-02 0. -1.
    5000001    1    1    2    0    0 -0.19989293369E+03 -0.34818141308E+02  0.56871342503E+03  0.62596281655E+03  0.16500000000E+03 0.  0.
   -5000001    1    1    2    0    0  0.19989293369E+03  0.34818141308E+02  0.61245693305E+02  0.26859918624E+03  0.16500000000E+03 0.  0.
<mgrwt>
<rscale>  0 0.63513202E+03</rscale>
<asrwt>0</asrwt>
<pdfrwt beam="1">  1        2 0.11727085E+00 0.63513202E+03</pdfrwt>
<pdfrwt beam="2">  1       -2 0.20354068E-01 0.63513202E+03</pdfrwt>
<totfact> 0.76396990E+02</totfact>
</mgrwt>
</event>
<event>
 4    1  0.3145406E-005  0.4775951E+03  0.7818608E-02  0.1019798E+00
         -2   -1    0    0    0  501 -0.00000000000E+00  0.00000000000E+00  0.18944470891E+03  0.18944470893E+03  0.25500000000E-02 0. -1.
          2   -1    0    0  501    0  0.00000000000E+00 -0.00000000000E+00 -0.30100745997E+03  0.30100745998E+03  0.25500000000E-02 0.  1.
    5000001    1    1    2    0    0  0.86147150919E+02 -0.12141326173E+03 -0.14552246429E+03  0.26563941603E+03  0.16500000000E+03 0.  0.
   -5000001    1    1    2    0    0 -0.86147150919E+02  0.12141326173E+03  0.33959713226E+02  0.22481275288E+03  0.16500000000E+03 0.  0.
<mgrwt>
<rscale>  0 0.47759510E+03</rscale>
<asrwt>0</asrwt>
<pdfrwt beam="1">  1        2 0.46308840E-01 0.47759510E+03</pdfrwt>
<pdfrwt beam="2">  1       -2 0.29145340E-01 0.47759510E+03</pdfrwt>
<totfact> 0.11822684E+03</totfact>
</mgrwt>
</event>
<event>
 4    1  0.3145406E-005  0.5404156E+03  0.7818608E-02  0.1003737E+00
         -2   -1    0    0    0  501 -0.00000000000E+00  0.00000000000E+00  0.91347179985E+02  0.91347180020E+02  0.25500000000E-02 0. -1.
          2   -1    0    0  501    0  0.00000000000E+00 -0.00000000000E+00 -0.79928313634E+03  0.79928313634E+03  0.25500000000E-02 0.  1.
    5000001    1    1    2    0    0  0.43971957897E+02 -0.20863575889E+03 -0.32426435764E+03  0.42170462009E+03  0.16500000000E+03 0.  0.
   -5000001    1    1    2    0    0 -0.43971957897E+02  0.20863575889E+03 -0.38367159871E+03  0.46892569627E+03  0.16500000000E+03 0.  0.
<mgrwt>
<rscale>  0 0.54041562E+03</rscale>
<asrwt>0</asrwt>
<pdfrwt beam="1">  1        2 0.12296663E+00 0.54041562E+03</pdfrwt>
<pdfrwt beam="2">  1       -2 0.14053413E-01 0.54041562E+03</pdfrwt>
<totfact> 0.13542016E+03</totfact>
</mgrwt>
</event>
<event>
 4    1  0.3145406E-005  0.4584024E+03  0.7818608E-02  0.1025246E+00
         -2   -1    0    0    0  501 -0.00000000000E+00  0.00000000000E+00  0.86162634491E+02  0.86162634529E+02  0.25500000000E-02 0. -1.
          2   -1    0    0  501    0  0.00000000000E+00 -0.00000000000E+00 -0.60969795276E+03  0.60969795276E+03  0.25500000000E-02 0.  1.
    5000001    1    1    2    0    0 -0.55741598955E+02 -0.14894598055E+03 -0.26786827475E+03  0.35252013218E+03  0.16500000000E+03 0.  0.
   -5000001    1    1    2    0    0  0.55741598955E+02  0.14894598055E+03 -0.25566704352E+03  0.34334045511E+03  0.16500000000E+03 0.  0.
<mgrwt>
<rscale>  0 0.45840236E+03</rscale>
<asrwt>0</asrwt>
<pdfrwt beam="1">  1        2 0.93799682E-01 0.45840236E+03</pdfrwt>
<pdfrwt beam="2">  1       -2 0.13255790E-01 0.45840236E+03</pdfrwt>
<totfact> 0.20909604E+03</totfact>
</mgrwt>
</event>
<event>
 4    1  0.3145406E-005  0.5724022E+03  0.7818608E-02  0.9964377E-01
          2   -1    0    0  501    0  0.00000000000E+00  0.00000000000E+00  0.19135437094E+04  0.19135437094E+04  0.25500000000E-02 0.  1.
         -2   -1    0    0    0  501 -0.00000000000E+00 -0.00000000000E+00 -0.42805963269E+02  0.42805963345E+02  0.25500000000E-02 0. -1.
    5000001    1    1    2    0    0 -0.16253176575E+03 -0.16448647631E+03  0.10544387525E+04  0.10920340922E+04  0.16500000000E+03 0.  0.
   -5000001    1    1    2    0    0  0.16253176575E+03  0.16448647631E+03  0.81629899364E+03  0.86431558056E+03  0.16500000000E+03 0.  0.
<mgrwt>
<rscale>  0 0.57240224E+03</rscale>
<asrwt>0</asrwt>
<pdfrwt beam="1">  1        2 0.29439136E+00 0.57240224E+03</pdfrwt>
<pdfrwt beam="2">  1       -2 0.65855324E-02 0.57240224E+03</pdfrwt>
<totfact> 0.10322365E+03</totfact>
</mgrwt>
</event>
<event>
 4    1  0.3145406E-005  0.5653732E+03  0.7818608E-02  0.9979970E-01
          2   -1    0    0  501    0  0.00000000000E+00  0.00000000000E+00  0.32974743942E+03  0.32974743943E+03  0.25500000000E-02 0.  1.
         -2   -1    0    0    0  501 -0.00000000000E+00 -0.00000000000E+00 -0.24234219407E+03  0.24234219408E+03  0.25500000000E-02 0. -1.
    5000001    1    1    2    0    0  0.18973860488E+03  0.11837974738E+03  0.96010194915E+02  0.29403649484E+03  0.16500000000E+03 0.  0.
   -5000001    1    1    2    0    0 -0.18973860488E+03 -0.11837974738E+03 -0.86049495683E+01  0.27805313867E+03  0.16500000000E+03 0.  0.
<mgrwt>
<rscale>  0 0.56537321E+03</rscale>
<asrwt>0</asrwt>
<pdfrwt beam="1">  1        2 0.50730376E-01 0.56537321E+03</pdfrwt>
<pdfrwt beam="2">  1       -2 0.37283414E-01 0.56537321E+03</pdfrwt>
<totfact> 0.67411206E+02</totfact>
</mgrwt>
</event>
<event>
 4    1  0.3145406E-005  0.4325690E+03  0.7818608E-02  0.1033052E+00
         -2   -1    0    0    0  501 -0.00000000000E+00  0.00000000000E+00  0.12414593237E+03  0.12414593239E+03  0.25500000000E-02 0. -1.
          2   -1    0    0  501    0  0.00000000000E+00 -0.00000000000E+00 -0.37680638779E+03  0.37680638780E+03  0.25500000000E-02 0.  1.
    5000001    1    1    2    0    0  0.70012435386E+01  0.13425608222E+03 -0.17088673059E+03  0.27294869063E+03  0.16500000000E+03 0.  0.
   -5000001    1    1    2    0    0 -0.70012435386E+01 -0.13425608222E+03 -0.81773724838E+02  0.22800362957E+03  0.16500000000E+03 0.  0.
<mgrwt>
<rscale>  0 0.43256898E+03</rscale>
<asrwt>0</asrwt>
<pdfrwt beam="1">  1        2 0.57970213E-01 0.43256898E+03</pdfrwt>
<pdfrwt beam="2">  1       -2 0.19099374E-01 0.43256898E+03</pdfrwt>
<totfact> 0.19527398E+03</totfact>
</mgrwt>
</event>
<event>
 4    1  0.3145406E-005  0.4769721E+03  0.7818608E-02  0.1019971E+00
          2   -1    0    0  501    0  0.00000000000E+00  0.00000000000E+00  0.16173374134E+03  0.16173374136E+03  0.25500000000E-02 0.  1.
         -2   -1    0    0    0  501 -0.00000000000E+00 -0.00000000000E+00 -0.35166197526E+03  0.35166197527E+03  0.25500000000E-02 0. -1.
    5000001    1    1    2    0    0  0.91207565536E+02 -0.13805197904E+03 -0.43642446592E+02  0.23771165742E+03  0.16500000000E+03 0.  0.
   -5000001    1    1    2    0    0 -0.91207565536E+02  0.13805197904E+03 -0.14628578734E+03  0.27568405921E+03  0.16500000000E+03 0.  0.
<mgrwt>
<rscale>  0 0.47697215E+03</rscale>
<asrwt>0</asrwt>
<pdfrwt beam="1">  1        2 0.24882114E-01 0.47697215E+03</pdfrwt>
<pdfrwt beam="2">  1       -2 0.54101842E-01 0.47697215E+03</pdfrwt>
<totfact> 0.71257448E+02</totfact>
</mgrwt>
</event>
<event>
 4    1  0.3145406E-005  0.6093404E+03  0.7818608E-02  0.9886215E-01
          2   -1    0    0  501    0  0.00000000000E+00  0.00000000000E+00  0.30286648518E+03  0.30286648519E+03  0.25500000000E-02 0.  1.
         -2   -1    0    0    0  501 -0.00000000000E+00 -0.00000000000E+00 -0.30648465373E+03  0.30648465374E+03  0.25500000000E-02 0. -1.
    5000001    1    1    2    0    0 -0.25348302066E+03  0.26342704226E+02 -0.27331093968E+02  0.30482711252E+03  0.16500000000E+03 0.  0.
   -5000001    1    1    2    0    0  0.25348302066E+03 -0.26342704226E+02  0.23712925417E+02  0.30452402641E+03  0.16500000000E+03 0.  0.
<mgrwt>
<rscale>  0 0.60934040E+03</rscale>
<asrwt>0</asrwt>
<pdfrwt beam="1">  1        2 0.46594844E-01 0.60934040E+03</pdfrwt>
<pdfrwt beam="2">  1       -2 0.47151485E-01 0.60934040E+03</pdfrwt>
<totfact> 0.46715745E+02</totfact>
</mgrwt>
</event>
<event>
 4    1  0.3145406E-005  0.4332498E+03  0.7818608E-02  0.1032838E+00
          2   -1    0    0  501    0  0.00000000000E+00  0.00000000000E+00  0.14887109067E+04  0.14887109067E+04  0.25500000000E-02 0.  1.
         -2   -1    0    0    0  501 -0.00000000000E+00 -0.00000000000E+00 -0.31521466509E+02  0.31521466612E+02  0.25500000000E-02 0. -1.
    5000001    1    1    2    0    0 -0.12652893485E+03 -0.54859810832E+02  0.82024237490E+03  0.84796327973E+03  0.16500000000E+03 0.  0.
   -5000001    1    1    2    0    0  0.12652893485E+03  0.54859810832E+02  0.63694706527E+03  0.67226909356E+03  0.16500000000E+03 0.  0.
<mgrwt>
<rscale>  0 0.43324982E+03</rscale>
<asrwt>0</asrwt>
<pdfrwt beam="1">  1        2 0.22903253E+00 0.43324982E+03</pdfrwt>
<pdfrwt beam="2">  1       -2 0.48494546E-02 0.43324982E+03</pdfrwt>
<totfact> 0.28359366E+03</totfact>
</mgrwt>
</event>
<event>
 4    1  0.3145406E-005  0.3733037E+03  0.7818608E-02  0.1053437E+00
         -2   -1    0    0    0  501 -0.00000000000E+00  0.00000000000E+00  0.19522409379E+02  0.19522409545E+02  0.25500000000E-02 0. -1.
          2   -1    0    0  501    0  0.00000000000E+00 -0.00000000000E+00 -0.17845600104E+04  0.17845600104E+04  0.25500000000E-02 0.  1.
    5000001    1    1    2    0    0 -0.12209192082E+02  0.42206189691E+02 -0.12468542490E+04  0.12584915356E+04  0.16500000000E+03 0.  0.
   -5000001    1    1    2    0    0  0.12209192082E+02 -0.42206189691E+02 -0.51818335205E+03  0.54559088442E+03  0.16500000000E+03 0.  0.
<mgrwt>
<rscale>  0 0.37330369E+03</rscale>
<asrwt>0</asrwt>
<pdfrwt beam="1">  1        2 0.27454757E+00 0.37330369E+03</pdfrwt>
<pdfrwt beam="2">  1       -2 0.30034490E-02 0.37330369E+03</pdfrwt>
<totfact> 0.40747909E+03</totfact>
</mgrwt>
</event>
<event>
 4    1  0.3145406E-005  0.9074247E+03  0.7818608E-02  0.9416348E-01
         -2   -1    0    0    0  501 -0.00000000000E+00  0.00000000000E+00  0.68797067931E+02  0.68797067978E+02  0.25500000000E-02 0. -1.
          2   -1    0    0  501    0  0.00000000000E+00 -0.00000000000E+00 -0.29922042753E+04  0.29922042753E+04  0.25500000000E-02 0.  1.
    5000001    1    1    2    0    0 -0.16204021867E+03  0.37035239437E+03 -0.18777535007E+04  0.19278488369E+04  0.16500000000E+03 0.  0.
   -5000001    1    1    2    0    0  0.16204021867E+03 -0.37035239437E+03 -0.10456537067E+04  0.11331525064E+04  0.16500000000E+03 0.  0.
<mgrwt>
<rscale>  0 0.90742467E+03</rscale>
<asrwt>0</asrwt>
<pdfrwt beam="1">  1        2 0.46033902E+00 0.90742467E+03</pdfrwt>
<pdfrwt beam="2">  1       -2 0.10584167E-01 0.90742467E+03</pdfrwt>
<totfact> 0.11415668E+02</totfact>
</mgrwt>
</event>
<event>
 4    1  0.3145406E-005  0.5020761E+03  0.7818608E-02  0.1013238E+00
          2   -1    0    0  501    0  0.00000000000E+00  0.00000000000E+00  0.73630853945E+03  0.73630853946E+03  0.25500000000E-02 0.  1.
         -2   -1    0    0    0  501 -0.00000000000E+00 -0.00000000000E+00 -0.85589272054E+02  0.85589272092E+02  0.25500000000E-02 0. -1.
    5000001    1    1    2    0    0  0.51834168406E+02  0.17319456544E+03  0.41667969235E+03  0.48324952615E+03  0.16500000000E+03 0.  0.
   -5000001    1    1    2    0    0 -0.51834168406E+02 -0.17319456544E+03  0.23403957505E+03  0.33864828539E+03  0.16500000000E+03 0.  0.
<mgrwt>
<rscale>  0 0.50207614E+03</rscale>
<asrwt>0</asrwt>
<pdfrwt beam="1">  1        2 0.11327823E+00 0.50207614E+03</pdfrwt>
<pdfrwt beam="2">  1       -2 0.13167581E-01 0.50207614E+03</pdfrwt>
<totfact> 0.16776791E+03</totfact>
</mgrwt>
</event>
<event>
 4    1  0.3145406E-005  0.8235681E+03  0.7818608E-02  0.9526516E-01
          2   -1    0    0  501    0  0.00000000000E+00  0.00000000000E+00  0.39013205058E+04  0.39013205058E+04  0.25500000000E-02 0.  1.
         -2   -1    0    0    0  501 -0.00000000000E+00 -0.00000000000E+00 -0.43463773863E+02  0.43463773938E+02  0.25500000000E-02 0. -1.
    5000001    1    1    2    0    0 -0.22237220726E+03 -0.29957054140E+03  0.16601315213E+04  0.17095185216E+04  0.16500000000E+03 0.  0.
   -5000001    1    1    2    0    0  0.22237220726E+03  0.29957054140E+03  0.21977252107E+04  0.22352657581E+04  0.16500000000E+03 0.  0.
<mgrwt>
<rscale>  0 0.82356812E+03</rscale>
<asrwt>0</asrwt>
<pdfrwt beam="1">  1        2 0.60020335E+00 0.82356812E+03</pdfrwt>
<pdfrwt beam="2">  1       -2 0.66867322E-02 0.82356812E+03</pdfrwt>
<totfact> 0.58177864E+01</totfact>
</mgrwt>
</event>
<event>
 4    1  0.3145406E-005  0.8749525E+03  0.7818608E-02  0.9457445E-01
         -2   -1    0    0    0  501 -0.00000000000E+00  0.00000000000E+00  0.17277019334E+03  0.17277019336E+03  0.25500000000E-02 0. -1.
          2   -1    0    0  501    0  0.00000000000E+00 -0.00000000000E+00 -0.11077459743E+04  0.11077459743E+04  0.25500000000E-02 0.  1.
    5000001    1    1    2    0    0  0.24983828027E+03 -0.29769127736E+03 -0.63513178196E+03  0.76266417469E+03  0.16500000000E+03 0.  0.
   -5000001    1    1    2    0    0 -0.24983828027E+03  0.29769127736E+03 -0.29984399903E+03  0.51785199300E+03  0.16500000000E+03 0.  0.
<mgrwt>
<rscale>  0 0.87495254E+03</rscale>
<asrwt>0</asrwt>
<pdfrwt beam="1">  1        2 0.17042245E+00 0.87495254E+03</pdfrwt>
<pdfrwt beam="2">  1       -2 0.26580030E-01 0.87495254E+03</pdfrwt>
<totfact> 0.27694188E+02</totfact>
</mgrwt>
</event>
<event>
 4    1  0.3145406E-005  0.5266532E+03  0.7818608E-02  0.1007047E+00
         -2   -1    0    0    0  501 -0.00000000000E+00  0.00000000000E+00  0.73824993973E+02  0.73824994017E+02  0.25500000000E-02 0. -1.
          2   -1    0    0  501    0  0.00000000000E+00 -0.00000000000E+00 -0.93926051885E+03  0.93926051886E+03  0.25500000000E-02 0.  1.
    5000001    1    1    2    0    0  0.23301932799E+02 -0.18675807763E+03 -0.59010710839E+03  0.64099372775E+03  0.16500000000E+03 0.  0.
   -5000001    1    1    2    0    0 -0.23301932799E+02  0.18675807763E+03 -0.27532841648E+03  0.37209178512E+03  0.16500000000E+03 0.  0.
<mgrwt>
<rscale>  0 0.52665321E+03</rscale>
<asrwt>0</asrwt>
<pdfrwt beam="1">  1        2 0.14450161E+00 0.52665321E+03</pdfrwt>
<pdfrwt beam="2">  1       -2 0.11357692E-01 0.52665321E+03</pdfrwt>
<totfact> 0.15471355E+03</totfact>
</mgrwt>
</event>
<event>
 4    1  0.3145406E-005  0.5007150E+03  0.7818608E-02  0.1013592E+00
          2   -1    0    0  501    0  0.00000000000E+00  0.00000000000E+00  0.66159196263E+03  0.66159196264E+03  0.25500000000E-02 0.  1.
         -2   -1    0    0    0  501 -0.00000000000E+00 -0.00000000000E+00 -0.94739494091E+02  0.94739494125E+02  0.25500000000E-02 0. -1.
    5000001    1    1    2    0    0 -0.18272067022E+01  0.17246566000E+03  0.39752815090E+03  0.46368240566E+03  0.16500000000E+03 0.  0.
   -5000001    1    1    2    0    0  0.18272067022E+01 -0.17246566000E+03  0.16932431764E+03  0.29264905110E+03  0.16500000000E+03 0.  0.
<mgrwt>
<rscale>  0 0.50071504E+03</rscale>
<asrwt>0</asrwt>
<pdfrwt beam="1">  1        2 0.10178338E+00 0.50071504E+03</pdfrwt>
<pdfrwt beam="2">  1       -2 0.14575306E-01 0.50071504E+03</pdfrwt>
<totfact> 0.16184885E+03</totfact>
</mgrwt>
</event>
<event>
 4    1  0.3145406E-005  0.1319565E+04  0.7818608E-02  0.9014192E-01
         -2   -1    0    0    0  501 -0.00000000000E+00  0.00000000000E+00  0.19241806302E+03  0.19241806304E+03  0.25500000000E-02 0. -1.
          2   -1    0    0  501    0  0.00000000000E+00 -0.00000000000E+00 -0.22623283487E+04  0.22623283487E+04  0.25500000000E-02 0.  1.
    5000001    1    1    2    0    0  0.53478394310E+03  0.15622548583E+03 -0.45352766187E+03  0.73709742118E+03  0.16500000000E+03 0.  0.
   -5000001    1    1    2    0    0 -0.53478394310E+03 -0.15622548583E+03 -0.16163826238E+04  0.17176489906E+04  0.16500000000E+03 0.  0.
<mgrwt>
<rscale>  0 0.13195648E+04</rscale>
<asrwt>0</asrwt>
<pdfrwt beam="1">  1        2 0.34805050E+00 0.13195648E+04</pdfrwt>
<pdfrwt beam="2">  1       -2 0.29602780E-01 0.13195648E+04</pdfrwt>
<totfact> 0.49123448E+01</totfact>
</mgrwt>
</event>
<event>
 4    1  0.3145406E-005  0.4752558E+03  0.7818608E-02  0.1020447E+00
          2   -1    0    0  501    0  0.00000000000E+00  0.00000000000E+00  0.44726346296E+03  0.44726346297E+03  0.25500000000E-02 0.  1.
         -2   -1    0    0    0  501 -0.00000000000E+00 -0.00000000000E+00 -0.12624998876E+03  0.12624998879E+03  0.25500000000E-02 0. -1.
    5000001    1    1    2    0    0 -0.15253217895E+03 -0.75016504059E+02  0.18303336766E+03  0.29936558783E+03  0.16500000000E+03 0.  0.
   -5000001    1    1    2    0    0  0.15253217895E+03  0.75016504059E+02  0.13798010653E+03  0.27414786393E+03  0.16500000000E+03 0.  0.
<mgrwt>
<rscale>  0 0.47525575E+03</rscale>
<asrwt>0</asrwt>
<pdfrwt beam="1">  1        2 0.68809764E-01 0.47525575E+03</pdfrwt>
<pdfrwt beam="2">  1       -2 0.19423075E-01 0.47525575E+03</pdfrwt>
<totfact> 0.15688910E+03</totfact>
</mgrwt>
</event>
<event>
 4    1  0.3145406E-005  0.4874747E+03  0.7818608E-02  0.1017101E+00
          2   -1    0    0  501    0  0.00000000000E+00  0.00000000000E+00  0.22563676549E+04  0.22563676549E+04  0.25500000000E-02 0.  1.
         -2   -1    0    0    0  501 -0.00000000000E+00 -0.00000000000E+00 -0.26328995708E+02  0.26328995831E+02  0.25500000000E-02 0. -1.
    5000001    1    1    2    0    0  0.69176018922E+02 -0.76120863919E+02  0.18032833033E+04  0.18137352010E+04  0.16500000000E+03 0.  0.
   -5000001    1    1    2    0    0 -0.69176018922E+02  0.76120863919E+02  0.42675535588E+03  0.46896144968E+03  0.16500000000E+03 0.  0.
<mgrwt>
<rscale>  0 0.48747469E+03</rscale>
<asrwt>0</asrwt>
<pdfrwt beam="1">  1        2 0.34713355E+00 0.48747469E+03</pdfrwt>
<pdfrwt beam="2">  1       -2 0.40506140E-02 0.48747469E+03</pdfrwt>
<totfact> 0.14377836E+03</totfact>
</mgrwt>
</event>
<event>
 4    1  0.3145406E-005  0.5703537E+03  0.7818608E-02  0.9968896E-01
          2   -1    0    0  501    0  0.00000000000E+00  0.00000000000E+00  0.22465148804E+04  0.22465148804E+04  0.25500000000E-02 0.  1.
         -2   -1    0    0    0  501 -0.00000000000E+00 -0.00000000000E+00 -0.36200883200E+02  0.36200883290E+02  0.25500000000E-02 0. -1.
    5000001    1    1    2    0    0  0.12379050751E+03 -0.19049319003E+03  0.13048334437E+04  0.13347011130E+04  0.16500000000E+03 0.  0.
   -5000001    1    1    2    0    0 -0.12379050751E+03  0.19049319003E+03  0.90548055353E+03  0.94801465074E+03  0.16500000000E+03 0.  0.
<mgrwt>
<rscale>  0 0.57035365E+03</rscale>
<asrwt>0</asrwt>
<pdfrwt beam="1">  1        2 0.34561779E+00 0.57035365E+03</pdfrwt>
<pdfrwt beam="2">  1       -2 0.55693648E-02 0.57035365E+03</pdfrwt>
<totfact> 0.88505858E+02</totfact>
</mgrwt>
</event>
<event>
 4    1  0.3145406E-005  0.4180831E+03  0.7818608E-02  0.1037692E+00
         -2   -1    0    0    0  501 -0.00000000000E+00  0.00000000000E+00  0.65075960839E+02  0.65075960888E+02  0.25500000000E-02 0. -1.
          2   -1    0    0  501    0  0.00000000000E+00 -0.00000000000E+00 -0.67149773266E+03  0.67149773267E+03  0.25500000000E-02 0.  1.
    5000001    1    1    2    0    0 -0.36045388696E+02  0.94987730724E+02 -0.16503210115E+03  0.25452413136E+03  0.16500000000E+03 0.  0.
   -5000001    1    1    2    0    0  0.36045388696E+02 -0.94987730724E+02 -0.44138967068E+03  0.48204956220E+03  0.16500000000E+03 0.  0.
<mgrwt>
<rscale>  0 0.41808305E+03</rscale>
<asrwt>0</asrwt>
<pdfrwt beam="1">  1        2 0.10330734E+00 0.41808305E+03</pdfrwt>
<pdfrwt beam="2">  1       -2 0.10011687E-01 0.41808305E+03</pdfrwt>
<totfact> 0.29385572E+03</totfact>
</mgrwt>
</event>
<event>
 4    1  0.3145406E-005  0.1022676E+04  0.7818608E-02  0.9284017E-01
         -2   -1    0    0    0  501 -0.00000000000E+00  0.00000000000E+00  0.14423773926E+03  0.14423773928E+03  0.25500000000E-02 0. -1.
          2   -1    0    0  501    0  0.00000000000E+00 -0.00000000000E+00 -0.18127488459E+04  0.18127488459E+04  0.25500000000E-02 0.  1.
    5000001    1    1    2    0    0 -0.38027058228E+03  0.25304725085E+03 -0.11404493854E+04  0.12395517043E+04  0.16500000000E+03 0.  0.
   -5000001    1    1    2    0    0  0.38027058228E+03 -0.25304725085E+03 -0.52806172123E+03  0.71743488090E+03  0.16500000000E+03 0.  0.
<mgrwt>
<rscale>  0 0.10226765E+04</rscale>
<asrwt>0</asrwt>
<pdfrwt beam="1">  1        2 0.27888442E+00 0.10226765E+04</pdfrwt>
<pdfrwt beam="2">  1       -2 0.22190423E-01 0.10226765E+04</pdfrwt>
<totfact> 0.15070163E+02</totfact>
</mgrwt>
</event>
<event>
 4    1  0.3145406E-005  0.5159494E+03  0.7818608E-02  0.1009698E+00
          2   -1    0    0  501    0  0.00000000000E+00  0.00000000000E+00  0.14042420671E+04  0.14042420671E+04  0.25500000000E-02 0.  1.
         -2   -1    0    0    0  501 -0.00000000000E+00 -0.00000000000E+00 -0.47392792591E+02  0.47392792660E+02  0.25500000000E-02 0. -1.
    5000001    1    1    2    0    0 -0.17394586296E+03  0.46976486561E+02  0.44536042236E+03  0.50797131743E+03  0.16500000000E+03 0.  0.
   -5000001    1    1    2    0    0  0.17394586296E+03 -0.46976486561E+02  0.91148885218E+03  0.94366354235E+03  0.16500000000E+03 0.  0.
<mgrwt>
<rscale>  0 0.51594943E+03</rscale>
<asrwt>0</asrwt>
<pdfrwt beam="1">  1        2 0.21603722E+00 0.51594943E+03</pdfrwt>
<pdfrwt beam="2">  1       -2 0.72911995E-02 0.51594943E+03</pdfrwt>
<totfact> 0.16694022E+03</totfact>
</mgrwt>
</event>
<event>
 4    1  0.3145406E-005  0.1196779E+04  0.7818608E-02  0.9115680E-01
          2   -1    0    0  501    0  0.00000000000E+00  0.00000000000E+00  0.14994255278E+04  0.14994255278E+04  0.25500000000E-02 0.  1.
         -2   -1    0    0    0  501 -0.00000000000E+00 -0.00000000000E+00 -0.23880486312E+03  0.23880486314E+03  0.25500000000E-02 0. -1.
    5000001    1    1    2    0    0 -0.31599861613E+03 -0.46819565413E+03  0.78796897520E+03  0.98345432117E+03  0.16500000000E+03 0.  0.
   -5000001    1    1    2    0    0  0.31599861613E+03  0.46819565413E+03  0.47265168948E+03  0.75477606978E+03  0.16500000000E+03 0.  0.
<mgrwt>
<rscale>  0 0.11967792E+04</rscale>
<asrwt>0</asrwt>
<pdfrwt beam="1">  1        2 0.23068085E+00 0.11967792E+04</pdfrwt>
<pdfrwt beam="2">  1       -2 0.36739209E-01 0.11967792E+04</pdfrwt>
<totfact> 0.87442487E+01</totfact>
</mgrwt>
</event>
<event>
 4    1  0.3145406E-005  0.6455698E+03  0.7818608E-02  0.9815128E-01
         -2   -1    0    0    0  501 -0.00000000000E+00  0.00000000000E+00  0.12439485095E+03  0.12439485097E+03  0.25500000000E-02 0. -1.
          2   -1    0    0  501    0  0.00000000000E+00 -0.00000000000E+00 -0.83757557441E+03  0.83757557441E+03  0.25500000000E-02 0.  1.
    5000001    1    1    2    0    0 -0.19130295516E+03 -0.19907014688E+03 -0.39710780261E+03  0.51102382618E+03  0.16500000000E+03 0.  0.
   -5000001    1    1    2    0    0  0.19130295516E+03  0.19907014688E+03 -0.31607292085E+03  0.45094659920E+03  0.16500000000E+03 0.  0.
<mgrwt>
<rscale>  0 0.64556979E+03</rscale>
<asrwt>0</asrwt>
<pdfrwt beam="1">  1        2 0.12885778E+00 0.64556979E+03</pdfrwt>
<pdfrwt beam="2">  1       -2 0.19137670E-01 0.64556979E+03</pdfrwt>
<totfact> 0.75102686E+02</totfact>
</mgrwt>
</event>
<event>
 4    1  0.3145406E-005  0.4620670E+03  0.7818608E-02  0.1024183E+00
         -2   -1    0    0    0  501 -0.00000000000E+00  0.00000000000E+00  0.50138356860E+02  0.50138356925E+02  0.25500000000E-02 0. -1.
          2   -1    0    0  501    0  0.00000000000E+00 -0.00000000000E+00 -0.10645834827E+04  0.10645834827E+04  0.25500000000E-02 0.  1.
    5000001    1    1    2    0    0  0.82807469446E+00  0.14243549664E+03 -0.69194439383E+03  0.72546578180E+03  0.16500000000E+03 0.  0.
   -5000001    1    1    2    0    0 -0.82807469446E+00 -0.14243549664E+03 -0.32250073204E+03  0.38925605786E+03  0.16500000000E+03 0.  0.
<mgrwt>
<rscale>  0 0.46206695E+03</rscale>
<asrwt>0</asrwt>
<pdfrwt beam="1">  1        2 0.16378206E+00 0.46206695E+03</pdfrwt>
<pdfrwt beam="2">  1       -2 0.77135942E-02 0.46206695E+03</pdfrwt>
<totfact> 0.24044229E+03</totfact>
</mgrwt>
</event>
<event>
 4    1  0.3145406E-005  0.5230381E+03  0.7818608E-02  0.1007935E+00
          2   -1    0    0  501    0  0.00000000000E+00  0.00000000000E+00  0.90487268984E+03  0.90487268984E+03  0.25500000000E-02 0.  1.
         -2   -1    0    0    0  501 -0.00000000000E+00 -0.00000000000E+00 -0.75582128380E+02  0.75582128423E+02  0.25500000000E-02 0. -1.
    5000001    1    1    2    0    0  0.13156354915E+03 -0.10332664224E+03  0.19942542756E+03  0.30818965528E+03  0.16500000000E+03 0.  0.
   -5000001    1    1    2    0    0 -0.13156354915E+03  0.10332664224E+03  0.62986513390E+03  0.67226516299E+03  0.16500000000E+03 0.  0.
<mgrwt>
<rscale>  0 0.52303806E+03</rscale>
<asrwt>0</asrwt>
<pdfrwt beam="1">  1        2 0.13921119E+00 0.52303806E+03</pdfrwt>
<pdfrwt beam="2">  1       -2 0.11628019E-01 0.52303806E+03</pdfrwt>
<totfact> 0.15681601E+03</totfact>
</mgrwt>
</event>
<event>
 4    1  0.3145406E-005  0.4024039E+03  0.7818608E-02  0.1042950E+00
          2   -1    0    0  501    0  0.00000000000E+00  0.00000000000E+00  0.32423478029E+03  0.32423478030E+03  0.25500000000E-02 0.  1.
         -2   -1    0    0    0  501 -0.00000000000E+00 -0.00000000000E+00 -0.12485466378E+03  0.12485466381E+03  0.25500000000E-02 0. -1.
    5000001    1    1    2    0    0  0.10240168228E+03 -0.22153160222E+02  0.46396817422E+02  0.20088437398E+03  0.16500000000E+03 0.  0.
   -5000001    1    1    2    0    0 -0.10240168228E+03  0.22153160222E+02  0.15298329909E+03  0.24820507013E+03  0.16500000000E+03 0.  0.
<mgrwt>
<rscale>  0 0.40240390E+03</rscale>
<asrwt>0</asrwt>
<pdfrwt beam="1">  1        2 0.49882273E-01 0.40240390E+03</pdfrwt>
<pdfrwt beam="2">  1       -2 0.19208410E-01 0.40240390E+03</pdfrwt>
<totfact> 0.22783042E+03</totfact>
</mgrwt>
</event>
<event>
 4    1  0.3145406E-005  0.4051959E+03  0.7818608E-02  0.1041995E+00
         -2   -1    0    0    0  501 -0.00000000000E+00  0.00000000000E+00  0.11799590116E+03  0.11799590119E+03  0.25500000000E-02 0. -1.
          2   -1    0    0  501    0  0.00000000000E+00 -0.00000000000E+00 -0.34785895681E+03  0.34785895682E+03  0.25500000000E-02 0.  1.
    5000001    1    1    2    0    0  0.88506164799E+02  0.34546847171E+02 -0.35326708915E+02  0.19364865664E+03  0.16500000000E+03 0.  0.
   -5000001    1    1    2    0    0 -0.88506164799E+02 -0.34546847171E+02 -0.19453634673E+03  0.27220620136E+03  0.16500000000E+03 0.  0.
<mgrwt>
<rscale>  0 0.40519591E+03</rscale>
<asrwt>0</asrwt>
<pdfrwt beam="1">  1        2 0.53516762E-01 0.40519591E+03</pdfrwt>
<pdfrwt beam="2">  1       -2 0.18153216E-01 0.40519591E+03</pdfrwt>
<totfact> 0.23241228E+03</totfact>
</mgrwt>
</event>
<event>
 4    1  0.3145406E-005  0.7777373E+03  0.7818608E-02  0.9592812E-01
         -2   -1    0    0    0  501 -0.00000000000E+00  0.00000000000E+00  0.58265730436E+02  0.58265730492E+02  0.25500000000E-02 0. -1.
          2   -1    0    0  501    0  0.00000000000E+00 -0.00000000000E+00 -0.25953304202E+04  0.25953304202E+04  0.25500000000E-02 0.  1.
    5000001    1    1    2    0    0  0.19753423594E+03  0.28219611867E+03 -0.10192175258E+04  0.10884318025E+04  0.16500000000E+03 0.  0.
   -5000001    1    1    2    0    0 -0.19753423594E+03 -0.28219611867E+03 -0.15178471640E+04  0.15651643482E+04  0.16500000000E+03 0.  0.
<mgrwt>
<rscale>  0 0.77773729E+03</rscale>
<asrwt>0</asrwt>
<pdfrwt beam="1">  1        2 0.39928151E+00 0.77773729E+03</pdfrwt>
<pdfrwt beam="2">  1       -2 0.89639605E-02 0.77773729E+03</pdfrwt>
<totfact> 0.26058415E+02</totfact>
</mgrwt>
</event>
<event>
 4    1  0.3145406E-005  0.7019756E+03  0.7818608E-02  0.9713860E-01
          2   -1    0    0  501    0  0.00000000000E+00  0.00000000000E+00  0.14524067646E+04  0.14524067646E+04  0.25500000000E-02 0.  1.
         -2   -1    0    0    0  501 -0.00000000000E+00 -0.00000000000E+00 -0.84819507510E+02  0.84819507548E+02  0.25500000000E-02 0. -1.
    5000001    1    1    2    0    0 -0.12461248141E+03  0.23072923611E+03  0.10449752141E+04  0.10899369014E+04  0.16500000000E+03 0.  0.
   -5000001    1    1    2    0    0  0.12461248141E+03 -0.23072923611E+03  0.32261204300E+03  0.44728937077E+03  0.16500000000E+03 0.  0.
<mgrwt>
<rscale>  0 0.70197557E+03</rscale>
<asrwt>0</asrwt>
<pdfrwt beam="1">  1        2 0.22344718E+00 0.70197557E+03</pdfrwt>
<pdfrwt beam="2">  1       -2 0.13049156E-01 0.70197557E+03</pdfrwt>
<totfact> 0.60639214E+02</totfact>
</mgrwt>
</event>
<event>
 4    1  0.3145406E-005  0.6280884E+03  0.7818608E-02  0.9848786E-01
          2   -1    0    0  501    0  0.00000000000E+00  0.00000000000E+00  0.17727482355E+04  0.17727482355E+04  0.25500000000E-02 0.  1.
         -2   -1    0    0    0  501 -0.00000000000E+00 -0.00000000000E+00 -0.55633254007E+02  0.55633254065E+02  0.25500000000E-02 0. -1.
    5000001    1    1    2    0    0  0.20139158679E+03 -0.16752843913E+03  0.70522616456E+03  0.77019042602E+03  0.16500000000E+03 0.  0.
   -5000001    1    1    2    0    0 -0.20139158679E+03  0.16752843913E+03  0.10118888170E+04  0.10581910636E+04  0.16500000000E+03 0.  0.
<mgrwt>
<rscale>  0 0.62808838E+03</rscale>
<asrwt>0</asrwt>
<pdfrwt beam="1">  1        2 0.27273045E+00 0.62808838E+03</pdfrwt>
<pdfrwt beam="2">  1       -2 0.85589636E-02 0.62808838E+03</pdfrwt>
<totfact> 0.80859964E+02</totfact>
</mgrwt>
</event>
<event>
 4    1  0.3145406E-005  0.4246151E+03  0.7818608E-02  0.1035575E+00
         -2   -1    0    0    0  501 -0.00000000000E+00  0.00000000000E+00  0.73719981948E+03  0.73719981949E+03  0.25500000000E-02 0. -1.
          2   -1    0    0  501    0  0.00000000000E+00 -0.00000000000E+00 -0.61142861157E+02  0.61142861210E+02  0.25500000000E-02 0.  1.
    5000001    1    1    2    0    0  0.99288934658E+02 -0.88920973630E+02  0.35528848794E+03  0.41378755631E+03  0.16500000000E+03 0.  0.
   -5000001    1    1    2    0    0 -0.99288934658E+02  0.88920973630E+02  0.32076847038E+03  0.38455512438E+03  0.16500000000E+03 0.  0.
<mgrwt>
<rscale>  0 0.42461515E+03</rscale>
<asrwt>0</asrwt>
<pdfrwt beam="1">  1        2 0.94065947E-02 0.42461515E+03</pdfrwt>
<pdfrwt beam="2">  1       -2 0.11341535E+00 0.42461515E+03</pdfrwt>
<totfact> 0.44260171E+02</totfact>
</mgrwt>
</event>
<event>
 4    1  0.3145406E-005  0.3455008E+03  0.7818608E-02  0.1064477E+00
         -2   -1    0    0    0  501 -0.00000000000E+00  0.00000000000E+00  0.67315280194E+01  0.67315285023E+01  0.25500000000E-02 0. -1.
          2   -1    0    0  501    0  0.00000000000E+00 -0.00000000000E+00 -0.44332718173E+04  0.44332718173E+04  0.25500000000E-02 0.  1.
    5000001    1    1    2    0    0  0.23234155367E+02 -0.45581026519E+02 -0.22195470720E+04  0.22262595673E+04  0.16500000000E+03 0.  0.
   -5000001    1    1    2    0    0 -0.23234155367E+02  0.45581026519E+02 -0.22069932173E+04  0.22137437785E+04  0.16500000000E+03 0.  0.
<mgrwt>
<rscale>  0 0.34550076E+03</rscale>
<asrwt>0</asrwt>
<pdfrwt beam="1">  1        2 0.68203949E+00 0.34550076E+03</pdfrwt>
<pdfrwt beam="2">  1       -2 0.10356233E-02 0.34550076E+03</pdfrwt>
<totfact> 0.38775167E+02</totfact>
</mgrwt>
</event>
<event>
 4    1  0.3145406E-005  0.6855300E+03  0.7818608E-02  0.9742303E-01
          2   -1    0    0  501    0  0.00000000000E+00  0.00000000000E+00  0.41123184948E+03  0.41123184949E+03  0.25500000000E-02 0.  1.
         -2   -1    0    0    0  501 -0.00000000000E+00 -0.00000000000E+00 -0.28569730346E+03  0.28569730347E+03  0.25500000000E-02 0. -1.
    5000001    1    1    2    0    0  0.26472161677E+03 -0.11324886068E+03 -0.24449668965E+02  0.33275460199E+03  0.16500000000E+03 0.  0.
   -5000001    1    1    2    0    0 -0.26472161677E+03  0.11324886068E+03  0.14998421499E+03  0.36417455097E+03  0.16500000000E+03 0.  0.
<mgrwt>
<rscale>  0 0.68552996E+03</rscale>
<asrwt>0</asrwt>
<pdfrwt beam="1">  1        2 0.63266438E-01 0.68552996E+03</pdfrwt>
<pdfrwt beam="2">  1       -2 0.43953431E-01 0.68552996E+03</pdfrwt>
<totfact> 0.38156826E+02</totfact>
</mgrwt>
</event>
<event>
 4    1  0.3145406E-005  0.3860155E+03  0.7818608E-02  0.1048733E+00
          2   -1    0    0  501    0  0.00000000000E+00  0.00000000000E+00  0.17148793076E+04  0.17148793076E+04  0.25500000000E-02 0.  1.
         -2   -1    0    0    0  501 -0.00000000000E+00 -0.00000000000E+00 -0.21722811350E+02  0.21722811499E+02  0.25500000000E-02 0. -1.
    5000001    1    1    2    0    0  0.84253395244E+02 -0.53234542703E+02  0.80285690866E+03  0.82567352321E+03  0.16500000000E+03 0.  0.
   -5000001    1    1    2    0    0 -0.84253395244E+02  0.53234542703E+02  0.89029958755E+03  0.91092859585E+03  0.16500000000E+03 0.  0.
<mgrwt>
<rscale>  0 0.38601554E+03</rscale>
<asrwt>0</asrwt>
<pdfrwt beam="1">  1        2 0.26382763E+00 0.38601554E+03</pdfrwt>
<pdfrwt beam="2">  1       -2 0.33419704E-02 0.38601554E+03</pdfrwt>
<totfact> 0.37782830E+03</totfact>
</mgrwt>
</event>
<event>
 4    1  0.3145406E-005  0.3632666E+03  0.7818608E-02  0.1057298E+00
          2   -1    0    0  501    0  0.00000000000E+00  0.00000000000E+00  0.12049009842E+04  0.12049009842E+04  0.25500000000E-02 0.  1.
         -2   -1    0    0    0  501 -0.00000000000E+00 -0.00000000000E+00 -0.27380386860E+02  0.27380386979E+02  0.25500000000E-02 0. -1.
    5000001    1    1    2    0    0  0.39665073236E+02  0.57287241358E+02  0.69111942274E+03  0.71395112055E+03  0.16500000000E+03 0.  0.
   -5000001    1    1    2    0    0 -0.39665073236E+02 -0.57287241358E+02  0.48640117457E+03  0.51833025059E+03  0.16500000000E+03 0.  0.
<mgrwt>
<rscale>  0 0.36326660E+03</rscale>
<asrwt>0</asrwt>
<pdfrwt beam="1">  1        2 0.18536936E+00 0.36326660E+03</pdfrwt>
<pdfrwt beam="2">  1       -2 0.42123677E-02 0.36326660E+03</pdfrwt>
<totfact> 0.50652282E+03</totfact>
</mgrwt>
</event>
<event>
 4    1  0.3145406E-005  0.7234735E+03  0.7818608E-02  0.9677911E-01
         -2   -1    0    0    0  501 -0.00000000000E+00  0.00000000000E+00  0.33572493942E+02  0.33572494039E+02  0.25500000000E-02 0. -1.
          2   -1    0    0  501    0  0.00000000000E+00 -0.00000000000E+00 -0.38976390916E+04  0.38976390916E+04  0.25500000000E-02 0.  1.
    5000001    1    1    2    0    0 -0.87090456644E+02  0.18201470476E+03 -0.56908708609E+03  0.62593866468E+03  0.16500000000E+03 0.  0.
   -5000001    1    1    2    0    0  0.87090456644E+02 -0.18201470476E+03 -0.32949795115E+04  0.33052729209E+04  0.16500000000E+03 0.  0.
<mgrwt>
<rscale>  0 0.72347347E+03</rscale>
<asrwt>0</asrwt>
<pdfrwt beam="1">  1        2 0.59963643E+00 0.72347347E+03</pdfrwt>
<pdfrwt beam="2">  1       -2 0.51650022E-02 0.72347347E+03</pdfrwt>
<totfact> 0.89180621E+01</totfact>
</mgrwt>
</event>
<event>
 4    1  0.3145406E-005  0.3383479E+03  0.7818608E-02  0.1067502E+00
          2   -1    0    0  501    0  0.00000000000E+00  0.00000000000E+00  0.17334840859E+04  0.17334840859E+04  0.25500000000E-02 0.  1.
         -2   -1    0    0    0  501 -0.00000000000E+00 -0.00000000000E+00 -0.16509998225E+02  0.16509998422E+02  0.25500000000E-02 0. -1.
    5000001    1    1    2    0    0  0.34782993150E+02 -0.56576292901E+01  0.79452040617E+03  0.81223736752E+03  0.16500000000E+03 0.  0.
   -5000001    1    1    2    0    0 -0.34782993150E+02  0.56576292901E+01  0.92245368149E+03  0.93775671678E+03  0.16500000000E+03 0.  0.
<mgrwt>
<rscale>  0 0.33834786E+03</rscale>
<asrwt>0</asrwt>
<pdfrwt beam="1">  1        2 0.26668969E+00 0.33834786E+03</pdfrwt>
<pdfrwt beam="2">  1       -2 0.25400013E-02 0.33834786E+03</pdfrwt>
<totfact> 0.55744753E+03</totfact>
</mgrwt>
</event>
<event>
 4    1  0.3145406E-005  0.7748293E+03  0.7818608E-02  0.9597183E-01
          2   -1    0    0  501    0  0.00000000000E+00  0.00000000000E+00  0.11449615079E+03  0.11449615082E+03  0.25500000000E-02 0.  1.
         -2   -1    0    0    0  501 -0.00000000000E+00 -0.00000000000E+00 -0.13108747332E+04  0.13108747332E+04  0.25500000000E-02 0. -1.
    5000001    1    1    2    0    0  0.25987187661E+03  0.15983956372E+03 -0.28071664820E+03  0.44621621996E+03  0.16500000000E+03 0.  0.
   -5000001    1    1    2    0    0 -0.25987187661E+03 -0.15983956372E+03 -0.91566193423E+03  0.97915466408E+03  0.16500000000E+03 0.  0.
<mgrwt>
<rscale>  0 0.77482930E+03</rscale>
<asrwt>0</asrwt>
<pdfrwt beam="1">  1        2 0.17614793E-01 0.77482930E+03</pdfrwt>
<pdfrwt beam="2">  1       -2 0.20167303E+00 0.77482930E+03</pdfrwt>
<totfact> 0.43519223E+01</totfact>
</mgrwt>
</event>
<event>
 4    1  0.3145406E-005  0.6553357E+03  0.7818608E-02  0.9796818E-01
         -2   -1    0    0    0  501 -0.00000000000E+00  0.00000000000E+00  0.22838193554E+02  0.22838193697E+02  0.25500000000E-02 0. -1.
          2   -1    0    0  501    0  0.00000000000E+00 -0.00000000000E+00 -0.47011690225E+04  0.47011690225E+04  0.25500000000E-02 0.  1.
    5000001    1    1    2    0    0 -0.19357460980E+03  0.93788905376E+02 -0.36658821137E+04  0.36758922944E+04  0.16500000000E+03 0.  0.
   -5000001    1    1    2    0    0  0.19357460980E+03 -0.93788905376E+02 -0.10124487152E+04  0.10481149217E+04  0.16500000000E+03 0.  0.
<mgrwt>
<rscale>  0 0.65533566E+03</rscale>
<asrwt>0</asrwt>
<pdfrwt beam="1">  1        2 0.72325600E+00 0.65533566E+03</pdfrwt>
<pdfrwt beam="2">  1       -2 0.35135720E-02 0.65533566E+03</pdfrwt>
<totfact> 0.31866735E+01</totfact>
</mgrwt>
</event>
<event>
 4    1  0.3145406E-005  0.6132792E+03  0.7818608E-02  0.9878233E-01
          2   -1    0    0  501    0  0.00000000000E+00  0.00000000000E+00  0.14078012143E+04  0.14078012143E+04  0.25500000000E-02 0.  1.
         -2   -1    0    0    0  501 -0.00000000000E+00 -0.00000000000E+00 -0.66790568555E+02  0.66790568603E+02  0.25500000000E-02 0. -1.
    5000001    1    1    2    0    0 -0.17762735071E+03 -0.29026196815E+02  0.22449116941E+03  0.33168551516E+03  0.16500000000E+03 0.  0.
   -5000001    1    1    2    0    0  0.17762735071E+03  0.29026196815E+02  0.11165194763E+04  0.11429062678E+04  0.16500000000E+03 0.  0.
<mgrwt>
<rscale>  0 0.61327920E+03</rscale>
<asrwt>0</asrwt>
<pdfrwt beam="1">  1        2 0.21658479E+00 0.61327920E+03</pdfrwt>
<pdfrwt beam="2">  1       -2 0.10275473E-01 0.61327920E+03</pdfrwt>
<totfact> 0.95564839E+02</totfact>
</mgrwt>
</event>
<event>
 4    1  0.3145406E-005  0.6917210E+03  0.7818608E-02  0.9731496E-01
         -2   -1    0    0    0  501 -0.00000000000E+00  0.00000000000E+00  0.72363830263E+02  0.72363830308E+02  0.25500000000E-02 0. -1.
          2   -1    0    0  501    0  0.00000000000E+00 -0.00000000000E+00 -0.16530286512E+04  0.16530286512E+04  0.25500000000E-02 0.  1.
    5000001    1    1    2    0    0  0.28371318679E+03 -0.80410149849E+02 -0.60643420152E+03  0.69422359895E+03  0.16500000000E+03 0.  0.
   -5000001    1    1    2    0    0 -0.28371318679E+03  0.80410149849E+02 -0.97423061940E+03  0.10311688825E+04  0.16500000000E+03 0.  0.
<mgrwt>
<rscale>  0 0.69172100E+03</rscale>
<asrwt>0</asrwt>
<pdfrwt beam="1">  1        2 0.25431207E+00 0.69172100E+03</pdfrwt>
<pdfrwt beam="2">  1       -2 0.11132898E-01 0.69172100E+03</pdfrwt>
<totfact> 0.61113481E+02</totfact>
</mgrwt>
</event>
<event>
 4    1  0.3145406E-005  0.4202593E+03  0.7818608E-02  0.1036982E+00
         -2   -1    0    0    0  501 -0.00000000000E+00  0.00000000000E+00  0.39885481529E+02  0.39885481610E+02  0.25500000000E-02 0. -1.
          2   -1    0    0  501    0  0.00000000000E+00 -0.00000000000E+00 -0.11070310389E+04  0.11070310389E+04  0.25500000000E-02 0.  1.
    5000001    1    1    2    0    0  0.12897385496E+03  0.10803569532E+02 -0.49711199766E+03  0.53953341936E+03  0.16500000000E+03 0.  0.
   -5000001    1    1    2    0    0 -0.12897385496E+03 -0.10803569532E+02 -0.57003355968E+03  0.60738310113E+03  0.16500000000E+03 0.  0.
<mgrwt>
<rscale>  0 0.42025928E+03</rscale>
<asrwt>0</asrwt>
<pdfrwt beam="1">  1        2 0.17031244E+00 0.42025928E+03</pdfrwt>
<pdfrwt beam="2">  1       -2 0.61362288E-02 0.42025928E+03</pdfrwt>
<totfact> 0.32447213E+03</totfact>
</mgrwt>
</event>
<event>
 4    1  0.3145406E-005  0.6125914E+03  0.7818608E-02  0.9879622E-01
         -2   -1    0    0    0  501 -0.00000000000E+00  0.00000000000E+00  0.84851720338E+02  0.84851720376E+02  0.25500000000E-02 0. -1.
          2   -1    0    0  501    0  0.00000000000E+00 -0.00000000000E+00 -0.11056589031E+04  0.11056589031E+04  0.25500000000E-02 0.  1.
    5000001    1    1    2    0    0  0.34452688540E+02  0.23967208791E+03 -0.68381726766E+03  0.74394942908E+03  0.16500000000E+03 0.  0.
   -5000001    1    1    2    0    0 -0.34452688540E+02 -0.23967208791E+03 -0.33698991512E+03  0.44656119442E+03  0.16500000000E+03 0.  0.
<mgrwt>
<rscale>  0 0.61259141E+03</rscale>
<asrwt>0</asrwt>
<pdfrwt beam="1">  1        2 0.17010136E+00 0.61259141E+03</pdfrwt>
<pdfrwt beam="2">  1       -2 0.13054112E-01 0.61259141E+03</pdfrwt>
<totfact> 0.96568165E+02</totfact>
</mgrwt>
</event>
<event>
 4    1  0.3145406E-005  0.7345986E+03  0.7818608E-02  0.9659827E-01
         -2   -1    0    0    0  501 -0.00000000000E+00  0.00000000000E+00  0.10038320709E+03  0.10038320713E+03  0.25500000000E-02 0. -1.
          2   -1    0    0  501    0  0.00000000000E+00 -0.00000000000E+00 -0.13439375783E+04  0.13439375783E+04  0.25500000000E-02 0.  1.
    5000001    1    1    2    0    0  0.25080754663E+03  0.57715191123E+02 -0.10220599786E+04  0.10668022631E+04  0.16500000000E+03 0.  0.
   -5000001    1    1    2    0    0 -0.25080754663E+03 -0.57715191123E+02 -0.22149439260E+03  0.37751852230E+03  0.16500000000E+03 0.  0.
<mgrwt>
<rscale>  0 0.73459857E+03</rscale>
<asrwt>0</asrwt>
<pdfrwt beam="1">  1        2 0.20675961E+00 0.73459857E+03</pdfrwt>
<pdfrwt beam="2">  1       -2 0.15443571E-01 0.73459857E+03</pdfrwt>
<totfact> 0.52519156E+02</totfact>
</mgrwt>
</event>
<event>
 4    1  0.3145406E-005  0.4195778E+03  0.7818608E-02  0.1037204E+00
         -2   -1    0    0    0  501 -0.00000000000E+00  0.00000000000E+00  0.35247361927E+02  0.35247362019E+02  0.25500000000E-02 0. -1.
          2   -1    0    0  501    0  0.00000000000E+00 -0.00000000000E+00 -0.12486434564E+04  0.12486434564E+04  0.25500000000E-02 0.  1.
    5000001    1    1    2    0    0  0.71339018889E+02  0.61874204999E+02 -0.33526203026E+03  0.38541315726E+03  0.16500000000E+03 0.  0.
   -5000001    1    1    2    0    0 -0.71339018889E+02 -0.61874204999E+02 -0.87813406418E+03  0.89847766112E+03  0.16500000000E+03 0.  0.
<mgrwt>
<rscale>  0 0.41957783E+03</rscale>
<asrwt>0</asrwt>
<pdfrwt beam="1">  1        2 0.19209896E+00 0.41957783E+03</pdfrwt>
<pdfrwt beam="2">  1       -2 0.54226720E-02 0.41957783E+03</pdfrwt>
<totfact> 0.32491988E+03</totfact>
</mgrwt>
</event>
<event>
 4    1  0.3145406E-005  0.8942982E+03  0.7818608E-02  0.9432737E-01
          2   -1    0    0  501    0  0.00000000000E+00  0.00000000000E+00  0.58535487666E+03  0.58535487666E+03  0.25500000000E-02 0.  1.
         -2   -1    0    0    0  501 -0.00000000000E+00 -0.00000000000E+00 -0.34157450269E+03  0.34157450270E+03  0.25500000000E-02 0. -1.
    5000001    1    1    2    0    0 -0.93952153206E+02  0.40126553055E+03  0.17747792071E+03  0.47808414054E+03  0.16500000000E+03 0.  0.
   -5000001    1    1    2    0    0  0.93952153206E+02 -0.40126553055E+03  0.66302453267E+02  0.44884523882E+03  0.16500000000E+03 0.  0.
<mgrwt>
<rscale>  0 0.89429816E+03</rscale>
<asrwt>0</asrwt>
<pdfrwt beam="1">  1        2 0.90054596E-01 0.89429816E+03</pdfrwt>
<pdfrwt beam="2">  1       -2 0.52549924E-01 0.89429816E+03</pdfrwt>
<totfact> 0.17525721E+02</totfact>
</mgrwt>
</event>
<event>
 4    1  0.3145406E-005  0.4257927E+03  0.7818608E-02  0.1035197E+00
         -2   -1    0    0    0  501 -0.00000000000E+00  0.00000000000E+00  0.11110607526E+02  0.11110607819E+02  0.25500000000E-02 0. -1.
          2   -1    0    0  501    0  0.00000000000E+00 -0.00000000000E+00 -0.40794222735E+04  0.40794222735E+04  0.25500000000E-02 0.  1.
    5000001    1    1    2    0    0  0.47690321125E+02 -0.11401111515E+03 -0.25449447122E+04  0.25532805348E+04  0.16500000000E+03 0.  0.
   -5000001    1    1    2    0    0 -0.47690321125E+02  0.11401111515E+03 -0.15233669537E+04  0.15372523465E+04  0.16500000000E+03 0.  0.
<mgrwt>
<rscale>  0 0.42579272E+03</rscale>
<asrwt>0</asrwt>
<pdfrwt beam="1">  1        2 0.62760223E+00 0.42579272E+03</pdfrwt>
<pdfrwt beam="2">  1       -2 0.17093275E-02 0.42579272E+03</pdfrwt>
<totfact> 0.36352690E+02</totfact>
</mgrwt>
</event>
<event>
 4    1  0.3145406E-005  0.9826600E+03  0.7818608E-02  0.9327770E-01
         -2   -1    0    0    0  501 -0.00000000000E+00  0.00000000000E+00  0.19678153649E+03  0.19678153651E+03  0.25500000000E-02 0. -1.
          2   -1    0    0  501    0  0.00000000000E+00 -0.00000000000E+00 -0.12267674865E+04  0.12267674865E+04  0.25500000000E-02 0.  1.
    5000001    1    1    2    0    0 -0.52249910590E+02 -0.45981343049E+03 -0.50823731117E+03  0.70688655984E+03  0.16500000000E+03 0.  0.
   -5000001    1    1    2    0    0  0.52249910590E+02  0.45981343049E+03 -0.52174863888E+03  0.71666246322E+03  0.16500000000E+03 0.  0.
<mgrwt>
<rscale>  0 0.98266004E+03</rscale>
<asrwt>0</asrwt>
<pdfrwt beam="1">  1        2 0.18873346E+00 0.98266004E+03</pdfrwt>
<pdfrwt beam="2">  1       -2 0.30274083E-01 0.98266004E+03</pdfrwt>
<totfact> 0.18364746E+02</totfact>
</mgrwt>
</event>
<event>
 4    1  0.3145406E-005  0.7265399E+03  0.7818608E-02  0.9672892E-01
         -2   -1    0    0    0  501 -0.00000000000E+00  0.00000000000E+00  0.13713574929E+03  0.13713574932E+03  0.25500000000E-02 0. -1.
          2   -1    0    0  501    0  0.00000000000E+00 -0.00000000000E+00 -0.96229497187E+03  0.96229497188E+03  0.25500000000E-02 0.  1.
    5000001    1    1    2    0    0  0.28701849767E+03  0.74873113911E+02 -0.21670714511E+03  0.40270657796E+03  0.16500000000E+03 0.  0.
   -5000001    1    1    2    0    0 -0.28701849767E+03 -0.74873113911E+02 -0.60845207747E+03  0.69672414323E+03  0.16500000000E+03 0.  0.
<mgrwt>
<rscale>  0 0.72653986E+03</rscale>
<asrwt>0</asrwt>
<pdfrwt beam="1">  1        2 0.14804538E+00 0.72653986E+03</pdfrwt>
<pdfrwt beam="2">  1       -2 0.21097808E-01 0.72653986E+03</pdfrwt>
<totfact> 0.52081664E+02</totfact>
</mgrwt>
</event>
<event>
 4    1  0.3145406E-005  0.1597688E+04  0.7818608E-02  0.8821970E-01
         -2   -1    0    0    0  501 -0.00000000000E+00  0.00000000000E+00  0.38823847932E+03  0.38823847932E+03  0.25500000000E-02 0. -1.
          2   -1    0    0  501    0  0.00000000000E+00 -0.00000000000E+00 -0.16437107505E+04  0.16437107505E+04  0.25500000000E-02 0.  1.
    5000001    1    1    2    0    0  0.51086047067E+03 -0.56137889198E+03 -0.86499556381E+03  0.11625691404E+04  0.16500000000E+03 0.  0.
   -5000001    1    1    2    0    0 -0.51086047067E+03  0.56137889198E+03 -0.39047670739E+03  0.86938008942E+03  0.16500000000E+03 0.  0.
<mgrwt>
<rscale>  0 0.15976880E+04</rscale>
<asrwt>0</asrwt>
<pdfrwt beam="1">  1        2 0.25287857E+00 0.15976880E+04</pdfrwt>
<pdfrwt beam="2">  1       -2 0.59728998E-01 0.15976880E+04</pdfrwt>
<totfact> 0.26434465E+01</totfact>
</mgrwt>
</event>
<event>
 4    1  0.3145406E-005  0.6611161E+03  0.7818608E-02  0.9786141E-01
         -2   -1    0    0    0  501 -0.00000000000E+00  0.00000000000E+00  0.92199166235E+02  0.92199166270E+02  0.25500000000E-02 0. -1.
          2   -1    0    0  501    0  0.00000000000E+00 -0.00000000000E+00 -0.11851366878E+04  0.11851366878E+04  0.25500000000E-02 0.  1.
    5000001    1    1    2    0    0  0.26147199760E+03 -0.23866332526E+02 -0.76766065946E+03  0.82792819462E+03  0.16500000000E+03 0.  0.
   -5000001    1    1    2    0    0 -0.26147199760E+03  0.23866332526E+02 -0.32527686212E+03  0.44940765947E+03  0.16500000000E+03 0.  0.
<mgrwt>
<rscale>  0 0.66111607E+03</rscale>
<asrwt>0</asrwt>
<pdfrwt beam="1">  1        2 0.18232871E+00 0.66111607E+03</pdfrwt>
<pdfrwt beam="2">  1       -2 0.14184488E-01 0.66111607E+03</pdfrwt>
<totfact> 0.75206673E+02</totfact>
</mgrwt>
</event>
<event>
 4    1  0.3145406E-005  0.4845295E+03  0.7818608E-02  0.1017898E+00
          2   -1    0    0  501    0  0.00000000000E+00  0.00000000000E+00  0.14689742753E+03  0.14689742755E+03  0.25500000000E-02 0.  1.
         -2   -1    0    0    0  501 -0.00000000000E+00 -0.00000000000E+00 -0.39954547999E+03  0.39954548000E+03  0.25500000000E-02 0. -1.
    5000001    1    1    2    0    0  0.73860362576E+02 -0.13853034914E+03 -0.33180056877E+02  0.23015630986E+03  0.16500000000E+03 0.  0.
   -5000001    1    1    2    0    0 -0.73860362576E+02  0.13853034914E+03 -0.21946799559E+03  0.31628659769E+03  0.16500000000E+03 0.  0.
<mgrwt>
<rscale>  0 0.48452948E+03</rscale>
<asrwt>0</asrwt>
<pdfrwt beam="1">  1        2 0.22599604E-01 0.48452948E+03</pdfrwt>
<pdfrwt beam="2">  1       -2 0.61468535E-01 0.48452948E+03</pdfrwt>
<totfact> 0.61009927E+02</totfact>
</mgrwt>
</event>
<event>
 4    1  0.3145406E-005  0.1113022E+04  0.7818608E-02  0.9192592E-01
         -2   -1    0    0    0  501 -0.00000000000E+00  0.00000000000E+00  0.11716736803E+03  0.11716736806E+03  0.25500000000E-02 0. -1.
          2   -1    0    0  501    0  0.00000000000E+00 -0.00000000000E+00 -0.26432662416E+04  0.26432662416E+04  0.25500000000E-02 0.  1.
    5000001    1    1    2    0    0  0.21125115695E+03 -0.48275269535E+03 -0.10911796146E+04  0.12229371069E+04  0.16500000000E+03 0.  0.
   -5000001    1    1    2    0    0 -0.21125115695E+03  0.48275269535E+03 -0.14349192590E+04  0.15374965028E+04  0.16500000000E+03 0.  0.
<mgrwt>
<rscale>  0 0.11130221E+04</rscale>
<asrwt>0</asrwt>
<pdfrwt beam="1">  1        2 0.40665630E+00 0.11130221E+04</pdfrwt>
<pdfrwt beam="2">  1       -2 0.18025751E-01 0.11130221E+04</pdfrwt>
<totfact> 0.73765174E+01</totfact>
</mgrwt>
</event>
<event>
 4    1  0.3145406E-005  0.4670621E+03  0.7818608E-02  0.1022753E+00
          2   -1    0    0  501    0  0.00000000000E+00  0.00000000000E+00  0.23282907085E+03  0.23282907086E+03  0.25500000000E-02 0.  1.
         -2   -1    0    0    0  501 -0.00000000000E+00 -0.00000000000E+00 -0.23423515363E+03  0.23423515365E+03  0.25500000000E-02 0. -1.
    5000001    1    1    2    0    0 -0.16129279127E+03  0.18538783908E+02  0.30162972217E+02  0.23343919105E+03  0.16500000000E+03 0.  0.
   -5000001    1    1    2    0    0  0.16129279127E+03 -0.18538783908E+02 -0.31569055006E+02  0.23362503346E+03  0.16500000000E+03 0.  0.
<mgrwt>
<rscale>  0 0.46706211E+03</rscale>
<asrwt>0</asrwt>
<pdfrwt beam="1">  1        2 0.35819857E-01 0.46706211E+03</pdfrwt>
<pdfrwt beam="2">  1       -2 0.36036177E-01 0.46706211E+03</pdfrwt>
<totfact> 0.10557298E+03</totfact>
</mgrwt>
</event>
<event>
 4    1  0.3145406E-005  0.3698985E+03  0.7818608E-02  0.1054732E+00
         -2   -1    0    0    0  501 -0.00000000000E+00  0.00000000000E+00  0.33203592362E+02  0.33203592460E+02  0.25500000000E-02 0. -1.
          2   -1    0    0  501    0  0.00000000000E+00 -0.00000000000E+00 -0.10301965112E+04  0.10301965112E+04  0.25500000000E-02 0.  1.
    5000001    1    1    2    0    0  0.40893342638E+02 -0.66589040277E+02 -0.41346429447E+03  0.45197797353E+03  0.16500000000E+03 0.  0.
   -5000001    1    1    2    0    0 -0.40893342638E+02  0.66589040277E+02 -0.58352862439E+03  0.61142213015E+03  0.16500000000E+03 0.  0.
<mgrwt>
<rscale>  0 0.36989850E+03</rscale>
<asrwt>0</asrwt>
<pdfrwt beam="1">  1        2 0.15849175E+00 0.36989850E+03</pdfrwt>
<pdfrwt beam="2">  1       -2 0.51082458E-02 0.36989850E+03</pdfrwt>
<totfact> 0.47883797E+03</totfact>
</mgrwt>
</event>
<event>
 4    1  0.3145406E-005  0.5173071E+03  0.7818608E-02  0.1009358E+00
         -2   -1    0    0    0  501 -0.00000000000E+00  0.00000000000E+00  0.18060387823E+03  0.18060387825E+03  0.25500000000E-02 0. -1.
          2   -1    0    0  501    0  0.00000000000E+00 -0.00000000000E+00 -0.37043316033E+03  0.37043316034E+03  0.25500000000E-02 0.  1.
    5000001    1    1    2    0    0  0.19037413184E+02 -0.19194941749E+03 -0.41978629623E+02  0.25728234941E+03  0.16500000000E+03 0.  0.
   -5000001    1    1    2    0    0 -0.19037413184E+02  0.19194941749E+03 -0.14785065248E+03  0.29375468918E+03  0.16500000000E+03 0.  0.
<mgrwt>
<rscale>  0 0.51730712E+03</rscale>
<asrwt>0</asrwt>
<pdfrwt beam="1">  1        2 0.56989717E-01 0.51730712E+03</pdfrwt>
<pdfrwt beam="2">  1       -2 0.27785212E-01 0.51730712E+03</pdfrwt>
<totfact> 0.10264904E+03</totfact>
</mgrwt>
</event>
<event>
 4    1  0.3145406E-005  0.3758597E+03  0.7818608E-02  0.1052475E+00
          2   -1    0    0  501    0  0.00000000000E+00  0.00000000000E+00  0.60339189313E+03  0.60339189313E+03  0.25500000000E-02 0.  1.
         -2   -1    0    0    0  501 -0.00000000000E+00 -0.00000000000E+00 -0.58531811368E+02  0.58531811424E+02  0.25500000000E-02 0. -1.
    5000001    1    1    2    0    0 -0.55871565876E+02  0.72081924467E+01  0.39594568908E+03  0.43263330733E+03  0.16500000000E+03 0.  0.
   -5000001    1    1    2    0    0  0.55871565876E+02 -0.72081924467E+01  0.14891439267E+03  0.22929039722E+03  0.16500000000E+03 0.  0.
<mgrwt>
<rscale>  0 0.37585966E+03</rscale>
<asrwt>0</asrwt>
<pdfrwt beam="1">  1        2 0.92829523E-01 0.37585966E+03</pdfrwt>
<pdfrwt beam="2">  1       -2 0.90048939E-02 0.37585966E+03</pdfrwt>
<totfact> 0.39514745E+03</totfact>
</mgrwt>
</event>
<event>
 4    1  0.3145406E-005  0.6195522E+03  0.7818608E-02  0.9865652E-01
          2   -1    0    0  501    0  0.00000000000E+00  0.00000000000E+00  0.22607574787E+04  0.22607574787E+04  0.25500000000E-02 0.  1.
         -2   -1    0    0    0  501 -0.00000000000E+00 -0.00000000000E+00 -0.42446493768E+02  0.42446493844E+02  0.25500000000E-02 0. -1.
    5000001    1    1    2    0    0 -0.25881887341E+03 -0.31833024126E+02  0.10083235136E+04  0.10544865380E+04  0.16500000000E+03 0.  0.
   -5000001    1    1    2    0    0  0.25881887341E+03  0.31833024126E+02  0.12099874713E+04  0.12487174346E+04  0.16500000000E+03 0.  0.
<mgrwt>
<rscale>  0 0.61955219E+03</rscale>
<asrwt>0</asrwt>
<pdfrwt beam="1">  1        2 0.34780880E+00 0.61955219E+03</pdfrwt>
<pdfrwt beam="2">  1       -2 0.65302306E-02 0.61955219E+03</pdfrwt>
<totfact> 0.67483482E+02</totfact>
</mgrwt>
</event>
<event>
 4    1  0.3145406E-005  0.5396614E+03  0.7818608E-02  0.1003916E+00
         -2   -1    0    0    0  501 -0.00000000000E+00  0.00000000000E+00  0.15070668957E+03  0.15070668959E+03  0.25500000000E-02 0. -1.
          2   -1    0    0  501    0  0.00000000000E+00 -0.00000000000E+00 -0.48311466443E+03  0.48311466444E+03  0.25500000000E-02 0.  1.
    5000001    1    1    2    0    0  0.18304486279E+03  0.39237921017E+01 -0.37210005686E+02  0.24925970886E+03  0.16500000000E+03 0.  0.
   -5000001    1    1    2    0    0 -0.18304486279E+03 -0.39237921017E+01 -0.29519796917E+03  0.38456164518E+03  0.16500000000E+03 0.  0.
<mgrwt>
<rscale>  0 0.53966142E+03</rscale>
<asrwt>0</asrwt>
<pdfrwt beam="1">  1        2 0.74325332E-01 0.53966142E+03</pdfrwt>
<pdfrwt beam="2">  1       -2 0.23185645E-01 0.53966142E+03</pdfrwt>
<totfact> 0.10545741E+03</totfact>
</mgrwt>
</event>
<event>
 4    1  0.3145406E-005  0.5715332E+03  0.7818608E-02  0.9966292E-01
         -2   -1    0    0    0  501 -0.00000000000E+00  0.00000000000E+00  0.31763588199E+02  0.31763588301E+02  0.25500000000E-02 0. -1.
          2   -1    0    0  501    0  0.00000000000E+00 -0.00000000000E+00 -0.25709486025E+04  0.25709486025E+04  0.25500000000E-02 0.  1.
    5000001    1    1    2    0    0  0.16199702182E+02  0.22980858154E+03 -0.11014588580E+04  0.11373262638E+04  0.16500000000E+03 0.  0.
   -5000001    1    1    2    0    0 -0.16199702182E+02 -0.22980858154E+03 -0.14377261563E+04  0.14653859270E+04  0.16500000000E+03 0.  0.
<mgrwt>
<rscale>  0 0.57153321E+03</rscale>
<asrwt>0</asrwt>
<pdfrwt beam="1">  1        2 0.39553039E+00 0.57153321E+03</pdfrwt>
<pdfrwt beam="2">  1       -2 0.48867079E-02 0.57153321E+03</pdfrwt>
<totfact> 0.71526373E+02</totfact>
</mgrwt>
</event>
<event>
 4    1  0.3145406E-005  0.1010084E+04  0.7818608E-02  0.9297553E-01
          2   -1    0    0  501    0  0.00000000000E+00  0.00000000000E+00  0.86785365541E+03  0.86785365541E+03  0.25500000000E-02 0.  1.
         -2   -1    0    0    0  501 -0.00000000000E+00 -0.00000000000E+00 -0.29390622267E+03  0.29390622268E+03  0.25500000000E-02 0. -1.
    5000001    1    1    2    0    0 -0.20857754576E+03 -0.20219562736E+03 -0.14865497047E+03  0.36566509891E+03  0.16500000000E+03 0.  0.
   -5000001    1    1    2    0    0  0.20857754576E+03  0.20219562736E+03  0.72260240321E+03  0.79609477918E+03  0.16500000000E+03 0.  0.
<mgrwt>
<rscale>  0 0.10100843E+04</rscale>
<asrwt>0</asrwt>
<pdfrwt beam="1">  1        2 0.13351595E+00 0.10100843E+04</pdfrwt>
<pdfrwt beam="2">  1       -2 0.45216343E-01 0.10100843E+04</pdfrwt>
<totfact> 0.14270990E+02</totfact>
</mgrwt>
</event>
<event>
 4    1  0.3145406E-005  0.5969428E+03  0.7818608E-02  0.9911769E-01
         -2   -1    0    0    0  501 -0.00000000000E+00  0.00000000000E+00  0.10818047076E+03  0.10818047079E+03  0.25500000000E-02 0. -1.
          2   -1    0    0  501    0  0.00000000000E+00 -0.00000000000E+00 -0.82348663471E+03  0.82348663471E+03  0.25500000000E-02 0.  1.
    5000001    1    1    2    0    0 -0.86014254343E+02 -0.18290249165E+03 -0.58386971179E+03  0.63951592142E+03  0.16500000000E+03 0.  0.
   -5000001    1    1    2    0    0  0.86014254343E+02  0.18290249165E+03 -0.13143645216E+03  0.29215118408E+03  0.16500000000E+03 0.  0.
<mgrwt>
<rscale>  0 0.59694278E+03</rscale>
<asrwt>0</asrwt>
<pdfrwt beam="1">  1        2 0.12669025E+00 0.59694278E+03</pdfrwt>
<pdfrwt beam="2">  1       -2 0.16643150E-01 0.59694278E+03</pdfrwt>
<totfact> 0.97794120E+02</totfact>
</mgrwt>
</event>
<event>
 4    1  0.3145406E-005  0.3584258E+03  0.7818608E-02  0.1059209E+00
         -2   -1    0    0    0  501 -0.00000000000E+00  0.00000000000E+00  0.13534328287E+02  0.13534328527E+02  0.25500000000E-02 0. -1.
          2   -1    0    0  501    0  0.00000000000E+00 -0.00000000000E+00 -0.23730220468E+04  0.23730220468E+04  0.25500000000E-02 0.  1.
    5000001    1    1    2    0    0  0.59763864395E+02  0.36267797035E+02 -0.11949086098E+04  0.12082709375E+04  0.16500000000E+03 0.  0.
   -5000001    1    1    2    0    0 -0.59763864395E+02 -0.36267797035E+02 -0.11645791087E+04  0.11782854378E+04  0.16500000000E+03 0.  0.
<mgrwt>
<rscale>  0 0.35842578E+03</rscale>
<asrwt>0</asrwt>
<pdfrwt beam="1">  1        2 0.36507998E+00 0.35842578E+03</pdfrwt>
<pdfrwt beam="2">  1       -2 0.20822063E-02 0.35842578E+03</pdfrwt>
<totfact> 0.34106448E+03</totfact>
</mgrwt>
</event>
<event>
 4    1  0.3145406E-005  0.4191600E+03  0.7818608E-02  0.1037340E+00
          2   -1    0    0  501    0  0.00000000000E+00  0.00000000000E+00  0.21415608967E+04  0.21415608967E+04  0.25500000000E-02 0. -1.
         -2   -1    0    0    0  501 -0.00000000000E+00 -0.00000000000E+00 -0.20510166371E+02  0.20510166530E+02  0.25500000000E-02 0.  1.
    5000001    1    1    2    0    0  0.12409525146E+03  0.68088324567E+01  0.87795622756E+03  0.90193022410E+03  0.16500000000E+03 0.  0.
   -5000001    1    1    2    0    0 -0.12409525146E+03 -0.68088324567E+01  0.12430945028E+04  0.12601408391E+04  0.16500000000E+03 0.  0.
<mgrwt>
<rscale>  0 0.41915997E+03</rscale>
<asrwt>0</asrwt>
<pdfrwt beam="1">  1        2 0.32947064E+00 0.41915997E+03</pdfrwt>
<pdfrwt beam="2">  1       -2 0.31554128E-02 0.41915997E+03</pdfrwt>
<totfact> 0.24353884E+03</totfact>
</mgrwt>
</event>
<event>
 4    1  0.3145406E-005  0.4276787E+03  0.7818608E-02  0.1034596E+00
         -2   -1    0    0    0  501 -0.00000000000E+00  0.00000000000E+00  0.18560742269E+02  0.18560742444E+02  0.25500000000E-02 0. -1.
          2   -1    0    0  501    0  0.00000000000E+00 -0.00000000000E+00 -0.24636548560E+04  0.24636548560E+04  0.25500000000E-02 0.  1.
    5000001    1    1    2    0    0 -0.37943887019E+02  0.44832201711E+01 -0.19802301548E+04  0.19874597616E+04  0.16500000000E+03 0.  0.
   -5000001    1    1    2    0    0  0.37943887019E+02 -0.44832201711E+01 -0.46486395897E+03  0.49475583693E+03  0.16500000000E+03 0.  0.
<mgrwt>
<rscale>  0 0.42767868E+03</rscale>
<asrwt>0</asrwt>
<pdfrwt beam="1">  1        2 0.37902356E+00 0.42767868E+03</pdfrwt>
<pdfrwt beam="2">  1       -2 0.28555008E-02 0.42767868E+03</pdfrwt>
<totfact> 0.18880287E+03</totfact>
</mgrwt>
</event>
<event>
 4    1  0.3145406E-005  0.4116768E+03  0.7818608E-02  0.1039810E+00
         -2   -1    0    0    0  501 -0.00000000000E+00  0.00000000000E+00  0.50121021152E+02  0.50121021217E+02  0.25500000000E-02 0. -1.
          2   -1    0    0  501    0  0.00000000000E+00 -0.00000000000E+00 -0.84534276622E+03  0.84534276623E+03  0.25500000000E-02 0.  1.
    5000001    1    1    2    0    0 -0.11625277365E+03  0.37241542187E+02 -0.43150453866E+03  0.47783135804E+03  0.16500000000E+03 0.  0.
   -5000001    1    1    2    0    0  0.11625277365E+03 -0.37241542187E+02 -0.36371720641E+03  0.41763242940E+03  0.16500000000E+03 0.  0.
<mgrwt>
<rscale>  0 0.41167678E+03</rscale>
<asrwt>0</asrwt>
<pdfrwt beam="1">  1        2 0.13005272E+00 0.41167678E+03</pdfrwt>
<pdfrwt beam="2">  1       -2 0.77109269E-02 0.41167678E+03</pdfrwt>
<totfact> 0.33241540E+03</totfact>
</mgrwt>
</event>
<event>
 4    1  0.3145406E-005  0.3507789E+03  0.7818608E-02  0.1062296E+00
         -2   -1    0    0    0  501 -0.00000000000E+00  0.00000000000E+00  0.48650377559E+02  0.48650377626E+02  0.25500000000E-02 0. -1.
          2   -1    0    0  501    0  0.00000000000E+00 -0.00000000000E+00 -0.63229644717E+03  0.63229644717E+03  0.25500000000E-02 0.  1.
    5000001    1    1    2    0    0  0.30397375538E+02 -0.50906906366E+02 -0.30070776617E+03  0.34808860106E+03  0.16500000000E+03 0.  0.
   -5000001    1    1    2    0    0 -0.30397375538E+02  0.50906906366E+02 -0.28293830344E+03  0.33285822373E+03  0.16500000000E+03 0.  0.
<mgrwt>
<rscale>  0 0.35077891E+03</rscale>
<asrwt>0</asrwt>
<pdfrwt beam="1">  1        2 0.97276370E-01 0.35077891E+03</pdfrwt>
<pdfrwt beam="2">  1       -2 0.74846739E-02 0.35077891E+03</pdfrwt>
<totfact> 0.49982620E+03</totfact>
</mgrwt>
</event>
<event>
 4    1  0.3145406E-005  0.5421143E+03  0.7818608E-02  0.1003336E+00
          2   -1    0    0  501    0  0.00000000000E+00  0.00000000000E+00  0.29573219105E+04  0.29573219105E+04  0.25500000000E-02 0.  1.
         -2   -1    0    0    0  501 -0.00000000000E+00 -0.00000000000E+00 -0.24844094249E+02  0.24844094380E+02  0.25500000000E-02 0. -1.
    5000001    1    1    2    0    0 -0.19304742783E+03  0.88548705105E+02  0.12806017011E+04  0.13085388414E+04  0.16500000000E+03 0.  0.
   -5000001    1    1    2    0    0  0.19304742783E+03 -0.88548705105E+02  0.16518761151E+04  0.16736271635E+04  0.16500000000E+03 0.  0.
<mgrwt>
<rscale>  0 0.54211432E+03</rscale>
<asrwt>0</asrwt>
<pdfrwt beam="1">  1        2 0.45497225E+00 0.54211432E+03</pdfrwt>
<pdfrwt beam="2">  1       -2 0.38221713E-02 0.54211432E+03</pdfrwt>
<totfact> 0.62330560E+02</totfact>
</mgrwt>
</event>
<event>
 4    1  0.3145406E-005  0.1023474E+04  0.7818608E-02  0.9283168E-01
         -2   -1    0    0    0  501 -0.00000000000E+00  0.00000000000E+00  0.88902611463E+02  0.88902611500E+02  0.25500000000E-02 0.  1.
          2   -1    0    0  501    0  0.00000000000E+00 -0.00000000000E+00 -0.29456338363E+04  0.29456338363E+04  0.25500000000E-02 0. -1.
    5000001    1    1    2    0    0 -0.30865114203E+03 -0.37329257209E+03 -0.14104115269E+04  0.15003661377E+04  0.16500000000E+03 0.  0.
   -5000001    1    1    2    0    0  0.30865114203E+03  0.37329257209E+03 -0.14463196979E+04  0.15341703101E+04  0.16500000000E+03 0.  0.
<mgrwt>
<rscale>  0 0.10234736E+04</rscale>
<asrwt>0</asrwt>
<pdfrwt beam="1">  1        2 0.45317436E+00 0.10234736E+04</pdfrwt>
<pdfrwt beam="2">  1       -2 0.13677327E-01 0.10234736E+04</pdfrwt>
<totfact> 0.78693435E+01</totfact>
</mgrwt>
</event>
<event>
 4    1  0.3145406E-005  0.4822160E+03  0.7818608E-02  0.1018528E+00
         -2   -1    0    0    0  501 -0.00000000000E+00  0.00000000000E+00  0.15219942257E+02  0.15219942470E+02  0.25500000000E-02 0. -1.
          2   -1    0    0  501    0  0.00000000000E+00 -0.00000000000E+00 -0.38195326696E+04  0.38195326696E+04  0.25500000000E-02 0.  1.
    5000001    1    1    2    0    0 -0.16189860826E+03  0.68499695571E+02 -0.18849170944E+04  0.19002738804E+04  0.16500000000E+03 0.  0.
   -5000001    1    1    2    0    0  0.16189860826E+03 -0.68499695571E+02 -0.19193956329E+04  0.19344787316E+04  0.16500000000E+03 0.  0.
<mgrwt>
<rscale>  0 0.48221600E+03</rscale>
<asrwt>0</asrwt>
<pdfrwt beam="1">  1        2 0.58761965E+00 0.48221600E+03</pdfrwt>
<pdfrwt beam="2">  1       -2 0.23415326E-02 0.48221600E+03</pdfrwt>
<totfact> 0.35558040E+02</totfact>
</mgrwt>
</event>
<event>
 4    1  0.3145406E-005  0.4805229E+03  0.7818608E-02  0.1018992E+00
          2   -1    0    0  501    0  0.00000000000E+00  0.00000000000E+00  0.14868223426E+04  0.14868223426E+04  0.25500000000E-02 0.  1.
         -2   -1    0    0    0  501 -0.00000000000E+00 -0.00000000000E+00 -0.38824781893E+02  0.38824781977E+02  0.25500000000E-02 0. -1.
    5000001    1    1    2    0    0 -0.33532468454E+02  0.16831901816E+03  0.62137124818E+03  0.66541937632E+03  0.16500000000E+03 0.  0.
   -5000001    1    1    2    0    0  0.33532468454E+02 -0.16831901816E+03  0.82662631253E+03  0.86022774826E+03  0.16500000000E+03 0.  0.
<mgrwt>
<rscale>  0 0.48052285E+03</rscale>
<asrwt>0</asrwt>
<pdfrwt beam="1">  1        2 0.22874186E+00 0.48052285E+03</pdfrwt>
<pdfrwt beam="2">  1       -2 0.59730444E-02 0.48052285E+03</pdfrwt>
<totfact> 0.20568752E+03</totfact>
</mgrwt>
</event>
<event>
 4    1  0.3145406E-005  0.7577454E+03  0.7818608E-02  0.9623277E-01
          2   -1    0    0  501    0  0.00000000000E+00  0.00000000000E+00  0.10056755482E+04  0.10056755482E+04  0.25500000000E-02 0.  1.
         -2   -1    0    0    0  501 -0.00000000000E+00 -0.00000000000E+00 -0.14273443512E+03  0.14273443514E+03  0.25500000000E-02 0. -1.
    5000001    1    1    2    0    0  0.11275683638E+03  0.20318199804E+03  0.80982259726E+03  0.85850723206E+03  0.16500000000E+03 0.  0.
   -5000001    1    1    2    0    0 -0.11275683638E+03 -0.20318199804E+03  0.53118515830E+02  0.28990275128E+03  0.16500000000E+03 0.  0.
<mgrwt>
<rscale>  0 0.75774542E+03</rscale>
<asrwt>0</asrwt>
<pdfrwt beam="1">  1        2 0.15471931E+00 0.75774542E+03</pdfrwt>
<pdfrwt beam="2">  1       -2 0.21959145E-01 0.75774542E+03</pdfrwt>
<totfact> 0.45451899E+02</totfact>
</mgrwt>
</event>
<event>
 4    1  0.3145406E-005  0.5161374E+03  0.7818608E-02  0.1009651E+00
          2   -1    0    0  501    0  0.00000000000E+00  0.00000000000E+00  0.29770872478E+03  0.29770872479E+03  0.25500000000E-02 0.  1.
         -2   -1    0    0    0  501 -0.00000000000E+00 -0.00000000000E+00 -0.22370678912E+03  0.22370678914E+03  0.25500000000E-02 0. -1.
    5000001    1    1    2    0    0  0.18123925563E+03  0.48519777397E+02  0.10225740178E+03  0.26996928122E+03  0.16500000000E+03 0.  0.
   -5000001    1    1    2    0    0 -0.18123925563E+03 -0.48519777397E+02 -0.28255466121E+02  0.25144623271E+03  0.16500000000E+03 0.  0.
<mgrwt>
<rscale>  0 0.51613743E+03</rscale>
<asrwt>0</asrwt>
<pdfrwt beam="1">  1        2 0.45801342E-01 0.51613743E+03</pdfrwt>
<pdfrwt beam="2">  1       -2 0.34416429E-01 0.51613743E+03</pdfrwt>
<totfact> 0.87874006E+02</totfact>
</mgrwt>
</event>
<event>
 4    1  0.3145406E-005  0.3922513E+03  0.7818608E-02  0.1046496E+00
         -2   -1    0    0    0  501 -0.00000000000E+00  0.00000000000E+00  0.58251165364E+02  0.58251165420E+02  0.25500000000E-02 0. -1.
          2   -1    0    0  501    0  0.00000000000E+00 -0.00000000000E+00 -0.66033493461E+03  0.66033493462E+03  0.25500000000E-02 0.  1.
    5000001    1    1    2    0    0  0.36813533374E+02  0.99397793316E+02 -0.30518790589E+03  0.36276688859E+03  0.16500000000E+03 0.  0.
   -5000001    1    1    2    0    0 -0.36813533374E+02 -0.99397793316E+02 -0.29689586336E+03  0.35581921145E+03  0.16500000000E+03 0.  0.
<mgrwt>
<rscale>  0 0.39225135E+03</rscale>
<asrwt>0</asrwt>
<pdfrwt beam="1">  1        2 0.10158998E+00 0.39225135E+03</pdfrwt>
<pdfrwt beam="2">  1       -2 0.89617182E-02 0.39225135E+03</pdfrwt>
<totfact> 0.35776953E+03</totfact>
</mgrwt>
</event>
<event>
 4    1  0.3145406E-005  0.4271100E+03  0.7818608E-02  0.1034777E+00
          2   -1    0    0  501    0  0.00000000000E+00  0.00000000000E+00  0.27855749184E+03  0.27855749185E+03  0.25500000000E-02 0.  1.
         -2   -1    0    0    0  501 -0.00000000000E+00 -0.00000000000E+00 -0.16372109200E+03  0.16372109202E+03  0.25500000000E-02 0. -1.
    5000001    1    1    2    0    0  0.12226737917E+03 -0.49962299504E+02  0.25751202445E+02  0.21291704443E+03  0.16500000000E+03 0.  0.
   -5000001    1    1    2    0    0 -0.12226737917E+03  0.49962299504E+02  0.89085197397E+02  0.22936153944E+03  0.16500000000E+03 0.  0.
<mgrwt>
<rscale>  0 0.42710999E+03</rscale>
<asrwt>0</asrwt>
<pdfrwt beam="1">  1        2 0.42854999E-01 0.42710999E+03</pdfrwt>
<pdfrwt beam="2">  1       -2 0.25187860E-01 0.42710999E+03</pdfrwt>
<totfact> 0.16743792E+03</totfact>
</mgrwt>
</event>
<event>
 4    1  0.3145406E-005  0.4512308E+03  0.7818608E-02  0.1027356E+00
         -2   -1    0    0    0  501 -0.00000000000E+00  0.00000000000E+00  0.57731761646E+02  0.57731761702E+02  0.25500000000E-02 0. -1.
          2   -1    0    0  501    0  0.00000000000E+00 -0.00000000000E+00 -0.88170390317E+03  0.88170390318E+03  0.25500000000E-02 0.  1.
    5000001    1    1    2    0    0  0.31271408395E+02 -0.15064737689E+03 -0.41654093633E+03  0.47371287167E+03  0.16500000000E+03 0.  0.
   -5000001    1    1    2    0    0 -0.31271408395E+02  0.15064737689E+03 -0.40743120520E+03  0.46572279321E+03  0.16500000000E+03 0.  0.
<mgrwt>
<rscale>  0 0.45123085E+03</rscale>
<asrwt>0</asrwt>
<pdfrwt beam="1">  1        2 0.13564674E+00 0.45123085E+03</pdfrwt>
<pdfrwt beam="2">  1       -2 0.88818101E-02 0.45123085E+03</pdfrwt>
<totfact> 0.25120271E+03</totfact>
</mgrwt>
</event>
<event>
 4    1  0.3145406E-005  0.3851092E+03  0.7818608E-02  0.1049061E+00
          2   -1    0    0  501    0  0.00000000000E+00  0.00000000000E+00  0.11848799372E+04  0.11848799372E+04  0.25500000000E-02 0.  1.
         -2   -1    0    0    0  501 -0.00000000000E+00 -0.00000000000E+00 -0.31292001129E+02  0.31292001233E+02  0.25500000000E-02 0. -1.
    5000001    1    1    2    0    0 -0.80875107505E+02 -0.28231090289E+02  0.41843749094E+03  0.45787848966E+03  0.16500000000E+03 0.  0.
   -5000001    1    1    2    0    0  0.80875107505E+02  0.28231090289E+02  0.73515044510E+03  0.75829344874E+03  0.16500000000E+03 0.  0.
<mgrwt>
<rscale>  0 0.38510915E+03</rscale>
<asrwt>0</asrwt>
<pdfrwt beam="1">  1        2 0.18228923E+00 0.38510915E+03</pdfrwt>
<pdfrwt beam="2">  1       -2 0.48141539E-02 0.38510915E+03</pdfrwt>
<totfact> 0.42446972E+03</totfact>
</mgrwt>
</event>
<event>
 4    1  0.3145406E-005  0.1021964E+04  0.7818608E-02  0.9284778E-01
          2   -1    0    0  501    0  0.00000000000E+00  0.00000000000E+00  0.12697044204E+04  0.12697044204E+04  0.25500000000E-02 0.  1.
         -2   -1    0    0    0  501 -0.00000000000E+00 -0.00000000000E+00 -0.20564032545E+03  0.20564032546E+03  0.25500000000E-02 0. -1.
    5000001    1    1    2    0    0  0.28025274760E+03 -0.22995759982E+03  0.99412073851E+03  0.10709449766E+04  0.16500000000E+03 0.  0.
   -5000001    1    1    2    0    0 -0.28025274760E+03  0.22995759982E+03  0.69943356466E+02  0.40439976925E+03  0.16500000000E+03 0.  0.
<mgrwt>
<rscale>  0 0.10219637E+04</rscale>
<asrwt>0</asrwt>
<pdfrwt beam="1">  1        2 0.19533914E+00 0.10219637E+04</pdfrwt>
<pdfrwt beam="2">  1       -2 0.31636974E-01 0.10219637E+04</pdfrwt>
<totfact> 0.15918829E+02</totfact>
</mgrwt>
</event>
<event>
 4    1  0.3145406E-005  0.4970246E+03  0.7818608E-02  0.1014558E+00
          2   -1    0    0  501    0  0.00000000000E+00  0.00000000000E+00  0.12038581753E+04  0.12038581753E+04  0.25500000000E-02 0.  1.
         -2   -1    0    0    0  501 -0.00000000000E+00 -0.00000000000E+00 -0.51300367950E+02  0.51300368013E+02  0.25500000000E-02 0. -1.
    5000001    1    1    2    0    0  0.35207699342E+02 -0.14704025757E+03  0.84912073890E+03  0.87811812911E+03  0.16500000000E+03 0.  0.
   -5000001    1    1    2    0    0 -0.35207699342E+02  0.14704025757E+03  0.30343706848E+03  0.37704041424E+03  0.16500000000E+03 0.  0.
<mgrwt>
<rscale>  0 0.49702462E+03</rscale>
<asrwt>0</asrwt>
<pdfrwt beam="1">  1        2 0.18520893E+00 0.49702462E+03</pdfrwt>
<pdfrwt beam="2">  1       -2 0.78923651E-02 0.49702462E+03</pdfrwt>
<totfact> 0.19152753E+03</totfact>
</mgrwt>
</event>
<event>
 4    1  0.3145406E-005  0.4668230E+03  0.7818608E-02  0.1022821E+00
          2   -1    0    0  501    0  0.00000000000E+00  0.00000000000E+00  0.34546058956E+03  0.34546058957E+03  0.25500000000E-02 0.  1.
         -2   -1    0    0    0  501 -0.00000000000E+00 -0.00000000000E+00 -0.15770521391E+03  0.15770521393E+03  0.25500000000E-02 0. -1.
    5000001    1    1    2    0    0 -0.71221079389E+02 -0.14359527613E+03  0.13650245700E+03  0.26748825440E+03  0.16500000000E+03 0.  0.
   -5000001    1    1    2    0    0  0.71221079389E+02  0.14359527613E+03  0.51252918651E+02  0.23567754909E+03  0.16500000000E+03 0.  0.
<mgrwt>
<rscale>  0 0.46682303E+03</rscale>
<asrwt>0</asrwt>
<pdfrwt beam="1">  1        2 0.53147782E-01 0.46682303E+03</pdfrwt>
<pdfrwt beam="2">  1       -2 0.24262341E-01 0.46682303E+03</pdfrwt>
<totfact> 0.14147738E+03</totfact>
</mgrwt>
</event>
<event>
 4    1  0.3145406E-005  0.4463593E+03  0.7818608E-02  0.1028813E+00
         -2   -1    0    0    0  501 -0.00000000000E+00  0.00000000000E+00  0.24235563872E+02  0.24235564006E+02  0.25500000000E-02 0. -1.
          2   -1    0    0  501    0  0.00000000000E+00 -0.00000000000E+00 -0.20552093146E+04  0.20552093146E+04  0.25500000000E-02 0.  1.
    5000001    1    1    2    0    0 -0.12761382909E+03  0.77334829688E+02 -0.93238571119E+03  0.95855833401E+03  0.16500000000E+03 0.  0.
   -5000001    1    1    2    0    0  0.12761382909E+03 -0.77334829688E+02 -0.10985880396E+04  0.11208865446E+04  0.16500000000E+03 0.  0.
<mgrwt>
<rscale>  0 0.44635930E+03</rscale>
<asrwt>0</asrwt>
<pdfrwt beam="1">  1        2 0.31618591E+00 0.44635930E+03</pdfrwt>
<pdfrwt beam="2">  1       -2 0.37285499E-02 0.44635930E+03</pdfrwt>
<totfact> 0.21015665E+03</totfact>
</mgrwt>
</event>
<event>
 4    1  0.3145406E-005  0.4249331E+03  0.7818608E-02  0.1035473E+00
         -2   -1    0    0    0  501 -0.00000000000E+00  0.00000000000E+00  0.12062355533E+03  0.12062355536E+03  0.25500000000E-02 0. -1.
          2   -1    0    0  501    0  0.00000000000E+00 -0.00000000000E+00 -0.37423895089E+03  0.37423895090E+03  0.25500000000E-02 0.  1.
    5000001    1    1    2    0    0  0.14354687051E+02 -0.12308591510E+03 -0.67875226865E+02  0.21722855696E+03  0.16500000000E+03 0.  0.
   -5000001    1    1    2    0    0 -0.14354687051E+02  0.12308591510E+03 -0.18574016869E+03  0.27763394930E+03  0.16500000000E+03 0.  0.
<mgrwt>
<rscale>  0 0.42493309E+03</rscale>
<asrwt>0</asrwt>
<pdfrwt beam="1">  1        2 0.57575223E-01 0.42493309E+03</pdfrwt>
<pdfrwt beam="2">  1       -2 0.18557470E-01 0.42493309E+03</pdfrwt>
<totfact> 0.20667650E+03</totfact>
</mgrwt>
</event>
<event>
 4    1  0.3145406E-005  0.4171334E+03  0.7818608E-02  0.1038003E+00
          2   -1    0    0  501    0  0.00000000000E+00  0.00000000000E+00  0.60080321153E+02  0.60080321207E+02  0.25500000000E-02 0.  1.
         -2   -1    0    0    0  501 -0.00000000000E+00 -0.00000000000E+00 -0.72403171647E+03  0.72403171648E+03  0.25500000000E-02 0. -1.
    5000001    1    1    2    0    0  0.11825732209E+03 -0.25427407491E+02 -0.25576500467E+03  0.32752417452E+03  0.16500000000E+03 0.  0.
   -5000001    1    1    2    0    0 -0.11825732209E+03  0.25427407491E+02 -0.40818639065E+03  0.45658786317E+03  0.16500000000E+03 0.  0.
<mgrwt>
<rscale>  0 0.41713335E+03</rscale>
<asrwt>0</asrwt>
<pdfrwt beam="1">  1        2 0.92431268E-02 0.41713335E+03</pdfrwt>
<pdfrwt beam="2">  1       -2 0.11138949E+00 0.41713335E+03</pdfrwt>
<totfact> 0.47260411E+02</totfact>
</mgrwt>
</event>
<event>
 4    1  0.3145406E-005  0.4407098E+03  0.7818608E-02  0.1030529E+00
         -2   -1    0    0    0  501 -0.00000000000E+00  0.00000000000E+00  0.15117929127E+03  0.15117929129E+03  0.25500000000E-02 0. -1.
          2   -1    0    0  501    0  0.00000000000E+00 -0.00000000000E+00 -0.32118347076E+03  0.32118347077E+03  0.25500000000E-02 0.  1.
    5000001    1    1    2    0    0 -0.10324860750E+03 -0.44758829032E+02  0.14784892624E+02  0.20026787255E+03  0.16500000000E+03 0.  0.
   -5000001    1    1    2    0    0  0.10324860750E+03  0.44758829032E+02 -0.18478907211E+03  0.27209488951E+03  0.16500000000E+03 0.  0.
<mgrwt>
<rscale>  0 0.44070983E+03</rscale>
<asrwt>0</asrwt>
<pdfrwt beam="1">  1        2 0.49412841E-01 0.44070983E+03</pdfrwt>
<pdfrwt beam="2">  1       -2 0.23258353E-01 0.44070983E+03</pdfrwt>
<totfact> 0.16511856E+03</totfact>
</mgrwt>
</event>
<event>
 4    1  0.3145406E-005  0.5517576E+03  0.7818608E-02  0.1001088E+00
         -2   -1    0    0    0  501 -0.00000000000E+00  0.00000000000E+00  0.74306884794E+02  0.74306884837E+02  0.25500000000E-02 0. -1.
          2   -1    0    0  501    0  0.00000000000E+00 -0.00000000000E+00 -0.10242536635E+04  0.10242536635E+04  0.25500000000E-02 0.  1.
    5000001    1    1    2    0    0 -0.42648371437E+02 -0.19572793061E+03 -0.66127793232E+03  0.71038145399E+03  0.16500000000E+03 0.  0.
   -5000001    1    1    2    0    0  0.42648371437E+02  0.19572793061E+03 -0.28866884636E+03  0.38817909432E+03  0.16500000000E+03 0.  0.
<mgrwt>
<rscale>  0 0.55175755E+03</rscale>
<asrwt>0</asrwt>
<pdfrwt beam="1">  1        2 0.15757748E+00 0.55175755E+03</pdfrwt>
<pdfrwt beam="2">  1       -2 0.11431829E-01 0.55175755E+03</pdfrwt>
<totfact> 0.13509045E+03</totfact>
</mgrwt>
</event>
<event>
 4    1  0.3145406E-005  0.4959780E+03  0.7818608E-02  0.1014834E+00
          2   -1    0    0  501    0  0.00000000000E+00  0.00000000000E+00  0.22588295068E+03  0.22588295070E+03  0.25500000000E-02 0.  1.
         -2   -1    0    0    0  501 -0.00000000000E+00 -0.00000000000E+00 -0.27225844168E+03  0.27225844170E+03  0.25500000000E-02 0. -1.
    5000001    1    1    2    0    0  0.13252938328E+03  0.11199232696E+03 -0.88023343430E+02  0.25510669869E+03  0.16500000000E+03 0.  0.
   -5000001    1    1    2    0    0 -0.13252938328E+03 -0.11199232696E+03  0.41647852429E+02  0.24303469370E+03  0.16500000000E+03 0.  0.
<mgrwt>
<rscale>  0 0.49597798E+03</rscale>
<asrwt>0</asrwt>
<pdfrwt beam="1">  1        2 0.34751223E-01 0.49597798E+03</pdfrwt>
<pdfrwt beam="2">  1       -2 0.41885914E-01 0.49597798E+03</pdfrwt>
<totfact> 0.81747139E+02</totfact>
</mgrwt>
</event>
<event>
 4    1  0.3145406E-005  0.3820322E+03  0.7818608E-02  0.1050185E+00
         -2   -1    0    0    0  501 -0.00000000000E+00  0.00000000000E+00  0.34968389290E+02  0.34968389383E+02  0.25500000000E-02 0. -1.
          2   -1    0    0  501    0  0.00000000000E+00 -0.00000000000E+00 -0.10434326186E+04  0.10434326186E+04  0.25500000000E-02 0.  1.
    5000001    1    1    2    0    0  0.76051828983E+02  0.56249889375E+02 -0.45419385068E+03  0.49240733620E+03  0.16500000000E+03 0.  0.
   -5000001    1    1    2    0    0 -0.76051828983E+02 -0.56249889375E+02 -0.55427037861E+03  0.58599367177E+03  0.16500000000E+03 0.  0.
<mgrwt>
<rscale>  0 0.38203224E+03</rscale>
<asrwt>0</asrwt>
<pdfrwt beam="1">  1        2 0.16052807E+00 0.38203224E+03</pdfrwt>
<pdfrwt beam="2">  1       -2 0.53797530E-02 0.38203224E+03</pdfrwt>
<totfact> 0.43419098E+03</totfact>
</mgrwt>
</event>
<event>
 4    1  0.3145406E-005  0.5321773E+03  0.7818608E-02  0.1005705E+00
         -2   -1    0    0    0  501 -0.00000000000E+00  0.00000000000E+00  0.51217511337E+02  0.51217511400E+02  0.25500000000E-02 0. -1.
          2   -1    0    0  501    0  0.00000000000E+00 -0.00000000000E+00 -0.13824016880E+04  0.13824016880E+04  0.25500000000E-02 0.  1.
    5000001    1    1    2    0    0 -0.93123813188E+02  0.14988368066E+03 -0.96606498309E+03  0.99581309184E+03  0.16500000000E+03 0.  0.
   -5000001    1    1    2    0    0  0.93123813188E+02 -0.14988368066E+03 -0.36511919357E+03  0.43780610757E+03  0.16500000000E+03 0.  0.
<mgrwt>
<rscale>  0 0.53217732E+03</rscale>
<asrwt>0</asrwt>
<pdfrwt beam="1">  1        2 0.21267716E+00 0.53217732E+03</pdfrwt>
<pdfrwt beam="2">  1       -2 0.78796182E-02 0.53217732E+03</pdfrwt>
<totfact> 0.15175532E+03</totfact>
</mgrwt>
</event>
<event>
 4    1  0.3145406E-005  0.4084542E+03  0.7818608E-02  0.1040891E+00
          2   -1    0    0  501    0  0.00000000000E+00  0.00000000000E+00  0.34545857319E+03  0.34545857320E+03  0.25500000000E-02 0.  1.
         -2   -1    0    0    0  501 -0.00000000000E+00 -0.00000000000E+00 -0.12073435177E+03  0.12073435180E+03  0.25500000000E-02 0. -1.
    5000001    1    1    2    0    0  0.10054585288E+03 -0.65210962811E+02  0.99766827364E+02  0.22702501634E+03  0.16500000000E+03 0.  0.
   -5000001    1    1    2    0    0 -0.10054585288E+03  0.65210962811E+02  0.12495739406E+03  0.23916790866E+03  0.16500000000E+03 0.  0.
<mgrwt>
<rscale>  0 0.40845424E+03</rscale>
<asrwt>0</asrwt>
<pdfrwt beam="1">  1        2 0.53147473E-01 0.40845424E+03</pdfrwt>
<pdfrwt beam="2">  1       -2 0.18574516E-01 0.40845424E+03</pdfrwt>
<totfact> 0.22520680E+03</totfact>
</mgrwt>
</event>
<event>
 4    1  0.3145406E-005  0.3908846E+03  0.7818608E-02  0.1046983E+00
         -2   -1    0    0    0  501 -0.00000000000E+00  0.00000000000E+00  0.33571852996E+02  0.33571853093E+02  0.25500000000E-02 0. -1.
          2   -1    0    0  501    0  0.00000000000E+00 -0.00000000000E+00 -0.11377893897E+04  0.11377893897E+04  0.25500000000E-02 0.  1.
    5000001    1    1    2    0    0 -0.10437638105E+03 -0.78101370643E+01 -0.53965498343E+03  0.57394070103E+03  0.16500000000E+03 0.  0.
   -5000001    1    1    2    0    0  0.10437638105E+03  0.78101370643E+01 -0.56456255331E+03  0.59742054180E+03  0.16500000000E+03 0.  0.
<mgrwt>
<rscale>  0 0.39088463E+03</rscale>
<asrwt>0</asrwt>
<pdfrwt beam="1">  1        2 0.17504449E+00 0.39088463E+03</pdfrwt>
<pdfrwt beam="2">  1       -2 0.51649013E-02 0.39088463E+03</pdfrwt>
<totfact> 0.40598423E+03</totfact>
</mgrwt>
</event>
<event>
 4    1  0.3145406E-005  0.4168850E+03  0.7818608E-02  0.1038085E+00
          2   -1    0    0  501    0  0.00000000000E+00  0.00000000000E+00  0.26840810355E+03  0.26840810357E+03  0.25500000000E-02 0.  1.
         -2   -1    0    0    0  501 -0.00000000000E+00 -0.00000000000E+00 -0.16187389828E+03  0.16187389830E+03  0.25500000000E-02 0. -1.
    5000001    1    1    2    0    0 -0.94859857077E+02 -0.84804209956E+02  0.59207003062E+02  0.21661167033E+03  0.16500000000E+03 0.  0.
   -5000001    1    1    2    0    0  0.94859857077E+02  0.84804209956E+02  0.47327202211E+02  0.21367033154E+03  0.16500000000E+03 0.  0.
<mgrwt>
<rscale>  0 0.41688495E+03</rscale>
<asrwt>0</asrwt>
<pdfrwt beam="1">  1        2 0.41293554E-01 0.41688495E+03</pdfrwt>
<pdfrwt beam="2">  1       -2 0.24903677E-01 0.41688495E+03</pdfrwt>
<totfact> 0.17789441E+03</totfact>
</mgrwt>
</event>
<event>
 4    1  0.3145406E-005  0.3805434E+03  0.7818608E-02  0.1050733E+00
         -2   -1    0    0    0  501 -0.00000000000E+00  0.00000000000E+00  0.29446023308E+03  0.29446023309E+03  0.25500000000E-02 0. -1.
          2   -1    0    0  501    0  0.00000000000E+00 -0.00000000000E+00 -0.12294806733E+03  0.12294806736E+03  0.25500000000E-02 0.  1.
    5000001    1    1    2    0    0  0.41410819726E+02 -0.68567459294E+02  0.14127531195E+03  0.23151688109E+03  0.16500000000E+03 0.  0.
   -5000001    1    1    2    0    0 -0.41410819726E+02  0.68567459294E+02  0.30236853800E+02  0.18589141936E+03  0.16500000000E+03 0.  0.
<mgrwt>
<rscale>  0 0.38054338E+03</rscale>
<asrwt>0</asrwt>
<pdfrwt beam="1">  1        2 0.18915088E-01 0.38054338E+03</pdfrwt>
<pdfrwt beam="2">  1       -2 0.45301574E-01 0.38054338E+03</pdfrwt>
<totfact> 0.13941524E+03</totfact>
</mgrwt>
</event>
<event>
 4    1  0.3145406E-005  0.4211908E+03  0.7818608E-02  0.1036679E+00
          2   -1    0    0  501    0  0.00000000000E+00  0.00000000000E+00  0.77301551242E+03  0.77301551242E+03  0.25500000000E-02 0.  1.
         -2   -1    0    0    0  501 -0.00000000000E+00 -0.00000000000E+00 -0.57373265772E+02  0.57373265828E+02  0.25500000000E-02 0. -1.
    5000001    1    1    2    0    0 -0.51605291818E+02  0.11115638896E+03  0.44830914670E+03  0.49317840581E+03  0.16500000000E+03 0.  0.
   -5000001    1    1    2    0    0  0.51605291818E+02 -0.11115638896E+03  0.26733309995E+03  0.33721037244E+03  0.16500000000E+03 0.  0.
<mgrwt>
<rscale>  0 0.42119081E+03</rscale>
<asrwt>0</asrwt>
<pdfrwt beam="1">  1        2 0.11892546E+00 0.42119081E+03</pdfrwt>
<pdfrwt beam="2">  1       -2 0.88266568E-02 0.42119081E+03</pdfrwt>
<totfact> 0.30156092E+03</totfact>
</mgrwt>
</event>
<event>
 4    1  0.3145406E-005  0.5733734E+03  0.7818608E-02  0.9962241E-01
          2   -1    0    0  501    0  0.00000000000E+00  0.00000000000E+00  0.12883684699E+04  0.12883684699E+04  0.25500000000E-02 0.  1.
         -2   -1    0    0    0  501 -0.00000000000E+00 -0.00000000000E+00 -0.63793299900E+02  0.63793299951E+02  0.25500000000E-02 0. -1.
    5000001    1    1    2    0    0 -0.17175438279E+03 -0.15950337702E+03  0.62369066053E+03  0.68640799479E+03  0.16500000000E+03 0.  0.
   -5000001    1    1    2    0    0  0.17175438279E+03  0.15950337702E+03  0.60088450952E+03  0.66575377511E+03  0.16500000000E+03 0.  0.
<mgrwt>
<rscale>  0 0.57337344E+03</rscale>
<asrwt>0</asrwt>
<pdfrwt beam="1">  1        2 0.19821053E+00 0.57337344E+03</pdfrwt>
<pdfrwt beam="2">  1       -2 0.98143539E-02 0.57337344E+03</pdfrwt>
<totfact> 0.12048772E+03</totfact>
</mgrwt>
</event>
<event>
 4    1  0.3145406E-005  0.5817330E+03  0.7818608E-02  0.9944046E-01
          2   -1    0    0  501    0  0.00000000000E+00  0.00000000000E+00  0.16423850776E+04  0.16423850776E+04  0.25500000000E-02 0.  1.
         -2   -1    0    0    0  501 -0.00000000000E+00 -0.00000000000E+00 -0.51512470779E+02  0.51512470842E+02  0.25500000000E-02 0. -1.
    5000001    1    1    2    0    0 -0.13912281542E+03 -0.11729957346E+03  0.12490063322E+04  0.12729321135E+04  0.16500000000E+03 0.  0.
   -5000001    1    1    2    0    0  0.13912281542E+03  0.11729957346E+03  0.34186627469E+03  0.42096543501E+03  0.16500000000E+03 0.  0.
<mgrwt>
<rscale>  0 0.58173297E+03</rscale>
<asrwt>0</asrwt>
<pdfrwt beam="1">  1        2 0.25267464E+00 0.58173297E+03</pdfrwt>
<pdfrwt beam="2">  1       -2 0.79249951E-02 0.58173297E+03</pdfrwt>
<totfact> 0.10790814E+03</totfact>
</mgrwt>
</event>
<event>
 4    1  0.3145406E-005  0.4403301E+03  0.7818608E-02  0.1030646E+00
         -2   -1    0    0    0  501 -0.00000000000E+00  0.00000000000E+00  0.58265527954E+02  0.58265528010E+02  0.25500000000E-02 0. -1.
          2   -1    0    0  501    0  0.00000000000E+00 -0.00000000000E+00 -0.83192673317E+03  0.83192673317E+03  0.25500000000E-02 0.  1.
    5000001    1    1    2    0    0 -0.12092479078E+03  0.75259039346E+02 -0.32416206258E+03  0.39063124663E+03  0.16500000000E+03 0.  0.
   -5000001    1    1    2    0    0  0.12092479078E+03 -0.75259039346E+02 -0.44949914263E+03  0.49956101455E+03  0.16500000000E+03 0.  0.
<mgrwt>
<rscale>  0 0.44033011E+03</rscale>
<asrwt>0</asrwt>
<pdfrwt beam="1">  1        2 0.12798872E+00 0.44033011E+03</pdfrwt>
<pdfrwt beam="2">  1       -2 0.89639280E-02 0.44033011E+03</pdfrwt>
<totfact> 0.26752162E+03</totfact>
</mgrwt>
</event>
<event>
 4    1  0.3145406E-005  0.1030546E+04  0.7818608E-02  0.9275662E-01
          2   -1    0    0  501    0  0.00000000000E+00  0.00000000000E+00  0.10243554070E+04  0.10243554071E+04  0.25500000000E-02 0.  1.
         -2   -1    0    0    0  501 -0.00000000000E+00 -0.00000000000E+00 -0.25919364411E+03  0.25919364412E+03  0.25500000000E-02 0. -1.
    5000001    1    1    2    0    0  0.33899659733E+03  0.22790846329E+03  0.49724980924E+02  0.44334922394E+03  0.16500000000E+03 0.  0.
   -5000001    1    1    2    0    0 -0.33899659733E+03 -0.22790846329E+03  0.71543678201E+03  0.84019982724E+03  0.16500000000E+03 0.  0.
<mgrwt>
<rscale>  0 0.10305463E+04</rscale>
<asrwt>0</asrwt>
<pdfrwt beam="1">  1        2 0.15759314E+00 0.10305463E+04</pdfrwt>
<pdfrwt beam="2">  1       -2 0.39875946E-01 0.10305463E+04</pdfrwt>
<totfact> 0.14400514E+02</totfact>
</mgrwt>
</event>
<event>
 4    1  0.3145406E-005  0.1064890E+04  0.7818608E-02  0.9240104E-01
         -2   -1    0    0    0  501 -0.00000000000E+00  0.00000000000E+00  0.21142247974E+03  0.21142247976E+03  0.25500000000E-02 0. -1.
          2   -1    0    0  501    0  0.00000000000E+00 -0.00000000000E+00 -0.13409072889E+04  0.13409072889E+04  0.25500000000E-02 0.  1.
    5000001    1    1    2    0    0  0.47134331295E+03 -0.15236668807E+03 -0.71688441619E+03  0.88686435968E+03  0.16500000000E+03 0.  0.
   -5000001    1    1    2    0    0 -0.47134331295E+03  0.15236668807E+03 -0.41260039301E+03  0.66546540903E+03  0.16500000000E+03 0.  0.
<mgrwt>
<rscale>  0 0.10648905E+04</rscale>
<asrwt>0</asrwt>
<pdfrwt beam="1">  1        2 0.20629342E+00 0.10648905E+04</pdfrwt>
<pdfrwt beam="2">  1       -2 0.32526536E-01 0.10648905E+04</pdfrwt>
<totfact> 0.13699382E+02</totfact>
</mgrwt>
</event>
<event>
 4    1  0.3145406E-005  0.3691136E+03  0.7818608E-02  0.1055032E+00
          2   -1    0    0  501    0  0.00000000000E+00  0.00000000000E+00  0.10383055632E+04  0.10383055632E+04  0.25500000000E-02 0.  1.
         -2   -1    0    0    0  501 -0.00000000000E+00 -0.00000000000E+00 -0.32804604506E+02  0.32804604605E+02  0.25500000000E-02 0. -1.
    5000001    1    1    2    0    0 -0.75953607338E+02 -0.43192846626E+00  0.40795887559E+03  0.44656979432E+03  0.16500000000E+03 0.  0.
   -5000001    1    1    2    0    0  0.75953607338E+02  0.43192846626E+00  0.59754208307E+03  0.62454037345E+03  0.16500000000E+03 0.  0.
<mgrwt>
<rscale>  0 0.36911355E+03</rscale>
<asrwt>0</asrwt>
<pdfrwt beam="1">  1        2 0.15973929E+00 0.36911355E+03</pdfrwt>
<pdfrwt beam="2">  1       -2 0.50468631E-02 0.36911355E+03</pdfrwt>
<totfact> 0.48225392E+03</totfact>
</mgrwt>
</event>
<event>
 4    1  0.3145406E-005  0.6608613E+03  0.7818608E-02  0.9786609E-01
          2   -1    0    0  501    0  0.00000000000E+00  0.00000000000E+00  0.30699829631E+04  0.30699829631E+04  0.25500000000E-02 0.  1.
         -2   -1    0    0    0  501 -0.00000000000E+00 -0.00000000000E+00 -0.35565157966E+02  0.35565158058E+02  0.25500000000E-02 0. -1.
    5000001    1    1    2    0    0  0.10181375265E+03 -0.25416740668E+03  0.19101600030E+04  0.19367249025E+04  0.16500000000E+03 0.  0.
   -5000001    1    1    2    0    0 -0.10181375265E+03  0.25416740668E+03  0.11242578021E+04  0.11688232186E+04  0.16500000000E+03 0.  0.
<mgrwt>
<rscale>  0 0.66086134E+03</rscale>
<asrwt>0</asrwt>
<pdfrwt beam="1">  1        2 0.47230516E+00 0.66086134E+03</pdfrwt>
<pdfrwt beam="2">  1       -2 0.54715617E-02 0.66086134E+03</pdfrwt>
<totfact> 0.30155442E+02</totfact>
</mgrwt>
</event>
<event>
 4    1  0.3145406E-005  0.3843866E+03  0.7818608E-02  0.1049324E+00
         -2   -1    0    0    0  501 -0.00000000000E+00  0.00000000000E+00  0.18888814777E+02  0.18888814949E+02  0.25500000000E-02 0. -1.
          2   -1    0    0  501    0  0.00000000000E+00 -0.00000000000E+00 -0.19555633422E+04  0.19555633422E+04  0.25500000000E-02 0.  1.
    5000001    1    1    2    0    0 -0.76474447458E+02  0.62634388888E+01 -0.12860494680E+04  0.12988594250E+04  0.16500000000E+03 0.  0.
   -5000001    1    1    2    0    0  0.76474447458E+02 -0.62634388888E+01 -0.65062505943E+03  0.67559273215E+03  0.16500000000E+03 0.  0.
<mgrwt>
<rscale>  0 0.38438665E+03</rscale>
<asrwt>0</asrwt>
<pdfrwt beam="1">  1        2 0.30085574E+00 0.38438665E+03</pdfrwt>
<pdfrwt beam="2">  1       -2 0.29059731E-02 0.38438665E+03</pdfrwt>
<totfact> 0.34720451E+03</totfact>
</mgrwt>
</event>
<event>
 4    1  0.3145406E-005  0.5795273E+03  0.7818608E-02  0.9948815E-01
         -2   -1    0    0    0  501 -0.00000000000E+00  0.00000000000E+00  0.67103602966E+02  0.67103603014E+02  0.25500000000E-02 0. -1.
          2   -1    0    0  501    0  0.00000000000E+00 -0.00000000000E+00 -0.12512438912E+04  0.12512438912E+04  0.25500000000E-02 0.  1.
    5000001    1    1    2    0    0 -0.22490098832E+03  0.78460051590E+02 -0.58924795604E+03  0.65663885656E+03  0.16500000000E+03 0.  0.
   -5000001    1    1    2    0    0  0.22490098832E+03 -0.78460051590E+02 -0.59489233215E+03  0.66170863762E+03  0.16500000000E+03 0.  0.
<mgrwt>
<rscale>  0 0.57952730E+03</rscale>
<asrwt>0</asrwt>
<pdfrwt beam="1">  1        2 0.19249904E+00 0.57952730E+03</pdfrwt>
<pdfrwt beam="2">  1       -2 0.10323632E-01 0.57952730E+03</pdfrwt>
<totfact> 0.11657208E+03</totfact>
</mgrwt>
</event>
<event>
 4    1  0.3145406E-005  0.5293785E+03  0.7818608E-02  0.1006383E+00
          2   -1    0    0  501    0  0.00000000000E+00  0.00000000000E+00  0.27097316855E+04  0.27097316855E+04  0.25500000000E-02 0.  1.
         -2   -1    0    0    0  501 -0.00000000000E+00 -0.00000000000E+00 -0.25855103047E+02  0.25855103173E+02  0.25500000000E-02 0. -1.
    5000001    1    1    2    0    0 -0.47523754535E+02  0.17731642266E+03  0.18358585343E+04  0.18523771698E+04  0.16500000000E+03 0.  0.
   -5000001    1    1    2    0    0  0.47523754535E+02 -0.17731642266E+03  0.84801804808E+03  0.88320961887E+03  0.16500000000E+03 0.  0.
<mgrwt>
<rscale>  0 0.52937847E+03</rscale>
<asrwt>0</asrwt>
<pdfrwt beam="1">  1        2 0.41688168E+00 0.52937847E+03</pdfrwt>
<pdfrwt beam="2">  1       -2 0.39777093E-02 0.52937847E+03</pdfrwt>
<totfact> 0.82127616E+02</totfact>
</mgrwt>
</event>
<event>
 4    1  0.3145406E-005  0.4485778E+03  0.7818608E-02  0.1028147E+00
         -2   -1    0    0    0  501 -0.00000000000E+00  0.00000000000E+00  0.90534025400E+02  0.90534025436E+02  0.25500000000E-02 0. -1.
          2   -1    0    0  501    0  0.00000000000E+00 -0.00000000000E+00 -0.55565296901E+03  0.55565296902E+03  0.25500000000E-02 0.  1.
    5000001    1    1    2    0    0  0.93861650635E+02 -0.11945645080E+03 -0.23371811021E+03  0.32392747357E+03  0.16500000000E+03 0.  0.
   -5000001    1    1    2    0    0 -0.93861650635E+02  0.11945645080E+03 -0.23140083340E+03  0.32225952088E+03  0.16500000000E+03 0.  0.
<mgrwt>
<rscale>  0 0.44857775E+03</rscale>
<asrwt>0</asrwt>
<pdfrwt beam="1">  1        2 0.85485070E-01 0.44857775E+03</pdfrwt>
<pdfrwt beam="2">  1       -2 0.13928312E-01 0.44857775E+03</pdfrwt>
<totfact> 0.21485557E+03</totfact>
</mgrwt>
</event>
<event>
 4    1  0.3145406E-005  0.4117278E+03  0.7818608E-02  0.1039793E+00
         -2   -1    0    0    0  501 -0.00000000000E+00  0.00000000000E+00  0.11653575376E+03  0.11653575379E+03  0.25500000000E-02 0. -1.
          2   -1    0    0  501    0  0.00000000000E+00 -0.00000000000E+00 -0.36366472277E+03  0.36366472278E+03  0.25500000000E-02 0.  1.
    5000001    1    1    2    0    0  0.82298976898E+02 -0.44534359508E+02 -0.30270874764E+02  0.19208788779E+03  0.16500000000E+03 0.  0.
   -5000001    1    1    2    0    0 -0.82298976898E+02  0.44534359508E+02 -0.21685809425E+03  0.28811258878E+03  0.16500000000E+03 0.  0.
<mgrwt>
<rscale>  0 0.41172779E+03</rscale>
<asrwt>0</asrwt>
<pdfrwt beam="1">  1        2 0.55948418E-01 0.41172779E+03</pdfrwt>
<pdfrwt beam="2">  1       -2 0.17928578E-01 0.41172779E+03</pdfrwt>
<totfact> 0.22615402E+03</totfact>
</mgrwt>
</event>
<event>
 4    1  0.3145406E-005  0.4774026E+03  0.7818608E-02  0.1019851E+00
          2   -1    0    0  501    0  0.00000000000E+00  0.00000000000E+00  0.26195958345E+03  0.26195958346E+03  0.25500000000E-02 0.  1.
         -2   -1    0    0    0  501 -0.00000000000E+00 -0.00000000000E+00 -0.21750804178E+03  0.21750804180E+03  0.25500000000E-02 0. -1.
    5000001    1    1    2    0    0  0.14102113559E+03  0.86540901798E+01  0.12160560332E+03  0.24894733724E+03  0.16500000000E+03 0.  0.
   -5000001    1    1    2    0    0 -0.14102113559E+03 -0.86540901798E+01 -0.77154061654E+02  0.23052028802E+03  0.16500000000E+03 0.  0.
<mgrwt>
<rscale>  0 0.47740262E+03</rscale>
<asrwt>0</asrwt>
<pdfrwt beam="1">  1        2 0.40301474E-01 0.47740262E+03</pdfrwt>
<pdfrwt beam="2">  1       -2 0.33462776E-01 0.47740262E+03</pdfrwt>
<totfact> 0.10661680E+03</totfact>
</mgrwt>
</event>
<event>
 4    1  0.3145406E-005  0.6345737E+03  0.7818608E-02  0.9836164E-01
         -2   -1    0    0    0  501 -0.00000000000E+00  0.00000000000E+00  0.26265410438E+03  0.26265410439E+03  0.25500000000E-02 0. -1.
          2   -1    0    0  501    0  0.00000000000E+00 -0.00000000000E+00 -0.38328331956E+03  0.38328331956E+03  0.25500000000E-02 0.  1.
    5000001    1    1    2    0    0  0.25476713912E+03 -0.90196596858E+02 -0.80779761765E+02  0.32679059223E+03  0.16500000000E+03 0.  0.
   -5000001    1    1    2    0    0 -0.25476713912E+03  0.90196596858E+02 -0.39849453410E+02  0.31914683172E+03  0.16500000000E+03 0.  0.
<mgrwt>
<rscale>  0 0.63457367E+03</rscale>
<asrwt>0</asrwt>
<pdfrwt beam="1">  1        2 0.58966665E-01 0.63457367E+03</pdfrwt>
<pdfrwt beam="2">  1       -2 0.40408324E-01 0.63457367E+03</pdfrwt>
<totfact> 0.48767772E+02</totfact>
</mgrwt>
</event>
<event>
 4    1  0.3145406E-005  0.5502242E+03  0.7818608E-02  0.1001442E+00
          2   -1    0    0  501    0  0.00000000000E+00  0.00000000000E+00  0.25437224119E+03  0.25437224120E+03  0.25500000000E-02 0.  1.
         -2   -1    0    0    0  501 -0.00000000000E+00 -0.00000000000E+00 -0.29754294586E+03  0.29754294588E+03  0.25500000000E-02 0. -1.
    5000001    1    1    2    0    0  0.21989461182E+03  0.21919174693E+01 -0.11394345643E+02  0.27516045486E+03  0.16500000000E+03 0.  0.
   -5000001    1    1    2    0    0 -0.21989461182E+03 -0.21919174693E+01 -0.31776359035E+02  0.27675473221E+03  0.16500000000E+03 0.  0.
<mgrwt>
<rscale>  0 0.55022419E+03</rscale>
<asrwt>0</asrwt>
<pdfrwt beam="1">  1        2 0.39134191E-01 0.55022419E+03</pdfrwt>
<pdfrwt beam="2">  1       -2 0.45775838E-01 0.55022419E+03</pdfrwt>
<totfact> 0.60146099E+02</totfact>
</mgrwt>
</event>
<event>
 4    1  0.3145406E-005  0.3575084E+03  0.7818608E-02  0.1059575E+00
          2   -1    0    0  501    0  0.00000000000E+00  0.00000000000E+00  0.29831100112E+03  0.29831100113E+03  0.25500000000E-02 0.  1.
         -2   -1    0    0    0  501 -0.00000000000E+00 -0.00000000000E+00 -0.10711327794E+03  0.10711327797E+03  0.25500000000E-02 0. -1.
    5000001    1    1    2    0    0 -0.25716981742E+02  0.58715110523E+02  0.67379082463E+02  0.18940371725E+03  0.16500000000E+03 0.  0.
   -5000001    1    1    2    0    0  0.25716981742E+02 -0.58715110523E+02  0.12381864071E+03  0.21602056185E+03  0.16500000000E+03 0.  0.
<mgrwt>
<rscale>  0 0.35750843E+03</rscale>
<asrwt>0</asrwt>
<pdfrwt beam="1">  1        2 0.45893999E-01 0.35750843E+03</pdfrwt>
<pdfrwt beam="2">  1       -2 0.16478966E-01 0.35750843E+03</pdfrwt>
<totfact> 0.32301429E+03</totfact>
</mgrwt>
</event>
<event>
 4    1  0.3145406E-005  0.5260263E+03  0.7818608E-02  0.1007200E+00
          2   -1    0    0  501    0  0.00000000000E+00  0.00000000000E+00  0.81968043101E+03  0.81968043101E+03  0.25500000000E-02 0.  1.
         -2   -1    0    0    0  501 -0.00000000000E+00 -0.00000000000E+00 -0.84393756671E+02  0.84393756709E+02  0.25500000000E-02 0. -1.
    5000001    1    1    2    0    0  0.62968897762E+02 -0.16930102250E+03  0.53359220726E+03  0.58700388581E+03  0.16500000000E+03 0.  0.
   -5000001    1    1    2    0    0 -0.62968897762E+02  0.16930102250E+03  0.20169446707E+03  0.31707030191E+03  0.16500000000E+03 0.  0.
<mgrwt>
<rscale>  0 0.52602628E+03</rscale>
<asrwt>0</asrwt>
<pdfrwt beam="1">  1        2 0.12610468E+00 0.52602628E+03</pdfrwt>
<pdfrwt beam="2">  1       -2 0.12983655E-01 0.52602628E+03</pdfrwt>
<totfact> 0.14945641E+03</totfact>
</mgrwt>
</event>
<event>
 4    1  0.3145406E-005  0.4938571E+03  0.7818608E-02  0.1015395E+00
         -2   -1    0    0    0  501 -0.00000000000E+00  0.00000000000E+00  0.21333240437E+03  0.21333240439E+03  0.25500000000E-02 0. -1.
          2   -1    0    0  501    0  0.00000000000E+00 -0.00000000000E+00 -0.28581548780E+03  0.28581548781E+03  0.25500000000E-02 0.  1.
    5000001    1    1    2    0    0  0.19369408755E+02  0.15613616391E+03  0.59616653866E+02  0.23565402838E+03  0.16500000000E+03 0.  0.
   -5000001    1    1    2    0    0 -0.19369408755E+02 -0.15613616391E+03 -0.13209973729E+03  0.26349386381E+03  0.16500000000E+03 0.  0.
<mgrwt>
<rscale>  0 0.49385709E+03</rscale>
<asrwt>0</asrwt>
<pdfrwt beam="1">  1        2 0.43971614E-01 0.49385709E+03</pdfrwt>
<pdfrwt beam="2">  1       -2 0.32820370E-01 0.49385709E+03</pdfrwt>
<totfact> 0.10047185E+03</totfact>
</mgrwt>
</event>
<event>
 4    1  0.3145406E-005  0.4088162E+03  0.7818608E-02  0.1040769E+00
          2   -1    0    0  501    0  0.00000000000E+00  0.00000000000E+00  0.19401475706E+03  0.19401475707E+03  0.25500000000E-02 0.  1.
         -2   -1    0    0    0  501 -0.00000000000E+00 -0.00000000000E+00 -0.21535820748E+03  0.21535820750E+03  0.25500000000E-02 0. -1.
    5000001    1    1    2    0    0 -0.11214864749E+03  0.24284783318E+02 -0.48013267691E+02  0.20663335575E+03  0.16500000000E+03 0.  0.
   -5000001    1    1    2    0    0  0.11214864749E+03 -0.24284783318E+02  0.26669817265E+02  0.20273960883E+03  0.16500000000E+03 0.  0.
<mgrwt>
<rscale>  0 0.40881619E+03</rscale>
<asrwt>0</asrwt>
<pdfrwt beam="1">  1        2 0.29848424E-01 0.40881619E+03</pdfrwt>
<pdfrwt beam="2">  1       -2 0.33132032E-01 0.40881619E+03</pdfrwt>
<totfact> 0.15120449E+03</totfact>
</mgrwt>
</event>
<event>
 4    1  0.3145406E-005  0.7849076E+03  0.7818608E-02  0.9582123E-01
         -2   -1    0    0    0  501 -0.00000000000E+00  0.00000000000E+00  0.10734758011E+03  0.10734758014E+03  0.25500000000E-02 0. -1.
          2   -1    0    0  501    0  0.00000000000E+00 -0.00000000000E+00 -0.14347784650E+04  0.14347784650E+04  0.25500000000E-02 0.  1.
    5000001    1    1    2    0    0 -0.22741761269E+03 -0.26889598371E+03 -0.56028858080E+03  0.68203527357E+03  0.16500000000E+03 0.  0.
   -5000001    1    1    2    0    0  0.22741761269E+03  0.26889598371E+03 -0.76714230405E+03  0.86009077153E+03  0.16500000000E+03 0.  0.
<mgrwt>
<rscale>  0 0.78490763E+03</rscale>
<asrwt>0</asrwt>
<pdfrwt beam="1">  1        2 0.22073513E+00 0.78490763E+03</pdfrwt>
<pdfrwt beam="2">  1       -2 0.16515013E-01 0.78490763E+03</pdfrwt>
<totfact> 0.41502377E+02</totfact>
</mgrwt>
</event>
<event>
 4    1  0.3145406E-005  0.5593936E+03  0.7818608E-02  0.9993428E-01
          2   -1    0    0  501    0  0.00000000000E+00  0.00000000000E+00  0.40215976436E+03  0.40215976436E+03  0.25500000000E-02 0.  1.
         -2   -1    0    0    0  501 -0.00000000000E+00 -0.00000000000E+00 -0.19452539706E+03  0.19452539708E+03  0.25500000000E-02 0. -1.
    5000001    1    1    2    0    0 -0.49573519614E+00 -0.19835864088E+03  0.21899170388E+03  0.33842098418E+03  0.16500000000E+03 0.  0.
   -5000001    1    1    2    0    0  0.49573519614E+00  0.19835864088E+03 -0.11357336582E+02  0.25826417726E+03  0.16500000000E+03 0.  0.
<mgrwt>
<rscale>  0 0.55939356E+03</rscale>
<asrwt>0</asrwt>
<pdfrwt beam="1">  1        2 0.61870733E-01 0.55939356E+03</pdfrwt>
<pdfrwt beam="2">  1       -2 0.29926984E-01 0.55939356E+03</pdfrwt>
<totfact> 0.81744151E+02</totfact>
</mgrwt>
</event>
<event>
 4    1  0.3145406E-005  0.5398182E+03  0.7818608E-02  0.1003878E+00
         -2   -1    0    0    0  501 -0.00000000000E+00  0.00000000000E+00  0.33821102463E+02  0.33821102559E+02  0.25500000000E-02 0. -1.
          2   -1    0    0  501    0  0.00000000000E+00 -0.00000000000E+00 -0.21540075235E+04  0.21540075235E+04  0.25500000000E-02 0.  1.
    5000001    1    1    2    0    0  0.21038203783E+03 -0.14362174968E+02 -0.11980725807E+04  0.12276277052E+04  0.16500000000E+03 0.  0.
   -5000001    1    1    2    0    0 -0.21038203783E+03  0.14362174968E+02 -0.92211384035E+03  0.96020092089E+03  0.16500000000E+03 0.  0.
<mgrwt>
<rscale>  0 0.53981815E+03</rscale>
<asrwt>0</asrwt>
<pdfrwt beam="1">  1        2 0.33138567E+00 0.53981815E+03</pdfrwt>
<pdfrwt beam="2">  1       -2 0.52032482E-02 0.53981815E+03</pdfrwt>
<totfact> 0.11075276E+03</totfact>
</mgrwt>
</event>
<event>
 4    1  0.3145406E-005  0.3636263E+03  0.7818608E-02  0.1057157E+00
          2   -1    0    0  501    0  0.00000000000E+00  0.00000000000E+00  0.14084953249E+03  0.14084953251E+03  0.25500000000E-02 0.  1.
         -2   -1    0    0    0  501 -0.00000000000E+00 -0.00000000000E+00 -0.23469035448E+03  0.23469035450E+03  0.25500000000E-02 0. -1.
    5000001    1    1    2    0    0 -0.67336586557E+01  0.64499292467E+01 -0.12519325291E+03  0.20732895196E+03  0.16500000000E+03 0.  0.
   -5000001    1    1    2    0    0  0.67336586557E+01 -0.64499292467E+01  0.31352430915E+02  0.16821093505E+03  0.16500000000E+03 0.  0.
<mgrwt>
<rscale>  0 0.36362633E+03</rscale>
<asrwt>0</asrwt>
<pdfrwt beam="1">  1        2 0.21669159E-01 0.36362633E+03</pdfrwt>
<pdfrwt beam="2">  1       -2 0.36106208E-01 0.36362633E+03</pdfrwt>
<totfact> 0.18442266E+03</totfact>
</mgrwt>
</event>
<event>
 4    1  0.3145406E-005  0.5551514E+03  0.7818608E-02  0.1000309E+00
         -2   -1    0    0    0  501 -0.00000000000E+00  0.00000000000E+00  0.10943632234E+03  0.10943632237E+03  0.25500000000E-02 0. -1.
          2   -1    0    0  501    0  0.00000000000E+00 -0.00000000000E+00 -0.70404668056E+03  0.70404668056E+03  0.25500000000E-02 0.  1.
    5000001    1    1    2    0    0  0.55335864732E+01 -0.19808418313E+03 -0.44785235750E+03  0.51678302827E+03  0.16500000000E+03 0.  0.
   -5000001    1    1    2    0    0 -0.55335864732E+01  0.19808418313E+03 -0.14675800072E+03  0.29669997466E+03  0.16500000000E+03 0.  0.
<mgrwt>
<rscale>  0 0.55515144E+03</rscale>
<asrwt>0</asrwt>
<pdfrwt beam="1">  1        2 0.10831487E+00 0.55515144E+03</pdfrwt>
<pdfrwt beam="2">  1       -2 0.16836358E-01 0.55515144E+03</pdfrwt>
<totfact> 0.11743995E+03</totfact>
</mgrwt>
</event>
<event>
 4    1  0.3145406E-005  0.4919356E+03  0.7818608E-02  0.1015906E+00
         -2   -1    0    0    0  501 -0.00000000000E+00  0.00000000000E+00  0.61175187663E+02  0.61175187717E+02  0.25500000000E-02 0. -1.
          2   -1    0    0  501    0  0.00000000000E+00 -0.00000000000E+00 -0.98896562761E+03  0.98896562762E+03  0.25500000000E-02 0.  1.
    5000001    1    1    2    0    0  0.90333601678E+02  0.11411638895E+03 -0.69864024890E+03  0.73246563551E+03  0.16500000000E+03 0.  0.
   -5000001    1    1    2    0    0 -0.90333601678E+02 -0.11411638895E+03 -0.22915019105E+03  0.31767517983E+03  0.16500000000E+03 0.  0.
<mgrwt>
<rscale>  0 0.49193560E+03</rscale>
<asrwt>0</asrwt>
<pdfrwt beam="1">  1        2 0.15214855E+00 0.49193560E+03</pdfrwt>
<pdfrwt beam="2">  1       -2 0.94115680E-02 0.49193560E+03</pdfrwt>
<totfact> 0.19504569E+03</totfact>
</mgrwt>
</event>
<event>
 4    1  0.3145406E-005  0.3475355E+03  0.7818608E-02  0.1063631E+00
         -2   -1    0    0    0  501 -0.00000000000E+00  0.00000000000E+00  0.49002555580E+03  0.49002555580E+03  0.25500000000E-02 0. -1.
          2   -1    0    0  501    0  0.00000000000E+00 -0.00000000000E+00 -0.61619724095E+02  0.61619724148E+02  0.25500000000E-02 0.  1.
    5000001    1    1    2    0    0  0.35889904609E+02 -0.40374747150E+02  0.22565289540E+03  0.28471465481E+03  0.16500000000E+03 0.  0.
   -5000001    1    1    2    0    0 -0.35889904609E+02  0.40374747150E+02  0.20275293630E+03  0.26693062515E+03  0.16500000000E+03 0.  0.
<mgrwt>
<rscale>  0 0.34753555E+03</rscale>
<asrwt>0</asrwt>
<pdfrwt beam="1">  1        2 0.94799578E-02 0.34753555E+03</pdfrwt>
<pdfrwt beam="2">  1       -2 0.75388545E-01 0.34753555E+03</pdfrwt>
<totfact> 0.11185299E+03</totfact>
</mgrwt>
</event>
<event>
 4    1  0.3145406E-005  0.5056760E+03  0.7818608E-02  0.1012308E+00
         -2   -1    0    0    0  501 -0.00000000000E+00  0.00000000000E+00  0.40663687366E+03  0.40663687367E+03  0.25500000000E-02 0. -1.
          2   -1    0    0  501    0  0.00000000000E+00 -0.00000000000E+00 -0.15720921728E+03  0.15720921730E+03  0.25500000000E-02 0.  1.
    5000001    1    1    2    0    0 -0.71732220703E+02 -0.91866084165E+02 -0.44819693573E+02  0.20692678376E+03  0.16500000000E+03 0.  0.
   -5000001    1    1    2    0    0  0.71732220703E+02  0.91866084165E+02  0.29424734995E+03  0.35691930721E+03  0.16500000000E+03 0.  0.
<mgrwt>
<rscale>  0 0.50567604E+03</rscale>
<asrwt>0</asrwt>
<pdfrwt beam="1">  1        2 0.24186034E-01 0.50567604E+03</pdfrwt>
<pdfrwt beam="2">  1       -2 0.62559519E-01 0.50567604E+03</pdfrwt>
<totfact> 0.54379257E+02</totfact>
</mgrwt>
</event>
<event>
 4    1  0.3145406E-005  0.4301485E+03  0.7818608E-02  0.1033813E+00
          2   -1    0    0  501    0  0.00000000000E+00  0.00000000000E+00  0.10315103321E+03  0.10315103324E+03  0.25500000000E-02 0.  1.
         -2   -1    0    0    0  501 -0.00000000000E+00 -0.00000000000E+00 -0.44843895490E+03  0.44843895491E+03  0.25500000000E-02 0. -1.
    5000001    1    1    2    0    0  0.93843959366E+02  0.86585228995E+02 -0.23962317987E+03  0.31772308528E+03  0.16500000000E+03 0.  0.
   -5000001    1    1    2    0    0 -0.93843959366E+02 -0.86585228995E+02 -0.10566474182E+03  0.23386690286E+03  0.16500000000E+03 0.  0.
<mgrwt>
<rscale>  0 0.43014854E+03</rscale>
<asrwt>0</asrwt>
<pdfrwt beam="1">  1        2 0.15869390E-01 0.43014854E+03</pdfrwt>
<pdfrwt beam="2">  1       -2 0.68990607E-01 0.43014854E+03</pdfrwt>
<totfact> 0.72185166E+02</totfact>
</mgrwt>
</event>
<event>
 4    1  0.3145406E-005  0.1133273E+04  0.7818608E-02  0.9173355E-01
         -2   -1    0    0    0  501 -0.00000000000E+00  0.00000000000E+00  0.69874014444E+03  0.69874014445E+03  0.25500000000E-02 0. -1.
          2   -1    0    0  501    0  0.00000000000E+00 -0.00000000000E+00 -0.45950829080E+03  0.45950829081E+03  0.25500000000E-02 0.  1.
    5000001    1    1    2    0    0 -0.43236498873E+03  0.29447395156E+03  0.26486587576E+03  0.60912504773E+03  0.16500000000E+03 0.  0.
   -5000001    1    1    2    0    0  0.43236498873E+03 -0.29447395156E+03 -0.25634022118E+02  0.54912338752E+03  0.16500000000E+03 0.  0.
<mgrwt>
<rscale>  0 0.11332729E+04</rscale>
<asrwt>0</asrwt>
<pdfrwt beam="1">  1        2 0.70693584E-01 0.11332729E+04</pdfrwt>
<pdfrwt beam="2">  1       -2 0.10749848E+00 0.11332729E+04</pdfrwt>
<totfact> 0.46735589E+01</totfact>
</mgrwt>
</event>
<event>
 4    1  0.3145406E-005  0.3654028E+03  0.7818608E-02  0.1056465E+00
         -2   -1    0    0    0  501 -0.00000000000E+00  0.00000000000E+00  0.73217422651E+02  0.73217422696E+02  0.25500000000E-02 0. -1.
          2   -1    0    0  501    0  0.00000000000E+00 -0.00000000000E+00 -0.45589975545E+03  0.45589975545E+03  0.25500000000E-02 0.  1.
    5000001    1    1    2    0    0 -0.48093028711E+02  0.27951222380E+02 -0.27145045760E+03  0.32249738166E+03  0.16500000000E+03 0.  0.
   -5000001    1    1    2    0    0  0.48093028711E+02 -0.27951222380E+02 -0.11123187519E+03  0.20661979649E+03  0.16500000000E+03 0.  0.
<mgrwt>
<rscale>  0 0.36540282E+03</rscale>
<asrwt>0</asrwt>
<pdfrwt beam="1">  1        2 0.70138422E-01 0.36540282E+03</pdfrwt>
<pdfrwt beam="2">  1       -2 0.11264219E-01 0.36540282E+03</pdfrwt>
<totfact> 0.38008819E+03</totfact>
</mgrwt>
</event>
<event>
 4    1  0.3145406E-005  0.4093395E+03  0.7818608E-02  0.1040593E+00
          2   -1    0    0  501    0  0.00000000000E+00  0.00000000000E+00  0.14858476674E+04  0.14858476674E+04  0.25500000000E-02 0.  1.
         -2   -1    0    0    0  501 -0.00000000000E+00 -0.00000000000E+00 -0.28192469391E+02  0.28192469506E+02  0.25500000000E-02 0. -1.
    5000001    1    1    2    0    0  0.94333329298E+02  0.28004465084E+02  0.98988856915E+03  0.10083587687E+04  0.16500000000E+03 0.  0.
   -5000001    1    1    2    0    0 -0.94333329298E+02 -0.28004465084E+02  0.46776662889E+03  0.50568136824E+03  0.16500000000E+03 0.  0.
<mgrwt>
<rscale>  0 0.40933954E+03</rscale>
<asrwt>0</asrwt>
<pdfrwt beam="1">  1        2 0.22859189E+00 0.40933954E+03</pdfrwt>
<pdfrwt beam="2">  1       -2 0.43373041E-02 0.40933954E+03</pdfrwt>
<totfact> 0.33781856E+03</totfact>
</mgrwt>
</event>
<event>
 4    1  0.3145406E-005  0.6302610E+03  0.7818608E-02  0.9844540E-01
         -2   -1    0    0    0  501 -0.00000000000E+00  0.00000000000E+00  0.20085410666E+03  0.20085410667E+03  0.25500000000E-02 0. -1.
          2   -1    0    0  501    0  0.00000000000E+00 -0.00000000000E+00 -0.49442474292E+03  0.49442474293E+03  0.25500000000E-02 0.  1.
    5000001    1    1    2    0    0  0.21283576675E+03 -0.14529316196E+03 -0.22987512952E+03  0.38272280007E+03  0.16500000000E+03 0.  0.
   -5000001    1    1    2    0    0 -0.21283576675E+03  0.14529316196E+03 -0.63695506740E+02  0.31255604953E+03  0.16500000000E+03 0.  0.
<mgrwt>
<rscale>  0 0.63026103E+03</rscale>
<asrwt>0</asrwt>
<pdfrwt beam="1">  1        2 0.76065345E-01 0.63026103E+03</pdfrwt>
<pdfrwt beam="2">  1       -2 0.30900632E-01 0.63026103E+03</pdfrwt>
<totfact> 0.60894842E+02</totfact>
</mgrwt>
</event>
<event>
 4    1  0.3145406E-005  0.4211318E+03  0.7818608E-02  0.1036699E+00
          2   -1    0    0  501    0  0.00000000000E+00  0.00000000000E+00  0.12851587532E+04  0.12851587532E+04  0.25500000000E-02 0.  1.
         -2   -1    0    0    0  501 -0.00000000000E+00 -0.00000000000E+00 -0.34500019180E+02  0.34500019274E+02  0.25500000000E-02 0. -1.
    5000001    1    1    2    0    0  0.10469330024E+03 -0.66801275254E+02  0.75414679970E+03  0.78191143551E+03  0.16500000000E+03 0.  0.
   -5000001    1    1    2    0    0 -0.10469330024E+03  0.66801275254E+02  0.49651193435E+03  0.53774733699E+03  0.16500000000E+03 0.  0.
<mgrwt>
<rscale>  0 0.42113182E+03</rscale>
<asrwt>0</asrwt>
<pdfrwt beam="1">  1        2 0.19771674E+00 0.42113182E+03</pdfrwt>
<pdfrwt beam="2">  1       -2 0.53076952E-02 0.42113182E+03</pdfrwt>
<totfact> 0.32016955E+03</totfact>
</mgrwt>
</event>
<event>
 4    1  0.3145406E-005  0.5555164E+03  0.7818608E-02  0.1000225E+00
          2   -1    0    0  501    0  0.00000000000E+00  0.00000000000E+00  0.34679887299E+03  0.34679887299E+03  0.25500000000E-02 0.  1.
         -2   -1    0    0    0  501 -0.00000000000E+00 -0.00000000000E+00 -0.22246210590E+03  0.22246210591E+03  0.25500000000E-02 0. -1.
    5000001    1    1    2    0    0 -0.15711847683E+01 -0.12879016528E+03  0.24926515868E+03  0.32549576745E+03  0.16500000000E+03 0.  0.
   -5000001    1    1    2    0    0  0.15711847683E+01  0.12879016528E+03 -0.12492839159E+03  0.24376521146E+03  0.16500000000E+03 0.  0.
<mgrwt>
<rscale>  0 0.55551636E+03</rscale>
<asrwt>0</asrwt>
<pdfrwt beam="1">  1        2 0.53353673E-01 0.55551636E+03</pdfrwt>
<pdfrwt beam="2">  1       -2 0.34224939E-01 0.55551636E+03</pdfrwt>
<totfact> 0.75027687E+02</totfact>
</mgrwt>
</event>
<event>
 4    1  0.3145406E-005  0.5698810E+03  0.7818608E-02  0.9969942E-01
         -2   -1    0    0    0  501 -0.00000000000E+00  0.00000000000E+00  0.62803304839E+02  0.62803304890E+02  0.25500000000E-02 0. -1.
          2   -1    0    0  501    0  0.00000000000E+00 -0.00000000000E+00 -0.12927836432E+04  0.12927836432E+04  0.25500000000E-02 0.  1.
    5000001    1    1    2    0    0 -0.83818411796E+02 -0.21042923535E+03 -0.73767528212E+03  0.78911077239E+03  0.16500000000E+03 0.  0.
   -5000001    1    1    2    0    0  0.83818411796E+02  0.21042923535E+03 -0.49230505628E+03  0.56647617574E+03  0.16500000000E+03 0.  0.
<mgrwt>
<rscale>  0 0.56988099E+03</rscale>
<asrwt>0</asrwt>
<pdfrwt beam="1">  1        2 0.19888977E+00 0.56988099E+03</pdfrwt>
<pdfrwt beam="2">  1       -2 0.96620479E-02 0.56988099E+03</pdfrwt>
<totfact> 0.12287078E+03</totfact>
</mgrwt>
</event>
<event>
 4    1  0.3145406E-005  0.5511526E+03  0.7818608E-02  0.1001227E+00
         -2   -1    0    0    0  501 -0.00000000000E+00  0.00000000000E+00  0.38304431059E+03  0.38304431060E+03  0.25500000000E-02 0. -1.
          2   -1    0    0  501    0  0.00000000000E+00 -0.00000000000E+00 -0.19825985475E+03  0.19825985476E+03  0.25500000000E-02 0.  1.
    5000001    1    1    2    0    0 -0.10174040498E+03 -0.19581185625E+03  0.97550198171E+02  0.29229169372E+03  0.16500000000E+03 0.  0.
   -5000001    1    1    2    0    0  0.10174040498E+03  0.19581185625E+03  0.87234257670E+02  0.28901247164E+03  0.16500000000E+03 0.  0.
<mgrwt>
<rscale>  0 0.55115264E+03</rscale>
<asrwt>0</asrwt>
<pdfrwt beam="1">  1        2 0.30501517E-01 0.55115264E+03</pdfrwt>
<pdfrwt beam="2">  1       -2 0.58929893E-01 0.55115264E+03</pdfrwt>
<totfact> 0.47402833E+02</totfact>
</mgrwt>
</event>
<event>
 4    1  0.3145406E-005  0.5205456E+03  0.7818608E-02  0.1008551E+00
         -2   -1    0    0    0  501 -0.00000000000E+00  0.00000000000E+00  0.25163311621E+03  0.25163311622E+03  0.25500000000E-02 0.  1.
          2   -1    0    0  501    0  0.00000000000E+00 -0.00000000000E+00 -0.26920913049E+03  0.26920913050E+03  0.25500000000E-02 0. -1.
    5000001    1    1    2    0    0 -0.16817932593E+03 -0.93103368509E+02  0.50948691150E+02  0.25840528638E+03  0.16500000000E+03 0.  0.
   -5000001    1    1    2    0    0  0.16817932593E+03  0.93103368509E+02 -0.68524705428E+02  0.26243696034E+03  0.16500000000E+03 0.  0.
<mgrwt>
<rscale>  0 0.52054561E+03</rscale>
<asrwt>0</asrwt>
<pdfrwt beam="1">  1        2 0.41416790E-01 0.52054561E+03</pdfrwt>
<pdfrwt beam="2">  1       -2 0.38712787E-01 0.52054561E+03</pdfrwt>
<totfact> 0.78450143E+02</totfact>
</mgrwt>
</event>
<event>
 4    1  0.3145406E-005  0.3645995E+03  0.7818608E-02  0.1056777E+00
         -2   -1    0    0    0  501 -0.00000000000E+00  0.00000000000E+00  0.20312716793E+03  0.20312716794E+03  0.25500000000E-02 0. -1.
          2   -1    0    0  501    0  0.00000000000E+00 -0.00000000000E+00 -0.16360784254E+03  0.16360784256E+03  0.25500000000E-02 0.  1.
    5000001    1    1    2    0    0  0.18825465497E+02  0.69319748358E+02  0.49060543227E+02  0.18652496499E+03  0.16500000000E+03 0.  0.
   -5000001    1    1    2    0    0 -0.18825465497E+02 -0.69319748358E+02 -0.95412178392E+01  0.18021004551E+03  0.16500000000E+03 0.  0.
<mgrwt>
<rscale>  0 0.36459949E+03</rscale>
<asrwt>0</asrwt>
<pdfrwt beam="1">  1        2 0.25170437E-01 0.36459949E+03</pdfrwt>
<pdfrwt beam="2">  1       -2 0.31250333E-01 0.36459949E+03</pdfrwt>
<totfact> 0.20362186E+03</totfact>
</mgrwt>
</event>
<event>
 4    1  0.3145406E-005  0.6152343E+03  0.7818608E-02  0.9874294E-01
          2   -1    0    0  501    0  0.00000000000E+00  0.00000000000E+00  0.99909912661E+03  0.99909912661E+03  0.25500000000E-02 0.  1.
         -2   -1    0    0    0  501 -0.00000000000E+00 -0.00000000000E+00 -0.94713642979E+02  0.94713643013E+02  0.25500000000E-02 0. -1.
    5000001    1    1    2    0    0  0.19983512633E+03 -0.14937834199E+03  0.57984589961E+03  0.65245247648E+03  0.16500000000E+03 0.  0.
   -5000001    1    1    2    0    0 -0.19983512633E+03  0.14937834199E+03  0.32453958402E+03  0.44136029314E+03  0.16500000000E+03 0.  0.
<mgrwt>
<rscale>  0 0.61523432E+03</rscale>
<asrwt>0</asrwt>
<pdfrwt beam="1">  1        2 0.15370755E+00 0.61523432E+03</pdfrwt>
<pdfrwt beam="2">  1       -2 0.14571330E-01 0.61523432E+03</pdfrwt>
<totfact> 0.93544301E+02</totfact>
</mgrwt>
</event>
<event>
 4    1  0.3145406E-005  0.7091136E+03  0.7818608E-02  0.9701772E-01
          2   -1    0    0  501    0  0.00000000000E+00  0.00000000000E+00  0.33438639049E+03  0.33438639050E+03  0.25500000000E-02 0.  1.
         -2   -1    0    0    0  501 -0.00000000000E+00 -0.00000000000E+00 -0.37594386962E+03  0.37594386963E+03  0.25500000000E-02 0. -1.
    5000001    1    1    2    0    0 -0.76720618015E+02 -0.29430513960E+03  0.56709951156E+02  0.35063169706E+03  0.16500000000E+03 0.  0.
   -5000001    1    1    2    0    0  0.76720618015E+02  0.29430513960E+03 -0.98267430280E+02  0.35969856307E+03  0.16500000000E+03 0.  0.
<mgrwt>
<rscale>  0 0.70911357E+03</rscale>
<asrwt>0</asrwt>
<pdfrwt beam="1">  1        2 0.51444060E-01 0.70911357E+03</pdfrwt>
<pdfrwt beam="2">  1       -2 0.57837519E-01 0.70911357E+03</pdfrwt>
<totfact> 0.27476394E+02</totfact>
</mgrwt>
</event>
<event>
 4    1  0.3145406E-005  0.5027913E+03  0.7818608E-02  0.1013053E+00
         -2   -1    0    0    0  501 -0.00000000000E+00  0.00000000000E+00  0.37669202912E+03  0.37669202913E+03  0.25500000000E-02 0. -1.
          2   -1    0    0  501    0  0.00000000000E+00 -0.00000000000E+00 -0.16777573438E+03  0.16777573440E+03  0.25500000000E-02 0.  1.
    5000001    1    1    2    0    0 -0.15096298653E+03  0.11472752388E+03  0.10960088240E+03  0.27420718711E+03  0.16500000000E+03 0.  0.
   -5000001    1    1    2    0    0  0.15096298653E+03 -0.11472752388E+03  0.99315412343E+02  0.27026057642E+03  0.16500000000E+03 0.  0.
<mgrwt>
<rscale>  0 0.50279134E+03</rscale>
<asrwt>0</asrwt>
<pdfrwt beam="1">  1        2 0.25811652E-01 0.50279134E+03</pdfrwt>
<pdfrwt beam="2">  1       -2 0.57952620E-01 0.50279134E+03</pdfrwt>
<totfact> 0.59288300E+02</totfact>
</mgrwt>
</event>
<event>
 4    1  0.3145406E-005  0.6245036E+03  0.7818608E-02  0.9855834E-01
          2   -1    0    0  501    0  0.00000000000E+00  0.00000000000E+00  0.72671734650E+03  0.72671734651E+03  0.25500000000E-02 0.  1.
         -2   -1    0    0    0  501 -0.00000000000E+00 -0.00000000000E+00 -0.13416657549E+03  0.13416657551E+03  0.25500000000E-02 0. -1.
    5000001    1    1    2    0    0  0.94094721734E+02  0.20986052575E+03  0.11453725305E+03  0.30535068243E+03  0.16500000000E+03 0.  0.
   -5000001    1    1    2    0    0 -0.94094721734E+02 -0.20986052575E+03  0.47801351797E+03  0.55553323959E+03  0.16500000000E+03 0.  0.
<mgrwt>
<rscale>  0 0.62450357E+03</rscale>
<asrwt>0</asrwt>
<pdfrwt beam="1">  1        2 0.11180267E+00 0.62450357E+03</pdfrwt>
<pdfrwt beam="2">  1       -2 0.20641012E-01 0.62450357E+03</pdfrwt>
<totfact> 0.79273625E+02</totfact>
</mgrwt>
</event>
<event>
 4    1  0.3145406E-005  0.6935440E+03  0.7818608E-02  0.9728337E-01
          2   -1    0    0  501    0  0.00000000000E+00  0.00000000000E+00  0.22020426327E+04  0.22020426327E+04  0.25500000000E-02 0.  1.
         -2   -1    0    0    0  501 -0.00000000000E+00 -0.00000000000E+00 -0.54608753646E+02  0.54608753705E+02  0.25500000000E-02 0. -1.
    5000001    1    1    2    0    0 -0.24000479436E+03  0.18074613644E+03  0.90295189047E+03  0.96582533806E+03  0.16500000000E+03 0.  0.
   -5000001    1    1    2    0    0  0.24000479436E+03 -0.18074613644E+03  0.12444819886E+04  0.12908260483E+04  0.16500000000E+03 0.  0.
<mgrwt>
<rscale>  0 0.69354395E+03</rscale>
<asrwt>0</asrwt>
<pdfrwt beam="1">  1        2 0.33877586E+00 0.69354395E+03</pdfrwt>
<pdfrwt beam="2">  1       -2 0.84013450E-02 0.69354395E+03</pdfrwt>
<totfact> 0.48421483E+02</totfact>
</mgrwt>
</event>
<event>
 4    1  0.3145406E-005  0.6680327E+03  0.7818608E-02  0.9773518E-01
         -2   -1    0    0    0  501 -0.00000000000E+00  0.00000000000E+00  0.12016395996E+03  0.12016395999E+03  0.25500000000E-02 0. -1.
          2   -1    0    0  501    0  0.00000000000E+00 -0.00000000000E+00 -0.92845582069E+03  0.92845582069E+03  0.25500000000E-02 0.  1.
    5000001    1    1    2    0    0 -0.26961895427E+03  0.94764285637E+02 -0.32307700179E+03  0.46182074382E+03  0.16500000000E+03 0.  0.
   -5000001    1    1    2    0    0  0.26961895427E+03 -0.94764285637E+02 -0.48521485893E+03  0.58679903686E+03  0.16500000000E+03 0.  0.
<mgrwt>
<rscale>  0 0.66803272E+03</rscale>
<asrwt>0</asrwt>
<pdfrwt beam="1">  1        2 0.14283935E+00 0.66803272E+03</pdfrwt>
<pdfrwt beam="2">  1       -2 0.18486764E-01 0.66803272E+03</pdfrwt>
<totfact> 0.69159950E+02</totfact>
</mgrwt>
</event>
<event>
 4    1  0.3145406E-005  0.5095788E+03  0.7818608E-02  0.1011309E+00
          2   -1    0    0  501    0  0.00000000000E+00  0.00000000000E+00  0.15741241847E+04  0.15741241847E+04  0.25500000000E-02 0.  1.
         -2   -1    0    0    0  501 -0.00000000000E+00 -0.00000000000E+00 -0.41240481643E+02  0.41240481722E+02  0.25500000000E-02 0. -1.
    5000001    1    1    2    0    0  0.44032070128E+02  0.15258864370E+03  0.41244325232E+03  0.47175899967E+03  0.16500000000E+03 0.  0.
   -5000001    1    1    2    0    0 -0.44032070128E+02 -0.15258864370E+03  0.11204404508E+04  0.11436056668E+04  0.16500000000E+03 0.  0.
<mgrwt>
<rscale>  0 0.50957880E+03</rscale>
<asrwt>0</asrwt>
<pdfrwt beam="1">  1        2 0.24217296E+00 0.50957880E+03</pdfrwt>
<pdfrwt beam="2">  1       -2 0.63446893E-02 0.50957880E+03</pdfrwt>
<totfact> 0.16753922E+03</totfact>
</mgrwt>
</event>
<event>
 4    1  0.3145406E-005  0.3887212E+03  0.7818608E-02  0.1047757E+00
          2   -1    0    0  501    0  0.00000000000E+00  0.00000000000E+00  0.51535976717E+03  0.51535976718E+03  0.25500000000E-02 0.  1.
         -2   -1    0    0    0  501 -0.00000000000E+00 -0.00000000000E+00 -0.73300318262E+02  0.73300318306E+02  0.25500000000E-02 0. -1.
    5000001    1    1    2    0    0  0.65357044214E+02 -0.70988944874E+02  0.16770261913E+03  0.25428358576E+03  0.16500000000E+03 0.  0.
   -5000001    1    1    2    0    0 -0.65357044214E+02  0.70988944874E+02  0.27435682978E+03  0.33437649973E+03  0.16500000000E+03 0.  0.
<mgrwt>
<rscale>  0 0.38872116E+03</rscale>
<asrwt>0</asrwt>
<pdfrwt beam="1">  1        2 0.79286118E-01 0.38872116E+03</pdfrwt>
<pdfrwt beam="2">  1       -2 0.11276972E-01 0.38872116E+03</pdfrwt>
<totfact> 0.33076556E+03</totfact>
</mgrwt>
</event>
<event>
 4    1  0.3145406E-005  0.7810931E+03  0.7818608E-02  0.9587795E-01
         -2   -1    0    0    0  501 -0.00000000000E+00  0.00000000000E+00  0.10949693812E+03  0.10949693815E+03  0.25500000000E-02 0. -1.
          2   -1    0    0  501    0  0.00000000000E+00 -0.00000000000E+00 -0.13929761403E+04  0.13929761403E+04  0.25500000000E-02 0.  1.
    5000001    1    1    2    0    0  0.29611579658E+02 -0.30315884193E+03 -0.29486239613E+03  0.45491863200E+03  0.16500000000E+03 0.  0.
   -5000001    1    1    2    0    0 -0.29611579658E+02  0.30315884193E+03 -0.98861680601E+03  0.10475544464E+04  0.16500000000E+03 0.  0.
<mgrwt>
<rscale>  0 0.78109314E+03</rscale>
<asrwt>0</asrwt>
<pdfrwt beam="1">  1        2 0.21430401E+00 0.78109314E+03</pdfrwt>
<pdfrwt beam="2">  1       -2 0.16845684E-01 0.78109314E+03</pdfrwt>
<totfact> 0.42366891E+02</totfact>
</mgrwt>
</event>
<event>
 4    1  0.3145406E-005  0.6635086E+03  0.7818608E-02  0.9781756E-01
          2   -1    0    0  501    0  0.00000000000E+00  0.00000000000E+00  0.23466537484E+04  0.23466537484E+04  0.25500000000E-02 0.  1.
         -2   -1    0    0    0  501 -0.00000000000E+00 -0.00000000000E+00 -0.46901216360E+02  0.46901216429E+02  0.25500000000E-02 0. -1.
    5000001    1    1    2    0    0 -0.11971907342E+03  0.12279434311E+03  0.31606389498E+03  0.39564187462E+03  0.16500000000E+03 0.  0.
   -5000001    1    1    2    0    0  0.11971907342E+03 -0.12279434311E+03  0.19836886370E+04  0.19979130902E+04  0.16500000000E+03 0.  0.
<mgrwt>
<rscale>  0 0.66350860E+03</rscale>
<asrwt>0</asrwt>
<pdfrwt beam="1">  1        2 0.36102364E+00 0.66350860E+03</pdfrwt>
<pdfrwt beam="2">  1       -2 0.72155720E-02 0.66350860E+03</pdfrwt>
<totfact> 0.51477617E+02</totfact>
</mgrwt>
</event>
<event>
 4    1  0.3145406E-005  0.7034979E+03  0.7818608E-02  0.9711269E-01
          2   -1    0    0  501    0  0.00000000000E+00  0.00000000000E+00  0.20158613872E+03  0.20158613873E+03  0.25500000000E-02 0.  1.
         -2   -1    0    0    0  501 -0.00000000000E+00 -0.00000000000E+00 -0.61376906666E+03  0.61376906666E+03  0.25500000000E-02 0. -1.
    5000001    1    1    2    0    0  0.72215486609E+02  0.19770265574E+03 -0.47089458414E+03  0.54154235843E+03  0.16500000000E+03 0.  0.
   -5000001    1    1    2    0    0 -0.72215486609E+02 -0.19770265574E+03  0.58711656201E+02  0.27381284697E+03  0.16500000000E+03 0.  0.
<mgrwt>
<rscale>  0 0.70349794E+03</rscale>
<asrwt>0</asrwt>
<pdfrwt beam="1">  1        2 0.31013252E-01 0.70349794E+03</pdfrwt>
<pdfrwt beam="2">  1       -2 0.94426010E-01 0.70349794E+03</pdfrwt>
<totfact> 0.16366999E+02</totfact>
</mgrwt>
</event>
<event>
 4    1  0.3145406E-005  0.5568517E+03  0.7818608E-02  0.9999204E-01
          2   -1    0    0  501    0  0.00000000000E+00  0.00000000000E+00  0.60892790659E+02  0.60892790712E+02  0.25500000000E-02 0.  1.
         -2   -1    0    0    0  501 -0.00000000000E+00 -0.00000000000E+00 -0.12730728665E+04  0.12730728665E+04  0.25500000000E-02 0. -1.
    5000001    1    1    2    0    0  0.14419918707E+03  0.16937209853E+03 -0.53767430046E+03  0.60481316676E+03  0.16500000000E+03 0.  0.
   -5000001    1    1    2    0    0 -0.14419918707E+03 -0.16937209853E+03 -0.67450577540E+03  0.72915249047E+03  0.16500000000E+03 0.  0.
<mgrwt>
<rscale>  0 0.55685172E+03</rscale>
<asrwt>0</asrwt>
<pdfrwt beam="1">  1        2 0.93681226E-02 0.55685172E+03</pdfrwt>
<pdfrwt beam="2">  1       -2 0.19585734E+00 0.55685172E+03</pdfrwt>
<totfact> 0.10503939E+02</totfact>
</mgrwt>
</event>
<event>
 4    1  0.3145406E-005  0.9721293E+03  0.7818608E-02  0.9339652E-01
          2   -1    0    0  501    0  0.00000000000E+00  0.00000000000E+00  0.68317993829E+03  0.68317993829E+03  0.25500000000E-02 0.  1.
         -2   -1    0    0    0  501 -0.00000000000E+00 -0.00000000000E+00 -0.34582224748E+03  0.34582224749E+03  0.25500000000E-02 0. -1.
    5000001    1    1    2    0    0 -0.33321781242E+03  0.17491850632E+03  0.44348890766E+03  0.60459739132E+03  0.16500000000E+03 0.  0.
   -5000001    1    1    2    0    0  0.33321781242E+03 -0.17491850632E+03 -0.10613121685E+03  0.42440479446E+03  0.16500000000E+03 0.  0.
<mgrwt>
<rscale>  0 0.97212925E+03</rscale>
<asrwt>0</asrwt>
<pdfrwt beam="1">  1        2 0.10510460E+00 0.97212925E+03</pdfrwt>
<pdfrwt beam="2">  1       -2 0.53203423E-01 0.97212925E+03</pdfrwt>
<totfact> 0.14074387E+02</totfact>
</mgrwt>
</event>
<event>
 4    1  0.3145406E-005  0.4346124E+03  0.7818608E-02  0.1032413E+00
         -2   -1    0    0    0  501 -0.00000000000E+00  0.00000000000E+00  0.11441676817E+03  0.11441676820E+03  0.25500000000E-02 0. -1.
          2   -1    0    0  501    0  0.00000000000E+00 -0.00000000000E+00 -0.41271903416E+03  0.41271903417E+03  0.25500000000E-02 0.  1.
    5000001    1    1    2    0    0 -0.99226109995E+02  0.81383007852E+02 -0.77109681709E+02  0.22280017479E+03  0.16500000000E+03 0.  0.
   -5000001    1    1    2    0    0  0.99226109995E+02 -0.81383007852E+02 -0.22119258429E+03  0.30433562758E+03  0.16500000000E+03 0.  0.
<mgrwt>
<rscale>  0 0.43461237E+03</rscale>
<asrwt>0</asrwt>
<pdfrwt beam="1">  1        2 0.63495236E-01 0.43461237E+03</pdfrwt>
<pdfrwt beam="2">  1       -2 0.17602580E-01 0.43461237E+03</pdfrwt>
<totfact> 0.20304834E+03</totfact>
</mgrwt>
</event>
<event>
 4    1  0.3145406E-005  0.5072819E+03  0.7818608E-02  0.1011896E+00
         -2   -1    0    0    0  501 -0.00000000000E+00  0.00000000000E+00  0.16876929145E+03  0.16876929147E+03  0.25500000000E-02 0. -1.
          2   -1    0    0  501    0  0.00000000000E+00 -0.00000000000E+00 -0.38119334038E+03  0.38119334039E+03  0.25500000000E-02 0.  1.
    5000001    1    1    2    0    0  0.72185614300E+02  0.14975301669E+03 -0.21172471288E+03  0.31573578030E+03  0.16500000000E+03 0.  0.
   -5000001    1    1    2    0    0 -0.72185614300E+02 -0.14975301669E+03 -0.69933605221E+00  0.23422685156E+03  0.16500000000E+03 0.  0.
<mgrwt>
<rscale>  0 0.50728189E+03</rscale>
<asrwt>0</asrwt>
<pdfrwt beam="1">  1        2 0.58645129E-01 0.50728189E+03</pdfrwt>
<pdfrwt beam="2">  1       -2 0.25964506E-01 0.50728189E+03</pdfrwt>
<totfact> 0.11242717E+03</totfact>
</mgrwt>
</event>
<event>
 4    1  0.3145406E-005  0.6333152E+03  0.7818608E-02  0.9838601E-01
         -2   -1    0    0    0  501 -0.00000000000E+00  0.00000000000E+00  0.58553874704E+02  0.58553874760E+02  0.25500000000E-02 0. -1.
          2   -1    0    0  501    0  0.00000000000E+00 -0.00000000000E+00 -0.17124749587E+04  0.17124749587E+04  0.25500000000E-02 0.  1.
    5000001    1    1    2    0    0  0.25531777416E+03 -0.17923380891E+02 -0.10697623631E+04  0.11122611775E+04  0.16500000000E+03 0.  0.
   -5000001    1    1    2    0    0 -0.25531777416E+03  0.17923380891E+02 -0.58415872084E+03  0.65876765595E+03  0.16500000000E+03 0.  0.
<mgrwt>
<rscale>  0 0.63331523E+03</rscale>
<asrwt>0</asrwt>
<pdfrwt beam="1">  1        2 0.26345765E+00 0.63331523E+03</pdfrwt>
<pdfrwt beam="2">  1       -2 0.90082897E-02 0.63331523E+03</pdfrwt>
<totfact> 0.80284603E+02</totfact>
</mgrwt>
</event>
<event>
 4    1  0.3145406E-005  0.6035534E+03  0.7818608E-02  0.9898061E-01
          2   -1    0    0  501    0  0.00000000000E+00  0.00000000000E+00  0.18503589508E+04  0.18503589508E+04  0.25500000000E-02 0.  1.
         -2   -1    0    0    0  501 -0.00000000000E+00 -0.00000000000E+00 -0.49217037625E+02  0.49217037691E+02  0.25500000000E-02 0. -1.
    5000001    1    1    2    0    0 -0.13301115097E+03 -0.20555280915E+03  0.10971276640E+04  0.11361593351E+04  0.16500000000E+03 0.  0.
   -5000001    1    1    2    0    0  0.13301115097E+03  0.20555280915E+03  0.70401424921E+03  0.76341665342E+03  0.16500000000E+03 0.  0.
<mgrwt>
<rscale>  0 0.60355343E+03</rscale>
<asrwt>0</asrwt>
<pdfrwt beam="1">  1        2 0.28467059E+00 0.60355343E+03</pdfrwt>
<pdfrwt beam="2">  1       -2 0.75718524E-02 0.60355343E+03</pdfrwt>
<totfact> 0.89386270E+02</totfact>
</mgrwt>
</event>
<event>
 4    1  0.3145406E-005  0.4097438E+03  0.7818608E-02  0.1040457E+00
          2   -1    0    0  501    0  0.00000000000E+00  0.00000000000E+00  0.23028279941E+04  0.23028279941E+04  0.25500000000E-02 0.  1.
         -2   -1    0    0    0  501 -0.00000000000E+00 -0.00000000000E+00 -0.18226501951E+02  0.18226502130E+02  0.25500000000E-02 0. -1.
    5000001    1    1    2    0    0  0.28339418249E+02 -0.11729766464E+03  0.12194802768E+04  0.12364946463E+04  0.16500000000E+03 0.  0.
   -5000001    1    1    2    0    0 -0.28339418249E+02  0.11729766464E+03  0.10651212153E+04  0.10845598499E+04  0.16500000000E+03 0.  0.
<mgrwt>
<rscale>  0 0.40974382E+03</rscale>
<asrwt>0</asrwt>
<pdfrwt beam="1">  1        2 0.35428117E+00 0.40974382E+03</pdfrwt>
<pdfrwt beam="2">  1       -2 0.28040777E-02 0.40974382E+03</pdfrwt>
<totfact> 0.23808376E+03</totfact>
</mgrwt>
</event>
<event>
 4    1  0.3145406E-005  0.4221332E+03  0.7818608E-02  0.1036374E+00
          2   -1    0    0  501    0  0.00000000000E+00  0.00000000000E+00  0.72024985147E+03  0.72024985147E+03  0.25500000000E-02 0.  1.
         -2   -1    0    0    0  501 -0.00000000000E+00 -0.00000000000E+00 -0.61852290378E+02  0.61852290430E+02  0.25500000000E-02 0. -1.
    5000001    1    1    2    0    0 -0.78570587408E+02 -0.10299549497E+03  0.37235977313E+03  0.42738531776E+03  0.16500000000E+03 0.  0.
   -5000001    1    1    2    0    0  0.78570587408E+02  0.10299549497E+03  0.28603778796E+03  0.35471682415E+03  0.16500000000E+03 0.  0.
<mgrwt>
<rscale>  0 0.42213317E+03</rscale>
<asrwt>0</asrwt>
<pdfrwt beam="1">  1        2 0.11080767E+00 0.42213317E+03</pdfrwt>
<pdfrwt beam="2">  1       -2 0.95157373E-02 0.42213317E+03</pdfrwt>
<totfact> 0.29243892E+03</totfact>
</mgrwt>
</event>
<event>
 4    1  0.3145406E-005  0.4487650E+03  0.7818608E-02  0.1028091E+00
          2   -1    0    0  501    0  0.00000000000E+00  0.00000000000E+00  0.10921393386E+04  0.10921393386E+04  0.25500000000E-02 0.  1.
         -2   -1    0    0    0  501 -0.00000000000E+00 -0.00000000000E+00 -0.46099893243E+02  0.46099893313E+02  0.25500000000E-02 0. -1.
    5000001    1    1    2    0    0  0.14448683774E+02 -0.14562511606E+03  0.41822486110E+03  0.47281335993E+03  0.16500000000E+03 0.  0.
   -5000001    1    1    2    0    0 -0.14448683774E+02  0.14562511606E+03  0.62781458421E+03  0.66542587193E+03  0.16500000000E+03 0.  0.
<mgrwt>
<rscale>  0 0.44876500E+03</rscale>
<asrwt>0</asrwt>
<pdfrwt beam="1">  1        2 0.16802142E+00 0.44876500E+03</pdfrwt>
<pdfrwt beam="2">  1       -2 0.70922920E-02 0.44876500E+03</pdfrwt>
<totfact> 0.26413443E+03</totfact>
</mgrwt>
</event>
<event>
 4    1  0.3145406E-005  0.6661368E+03  0.7818608E-02  0.9776962E-01
          2   -1    0    0  501    0  0.00000000000E+00  0.00000000000E+00  0.14673062578E+04  0.14673062578E+04  0.25500000000E-02 0.  1.
         -2   -1    0    0    0  501 -0.00000000000E+00 -0.00000000000E+00 -0.75604222191E+02  0.75604222234E+02  0.25500000000E-02 0. -1.
    5000001    1    1    2    0    0  0.11748744368E+03 -0.26428775761E+03  0.71352568249E+03  0.78739775071E+03  0.16500000000E+03 0.  0.
   -5000001    1    1    2    0    0 -0.11748744368E+03  0.26428775761E+03  0.67817635310E+03  0.75551272931E+03  0.16500000000E+03 0.  0.
<mgrwt>
<rscale>  0 0.66613677E+03</rscale>
<asrwt>0</asrwt>
<pdfrwt beam="1">  1        2 0.22573942E+00 0.66613677E+03</pdfrwt>
<pdfrwt beam="2">  1       -2 0.11631419E-01 0.66613677E+03</pdfrwt>
<totfact> 0.72097106E+02</totfact>
</mgrwt>
</event>
<event>
 4    1  0.3145406E-005  0.4023285E+03  0.7818608E-02  0.1042976E+00
          2   -1    0    0  501    0  0.00000000000E+00  0.00000000000E+00  0.17466556630E+04  0.17466556630E+04  0.25500000000E-02 0. -1.
         -2   -1    0    0    0  501 -0.00000000000E+00 -0.00000000000E+00 -0.23168307752E+02  0.23168307892E+02  0.25500000000E-02 0.  1.
    5000001    1    1    2    0    0  0.40681556929E+02 -0.40683527290E+02  0.42334844209E+03  0.45799458718E+03  0.16500000000E+03 0.  0.
   -5000001    1    1    2    0    0 -0.40681556929E+02  0.40683527290E+02  0.13001389132E+04  0.13118293838E+04  0.16500000000E+03 0.  0.
<mgrwt>
<rscale>  0 0.40232850E+03</rscale>
<asrwt>0</asrwt>
<pdfrwt beam="1">  1        2 0.26871626E+00 0.40232850E+03</pdfrwt>
<pdfrwt beam="2">  1       -2 0.35643549E-02 0.40232850E+03</pdfrwt>
<totfact> 0.32952931E+03</totfact>
</mgrwt>
</event>
<event>
 4    1  0.3145406E-005  0.3543927E+03  0.7818608E-02  0.1060826E+00
         -2   -1    0    0    0  501 -0.00000000000E+00  0.00000000000E+00  0.88044817743E+02  0.88044817780E+02  0.25500000000E-02 0. -1.
          2   -1    0    0  501    0  0.00000000000E+00 -0.00000000000E+00 -0.35662001620E+03  0.35662001621E+03  0.25500000000E-02 0.  1.
    5000001    1    1    2    0    0  0.87235496726E+01 -0.44726647554E+02 -0.76830427248E+02  0.18762859023E+03  0.16500000000E+03 0.  0.
   -5000001    1    1    2    0    0 -0.87235496726E+01  0.44726647554E+02 -0.19174477121E+03  0.25703624376E+03  0.16500000000E+03 0.  0.
<mgrwt>
<rscale>  0 0.35439269E+03</rscale>
<asrwt>0</asrwt>
<pdfrwt beam="1">  1        2 0.54864617E-01 0.35439269E+03</pdfrwt>
<pdfrwt beam="2">  1       -2 0.13545357E-01 0.35439269E+03</pdfrwt>
<totfact> 0.36845704E+03</totfact>
</mgrwt>
</event>
<event>
 4    1  0.3145406E-005  0.4292777E+03  0.7818608E-02  0.1034088E+00
         -2   -1    0    0    0  501 -0.00000000000E+00  0.00000000000E+00  0.17198637921E+02  0.17198638110E+02  0.25500000000E-02 0. -1.
          2   -1    0    0  501    0  0.00000000000E+00 -0.00000000000E+00 -0.26786906848E+04  0.26786906848E+04  0.25500000000E-02 0.  1.
    5000001    1    1    2    0    0 -0.73850041167E+02  0.11444388540E+03 -0.14383533268E+04  0.14541789863E+04  0.16500000000E+03 0.  0.
   -5000001    1    1    2    0    0  0.73850041167E+02 -0.11444388540E+03 -0.12231387201E+04  0.12417103367E+04  0.16500000000E+03 0.  0.
<mgrwt>
<rscale>  0 0.42927768E+03</rscale>
<asrwt>0</asrwt>
<pdfrwt beam="1">  1        2 0.41210593E+00 0.42927768E+03</pdfrwt>
<pdfrwt beam="2">  1       -2 0.26459464E-02 0.42927768E+03</pdfrwt>
<totfact> 0.16027965E+03</totfact>
</mgrwt>
</event>
<event>
 4    1  0.3145406E-005  0.3519854E+03  0.7818608E-02  0.1061803E+00
          2   -1    0    0  501    0  0.00000000000E+00  0.00000000000E+00  0.21612974582E+03  0.21612974583E+03  0.25500000000E-02 0.  1.
         -2   -1    0    0    0  501 -0.00000000000E+00 -0.00000000000E+00 -0.14330939704E+03  0.14330939706E+03  0.25500000000E-02 0. -1.
    5000001    1    1    2    0    0 -0.19364398268E+02 -0.50469902192E+02  0.65763136603E+02  0.18566631650E+03  0.16500000000E+03 0.  0.
   -5000001    1    1    2    0    0  0.19364398268E+02  0.50469902192E+02  0.70572121748E+01  0.17377282639E+03  0.16500000000E+03 0.  0.
<mgrwt>
<rscale>  0 0.35198536E+03</rscale>
<asrwt>0</asrwt>
<pdfrwt beam="1">  1        2 0.33250730E-01 0.35198536E+03</pdfrwt>
<pdfrwt beam="2">  1       -2 0.22047599E-01 0.35198536E+03</pdfrwt>
<totfact> 0.27883179E+03</totfact>
</mgrwt>
</event>
<event>
 4    1  0.3145406E-005  0.4996285E+03  0.7818608E-02  0.1013876E+00
          2   -1    0    0  501    0  0.00000000000E+00  0.00000000000E+00  0.80826337764E+03  0.80826337764E+03  0.25500000000E-02 0.  1.
         -2   -1    0    0    0  501 -0.00000000000E+00 -0.00000000000E+00 -0.77211422630E+02  0.77211422672E+02  0.25500000000E-02 0. -1.
    5000001    1    1    2    0    0  0.90459488660E+02 -0.53379993350E+02  0.90112014843E+02  0.21535440093E+03  0.16500000000E+03 0.  0.
   -5000001    1    1    2    0    0 -0.90459488660E+02  0.53379993350E+02  0.64093994016E+03  0.67012039939E+03  0.16500000000E+03 0.  0.
<mgrwt>
<rscale>  0 0.49962852E+03</rscale>
<asrwt>0</asrwt>
<pdfrwt beam="1">  1        2 0.12434821E+00 0.49962852E+03</pdfrwt>
<pdfrwt beam="2">  1       -2 0.11878681E-01 0.49962852E+03</pdfrwt>
<totfact> 0.17629220E+03</totfact>
</mgrwt>
</event>
<event>
 4    1  0.3145406E-005  0.4765498E+03  0.7818608E-02  0.1020088E+00
          2   -1    0    0  501    0  0.00000000000E+00  0.00000000000E+00  0.10441037556E+04  0.10441037556E+04  0.25500000000E-02 0.  1.
         -2   -1    0    0    0  501 -0.00000000000E+00 -0.00000000000E+00 -0.54376717939E+02  0.54376717999E+02  0.25500000000E-02 0. -1.
    5000001    1    1    2    0    0  0.14497062620E+03  0.57169146244E+01  0.70739004868E+03  0.74072589164E+03  0.16500000000E+03 0.  0.
   -5000001    1    1    2    0    0 -0.14497062620E+03 -0.57169146244E+01  0.28233698901E+03  0.35775458199E+03  0.16500000000E+03 0.  0.
<mgrwt>
<rscale>  0 0.47654983E+03</rscale>
<asrwt>0</asrwt>
<pdfrwt beam="1">  1        2 0.16063133E+00 0.47654983E+03</pdfrwt>
<pdfrwt beam="2">  1       -2 0.83656496E-02 0.47654983E+03</pdfrwt>
<totfact> 0.21758027E+03</totfact>
</mgrwt>
</event>
<event>
 4    1  0.3145406E-005  0.7194927E+03  0.7818608E-02  0.9684466E-01
          2   -1    0    0  501    0  0.00000000000E+00  0.00000000000E+00  0.12185948286E+04  0.12185948286E+04  0.25500000000E-02 0.  1.
         -2   -1    0    0    0  501 -0.00000000000E+00 -0.00000000000E+00 -0.10620218542E+03  0.10620218546E+03  0.25500000000E-02 0. -1.
    5000001    1    1    2    0    0 -0.29457136309E+03  0.12416367648E+03  0.55273808904E+03  0.65949473204E+03  0.16500000000E+03 0.  0.
   -5000001    1    1    2    0    0  0.29457136309E+03 -0.12416367648E+03  0.55965455416E+03  0.66530228205E+03  0.16500000000E+03 0.  0.
<mgrwt>
<rscale>  0 0.71949269E+03</rscale>
<asrwt>0</asrwt>
<pdfrwt beam="1">  1        2 0.18747611E+00 0.71949269E+03</pdfrwt>
<pdfrwt beam="2">  1       -2 0.16338799E-01 0.71949269E+03</pdfrwt>
<totfact> 0.56435482E+02</totfact>
</mgrwt>
</event>
<event>
 4    1  0.3145406E-005  0.6197423E+03  0.7818608E-02  0.9865273E-01
         -2   -1    0    0    0  501 -0.00000000000E+00  0.00000000000E+00  0.19190607961E+03  0.19190607963E+03  0.25500000000E-02 0. -1.
          2   -1    0    0  501    0  0.00000000000E+00 -0.00000000000E+00 -0.50034959853E+03  0.50034959853E+03  0.25500000000E-02 0.  1.
    5000001    1    1    2    0    0  0.80913947774E+02 -0.94821128976E+02  0.10355502557E+03  0.23127204060E+03  0.16500000000E+03 0.  0.
   -5000001    1    1    2    0    0 -0.80913947774E+02  0.94821128976E+02 -0.41199854448E+03  0.46098363756E+03  0.16500000000E+03 0.  0.
<mgrwt>
<rscale>  0 0.61974230E+03</rscale>
<asrwt>0</asrwt>
<pdfrwt beam="1">  1        2 0.76976861E-01 0.61974230E+03</pdfrwt>
<pdfrwt beam="2">  1       -2 0.29524012E-01 0.61974230E+03</pdfrwt>
<totfact> 0.65367318E+02</totfact>
</mgrwt>
</event>
<event>
 4    1  0.3145406E-005  0.1301560E+04  0.7818608E-02  0.9028329E-01
          2   -1    0    0  501    0  0.00000000000E+00  0.00000000000E+00  0.10965288348E+04  0.10965288348E+04  0.25500000000E-02 0.  1.
         -2   -1    0    0    0  501 -0.00000000000E+00 -0.00000000000E+00 -0.38623185125E+03  0.38623185126E+03  0.25500000000E-02 0. -1.
    5000001    1    1    2    0    0 -0.60952190439E+03 -0.68731296009E+02  0.19384377785E+03  0.66410944368E+03  0.16500000000E+03 0.  0.
   -5000001    1    1    2    0    0  0.60952190439E+03  0.68731296009E+02  0.51645320568E+03  0.81865124237E+03  0.16500000000E+03 0.  0.
<mgrwt>
<rscale>  0 0.13015596E+04</rscale>
<asrwt>0</asrwt>
<pdfrwt beam="1">  1        2 0.16869674E+00 0.13015596E+04</pdfrwt>
<pdfrwt beam="2">  1       -2 0.59420285E-01 0.13015596E+04</pdfrwt>
<totfact> 0.56729536E+01</totfact>
</mgrwt>
</event>
<event>
 4    1  0.3145406E-005  0.6041810E+03  0.7818608E-02  0.9896770E-01
          2   -1    0    0  501    0  0.00000000000E+00  0.00000000000E+00  0.71041702525E+02  0.71041702571E+02  0.25500000000E-02 0.  1.
         -2   -1    0    0    0  501 -0.00000000000E+00 -0.00000000000E+00 -0.12845787326E+04  0.12845787326E+04  0.25500000000E-02 0. -1.
    5000001    1    1    2    0    0  0.25222142348E+03  0.16743776133E+02 -0.58044314315E+03  0.65424402399E+03  0.16500000000E+03 0.  0.
   -5000001    1    1    2    0    0 -0.25222142348E+03 -0.16743776133E+02 -0.63309388694E+03  0.70137641119E+03  0.16500000000E+03 0.  0.
<mgrwt>
<rscale>  0 0.60418097E+03</rscale>
<asrwt>0</asrwt>
<pdfrwt beam="1">  1        2 0.10929494E-01 0.60418097E+03</pdfrwt>
<pdfrwt beam="2">  1       -2 0.19762748E+00 0.60418097E+03</pdfrwt>
<totfact> 0.83912353E+01</totfact>
</mgrwt>
</event>
<event>
 4    1  0.3145406E-005  0.4044926E+03  0.7818608E-02  0.1042235E+00
         -2   -1    0    0    0  501 -0.00000000000E+00  0.00000000000E+00  0.50476670548E+02  0.50476670613E+02  0.25500000000E-02 0. -1.
          2   -1    0    0  501    0  0.00000000000E+00 -0.00000000000E+00 -0.81034595225E+03  0.81034595226E+03  0.25500000000E-02 0.  1.
    5000001    1    1    2    0    0 -0.91414611752E+02  0.49302239195E+02 -0.26550357671E+03  0.32940019926E+03  0.16500000000E+03 0.  0.
   -5000001    1    1    2    0    0  0.91414611752E+02 -0.49302239195E+02 -0.49436570500E+03  0.53142242361E+03  0.16500000000E+03 0.  0.
<mgrwt>
<rscale>  0 0.40449260E+03</rscale>
<asrwt>0</asrwt>
<pdfrwt beam="1">  1        2 0.12466860E+00 0.40449260E+03</pdfrwt>
<pdfrwt beam="2">  1       -2 0.77656422E-02 0.40449260E+03</pdfrwt>
<totfact> 0.34744152E+03</totfact>
</mgrwt>
</event>
<event>
 4    1  0.3145406E-005  0.3646647E+03  0.7818608E-02  0.1056752E+00
          2   -1    0    0  501    0  0.00000000000E+00  0.00000000000E+00  0.13940781582E+03  0.13940781584E+03  0.25500000000E-02 0.  1.
         -2   -1    0    0    0  501 -0.00000000000E+00 -0.00000000000E+00 -0.23847358590E+03  0.23847358591E+03  0.25500000000E-02 0. -1.
    5000001    1    1    2    0    0  0.39917540345E+02 -0.65536594614E+02 -0.37644209803E+02  0.18582395376E+03  0.16500000000E+03 0.  0.
   -5000001    1    1    2    0    0 -0.39917540345E+02  0.65536594614E+02 -0.61421560275E+02  0.19205744799E+03  0.16500000000E+03 0.  0.
<mgrwt>
<rscale>  0 0.36466468E+03</rscale>
<asrwt>0</asrwt>
<pdfrwt beam="1">  1        2 0.21447356E-01 0.36466468E+03</pdfrwt>
<pdfrwt beam="2">  1       -2 0.36688244E-01 0.36466468E+03</pdfrwt>
<totfact> 0.18106290E+03</totfact>
</mgrwt>
</event>
<event>
 4    1  0.3145406E-005  0.4830838E+03  0.7818608E-02  0.1018291E+00
          2   -1    0    0  501    0  0.00000000000E+00  0.00000000000E+00  0.82282448397E+03  0.82282448397E+03  0.25500000000E-02 0.  1.
         -2   -1    0    0    0  501 -0.00000000000E+00 -0.00000000000E+00 -0.70905156965E+02  0.70905157011E+02  0.25500000000E-02 0. -1.
    5000001    1    1    2    0    0 -0.17291903968E+03  0.31031448988E+02  0.34650059759E+03  0.42208009813E+03  0.16500000000E+03 0.  0.
   -5000001    1    1    2    0    0  0.17291903968E+03 -0.31031448988E+02  0.40541872942E+03  0.47164954285E+03  0.16500000000E+03 0.  0.
<mgrwt>
<rscale>  0 0.48308384E+03</rscale>
<asrwt>0</asrwt>
<pdfrwt beam="1">  1        2 0.12658838E+00 0.48308384E+03</pdfrwt>
<pdfrwt beam="2">  1       -2 0.10908486E-01 0.48308384E+03</pdfrwt>
<totfact> 0.19789729E+03</totfact>
</mgrwt>
</event>
<event>
 4    1  0.3145406E-005  0.4914973E+03  0.7818608E-02  0.1016022E+00
         -2   -1    0    0    0  501 -0.00000000000E+00  0.00000000000E+00  0.46932280481E+03  0.46932280482E+03  0.25500000000E-02 0. -1.
          2   -1    0    0  501    0  0.00000000000E+00 -0.00000000000E+00 -0.12867985641E+03  0.12867985644E+03  0.25500000000E-02 0.  1.
    5000001    1    1    2    0    0 -0.11547413804E+03  0.13717398135E+03  0.20911124428E+03  0.32109732200E+03  0.16500000000E+03 0.  0.
   -5000001    1    1    2    0    0  0.11547413804E+03 -0.13717398135E+03  0.13153170412E+03  0.27690533925E+03  0.16500000000E+03 0.  0.
<mgrwt>
<rscale>  0 0.49149727E+03</rscale>
<asrwt>0</asrwt>
<pdfrwt beam="1">  1        2 0.19796901E-01 0.49149727E+03</pdfrwt>
<pdfrwt beam="2">  1       -2 0.72203507E-01 0.49149727E+03</pdfrwt>
<totfact> 0.50369729E+02</totfact>
</mgrwt>
</event>
<event>
 4    1  0.3145406E-005  0.5885656E+03  0.7818608E-02  0.9929417E-01
         -2   -1    0    0    0  501 -0.00000000000E+00  0.00000000000E+00  0.91623010186E+02  0.91623010221E+02  0.25500000000E-02 0. -1.
          2   -1    0    0  501    0  0.00000000000E+00 -0.00000000000E+00 -0.94520327145E+03  0.94520327145E+03  0.25500000000E-02 0.  1.
    5000001    1    1    2    0    0  0.13288738804E+03  0.20333786870E+03 -0.39281230623E+03  0.49044047006E+03  0.16500000000E+03 0.  0.
   -5000001    1    1    2    0    0 -0.13288738804E+03 -0.20333786870E+03 -0.46076795503E+03  0.54638581161E+03  0.16500000000E+03 0.  0.
<mgrwt>
<rscale>  0 0.58856561E+03</rscale>
<asrwt>0</asrwt>
<pdfrwt beam="1">  1        2 0.14541588E+00 0.58856561E+03</pdfrwt>
<pdfrwt beam="2">  1       -2 0.14095848E-01 0.58856561E+03</pdfrwt>
<totfact> 0.10717271E+03</totfact>
</mgrwt>
</event>
<event>
 4    1  0.3145406E-005  0.4386269E+03  0.7818608E-02  0.1031169E+00
          2   -1    0    0  501    0  0.00000000000E+00  0.00000000000E+00  0.13298982419E+04  0.13298982419E+04  0.25500000000E-02 0.  1.
         -2   -1    0    0    0  501 -0.00000000000E+00 -0.00000000000E+00 -0.36166975835E+02  0.36166975925E+02  0.25500000000E-02 0. -1.
    5000001    1    1    2    0    0 -0.12463113834E+02 -0.76040492880E+02  0.26624528236E+03  0.32256632828E+03  0.16500000000E+03 0.  0.
   -5000001    1    1    2    0    0  0.12463113834E+02  0.76040492880E+02  0.10274859837E+04  0.10434988895E+04  0.16500000000E+03 0.  0.
<mgrwt>
<rscale>  0 0.43862694E+03</rscale>
<asrwt>0</asrwt>
<pdfrwt beam="1">  1        2 0.20459974E+00 0.43862694E+03</pdfrwt>
<pdfrwt beam="2">  1       -2 0.55641498E-02 0.43862694E+03</pdfrwt>
<totfact> 0.28082101E+03</totfact>
</mgrwt>
</event>
<event>
 4    1  0.3145406E-005  0.4461997E+03  0.7818608E-02  0.1028861E+00
         -2   -1    0    0    0  501 -0.00000000000E+00  0.00000000000E+00  0.12989619021E+03  0.12989619023E+03  0.25500000000E-02 0. -1.
          2   -1    0    0  501    0  0.00000000000E+00 -0.00000000000E+00 -0.38317946396E+03  0.38317946397E+03  0.25500000000E-02 0.  1.
    5000001    1    1    2    0    0 -0.23562273258E+02 -0.13435832427E+03 -0.19882997091E+03  0.29217408741E+03  0.16500000000E+03 0.  0.
   -5000001    1    1    2    0    0  0.23562273258E+02  0.13435832427E+03 -0.54453302845E+02  0.22090156679E+03  0.16500000000E+03 0.  0.
<mgrwt>
<rscale>  0 0.44619974E+03</rscale>
<asrwt>0</asrwt>
<pdfrwt beam="1">  1        2 0.58950686E-01 0.44619974E+03</pdfrwt>
<pdfrwt beam="2">  1       -2 0.19984029E-01 0.44619974E+03</pdfrwt>
<totfact> 0.17733601E+03</totfact>
</mgrwt>
</event>
<event>
 4    1  0.3145406E-005  0.4684552E+03  0.7818608E-02  0.1022357E+00
         -2   -1    0    0    0  501 -0.00000000000E+00  0.00000000000E+00  0.36254860554E+02  0.36254860644E+02  0.25500000000E-02 0. -1.
          2   -1    0    0  501    0  0.00000000000E+00 -0.00000000000E+00 -0.15132473128E+04  0.15132473128E+04  0.25500000000E-02 0.  1.
    5000001    1    1    2    0    0 -0.12438165163E+03  0.10065218529E+03 -0.88774256838E+03  0.91701337251E+03  0.16500000000E+03 0.  0.
   -5000001    1    1    2    0    0  0.12438165163E+03 -0.10065218529E+03 -0.58924988388E+03  0.63248880094E+03  0.16500000000E+03 0.  0.
<mgrwt>
<rscale>  0 0.46845521E+03</rscale>
<asrwt>0</asrwt>
<pdfrwt beam="1">  1        2 0.23280723E+00 0.46845521E+03</pdfrwt>
<pdfrwt beam="2">  1       -2 0.55776720E-02 0.46845521E+03</pdfrwt>
<totfact> 0.22136892E+03</totfact>
</mgrwt>
</event>
<event>
 4    1  0.3145406E-005  0.5992325E+03  0.7818608E-02  0.9907000E-01
          2   -1    0    0  501    0  0.00000000000E+00  0.00000000000E+00  0.50167013714E+03  0.50167013715E+03  0.25500000000E-02 0.  1.
         -2   -1    0    0    0  501 -0.00000000000E+00 -0.00000000000E+00 -0.17894207974E+03  0.17894207976E+03  0.25500000000E-02 0. -1.
    5000001    1    1    2    0    0 -0.14630936760E+03  0.20272392422E+03  0.15404911765E+03  0.33683757384E+03  0.16500000000E+03 0.  0.
   -5000001    1    1    2    0    0  0.14630936760E+03 -0.20272392422E+03  0.16867893976E+03  0.34377464307E+03  0.16500000000E+03 0.  0.
<mgrwt>
<rscale>  0 0.59923250E+03</rscale>
<asrwt>0</asrwt>
<pdfrwt beam="1">  1        2 0.77180021E-01 0.59923250E+03</pdfrwt>
<pdfrwt beam="2">  1       -2 0.27529551E-01 0.59923250E+03</pdfrwt>
<totfact> 0.74117719E+02</totfact>
</mgrwt>
</event>
<event>
 4    1  0.3145406E-005  0.8152767E+03  0.7818608E-02  0.9538164E-01
         -2   -1    0    0    0  501 -0.00000000000E+00  0.00000000000E+00  0.25472847993E+03  0.25472847994E+03  0.25500000000E-02 0. -1.
          2   -1    0    0  501    0  0.00000000000E+00 -0.00000000000E+00 -0.65233790595E+03  0.65233790595E+03  0.25500000000E-02 0.  1.
    5000001    1    1    2    0    0 -0.31628503301E+03  0.19142729916E+03 -0.14587303599E+03  0.43033077464E+03  0.16500000000E+03 0.  0.
   -5000001    1    1    2    0    0  0.31628503301E+03 -0.19142729916E+03 -0.25173639003E+03  0.47673561125E+03  0.16500000000E+03 0.  0.
<mgrwt>
<rscale>  0 0.81527675E+03</rscale>
<asrwt>0</asrwt>
<pdfrwt beam="1">  1        2 0.10035968E+00 0.81527675E+03</pdfrwt>
<pdfrwt beam="2">  1       -2 0.39188997E-01 0.81527675E+03</pdfrwt>
<totfact> 0.27703725E+02</totfact>
</mgrwt>
</event>
<event>
 4    1  0.3145406E-005  0.4789552E+03  0.7818608E-02  0.1019423E+00
          2   -1    0    0  501    0  0.00000000000E+00  0.00000000000E+00  0.75112708148E+03  0.75112708148E+03  0.25500000000E-02 0.  1.
         -2   -1    0    0    0  501 -0.00000000000E+00 -0.00000000000E+00 -0.76351303129E+02  0.76351303172E+02  0.25500000000E-02 0. -1.
    5000001    1    1    2    0    0 -0.15536466848E+03  0.14912354446E+02  0.46855431761E+03  0.52070020844E+03  0.16500000000E+03 0.  0.
   -5000001    1    1    2    0    0  0.15536466848E+03 -0.14912354446E+02  0.20622146074E+03  0.30677817621E+03  0.16500000000E+03 0.  0.
<mgrwt>
<rscale>  0 0.47895524E+03</rscale>
<asrwt>0</asrwt>
<pdfrwt beam="1">  1        2 0.11555802E+00 0.47895524E+03</pdfrwt>
<pdfrwt beam="2">  1       -2 0.11746354E-01 0.47895524E+03</pdfrwt>
<totfact> 0.19739205E+03</totfact>
</mgrwt>
</event>
<event>
 4    1  0.3145406E-005  0.4209478E+03  0.7818608E-02  0.1036758E+00
         -2   -1    0    0    0  501 -0.00000000000E+00  0.00000000000E+00  0.40234672676E+03  0.40234672677E+03  0.25500000000E-02 0. -1.
          2   -1    0    0  501    0  0.00000000000E+00 -0.00000000000E+00 -0.11010220414E+03  0.11010220417E+03  0.25500000000E-02 0.  1.
    5000001    1    1    2    0    0  0.69223654951E+00  0.12900859604E+03  0.12086179185E+03  0.24181867127E+03  0.16500000000E+03 0.  0.
   -5000001    1    1    2    0    0 -0.69223654951E+00 -0.12900859604E+03  0.17138273078E+03  0.27063025968E+03  0.16500000000E+03 0.  0.
<mgrwt>
<rscale>  0 0.42094779E+03</rscale>
<asrwt>0</asrwt>
<pdfrwt beam="1">  1        2 0.16938801E-01 0.42094779E+03</pdfrwt>
<pdfrwt beam="2">  1       -2 0.61899496E-01 0.42094779E+03</pdfrwt>
<totfact> 0.84140572E+02</totfact>
</mgrwt>
</event>
<event>
 4    1  0.3145406E-005  0.6026447E+03  0.7818608E-02  0.9899934E-01
         -2   -1    0    0    0  501 -0.00000000000E+00  0.00000000000E+00  0.39667776544E+02  0.39667776626E+02  0.25500000000E-02 0. -1.
          2   -1    0    0  501    0  0.00000000000E+00 -0.00000000000E+00 -0.22888899026E+04  0.22888899026E+04  0.25500000000E-02 0.  1.
    5000001    1    1    2    0    0  0.15422343322E+03  0.15867856218E+03 -0.65763188841E+03  0.71320996495E+03  0.16500000000E+03 0.  0.
   -5000001    1    1    2    0    0 -0.15422343322E+03 -0.15867856218E+03 -0.15915902377E+04  0.16153477143E+04  0.16500000000E+03 0.  0.
<mgrwt>
<rscale>  0 0.60264475E+03</rscale>
<asrwt>0</asrwt>
<pdfrwt beam="1">  1        2 0.35213680E+00 0.60264475E+03</pdfrwt>
<pdfrwt beam="2">  1       -2 0.61027367E-02 0.60264475E+03</pdfrwt>
<totfact> 0.72526076E+02</totfact>
</mgrwt>
</event>
<event>
 4    1  0.3145406E-005  0.5530481E+03  0.7818608E-02  0.1000791E+00
          2   -1    0    0  501    0  0.00000000000E+00  0.00000000000E+00  0.47366130849E+03  0.47366130849E+03  0.25500000000E-02 0.  1.
         -2   -1    0    0    0  501 -0.00000000000E+00 -0.00000000000E+00 -0.16143507049E+03  0.16143507051E+03  0.25500000000E-02 0. -1.
    5000001    1    1    2    0    0 -0.95927365565E+02  0.17041017227E+03  0.27654752861E+03  0.37675618357E+03  0.16500000000E+03 0.  0.
   -5000001    1    1    2    0    0  0.95927365565E+02 -0.17041017227E+03  0.35678709386E+02  0.25834019544E+03  0.16500000000E+03 0.  0.
<mgrwt>
<rscale>  0 0.55304809E+03</rscale>
<asrwt>0</asrwt>
<pdfrwt beam="1">  1        2 0.72870969E-01 0.55304809E+03</pdfrwt>
<pdfrwt beam="2">  1       -2 0.24836165E-01 0.55304809E+03</pdfrwt>
<totfact> 0.95407674E+02</totfact>
</mgrwt>
</event>
<event>
 4    1  0.3145406E-005  0.3749606E+03  0.7818608E-02  0.1052812E+00
         -2   -1    0    0    0  501 -0.00000000000E+00  0.00000000000E+00  0.12590305072E+03  0.12590305075E+03  0.25500000000E-02 0. -1.
          2   -1    0    0  501    0  0.00000000000E+00 -0.00000000000E+00 -0.27917399750E+03  0.27917399752E+03  0.25500000000E-02 0.  1.
    5000001    1    1    2    0    0 -0.30179141510E+02  0.82536138209E+02 -0.91946429473E+02  0.20833180407E+03  0.16500000000E+03 0.  0.
   -5000001    1    1    2    0    0  0.30179141510E+02 -0.82536138209E+02 -0.61324517307E+02  0.19674524420E+03  0.16500000000E+03 0.  0.
<mgrwt>
<rscale>  0 0.37496057E+03</rscale>
<asrwt>0</asrwt>
<pdfrwt beam="1">  1        2 0.42949846E-01 0.37496057E+03</pdfrwt>
<pdfrwt beam="2">  1       -2 0.19369700E-01 0.37496057E+03</pdfrwt>
<totfact> 0.26405341E+03</totfact>
</mgrwt>
</event>
<event>
 4    1  0.3145406E-005  0.3949382E+03  0.7818608E-02  0.1045547E+00
          2   -1    0    0  501    0  0.00000000000E+00  0.00000000000E+00  0.10335463720E+04  0.10335463720E+04  0.25500000000E-02 0.  1.
         -2   -1    0    0    0  501 -0.00000000000E+00 -0.00000000000E+00 -0.37728402443E+02  0.37728402529E+02  0.25500000000E-02 0. -1.
    5000001    1    1    2    0    0  0.62579507887E+02  0.88214717470E+02  0.52076861205E+03  0.55688686327E+03  0.16500000000E+03 0.  0.
   -5000001    1    1    2    0    0 -0.62579507887E+02 -0.88214717470E+02  0.47504935751E+03  0.51438791127E+03  0.16500000000E+03 0.  0.
<mgrwt>
<rscale>  0 0.39493824E+03</rscale>
<asrwt>0</asrwt>
<pdfrwt beam="1">  1        2 0.15900715E+00 0.39493824E+03</pdfrwt>
<pdfrwt beam="2">  1       -2 0.58043691E-02 0.39493824E+03</pdfrwt>
<totfact> 0.39167572E+03</totfact>
</mgrwt>
</event>
<event>
 4    1  0.3145406E-005  0.4436299E+03  0.7818608E-02  0.1029639E+00
         -2   -1    0    0    0  501 -0.00000000000E+00  0.00000000000E+00  0.31162612301E+02  0.31162612406E+02  0.25500000000E-02 0. -1.
          2   -1    0    0  501    0  0.00000000000E+00 -0.00000000000E+00 -0.15788753757E+04  0.15788753757E+04  0.25500000000E-02 0.  1.
    5000001    1    1    2    0    0 -0.11930485927E+03  0.17235127608E+02 -0.46068497503E+03  0.50397057979E+03  0.16500000000E+03 0.  0.
   -5000001    1    1    2    0    0  0.11930485927E+03 -0.17235127608E+02 -0.10870277884E+04  0.11060674083E+04  0.16500000000E+03 0.  0.
<mgrwt>
<rscale>  0 0.44362994E+03</rscale>
<asrwt>0</asrwt>
<pdfrwt beam="1">  1        2 0.24290384E+00 0.44362994E+03</pdfrwt>
<pdfrwt beam="2">  1       -2 0.47942493E-02 0.44362994E+03</pdfrwt>
<totfact> 0.25775516E+03</totfact>
</mgrwt>
</event>
<event>
 4    1  0.3145406E-005  0.6322203E+03  0.7818608E-02  0.9840726E-01
          2   -1    0    0  501    0  0.00000000000E+00  0.00000000000E+00  0.28484854977E+04  0.28484854977E+04  0.25500000000E-02 0.  1.
         -2   -1    0    0    0  501 -0.00000000000E+00 -0.00000000000E+00 -0.35080261777E+02  0.35080261870E+02  0.25500000000E-02 0. -1.
    5000001    1    1    2    0    0  0.19332250196E+02 -0.19379266553E+03  0.22571977039E+04  0.22715844267E+04  0.16500000000E+03 0.  0.
   -5000001    1    1    2    0    0 -0.19332250196E+02  0.19379266553E+03  0.55620753206E+03  0.61198133291E+03  0.16500000000E+03 0.  0.
<mgrwt>
<rscale>  0 0.63222027E+03</rscale>
<asrwt>0</asrwt>
<pdfrwt beam="1">  1        2 0.43822851E+00 0.63222027E+03</pdfrwt>
<pdfrwt beam="2">  1       -2 0.53969637E-02 0.63222027E+03</pdfrwt>
<totfact> 0.42075079E+02</totfact>
</mgrwt>
</event>
<event>
 4    1  0.3145406E-005  0.4533494E+03  0.7818608E-02  0.1026728E+00
         -2   -1    0    0    0  501 -0.00000000000E+00  0.00000000000E+00  0.42636249068E+02  0.42636249144E+02  0.25500000000E-02 0. -1.
          2   -1    0    0  501    0  0.00000000000E+00 -0.00000000000E+00 -0.12051110913E+04  0.12051110913E+04  0.25500000000E-02 0.  1.
    5000001    1    1    2    0    0  0.12468588791E+03  0.87928698179E+02 -0.49966613080E+03  0.54787705635E+03  0.16500000000E+03 0.  0.
   -5000001    1    1    2    0    0 -0.12468588791E+03 -0.87928698179E+02 -0.66280871143E+03  0.69987028409E+03  0.16500000000E+03 0.  0.
<mgrwt>
<rscale>  0 0.45334939E+03</rscale>
<asrwt>0</asrwt>
<pdfrwt beam="1">  1        2 0.18540168E+00 0.45334939E+03</pdfrwt>
<pdfrwt beam="2">  1       -2 0.65594239E-02 0.45334939E+03</pdfrwt>
<totfact> 0.25603857E+03</totfact>
</mgrwt>
</event>
<event>
 4    1  0.3145406E-005  0.5646331E+03  0.7818608E-02  0.9981626E-01
         -2   -1    0    0    0  501 -0.00000000000E+00  0.00000000000E+00  0.48951649162E+02  0.48951649229E+02  0.25500000000E-02 0. -1.
          2   -1    0    0  501    0  0.00000000000E+00 -0.00000000000E+00 -0.16281911740E+04  0.16281911740E+04  0.25500000000E-02 0.  1.
    5000001    1    1    2    0    0 -0.10416786587E+03  0.18066405987E+03 -0.50803068439E+03  0.57342011047E+03  0.16500000000E+03 0.  0.
   -5000001    1    1    2    0    0  0.10416786587E+03 -0.18066405987E+03 -0.10712088404E+04  0.11037227127E+04  0.16500000000E+03 0.  0.
<mgrwt>
<rscale>  0 0.56463313E+03</rscale>
<asrwt>0</asrwt>
<pdfrwt beam="1">  1        2 0.25049091E+00 0.56463313E+03</pdfrwt>
<pdfrwt beam="2">  1       -2 0.75310242E-02 0.56463313E+03</pdfrwt>
<totfact> 0.11921714E+03</totfact>
</mgrwt>
</event>
<event>
 4    1  0.3145406E-005  0.7093273E+03  0.7818608E-02  0.9701413E-01
          2   -1    0    0  501    0  0.00000000000E+00  0.00000000000E+00  0.10385851141E+04  0.10385851141E+04  0.25500000000E-02 0.  1.
         -2   -1    0    0    0  501 -0.00000000000E+00 -0.00000000000E+00 -0.12111313121E+03  0.12111313124E+03  0.25500000000E-02 0. -1.
    5000001    1    1    2    0    0  0.42955018346E+02  0.27247465052E+03  0.21364018171E+03  0.38594649372E+03  0.16500000000E+03 0.  0.
   -5000001    1    1    2    0    0 -0.42955018346E+02 -0.27247465052E+03  0.70383180113E+03  0.77375175157E+03  0.16500000000E+03 0.  0.
<mgrwt>
<rscale>  0 0.70932727E+03</rscale>
<asrwt>0</asrwt>
<pdfrwt beam="1">  1        2 0.15978233E+00 0.70932727E+03</pdfrwt>
<pdfrwt beam="2">  1       -2 0.18632789E-01 0.70932727E+03</pdfrwt>
<totfact> 0.57893142E+02</totfact>
</mgrwt>
</event>
<event>
 4    1  0.3145406E-005  0.3572302E+03  0.7818608E-02  0.1059686E+00
          2   -1    0    0  501    0  0.00000000000E+00  0.00000000000E+00  0.39094317211E+03  0.39094317212E+03  0.25500000000E-02 0.  1.
         -2   -1    0    0    0  501 -0.00000000000E+00 -0.00000000000E+00 -0.81606109941E+02  0.81606109981E+02  0.25500000000E-02 0. -1.
    5000001    1    1    2    0    0  0.30207111994E+02 -0.12324881112E+02  0.75145709478E+02  0.18421794148E+03  0.16500000000E+03 0.  0.
   -5000001    1    1    2    0    0 -0.30207111994E+02  0.12324881112E+02  0.23419135269E+03  0.28833134062E+03  0.16500000000E+03 0.  0.
<mgrwt>
<rscale>  0 0.35723019E+03</rscale>
<asrwt>0</asrwt>
<pdfrwt beam="1">  1        2 0.60145102E-01 0.35723019E+03</pdfrwt>
<pdfrwt beam="2">  1       -2 0.12554786E-01 0.35723019E+03</pdfrwt>
<totfact> 0.37748249E+03</totfact>
</mgrwt>
</event>
<event>
 4    1  0.3145406E-005  0.4399597E+03  0.7818608E-02  0.1030759E+00
         -2   -1    0    0    0  501 -0.00000000000E+00  0.00000000000E+00  0.17545714915E+03  0.17545714917E+03  0.25500000000E-02 0. -1.
          2   -1    0    0  501    0  0.00000000000E+00 -0.00000000000E+00 -0.27580025284E+03  0.27580025285E+03  0.25500000000E-02 0.  1.
    5000001    1    1    2    0    0 -0.87271196528E+02 -0.47373195650E+01  0.69122557936E+02  0.19910206417E+03  0.16500000000E+03 0.  0.
   -5000001    1    1    2    0    0  0.87271196528E+02  0.47373195650E+01 -0.16946566162E+03  0.25215533785E+03  0.16500000000E+03 0.  0.
<mgrwt>
<rscale>  0 0.43995966E+03</rscale>
<asrwt>0</asrwt>
<pdfrwt beam="1">  1        2 0.42430808E-01 0.43995966E+03</pdfrwt>
<pdfrwt beam="2">  1       -2 0.26993408E-01 0.43995966E+03</pdfrwt>
<totfact> 0.14952312E+03</totfact>
</mgrwt>
</event>
<event>
 4    1  0.3145406E-005  0.5307759E+03  0.7818608E-02  0.1006044E+00
          2   -1    0    0  501    0  0.00000000000E+00  0.00000000000E+00  0.11349442052E+04  0.11349442052E+04  0.25500000000E-02 0.  1.
         -2   -1    0    0    0  501 -0.00000000000E+00 -0.00000000000E+00 -0.62056598625E+02  0.62056598677E+02  0.25500000000E-02 0. -1.
    5000001    1    1    2    0    0 -0.56887560564E+02  0.19989101963E+03  0.52826185552E+03  0.59116681425E+03  0.16500000000E+03 0.  0.
   -5000001    1    1    2    0    0  0.56887560564E+02 -0.19989101963E+03  0.54462575103E+03  0.60583398961E+03  0.16500000000E+03 0.  0.
<mgrwt>
<rscale>  0 0.53077595E+03</rscale>
<asrwt>0</asrwt>
<pdfrwt beam="1">  1        2 0.17460679E+00 0.53077595E+03</pdfrwt>
<pdfrwt beam="2">  1       -2 0.95471694E-02 0.53077595E+03</pdfrwt>
<totfact> 0.15502155E+03</totfact>
</mgrwt>
</event>
<event>
 4    1  0.3145406E-005  0.4367202E+03  0.7818608E-02  0.1031758E+00
          2   -1    0    0  501    0  0.00000000000E+00  0.00000000000E+00  0.15172008027E+03  0.15172008029E+03  0.25500000000E-02 0.  1.
         -2   -1    0    0    0  501 -0.00000000000E+00 -0.00000000000E+00 -0.31427047135E+03  0.31427047136E+03  0.25500000000E-02 0. -1.
    5000001    1    1    2    0    0  0.11668737945E+03 -0.81928186605E+02 -0.69204676286E+02  0.22878474491E+03  0.16500000000E+03 0.  0.
   -5000001    1    1    2    0    0 -0.11668737945E+03  0.81928186605E+02 -0.93345714795E+02  0.23720580675E+03  0.16500000000E+03 0.  0.
<mgrwt>
<rscale>  0 0.43672024E+03</rscale>
<asrwt>0</asrwt>
<pdfrwt beam="1">  1        2 0.23341551E-01 0.43672024E+03</pdfrwt>
<pdfrwt beam="2">  1       -2 0.48349303E-01 0.43672024E+03</pdfrwt>
<totfact> 0.96231783E+02</totfact>
</mgrwt>
</event>
<event>
 4    1  0.3145406E-005  0.5770999E+03  0.7818608E-02  0.9954090E-01
          2   -1    0    0  501    0  0.00000000000E+00  0.00000000000E+00  0.65175015127E+03  0.65175015128E+03  0.25500000000E-02 0.  1.
         -2   -1    0    0    0  501 -0.00000000000E+00 -0.00000000000E+00 -0.12774998236E+03  0.12774998238E+03  0.25500000000E-02 0. -1.
    5000001    1    1    2    0    0 -0.21934760120E+03 -0.85093131024E+02  0.22672950716E+03  0.36604027172E+03  0.16500000000E+03 0.  0.
   -5000001    1    1    2    0    0  0.21934760120E+03  0.85093131024E+02  0.29727066175E+03  0.41345986194E+03  0.16500000000E+03 0.  0.
<mgrwt>
<rscale>  0 0.57709989E+03</rscale>
<asrwt>0</asrwt>
<pdfrwt beam="1">  1        2 0.10026925E+00 0.57709989E+03</pdfrwt>
<pdfrwt beam="2">  1       -2 0.19653843E-01 0.57709989E+03</pdfrwt>
<totfact> 0.98992622E+02</totfact>
</mgrwt>
</event>
<event>
 4    1  0.3145406E-005  0.2650047E+04  0.7818608E-02  0.8351397E-01
         -2   -1    0    0    0  501 -0.00000000000E+00  0.00000000000E+00  0.29443247270E+04  0.29443247270E+04  0.25500000000E-02 0. -1.
          2   -1    0    0  501    0  0.00000000000E+00 -0.00000000000E+00 -0.59629552034E+03  0.59629552035E+03  0.25500000000E-02 0.  1.
    5000001    1    1    2    0    0 -0.88903546593E+03 -0.84291701716E+03  0.53665762927E+03  0.13476348053E+04  0.16500000000E+03 0.  0.
   -5000001    1    1    2    0    0  0.88903546593E+03  0.84291701716E+03  0.18113715774E+04  0.21929854420E+04  0.16500000000E+03 0.  0.
<mgrwt>
<rscale>  0 0.26500473E+04</rscale>
<asrwt>0</asrwt>
<pdfrwt beam="1">  1        2 0.91737771E-01 0.26500473E+04</pdfrwt>
<pdfrwt beam="2">  1       -2 0.45297304E+00 0.26500473E+04</pdfrwt>
<totfact> 0.14583025E-01</totfact>
</mgrwt>
</event>
<event>
 4    1  0.3145406E-005  0.4381378E+03  0.7818608E-02  0.1031320E+00
         -2   -1    0    0    0  501 -0.00000000000E+00  0.00000000000E+00  0.36016008013E+02  0.36016008104E+02  0.25500000000E-02 0. -1.
          2   -1    0    0  501    0  0.00000000000E+00 -0.00000000000E+00 -0.13324956461E+04  0.13324956461E+04  0.25500000000E-02 0.  1.
    5000001    1    1    2    0    0 -0.36959786874E+02 -0.57601190860E+02 -0.25213398917E+03  0.30899914487E+03  0.16500000000E+03 0.  0.
   -5000001    1    1    2    0    0  0.36959786874E+02  0.57601190860E+02 -0.10443456489E+04  0.10595125093E+04  0.16500000000E+03 0.  0.
<mgrwt>
<rscale>  0 0.43813776E+03</rscale>
<asrwt>0</asrwt>
<pdfrwt beam="1">  1        2 0.20499929E+00 0.43813776E+03</pdfrwt>
<pdfrwt beam="2">  1       -2 0.55409253E-02 0.43813776E+03</pdfrwt>
<totfact> 0.28169967E+03</totfact>
</mgrwt>
</event>
<event>
 4    1  0.3145406E-005  0.8870076E+03  0.7818608E-02  0.9441970E-01
         -2   -1    0    0    0  501 -0.00000000000E+00  0.00000000000E+00  0.10042680861E+03  0.10042680864E+03  0.25500000000E-02 0. -1.
          2   -1    0    0  501    0  0.00000000000E+00 -0.00000000000E+00 -0.19585969107E+04  0.19585969107E+04  0.25500000000E-02 0.  1.
    5000001    1    1    2    0    0  0.31800318501E+03  0.20622361760E+03 -0.13020620857E+04  0.13661057357E+04  0.16500000000E+03 0.  0.
   -5000001    1    1    2    0    0 -0.31800318501E+03 -0.20622361760E+03 -0.55610801635E+03  0.69291798358E+03  0.16500000000E+03 0.  0.
<mgrwt>
<rscale>  0 0.88700764E+03</rscale>
<asrwt>0</asrwt>
<pdfrwt beam="1">  1        2 0.30132257E+00 0.88700764E+03</pdfrwt>
<pdfrwt beam="2">  1       -2 0.15450280E-01 0.88700764E+03</pdfrwt>
<totfact> 0.23755861E+02</totfact>
</mgrwt>
</event>
<event>
 4    1  0.3145406E-005  0.3463922E+03  0.7818608E-02  0.1064106E+00
         -2   -1    0    0    0  501 -0.00000000000E+00  0.00000000000E+00  0.16538879436E+02  0.16538879633E+02  0.25500000000E-02 0. -1.
          2   -1    0    0  501    0  0.00000000000E+00 -0.00000000000E+00 -0.18137198915E+04  0.18137198916E+04  0.25500000000E-02 0.  1.
    5000001    1    1    2    0    0 -0.30309425191E+02  0.42779529570E+02 -0.92401056985E+03  0.94009003962E+03  0.16500000000E+03 0.  0.
   -5000001    1    1    2    0    0  0.30309425191E+02 -0.42779529570E+02 -0.87317044227E+03  0.89016873156E+03  0.16500000000E+03 0.  0.
<mgrwt>
<rscale>  0 0.34639223E+03</rscale>
<asrwt>0</asrwt>
<pdfrwt beam="1">  1        2 0.27903367E+00 0.34639223E+03</pdfrwt>
<pdfrwt beam="2">  1       -2 0.25444444E-02 0.34639223E+03</pdfrwt>
<totfact> 0.50412916E+03</totfact>
</mgrwt>
</event>
<event>
 4    1  0.3145406E-005  0.7767659E+03  0.7818608E-02  0.9594270E-01
         -2   -1    0    0    0  501 -0.00000000000E+00  0.00000000000E+00  0.24125298861E+03  0.24125298862E+03  0.25500000000E-02 0. -1.
          2   -1    0    0  501    0  0.00000000000E+00 -0.00000000000E+00 -0.62524128710E+03  0.62524128710E+03  0.25500000000E-02 0.  1.
    5000001    1    1    2    0    0  0.32603333791E+03  0.76754810238E+02 -0.72747230278E+02  0.38040267853E+03  0.16500000000E+03 0.  0.
   -5000001    1    1    2    0    0 -0.32603333791E+03 -0.76754810238E+02 -0.31124106821E+03  0.48609159719E+03  0.16500000000E+03 0.  0.
<mgrwt>
<rscale>  0 0.77676593E+03</rscale>
<asrwt>0</asrwt>
<pdfrwt beam="1">  1        2 0.96190967E-01 0.77676593E+03</pdfrwt>
<pdfrwt beam="2">  1       -2 0.37115845E-01 0.77676593E+03</pdfrwt>
<totfact> 0.32469645E+02</totfact>
</mgrwt>
</event>
<event>
 4    1  0.3145406E-005  0.6213078E+03  0.7818608E-02  0.9862159E-01
         -2   -1    0    0    0  501 -0.00000000000E+00  0.00000000000E+00  0.88641479071E+02  0.88641479108E+02  0.25500000000E-02 0. -1.
          2   -1    0    0  501    0  0.00000000000E+00 -0.00000000000E+00 -0.10887209391E+04  0.10887209391E+04  0.25500000000E-02 0.  1.
    5000001    1    1    2    0    0 -0.77930949574E+02 -0.24249586110E+03 -0.37429336893E+03  0.48186927852E+03  0.16500000000E+03 0.  0.
   -5000001    1    1    2    0    0  0.77930949574E+02  0.24249586110E+03 -0.62578609114E+03  0.69549313974E+03  0.16500000000E+03 0.  0.
<mgrwt>
<rscale>  0 0.62130776E+03</rscale>
<asrwt>0</asrwt>
<pdfrwt beam="1">  1        2 0.16749552E+00 0.62130776E+03</pdfrwt>
<pdfrwt beam="2">  1       -2 0.13637151E-01 0.62130776E+03</pdfrwt>
<totfact> 0.91919741E+02</totfact>
</mgrwt>
</event>
<event>
 4    1  0.3145406E-005  0.4056831E+03  0.7818608E-02  0.1041829E+00
         -2   -1    0    0    0  501 -0.00000000000E+00  0.00000000000E+00  0.14052866684E+03  0.14052866687E+03  0.25500000000E-02 0. -1.
          2   -1    0    0  501    0  0.00000000000E+00 -0.00000000000E+00 -0.29278512478E+03  0.29278512479E+03  0.25500000000E-02 0.  1.
    5000001    1    1    2    0    0  0.53868881553E+02 -0.79869371097E+02 -0.14887523371E+03  0.24221851303E+03  0.16500000000E+03 0.  0.
   -5000001    1    1    2    0    0 -0.53868881553E+02  0.79869371097E+02 -0.33812242241E+01  0.19109527863E+03  0.16500000000E+03 0.  0.
<mgrwt>
<rscale>  0 0.40568314E+03</rscale>
<asrwt>0</asrwt>
<pdfrwt beam="1">  1        2 0.45043865E-01 0.40568314E+03</pdfrwt>
<pdfrwt beam="2">  1       -2 0.21619795E-01 0.40568314E+03</pdfrwt>
<totfact> 0.20753011E+03</totfact>
</mgrwt>
</event>
<event>
 4    1  0.3145406E-005  0.4024584E+03  0.7818608E-02  0.1042932E+00
          2   -1    0    0  501    0  0.00000000000E+00  0.00000000000E+00  0.58860701404E+03  0.58860701404E+03  0.25500000000E-02 0. -1.
         -2   -1    0    0    0  501 -0.00000000000E+00 -0.00000000000E+00 -0.68794959879E+02  0.68794959926E+02  0.25500000000E-02 0.  1.
    5000001    1    1    2    0    0  0.10480274378E+03  0.38559164192E+02  0.21376903363E+03  0.29222016355E+03  0.16500000000E+03 0.  0.
   -5000001    1    1    2    0    0 -0.10480274378E+03 -0.38559164192E+02  0.30604302053E+03  0.36518181042E+03  0.16500000000E+03 0.  0.
<mgrwt>
<rscale>  0 0.40245842E+03</rscale>
<asrwt>0</asrwt>
<pdfrwt beam="1">  1        2 0.90554928E-01 0.40245842E+03</pdfrwt>
<pdfrwt beam="2">  1       -2 0.10583840E-01 0.40245842E+03</pdfrwt>
<totfact> 0.31442989E+03</totfact>
</mgrwt>
</event>
<event>
 4    1  0.3145406E-005  0.9400332E+03  0.7818608E-02  0.9376877E-01
          2   -1    0    0  501    0  0.00000000000E+00  0.00000000000E+00  0.43597005396E+03  0.43597005397E+03  0.25500000000E-02 0.  1.
         -2   -1    0    0    0  501 -0.00000000000E+00 -0.00000000000E+00 -0.50672200778E+03  0.50672200778E+03  0.25500000000E-02 0. -1.
    5000001    1    1    2    0    0  0.10880878816E+03  0.16621848278E+03  0.35844674611E+03  0.44178841790E+03  0.16500000000E+03 0.  0.
   -5000001    1    1    2    0    0 -0.10880878816E+03 -0.16621848278E+03 -0.42919869993E+03  0.50090364384E+03  0.16500000000E+03 0.  0.
<mgrwt>
<rscale>  0 0.94003324E+03</rscale>
<asrwt>0</asrwt>
<pdfrwt beam="1">  1        2 0.67072316E-01 0.94003324E+03</pdfrwt>
<pdfrwt beam="2">  1       -2 0.77957232E-01 0.94003324E+03</pdfrwt>
<totfact> 0.10586899E+02</totfact>
</mgrwt>
</event>
<event>
 4    1  0.3145406E-005  0.3524198E+03  0.7818608E-02  0.1061626E+00
          2   -1    0    0  501    0  0.00000000000E+00  0.00000000000E+00  0.60621813013E+02  0.60621813066E+02  0.25500000000E-02 0.  1.
         -2   -1    0    0    0  501 -0.00000000000E+00 -0.00000000000E+00 -0.51219081646E+03  0.51219081646E+03  0.25500000000E-02 0. -1.
    5000001    1    1    2    0    0  0.60927894843E+02 -0.48463237177E+01 -0.21043007138E+03  0.27430185957E+03  0.16500000000E+03 0.  0.
   -5000001    1    1    2    0    0 -0.60927894843E+02  0.48463237177E+01 -0.24113893207E+03  0.29851076996E+03  0.16500000000E+03 0.  0.
<mgrwt>
<rscale>  0 0.35241984E+03</rscale>
<asrwt>0</asrwt>
<pdfrwt beam="1">  1        2 0.93264331E-02 0.35241984E+03</pdfrwt>
<pdfrwt beam="2">  1       -2 0.78798584E-01 0.35241984E+03</pdfrwt>
<totfact> 0.10361170E+03</totfact>
</mgrwt>
</event>
<event>
 4    1  0.3145406E-005  0.4707345E+03  0.7818608E-02  0.1021713E+00
          2   -1    0    0  501    0  0.00000000000E+00  0.00000000000E+00  0.20488432761E+04  0.20488432761E+04  0.25500000000E-02 0.  1.
         -2   -1    0    0    0  501 -0.00000000000E+00 -0.00000000000E+00 -0.27038551071E+02  0.27038551191E+02  0.25500000000E-02 0. -1.
    5000001    1    1    2    0    0  0.16151712800E+03 -0.45619565847E+02  0.10022762800E+04  0.10295395422E+04  0.16500000000E+03 0.  0.
   -5000001    1    1    2    0    0 -0.16151712800E+03  0.45619565847E+02  0.10195284450E+04  0.10463422851E+04  0.16500000000E+03 0.  0.
<mgrwt>
<rscale>  0 0.47073455E+03</rscale>
<asrwt>0</asrwt>
<pdfrwt beam="1">  1        2 0.31520680E+00 0.47073455E+03</pdfrwt>
<pdfrwt beam="2">  1       -2 0.41597752E-02 0.47073455E+03</pdfrwt>
<totfact> 0.17900846E+03</totfact>
</mgrwt>
</event>
<event>
 4    1  0.3145406E-005  0.6201320E+03  0.7818608E-02  0.9864497E-01
         -2   -1    0    0    0  501 -0.00000000000E+00  0.00000000000E+00  0.11289902918E+03  0.11289902921E+03  0.25500000000E-02 0. -1.
          2   -1    0    0  501    0  0.00000000000E+00 -0.00000000000E+00 -0.85156541803E+03  0.85156541803E+03  0.25500000000E-02 0.  1.
    5000001    1    1    2    0    0  0.11292892641E+03  0.98668749662E+02 -0.70444482787E+03  0.73888834075E+03  0.16500000000E+03 0.  0.
   -5000001    1    1    2    0    0 -0.11292892641E+03 -0.98668749662E+02 -0.34221560974E+02  0.22557610648E+03  0.16500000000E+03 0.  0.
<mgrwt>
<rscale>  0 0.62013195E+03</rscale>
<asrwt>0</asrwt>
<pdfrwt beam="1">  1        2 0.13101006E+00 0.62013195E+03</pdfrwt>
<pdfrwt beam="2">  1       -2 0.17369082E-01 0.62013195E+03</pdfrwt>
<totfact> 0.86869800E+02</totfact>
</mgrwt>
</event>
<event>
 4    1  0.3145406E-005  0.5272718E+03  0.7818608E-02  0.1006896E+00
         -2   -1    0    0    0  501 -0.00000000000E+00  0.00000000000E+00  0.34932346641E+02  0.34932346734E+02  0.25500000000E-02 0. -1.
          2   -1    0    0  501    0  0.00000000000E+00 -0.00000000000E+00 -0.19896710888E+04  0.19896710888E+04  0.25500000000E-02 0.  1.
    5000001    1    1    2    0    0  0.20431535886E+02 -0.10145709965E+03 -0.29514344049E+03  0.35361793110E+03  0.16500000000E+03 0.  0.
   -5000001    1    1    2    0    0 -0.20431535886E+02  0.10145709965E+03 -0.16595953016E+04  0.16709855044E+04  0.16500000000E+03 0.  0.
<mgrwt>
<rscale>  0 0.52727177E+03</rscale>
<asrwt>0</asrwt>
<pdfrwt beam="1">  1        2 0.30610315E+00 0.52727177E+03</pdfrwt>
<pdfrwt beam="2">  1       -2 0.53742088E-02 0.52727177E+03</pdfrwt>
<totfact> 0.12937583E+03</totfact>
</mgrwt>
</event>
<event>
 4    1  0.3145406E-005  0.5788693E+03  0.7818608E-02  0.9950242E-01
         -2   -1    0    0    0  501 -0.00000000000E+00  0.00000000000E+00  0.98056088622E+02  0.98056088655E+02  0.25500000000E-02 0. -1.
          2   -1    0    0  501    0  0.00000000000E+00 -0.00000000000E+00 -0.85433173110E+03  0.85433173111E+03  0.25500000000E-02 0.  1.
    5000001    1    1    2    0    0 -0.22064141401E+03 -0.77099744469E+01 -0.52349266051E+03  0.59161781827E+03  0.16500000000E+03 0.  0.
   -5000001    1    1    2    0    0  0.22064141401E+03  0.77099744469E+01 -0.23278298197E+03  0.36077000149E+03  0.16500000000E+03 0.  0.
<mgrwt>
<rscale>  0 0.57886934E+03</rscale>
<asrwt>0</asrwt>
<pdfrwt beam="1">  1        2 0.13143565E+00 0.57886934E+03</pdfrwt>
<pdfrwt beam="2">  1       -2 0.15085553E-01 0.57886934E+03</pdfrwt>
<totfact> 0.10999086E+03</totfact>
</mgrwt>
</event>
<event>
 4    1  0.3145406E-005  0.4520160E+03  0.7818608E-02  0.1027123E+00
          2   -1    0    0  501    0  0.00000000000E+00  0.00000000000E+00  0.83273257956E+02  0.83273257995E+02  0.25500000000E-02 0.  1.
         -2   -1    0    0    0  501 -0.00000000000E+00 -0.00000000000E+00 -0.61339752664E+03  0.61339752665E+03  0.25500000000E-02 0. -1.
    5000001    1    1    2    0    0  0.39884380269E+02 -0.83657531953E+02 -0.74636252822E+02  0.20343283087E+03  0.16500000000E+03 0.  0.
   -5000001    1    1    2    0    0 -0.39884380269E+02  0.83657531953E+02 -0.45548801587E+03  0.49323795377E+03  0.16500000000E+03 0.  0.
<mgrwt>
<rscale>  0 0.45201598E+03</rscale>
<asrwt>0</asrwt>
<pdfrwt beam="1">  1        2 0.12811271E-01 0.45201598E+03</pdfrwt>
<pdfrwt beam="2">  1       -2 0.94368847E-01 0.45201598E+03</pdfrwt>
<totfact> 0.46494892E+02</totfact>
</mgrwt>
</event>
<event>
 4    1  0.3145406E-005  0.6226109E+03  0.7818608E-02  0.9859575E-01
         -2   -1    0    0    0  501 -0.00000000000E+00  0.00000000000E+00  0.28467266567E+03  0.28467266568E+03  0.25500000000E-02 0. -1.
          2   -1    0    0  501    0  0.00000000000E+00 -0.00000000000E+00 -0.34042986453E+03  0.34042986454E+03  0.25500000000E-02 0.  1.
    5000001    1    1    2    0    0 -0.16550324748E+03 -0.12498876044E+03  0.13609235196E+03  0.29792556692E+03  0.16500000000E+03 0.  0.
   -5000001    1    1    2    0    0  0.16550324748E+03  0.12498876044E+03 -0.19184955082E+03  0.32717696330E+03  0.16500000000E+03 0.  0.
<mgrwt>
<rscale>  0 0.62261088E+03</rscale>
<asrwt>0</asrwt>
<pdfrwt beam="1">  1        2 0.52373825E-01 0.62261088E+03</pdfrwt>
<pdfrwt beam="2">  1       -2 0.43795795E-01 0.62261088E+03</pdfrwt>
<totfact> 0.47528462E+02</totfact>
</mgrwt>
</event>
<event>
 4    1  0.3145406E-005  0.4344160E+03  0.7818608E-02  0.1032474E+00
          2   -1    0    0  501    0  0.00000000000E+00  0.00000000000E+00  0.20596908770E+04  0.20596908770E+04  0.25500000000E-02 0.  1.
         -2   -1    0    0    0  501 -0.00000000000E+00 -0.00000000000E+00 -0.22906012456E+02  0.22906012598E+02  0.25500000000E-02 0. -1.
    5000001    1    1    2    0    0  0.42374270295E+02 -0.10343218192E+03  0.60431295313E+03  0.63632769888E+03  0.16500000000E+03 0.  0.
   -5000001    1    1    2    0    0 -0.42374270295E+02  0.10343218192E+03  0.14324719115E+04  0.14462691908E+04  0.16500000000E+03 0.  0.
<mgrwt>
<rscale>  0 0.43441595E+03</rscale>
<asrwt>0</asrwt>
<pdfrwt beam="1">  1        2 0.31687555E+00 0.43441595E+03</pdfrwt>
<pdfrwt beam="2">  1       -2 0.35240015E-02 0.43441595E+03</pdfrwt>
<totfact> 0.22783824E+03</totfact>
</mgrwt>
</event>
<event>
 4    1  0.3145406E-005  0.4988199E+03  0.7818608E-02  0.1014087E+00
         -2   -1    0    0    0  501 -0.00000000000E+00  0.00000000000E+00  0.21493941384E+02  0.21493941535E+02  0.25500000000E-02 0. -1.
          2   -1    0    0  501    0  0.00000000000E+00 -0.00000000000E+00 -0.28940859527E+04  0.28940859527E+04  0.25500000000E-02 0.  1.
    5000001    1    1    2    0    0 -0.10573544250E+02 -0.12564796076E+03 -0.22436852484E+04  0.22532748842E+04  0.16500000000E+03 0.  0.
   -5000001    1    1    2    0    0  0.10573544250E+02  0.12564796076E+03 -0.62890676299E+03  0.66230501011E+03  0.16500000000E+03 0.  0.
<mgrwt>
<rscale>  0 0.49881986E+03</rscale>
<asrwt>0</asrwt>
<pdfrwt beam="1">  1        2 0.44524368E+00 0.49881986E+03</pdfrwt>
<pdfrwt beam="2">  1       -2 0.33067625E-02 0.49881986E+03</pdfrwt>
<totfact> 0.85192396E+02</totfact>
</mgrwt>
</event>
<event>
 4    1  0.3145406E-005  0.8337659E+03  0.7818608E-02  0.9512389E-01
          2   -1    0    0  501    0  0.00000000000E+00  0.00000000000E+00  0.15643595015E+04  0.15643595015E+04  0.25500000000E-02 0.  1.
         -2   -1    0    0    0  501 -0.00000000000E+00 -0.00000000000E+00 -0.11109426772E+03  0.11109426775E+03  0.25500000000E-02 0. -1.
    5000001    1    1    2    0    0  0.28287783028E+03 -0.12734863363E+03  0.11774459699E+04  0.12287561000E+04  0.16500000000E+03 0.  0.
   -5000001    1    1    2    0    0 -0.28287783028E+03  0.12734863363E+03  0.27581926389E+03  0.44669766921E+03  0.16500000000E+03 0.  0.
<mgrwt>
<rscale>  0 0.83376585E+03</rscale>
<asrwt>0</asrwt>
<pdfrwt beam="1">  1        2 0.24067069E+00 0.83376585E+03</pdfrwt>
<pdfrwt beam="2">  1       -2 0.17091426E-01 0.83376585E+03</pdfrwt>
<totfact> 0.33031155E+02</totfact>
</mgrwt>
</event>
<event>
 4    1  0.3145406E-005  0.6724435E+03  0.7818608E-02  0.9765554E-01
         -2   -1    0    0    0  501 -0.00000000000E+00  0.00000000000E+00  0.17619453732E+03  0.17619453734E+03  0.25500000000E-02 0. -1.
          2   -1    0    0  501    0  0.00000000000E+00 -0.00000000000E+00 -0.64159232215E+03  0.64159232215E+03  0.25500000000E-02 0.  1.
    5000001    1    1    2    0    0 -0.10888312255E+02 -0.26428543078E+03 -0.79567724248E+02  0.32174736519E+03  0.16500000000E+03 0.  0.
   -5000001    1    1    2    0    0  0.10888312255E+02  0.26428543078E+03 -0.38583006058E+03  0.49603949430E+03  0.16500000000E+03 0.  0.
<mgrwt>
<rscale>  0 0.67244349E+03</rscale>
<asrwt>0</asrwt>
<pdfrwt beam="1">  1        2 0.98706510E-01 0.67244349E+03</pdfrwt>
<pdfrwt beam="2">  1       -2 0.27106852E-01 0.67244349E+03</pdfrwt>
<totfact> 0.56849762E+02</totfact>
</mgrwt>
</event>
<event>
 4    1  0.3145406E-005  0.4972483E+03  0.7818608E-02  0.1014500E+00
         -2   -1    0    0    0  501 -0.00000000000E+00  0.00000000000E+00  0.31898185293E+02  0.31898185395E+02  0.25500000000E-02 0. -1.
          2   -1    0    0  501    0  0.00000000000E+00 -0.00000000000E+00 -0.19378520165E+04  0.19378520165E+04  0.25500000000E-02 0.  1.
    5000001    1    1    2    0    0  0.14751564996E+03 -0.67489085055E+02 -0.13132881100E+04  0.13335165179E+04  0.16500000000E+03 0.  0.
   -5000001    1    1    2    0    0 -0.14751564996E+03  0.67489085055E+02 -0.59266572117E+03  0.63623368398E+03  0.16500000000E+03 0.  0.
<mgrwt>
<rscale>  0 0.49724828E+03</rscale>
<asrwt>0</asrwt>
<pdfrwt beam="1">  1        2 0.29813099E+00 0.49724828E+03</pdfrwt>
<pdfrwt beam="2">  1       -2 0.49074146E-02 0.49724828E+03</pdfrwt>
<totfact> 0.15906773E+03</totfact>
</mgrwt>
</event>
<event>
 4    1  0.3145406E-005  0.3711742E+03  0.7818608E-02  0.1054245E+00
         -2   -1    0    0    0  501 -0.00000000000E+00  0.00000000000E+00  0.70935930301E+02  0.70935930347E+02  0.25500000000E-02 0.  1.
          2   -1    0    0  501    0  0.00000000000E+00 -0.00000000000E+00 -0.48554479198E+03  0.48554479199E+03  0.25500000000E-02 0. -1.
    5000001    1    1    2    0    0 -0.56241103756E+02 -0.32664426903E+02 -0.28925077279E+03  0.33929491021E+03  0.16500000000E+03 0.  0.
   -5000001    1    1    2    0    0  0.56241103756E+02  0.32664426903E+02 -0.12535808889E+03  0.21718581212E+03  0.16500000000E+03 0.  0.
<mgrwt>
<rscale>  0 0.37117420E+03</rscale>
<asrwt>0</asrwt>
<pdfrwt beam="1">  1        2 0.74699197E-01 0.37117420E+03</pdfrwt>
<pdfrwt beam="2">  1       -2 0.10913220E-01 0.37117420E+03</pdfrwt>
<totfact> 0.37286497E+03</totfact>
</mgrwt>
</event>
<event>
 4    1  0.3145406E-005  0.4239375E+03  0.7818608E-02  0.1035792E+00
          2   -1    0    0  501    0  0.00000000000E+00  0.00000000000E+00  0.28567832731E+04  0.28567832731E+04  0.25500000000E-02 0.  1.
         -2   -1    0    0    0  501 -0.00000000000E+00 -0.00000000000E+00 -0.15727739368E+02  0.15727739575E+02  0.25500000000E-02 0. -1.
    5000001    1    1    2    0    0 -0.11819478269E+03 -0.51998434230E+02  0.16381877297E+04  0.16515319802E+04  0.16500000000E+03 0.  0.
   -5000001    1    1    2    0    0  0.11819478269E+03  0.51998434230E+02  0.12028678040E+04  0.12209790325E+04  0.16500000000E+03 0.  0.
<mgrwt>
<rscale>  0 0.42393746E+03</rscale>
<asrwt>0</asrwt>
<pdfrwt beam="1">  1        2 0.43950544E+00 0.42393746E+03</pdfrwt>
<pdfrwt beam="2">  1       -2 0.24196505E-02 0.42393746E+03</pdfrwt>
<totfact> 0.14467414E+03</totfact>
</mgrwt>
</event>
<event>
 4    1  0.3145406E-005  0.3943500E+03  0.7818608E-02  0.1045754E+00
         -2   -1    0    0    0  501 -0.00000000000E+00  0.00000000000E+00  0.28679159727E+02  0.28679159841E+02  0.25500000000E-02 0. -1.
          2   -1    0    0  501    0  0.00000000000E+00 -0.00000000000E+00 -0.13556176009E+04  0.13556176009E+04  0.25500000000E-02 0.  1.
    5000001    1    1    2    0    0  0.58603983203E+01 -0.10346999890E+03 -0.76951294529E+03  0.79379818463E+03  0.16500000000E+03 0.  0.
   -5000001    1    1    2    0    0 -0.58603983203E+01  0.10346999890E+03 -0.55742549588E+03  0.59049857612E+03  0.16500000000E+03 0.  0.
<mgrwt>
<rscale>  0 0.39434997E+03</rscale>
<asrwt>0</asrwt>
<pdfrwt beam="1">  1        2 0.20855650E+00 0.39434997E+03</pdfrwt>
<pdfrwt beam="2">  1       -2 0.44121795E-02 0.39434997E+03</pdfrwt>
<totfact> 0.38817520E+03</totfact>
</mgrwt>
</event>
<event>
 4    1  0.3145406E-005  0.5537985E+03  0.7818608E-02  0.1000619E+00
          2   -1    0    0  501    0  0.00000000000E+00  0.00000000000E+00  0.56680162025E+03  0.56680162025E+03  0.25500000000E-02 0.  1.
         -2   -1    0    0    0  501 -0.00000000000E+00 -0.00000000000E+00 -0.13527340343E+03  0.13527340346E+03  0.25500000000E-02 0. -1.
    5000001    1    1    2    0    0 -0.19933499112E+03  0.91744625503E+02  0.26141469741E+03  0.37909650356E+03  0.16500000000E+03 0.  0.
   -5000001    1    1    2    0    0  0.19933499112E+03 -0.91744625503E+02  0.17011351941E+03  0.32297852015E+03  0.16500000000E+03 0.  0.
<mgrwt>
<rscale>  0 0.55379846E+03</rscale>
<asrwt>0</asrwt>
<pdfrwt beam="1">  1        2 0.87200249E-01 0.55379846E+03</pdfrwt>
<pdfrwt beam="2">  1       -2 0.20811293E-01 0.55379846E+03</pdfrwt>
<totfact> 0.10597695E+03</totfact>
</mgrwt>
</event>
<event>
 4    1  0.3145406E-005  0.6842071E+03  0.7818608E-02  0.9744628E-01
         -2   -1    0    0    0  501 -0.00000000000E+00  0.00000000000E+00  0.70680661607E+02  0.70680661653E+02  0.25500000000E-02 0.  1.
          2   -1    0    0  501    0  0.00000000000E+00 -0.00000000000E+00 -0.16558255344E+04  0.16558255344E+04  0.25500000000E-02 0. -1.
    5000001    1    1    2    0    0  0.24658484880E+03  0.14735406878E+03 -0.57708606005E+03  0.66541012161E+03  0.16500000000E+03 0.  0.
   -5000001    1    1    2    0    0 -0.24658484880E+03 -0.14735406878E+03 -0.10080588127E+04  0.10610960744E+04  0.16500000000E+03 0.  0.
<mgrwt>
<rscale>  0 0.68420712E+03</rscale>
<asrwt>0</asrwt>
<pdfrwt beam="1">  1        2 0.25474236E+00 0.68420712E+03</pdfrwt>
<pdfrwt beam="2">  1       -2 0.10873949E-01 0.68420712E+03</pdfrwt>
<totfact> 0.63321007E+02</totfact>
</mgrwt>
</event>
<event>
 4    1  0.3145406E-005  0.4899236E+03  0.7818608E-02  0.1016443E+00
         -2   -1    0    0    0  501 -0.00000000000E+00  0.00000000000E+00  0.46717682412E+03  0.46717682413E+03  0.25500000000E-02 0. -1.
          2   -1    0    0  501    0  0.00000000000E+00 -0.00000000000E+00 -0.12844446754E+03  0.12844446756E+03  0.25500000000E-02 0.  1.
    5000001    1    1    2    0    0  0.55217701644E+02 -0.17218824568E+03  0.18047489910E+03  0.30412822252E+03  0.16500000000E+03 0.  0.
   -5000001    1    1    2    0    0 -0.55217701644E+02  0.17218824568E+03  0.15825745748E+03  0.29149306917E+03  0.16500000000E+03 0.  0.
<mgrwt>
<rscale>  0 0.48992358E+03</rscale>
<asrwt>0</asrwt>
<pdfrwt beam="1">  1        2 0.19760688E-01 0.48992358E+03</pdfrwt>
<pdfrwt beam="2">  1       -2 0.71873357E-01 0.48992358E+03</pdfrwt>
<totfact> 0.50984951E+02</totfact>
</mgrwt>
</event>
<event>
 4    1  0.3145406E-005  0.4256361E+03  0.7818608E-02  0.1035247E+00
         -2   -1    0    0    0  501 -0.00000000000E+00  0.00000000000E+00  0.15460446230E+03  0.15460446232E+03  0.25500000000E-02 0. -1.
          2   -1    0    0  501    0  0.00000000000E+00 -0.00000000000E+00 -0.29295099144E+03  0.29295099146E+03  0.25500000000E-02 0.  1.
    5000001    1    1    2    0    0  0.64086915666E+02  0.11811689983E+03 -0.72109135302E+02  0.22468525136E+03  0.16500000000E+03 0.  0.
   -5000001    1    1    2    0    0 -0.64086915666E+02 -0.11811689983E+03 -0.66237393840E+02  0.22287020242E+03  0.16500000000E+03 0.  0.
<mgrwt>
<rscale>  0 0.42563614E+03</rscale>
<asrwt>0</asrwt>
<pdfrwt beam="1">  1        2 0.45069383E-01 0.42563614E+03</pdfrwt>
<pdfrwt beam="2">  1       -2 0.23785302E-01 0.42563614E+03</pdfrwt>
<totfact> 0.17545520E+03</totfact>
</mgrwt>
</event>
<event>
 4    1  0.3145406E-005  0.4613637E+03  0.7818608E-02  0.1024386E+00
          2   -1    0    0  501    0  0.00000000000E+00  0.00000000000E+00  0.13129782463E+04  0.13129782463E+04  0.25500000000E-02 0.  1.
         -2   -1    0    0    0  501 -0.00000000000E+00 -0.00000000000E+00 -0.40529327015E+02  0.40529327095E+02  0.25500000000E-02 0. -1.
    5000001    1    1    2    0    0  0.29059932352E+02 -0.14864399753E+03  0.79823347301E+03  0.82906042911E+03  0.16500000000E+03 0.  0.
   -5000001    1    1    2    0    0 -0.29059932352E+02  0.14864399753E+03  0.47421544624E+03  0.52444714426E+03  0.16500000000E+03 0.  0.
<mgrwt>
<rscale>  0 0.46136374E+03</rscale>
<asrwt>0</asrwt>
<pdfrwt beam="1">  1        2 0.20199664E+00 0.46136374E+03</pdfrwt>
<pdfrwt beam="2">  1       -2 0.62352815E-02 0.46136374E+03</pdfrwt>
<totfact> 0.24041540E+03</totfact>
</mgrwt>
</event>
<event>
 4    1  0.3145406E-005  0.8097962E+03  0.7818608E-02  0.9545945E-01
          2   -1    0    0  501    0  0.00000000000E+00  0.00000000000E+00  0.14207656868E+04  0.14207656868E+04  0.25500000000E-02 0.  1.
         -2   -1    0    0    0  501 -0.00000000000E+00 -0.00000000000E+00 -0.11539023209E+03  0.11539023212E+03  0.25500000000E-02 0. -1.
    5000001    1    1    2    0    0  0.17363671349E+03 -0.28650204100E+03  0.94951505350E+03  0.10203121898E+04  0.16500000000E+03 0.  0.
   -5000001    1    1    2    0    0 -0.17363671349E+03  0.28650204100E+03  0.35586040124E+03  0.51584372918E+03  0.16500000000E+03 0.  0.
<mgrwt>
<rscale>  0 0.80979623E+03</rscale>
<asrwt>0</asrwt>
<pdfrwt beam="1">  1        2 0.21857934E+00 0.80979623E+03</pdfrwt>
<pdfrwt beam="2">  1       -2 0.17752343E-01 0.80979623E+03</pdfrwt>
<totfact> 0.37279103E+02</totfact>
</mgrwt>
</event>
<event>
 4    1  0.3145406E-005  0.4063650E+03  0.7818608E-02  0.1041598E+00
         -2   -1    0    0    0  501 -0.00000000000E+00  0.00000000000E+00  0.38076630021E+02  0.38076630106E+02  0.25500000000E-02 0. -1.
          2   -1    0    0  501    0  0.00000000000E+00 -0.00000000000E+00 -0.10842116796E+04  0.10842116796E+04  0.25500000000E-02 0.  1.
    5000001    1    1    2    0    0 -0.61473217508E+02  0.92023786985E+02 -0.40554460369E+03  0.45159579208E+03  0.16500000000E+03 0.  0.
   -5000001    1    1    2    0    0  0.61473217508E+02 -0.92023786985E+02 -0.64059044594E+03  0.67069251768E+03  0.16500000000E+03 0.  0.
<mgrwt>
<rscale>  0 0.40636499E+03</rscale>
<asrwt>0</asrwt>
<pdfrwt beam="1">  1        2 0.16680177E+00 0.40636499E+03</pdfrwt>
<pdfrwt beam="2">  1       -2 0.58579439E-02 0.40636499E+03</pdfrwt>
<totfact> 0.35981384E+03</totfact>
</mgrwt>
</event>
<event>
 4    1  0.3145406E-005  0.1132539E+04  0.7818608E-02  0.9174045E-01
         -2   -1    0    0    0  501 -0.00000000000E+00  0.00000000000E+00  0.29881545979E+03  0.29881545980E+03  0.25500000000E-02 0.  1.
          2   -1    0    0  501    0  0.00000000000E+00 -0.00000000000E+00 -0.10731068603E+04  0.10731068603E+04  0.25500000000E-02 0. -1.
    5000001    1    1    2    0    0  0.31049569738E+03 -0.28096812635E+03 -0.80341496192E+03  0.92089699053E+03  0.16500000000E+03 0.  0.
   -5000001    1    1    2    0    0 -0.31049569738E+03  0.28096812635E+03  0.29123561381E+02  0.45102532960E+03  0.16500000000E+03 0.  0.
<mgrwt>
<rscale>  0 0.11325386E+04</rscale>
<asrwt>0</asrwt>
<pdfrwt beam="1">  1        2 0.16509336E+00 0.11325386E+04</pdfrwt>
<pdfrwt beam="2">  1       -2 0.45971610E-01 0.11325386E+04</pdfrwt>
<totfact> 0.10061529E+02</totfact>
</mgrwt>
</event>
<event>
 4    1  0.3145406E-005  0.4603120E+03  0.7818608E-02  0.1024691E+00
          2   -1    0    0  501    0  0.00000000000E+00  0.00000000000E+00  0.33890189862E+03  0.33890189863E+03  0.25500000000E-02 0.  1.
         -2   -1    0    0    0  501 -0.00000000000E+00 -0.00000000000E+00 -0.15630419560E+03  0.15630419562E+03  0.25500000000E-02 0. -1.
    5000001    1    1    2    0    0 -0.81540526583E+02 -0.94778181353E+02  0.19949634515E+03  0.28749878759E+03  0.16500000000E+03 0.  0.
   -5000001    1    1    2    0    0  0.81540526583E+02  0.94778181353E+02 -0.16898642137E+02  0.20770730666E+03  0.16500000000E+03 0.  0.
<mgrwt>
<rscale>  0 0.46031202E+03</rscale>
<asrwt>0</asrwt>
<pdfrwt beam="1">  1        2 0.52138753E-01 0.46031202E+03</pdfrwt>
<pdfrwt beam="2">  1       -2 0.24046800E-01 0.46031202E+03</pdfrwt>
<totfact> 0.14678998E+03</totfact>
</mgrwt>
</event>
<event>
 4    1  0.3145406E-005  0.4759832E+03  0.7818608E-02  0.1020245E+00
          2   -1    0    0  501    0  0.00000000000E+00  0.00000000000E+00  0.10404647126E+04  0.10404647126E+04  0.25500000000E-02 0.  1.
         -2   -1    0    0    0  501 -0.00000000000E+00 -0.00000000000E+00 -0.54437210190E+02  0.54437210249E+02  0.25500000000E-02 0. -1.
    5000001    1    1    2    0    0  0.99293823207E+02 -0.13719833058E+03  0.43076319048E+03  0.49139044711E+03  0.16500000000E+03 0.  0.
   -5000001    1    1    2    0    0 -0.99293823207E+02  0.13719833058E+03  0.55526431191E+03  0.60351147572E+03  0.16500000000E+03 0.  0.
<mgrwt>
<rscale>  0 0.47598318E+03</rscale>
<asrwt>0</asrwt>
<pdfrwt beam="1">  1        2 0.16007149E+00 0.47598318E+03</pdfrwt>
<pdfrwt beam="2">  1       -2 0.83749559E-02 0.47598318E+03</pdfrwt>
<totfact> 0.21831982E+03</totfact>
</mgrwt>
</event>
<event>
 4    1  0.3145406E-005  0.5440462E+03  0.7818608E-02  0.1002881E+00
          2   -1    0    0  501    0  0.00000000000E+00  0.00000000000E+00  0.50773127789E+02  0.50773127853E+02  0.25500000000E-02 0.  1.
         -2   -1    0    0    0  501 -0.00000000000E+00 -0.00000000000E+00 -0.14573964618E+04  0.14573964618E+04  0.25500000000E-02 0. -1.
    5000001    1    1    2    0    0 -0.13293795679E+03  0.15568390714E+03 -0.89659921264E+03  0.93435813659E+03  0.16500000000E+03 0.  0.
   -5000001    1    1    2    0    0  0.13293795679E+03 -0.15568390714E+03 -0.51002412139E+03  0.57381145309E+03  0.16500000000E+03 0.  0.
<mgrwt>
<rscale>  0 0.54404624E+03</rscale>
<asrwt>0</asrwt>
<pdfrwt beam="1">  1        2 0.78112516E-02 0.54404624E+03</pdfrwt>
<pdfrwt beam="2">  1       -2 0.22421481E+00 0.54404624E+03</pdfrwt>
<totfact> 0.87913976E+01</totfact>
</mgrwt>
</event>
<event>
 4    1  0.3145406E-005  0.5741803E+03  0.7818608E-02  0.9960471E-01
         -2   -1    0    0    0  501 -0.00000000000E+00  0.00000000000E+00  0.33492208337E+03  0.33492208338E+03  0.25500000000E-02 0. -1.
          2   -1    0    0  501    0  0.00000000000E+00 -0.00000000000E+00 -0.24608935976E+03  0.24608935978E+03  0.25500000000E-02 0.  1.
    5000001    1    1    2    0    0 -0.27243339960E+02  0.20625557622E+03 -0.66025150791E+02  0.27361996059E+03  0.16500000000E+03 0.  0.
   -5000001    1    1    2    0    0  0.27243339960E+02 -0.20625557622E+03  0.15485787440E+03  0.30739148257E+03  0.16500000000E+03 0.  0.
<mgrwt>
<rscale>  0 0.57418032E+03</rscale>
<asrwt>0</asrwt>
<pdfrwt beam="1">  1        2 0.37859902E-01 0.57418032E+03</pdfrwt>
<pdfrwt beam="2">  1       -2 0.51526474E-01 0.57418032E+03</pdfrwt>
<totfact> 0.49148618E+02</totfact>
</mgrwt>
</event>
<event>
 4    1  0.3145406E-005  0.4312078E+03  0.7818608E-02  0.1033479E+00
         -2   -1    0    0    0  501 -0.00000000000E+00  0.00000000000E+00  0.12526842593E+03  0.12526842596E+03  0.25500000000E-02 0. -1.
          2   -1    0    0  501    0  0.00000000000E+00 -0.00000000000E+00 -0.37108347841E+03  0.37108347842E+03  0.25500000000E-02 0.  1.
    5000001    1    1    2    0    0  0.97072549683E+02 -0.81491081925E+02 -0.57831983014E+02  0.21594771264E+03  0.16500000000E+03 0.  0.
   -5000001    1    1    2    0    0 -0.97072549683E+02  0.81491081925E+02 -0.18798306947E+03  0.28040419173E+03  0.16500000000E+03 0.  0.
<mgrwt>
<rscale>  0 0.43120781E+03</rscale>
<asrwt>0</asrwt>
<pdfrwt beam="1">  1        2 0.57089765E-01 0.43120781E+03</pdfrwt>
<pdfrwt beam="2">  1       -2 0.19272066E-01 0.43120781E+03</pdfrwt>
<totfact> 0.19553327E+03</totfact>
</mgrwt>
</event>
<event>
 4    1  0.3145406E-005  0.5277095E+03  0.7818608E-02  0.1006789E+00
         -2   -1    0    0    0  501 -0.00000000000E+00  0.00000000000E+00  0.19625136899E+03  0.19625136901E+03  0.25500000000E-02 0. -1.
          2   -1    0    0  501    0  0.00000000000E+00 -0.00000000000E+00 -0.35474570569E+03  0.35474570570E+03  0.25500000000E-02 0.  1.
    5000001    1    1    2    0    0 -0.11072019658E+03  0.14656113330E+03  0.17891690541E+02  0.24755653963E+03  0.16500000000E+03 0.  0.
   -5000001    1    1    2    0    0  0.11072019658E+03 -0.14656113330E+03 -0.17638602724E+03  0.30344053508E+03  0.16500000000E+03 0.  0.
<mgrwt>
<rscale>  0 0.52770950E+03</rscale>
<asrwt>0</asrwt>
<pdfrwt beam="1">  1        2 0.54576262E-01 0.52770950E+03</pdfrwt>
<pdfrwt beam="2">  1       -2 0.30192518E-01 0.52770950E+03</pdfrwt>
<totfact> 0.92469859E+02</totfact>
</mgrwt>
</event>
<event>
 4    1  0.3145406E-005  0.5424984E+03  0.7818608E-02  0.1003245E+00
         -2   -1    0    0    0  501 -0.00000000000E+00  0.00000000000E+00  0.51216317036E+02  0.51216317099E+02  0.25500000000E-02 0. -1.
          2   -1    0    0  501    0  0.00000000000E+00 -0.00000000000E+00 -0.14365759566E+04  0.14365759566E+04  0.25500000000E-02 0.  1.
    5000001    1    1    2    0    0  0.37536439500E+01 -0.15273808814E+03 -0.11086712325E+04  0.11312470620E+04  0.16500000000E+03 0.  0.
   -5000001    1    1    2    0    0 -0.37536439500E+01  0.15273808814E+03 -0.27668840705E+03  0.35654521173E+03  0.16500000000E+03 0.  0.
<mgrwt>
<rscale>  0 0.54249840E+03</rscale>
<asrwt>0</asrwt>
<pdfrwt beam="1">  1        2 0.22101166E+00 0.54249840E+03</pdfrwt>
<pdfrwt beam="2">  1       -2 0.78794345E-02 0.54249840E+03</pdfrwt>
<totfact> 0.14151245E+03</totfact>
</mgrwt>
</event>
<event>
 4    1  0.3145406E-005  0.3903016E+03  0.7818608E-02  0.1047191E+00
          2   -1    0    0  501    0  0.00000000000E+00  0.00000000000E+00  0.31159044537E+03  0.31159044538E+03  0.25500000000E-02 0. -1.
         -2   -1    0    0    0  501 -0.00000000000E+00 -0.00000000000E+00 -0.12222403301E+03  0.12222403303E+03  0.25500000000E-02 0.  1.
    5000001    1    1    2    0    0 -0.18468880236E+02 -0.21326714349E+02  0.20618080796E+03  0.26557758537E+03  0.16500000000E+03 0.  0.
   -5000001    1    1    2    0    0  0.18468880236E+02  0.21326714349E+02 -0.16814395589E+02  0.16823689304E+03  0.16500000000E+03 0.  0.
<mgrwt>
<rscale>  0 0.39030163E+03</rscale>
<asrwt>0</asrwt>
<pdfrwt beam="1">  1        2 0.47936990E-01 0.39030163E+03</pdfrwt>
<pdfrwt beam="2">  1       -2 0.18803698E-01 0.39030163E+03</pdfrwt>
<totfact> 0.24667261E+03</totfact>
</mgrwt>
</event>
<event>
 4    1  0.3145406E-005  0.4359984E+03  0.7818608E-02  0.1031982E+00
          2   -1    0    0  501    0  0.00000000000E+00  0.00000000000E+00  0.12059738432E+04  0.12059738432E+04  0.25500000000E-02 0.  1.
         -2   -1    0    0    0  501 -0.00000000000E+00 -0.00000000000E+00 -0.39406871569E+02  0.39406871652E+02  0.25500000000E-02 0. -1.
    5000001    1    1    2    0    0 -0.35176280334E+02 -0.99686891918E+02  0.85612177424E+03  0.87826211318E+03  0.16500000000E+03 0.  0.
   -5000001    1    1    2    0    0  0.35176280334E+02  0.99686891918E+02  0.31044519744E+03  0.36711860172E+03  0.16500000000E+03 0.  0.
<mgrwt>
<rscale>  0 0.43599842E+03</rscale>
<asrwt>0</asrwt>
<pdfrwt beam="1">  1        2 0.18553441E+00 0.43599842E+03</pdfrwt>
<pdfrwt beam="2">  1       -2 0.60625965E-02 0.43599842E+03</pdfrwt>
<totfact> 0.28920892E+03</totfact>
</mgrwt>
</event>
<event>
 4    1  0.3145406E-005  0.5581665E+03  0.7818608E-02  0.9996212E-01
          2   -1    0    0  501    0  0.00000000000E+00  0.00000000000E+00  0.17711640271E+04  0.17711640271E+04  0.25500000000E-02 0.  1.
         -2   -1    0    0    0  501 -0.00000000000E+00 -0.00000000000E+00 -0.43975299317E+02  0.43975299391E+02  0.25500000000E-02 0. -1.
    5000001    1    1    2    0    0 -0.19997325887E+03  0.82808743360E+02  0.10644774201E+04  0.10987191498E+04  0.16500000000E+03 0.  0.
   -5000001    1    1    2    0    0  0.19997325887E+03 -0.82808743360E+02  0.66271130768E+03  0.71642017669E+03  0.16500000000E+03 0.  0.
<mgrwt>
<rscale>  0 0.55816653E+03</rscale>
<asrwt>0</asrwt>
<pdfrwt beam="1">  1        2 0.27248676E+00 0.55816653E+03</pdfrwt>
<pdfrwt beam="2">  1       -2 0.67654310E-02 0.55816653E+03</pdfrwt>
<totfact> 0.11818835E+03</totfact>
</mgrwt>
</event>
<event>
 4    1  0.3145406E-005  0.7569268E+03  0.7818608E-02  0.9624546E-01
          2   -1    0    0  501    0  0.00000000000E+00  0.00000000000E+00  0.19618757585E+04  0.19618757585E+04  0.25500000000E-02 0. -1.
         -2   -1    0    0    0  501 -0.00000000000E+00 -0.00000000000E+00 -0.73008968940E+02  0.73008968984E+02  0.25500000000E-02 0.  1.
    5000001    1    1    2    0    0 -0.25445385689E+03  0.18201003601E+03  0.58240216959E+03  0.68138954031E+03  0.16500000000E+03 0.  0.
   -5000001    1    1    2    0    0  0.25445385689E+03 -0.18201003601E+03  0.13064646200E+04  0.13534951872E+04  0.16500000000E+03 0.  0.
<mgrwt>
<rscale>  0 0.75692675E+03</rscale>
<asrwt>0</asrwt>
<pdfrwt beam="1">  1        2 0.30182708E+00 0.75692675E+03</pdfrwt>
<pdfrwt beam="2">  1       -2 0.11232148E-01 0.75692675E+03</pdfrwt>
<totfact> 0.40698181E+02</totfact>
</mgrwt>
</event>
<event>
 4    1  0.3145406E-005  0.5320837E+03  0.7818608E-02  0.1005728E+00
          2   -1    0    0  501    0  0.00000000000E+00  0.00000000000E+00  0.27757488146E+03  0.27757488147E+03  0.25500000000E-02 0.  1.
         -2   -1    0    0    0  501 -0.00000000000E+00 -0.00000000000E+00 -0.25498796030E+03  0.25498796031E+03  0.25500000000E-02 0. -1.
    5000001    1    1    2    0    0  0.35998560790E+01  0.20343111773E+03 -0.35181903600E+02  0.26431031945E+03  0.16500000000E+03 0.  0.
   -5000001    1    1    2    0    0 -0.35998560790E+01 -0.20343111773E+03  0.57768824765E+02  0.26825252234E+03  0.16500000000E+03 0.  0.
<mgrwt>
<rscale>  0 0.53208365E+03</rscale>
<asrwt>0</asrwt>
<pdfrwt beam="1">  1        2 0.42703828E-01 0.53208365E+03</pdfrwt>
<pdfrwt beam="2">  1       -2 0.39228917E-01 0.53208365E+03</pdfrwt>
<totfact> 0.73933290E+02</totfact>
</mgrwt>
</event>
<event>
 4    1  0.3145406E-005  0.5088912E+03  0.7818608E-02  0.1011484E+00
         -2   -1    0    0    0  501 -0.00000000000E+00  0.00000000000E+00  0.86174913288E+02  0.86174913326E+02  0.25500000000E-02 0. -1.
          2   -1    0    0  501    0  0.00000000000E+00 -0.00000000000E+00 -0.75129253741E+03  0.75129253741E+03  0.25500000000E-02 0.  1.
    5000001    1    1    2    0    0 -0.18270427609E+03 -0.17670643728E+02 -0.43433081662E+03  0.49956116984E+03  0.16500000000E+03 0.  0.
   -5000001    1    1    2    0    0  0.18270427609E+03  0.17670643728E+02 -0.23078680750E+03  0.33790628089E+03  0.16500000000E+03 0.  0.
<mgrwt>
<rscale>  0 0.50889122E+03</rscale>
<asrwt>0</asrwt>
<pdfrwt beam="1">  1        2 0.11558346E+00 0.50889122E+03</pdfrwt>
<pdfrwt beam="2">  1       -2 0.13257679E-01 0.50889122E+03</pdfrwt>
<totfact> 0.16168469E+03</totfact>
</mgrwt>
</event>
<event>
 4    1  0.3145406E-005  0.4131570E+03  0.7818608E-02  0.1039317E+00
          2   -1    0    0  501    0  0.00000000000E+00  0.00000000000E+00  0.26627060292E+03  0.26627060293E+03  0.25500000000E-02 0.  1.
         -2   -1    0    0    0  501 -0.00000000000E+00 -0.00000000000E+00 -0.16026803937E+03  0.16026803939E+03  0.25500000000E-02 0. -1.
    5000001    1    1    2    0    0 -0.11343280761E+03 -0.39292982708E+02  0.19728121301E+02  0.20500033927E+03  0.16500000000E+03 0.  0.
   -5000001    1    1    2    0    0  0.11343280761E+03  0.39292982708E+02  0.86274442244E+02  0.22153830305E+03  0.16500000000E+03 0.  0.
<mgrwt>
<rscale>  0 0.41315696E+03</rscale>
<asrwt>0</asrwt>
<pdfrwt beam="1">  1        2 0.40964708E-01 0.41315696E+03</pdfrwt>
<pdfrwt beam="2">  1       -2 0.24656622E-01 0.41315696E+03</pdfrwt>
<totfact> 0.18265220E+03</totfact>
</mgrwt>
</event>
<event>
 4    1  0.3145406E-005  0.9547401E+03  0.7818608E-02  0.9359627E-01
         -2   -1    0    0    0  501 -0.00000000000E+00  0.00000000000E+00  0.17342048295E+03  0.17342048297E+03  0.25500000000E-02 0. -1.
          2   -1    0    0  501    0  0.00000000000E+00 -0.00000000000E+00 -0.13140442389E+04  0.13140442389E+04  0.25500000000E-02 0.  1.
    5000001    1    1    2    0    0 -0.14988019686E+03  0.41070969497E+03 -0.41837373686E+03  0.62722253678E+03  0.16500000000E+03 0.  0.
   -5000001    1    1    2    0    0  0.14988019686E+03 -0.41070969497E+03 -0.72225001913E+03  0.86024218513E+03  0.16500000000E+03 0.  0.
<mgrwt>
<rscale>  0 0.95474015E+03</rscale>
<asrwt>0</asrwt>
<pdfrwt beam="1">  1        2 0.20216065E+00 0.95474015E+03</pdfrwt>
<pdfrwt beam="2">  1       -2 0.26680075E-01 0.95474015E+03</pdfrwt>
<totfact> 0.20649949E+02</totfact>
</mgrwt>
</event>
<event>
 4    1  0.3145406E-005  0.5354569E+03  0.7818608E-02  0.1004917E+00
          2   -1    0    0  501    0  0.00000000000E+00  0.00000000000E+00  0.11019701909E+04  0.11019701909E+04  0.25500000000E-02 0. -1.
         -2   -1    0    0    0  501 -0.00000000000E+00 -0.00000000000E+00 -0.65045779257E+02  0.65045779307E+02  0.25500000000E-02 0.  1.
    5000001    1    1    2    0    0 -0.15193554128E+03  0.14132430929E+03  0.43701445033E+03  0.51113951021E+03  0.16500000000E+03 0.  0.
   -5000001    1    1    2    0    0  0.15193554128E+03 -0.14132430929E+03  0.59990996132E+03  0.65587646000E+03  0.16500000000E+03 0.  0.
<mgrwt>
<rscale>  0 0.53545685E+03</rscale>
<asrwt>0</asrwt>
<pdfrwt beam="1">  1        2 0.16953387E+00 0.53545685E+03</pdfrwt>
<pdfrwt beam="2">  1       -2 0.10007044E-01 0.53545685E+03</pdfrwt>
<totfact> 0.15036719E+03</totfact>
</mgrwt>
</event>
<event>
 4    1  0.3145406E-005  0.4677325E+03  0.7818608E-02  0.1022562E+00
         -2   -1    0    0    0  501 -0.00000000000E+00  0.00000000000E+00  0.29622555923E+03  0.29622555924E+03  0.25500000000E-02 0. -1.
          2   -1    0    0  501    0  0.00000000000E+00 -0.00000000000E+00 -0.18463438086E+03  0.18463438088E+03  0.25500000000E-02 0.  1.
    5000001    1    1    2    0    0 -0.15101545958E+03  0.13345872305E+02  0.12464257188E+03  0.25640700471E+03  0.16500000000E+03 0.  0.
   -5000001    1    1    2    0    0  0.15101545958E+03 -0.13345872305E+02 -0.13051393508E+02  0.22445293541E+03  0.16500000000E+03 0.  0.
<mgrwt>
<rscale>  0 0.46773250E+03</rscale>
<asrwt>0</asrwt>
<pdfrwt beam="1">  1        2 0.28405290E-01 0.46773250E+03</pdfrwt>
<pdfrwt beam="2">  1       -2 0.45573163E-01 0.46773250E+03</pdfrwt>
<totfact> 0.86696363E+02</totfact>
</mgrwt>
</event>
<event>
 4    1  0.3145406E-005  0.7974856E+03  0.7818608E-02  0.9563664E-01
         -2   -1    0    0    0  501 -0.00000000000E+00  0.00000000000E+00  0.77538071371E+02  0.77538071413E+02  0.25500000000E-02 0. -1.
          2   -1    0    0  501    0  0.00000000000E+00 -0.00000000000E+00 -0.20505517465E+04  0.20505517465E+04  0.25500000000E-02 0.  1.
    5000001    1    1    2    0    0 -0.78995349995E+02 -0.31924666038E+03 -0.57645883801E+03  0.68387753831E+03  0.16500000000E+03 0.  0.
   -5000001    1    1    2    0    0  0.78995349995E+02  0.31924666038E+03 -0.13965548371E+04  0.14442122796E+04  0.16500000000E+03 0.  0.
<mgrwt>
<rscale>  0 0.79748562E+03</rscale>
<asrwt>0</asrwt>
<pdfrwt beam="1">  1        2 0.31546946E+00 0.79748562E+03</pdfrwt>
<pdfrwt beam="2">  1       -2 0.11928936E-01 0.79748562E+03</pdfrwt>
<totfact> 0.32862861E+02</totfact>
</mgrwt>
</event>
<event>
 4    1  0.3145406E-005  0.4778672E+03  0.7818608E-02  0.1019723E+00
          2   -1    0    0  501    0  0.00000000000E+00  0.00000000000E+00  0.43317457979E+03  0.43317457980E+03  0.25500000000E-02 0.  1.
         -2   -1    0    0    0  501 -0.00000000000E+00 -0.00000000000E+00 -0.13179273461E+03  0.13179273464E+03  0.25500000000E-02 0. -1.
    5000001    1    1    2    0    0 -0.15953979837E+03  0.57185614790E+01  0.22892291731E+03  0.32421651914E+03  0.16500000000E+03 0.  0.
   -5000001    1    1    2    0    0  0.15953979837E+03 -0.57185614790E+01  0.72458927861E+02  0.24075079530E+03  0.16500000000E+03 0.  0.
<mgrwt>
<rscale>  0 0.47786719E+03</rscale>
<asrwt>0</asrwt>
<pdfrwt beam="1">  1        2 0.66642242E-01 0.47786719E+03</pdfrwt>
<pdfrwt beam="2">  1       -2 0.20275806E-01 0.47786719E+03</pdfrwt>
<totfact> 0.15096434E+03</totfact>
</mgrwt>
</event>
<event>
 4    1  0.3145406E-005  0.6421682E+03  0.7818608E-02  0.9821587E-01
          2   -1    0    0  501    0  0.00000000000E+00  0.00000000000E+00  0.17788558069E+04  0.17788558069E+04  0.25500000000E-02 0.  1.
         -2   -1    0    0    0  501 -0.00000000000E+00 -0.00000000000E+00 -0.57955787929E+02  0.57955787985E+02  0.25500000000E-02 0. -1.
    5000001    1    1    2    0    0  0.17631206799E+03 -0.13273124346E+03  0.13318964645E+04  0.13601017317E+04  0.16500000000E+03 0.  0.
   -5000001    1    1    2    0    0 -0.17631206799E+03  0.13273124346E+03  0.38900355446E+03  0.47670986322E+03  0.16500000000E+03 0.  0.
<mgrwt>
<rscale>  0 0.64216817E+03</rscale>
<asrwt>0</asrwt>
<pdfrwt beam="1">  1        2 0.27367011E+00 0.64216817E+03</pdfrwt>
<pdfrwt beam="2">  1       -2 0.89162757E-02 0.64216817E+03</pdfrwt>
<totfact> 0.75080131E+02</totfact>
</mgrwt>
</event>
<event>
 4    1  0.3145406E-005  0.5493909E+03  0.7818608E-02  0.1001635E+00
          2   -1    0    0  501    0  0.00000000000E+00  0.00000000000E+00  0.36034809177E+04  0.36034809177E+04  0.25500000000E-02 0.  1.
         -2   -1    0    0    0  501 -0.00000000000E+00 -0.00000000000E+00 -0.20940195965E+02  0.20940196120E+02  0.25500000000E-02 0. -1.
    5000001    1    1    2    0    0  0.77358091045E+02 -0.20550268350E+03  0.18184468913E+04  0.18390730610E+04  0.16500000000E+03 0.  0.
   -5000001    1    1    2    0    0 -0.77358091045E+02  0.20550268350E+03  0.17640938305E+04  0.17853480529E+04  0.16500000000E+03 0.  0.
<mgrwt>
<rscale>  0 0.54939092E+03</rscale>
<asrwt>0</asrwt>
<pdfrwt beam="1">  1        2 0.55438115E+00 0.54939092E+03</pdfrwt>
<pdfrwt beam="2">  1       -2 0.32215717E-02 0.54939092E+03</pdfrwt>
<totfact> 0.31002331E+02</totfact>
</mgrwt>
</event>
<event>
 4    1  0.3145406E-005  0.7482725E+03  0.7818608E-02  0.9638064E-01
         -2   -1    0    0    0  501 -0.00000000000E+00  0.00000000000E+00  0.68814778132E+02  0.68814778179E+02  0.25500000000E-02 0. -1.
          2   -1    0    0  501    0  0.00000000000E+00 -0.00000000000E+00 -0.20341258198E+04  0.20341258198E+04  0.25500000000E-02 0.  1.
    5000001    1    1    2    0    0  0.83513279859E+02  0.23364443016E+03 -0.16185051481E+04  0.16457059585E+04  0.16500000000E+03 0.  0.
   -5000001    1    1    2    0    0 -0.83513279859E+02 -0.23364443016E+03 -0.34680589356E+03  0.45723463939E+03  0.16500000000E+03 0.  0.
<mgrwt>
<rscale>  0 0.74827246E+03</rscale>
<asrwt>0</asrwt>
<pdfrwt beam="1">  1        2 0.31294239E+00 0.74827246E+03</pdfrwt>
<pdfrwt beam="2">  1       -2 0.10586890E-01 0.74827246E+03</pdfrwt>
<totfact> 0.40978265E+02</totfact>
</mgrwt>
</event>
<event>
 4    1  0.3145406E-005  0.3478153E+03  0.7818608E-02  0.1063515E+00
         -2   -1    0    0    0  501 -0.00000000000E+00  0.00000000000E+00  0.17757723655E+02  0.17757723838E+02  0.25500000000E-02 0. -1.
          2   -1    0    0  501    0  0.00000000000E+00 -0.00000000000E+00 -0.17031393699E+04  0.17031393699E+04  0.25500000000E-02 0.  1.
    5000001    1    1    2    0    0 -0.26163165108E+02 -0.47238606504E+02 -0.89287587180E+03  0.90959788896E+03  0.16500000000E+03 0.  0.
   -5000001    1    1    2    0    0  0.26163165108E+02  0.47238606504E+02 -0.79250577447E+03  0.81129920481E+03  0.16500000000E+03 0.  0.
<mgrwt>
<rscale>  0 0.34781534E+03</rscale>
<asrwt>0</asrwt>
<pdfrwt beam="1">  1        2 0.26202131E+00 0.34781534E+03</pdfrwt>
<pdfrwt beam="2">  1       -2 0.27319589E-02 0.34781534E+03</pdfrwt>
<totfact> 0.51894166E+03</totfact>
</mgrwt>
</event>
<event>
 4    1  0.3145406E-005  0.4699394E+03  0.7818608E-02  0.1021937E+00
          2   -1    0    0  501    0  0.00000000000E+00  0.00000000000E+00  0.16536942903E+04  0.16536942903E+04  0.25500000000E-02 0.  1.
         -2   -1    0    0    0  501 -0.00000000000E+00 -0.00000000000E+00 -0.33386313822E+02  0.33386313920E+02  0.25500000000E-02 0. -1.
    5000001    1    1    2    0    0  0.13145801304E+03 -0.71450015226E+02  0.54151663983E+03  0.58553529789E+03  0.16500000000E+03 0.  0.
   -5000001    1    1    2    0    0 -0.13145801304E+03  0.71450015226E+02  0.10787913367E+04  0.11015453064E+04  0.16500000000E+03 0.  0.
<mgrwt>
<rscale>  0 0.46993939E+03</rscale>
<asrwt>0</asrwt>
<pdfrwt beam="1">  1        2 0.25441444E+00 0.46993939E+03</pdfrwt>
<pdfrwt beam="2">  1       -2 0.51363573E-02 0.46993939E+03</pdfrwt>
<totfact> 0.21100084E+03</totfact>
</mgrwt>
</event>
<event>
 4    1  0.3145406E-005  0.3746713E+03  0.7818608E-02  0.1052921E+00
         -2   -1    0    0    0  501 -0.00000000000E+00  0.00000000000E+00  0.48214115845E+02  0.48214115912E+02  0.25500000000E-02 0. -1.
          2   -1    0    0  501    0  0.00000000000E+00 -0.00000000000E+00 -0.72789134289E+03  0.72789134290E+03  0.25500000000E-02 0.  1.
    5000001    1    1    2    0    0 -0.13148283434E+02 -0.72943106202E+02 -0.23886698074E+03  0.29962644841E+03  0.16500000000E+03 0.  0.
   -5000001    1    1    2    0    0  0.13148283434E+02  0.72943106202E+02 -0.44081024631E+03  0.47647901040E+03  0.16500000000E+03 0.  0.
<mgrwt>
<rscale>  0 0.37467126E+03</rscale>
<asrwt>0</asrwt>
<pdfrwt beam="1">  1        2 0.11198328E+00 0.37467126E+03</pdfrwt>
<pdfrwt beam="2">  1       -2 0.74175568E-02 0.37467126E+03</pdfrwt>
<totfact> 0.42762631E+03</totfact>
</mgrwt>
</event>
<event>
 4    1  0.3145406E-005  0.3998550E+03  0.7818608E-02  0.1043830E+00
          2   -1    0    0  501    0  0.00000000000E+00  0.00000000000E+00  0.90548568161E+03  0.90548568161E+03  0.25500000000E-02 0.  1.
         -2   -1    0    0    0  501 -0.00000000000E+00 -0.00000000000E+00 -0.44143155643E+02  0.44143155716E+02  0.25500000000E-02 0. -1.
    5000001    1    1    2    0    0  0.72248953399E+02 -0.86572260178E+02  0.41737844236E+03  0.46275742204E+03  0.16500000000E+03 0.  0.
   -5000001    1    1    2    0    0 -0.72248953399E+02  0.86572260178E+02  0.44396408360E+03  0.48687141529E+03  0.16500000000E+03 0.  0.
<mgrwt>
<rscale>  0 0.39985495E+03</rscale>
<asrwt>0</asrwt>
<pdfrwt beam="1">  1        2 0.13930549E+00 0.39985495E+03</pdfrwt>
<pdfrwt beam="2">  1       -2 0.67912547E-02 0.39985495E+03</pdfrwt>
<totfact> 0.36980148E+03</totfact>
</mgrwt>
</event>
<event>
 4    1  0.3145406E-005  0.6530273E+03  0.7818608E-02  0.9801115E-01
         -2   -1    0    0    0  501 -0.00000000000E+00  0.00000000000E+00  0.23155808767E+03  0.23155808769E+03  0.25500000000E-02 0. -1.
          2   -1    0    0  501    0  0.00000000000E+00 -0.00000000000E+00 -0.46040784847E+03  0.46040784848E+03  0.25500000000E-02 0.  1.
    5000001    1    1    2    0    0  0.18258643817E+03 -0.20477459986E+03 -0.46445668493E+02  0.32350060938E+03  0.16500000000E+03 0.  0.
   -5000001    1    1    2    0    0 -0.18258643817E+03  0.20477459986E+03 -0.18240409231E+03  0.36846532678E+03  0.16500000000E+03 0.  0.
<mgrwt>
<rscale>  0 0.65302729E+03</rscale>
<asrwt>0</asrwt>
<pdfrwt beam="1">  1        2 0.70831976E-01 0.65302729E+03</pdfrwt>
<pdfrwt beam="2">  1       -2 0.35624321E-01 0.65302729E+03</pdfrwt>
<totfact> 0.50535226E+02</totfact>
</mgrwt>
</event>
<event>
 4    1  0.3145406E-005  0.4203492E+03  0.7818608E-02  0.1036953E+00
          2   -1    0    0  501    0  0.00000000000E+00  0.00000000000E+00  0.30015609400E+02  0.30015609508E+02  0.25500000000E-02 0.  1.
         -2   -1    0    0    0  501 -0.00000000000E+00 -0.00000000000E+00 -0.14716798741E+04  0.14716798741E+04  0.25500000000E-02 0. -1.
    5000001    1    1    2    0    0  0.36164045504E+02 -0.66170301167E+02 -0.34170942700E+03  0.38688070441E+03  0.16500000000E+03 0.  0.
   -5000001    1    1    2    0    0 -0.36164045504E+02  0.66170301167E+02 -0.10999548377E+04  0.11148147792E+04  0.16500000000E+03 0.  0.
<mgrwt>
<rscale>  0 0.42034923E+03</rscale>
<asrwt>0</asrwt>
<pdfrwt beam="1">  1        2 0.46177872E-02 0.42034923E+03</pdfrwt>
<pdfrwt beam="2">  1       -2 0.22641223E+00 0.42034923E+03</pdfrwt>
<totfact> 0.17224136E+02</totfact>
</mgrwt>
</event>
<event>
 4    1  0.3145406E-005  0.1078674E+04  0.7818608E-02  0.9226231E-01
          2   -1    0    0  501    0  0.00000000000E+00  0.00000000000E+00  0.13973250453E+03  0.13973250455E+03  0.25500000000E-02 0.  1.
         -2   -1    0    0    0  501 -0.00000000000E+00 -0.00000000000E+00 -0.20817218354E+04  0.20817218354E+04  0.25500000000E-02 0. -1.
    5000001    1    1    2    0    0 -0.79605291347E+02  0.49948437592E+03 -0.11533161336E+04  0.12701121006E+04  0.16500000000E+03 0.  0.
   -5000001    1    1    2    0    0  0.79605291347E+02 -0.49948437592E+03 -0.78867319732E+03  0.95134223935E+03  0.16500000000E+03 0.  0.
<mgrwt>
<rscale>  0 0.10786736E+04</rscale>
<asrwt>0</asrwt>
<pdfrwt beam="1">  1        2 0.21497310E-01 0.10786736E+04</pdfrwt>
<pdfrwt beam="2">  1       -2 0.32026488E+00 0.10786736E+04</pdfrwt>
<totfact> 0.62934689E+00</totfact>
</mgrwt>
</event>
<event>
 4    1  0.3145406E-005  0.6323594E+03  0.7818608E-02  0.9840455E-01
          2   -1    0    0  501    0  0.00000000000E+00  0.00000000000E+00  0.19802642834E+03  0.19802642836E+03  0.25500000000E-02 0.  1.
         -2   -1    0    0    0  501 -0.00000000000E+00 -0.00000000000E+00 -0.50482961332E+03  0.50482961332E+03  0.25500000000E-02 0. -1.
    5000001    1    1    2    0    0 -0.22967025807E+03  0.78446016310E+02 -0.22631599416E+02  0.29434570527E+03  0.16500000000E+03 0.  0.
   -5000001    1    1    2    0    0  0.22967025807E+03 -0.78446016310E+02 -0.28417158556E+03  0.40851033641E+03  0.16500000000E+03 0.  0.
<mgrwt>
<rscale>  0 0.63235941E+03</rscale>
<asrwt>0</asrwt>
<pdfrwt beam="1">  1        2 0.30465605E-01 0.63235941E+03</pdfrwt>
<pdfrwt beam="2">  1       -2 0.77666094E-01 0.63235941E+03</pdfrwt>
<totfact> 0.26113781E+02</totfact>
</mgrwt>
</event>
<event>
 4    1  0.3145406E-005  0.6496583E+03  0.7818608E-02  0.9807421E-01
          2   -1    0    0  501    0  0.00000000000E+00  0.00000000000E+00  0.89828868889E+03  0.89828868890E+03  0.25500000000E-02 0.  1.
         -2   -1    0    0    0  501 -0.00000000000E+00 -0.00000000000E+00 -0.11746110764E+03  0.11746110767E+03  0.25500000000E-02 0. -1.
    5000001    1    1    2    0    0 -0.19814143950E+03  0.12740641725E+03  0.15434618911E+03  0.32640491923E+03  0.16500000000E+03 0.  0.
   -5000001    1    1    2    0    0  0.19814143950E+03 -0.12740641725E+03  0.62648139215E+03  0.68934487734E+03  0.16500000000E+03 0.  0.
<mgrwt>
<rscale>  0 0.64965832E+03</rscale>
<asrwt>0</asrwt>
<pdfrwt beam="1">  1        2 0.13819826E+00 0.64965832E+03</pdfrwt>
<pdfrwt beam="2">  1       -2 0.18070940E-01 0.64965832E+03</pdfrwt>
<totfact> 0.75371404E+02</totfact>
</mgrwt>
</event>
<event>
 4    1  0.3145406E-005  0.4643127E+03  0.7818608E-02  0.1023538E+00
          2   -1    0    0  501    0  0.00000000000E+00  0.00000000000E+00  0.41212192801E+02  0.41212192880E+02  0.25500000000E-02 0.  1.
         -2   -1    0    0    0  501 -0.00000000000E+00 -0.00000000000E+00 -0.13077820124E+04  0.13077820124E+04  0.25500000000E-02 0. -1.
    5000001    1    1    2    0    0 -0.94302405684E+02 -0.59951381229E+02 -0.97930860371E+03  0.99937853345E+03  0.16500000000E+03 0.  0.
   -5000001    1    1    2    0    0  0.94302405684E+02  0.59951381229E+02 -0.28726121585E+03  0.34961567179E+03  0.16500000000E+03 0.  0.
<mgrwt>
<rscale>  0 0.46431267E+03</rscale>
<asrwt>0</asrwt>
<pdfrwt beam="1">  1        2 0.63403384E-02 0.46431267E+03</pdfrwt>
<pdfrwt beam="2">  1       -2 0.20119720E+00 0.46431267E+03</pdfrwt>
<totfact> 0.16181060E+02</totfact>
</mgrwt>
</event>
<event>
 4    1  0.3145406E-005  0.4402621E+03  0.7818608E-02  0.1030666E+00
          2   -1    0    0  501    0  0.00000000000E+00  0.00000000000E+00  0.56818794543E+03  0.56818794544E+03  0.25500000000E-02 0.  1.
         -2   -1    0    0    0  501 -0.00000000000E+00 -0.00000000000E+00 -0.85284599945E+02  0.85284599984E+02  0.25500000000E-02 0. -1.
    5000001    1    1    2    0    0 -0.96697609078E+02 -0.10688251132E+03  0.20967340688E+03  0.30325275989E+03  0.16500000000E+03 0.  0.
   -5000001    1    1    2    0    0  0.96697609078E+02  0.10688251132E+03  0.27322993860E+03  0.35021978553E+03  0.16500000000E+03 0.  0.
<mgrwt>
<rscale>  0 0.44026211E+03</rscale>
<asrwt>0</asrwt>
<pdfrwt beam="1">  1        2 0.87413530E-01 0.44026211E+03</pdfrwt>
<pdfrwt beam="2">  1       -2 0.13120708E-01 0.44026211E+03</pdfrwt>
<totfact> 0.23105466E+03</totfact>
</mgrwt>
</event>
<event>
 4    1  0.3145406E-005  0.4641029E+03  0.7818608E-02  0.1023598E+00
          2   -1    0    0  501    0  0.00000000000E+00  0.00000000000E+00  0.69045250764E+03  0.69045250764E+03  0.25500000000E-02 0.  1.
         -2   -1    0    0    0  501 -0.00000000000E+00 -0.00000000000E+00 -0.77989239606E+02  0.77989239648E+02  0.25500000000E-02 0. -1.
    5000001    1    1    2    0    0 -0.15861226454E+03  0.35564993305E+02  0.28280709260E+03  0.36555105093E+03  0.16500000000E+03 0.  0.
   -5000001    1    1    2    0    0  0.15861226454E+03 -0.35564993305E+02  0.32965617544E+03  0.40289069636E+03  0.16500000000E+03 0.  0.
<mgrwt>
<rscale>  0 0.46410286E+03</rscale>
<asrwt>0</asrwt>
<pdfrwt beam="1">  1        2 0.10622346E+00 0.46410286E+03</pdfrwt>
<pdfrwt beam="2">  1       -2 0.11998345E-01 0.46410286E+03</pdfrwt>
<totfact> 0.21186709E+03</totfact>
</mgrwt>
</event>
<event>
 4    1  0.3145406E-005  0.3554959E+03  0.7818608E-02  0.1060382E+00
         -2   -1    0    0    0  501 -0.00000000000E+00  0.00000000000E+00  0.18610974206E+04  0.18610974206E+04  0.25500000000E-02 0. -1.
          2   -1    0    0  501    0  0.00000000000E+00 -0.00000000000E+00 -0.16976185162E+02  0.16976185354E+02  0.25500000000E-02 0.  1.
    5000001    1    1    2    0    0 -0.31640879012E+02 -0.54293698546E+02  0.81374254439E+03  0.83267693584E+03  0.16500000000E+03 0.  0.
   -5000001    1    1    2    0    0  0.31640879012E+02  0.54293698546E+02  0.10303786910E+04  0.10453966701E+04  0.16500000000E+03 0.  0.
<mgrwt>
<rscale>  0 0.35549590E+03</rscale>
<asrwt>0</asrwt>
<pdfrwt beam="1">  1        2 0.26117219E-02 0.35549590E+03</pdfrwt>
<pdfrwt beam="2">  1       -2 0.28632256E+00 0.35549590E+03</pdfrwt>
<totfact> 0.16584861E+02</totfact>
</mgrwt>
</event>
<event>
 4    1  0.3145406E-005  0.5187009E+03  0.7818608E-02  0.1009010E+00
         -2   -1    0    0    0  501 -0.00000000000E+00  0.00000000000E+00  0.24939425238E+03  0.24939425239E+03  0.25500000000E-02 0. -1.
          2   -1    0    0  501    0  0.00000000000E+00 -0.00000000000E+00 -0.26970411383E+03  0.26970411384E+03  0.25500000000E-02 0.  1.
    5000001    1    1    2    0    0 -0.93349433414E+02 -0.11816956356E+03  0.12170146004E+03  0.25439026681E+03  0.16500000000E+03 0.  0.
   -5000001    1    1    2    0    0  0.93349433414E+02  0.11816956356E+03 -0.14201132149E+03  0.26470809943E+03  0.16500000000E+03 0.  0.
<mgrwt>
<rscale>  0 0.51870090E+03</rscale>
<asrwt>0</asrwt>
<pdfrwt beam="1">  1        2 0.41492940E-01 0.51870090E+03</pdfrwt>
<pdfrwt beam="2">  1       -2 0.38368347E-01 0.51870090E+03</pdfrwt>
<totfact> 0.79650137E+02</totfact>
</mgrwt>
</event>
<event>
 4    1  0.3145406E-005  0.6249917E+03  0.7818608E-02  0.9854871E-01
         -2   -1    0    0    0  501 -0.00000000000E+00  0.00000000000E+00  0.34910706771E+03  0.34910706772E+03  0.25500000000E-02 0. -1.
          2   -1    0    0  501    0  0.00000000000E+00 -0.00000000000E+00 -0.27972411868E+03  0.27972411869E+03  0.25500000000E-02 0.  1.
    5000001    1    1    2    0    0  0.84679705046E+02 -0.24927158657E+03  0.99407977574E+00  0.31069754507E+03  0.16500000000E+03 0.  0.
   -5000001    1    1    2    0    0 -0.84679705046E+02  0.24927158657E+03  0.68388869258E+02  0.31813364135E+03  0.16500000000E+03 0.  0.
<mgrwt>
<rscale>  0 0.62499173E+03</rscale>
<asrwt>0</asrwt>
<pdfrwt beam="1">  1        2 0.43034480E-01 0.62499173E+03</pdfrwt>
<pdfrwt beam="2">  1       -2 0.53708779E-01 0.62499173E+03</pdfrwt>
<totfact> 0.39140119E+02</totfact>
</mgrwt>
</event>
<event>
 4    1  0.3145406E-005  0.5347988E+03  0.7818608E-02  0.1005075E+00
          2   -1    0    0  501    0  0.00000000000E+00  0.00000000000E+00  0.92487084362E+03  0.92487084362E+03  0.25500000000E-02 0.  1.
         -2   -1    0    0    0  501 -0.00000000000E+00 -0.00000000000E+00 -0.77310737618E+02  0.77310737660E+02  0.25500000000E-02 0. -1.
    5000001    1    1    2    0    0  0.79710468725E+02  0.11174240433E+03  0.72265648775E+03  0.75385510746E+03  0.16500000000E+03 0.  0.
   -5000001    1    1    2    0    0 -0.79710468725E+02 -0.11174240433E+03  0.12490361825E+03  0.24832647382E+03  0.16500000000E+03 0.  0.
<mgrwt>
<rscale>  0 0.53479883E+03</rscale>
<asrwt>0</asrwt>
<pdfrwt beam="1">  1        2 0.14228782E+00 0.53479883E+03</pdfrwt>
<pdfrwt beam="2">  1       -2 0.11893960E-01 0.53479883E+03</pdfrwt>
<totfact> 0.14656990E+03</totfact>
</mgrwt>
</event>
<event>
 4    1  0.3145406E-005  0.6986047E+03  0.7818608E-02  0.9719621E-01
         -2   -1    0    0    0  501 -0.00000000000E+00  0.00000000000E+00  0.42425349842E+02  0.42425349919E+02  0.25500000000E-02 0. -1.
          2   -1    0    0  501    0  0.00000000000E+00 -0.00000000000E+00 -0.28759252160E+04  0.28759252160E+04  0.25500000000E-02 0.  1.
    5000001    1    1    2    0    0 -0.22923197782E+03 -0.14968679863E+03 -0.82843783139E+03  0.88796828649E+03  0.16500000000E+03 0.  0.
   -5000001    1    1    2    0    0  0.22923197782E+03  0.14968679863E+03 -0.20050620348E+04  0.20303822794E+04  0.16500000000E+03 0.  0.
<mgrwt>
<rscale>  0 0.69860471E+03</rscale>
<asrwt>0</asrwt>
<pdfrwt beam="1">  1        2 0.44244988E+00 0.69860471E+03</pdfrwt>
<pdfrwt beam="2">  1       -2 0.65269791E-02 0.69860471E+03</pdfrwt>
<totfact> 0.29861339E+02</totfact>
</mgrwt>
</event>
<event>
 4    1  0.3145406E-005  0.4297546E+03  0.7818608E-02  0.1033938E+00
          2   -1    0    0  501    0  0.00000000000E+00  0.00000000000E+00  0.19159855188E+04  0.19159855188E+04  0.25500000000E-02 0.  1.
         -2   -1    0    0    0  501 -0.00000000000E+00 -0.00000000000E+00 -0.24098438425E+02  0.24098438560E+02  0.25500000000E-02 0. -1.
    5000001    1    1    2    0    0 -0.13517376210E+03  0.28113702350E+01  0.10625697420E+04  0.10837708736E+04  0.16500000000E+03 0.  0.
   -5000001    1    1    2    0    0  0.13517376210E+03 -0.28113702350E+01  0.82931733836E+03  0.85631308379E+03  0.16500000000E+03 0.  0.
<mgrwt>
<rscale>  0 0.42975462E+03</rscale>
<asrwt>0</asrwt>
<pdfrwt beam="1">  1        2 0.29476702E+00 0.42975462E+03</pdfrwt>
<pdfrwt beam="2">  1       -2 0.37074519E-02 0.42975462E+03</pdfrwt>
<totfact> 0.25187778E+03</totfact>
</mgrwt>
</event>
<event>
 4    1  0.3145406E-005  0.8029353E+03  0.7818608E-02  0.9555778E-01
          2   -1    0    0  501    0  0.00000000000E+00  0.00000000000E+00  0.81801972257E+03  0.81801972257E+03  0.25500000000E-02 0.  1.
         -2   -1    0    0    0  501 -0.00000000000E+00 -0.00000000000E+00 -0.19703223690E+03  0.19703223692E+03  0.25500000000E-02 0. -1.
    5000001    1    1    2    0    0  0.32946642184E+03  0.15835459684E+03  0.28763505558E+03  0.49354151463E+03  0.16500000000E+03 0.  0.
   -5000001    1    1    2    0    0 -0.32946642184E+03 -0.15835459684E+03  0.33335243009E+03  0.52151044487E+03  0.16500000000E+03 0.  0.
<mgrwt>
<rscale>  0 0.80293525E+03</rscale>
<asrwt>0</asrwt>
<pdfrwt beam="1">  1        2 0.12584919E+00 0.80293525E+03</pdfrwt>
<pdfrwt beam="2">  1       -2 0.30312652E-01 0.80293525E+03</pdfrwt>
<totfact> 0.33769691E+02</totfact>
</mgrwt>
</event>
<event>
 4    1  0.3145406E-005  0.4119884E+03  0.7818608E-02  0.1039706E+00
         -2   -1    0    0    0  501 -0.00000000000E+00  0.00000000000E+00  0.27866978021E+02  0.27866978138E+02  0.25500000000E-02 0. -1.
          2   -1    0    0  501    0  0.00000000000E+00 -0.00000000000E+00 -0.15227202996E+04  0.15227202996E+04  0.25500000000E-02 0.  1.
    5000001    1    1    2    0    0  0.25088291842E+02 -0.83260811751E+02 -0.41830847807E+03  0.45800520520E+03  0.16500000000E+03 0.  0.
   -5000001    1    1    2    0    0 -0.25088291842E+02  0.83260811751E+02 -0.10765448435E+04  0.10925820725E+04  0.16500000000E+03 0.  0.
<mgrwt>
<rscale>  0 0.41198841E+03</rscale>
<asrwt>0</asrwt>
<pdfrwt beam="1">  1        2 0.23426460E+00 0.41198841E+03</pdfrwt>
<pdfrwt beam="2">  1       -2 0.42872286E-02 0.41198841E+03</pdfrwt>
<totfact> 0.32832552E+03</totfact>
</mgrwt>
</event>
<event>
 4    1  0.3145406E-005  0.5978778E+03  0.7818608E-02  0.9909819E-01
          2   -1    0    0  501    0  0.00000000000E+00  0.00000000000E+00  0.14643275237E+04  0.14643275237E+04  0.25500000000E-02 0.  1.
         -2   -1    0    0    0  501 -0.00000000000E+00 -0.00000000000E+00 -0.61027655759E+02  0.61027655813E+02  0.25500000000E-02 0. -1.
    5000001    1    1    2    0    0 -0.10770850170E+03 -0.19822166150E+03  0.97221252932E+03  0.10115904065E+04  0.16500000000E+03 0.  0.
   -5000001    1    1    2    0    0  0.10770850170E+03  0.19822166150E+03  0.43108733858E+03  0.51376477294E+03  0.16500000000E+03 0.  0.
<mgrwt>
<rscale>  0 0.59787783E+03</rscale>
<asrwt>0</asrwt>
<pdfrwt beam="1">  1        2 0.22528113E+00 0.59787783E+03</pdfrwt>
<pdfrwt beam="2">  1       -2 0.93888712E-02 0.59787783E+03</pdfrwt>
<totfact> 0.10292844E+03</totfact>
</mgrwt>
</event>
<event>
 4    1  0.3145406E-005  0.4775110E+03  0.7818608E-02  0.1019821E+00
         -2   -1    0    0    0  501 -0.00000000000E+00  0.00000000000E+00  0.12300252999E+03  0.12300253002E+03  0.25500000000E-02 0. -1.
          2   -1    0    0  501    0  0.00000000000E+00 -0.00000000000E+00 -0.46343916324E+03  0.46343916325E+03  0.25500000000E-02 0.  1.
    5000001    1    1    2    0    0 -0.14633710869E+03 -0.88988656148E+02 -0.19614475946E+03  0.30827146635E+03  0.16500000000E+03 0.  0.
   -5000001    1    1    2    0    0  0.14633710869E+03  0.88988656148E+02 -0.14429187380E+03  0.27817022692E+03  0.16500000000E+03 0.  0.
<mgrwt>
<rscale>  0 0.47751100E+03</rscale>
<asrwt>0</asrwt>
<pdfrwt beam="1">  1        2 0.71298332E-01 0.47751100E+03</pdfrwt>
<pdfrwt beam="2">  1       -2 0.18923466E-01 0.47751100E+03</pdfrwt>
<totfact> 0.15766374E+03</totfact>
</mgrwt>
</event>
<event>
 4    1  0.3145406E-005  0.7582707E+03  0.7818608E-02  0.9622464E-01
         -2   -1    0    0    0  501 -0.00000000000E+00  0.00000000000E+00  0.83471228219E+03  0.83471228219E+03  0.25500000000E-02 0. -1.
          2   -1    0    0  501    0  0.00000000000E+00 -0.00000000000E+00 -0.17220739039E+03  0.17220739041E+03  0.25500000000E-02 0.  1.
    5000001    1    1    2    0    0  0.69983580745E+02  0.32269461047E+03  0.21633508093E+03  0.42784971712E+03  0.16500000000E+03 0.  0.
   -5000001    1    1    2    0    0 -0.69983580745E+02 -0.32269461047E+03  0.44616981087E+03  0.57906995547E+03  0.16500000000E+03 0.  0.
<mgrwt>
<rscale>  0 0.75827073E+03</rscale>
<asrwt>0</asrwt>
<pdfrwt beam="1">  1        2 0.26493445E-01 0.75827073E+03</pdfrwt>
<pdfrwt beam="2">  1       -2 0.12841727E+00 0.75827073E+03</pdfrwt>
<totfact> 0.92694465E+01</totfact>
</mgrwt>
</event>
<event>
 4    1  0.3145406E-005  0.4740692E+03  0.7818608E-02  0.1020778E+00
          2   -1    0    0  501    0  0.00000000000E+00  0.00000000000E+00  0.12296632189E+04  0.12296632189E+04  0.25500000000E-02 0.  1.
         -2   -1    0    0    0  501 -0.00000000000E+00 -0.00000000000E+00 -0.45691704293E+02  0.45691704364E+02  0.25500000000E-02 0. -1.
    5000001    1    1    2    0    0  0.11271655636E+03  0.84042989845E+02  0.33405797028E+03  0.39823105570E+03  0.16500000000E+03 0.  0.
   -5000001    1    1    2    0    0 -0.11271655636E+03 -0.84042989845E+02  0.84991354437E+03  0.87712386761E+03  0.16500000000E+03 0.  0.
<mgrwt>
<rscale>  0 0.47406923E+03</rscale>
<asrwt>0</asrwt>
<pdfrwt beam="1">  1        2 0.18917893E+00 0.47406923E+03</pdfrwt>
<pdfrwt beam="2">  1       -2 0.70294938E-02 0.47406923E+03</pdfrwt>
<totfact> 0.22225655E+03</totfact>
</mgrwt>
</event>
<event>
 4    1  0.3145406E-005  0.9921254E+03  0.7818608E-02  0.9317224E-01
         -2   -1    0    0    0  501 -0.00000000000E+00  0.00000000000E+00  0.51387369802E+03  0.51387369803E+03  0.25500000000E-02 0. -1.
          2   -1    0    0  501    0  0.00000000000E+00 -0.00000000000E+00 -0.47886904059E+03  0.47886904060E+03  0.25500000000E-02 0.  1.
    5000001    1    1    2    0    0  0.44672026704E+03  0.41488709827E+02 -0.11514295174E+03  0.49169422344E+03  0.16500000000E+03 0.  0.
   -5000001    1    1    2    0    0 -0.44672026704E+03 -0.41488709827E+02  0.15014760917E+03  0.50104851518E+03  0.16500000000E+03 0.  0.
<mgrwt>
<rscale>  0 0.99212540E+03</rscale>
<asrwt>0</asrwt>
<pdfrwt beam="1">  1        2 0.73672160E-01 0.99212540E+03</pdfrwt>
<pdfrwt beam="2">  1       -2 0.79057492E-01 0.99212540E+03</pdfrwt>
<totfact> 0.91871985E+01</totfact>
</mgrwt>
</event>
<event>
 4    1  0.3145406E-005  0.3710303E+03  0.7818608E-02  0.1054300E+00
         -2   -1    0    0    0  501 -0.00000000000E+00  0.00000000000E+00  0.30420875873E+02  0.30420875979E+02  0.25500000000E-02 0. -1.
          2   -1    0    0  501    0  0.00000000000E+00 -0.00000000000E+00 -0.11313239337E+04  0.11313239337E+04  0.25500000000E-02 0.  1.
    5000001    1    1    2    0    0 -0.62631903079E+02  0.44009409115E+02 -0.66469631079E+03  0.68913407182E+03  0.16500000000E+03 0.  0.
   -5000001    1    1    2    0    0  0.62631903079E+02 -0.44009409115E+02 -0.43620674701E+03  0.47261073783E+03  0.16500000000E+03 0.  0.
<mgrwt>
<rscale>  0 0.37103027E+03</rscale>
<asrwt>0</asrwt>
<pdfrwt beam="1">  1        2 0.17404980E+00 0.37103027E+03</pdfrwt>
<pdfrwt beam="2">  1       -2 0.46801356E-02 0.37103027E+03</pdfrwt>
<totfact> 0.47615570E+03</totfact>
</mgrwt>
</event>
<event>
 4    1  0.3145406E-005  0.1732675E+04  0.7818608E-02  0.8742945E-01
         -2   -1    0    0    0  501 -0.00000000000E+00  0.00000000000E+00  0.45276343971E+03  0.45276343972E+03  0.25500000000E-02 0. -1.
          2   -1    0    0  501    0  0.00000000000E+00 -0.00000000000E+00 -0.16576882226E+04  0.16576882226E+04  0.25500000000E-02 0.  1.
    5000001    1    1    2    0    0 -0.75998042441E+03  0.24514054732E+03 -0.24599010707E+03  0.85170433027E+03  0.16500000000E+03 0.  0.
   -5000001    1    1    2    0    0  0.75998042441E+03 -0.24514054732E+03 -0.95893467577E+03  0.12587473320E+04  0.16500000000E+03 0.  0.
<mgrwt>
<rscale>  0 0.17326750E+04</rscale>
<asrwt>0</asrwt>
<pdfrwt beam="1">  1        2 0.25502895E+00 0.17326750E+04</pdfrwt>
<pdfrwt beam="2">  1       -2 0.69655915E-01 0.17326750E+04</pdfrwt>
<totfact> 0.18463904E+01</totfact>
</mgrwt>
</event>
<event>
 4    1  0.3145406E-005  0.9984775E+03  0.7818608E-02  0.9310216E-01
         -2   -1    0    0    0  501 -0.00000000000E+00  0.00000000000E+00  0.26218612397E+03  0.26218612399E+03  0.25500000000E-02 0.  1.
          2   -1    0    0  501    0  0.00000000000E+00 -0.00000000000E+00 -0.95061991362E+03  0.95061991363E+03  0.25500000000E-02 0. -1.
    5000001    1    1    2    0    0 -0.41427556163E+03  0.46782028759E+02 -0.77541125119E+02  0.45502793899E+03  0.16500000000E+03 0.  0.
   -5000001    1    1    2    0    0  0.41427556163E+03 -0.46782028759E+02 -0.61089266453E+03  0.75777809862E+03  0.16500000000E+03 0.  0.
<mgrwt>
<rscale>  0 0.99847754E+03</rscale>
<asrwt>0</asrwt>
<pdfrwt beam="1">  1        2 0.14624922E+00 0.99847754E+03</pdfrwt>
<pdfrwt beam="2">  1       -2 0.40336327E-01 0.99847754E+03</pdfrwt>
<totfact> 0.15743418E+02</totfact>
</mgrwt>
</event>
<event>
 4    1  0.3145406E-005  0.8371794E+03  0.7818608E-02  0.9507708E-01
          2   -1    0    0  501    0  0.00000000000E+00  0.00000000000E+00  0.16754813795E+04  0.16754813795E+04  0.25500000000E-02 0.  1.
         -2   -1    0    0    0  501 -0.00000000000E+00 -0.00000000000E+00 -0.10457730769E+03  0.10457730772E+03  0.25500000000E-02 0. -1.
    5000001    1    1    2    0    0  0.27435144185E+03  0.18559331998E+02  0.21341705002E+03  0.38520773576E+03  0.16500000000E+03 0.  0.
   -5000001    1    1    2    0    0 -0.27435144185E+03 -0.18559331998E+02  0.13574870218E+04  0.13948509514E+04  0.16500000000E+03 0.  0.
<mgrwt>
<rscale>  0 0.83717939E+03</rscale>
<asrwt>0</asrwt>
<pdfrwt beam="1">  1        2 0.25776635E+00 0.83717939E+03</pdfrwt>
<pdfrwt beam="2">  1       -2 0.16088817E-01 0.83717939E+03</pdfrwt>
<totfact> 0.31801341E+02</totfact>
</mgrwt>
</event>
<event>
 4    1  0.3145406E-005  0.3925229E+03  0.7818608E-02  0.1046400E+00
         -2   -1    0    0    0  501 -0.00000000000E+00  0.00000000000E+00  0.11354010925E+02  0.11354011212E+02  0.25500000000E-02 0. -1.
          2   -1    0    0  501    0  0.00000000000E+00 -0.00000000000E+00 -0.33925056898E+04  0.33925056898E+04  0.25500000000E-02 0.  1.
    5000001    1    1    2    0    0 -0.94757027348E+02 -0.32373421151E+02 -0.19991993015E+04  0.20084944062E+04  0.16500000000E+03 0.  0.
   -5000001    1    1    2    0    0  0.94757027348E+02  0.32373421151E+02 -0.13819523774E+04  0.13953652949E+04  0.16500000000E+03 0.  0.
<mgrwt>
<rscale>  0 0.39252285E+03</rscale>
<asrwt>0</asrwt>
<pdfrwt beam="1">  1        2 0.52192314E+00 0.39252285E+03</pdfrwt>
<pdfrwt beam="2">  1       -2 0.17467736E-02 0.39252285E+03</pdfrwt>
<totfact> 0.11027227E+03</totfact>
</mgrwt>
</event>
<event>
 4    1  0.3145406E-005  0.4592294E+03  0.7818608E-02  0.1025005E+00
          2   -1    0    0  501    0  0.00000000000E+00  0.00000000000E+00  0.29324480717E+04  0.29324480717E+04  0.25500000000E-02 0.  1.
         -2   -1    0    0    0  501 -0.00000000000E+00 -0.00000000000E+00 -0.17979146326E+02  0.17979146507E+02  0.25500000000E-02 0. -1.
    5000001    1    1    2    0    0  0.69873420921E+00  0.63381176181E+02  0.23988527656E+04  0.24053559514E+04  0.16500000000E+03 0.  0.
   -5000001    1    1    2    0    0 -0.69873420921E+00 -0.63381176181E+02  0.51561615980E+03  0.54507126687E+03  0.16500000000E+03 0.  0.
<mgrwt>
<rscale>  0 0.45922941E+03</rscale>
<asrwt>0</asrwt>
<pdfrwt beam="1">  1        2 0.45114562E+00 0.45922941E+03</pdfrwt>
<pdfrwt beam="2">  1       -2 0.27660240E-02 0.45922941E+03</pdfrwt>
<totfact> 0.10636651E+03</totfact>
</mgrwt>
</event>
<event>
 4    1  0.3145406E-005  0.3996983E+03  0.7818608E-02  0.1043884E+00
         -2   -1    0    0    0  501 -0.00000000000E+00  0.00000000000E+00  0.56153380418E+02  0.56153380476E+02  0.25500000000E-02 0. -1.
          2   -1    0    0  501    0  0.00000000000E+00 -0.00000000000E+00 -0.71126048679E+03  0.71126048679E+03  0.25500000000E-02 0.  1.
    5000001    1    1    2    0    0  0.27514863909E+02 -0.10520776728E+03 -0.38479798583E+03  0.43257396123E+03  0.16500000000E+03 0.  0.
   -5000001    1    1    2    0    0 -0.27514863909E+02  0.10520776728E+03 -0.27030912054E+03  0.33483990604E+03  0.16500000000E+03 0.  0.
<mgrwt>
<rscale>  0 0.39969829E+03</rscale>
<asrwt>0</asrwt>
<pdfrwt beam="1">  1        2 0.10942468E+00 0.39969829E+03</pdfrwt>
<pdfrwt beam="2">  1       -2 0.86389821E-02 0.39969829E+03</pdfrwt>
<totfact> 0.34634617E+03</totfact>
</mgrwt>
</event>
<event>
 4    1  0.3145406E-005  0.5429579E+03  0.7818608E-02  0.1003137E+00
         -2   -1    0    0    0  501 -0.00000000000E+00  0.00000000000E+00  0.40482002313E+03  0.40482002313E+03  0.25500000000E-02 0. -1.
          2   -1    0    0  501    0  0.00000000000E+00 -0.00000000000E+00 -0.18205821421E+03  0.18205821423E+03  0.25500000000E-02 0.  1.
    5000001    1    1    2    0    0 -0.58496549911E+02  0.17956525775E+03  0.22376384629E+03  0.33609639547E+03  0.16500000000E+03 0.  0.
   -5000001    1    1    2    0    0  0.58496549911E+02 -0.17956525775E+03 -0.10020373804E+01  0.25078184189E+03  0.16500000000E+03 0.  0.
<mgrwt>
<rscale>  0 0.54295786E+03</rscale>
<asrwt>0</asrwt>
<pdfrwt beam="1">  1        2 0.28008956E-01 0.54295786E+03</pdfrwt>
<pdfrwt beam="2">  1       -2 0.62280004E-01 0.54295786E+03</pdfrwt>
<totfact> 0.46447419E+02</totfact>
</mgrwt>
</event>
<event>
 4    1  0.3145406E-005  0.5900855E+03  0.7818608E-02  0.9926192E-01
          2   -1    0    0  501    0  0.00000000000E+00  0.00000000000E+00  0.79033534862E+03  0.79033534863E+03  0.25500000000E-02 0.  1.
         -2   -1    0    0    0  501 -0.00000000000E+00 -0.00000000000E+00 -0.11014338445E+03  0.11014338448E+03  0.25500000000E-02 0. -1.
    5000001    1    1    2    0    0 -0.17095396813E+03  0.98865045823E+01  0.73579426633E+02  0.24892154229E+03  0.16500000000E+03 0.  0.
   -5000001    1    1    2    0    0  0.17095396813E+03 -0.98865045823E+01  0.60661253754E+03  0.65155719081E+03  0.16500000000E+03 0.  0.
<mgrwt>
<rscale>  0 0.59008545E+03</rscale>
<asrwt>0</asrwt>
<pdfrwt beam="1">  1        2 0.12159006E+00 0.59008545E+03</pdfrwt>
<pdfrwt beam="2">  1       -2 0.16945135E-01 0.59008545E+03</pdfrwt>
<totfact> 0.10013732E+03</totfact>
</mgrwt>
</event>
<event>
 4    1  0.3145406E-005  0.4034539E+03  0.7818608E-02  0.1042590E+00
          2   -1    0    0  501    0  0.00000000000E+00  0.00000000000E+00  0.26682546535E+04  0.26682546535E+04  0.25500000000E-02 0.  1.
         -2   -1    0    0    0  501 -0.00000000000E+00 -0.00000000000E+00 -0.15251082317E+02  0.15251082530E+02  0.25500000000E-02 0. -1.
    5000001    1    1    2    0    0 -0.10242053822E+03  0.25463418994E+02  0.16475909085E+04  0.16591923198E+04  0.16500000000E+03 0.  0.
   -5000001    1    1    2    0    0  0.10242053822E+03 -0.25463418994E+02  0.10054126626E+04  0.10243134162E+04  0.16500000000E+03 0.  0.
<mgrwt>
<rscale>  0 0.40345395E+03</rscale>
<asrwt>0</asrwt>
<pdfrwt beam="1">  1        2 0.41050106E+00 0.40345395E+03</pdfrwt>
<pdfrwt beam="2">  1       -2 0.23463184E-02 0.40345395E+03</pdfrwt>
<totfact> 0.19497627E+03</totfact>
</mgrwt>
</event>
<event>
 4    1  0.3145406E-005  0.6057061E+03  0.7818608E-02  0.9893638E-01
         -2   -1    0    0    0  501 -0.00000000000E+00  0.00000000000E+00  0.37662961258E+03  0.37662961258E+03  0.25500000000E-02 0. -1.
          2   -1    0    0  501    0  0.00000000000E+00 -0.00000000000E+00 -0.24352833178E+03  0.24352833180E+03  0.25500000000E-02 0.  1.
    5000001    1    1    2    0    0  0.85007557007E+02  0.18673491336E+03 -0.86682396597E+02  0.27719136079E+03  0.16500000000E+03 0.  0.
   -5000001    1    1    2    0    0 -0.85007557007E+02 -0.18673491336E+03  0.21978367739E+03  0.34296658359E+03  0.16500000000E+03 0.  0.
<mgrwt>
<rscale>  0 0.60570614E+03</rscale>
<asrwt>0</asrwt>
<pdfrwt beam="1">  1        2 0.37465897E-01 0.60570614E+03</pdfrwt>
<pdfrwt beam="2">  1       -2 0.57943017E-01 0.60570614E+03</pdfrwt>
<totfact> 0.39005526E+02</totfact>
</mgrwt>
</event>
<event>
 4    1  0.3145406E-005  0.4580852E+03  0.7818608E-02  0.1025338E+00
         -2   -1    0    0    0  501 -0.00000000000E+00  0.00000000000E+00  0.59267718940E+02  0.59267718995E+02  0.25500000000E-02 0. -1.
          2   -1    0    0  501    0  0.00000000000E+00 -0.00000000000E+00 -0.88514470234E+03  0.88514470234E+03  0.25500000000E-02 0.  1.
    5000001    1    1    2    0    0 -0.60394557116E+02  0.38656041576E+02 -0.70518247211E+03  0.72776995751E+03  0.16500000000E+03 0.  0.
   -5000001    1    1    2    0    0  0.60394557116E+02 -0.38656041576E+02 -0.12069451129E+03  0.21664246383E+03  0.16500000000E+03 0.  0.
<mgrwt>
<rscale>  0 0.45808518E+03</rscale>
<asrwt>0</asrwt>
<pdfrwt beam="1">  1        2 0.13617610E+00 0.45808518E+03</pdfrwt>
<pdfrwt beam="2">  1       -2 0.91181113E-02 0.45808518E+03</pdfrwt>
<totfact> 0.23961865E+03</totfact>
</mgrwt>
</event>
<event>
 4    1  0.3145406E-005  0.3848055E+03  0.7818608E-02  0.1049172E+00
         -2   -1    0    0    0  501 -0.00000000000E+00  0.00000000000E+00  0.14230077936E+02  0.14230078164E+02  0.25500000000E-02 0. -1.
          2   -1    0    0  501    0  0.00000000000E+00 -0.00000000000E+00 -0.26014486353E+04  0.26014486353E+04  0.25500000000E-02 0.  1.
    5000001    1    1    2    0    0 -0.35011447649E+00 -0.93172651382E+02 -0.10668822945E+04  0.10835792984E+04  0.16500000000E+03 0.  0.
   -5000001    1    1    2    0    0  0.35011447649E+00  0.93172651382E+02 -0.15203362628E+04  0.15320994151E+04  0.16500000000E+03 0.  0.
<mgrwt>
<rscale>  0 0.38480549E+03</rscale>
<asrwt>0</asrwt>
<pdfrwt beam="1">  1        2 0.40022249E+00 0.38480549E+03</pdfrwt>
<pdfrwt beam="2">  1       -2 0.21892448E-02 0.38480549E+03</pdfrwt>
<totfact> 0.23621696E+03</totfact>
</mgrwt>
</event>
<event>
 4    1  0.3145406E-005  0.5411137E+03  0.7818608E-02  0.1003572E+00
         -2   -1    0    0    0  501 -0.00000000000E+00  0.00000000000E+00  0.85526005865E+02  0.85526005903E+02  0.25500000000E-02 0. -1.
          2   -1    0    0  501    0  0.00000000000E+00 -0.00000000000E+00 -0.85589189687E+03  0.85589189687E+03  0.25500000000E-02 0.  1.
    5000001    1    1    2    0    0 -0.10541903280E+03  0.18171375357E+03 -0.31049487594E+03  0.40959141678E+03  0.16500000000E+03 0.  0.
   -5000001    1    1    2    0    0  0.10541903280E+03 -0.18171375357E+03 -0.45987101507E+03  0.53182648600E+03  0.16500000000E+03 0.  0.
<mgrwt>
<rscale>  0 0.54111372E+03</rscale>
<asrwt>0</asrwt>
<pdfrwt beam="1">  1        2 0.13167567E+00 0.54111372E+03</pdfrwt>
<pdfrwt beam="2">  1       -2 0.13157848E-01 0.54111372E+03</pdfrwt>
<totfact> 0.13797310E+03</totfact>
</mgrwt>
</event>
<event>
 4    1  0.3145406E-005  0.5979245E+03  0.7818608E-02  0.9909721E-01
          2   -1    0    0  501    0  0.00000000000E+00  0.00000000000E+00  0.18630819283E+04  0.18630819283E+04  0.25500000000E-02 0.  1.
         -2   -1    0    0    0  501 -0.00000000000E+00 -0.00000000000E+00 -0.47973428503E+02  0.47973428570E+02  0.25500000000E-02 0. -1.
    5000001    1    1    2    0    0  0.24615087732E+03  0.20787075412E+02  0.10150451794E+04  0.10576218952E+04  0.16500000000E+03 0.  0.
   -5000001    1    1    2    0    0 -0.24615087732E+03 -0.20787075412E+02  0.80006332034E+03  0.85343346166E+03  0.16500000000E+03 0.  0.
<mgrwt>
<rscale>  0 0.59792450E+03</rscale>
<asrwt>0</asrwt>
<pdfrwt beam="1">  1        2 0.28662798E+00 0.59792450E+03</pdfrwt>
<pdfrwt beam="2">  1       -2 0.73805276E-02 0.59792450E+03</pdfrwt>
<totfact> 0.91660032E+02</totfact>
</mgrwt>
</event>
<event>
 4    1  0.3145406E-005  0.1107151E+04  0.7818608E-02  0.9198250E-01
          2   -1    0    0  501    0  0.00000000000E+00  0.00000000000E+00  0.56837450458E+03  0.56837450459E+03  0.25500000000E-02 0. -1.
         -2   -1    0    0    0  501 -0.00000000000E+00 -0.00000000000E+00 -0.53916146464E+03  0.53916146465E+03  0.25500000000E-02 0.  1.
    5000001    1    1    2    0    0 -0.33759355770E+03 -0.34235497365E+02  0.41981434859E+03  0.56445599188E+03  0.16500000000E+03 0.  0.
   -5000001    1    1    2    0    0  0.33759355770E+03  0.34235497365E+02 -0.39060130865E+03  0.54307997736E+03  0.16500000000E+03 0.  0.
<mgrwt>
<rscale>  0 0.11071506E+04</rscale>
<asrwt>0</asrwt>
<pdfrwt beam="1">  1        2 0.87442231E-01 0.11071506E+04</pdfrwt>
<pdfrwt beam="2">  1       -2 0.82947918E-01 0.11071506E+04</pdfrwt>
<totfact> 0.66958937E+01</totfact>
</mgrwt>
</event>
<event>
 4    1  0.3145406E-005  0.5308088E+03  0.7818608E-02  0.1006036E+00
          2   -1    0    0  501    0  0.00000000000E+00  0.00000000000E+00  0.93356535072E+03  0.93356535072E+03  0.25500000000E-02 0.  1.
         -2   -1    0    0    0  501 -0.00000000000E+00 -0.00000000000E+00 -0.75452132160E+02  0.75452132203E+02  0.25500000000E-02 0. -1.
    5000001    1    1    2    0    0 -0.16311105198E+03 -0.11890507023E+03  0.33456677121E+03  0.42415039244E+03  0.16500000000E+03 0.  0.
   -5000001    1    1    2    0    0  0.16311105198E+03  0.11890507023E+03  0.52354644735E+03  0.58486709049E+03  0.16500000000E+03 0.  0.
<mgrwt>
<rscale>  0 0.53080880E+03</rscale>
<asrwt>0</asrwt>
<pdfrwt beam="1">  1        2 0.14362544E+00 0.53080880E+03</pdfrwt>
<pdfrwt beam="2">  1       -2 0.11608020E-01 0.53080880E+03</pdfrwt>
<totfact> 0.15056279E+03</totfact>
</mgrwt>
</event>
<event>
 4    1  0.3145406E-005  0.4272219E+03  0.7818608E-02  0.1034741E+00
         -2   -1    0    0    0  501 -0.00000000000E+00  0.00000000000E+00  0.28127730083E+03  0.28127730084E+03  0.25500000000E-02 0. -1.
          2   -1    0    0  501    0  0.00000000000E+00 -0.00000000000E+00 -0.16222298571E+03  0.16222298573E+03  0.25500000000E-02 0.  1.
    5000001    1    1    2    0    0  0.12544047435E+03  0.43976693709E+02  0.87678342573E+02  0.22930711710E+03  0.16500000000E+03 0.  0.
   -5000001    1    1    2    0    0 -0.12544047435E+03 -0.43976693709E+02  0.31375972550E+02  0.21419316947E+03  0.16500000000E+03 0.  0.
<mgrwt>
<rscale>  0 0.42722193E+03</rscale>
<asrwt>0</asrwt>
<pdfrwt beam="1">  1        2 0.24957383E-01 0.42722193E+03</pdfrwt>
<pdfrwt beam="2">  1       -2 0.43273430E-01 0.42722193E+03</pdfrwt>
<totfact> 0.11105459E+03</totfact>
</mgrwt>
</event>
<event>
 4    1  0.3145406E-005  0.8059865E+03  0.7818608E-02  0.9551392E-01
         -2   -1    0    0    0  501 -0.00000000000E+00  0.00000000000E+00  0.19398557652E+03  0.19398557654E+03  0.25500000000E-02 0. -1.
          2   -1    0    0  501    0  0.00000000000E+00 -0.00000000000E+00 -0.83719405481E+03  0.83719405482E+03  0.25500000000E-02 0.  1.
    5000001    1    1    2    0    0 -0.26394673977E+03 -0.25549896718E+03 -0.30216039222E+03  0.50346152414E+03  0.16500000000E+03 0.  0.
   -5000001    1    1    2    0    0  0.26394673977E+03  0.25549896718E+03 -0.34104808607E+03  0.52771810721E+03  0.16500000000E+03 0.  0.
<mgrwt>
<rscale>  0 0.80598653E+03</rscale>
<asrwt>0</asrwt>
<pdfrwt beam="1">  1        2 0.12879908E+00 0.80598653E+03</pdfrwt>
<pdfrwt beam="2">  1       -2 0.29843935E-01 0.80598653E+03</pdfrwt>
<totfact> 0.33690287E+02</totfact>
</mgrwt>
</event>
<event>
 4    1  0.3145406E-005  0.8262947E+03  0.7818608E-02  0.9522718E-01
         -2   -1    0    0    0  501 -0.00000000000E+00  0.00000000000E+00  0.16411182557E+03  0.16411182559E+03  0.25500000000E-02 0. -1.
          2   -1    0    0  501    0  0.00000000000E+00 -0.00000000000E+00 -0.10400880291E+04  0.10400880292E+04  0.25500000000E-02 0.  1.
    5000001    1    1    2    0    0 -0.97688668184E+02 -0.33148198008E+03 -0.66395883338E+03  0.76647877429E+03  0.16500000000E+03 0.  0.
   -5000001    1    1    2    0    0  0.97688668184E+02  0.33148198008E+03 -0.21201737019E+03  0.43772108045E+03  0.16500000000E+03 0.  0.
<mgrwt>
<rscale>  0 0.82629473E+03</rscale>
<asrwt>0</asrwt>
<pdfrwt beam="1">  1        2 0.16001354E+00 0.82629473E+03</pdfrwt>
<pdfrwt beam="2">  1       -2 0.25247974E-01 0.82629473E+03</pdfrwt>
<totfact> 0.33570612E+02</totfact>
</mgrwt>
</event>
<event>
 4    1  0.3145406E-005  0.4674886E+03  0.7818608E-02  0.1022631E+00
          2   -1    0    0  501    0  0.00000000000E+00  0.00000000000E+00  0.12383580762E+04  0.12383580762E+04  0.25500000000E-02 0.  1.
         -2   -1    0    0    0  501 -0.00000000000E+00 -0.00000000000E+00 -0.44120023963E+02  0.44120024036E+02  0.25500000000E-02 0. -1.
    5000001    1    1    2    0    0 -0.12934558809E+03  0.65674013219E+02  0.81603706644E+03  0.84509458108E+03  0.16500000000E+03 0.  0.
   -5000001    1    1    2    0    0  0.12934558809E+03 -0.65674013219E+02  0.37820098578E+03  0.43738351914E+03  0.16500000000E+03 0.  0.
<mgrwt>
<rscale>  0 0.46748856E+03</rscale>
<asrwt>0</asrwt>
<pdfrwt beam="1">  1        2 0.19051666E+00 0.46748856E+03</pdfrwt>
<pdfrwt beam="2">  1       -2 0.67876950E-02 0.46748856E+03</pdfrwt>
<totfact> 0.23214643E+03</totfact>
</mgrwt>
</event>
<event>
 4    1  0.3145406E-005  0.1006428E+04  0.7818608E-02  0.9301523E-01
         -2   -1    0    0    0  501 -0.00000000000E+00  0.00000000000E+00  0.55982299711E+02  0.55982299769E+02  0.25500000000E-02 0. -1.
          2   -1    0    0  501    0  0.00000000000E+00 -0.00000000000E+00 -0.45232912994E+04  0.45232912994E+04  0.25500000000E-02 0.  1.
    5000001    1    1    2    0    0  0.10966052904E+03 -0.40645492898E+03 -0.12288481960E+04  0.13093983083E+04  0.16500000000E+03 0.  0.
   -5000001    1    1    2    0    0 -0.10966052904E+03  0.40645492898E+03 -0.32384608037E+04  0.32698752909E+04  0.16500000000E+03 0.  0.
<mgrwt>
<rscale>  0 0.10064278E+04</rscale>
<asrwt>0</asrwt>
<pdfrwt beam="1">  1        2 0.69589068E+00 0.10064278E+04</pdfrwt>
<pdfrwt beam="2">  1       -2 0.86126650E-02 0.10064278E+04</pdfrwt>
<totfact> 0.11047938E+01</totfact>
</mgrwt>
</event>
<event>
 4    1  0.3145406E-005  0.6199427E+03  0.7818608E-02  0.9864874E-01
         -2   -1    0    0    0  501 -0.00000000000E+00  0.00000000000E+00  0.13098631406E+03  0.13098631409E+03  0.25500000000E-02 0. -1.
          2   -1    0    0  501    0  0.00000000000E+00 -0.00000000000E+00 -0.73352886499E+03  0.73352886500E+03  0.25500000000E-02 0.  1.
    5000001    1    1    2    0    0  0.16800057139E+03  0.20101950233E+03 -0.28039040760E+03  0.41770421709E+03  0.16500000000E+03 0.  0.
   -5000001    1    1    2    0    0 -0.16800057139E+03 -0.20101950233E+03 -0.32215214333E+03  0.44681096199E+03  0.16500000000E+03 0.  0.
<mgrwt>
<rscale>  0 0.61994271E+03</rscale>
<asrwt>0</asrwt>
<pdfrwt beam="1">  1        2 0.11285059E+00 0.61994271E+03</pdfrwt>
<pdfrwt beam="2">  1       -2 0.20151741E-01 0.61994271E+03</pdfrwt>
<totfact> 0.81702766E+02</totfact>
</mgrwt>
</event>
<event>
 4    1  0.3145406E-005  0.4691588E+03  0.7818608E-02  0.1022158E+00
          2   -1    0    0  501    0  0.00000000000E+00  0.00000000000E+00  0.25178686081E+03  0.25178686082E+03  0.25500000000E-02 0.  1.
         -2   -1    0    0    0  501 -0.00000000000E+00 -0.00000000000E+00 -0.21854789700E+03  0.21854789701E+03  0.25500000000E-02 0. -1.
    5000001    1    1    2    0    0 -0.27653998966E+02 -0.15114333936E+03  0.81538546427E+02  0.23975526531E+03  0.16500000000E+03 0.  0.
   -5000001    1    1    2    0    0  0.27653998966E+02  0.15114333936E+03 -0.48299582611E+02  0.23057949252E+03  0.16500000000E+03 0.  0.
<mgrwt>
<rscale>  0 0.46915877E+03</rscale>
<asrwt>0</asrwt>
<pdfrwt beam="1">  1        2 0.38736440E-01 0.46915877E+03</pdfrwt>
<pdfrwt beam="2">  1       -2 0.33622754E-01 0.46915877E+03</pdfrwt>
<totfact> 0.11036558E+03</totfact>
</mgrwt>
</event>
<event>
 4    1  0.3145406E-005  0.5441421E+03  0.7818608E-02  0.1002859E+00
         -2   -1    0    0    0  501 -0.00000000000E+00  0.00000000000E+00  0.12321549752E+03  0.12321549755E+03  0.25500000000E-02 0.  1.
          2   -1    0    0  501    0  0.00000000000E+00 -0.00000000000E+00 -0.60075769476E+03  0.60075769477E+03  0.25500000000E-02 0. -1.
    5000001    1    1    2    0    0 -0.19879672346E+03  0.60140517088E+02 -0.15827244542E+03  0.30888863047E+03  0.16500000000E+03 0.  0.
   -5000001    1    1    2    0    0  0.19879672346E+03 -0.60140517088E+02 -0.31926975182E+03  0.41508456185E+03  0.16500000000E+03 0.  0.
<mgrwt>
<rscale>  0 0.54414211E+03</rscale>
<asrwt>0</asrwt>
<pdfrwt beam="1">  1        2 0.92424259E-01 0.54414211E+03</pdfrwt>
<pdfrwt beam="2">  1       -2 0.18956231E-01 0.54414211E+03</pdfrwt>
<totfact> 0.11634309E+03</totfact>
</mgrwt>
</event>
<event>
 4    1  0.3145406E-005  0.4092006E+03  0.7818608E-02  0.1040640E+00
          2   -1    0    0  501    0  0.00000000000E+00  0.00000000000E+00  0.12582598229E+03  0.12582598231E+03  0.25500000000E-02 0.  1.
         -2   -1    0    0    0  501 -0.00000000000E+00 -0.00000000000E+00 -0.33269183649E+03  0.33269183650E+03  0.25500000000E-02 0. -1.
    5000001    1    1    2    0    0 -0.11332235797E+03  0.15884262143E+02 -0.59431814773E+02  0.20940727591E+03  0.16500000000E+03 0.  0.
   -5000001    1    1    2    0    0  0.11332235797E+03 -0.15884262143E+02 -0.14743403943E+03  0.24911054290E+03  0.16500000000E+03 0.  0.
<mgrwt>
<rscale>  0 0.40920057E+03</rscale>
<asrwt>0</asrwt>
<pdfrwt beam="1">  1        2 0.19357844E-01 0.40920057E+03</pdfrwt>
<pdfrwt beam="2">  1       -2 0.51183359E-01 0.40920057E+03</pdfrwt>
<totfact> 0.10644264E+03</totfact>
</mgrwt>
</event>
<event>
 4    1  0.3145406E-005  0.4780641E+03  0.7818608E-02  0.1019669E+00
         -2   -1    0    0    0  501 -0.00000000000E+00  0.00000000000E+00  0.76915830745E+02  0.76915830787E+02  0.25500000000E-02 0. -1.
          2   -1    0    0  501    0  0.00000000000E+00 -0.00000000000E+00 -0.74284228781E+03  0.74284228781E+03  0.25500000000E-02 0.  1.
    5000001    1    1    2    0    0 -0.14172742411E+03 -0.43301833182E+02 -0.18007545934E+03  0.28568143545E+03  0.16500000000E+03 0.  0.
   -5000001    1    1    2    0    0  0.14172742411E+03  0.43301833182E+02 -0.48585099772E+03  0.53407668315E+03  0.16500000000E+03 0.  0.
<mgrwt>
<rscale>  0 0.47806415E+03</rscale>
<asrwt>0</asrwt>
<pdfrwt beam="1">  1        2 0.11428342E+00 0.47806415E+03</pdfrwt>
<pdfrwt beam="2">  1       -2 0.11833205E-01 0.47806415E+03</pdfrwt>
<totfact> 0.19779368E+03</totfact>
</mgrwt>
</event>
<event>
 4    1  0.3145406E-005  0.4459589E+03  0.7818608E-02  0.1028934E+00
          2   -1    0    0  501    0  0.00000000000E+00  0.00000000000E+00  0.94299099995E+02  0.94299100029E+02  0.25500000000E-02 0.  1.
         -2   -1    0    0    0  501 -0.00000000000E+00 -0.00000000000E+00 -0.52725677996E+03  0.52725677997E+03  0.25500000000E-02 0. -1.
    5000001    1    1    2    0    0  0.55106224282E+02 -0.13948722392E+03 -0.21479578050E+03  0.30960556990E+03  0.16500000000E+03 0.  0.
   -5000001    1    1    2    0    0 -0.55106224282E+02  0.13948722392E+03 -0.21816189946E+03  0.31195031009E+03  0.16500000000E+03 0.  0.
<mgrwt>
<rscale>  0 0.44595892E+03</rscale>
<asrwt>0</asrwt>
<pdfrwt beam="1">  1        2 0.14507554E-01 0.44595892E+03</pdfrwt>
<pdfrwt beam="2">  1       -2 0.81116426E-01 0.44595892E+03</pdfrwt>
<totfact> 0.56360772E+02</totfact>
</mgrwt>
</event>
<event>
 4    1  0.3145406E-005  0.6318855E+03  0.7818608E-02  0.9841376E-01
          2   -1    0    0  501    0  0.00000000000E+00  0.00000000000E+00  0.44424466882E+03  0.44424466883E+03  0.25500000000E-02 0.  1.
         -2   -1    0    0    0  501 -0.00000000000E+00 -0.00000000000E+00 -0.22469556900E+03  0.22469556901E+03  0.25500000000E-02 0. -1.
    5000001    1    1    2    0    0 -0.39568044733E+02 -0.25298301804E+03  0.19852869745E+03  0.36359961674E+03  0.16500000000E+03 0.  0.
   -5000001    1    1    2    0    0  0.39568044733E+02  0.25298301804E+03  0.21020402374E+02  0.30534062110E+03  0.16500000000E+03 0.  0.
<mgrwt>
<rscale>  0 0.63188546E+03</rscale>
<asrwt>0</asrwt>
<pdfrwt beam="1">  1        2 0.68345334E-01 0.63188546E+03</pdfrwt>
<pdfrwt beam="2">  1       -2 0.34568549E-01 0.63188546E+03</pdfrwt>
<totfact> 0.55753488E+02</totfact>
</mgrwt>
</event>
<event>
 4    1  0.3145406E-005  0.3577929E+03  0.7818608E-02  0.1059461E+00
          2   -1    0    0  501    0  0.00000000000E+00  0.00000000000E+00  0.74253122262E+03  0.74253122263E+03  0.25500000000E-02 0.  1.
         -2   -1    0    0    0  501 -0.00000000000E+00 -0.00000000000E+00 -0.43101136599E+02  0.43101136674E+02  0.25500000000E-02 0. -1.
    5000001    1    1    2    0    0  0.36948858512E+02 -0.55853474210E+02  0.31205825702E+03  0.35929122519E+03  0.16500000000E+03 0.  0.
   -5000001    1    1    2    0    0 -0.36948858512E+02  0.55853474210E+02  0.38737182900E+03  0.42634113411E+03  0.16500000000E+03 0.  0.
<mgrwt>
<rscale>  0 0.35779290E+03</rscale>
<asrwt>0</asrwt>
<pdfrwt beam="1">  1        2 0.11423557E+00 0.35779290E+03</pdfrwt>
<pdfrwt beam="2">  1       -2 0.66309444E-02 0.35779290E+03</pdfrwt>
<totfact> 0.49653195E+03</totfact>
</mgrwt>
</event>
<event>
 4    1  0.3145406E-005  0.4751599E+03  0.7818608E-02  0.1020474E+00
         -2   -1    0    0    0  501 -0.00000000000E+00  0.00000000000E+00  0.45712069577E+03  0.45712069578E+03  0.25500000000E-02 0. -1.
          2   -1    0    0  501    0  0.00000000000E+00 -0.00000000000E+00 -0.12347775413E+03  0.12347775416E+03  0.25500000000E-02 0.  1.
    5000001    1    1    2    0    0  0.18334904036E+02 -0.81982576970E+02  0.34872445185E+03  0.39483041290E+03  0.16500000000E+03 0.  0.
   -5000001    1    1    2    0    0 -0.18334904036E+02  0.81982576970E+02 -0.15081510211E+02  0.18576803703E+03  0.16500000000E+03 0.  0.
<mgrwt>
<rscale>  0 0.47515992E+03</rscale>
<asrwt>0</asrwt>
<pdfrwt beam="1">  1        2 0.18996578E-01 0.47515992E+03</pdfrwt>
<pdfrwt beam="2">  1       -2 0.70326260E-01 0.47515992E+03</pdfrwt>
<totfact> 0.55981387E+02</totfact>
</mgrwt>
</event>
<event>
 4    1  0.3145406E-005  0.4743797E+03  0.7818608E-02  0.1020691E+00
          2   -1    0    0  501    0  0.00000000000E+00  0.00000000000E+00  0.62277668286E+03  0.62277668287E+03  0.25500000000E-02 0.  1.
         -2   -1    0    0    0  501 -0.00000000000E+00 -0.00000000000E+00 -0.90335788271E+02  0.90335788307E+02  0.25500000000E-02 0. -1.
    5000001    1    1    2    0    0 -0.10367705633E+02  0.99883090154E+02  0.47315614886E+03  0.51106346203E+03  0.16500000000E+03 0.  0.
   -5000001    1    1    2    0    0  0.10367705633E+02 -0.99883090154E+02  0.59284745730E+02  0.20204900914E+03  0.16500000000E+03 0.  0.
<mgrwt>
<rscale>  0 0.47437969E+03</rscale>
<asrwt>0</asrwt>
<pdfrwt beam="1">  1        2 0.95811799E-01 0.47437969E+03</pdfrwt>
<pdfrwt beam="2">  1       -2 0.13897813E-01 0.47437969E+03</pdfrwt>
<totfact> 0.18851374E+03</totfact>
</mgrwt>
</event>
<event>
 4    1  0.3145406E-005  0.3596001E+03  0.7818608E-02  0.1058742E+00
         -2   -1    0    0    0  501 -0.00000000000E+00  0.00000000000E+00  0.35963665319E+02  0.35963665409E+02  0.25500000000E-02 0. -1.
          2   -1    0    0  501    0  0.00000000000E+00 -0.00000000000E+00 -0.89890890870E+03  0.89890890870E+03  0.25500000000E-02 0.  1.
    5000001    1    1    2    0    0  0.34443432064E+02 -0.40204344926E+02 -0.30678403035E+03  0.35234100051E+03  0.16500000000E+03 0.  0.
   -5000001    1    1    2    0    0 -0.34443432064E+02  0.40204344926E+02 -0.55616121302E+03  0.58253157360E+03  0.16500000000E+03 0.  0.
<mgrwt>
<rscale>  0 0.35960011E+03</rscale>
<asrwt>0</asrwt>
<pdfrwt beam="1">  1        2 0.13829366E+00 0.35960011E+03</pdfrwt>
<pdfrwt beam="2">  1       -2 0.55328723E-02 0.35960011E+03</pdfrwt>
<totfact> 0.51249595E+03</totfact>
</mgrwt>
</event>
<event>
 4    1  0.3145406E-005  0.3771858E+03  0.7818608E-02  0.1051979E+00
          2   -1    0    0  501    0  0.00000000000E+00  0.00000000000E+00  0.44593887361E+03  0.44593887362E+03  0.25500000000E-02 0.  1.
         -2   -1    0    0    0  501 -0.00000000000E+00 -0.00000000000E+00 -0.79758218600E+02  0.79758218641E+02  0.25500000000E-02 0. -1.
    5000001    1    1    2    0    0 -0.68468610844E+02  0.26759428120E+02  0.25863889367E+03  0.31547281180E+03  0.16500000000E+03 0.  0.
   -5000001    1    1    2    0    0  0.68468610844E+02 -0.26759428120E+02  0.10754176134E+03  0.21022428047E+03  0.16500000000E+03 0.  0.
<mgrwt>
<rscale>  0 0.37718584E+03</rscale>
<asrwt>0</asrwt>
<pdfrwt beam="1">  1        2 0.68605980E-01 0.37718584E+03</pdfrwt>
<pdfrwt beam="2">  1       -2 0.12270495E-01 0.37718584E+03</pdfrwt>
<totfact> 0.33919930E+03</totfact>
</mgrwt>
</event>
<event>
 4    1  0.3145406E-005  0.5548436E+03  0.7818608E-02  0.1000379E+00
         -2   -1    0    0    0  501 -0.00000000000E+00  0.00000000000E+00  0.96563614701E+02  0.96563614734E+02  0.25500000000E-02 0. -1.
          2   -1    0    0  501    0  0.00000000000E+00 -0.00000000000E+00 -0.79701703835E+03  0.79701703836E+03  0.25500000000E-02 0.  1.
    5000001    1    1    2    0    0  0.78236920007E+02 -0.78150375314E+02 -0.38314077088E+02  0.20229054678E+03  0.16500000000E+03 0.  0.
   -5000001    1    1    2    0    0 -0.78236920007E+02  0.78150375314E+02 -0.66213934656E+03  0.69129010631E+03  0.16500000000E+03 0.  0.
<mgrwt>
<rscale>  0 0.55484357E+03</rscale>
<asrwt>0</asrwt>
<pdfrwt beam="1">  1        2 0.12261800E+00 0.55484357E+03</pdfrwt>
<pdfrwt beam="2">  1       -2 0.14855941E-01 0.55484357E+03</pdfrwt>
<totfact> 0.12382953E+03</totfact>
</mgrwt>
</event>
<event>
 4    1  0.3145406E-005  0.4088364E+03  0.7818608E-02  0.1040762E+00
         -2   -1    0    0    0  501 -0.00000000000E+00  0.00000000000E+00  0.22390259074E+02  0.22390259219E+02  0.25500000000E-02 0. -1.
          2   -1    0    0  501    0  0.00000000000E+00 -0.00000000000E+00 -0.18662934749E+04  0.18662934749E+04  0.25500000000E-02 0.  1.
    5000001    1    1    2    0    0 -0.14022762493E+02 -0.83685411084E+02 -0.52557781935E+03  0.55736606471E+03  0.16500000000E+03 0.  0.
   -5000001    1    1    2    0    0  0.14022762493E+02  0.83685411084E+02 -0.13183253965E+04  0.13313176694E+04  0.16500000000E+03 0.  0.
<mgrwt>
<rscale>  0 0.40883637E+03</rscale>
<asrwt>0</asrwt>
<pdfrwt beam="1">  1        2 0.28712195E+00 0.40883637E+03</pdfrwt>
<pdfrwt beam="2">  1       -2 0.34446567E-02 0.40883637E+03</pdfrwt>
<totfact> 0.29954204E+03</totfact>
</mgrwt>
</event>
<event>
 4    1  0.3145406E-005  0.4431055E+03  0.7818608E-02  0.1029798E+00
          2   -1    0    0  501    0  0.00000000000E+00  0.00000000000E+00  0.29091391242E+03  0.29091391243E+03  0.25500000000E-02 0.  1.
         -2   -1    0    0    0  501 -0.00000000000E+00 -0.00000000000E+00 -0.16872900528E+03  0.16872900530E+03  0.25500000000E-02 0. -1.
    5000001    1    1    2    0    0 -0.12942670041E+03 -0.60874549313E+02  0.22229095230E+02  0.21949057886E+03  0.16500000000E+03 0.  0.
   -5000001    1    1    2    0    0  0.12942670041E+03  0.60874549313E+02  0.99955811904E+02  0.24015233887E+03  0.16500000000E+03 0.  0.
<mgrwt>
<rscale>  0 0.44310547E+03</rscale>
<asrwt>0</asrwt>
<pdfrwt beam="1">  1        2 0.44755987E-01 0.44310547E+03</pdfrwt>
<pdfrwt beam="2">  1       -2 0.25958309E-01 0.44310547E+03</pdfrwt>
<totfact> 0.15133672E+03</totfact>
</mgrwt>
</event>
<event>
 4    1  0.3145406E-005  0.7969133E+03  0.7818608E-02  0.9564496E-01
          2   -1    0    0  501    0  0.00000000000E+00  0.00000000000E+00  0.14710055374E+04  0.14710055374E+04  0.25500000000E-02 0. -1.
         -2   -1    0    0    0  501 -0.00000000000E+00 -0.00000000000E+00 -0.10793140638E+03  0.10793140641E+03  0.25500000000E-02 0.  1.
    5000001    1    1    2    0    0 -0.60892552340E+01  0.19068261071E+03  0.12926879396E+04  0.13170664548E+04  0.16500000000E+03 0.  0.
   -5000001    1    1    2    0    0  0.60892552340E+01 -0.19068261071E+03  0.70386191333E+02  0.26187048896E+03  0.16500000000E+03 0.  0.
<mgrwt>
<rscale>  0 0.79691329E+03</rscale>
<asrwt>0</asrwt>
<pdfrwt beam="1">  1        2 0.22630853E+00 0.79691329E+03</pdfrwt>
<pdfrwt beam="2">  1       -2 0.16604833E-01 0.79691329E+03</pdfrwt>
<totfact> 0.39211079E+02</totfact>
</mgrwt>
</event>
<event>
 4    1  0.3145406E-005  0.7042290E+03  0.7818608E-02  0.9710027E-01
         -2   -1    0    0    0  501 -0.00000000000E+00  0.00000000000E+00  0.10126787323E+03  0.10126787326E+03  0.25500000000E-02 0. -1.
          2   -1    0    0  501    0  0.00000000000E+00 -0.00000000000E+00 -0.12243233473E+04  0.12243233473E+04  0.25500000000E-02 0.  1.
    5000001    1    1    2    0    0  0.13015008745E+03 -0.26514865595E+03 -0.37789909582E+03  0.50722340407E+03  0.16500000000E+03 0.  0.
   -5000001    1    1    2    0    0 -0.13015008745E+03  0.26514865595E+03 -0.74515637820E+03  0.81836781644E+03  0.16500000000E+03 0.  0.
<mgrwt>
<rscale>  0 0.70422900E+03</rscale>
<asrwt>0</asrwt>
<pdfrwt beam="1">  1        2 0.18835743E+00 0.70422900E+03</pdfrwt>
<pdfrwt beam="2">  1       -2 0.15579674E-01 0.70422900E+03</pdfrwt>
<totfact> 0.60762747E+02</totfact>
</mgrwt>
</event>
<event>
 4    1  0.3145406E-005  0.1037754E+04  0.7818608E-02  0.9268080E-01
         -2   -1    0    0    0  501 -0.00000000000E+00  0.00000000000E+00  0.31005168052E+03  0.31005168053E+03  0.25500000000E-02 0. -1.
          2   -1    0    0  501    0  0.00000000000E+00 -0.00000000000E+00 -0.86834958271E+03  0.86834958271E+03  0.25500000000E-02 0.  1.
    5000001    1    1    2    0    0 -0.36846361512E+03 -0.29942072120E+03 -0.13288994403E+03  0.51990666583E+03  0.16500000000E+03 0.  0.
   -5000001    1    1    2    0    0  0.36846361512E+03  0.29942072120E+03 -0.42540795816E+03  0.65849459741E+03  0.16500000000E+03 0.  0.
<mgrwt>
<rscale>  0 0.10377538E+04</rscale>
<asrwt>0</asrwt>
<pdfrwt beam="1">  1        2 0.13359224E+00 0.10377538E+04</pdfrwt>
<pdfrwt beam="2">  1       -2 0.47700259E-01 0.10377538E+04</pdfrwt>
<totfact> 0.12786375E+02</totfact>
</mgrwt>
</event>
<event>
 4    1  0.3145406E-005  0.4831693E+03  0.7818608E-02  0.1018268E+00
         -2   -1    0    0    0  501 -0.00000000000E+00  0.00000000000E+00  0.20413446611E+02  0.20413446770E+02  0.25500000000E-02 0. -1.
          2   -1    0    0  501    0  0.00000000000E+00 -0.00000000000E+00 -0.28590534360E+04  0.28590534360E+04  0.25500000000E-02 0.  1.
    5000001    1    1    2    0    0 -0.17315876545E+03  0.89405864329E+01 -0.16146477708E+04  0.16322917374E+04  0.16500000000E+03 0.  0.
   -5000001    1    1    2    0    0  0.17315876545E+03 -0.89405864329E+01 -0.12239922186E+04  0.12471751454E+04  0.16500000000E+03 0.  0.
<mgrwt>
<rscale>  0 0.48316927E+03</rscale>
<asrwt>0</asrwt>
<pdfrwt beam="1">  1        2 0.43985406E+00 0.48316927E+03</pdfrwt>
<pdfrwt beam="2">  1       -2 0.31405325E-02 0.48316927E+03</pdfrwt>
<totfact> 0.96787512E+02</totfact>
</mgrwt>
</event>
<event>
 4    1  0.3145406E-005  0.3851478E+03  0.7818608E-02  0.1049047E+00
         -2   -1    0    0    0  501 -0.00000000000E+00  0.00000000000E+00  0.44947141078E+02  0.44947141150E+02  0.25500000000E-02 0. -1.
          2   -1    0    0  501    0  0.00000000000E+00 -0.00000000000E+00 -0.82507393796E+03  0.82507393797E+03  0.25500000000E-02 0.  1.
    5000001    1    1    2    0    0 -0.62938292351E+02  0.15651202637E+02 -0.22021478635E+03  0.28271140924E+03  0.16500000000E+03 0.  0.
   -5000001    1    1    2    0    0  0.62938292351E+02 -0.15651202637E+02 -0.55991201054E+03  0.58730966988E+03  0.16500000000E+03 0.  0.
<mgrwt>
<rscale>  0 0.38514784E+03</rscale>
<asrwt>0</asrwt>
<pdfrwt beam="1">  1        2 0.12693444E+00 0.38514784E+03</pdfrwt>
<pdfrwt beam="2">  1       -2 0.69149454E-02 0.38514784E+03</pdfrwt>
<totfact> 0.40690031E+03</totfact>
</mgrwt>
</event>
<event>
 4    1  0.3145406E-005  0.1310361E+04  0.7818608E-02  0.9021389E-01
         -2   -1    0    0    0  501 -0.00000000000E+00  0.00000000000E+00  0.26817266072E+03  0.26817266073E+03  0.25500000000E-02 0. -1.
          2   -1    0    0  501    0  0.00000000000E+00 -0.00000000000E+00 -0.16006905384E+04  0.16006905384E+04  0.25500000000E-02 0.  1.
    5000001    1    1    2    0    0 -0.47781373617E+03  0.24442156673E+03 -0.11477821577E+04  0.12777623997E+04  0.16500000000E+03 0.  0.
   -5000001    1    1    2    0    0  0.47781373617E+03 -0.24442156673E+03 -0.18473571998E+03  0.59110079935E+03  0.16500000000E+03 0.  0.
<mgrwt>
<rscale>  0 0.13103609E+04</rscale>
<asrwt>0</asrwt>
<pdfrwt beam="1">  1        2 0.24626008E+00 0.13103609E+04</pdfrwt>
<pdfrwt beam="2">  1       -2 0.41257333E-01 0.13103609E+04</pdfrwt>
<totfact> 0.60715949E+01</totfact>
</mgrwt>
</event>
<event>
 4    1  0.3145406E-005  0.1122627E+04  0.7818608E-02  0.9183415E-01
          2   -1    0    0  501    0  0.00000000000E+00  0.00000000000E+00  0.20892343893E+04  0.20892343893E+04  0.25500000000E-02 0.  1.
         -2   -1    0    0    0  501 -0.00000000000E+00 -0.00000000000E+00 -0.15080770492E+03  0.15080770494E+03  0.25500000000E-02 0. -1.
    5000001    1    1    2    0    0 -0.36072331147E+02  0.51522602538E+03  0.12589773450E+04  0.13707691365E+04  0.16500000000E+03 0.  0.
   -5000001    1    1    2    0    0  0.36072331147E+02 -0.51522602538E+03  0.67944933935E+03  0.86927295773E+03  0.16500000000E+03 0.  0.
<mgrwt>
<rscale>  0 0.11226266E+04</rscale>
<asrwt>0</asrwt>
<pdfrwt beam="1">  1        2 0.32142065E+00 0.11226266E+04</pdfrwt>
<pdfrwt beam="2">  1       -2 0.23201187E-01 0.11226266E+04</pdfrwt>
<totfact> 0.97255019E+01</totfact>
</mgrwt>
</event>
<event>
 4    1  0.3145406E-005  0.4296223E+03  0.7818608E-02  0.1033979E+00
         -2   -1    0    0    0  501 -0.00000000000E+00  0.00000000000E+00  0.52000768941E+03  0.52000768942E+03  0.25500000000E-02 0. -1.
          2   -1    0    0  501    0  0.00000000000E+00 -0.00000000000E+00 -0.88736811512E+02  0.88736811549E+02  0.25500000000E-02 0.  1.
    5000001    1    1    2    0    0  0.11085815983E+03  0.75917456743E+02  0.25732863648E+03  0.33391019599E+03  0.16500000000E+03 0.  0.
   -5000001    1    1    2    0    0 -0.11085815983E+03 -0.75917456743E+02  0.17394224142E+03  0.27483430497E+03  0.16500000000E+03 0.  0.
<mgrwt>
<rscale>  0 0.42962227E+03</rscale>
<asrwt>0</asrwt>
<pdfrwt beam="1">  1        2 0.13651817E-01 0.42962227E+03</pdfrwt>
<pdfrwt beam="2">  1       -2 0.80001183E-01 0.42962227E+03</pdfrwt>
<totfact> 0.62571494E+02</totfact>
</mgrwt>
</event>
<event>
 4    1  0.3145406E-005  0.9502775E+03  0.7818608E-02  0.9364826E-01
          2   -1    0    0  501    0  0.00000000000E+00  0.00000000000E+00  0.44616762174E+03  0.44616762174E+03  0.25500000000E-02 0.  1.
         -2   -1    0    0    0  501 -0.00000000000E+00 -0.00000000000E+00 -0.50599103870E+03  0.50599103870E+03  0.25500000000E-02 0. -1.
    5000001    1    1    2    0    0  0.42460729214E+03  0.66868297565E+02 -0.14748579462E+03  0.48346642218E+03  0.16500000000E+03 0.  0.
   -5000001    1    1    2    0    0 -0.42460729214E+03 -0.66868297565E+02  0.87662377654E+02  0.46869223827E+03  0.16500000000E+03 0.  0.
<mgrwt>
<rscale>  0 0.95027747E+03</rscale>
<asrwt>0</asrwt>
<pdfrwt beam="1">  1        2 0.68641172E-01 0.95027747E+03</pdfrwt>
<pdfrwt beam="2">  1       -2 0.77844775E-01 0.95027747E+03</pdfrwt>
<totfact> 0.10339170E+02</totfact>
</mgrwt>
</event>
<event>
 4    1  0.3145406E-005  0.4753788E+03  0.7818608E-02  0.1020413E+00
          2   -1    0    0  501    0  0.00000000000E+00  0.00000000000E+00  0.32700678884E+03  0.32700678885E+03  0.25500000000E-02 0.  1.
         -2   -1    0    0    0  501 -0.00000000000E+00 -0.00000000000E+00 -0.17276784646E+03  0.17276784648E+03  0.25500000000E-02 0. -1.
    5000001    1    1    2    0    0 -0.15249986601E+03  0.35361222737E+02  0.45508084571E+01  0.22749139559E+03  0.16500000000E+03 0.  0.
   -5000001    1    1    2    0    0  0.15249986601E+03 -0.35361222737E+02  0.14968813393E+03  0.27228323975E+03  0.16500000000E+03 0.  0.
<mgrwt>
<rscale>  0 0.47537883E+03</rscale>
<asrwt>0</asrwt>
<pdfrwt beam="1">  1        2 0.50308737E-01 0.47537883E+03</pdfrwt>
<pdfrwt beam="2">  1       -2 0.26579669E-01 0.47537883E+03</pdfrwt>
<totfact> 0.12763214E+03</totfact>
</mgrwt>
</event>
<event>
 4    1  0.3145406E-005  0.6969923E+03  0.7818608E-02  0.9722390E-01
          2   -1    0    0  501    0  0.00000000000E+00  0.00000000000E+00  0.76832480591E+03  0.76832480591E+03  0.25500000000E-02 0.  1.
         -2   -1    0    0    0  501 -0.00000000000E+00 -0.00000000000E+00 -0.15807060540E+03  0.15807060542E+03  0.25500000000E-02 0. -1.
    5000001    1    1    2    0    0  0.19669451327E+03 -0.16993419840E+03  0.88115046835E+02  0.32024307145E+03  0.16500000000E+03 0.  0.
   -5000001    1    1    2    0    0 -0.19669451327E+03  0.16993419840E+03  0.52213915368E+03  0.60615233988E+03  0.16500000000E+03 0.  0.
<mgrwt>
<rscale>  0 0.69699230E+03</rscale>
<asrwt>0</asrwt>
<pdfrwt beam="1">  1        2 0.11820382E+00 0.69699230E+03</pdfrwt>
<pdfrwt beam="2">  1       -2 0.24318555E-01 0.69699230E+03</pdfrwt>
<totfact> 0.55074588E+02</totfact>
</mgrwt>
</event>
<event>
 4    1  0.3145406E-005  0.1004309E+04  0.7818608E-02  0.9303832E-01
          2   -1    0    0  501    0  0.00000000000E+00  0.00000000000E+00  0.34866570801E+04  0.34866570801E+04  0.25500000000E-02 0.  1.
         -2   -1    0    0    0  501 -0.00000000000E+00 -0.00000000000E+00 -0.72321117658E+02  0.72321117703E+02  0.25500000000E-02 0. -1.
    5000001    1    1    2    0    0 -0.12670169547E+03 -0.37388588561E+03  0.77570494334E+03  0.88588212208E+03  0.16500000000E+03 0.  0.
   -5000001    1    1    2    0    0  0.12670169547E+03  0.37388588561E+03  0.26386310191E+04  0.26730960757E+04  0.16500000000E+03 0.  0.
<mgrwt>
<rscale>  0 0.10043086E+04</rscale>
<asrwt>0</asrwt>
<pdfrwt beam="1">  1        2 0.53640870E+00 0.10043086E+04</pdfrwt>
<pdfrwt beam="2">  1       -2 0.11126327E-01 0.10043086E+04</pdfrwt>
<totfact> 0.49787403E+01</totfact>
</mgrwt>
</event>
<event>
 4    1  0.3145406E-005  0.6663136E+03  0.7818608E-02  0.9776640E-01
          2   -1    0    0  501    0  0.00000000000E+00  0.00000000000E+00  0.16286757225E+04  0.16286757225E+04  0.25500000000E-02 0.  1.
         -2   -1    0    0    0  501 -0.00000000000E+00 -0.00000000000E+00 -0.68149516470E+02  0.68149516518E+02  0.25500000000E-02 0. -1.
    5000001    1    1    2    0    0 -0.19386461950E+03  0.78752771167E+02  0.12894719760E+04  0.13167188259E+04  0.16500000000E+03 0.  0.
   -5000001    1    1    2    0    0  0.19386461950E+03 -0.78752771167E+02  0.27105423004E+03  0.38010641310E+03  0.16500000000E+03 0.  0.
<mgrwt>
<rscale>  0 0.66631363E+03</rscale>
<asrwt>0</asrwt>
<pdfrwt beam="1">  1        2 0.25056549E+00 0.66631363E+03</pdfrwt>
<pdfrwt beam="2">  1       -2 0.10484541E-01 0.66631363E+03</pdfrwt>
<totfact> 0.69619710E+02</totfact>
</mgrwt>
</event>
<event>
 4    1  0.3145406E-005  0.5646035E+03  0.7818608E-02  0.9981692E-01
          2   -1    0    0  501    0  0.00000000000E+00  0.00000000000E+00  0.55947522132E+03  0.55947522132E+03  0.25500000000E-02 0.  1.
         -2   -1    0    0    0  501 -0.00000000000E+00 -0.00000000000E+00 -0.14244467278E+03  0.14244467280E+03  0.25500000000E-02 0. -1.
    5000001    1    1    2    0    0  0.20335334748E+03  0.70227644200E+02  0.30628522776E+03  0.40904785378E+03  0.16500000000E+03 0.  0.
   -5000001    1    1    2    0    0 -0.20335334748E+03 -0.70227644200E+02  0.11074532078E+03  0.29287204034E+03  0.16500000000E+03 0.  0.
<mgrwt>
<rscale>  0 0.56460345E+03</rscale>
<asrwt>0</asrwt>
<pdfrwt beam="1">  1        2 0.86073111E-01 0.56460345E+03</pdfrwt>
<pdfrwt beam="2">  1       -2 0.21914565E-01 0.56460345E+03</pdfrwt>
<totfact> 0.98274076E+02</totfact>
</mgrwt>
</event>
<event>
 4    1  0.3145406E-005  0.3620502E+03  0.7818608E-02  0.1057775E+00
          2   -1    0    0  501    0  0.00000000000E+00  0.00000000000E+00  0.17516008599E+04  0.17516008599E+04  0.25500000000E-02 0.  1.
         -2   -1    0    0    0  501 -0.00000000000E+00 -0.00000000000E+00 -0.18708647647E+02  0.18708647820E+02  0.25500000000E-02 0. -1.
    5000001    1    1    2    0    0 -0.21080064187E+02  0.37127938478E+02  0.11647658973E+04  0.11771692522E+04  0.16500000000E+03 0.  0.
   -5000001    1    1    2    0    0  0.21080064187E+02 -0.37127938478E+02  0.56812631493E+03  0.59314025545E+03  0.16500000000E+03 0.  0.
<mgrwt>
<rscale>  0 0.36205018E+03</rscale>
<asrwt>0</asrwt>
<pdfrwt beam="1">  1        2 0.26947711E+00 0.36205018E+03</pdfrwt>
<pdfrwt beam="2">  1       -2 0.28782529E-02 0.36205018E+03</pdfrwt>
<totfact> 0.45230542E+03</totfact>
</mgrwt>
</event>
<event>
 4    1  0.3145406E-005  0.5335870E+03  0.7818608E-02  0.1005366E+00
          2   -1    0    0  501    0  0.00000000000E+00  0.00000000000E+00  0.33683170505E+04  0.33683170505E+04  0.25500000000E-02 0.  1.
         -2   -1    0    0    0  501 -0.00000000000E+00 -0.00000000000E+00 -0.21131846432E+02  0.21131846586E+02  0.25500000000E-02 0. -1.
    5000001    1    1    2    0    0 -0.45422912044E+02 -0.19658948197E+03  0.13118466939E+04  0.13374892200E+04  0.16500000000E+03 0.  0.
   -5000001    1    1    2    0    0  0.45422912044E+02  0.19658948197E+03  0.20353385102E+04  0.20519596771E+04  0.16500000000E+03 0.  0.
<mgrwt>
<rscale>  0 0.53358695E+03</rscale>
<asrwt>0</asrwt>
<pdfrwt beam="1">  1        2 0.51820291E+00 0.53358695E+03</pdfrwt>
<pdfrwt beam="2">  1       -2 0.32510515E-02 0.53358695E+03</pdfrwt>
<totfact> 0.44146327E+02</totfact>
</mgrwt>
</event>
<event>
 4    1  0.3145406E-005  0.7879163E+03  0.7818608E-02  0.9577674E-01
         -2   -1    0    0    0  501 -0.00000000000E+00  0.00000000000E+00  0.12096205686E+03  0.12096205688E+03  0.25500000000E-02 0. -1.
          2   -1    0    0  501    0  0.00000000000E+00 -0.00000000000E+00 -0.12830718779E+04  0.12830718779E+04  0.25500000000E-02 0.  1.
    5000001    1    1    2    0    0 -0.21412506911E+03 -0.24093780310E+03 -0.30455008275E+03  0.47315570702E+03  0.16500000000E+03 0.  0.
   -5000001    1    1    2    0    0  0.21412506911E+03  0.24093780310E+03 -0.85755973830E+03  0.93087822777E+03  0.16500000000E+03 0.  0.
<mgrwt>
<rscale>  0 0.78791627E+03</rscale>
<asrwt>0</asrwt>
<pdfrwt beam="1">  1        2 0.19739566E+00 0.78791627E+03</pdfrwt>
<pdfrwt beam="2">  1       -2 0.18609548E-01 0.78791627E+03</pdfrwt>
<totfact> 0.41234658E+02</totfact>
</mgrwt>
</event>
<event>
 4    1  0.3145406E-005  0.4727599E+03  0.7818608E-02  0.1021144E+00
          2   -1    0    0  501    0  0.00000000000E+00  0.00000000000E+00  0.34711915522E+04  0.34711915522E+04  0.25500000000E-02 0.  1.
         -2   -1    0    0    0  501 -0.00000000000E+00 -0.00000000000E+00 -0.16096919726E+02  0.16096919928E+02  0.25500000000E-02 0. -1.
    5000001    1    1    2    0    0 -0.13416408339E+03  0.37768100946E+02  0.24359958251E+04  0.24455525124E+04  0.16500000000E+03 0.  0.
   -5000001    1    1    2    0    0  0.13416408339E+03 -0.37768100946E+02  0.10190988073E+04  0.10417359597E+04  0.16500000000E+03 0.  0.
<mgrwt>
<rscale>  0 0.47275995E+03</rscale>
<asrwt>0</asrwt>
<pdfrwt beam="1">  1        2 0.53402946E+00 0.47275995E+03</pdfrwt>
<pdfrwt beam="2">  1       -2 0.24764493E-02 0.47275995E+03</pdfrwt>
<totfact> 0.57438471E+02</totfact>
</mgrwt>
</event>
<event>
 4    1  0.3145406E-005  0.4228459E+03  0.7818608E-02  0.1036144E+00
          2   -1    0    0  501    0  0.00000000000E+00  0.00000000000E+00  0.59546529863E+03  0.59546529864E+03  0.25500000000E-02 0.  1.
         -2   -1    0    0    0  501 -0.00000000000E+00 -0.00000000000E+00 -0.75066794336E+02  0.75066794380E+02  0.25500000000E-02 0. -1.
    5000001    1    1    2    0    0  0.41760588269E+02 -0.12519264587E+03  0.24817193439E+03  0.32593167126E+03  0.16500000000E+03 0.  0.
   -5000001    1    1    2    0    0 -0.41760588269E+02  0.12519264587E+03  0.27222656991E+03  0.34460042176E+03  0.16500000000E+03 0.  0.
<mgrwt>
<rscale>  0 0.42284593E+03</rscale>
<asrwt>0</asrwt>
<pdfrwt beam="1">  1        2 0.91610042E-01 0.42284593E+03</pdfrwt>
<pdfrwt beam="2">  1       -2 0.11548738E-01 0.42284593E+03</pdfrwt>
<totfact> 0.26942468E+03</totfact>
</mgrwt>
</event>
<event>
 4    1  0.3145406E-005  0.5949007E+03  0.7818608E-02  0.9916042E-01
          2   -1    0    0  501    0  0.00000000000E+00  0.00000000000E+00  0.33565621542E+04  0.33565621542E+04  0.25500000000E-02 0.  1.
         -2   -1    0    0    0  501 -0.00000000000E+00 -0.00000000000E+00 -0.26359321193E+02  0.26359321317E+02  0.25500000000E-02 0. -1.
    5000001    1    1    2    0    0 -0.12943528792E+03  0.13279312598E+03  0.73306183756E+03  0.77394584161E+03  0.16500000000E+03 0.  0.
   -5000001    1    1    2    0    0  0.12943528792E+03 -0.13279312598E+03  0.25971409955E+04  0.26089756339E+04  0.16500000000E+03 0.  0.
<mgrwt>
<rscale>  0 0.59490066E+03</rscale>
<asrwt>0</asrwt>
<pdfrwt beam="1">  1        2 0.51639368E+00 0.59490066E+03</pdfrwt>
<pdfrwt beam="2">  1       -2 0.40552841E-02 0.59490066E+03</pdfrwt>
<totfact> 0.31785952E+02</totfact>
</mgrwt>
</event>
<event>
 4    1  0.3145406E-005  0.5013299E+03  0.7818608E-02  0.1013432E+00
          2   -1    0    0  501    0  0.00000000000E+00  0.00000000000E+00  0.11006830041E+03  0.11006830044E+03  0.25500000000E-02 0.  1.
         -2   -1    0    0    0  501 -0.00000000000E+00 -0.00000000000E+00 -0.57085387334E+03  0.57085387335E+03  0.25500000000E-02 0. -1.
    5000001    1    1    2    0    0  0.11276906102E+03 -0.11037735161E+03 -0.89844381283E+02  0.24535083803E+03  0.16500000000E+03 0.  0.
   -5000001    1    1    2    0    0 -0.11276906102E+03  0.11037735161E+03 -0.37094119165E+03  0.43557133576E+03  0.16500000000E+03 0.  0.
<mgrwt>
<rscale>  0 0.50132989E+03</rscale>
<asrwt>0</asrwt>
<pdfrwt beam="1">  1        2 0.16933585E-01 0.50132989E+03</pdfrwt>
<pdfrwt beam="2">  1       -2 0.87823671E-01 0.50132989E+03</pdfrwt>
<totfact> 0.39126042E+02</totfact>
</mgrwt>
</event>
<event>
 4    1  0.3145406E-005  0.4014055E+03  0.7818608E-02  0.1043294E+00
          2   -1    0    0  501    0  0.00000000000E+00  0.00000000000E+00  0.12021002770E+04  0.12021002770E+04  0.25500000000E-02 0.  1.
         -2   -1    0    0    0  501 -0.00000000000E+00 -0.00000000000E+00 -0.33509347672E+02  0.33509347769E+02  0.25500000000E-02 0. -1.
    5000001    1    1    2    0    0 -0.86364783100E+02  0.67290575205E+02  0.68497210802E+03  0.71302081739E+03  0.16500000000E+03 0.  0.
   -5000001    1    1    2    0    0  0.86364783100E+02 -0.67290575205E+02  0.48361882127E+03  0.52258880734E+03  0.16500000000E+03 0.  0.
<mgrwt>
<rscale>  0 0.40140551E+03</rscale>
<asrwt>0</asrwt>
<pdfrwt beam="1">  1        2 0.18493848E+00 0.40140551E+03</pdfrwt>
<pdfrwt beam="2">  1       -2 0.51552849E-02 0.40140551E+03</pdfrwt>
<totfact> 0.37353264E+03</totfact>
</mgrwt>
</event>
<event>
 4    1  0.3145406E-005  0.4556538E+03  0.7818608E-02  0.1026049E+00
         -2   -1    0    0    0  501 -0.00000000000E+00  0.00000000000E+00  0.12925385553E+02  0.12925385804E+02  0.25500000000E-02 0. -1.
          2   -1    0    0  501    0  0.00000000000E+00 -0.00000000000E+00 -0.40157491705E+04  0.40157491705E+04  0.25500000000E-02 0.  1.
    5000001    1    1    2    0    0  0.11909566426E+03 -0.87369664296E+02 -0.24744847819E+04  0.24843746036E+04  0.16500000000E+03 0.  0.
   -5000001    1    1    2    0    0 -0.11909566426E+03  0.87369664296E+02 -0.15283390030E+04  0.15442999526E+04  0.16500000000E+03 0.  0.
<mgrwt>
<rscale>  0 0.45565385E+03</rscale>
<asrwt>0</asrwt>
<pdfrwt beam="1">  1        2 0.61780657E+00 0.45565385E+03</pdfrwt>
<pdfrwt beam="2">  1       -2 0.19885241E-02 0.45565385E+03</pdfrwt>
<totfact> 0.32395391E+02</totfact>
</mgrwt>
</event>
<event>
 4    1  0.3145406E-005  0.8177292E+03  0.7818608E-02  0.9534703E-01
         -2   -1    0    0    0  501 -0.00000000000E+00  0.00000000000E+00  0.18728375977E+03  0.18728375979E+03  0.25500000000E-02 0. -1.
          2   -1    0    0  501    0  0.00000000000E+00 -0.00000000000E+00 -0.89260421400E+03  0.89260421400E+03  0.25500000000E-02 0.  1.
    5000001    1    1    2    0    0  0.89501010105E+02  0.36155555824E+03 -0.30667738047E+03  0.50991064727E+03  0.16500000000E+03 0.  0.
   -5000001    1    1    2    0    0 -0.89501010105E+02 -0.36155555824E+03 -0.39864307376E+03  0.56997732653E+03  0.16500000000E+03 0.  0.
<mgrwt>
<rscale>  0 0.81772923E+03</rscale>
<asrwt>0</asrwt>
<pdfrwt beam="1">  1        2 0.13732372E+00 0.81772923E+03</pdfrwt>
<pdfrwt beam="2">  1       -2 0.28812887E-01 0.81772923E+03</pdfrwt>
<totfact> 0.32912797E+02</totfact>
</mgrwt>
</event>
<event>
 4    1  0.3145406E-005  0.4923453E+03  0.7818608E-02  0.1015796E+00
          2   -1    0    0  501    0  0.00000000000E+00  0.00000000000E+00  0.39945845401E+03  0.39945845402E+03  0.25500000000E-02 0.  1.
         -2   -1    0    0    0  501 -0.00000000000E+00 -0.00000000000E+00 -0.15170780872E+03  0.15170780874E+03  0.25500000000E-02 0. -1.
    5000001    1    1    2    0    0  0.16134507259E+03 -0.29419697378E+02  0.21397859345E+03  0.31608478214E+03  0.16500000000E+03 0.  0.
   -5000001    1    1    2    0    0 -0.16134507259E+03  0.29419697378E+02  0.33772051841E+02  0.23508148062E+03  0.16500000000E+03 0.  0.
<mgrwt>
<rscale>  0 0.49234527E+03</rscale>
<asrwt>0</asrwt>
<pdfrwt beam="1">  1        2 0.61455146E-01 0.49234527E+03</pdfrwt>
<pdfrwt beam="2">  1       -2 0.23339663E-01 0.49234527E+03</pdfrwt>
<totfact> 0.12911157E+03</totfact>
</mgrwt>
</event>
<event>
 4    1  0.3145406E-005  0.3679880E+03  0.7818608E-02  0.1055465E+00
         -2   -1    0    0    0  501 -0.00000000000E+00  0.00000000000E+00  0.16852276874E+02  0.16852277067E+02  0.25500000000E-02 0. -1.
          2   -1    0    0  501    0  0.00000000000E+00 -0.00000000000E+00 -0.20088555033E+04  0.20088555033E+04  0.25500000000E-02 0.  1.
    5000001    1    1    2    0    0 -0.15933142844E+02  0.79056616443E+02 -0.10575413928E+04  0.10733697457E+04  0.16500000000E+03 0.  0.
   -5000001    1    1    2    0    0  0.15933142844E+02 -0.79056616443E+02 -0.93446183365E+03  0.95233803463E+03  0.16500000000E+03 0.  0.
<mgrwt>
<rscale>  0 0.36798799E+03</rscale>
<asrwt>0</asrwt>
<pdfrwt beam="1">  1        2 0.30905450E+00 0.36798799E+03</pdfrwt>
<pdfrwt beam="2">  1       -2 0.25926596E-02 0.36798799E+03</pdfrwt>
<totfact> 0.38606279E+03</totfact>
</mgrwt>
</event>
<event>
 4    1  0.3145406E-005  0.4112352E+03  0.7818608E-02  0.1039957E+00
          2   -1    0    0  501    0  0.00000000000E+00  0.00000000000E+00  0.74428066727E+03  0.74428066728E+03  0.25500000000E-02 0.  1.
         -2   -1    0    0    0  501 -0.00000000000E+00 -0.00000000000E+00 -0.56804633593E+02  0.56804633651E+02  0.25500000000E-02 0. -1.
    5000001    1    1    2    0    0  0.10937543250E+03  0.55438420517E+02  0.35181385302E+03  0.40747317811E+03  0.16500000000E+03 0.  0.
   -5000001    1    1    2    0    0 -0.10937543250E+03 -0.55438420517E+02  0.33566218066E+03  0.39361212282E+03  0.16500000000E+03 0.  0.
<mgrwt>
<rscale>  0 0.41123517E+03</rscale>
<asrwt>0</asrwt>
<pdfrwt beam="1">  1        2 0.11450472E+00 0.41123517E+03</pdfrwt>
<pdfrwt beam="2">  1       -2 0.87391745E-02 0.41123517E+03</pdfrwt>
<totfact> 0.32141222E+03</totfact>
</mgrwt>
</event>
<event>
 4    1  0.3145406E-005  0.4701215E+03  0.7818608E-02  0.1021886E+00
         -2   -1    0    0    0  501 -0.00000000000E+00  0.00000000000E+00  0.76096475122E+02  0.76096475165E+02  0.25500000000E-02 0. -1.
          2   -1    0    0  501    0  0.00000000000E+00 -0.00000000000E+00 -0.72609862413E+03  0.72609862414E+03  0.25500000000E-02 0.  1.
    5000001    1    1    2    0    0  0.39620779635E+02  0.90951849751E+02 -0.94886299572E+02  0.21464029211E+03  0.16500000000E+03 0.  0.
   -5000001    1    1    2    0    0 -0.39620779635E+02 -0.90951849751E+02 -0.55511584944E+03  0.58755480719E+03  0.16500000000E+03 0.  0.
<mgrwt>
<rscale>  0 0.47012146E+03</rscale>
<asrwt>0</asrwt>
<pdfrwt beam="1">  1        2 0.11170748E+00 0.47012146E+03</pdfrwt>
<pdfrwt beam="2">  1       -2 0.11707151E-01 0.47012146E+03</pdfrwt>
<totfact> 0.20715621E+03</totfact>
</mgrwt>
</event>
<event>
 4    1  0.3145406E-005  0.5682587E+03  0.7818608E-02  0.9973539E-01
          2   -1    0    0  501    0  0.00000000000E+00  0.00000000000E+00  0.17718789561E+04  0.17718789561E+04  0.25500000000E-02 0.  1.
         -2   -1    0    0    0  501 -0.00000000000E+00 -0.00000000000E+00 -0.45561512491E+02  0.45561512562E+02  0.25500000000E-02 0. -1.
    5000001    1    1    2    0    0  0.20928088683E+03 -0.85535099733E+02  0.70681168687E+03  0.76021214380E+03  0.16500000000E+03 0.  0.
   -5000001    1    1    2    0    0 -0.20928088683E+03  0.85535099733E+02  0.10195057567E+04  0.10572283249E+04  0.16500000000E+03 0.  0.
<mgrwt>
<rscale>  0 0.56825869E+03</rscale>
<asrwt>0</asrwt>
<pdfrwt beam="1">  1        2 0.27259670E+00 0.56825869E+03</pdfrwt>
<pdfrwt beam="2">  1       -2 0.70094650E-02 0.56825869E+03</pdfrwt>
<totfact> 0.11160444E+03</totfact>
</mgrwt>
</event>
<event>
 4    1  0.3145406E-005  0.3735224E+03  0.7818608E-02  0.1053354E+00
          2   -1    0    0  501    0  0.00000000000E+00  0.00000000000E+00  0.86860354158E+03  0.86860354158E+03  0.25500000000E-02 0.  1.
         -2   -1    0    0    0  501 -0.00000000000E+00 -0.00000000000E+00 -0.40156120936E+02  0.40156121017E+02  0.25500000000E-02 0. -1.
    5000001    1    1    2    0    0  0.35677750165E+02  0.73933589514E+02  0.34060262894E+03  0.38726506215E+03  0.16500000000E+03 0.  0.
   -5000001    1    1    2    0    0 -0.35677750165E+02 -0.73933589514E+02  0.48784479170E+03  0.52149460045E+03  0.16500000000E+03 0.  0.
<mgrwt>
<rscale>  0 0.37352242E+03</rscale>
<asrwt>0</asrwt>
<pdfrwt beam="1">  1        2 0.13363131E+00 0.37352242E+03</pdfrwt>
<pdfrwt beam="2">  1       -2 0.61778650E-02 0.37352242E+03</pdfrwt>
<totfact> 0.45288337E+03</totfact>
</mgrwt>
</event>
<event>
 4    1  0.3145406E-005  0.4975975E+03  0.7818608E-02  0.1014408E+00
         -2   -1    0    0    0  501 -0.00000000000E+00  0.00000000000E+00  0.16526218224E+03  0.16526218226E+03  0.25500000000E-02 0. -1.
          2   -1    0    0  501    0  0.00000000000E+00 -0.00000000000E+00 -0.37456128193E+03  0.37456128194E+03  0.25500000000E-02 0.  1.
    5000001    1    1    2    0    0  0.10813498908E+03 -0.97852723984E+02  0.20967101802E+02  0.22120793569E+03  0.16500000000E+03 0.  0.
   -5000001    1    1    2    0    0 -0.10813498908E+03  0.97852723984E+02 -0.23026620149E+03  0.31861552851E+03  0.16500000000E+03 0.  0.
<mgrwt>
<rscale>  0 0.49759749E+03</rscale>
<asrwt>0</asrwt>
<pdfrwt beam="1">  1        2 0.57624812E-01 0.49759749E+03</pdfrwt>
<pdfrwt beam="2">  1       -2 0.25424951E-01 0.49759749E+03</pdfrwt>
<totfact> 0.11904201E+03</totfact>
</mgrwt>
</event>
<event>
 4    1  0.3145406E-005  0.3515559E+03  0.7818608E-02  0.1061978E+00
         -2   -1    0    0    0  501 -0.00000000000E+00  0.00000000000E+00  0.12857786654E+03  0.12857786656E+03  0.25500000000E-02 0. -1.
          2   -1    0    0  501    0  0.00000000000E+00 -0.00000000000E+00 -0.24030488142E+03  0.24030488143E+03  0.25500000000E-02 0.  1.
    5000001    1    1    2    0    0 -0.49736314819E+02 -0.31258631520E+02 -0.40226470598E+02  0.17970523641E+03  0.16500000000E+03 0.  0.
   -5000001    1    1    2    0    0  0.49736314819E+02  0.31258631520E+02 -0.71500544284E+02  0.18917751158E+03  0.16500000000E+03 0.  0.
<mgrwt>
<rscale>  0 0.35155591E+03</rscale>
<asrwt>0</asrwt>
<pdfrwt beam="1">  1        2 0.36969982E-01 0.35155591E+03</pdfrwt>
<pdfrwt beam="2">  1       -2 0.19781210E-01 0.35155591E+03</pdfrwt>
<totfact> 0.29953130E+03</totfact>
</mgrwt>
</event>
<event>
 4    1  0.3145406E-005  0.3900258E+03  0.7818608E-02  0.1047289E+00
         -2   -1    0    0    0  501 -0.00000000000E+00  0.00000000000E+00  0.10093571314E+02  0.10093571636E+02  0.25500000000E-02 0. -1.
          2   -1    0    0  501    0  0.00000000000E+00 -0.00000000000E+00 -0.37677475512E+04  0.37677475512E+04  0.25500000000E-02 0.  1.
    5000001    1    1    2    0    0 -0.25622546438E+02 -0.97891205072E+02 -0.21092320050E+04  0.21180943921E+04  0.16500000000E+03 0.  0.
   -5000001    1    1    2    0    0  0.25622546438E+02  0.97891205072E+02 -0.16484219748E+04  0.16597467307E+04  0.16500000000E+03 0.  0.
<mgrwt>
<rscale>  0 0.39002579E+03</rscale>
<asrwt>0</asrwt>
<pdfrwt beam="1">  1        2 0.57965235E+00 0.39002579E+03</pdfrwt>
<pdfrwt beam="2">  1       -2 0.15528602E-02 0.39002579E+03</pdfrwt>
<totfact> 0.72672239E+02</totfact>
</mgrwt>
</event>
<event>
 4    1  0.3145406E-005  0.4228697E+03  0.7818608E-02  0.1036136E+00
         -2   -1    0    0    0  501 -0.00000000000E+00  0.00000000000E+00  0.14594602419E+03  0.14594602421E+03  0.25500000000E-02 0. -1.
          2   -1    0    0  501    0  0.00000000000E+00 -0.00000000000E+00 -0.30630985633E+03  0.30630985634E+03  0.25500000000E-02 0.  1.
    5000001    1    1    2    0    0 -0.74391128021E+02  0.86463876103E+02 -0.15168339764E+03  0.25148140074E+03  0.16500000000E+03 0.  0.
   -5000001    1    1    2    0    0  0.74391128021E+02 -0.86463876103E+02 -0.86804345058E+01  0.20077447981E+03  0.16500000000E+03 0.  0.
<mgrwt>
<rscale>  0 0.42286975E+03</rscale>
<asrwt>0</asrwt>
<pdfrwt beam="1">  1        2 0.47124593E-01 0.42286975E+03</pdfrwt>
<pdfrwt beam="2">  1       -2 0.22453234E-01 0.42286975E+03</pdfrwt>
<totfact> 0.18497421E+03</totfact>
</mgrwt>
</event>
<event>
 4    1  0.3145406E-005  0.5047591E+03  0.7818608E-02  0.1012544E+00
          2   -1    0    0  501    0  0.00000000000E+00  0.00000000000E+00  0.38654109225E+03  0.38654109226E+03  0.25500000000E-02 0.  1.
         -2   -1    0    0    0  501 -0.00000000000E+00 -0.00000000000E+00 -0.16478310029E+03  0.16478310031E+03  0.25500000000E-02 0. -1.
    5000001    1    1    2    0    0  0.13933511174E+03  0.80511369792E+02  0.22319568559E+03  0.32083900650E+03  0.16500000000E+03 0.  0.
   -5000001    1    1    2    0    0 -0.13933511174E+03 -0.80511369792E+02 -0.14376936295E+01  0.23048518606E+03  0.16500000000E+03 0.  0.
<mgrwt>
<rscale>  0 0.50475911E+03</rscale>
<asrwt>0</asrwt>
<pdfrwt beam="1">  1        2 0.59467860E-01 0.50475911E+03</pdfrwt>
<pdfrwt beam="2">  1       -2 0.25351246E-01 0.50475911E+03</pdfrwt>
<totfact> 0.11556295E+03</totfact>
</mgrwt>
</event>
<event>
 4    1  0.3145406E-005  0.5589884E+03  0.7818608E-02  0.9994346E-01
          2   -1    0    0  501    0  0.00000000000E+00  0.00000000000E+00  0.25053577911E+03  0.25053577913E+03  0.25500000000E-02 0.  1.
         -2   -1    0    0    0  501 -0.00000000000E+00 -0.00000000000E+00 -0.31179981178E+03  0.31179981179E+03  0.25500000000E-02 0. -1.
    5000001    1    1    2    0    0  0.16643347231E+03  0.99932884384E+02  0.84970516121E+02  0.26857339909E+03  0.16500000000E+03 0.  0.
   -5000001    1    1    2    0    0 -0.16643347231E+03 -0.99932884384E+02 -0.14623454879E+03  0.29376219183E+03  0.16500000000E+03 0.  0.
<mgrwt>
<rscale>  0 0.55898840E+03</rscale>
<asrwt>0</asrwt>
<pdfrwt beam="1">  1        2 0.38543966E-01 0.55898840E+03</pdfrwt>
<pdfrwt beam="2">  1       -2 0.47969202E-01 0.55898840E+03</pdfrwt>
<totfact> 0.55697921E+02</totfact>
</mgrwt>
</event>
<event>
 4    1  0.3145406E-005  0.5037527E+03  0.7818608E-02  0.1012804E+00
         -2   -1    0    0    0  501 -0.00000000000E+00  0.00000000000E+00  0.47718546270E+02  0.47718546338E+02  0.25500000000E-02 0.  1.
          2   -1    0    0  501    0  0.00000000000E+00 -0.00000000000E+00 -0.13294975668E+04  0.13294975668E+04  0.25500000000E-02 0. -1.
    5000001    1    1    2    0    0 -0.14454091376E+03  0.69283644607E+02 -0.36042156523E+03  0.42757572878E+03  0.16500000000E+03 0.  0.
   -5000001    1    1    2    0    0  0.14454091376E+03 -0.69283644607E+02 -0.92135745526E+03  0.94964038432E+03  0.16500000000E+03 0.  0.
<mgrwt>
<rscale>  0 0.50375268E+03</rscale>
<asrwt>0</asrwt>
<pdfrwt beam="1">  1        2 0.20453806E+00 0.50375268E+03</pdfrwt>
<pdfrwt beam="2">  1       -2 0.73413158E-02 0.50375268E+03</pdfrwt>
<totfact> 0.18194118E+03</totfact>
</mgrwt>
</event>
<event>
 4    1  0.3145406E-005  0.8052353E+03  0.7818608E-02  0.9552470E-01
          2   -1    0    0  501    0  0.00000000000E+00  0.00000000000E+00  0.19640801704E+04  0.19640801704E+04  0.25500000000E-02 0.  1.
         -2   -1    0    0    0  501 -0.00000000000E+00 -0.00000000000E+00 -0.82532758384E+02  0.82532758423E+02  0.25500000000E-02 0. -1.
    5000001    1    1    2    0    0  0.20048765880E+03 -0.20255489449E+03  0.35205671769E+03  0.48207128008E+03  0.16500000000E+03 0.  0.
   -5000001    1    1    2    0    0 -0.20048765880E+03  0.20255489449E+03  0.15294906944E+04  0.15645416488E+04  0.16500000000E+03 0.  0.
<mgrwt>
<rscale>  0 0.80523526E+03</rscale>
<asrwt>0</asrwt>
<pdfrwt beam="1">  1        2 0.30216619E+00 0.80523526E+03</pdfrwt>
<pdfrwt beam="2">  1       -2 0.12697347E-01 0.80523526E+03</pdfrwt>
<totfact> 0.33019478E+02</totfact>
</mgrwt>
</event>
<event>
 4    1  0.3145406E-005  0.5926499E+03  0.7818608E-02  0.9920774E-01
         -2   -1    0    0    0  501 -0.00000000000E+00  0.00000000000E+00  0.14505889181E+03  0.14505889183E+03  0.25500000000E-02 0. -1.
          2   -1    0    0  501    0  0.00000000000E+00 -0.00000000000E+00 -0.60532982337E+03  0.60532982337E+03  0.25500000000E-02 0.  1.
    5000001    1    1    2    0    0  0.24171555078E+03  0.12763534421E+02 -0.17359389425E+03  0.34051307672E+03  0.16500000000E+03 0.  0.
   -5000001    1    1    2    0    0 -0.24171555078E+03 -0.12763534421E+02 -0.28667703731E+03  0.40987563848E+03  0.16500000000E+03 0.  0.
<mgrwt>
<rscale>  0 0.59264989E+03</rscale>
<asrwt>0</asrwt>
<pdfrwt beam="1">  1        2 0.93127664E-01 0.59264989E+03</pdfrwt>
<pdfrwt beam="2">  1       -2 0.22316753E-01 0.59264989E+03</pdfrwt>
<totfact> 0.86634057E+02</totfact>
</mgrwt>
</event>
<event>
 4    1  0.3145406E-005  0.5093649E+03  0.7818608E-02  0.1011363E+00
         -2   -1    0    0    0  501 -0.00000000000E+00  0.00000000000E+00  0.16309225776E+03  0.16309225778E+03  0.25500000000E-02 0. -1.
          2   -1    0    0  501    0  0.00000000000E+00 -0.00000000000E+00 -0.39770837425E+03  0.39770837426E+03  0.25500000000E-02 0.  1.
    5000001    1    1    2    0    0 -0.80454318587E+02 -0.68808882985E+02 -0.29629977947E+03  0.35528315337E+03  0.16500000000E+03 0.  0.
   -5000001    1    1    2    0    0  0.80454318587E+02  0.68808882985E+02  0.61683662979E+02  0.20551747866E+03  0.16500000000E+03 0.  0.
<mgrwt>
<rscale>  0 0.50936492E+03</rscale>
<asrwt>0</asrwt>
<pdfrwt beam="1">  1        2 0.61185903E-01 0.50936492E+03</pdfrwt>
<pdfrwt beam="2">  1       -2 0.25091117E-01 0.50936492E+03</pdfrwt>
<totfact> 0.11405337E+03</totfact>
</mgrwt>
</event>
<event>
 4    1  0.3145406E-005  0.3497291E+03  0.7818608E-02  0.1062726E+00
         -2   -1    0    0    0  501 -0.00000000000E+00  0.00000000000E+00  0.30546304462E+02  0.30546304569E+02  0.25500000000E-02 0. -1.
          2   -1    0    0  501    0  0.00000000000E+00 -0.00000000000E+00 -0.10010246772E+04  0.10010246772E+04  0.25500000000E-02 0.  1.
    5000001    1    1    2    0    0  0.46610647164E+02  0.10344963849E+02 -0.58186076193E+03  0.60668485804E+03  0.16500000000E+03 0.  0.
   -5000001    1    1    2    0    0 -0.46610647164E+02 -0.10344963849E+02 -0.38861761080E+03  0.42488612372E+03  0.16500000000E+03 0.  0.
<mgrwt>
<rscale>  0 0.34972906E+03</rscale>
<asrwt>0</asrwt>
<pdfrwt beam="1">  1        2 0.15400377E+00 0.34972906E+03</pdfrwt>
<pdfrwt beam="2">  1       -2 0.46994322E-02 0.34972906E+03</pdfrwt>
<totfact> 0.56656697E+03</totfact>
</mgrwt>
</event>
<event>
 4    1  0.3145406E-005  0.5733646E+03  0.7818608E-02  0.9962261E-01
          2   -1    0    0  501    0  0.00000000000E+00  0.00000000000E+00  0.25421415068E+04  0.25421415068E+04  0.25500000000E-02 0.  1.
         -2   -1    0    0    0  501 -0.00000000000E+00 -0.00000000000E+00 -0.32329727854E+02  0.32329727955E+02  0.25500000000E-02 0. -1.
    5000001    1    1    2    0    0  0.18623594440E+03  0.11233349458E+03  0.86194792507E+03  0.90414703811E+03  0.16500000000E+03 0.  0.
   -5000001    1    1    2    0    0 -0.18623594440E+03 -0.11233349458E+03  0.16478638539E+04  0.16703241967E+04  0.16500000000E+03 0.  0.
<mgrwt>
<rscale>  0 0.57336461E+03</rscale>
<asrwt>0</asrwt>
<pdfrwt beam="1">  1        2 0.39109879E+00 0.57336461E+03</pdfrwt>
<pdfrwt beam="2">  1       -2 0.49738031E-02 0.57336461E+03</pdfrwt>
<totfact> 0.72246417E+02</totfact>
</mgrwt>
</event>
<event>
 4    1  0.3145406E-005  0.3696330E+03  0.7818608E-02  0.1054833E+00
          2   -1    0    0  501    0  0.00000000000E+00  0.00000000000E+00  0.18088697606E+04  0.18088697606E+04  0.25500000000E-02 0.  1.
         -2   -1    0    0    0  501 -0.00000000000E+00 -0.00000000000E+00 -0.18883136179E+02  0.18883136351E+02  0.25500000000E-02 0. -1.
    5000001    1    1    2    0    0 -0.33662795365E+02 -0.41343922560E+01  0.51899971228E+03  0.54565188384E+03  0.16500000000E+03 0.  0.
   -5000001    1    1    2    0    0  0.33662795365E+02  0.41343922560E+01  0.12709869122E+04  0.12821010131E+04  0.16500000000E+03 0.  0.
<mgrwt>
<rscale>  0 0.36963298E+03</rscale>
<asrwt>0</asrwt>
<pdfrwt beam="1">  1        2 0.27828762E+00 0.36963298E+03</pdfrwt>
<pdfrwt beam="2">  1       -2 0.29050982E-02 0.36963298E+03</pdfrwt>
<totfact> 0.41583020E+03</totfact>
</mgrwt>
</event>
<event>
 4    1  0.3145406E-005  0.5631793E+03  0.7818608E-02  0.9984887E-01
         -2   -1    0    0    0  501 -0.00000000000E+00  0.00000000000E+00  0.36242169514E+02  0.36242169603E+02  0.25500000000E-02 0. -1.
          2   -1    0    0  501    0  0.00000000000E+00 -0.00000000000E+00 -0.21878581509E+04  0.21878581509E+04  0.25500000000E-02 0.  1.
    5000001    1    1    2    0    0 -0.87739035068E+02  0.17307742787E+03 -0.60167865816E+03  0.65337289659E+03  0.16500000000E+03 0.  0.
   -5000001    1    1    2    0    0  0.87739035068E+02 -0.17307742787E+03 -0.15499373232E+04  0.15707274239E+04  0.16500000000E+03 0.  0.
<mgrwt>
<rscale>  0 0.56317928E+03</rscale>
<asrwt>0</asrwt>
<pdfrwt beam="1">  1        2 0.33659346E+00 0.56317928E+03</pdfrwt>
<pdfrwt beam="2">  1       -2 0.55757201E-02 0.56317928E+03</pdfrwt>
<totfact> 0.95173240E+02</totfact>
</mgrwt>
</event>
<event>
 4    1  0.3145406E-005  0.4212751E+03  0.7818608E-02  0.1036652E+00
          2   -1    0    0  501    0  0.00000000000E+00  0.00000000000E+00  0.19198911465E+04  0.19198911465E+04  0.25500000000E-02 0.  1.
         -2   -1    0    0    0  501 -0.00000000000E+00 -0.00000000000E+00 -0.23109737572E+02  0.23109737713E+02  0.25500000000E-02 0. -1.
    5000001    1    1    2    0    0  0.12042573261E+03  0.41924398693E+02  0.10854564581E+04  0.11053057200E+04  0.16500000000E+03 0.  0.
   -5000001    1    1    2    0    0 -0.12042573261E+03 -0.41924398693E+02  0.81132495087E+03  0.83769516423E+03  0.16500000000E+03 0.  0.
<mgrwt>
<rscale>  0 0.42127512E+03</rscale>
<asrwt>0</asrwt>
<pdfrwt beam="1">  1        2 0.29536800E+00 0.42127512E+03</pdfrwt>
<pdfrwt beam="2">  1       -2 0.35553427E-02 0.42127512E+03</pdfrwt>
<totfact> 0.26721677E+03</totfact>
</mgrwt>
</event>
<event>
 4    1  0.3145406E-005  0.6989310E+03  0.7818608E-02  0.9719062E-01
          2   -1    0    0  501    0  0.00000000000E+00  0.00000000000E+00  0.47981982933E+03  0.47981982933E+03  0.25500000000E-02 0.  1.
         -2   -1    0    0    0  501 -0.00000000000E+00 -0.00000000000E+00 -0.25452499236E+03  0.25452499237E+03  0.25500000000E-02 0. -1.
    5000001    1    1    2    0    0 -0.98521640810E+02 -0.28271227238E+03  0.36385992221E+02  0.34377562900E+03  0.16500000000E+03 0.  0.
   -5000001    1    1    2    0    0  0.98521640810E+02  0.28271227238E+03  0.18890884475E+03  0.39056919270E+03  0.16500000000E+03 0.  0.
<mgrwt>
<rscale>  0 0.69893101E+03</rscale>
<asrwt>0</asrwt>
<pdfrwt beam="1">  1        2 0.73818436E-01 0.69893101E+03</pdfrwt>
<pdfrwt beam="2">  1       -2 0.39157691E-01 0.69893101E+03</pdfrwt>
<totfact> 0.40140827E+02</totfact>
</mgrwt>
</event>
<event>
 4    1  0.3145406E-005  0.3821242E+03  0.7818608E-02  0.1050151E+00
          2   -1    0    0  501    0  0.00000000000E+00  0.00000000000E+00  0.31366914716E+04  0.31366914716E+04  0.25500000000E-02 0.  1.
         -2   -1    0    0    0  501 -0.00000000000E+00 -0.00000000000E+00 -0.11637969950E+02  0.11637970229E+02  0.25500000000E-02 0. -1.
    5000001    1    1    2    0    0  0.93417731911E+02 -0.13867552292E+02  0.14060851271E+04  0.14188796871E+04  0.16500000000E+03 0.  0.
   -5000001    1    1    2    0    0 -0.93417731911E+02  0.13867552292E+02  0.17189683745E+04  0.17294497547E+04  0.16500000000E+03 0.  0.
<mgrwt>
<rscale>  0 0.38212418E+03</rscale>
<asrwt>0</asrwt>
<pdfrwt beam="1">  1        2 0.48256684E+00 0.38212418E+03</pdfrwt>
<pdfrwt beam="2">  1       -2 0.17904610E-02 0.38212418E+03</pdfrwt>
<totfact> 0.15459765E+03</totfact>
</mgrwt>
</event>
<event>
 4    1  0.3145406E-005  0.3520506E+03  0.7818608E-02  0.1061777E+00
         -2   -1    0    0    0  501 -0.00000000000E+00  0.00000000000E+00  0.59469489405E+02  0.59469489459E+02  0.25500000000E-02 0. -1.
          2   -1    0    0  501    0  0.00000000000E+00 -0.00000000000E+00 -0.52102186954E+03  0.52102186955E+03  0.25500000000E-02 0.  1.
    5000001    1    1    2    0    0 -0.21823513042E+02 -0.46115773430E+02 -0.28686194060E+03  0.33483981729E+03  0.16500000000E+03 0.  0.
   -5000001    1    1    2    0    0  0.21823513042E+02  0.46115773430E+02 -0.17469043954E+03  0.24565154171E+03  0.16500000000E+03 0.  0.
<mgrwt>
<rscale>  0 0.35205059E+03</rscale>
<asrwt>0</asrwt>
<pdfrwt beam="1">  1        2 0.80157208E-01 0.35205059E+03</pdfrwt>
<pdfrwt beam="2">  1       -2 0.91491526E-02 0.35205059E+03</pdfrwt>
<totfact> 0.45606801E+03</totfact>
</mgrwt>
</event>
<event>
 4    1  0.3145406E-005  0.5733605E+03  0.7818608E-02  0.9962270E-01
         -2   -1    0    0    0  501 -0.00000000000E+00  0.00000000000E+00  0.74582012934E+02  0.74582012978E+02  0.25500000000E-02 0. -1.
          2   -1    0    0  501    0  0.00000000000E+00 -0.00000000000E+00 -0.11019488513E+04  0.11019488513E+04  0.25500000000E-02 0.  1.
    5000001    1    1    2    0    0 -0.15387837966E+03  0.17278600054E+03 -0.59119889723E+03  0.65595327104E+03  0.16500000000E+03 0.  0.
   -5000001    1    1    2    0    0  0.15387837966E+03 -0.17278600054E+03 -0.43616794116E+03  0.52057759326E+03  0.16500000000E+03 0.  0.
<mgrwt>
<rscale>  0 0.57336049E+03</rscale>
<asrwt>0</asrwt>
<pdfrwt beam="1">  1        2 0.16953058E+00 0.57336049E+03</pdfrwt>
<pdfrwt beam="2">  1       -2 0.11474157E-01 0.57336049E+03</pdfrwt>
<totfact> 0.12023323E+03</totfact>
</mgrwt>
</event>
<event>
 4    1  0.3145406E-005  0.7680780E+03  0.7818608E-02  0.9607408E-01
          2   -1    0    0  501    0  0.00000000000E+00  0.00000000000E+00  0.17532633645E+04  0.17532633645E+04  0.25500000000E-02 0.  1.
         -2   -1    0    0    0  501 -0.00000000000E+00 -0.00000000000E+00 -0.84120831043E+02  0.84120831081E+02  0.25500000000E-02 0. -1.
    5000001    1    1    2    0    0 -0.18100342074E+03  0.21377567796E+03  0.13236468402E+04  0.13629850462E+04  0.16500000000E+03 0.  0.
   -5000001    1    1    2    0    0  0.18100342074E+03 -0.21377567796E+03  0.34549569328E+03  0.47439914933E+03  0.16500000000E+03 0.  0.
<mgrwt>
<rscale>  0 0.76807805E+03</rscale>
<asrwt>0</asrwt>
<pdfrwt beam="1">  1        2 0.26973283E+00 0.76807805E+03</pdfrwt>
<pdfrwt beam="2">  1       -2 0.12941666E-01 0.76807805E+03</pdfrwt>
<totfact> 0.41801527E+02</totfact>
</mgrwt>
</event>
<event>
 4    1  0.3145406E-005  0.4124374E+03  0.7818608E-02  0.1039556E+00
         -2   -1    0    0    0  501 -0.00000000000E+00  0.00000000000E+00  0.12461169094E+03  0.12461169096E+03  0.25500000000E-02 0. -1.
          2   -1    0    0  501    0  0.00000000000E+00 -0.00000000000E+00 -0.34126928071E+03  0.34126928072E+03  0.25500000000E-02 0.  1.
    5000001    1    1    2    0    0  0.86113617339E+02  0.81818369536E+02 -0.14731716778E+03  0.25107199885E+03  0.16500000000E+03 0.  0.
   -5000001    1    1    2    0    0 -0.86113617339E+02 -0.81818369536E+02 -0.69340421986E+02  0.21480897282E+03  0.16500000000E+03 0.  0.
<mgrwt>
<rscale>  0 0.41243735E+03</rscale>
<asrwt>0</asrwt>
<pdfrwt beam="1">  1        2 0.52502966E-01 0.41243735E+03</pdfrwt>
<pdfrwt beam="2">  1       -2 0.19171030E-01 0.41243735E+03</pdfrwt>
<totfact> 0.21621801E+03</totfact>
</mgrwt>
</event>
<event>
 4    1  0.3145406E-005  0.4119972E+03  0.7818608E-02  0.1039703E+00
          2   -1    0    0  501    0  0.00000000000E+00  0.00000000000E+00  0.11610324827E+04  0.11610324827E+04  0.25500000000E-02 0. -1.
         -2   -1    0    0    0  501 -0.00000000000E+00 -0.00000000000E+00 -0.36549729422E+02  0.36549729511E+02  0.25500000000E-02 0.  1.
    5000001    1    1    2    0    0  0.80290556240E+02 -0.62504585446E+02  0.76482125696E+03  0.78900567281E+03  0.16500000000E+03 0.  0.
   -5000001    1    1    2    0    0 -0.80290556240E+02  0.62504585446E+02  0.35966149635E+03  0.40857653944E+03  0.16500000000E+03 0.  0.
<mgrwt>
<rscale>  0 0.41199720E+03</rscale>
<asrwt>0</asrwt>
<pdfrwt beam="1">  1        2 0.17862037E+00 0.41199720E+03</pdfrwt>
<pdfrwt beam="2">  1       -2 0.56230357E-02 0.41199720E+03</pdfrwt>
<totfact> 0.34518889E+03</totfact>
</mgrwt>
</event>
<event>
 4    1  0.3145406E-005  0.6956161E+03  0.7818608E-02  0.9724759E-01
          2   -1    0    0  501    0  0.00000000000E+00  0.00000000000E+00  0.21173860892E+04  0.21173860892E+04  0.25500000000E-02 0.  1.
         -2   -1    0    0    0  501 -0.00000000000E+00 -0.00000000000E+00 -0.57131976567E+02  0.57131976624E+02  0.25500000000E-02 0. -1.
    5000001    1    1    2    0    0 -0.20465284705E+03 -0.11461402632E+03  0.41495540104E+03  0.50441267598E+03  0.16500000000E+03 0.  0.
   -5000001    1    1    2    0    0  0.20465284705E+03  0.11461402632E+03  0.16452987116E+04  0.16701053899E+04  0.16500000000E+03 0.  0.
<mgrwt>
<rscale>  0 0.69561614E+03</rscale>
<asrwt>0</asrwt>
<pdfrwt beam="1">  1        2 0.32575164E+00 0.69561614E+03</pdfrwt>
<pdfrwt beam="2">  1       -2 0.87895366E-02 0.69561614E+03</pdfrwt>
<totfact> 0.50104180E+02</totfact>
</mgrwt>
</event>
<event>
 4    1  0.3145406E-005  0.6949952E+03  0.7818608E-02  0.9725830E-01
          2   -1    0    0  501    0  0.00000000000E+00  0.00000000000E+00  0.33688793325E+03  0.33688793326E+03  0.25500000000E-02 0.  1.
         -2   -1    0    0    0  501 -0.00000000000E+00 -0.00000000000E+00 -0.35844140312E+03  0.35844140313E+03  0.25500000000E-02 0. -1.
    5000001    1    1    2    0    0 -0.30056457345E+03  0.37840505935E+02 -0.52732761606E+02  0.34896520006E+03  0.16500000000E+03 0.  0.
   -5000001    1    1    2    0    0  0.30056457345E+03 -0.37840505935E+02  0.31179291734E+02  0.34636413633E+03  0.16500000000E+03 0.  0.
<mgrwt>
<rscale>  0 0.69499520E+03</rscale>
<asrwt>0</asrwt>
<pdfrwt beam="1">  1        2 0.51828913E-01 0.69499520E+03</pdfrwt>
<pdfrwt beam="2">  1       -2 0.55144831E-01 0.69499520E+03</pdfrwt>
<totfact> 0.30107296E+02</totfact>
</mgrwt>
</event>
<event>
 4    1  0.3145406E-005  0.4950232E+03  0.7818608E-02  0.1015086E+00
         -2   -1    0    0    0  501 -0.00000000000E+00  0.00000000000E+00  0.42857177545E+03  0.42857177546E+03  0.25500000000E-02 0. -1.
          2   -1    0    0  501    0  0.00000000000E+00 -0.00000000000E+00 -0.14294452526E+03  0.14294452529E+03  0.25500000000E-02 0.  1.
    5000001    1    1    2    0    0 -0.13108610004E+02 -0.17824585273E+03  0.89987743643E+02  0.25935730890E+03  0.16500000000E+03 0.  0.
   -5000001    1    1    2    0    0  0.13108610004E+02  0.17824585273E+03  0.19563950655E+03  0.31215899185E+03  0.16500000000E+03 0.  0.
<mgrwt>
<rscale>  0 0.49502319E+03</rscale>
<asrwt>0</asrwt>
<pdfrwt beam="1">  1        2 0.21991466E-01 0.49502319E+03</pdfrwt>
<pdfrwt beam="2">  1       -2 0.65934118E-01 0.49502319E+03</pdfrwt>
<totfact> 0.54248018E+02</totfact>
</mgrwt>
</event>
<event>
 4    1  0.3145406E-005  0.1501397E+04  0.7818608E-02  0.8883525E-01
         -2   -1    0    0    0  501 -0.00000000000E+00  0.00000000000E+00  0.38232816934E+03  0.38232816935E+03  0.25500000000E-02 0. -1.
          2   -1    0    0  501    0  0.00000000000E+00 -0.00000000000E+00 -0.14739904796E+04  0.14739904796E+04  0.25500000000E-02 0.  1.
    5000001    1    1    2    0    0 -0.46743005230E+03 -0.26176488406E+03 -0.11631763750E+04  0.12912071823E+04  0.16500000000E+03 0.  0.
   -5000001    1    1    2    0    0  0.46743005230E+03  0.26176488406E+03  0.71514064702E+02  0.56511146667E+03  0.16500000000E+03 0.  0.
<mgrwt>
<rscale>  0 0.15013968E+04</rscale>
<asrwt>0</asrwt>
<pdfrwt beam="1">  1        2 0.22676776E+00 0.15013968E+04</pdfrwt>
<pdfrwt beam="2">  1       -2 0.58819719E-01 0.15013968E+04</pdfrwt>
<totfact> 0.34260811E+01</totfact>
</mgrwt>
</event>
<event>
 4    1  0.3145406E-005  0.4148001E+03  0.7818608E-02  0.1038772E+00
          2   -1    0    0  501    0  0.00000000000E+00  0.00000000000E+00  0.27472081532E+03  0.27472081533E+03  0.25500000000E-02 0.  1.
         -2   -1    0    0    0  501 -0.00000000000E+00 -0.00000000000E+00 -0.15657633268E+03  0.15657633270E+03  0.25500000000E-02 0. -1.
    5000001    1    1    2    0    0 -0.90187016590E+02 -0.59044871316E+02  0.12621427254E+03  0.23404067463E+03  0.16500000000E+03 0.  0.
   -5000001    1    1    2    0    0  0.90187016590E+02  0.59044871316E+02 -0.80697899033E+01  0.19725647340E+03  0.16500000000E+03 0.  0.
<mgrwt>
<rscale>  0 0.41480009E+03</rscale>
<asrwt>0</asrwt>
<pdfrwt beam="1">  1        2 0.42264740E-01 0.41480009E+03</pdfrwt>
<pdfrwt beam="2">  1       -2 0.24088667E-01 0.41480009E+03</pdfrwt>
<totfact> 0.18398746E+03</totfact>
</mgrwt>
</event>
<event>
 4    1  0.3145406E-005  0.3619715E+03  0.7818608E-02  0.1057806E+00
          2   -1    0    0  501    0  0.00000000000E+00  0.00000000000E+00  0.15920604006E+04  0.15920604006E+04  0.25500000000E-02 0.  1.
         -2   -1    0    0    0  501 -0.00000000000E+00 -0.00000000000E+00 -0.20574496330E+02  0.20574496488E+02  0.25500000000E-02 0. -1.
    5000001    1    1    2    0    0  0.23199294253E+02 -0.67913147847E+02  0.69884617307E+03  0.72163798163E+03  0.16500000000E+03 0.  0.
   -5000001    1    1    2    0    0 -0.23199294253E+02  0.67913147847E+02  0.87263973120E+03  0.89099691547E+03  0.16500000000E+03 0.  0.
<mgrwt>
<rscale>  0 0.36197150E+03</rscale>
<asrwt>0</asrwt>
<pdfrwt beam="1">  1        2 0.24493247E+00 0.36197150E+03</pdfrwt>
<pdfrwt beam="2">  1       -2 0.31653059E-02 0.36197150E+03</pdfrwt>
<totfact> 0.47707898E+03</totfact>
</mgrwt>
</event>
<event>
 4    1  0.3145406E-005  0.4671393E+03  0.7818608E-02  0.1022731E+00
         -2   -1    0    0    0  501 -0.00000000000E+00  0.00000000000E+00  0.16598156552E+03  0.16598156554E+03  0.25500000000E-02 0.  1.
          2   -1    0    0  501    0  0.00000000000E+00 -0.00000000000E+00 -0.32867976425E+03  0.32867976426E+03  0.25500000000E-02 0. -1.
    5000001    1    1    2    0    0 -0.10428461860E+03  0.12253846485E+03 -0.41182458895E+02  0.23411952495E+03  0.16500000000E+03 0.  0.
   -5000001    1    1    2    0    0  0.10428461860E+03 -0.12253846485E+03 -0.12151573983E+03  0.26054180484E+03  0.16500000000E+03 0.  0.
<mgrwt>
<rscale>  0 0.46713930E+03</rscale>
<asrwt>0</asrwt>
<pdfrwt beam="1">  1        2 0.50566117E-01 0.46713930E+03</pdfrwt>
<pdfrwt beam="2">  1       -2 0.25535626E-01 0.46713930E+03</pdfrwt>
<totfact> 0.13639142E+03</totfact>
</mgrwt>
</event>
<event>
 4    1  0.3145406E-005  0.5188856E+03  0.7818608E-02  0.1008964E+00
         -2   -1    0    0    0  501 -0.00000000000E+00  0.00000000000E+00  0.15640714786E+03  0.15640714788E+03  0.25500000000E-02 0. -1.
          2   -1    0    0  501    0  0.00000000000E+00 -0.00000000000E+00 -0.43035472576E+03  0.43035472577E+03  0.25500000000E-02 0.  1.
    5000001    1    1    2    0    0 -0.76625158494E+02 -0.17957803544E+03 -0.18711186301E+03  0.31678941744E+03  0.16500000000E+03 0.  0.
   -5000001    1    1    2    0    0  0.76625158494E+02  0.17957803544E+03 -0.86835714895E+02  0.26997245620E+03  0.16500000000E+03 0.  0.
<mgrwt>
<rscale>  0 0.51888556E+03</rscale>
<asrwt>0</asrwt>
<pdfrwt beam="1">  1        2 0.66208419E-01 0.51888556E+03</pdfrwt>
<pdfrwt beam="2">  1       -2 0.24062638E-01 0.51888556E+03</pdfrwt>
<totfact> 0.11253786E+03</totfact>
</mgrwt>
</event>
<event>
 4    1  0.3145406E-005  0.4883731E+03  0.7818608E-02  0.1016859E+00
          2   -1    0    0  501    0  0.00000000000E+00  0.00000000000E+00  0.15423830114E+04  0.15423830114E+04  0.25500000000E-02 0.  1.
         -2   -1    0    0    0  501 -0.00000000000E+00 -0.00000000000E+00 -0.38659049121E+02  0.38659049205E+02  0.25500000000E-02 0. -1.
    5000001    1    1    2    0    0  0.17119758243E+02  0.16423782319E+03  0.98384608624E+03  0.10111603582E+04  0.16500000000E+03 0.  0.
   -5000001    1    1    2    0    0 -0.17119758243E+02 -0.16423782319E+03  0.51987787608E+03  0.56988170240E+03  0.16500000000E+03 0.  0.
<mgrwt>
<rscale>  0 0.48837306E+03</rscale>
<asrwt>0</asrwt>
<pdfrwt beam="1">  1        2 0.23728967E+00 0.48837306E+03</pdfrwt>
<pdfrwt beam="2">  1       -2 0.59475467E-02 0.48837306E+03</pdfrwt>
<totfact> 0.19301709E+03</totfact>
</mgrwt>
</event>
<event>
 4    1  0.3145406E-005  0.4090955E+03  0.7818608E-02  0.1040675E+00
         -2   -1    0    0    0  501 -0.00000000000E+00  0.00000000000E+00  0.71835087720E+02  0.71835087765E+02  0.25500000000E-02 0. -1.
          2   -1    0    0  501    0  0.00000000000E+00 -0.00000000000E+00 -0.58244209156E+03  0.58244209157E+03  0.25500000000E-02 0.  1.
    5000001    1    1    2    0    0  0.19103510605E+02  0.11865550454E+03 -0.27619941384E+03  0.34344604973E+03  0.16500000000E+03 0.  0.
   -5000001    1    1    2    0    0 -0.19103510605E+02 -0.11865550454E+03 -0.23440759000E+03  0.31083112960E+03  0.16500000000E+03 0.  0.
<mgrwt>
<rscale>  0 0.40909548E+03</rscale>
<asrwt>0</asrwt>
<pdfrwt beam="1">  1        2 0.89606473E-01 0.40909548E+03</pdfrwt>
<pdfrwt beam="2">  1       -2 0.11051552E-01 0.40909548E+03</pdfrwt>
<totfact> 0.29690874E+03</totfact>
</mgrwt>
</event>
<event>
 4    1  0.3145406E-005  0.5303521E+03  0.7818608E-02  0.1006147E+00
         -2   -1    0    0    0  501 -0.00000000000E+00  0.00000000000E+00  0.58280084676E+02  0.58280084732E+02  0.25500000000E-02 0. -1.
          2   -1    0    0  501    0  0.00000000000E+00 -0.00000000000E+00 -0.12065587047E+04  0.12065587047E+04  0.25500000000E-02 0.  1.
    5000001    1    1    2    0    0 -0.57803586728E+02  0.18799522411E+03 -0.73251352527E+03  0.77619876555E+03  0.16500000000E+03 0.  0.
   -5000001    1    1    2    0    0  0.57803586728E+02 -0.18799522411E+03 -0.41576509472E+03  0.48864002386E+03  0.16500000000E+03 0.  0.
<mgrwt>
<rscale>  0 0.53035212E+03</rscale>
<asrwt>0</asrwt>
<pdfrwt beam="1">  1        2 0.18562440E+00 0.53035212E+03</pdfrwt>
<pdfrwt beam="2">  1       -2 0.89661678E-02 0.53035212E+03</pdfrwt>
<totfact> 0.15559464E+03</totfact>
</mgrwt>
</event>
<event>
 4    1  0.3145406E-005  0.4462526E+03  0.7818608E-02  0.1028845E+00
         -2   -1    0    0    0  501 -0.00000000000E+00  0.00000000000E+00  0.41977711212E+02  0.41977711290E+02  0.25500000000E-02 0. -1.
          2   -1    0    0  501    0  0.00000000000E+00 -0.00000000000E+00 -0.11859947248E+04  0.11859947248E+04  0.25500000000E-02 0.  1.
    5000001    1    1    2    0    0  0.14226957176E+03 -0.75299496675E+01 -0.70291204418E+03  0.73593999282E+03  0.16500000000E+03 0.  0.
   -5000001    1    1    2    0    0 -0.14226957176E+03  0.75299496675E+01 -0.44110496941E+03  0.49203244327E+03  0.16500000000E+03 0.  0.
<mgrwt>
<rscale>  0 0.44625259E+03</rscale>
<asrwt>0</asrwt>
<pdfrwt beam="1">  1        2 0.18246070E+00 0.44625259E+03</pdfrwt>
<pdfrwt beam="2">  1       -2 0.64581104E-02 0.44625259E+03</pdfrwt>
<totfact> 0.26915884E+03</totfact>
</mgrwt>
</event>
<event>
 4    1  0.3145406E-005  0.6824403E+03  0.7818608E-02  0.9747742E-01
         -2   -1    0    0    0  501 -0.00000000000E+00  0.00000000000E+00  0.23106968549E+03  0.23106968550E+03  0.25500000000E-02 0. -1.
          2   -1    0    0  501    0  0.00000000000E+00 -0.00000000000E+00 -0.50387910065E+03  0.50387910065E+03  0.25500000000E-02 0.  1.
    5000001    1    1    2    0    0 -0.22110346647E+03  0.66760022655E+02  0.67540242285E+02  0.29177101953E+03  0.16500000000E+03 0.  0.
   -5000001    1    1    2    0    0  0.22110346647E+03 -0.66760022655E+02 -0.34034965744E+03  0.44317776663E+03  0.16500000000E+03 0.  0.
<mgrwt>
<rscale>  0 0.68244028E+03</rscale>
<asrwt>0</asrwt>
<pdfrwt beam="1">  1        2 0.77519862E-01 0.68244028E+03</pdfrwt>
<pdfrwt beam="2">  1       -2 0.35549182E-01 0.68244028E+03</pdfrwt>
<totfact> 0.45706297E+02</totfact>
</mgrwt>
</event>
<event>
 4    1  0.3145406E-005  0.4797180E+03  0.7818608E-02  0.1019213E+00
          2   -1    0    0  501    0  0.00000000000E+00  0.00000000000E+00  0.10366029178E+04  0.10366029178E+04  0.25500000000E-02 0.  1.
         -2   -1    0    0    0  501 -0.00000000000E+00 -0.00000000000E+00 -0.55500840651E+02  0.55500840709E+02  0.25500000000E-02 0. -1.
    5000001    1    1    2    0    0 -0.15006030543E+03  0.82106308934E+01  0.29050136280E+03  0.36633529930E+03  0.16500000000E+03 0.  0.
   -5000001    1    1    2    0    0  0.15006030543E+03 -0.82106308934E+01  0.69060071431E+03  0.72576845917E+03  0.16500000000E+03 0.  0.
<mgrwt>
<rscale>  0 0.47971797E+03</rscale>
<asrwt>0</asrwt>
<pdfrwt beam="1">  1        2 0.15947736E+00 0.47971797E+03</pdfrwt>
<pdfrwt beam="2">  1       -2 0.85385917E-02 0.47971797E+03</pdfrwt>
<totfact> 0.21285424E+03</totfact>
</mgrwt>
</event>
<event>
 4    1  0.3145406E-005  0.4158231E+03  0.7818608E-02  0.1038434E+00
          2   -1    0    0  501    0  0.00000000000E+00  0.00000000000E+00  0.18593477237E+03  0.18593477239E+03  0.25500000000E-02 0.  1.
         -2   -1    0    0    0  501 -0.00000000000E+00 -0.00000000000E+00 -0.23248594920E+03  0.23248594921E+03  0.25500000000E-02 0. -1.
    5000001    1    1    2    0    0  0.78473503113E+02 -0.96876912199E+02 -0.44833595802E+02  0.21160878555E+03  0.16500000000E+03 0.  0.
   -5000001    1    1    2    0    0 -0.78473503113E+02  0.96876912199E+02 -0.17175810254E+01  0.20681193605E+03  0.16500000000E+03 0.  0.
<mgrwt>
<rscale>  0 0.41582315E+03</rscale>
<asrwt>0</asrwt>
<pdfrwt beam="1">  1        2 0.28605350E-01 0.41582315E+03</pdfrwt>
<pdfrwt beam="2">  1       -2 0.35767069E-01 0.41582315E+03</pdfrwt>
<totfact> 0.13736136E+03</totfact>
</mgrwt>
</event>
<event>
 4    1  0.3145406E-005  0.4259774E+03  0.7818608E-02  0.1035138E+00
          2   -1    0    0  501    0  0.00000000000E+00  0.00000000000E+00  0.34196687516E+04  0.34196687516E+04  0.25500000000E-02 0.  1.
         -2   -1    0    0    0  501 -0.00000000000E+00 -0.00000000000E+00 -0.13265667840E+02  0.13265668085E+02  0.25500000000E-02 0. -1.
    5000001    1    1    2    0    0  0.93955138547E+02 -0.74504189679E+02  0.21974166741E+04  0.22068628145E+04  0.16500000000E+03 0.  0.
   -5000001    1    1    2    0    0 -0.93955138547E+02  0.74504189679E+02  0.12089864097E+04  0.12260716052E+04  0.16500000000E+03 0.  0.
<mgrwt>
<rscale>  0 0.42597742E+03</rscale>
<asrwt>0</asrwt>
<pdfrwt beam="1">  1        2 0.52610375E+00 0.42597742E+03</pdfrwt>
<pdfrwt beam="2">  1       -2 0.20408687E-02 0.42597742E+03</pdfrwt>
<totfact> 0.83580985E+02</totfact>
</mgrwt>
</event>
<event>
 4    1  0.3145406E-005  0.8247518E+03  0.7818608E-02  0.9524865E-01
         -2   -1    0    0    0  501 -0.00000000000E+00  0.00000000000E+00  0.14085829727E+03  0.14085829729E+03  0.25500000000E-02 0. -1.
          2   -1    0    0  501    0  0.00000000000E+00 -0.00000000000E+00 -0.12072693286E+04  0.12072693286E+04  0.25500000000E-02 0.  1.
    5000001    1    1    2    0    0  0.37754111823E+03  0.14228412875E+01 -0.50538961263E+03  0.65206056543E+03  0.16500000000E+03 0.  0.
   -5000001    1    1    2    0    0 -0.37754111823E+03 -0.14228412875E+01 -0.56102141870E+03  0.69606706047E+03  0.16500000000E+03 0.  0.
<mgrwt>
<rscale>  0 0.82475185E+03</rscale>
<asrwt>0</asrwt>
<pdfrwt beam="1">  1        2 0.18573374E+00 0.82475185E+03</pdfrwt>
<pdfrwt beam="2">  1       -2 0.21670508E-01 0.82475185E+03</pdfrwt>
<totfact> 0.34908256E+02</totfact>
</mgrwt>
</event>
<event>
 4    1  0.3145406E-005  0.5903928E+03  0.7818608E-02  0.9925541E-01
          2   -1    0    0  501    0  0.00000000000E+00  0.00000000000E+00  0.62383578572E+03  0.62383578573E+03  0.25500000000E-02 0.  1.
         -2   -1    0    0    0  501 -0.00000000000E+00 -0.00000000000E+00 -0.13968565748E+03  0.13968565751E+03  0.25500000000E-02 0. -1.
    5000001    1    1    2    0    0  0.84884975168E+02 -0.22815980876E+03  0.20901367354E+03  0.36079644271E+03  0.16500000000E+03 0.  0.
   -5000001    1    1    2    0    0 -0.84884975168E+02  0.22815980876E+03  0.27513645470E+03  0.40272500053E+03  0.16500000000E+03 0.  0.
<mgrwt>
<rscale>  0 0.59039279E+03</rscale>
<asrwt>0</asrwt>
<pdfrwt beam="1">  1        2 0.95974738E-01 0.59039279E+03</pdfrwt>
<pdfrwt beam="2">  1       -2 0.21490101E-01 0.59039279E+03</pdfrwt>
<totfact> 0.89298431E+02</totfact>
</mgrwt>
</event>
<event>
 4    1  0.3145406E-005  0.5785289E+03  0.7818608E-02  0.9950981E-01
          2   -1    0    0  501    0  0.00000000000E+00  0.00000000000E+00  0.24806272514E+03  0.24806272515E+03  0.25500000000E-02 0.  1.
         -2   -1    0    0    0  501 -0.00000000000E+00 -0.00000000000E+00 -0.33730949506E+03  0.33730949507E+03  0.25500000000E-02 0. -1.
    5000001    1    1    2    0    0  0.32923873292E+02 -0.23505215701E+03 -0.55493583704E+02  0.29434339772E+03  0.16500000000E+03 0.  0.
   -5000001    1    1    2    0    0 -0.32923873292E+02  0.23505215701E+03 -0.33753186212E+02  0.29102882250E+03  0.16500000000E+03 0.  0.
<mgrwt>
<rscale>  0 0.57852887E+03</rscale>
<asrwt>0</asrwt>
<pdfrwt beam="1">  1        2 0.38163496E-01 0.57852887E+03</pdfrwt>
<pdfrwt beam="2">  1       -2 0.51893769E-01 0.57852887E+03</pdfrwt>
<totfact> 0.48011514E+02</totfact>
</mgrwt>
</event>
<event>
 4    1  0.3145406E-005  0.5805789E+03  0.7818608E-02  0.9946538E-01
          2   -1    0    0  501    0  0.00000000000E+00  0.00000000000E+00  0.13626066617E+03  0.13626066620E+03  0.25500000000E-02 0.  1.
         -2   -1    0    0    0  501 -0.00000000000E+00 -0.00000000000E+00 -0.61843208824E+03  0.61843208825E+03  0.25500000000E-02 0. -1.
    5000001    1    1    2    0    0 -0.27568801973E+02  0.23388607051E+03 -0.18941197855E+03  0.34433215133E+03  0.16500000000E+03 0.  0.
   -5000001    1    1    2    0    0  0.27568801973E+02 -0.23388607051E+03 -0.29275944352E+03  0.41036060312E+03  0.16500000000E+03 0.  0.
<mgrwt>
<rscale>  0 0.58057891E+03</rscale>
<asrwt>0</asrwt>
<pdfrwt beam="1">  1        2 0.20963180E-01 0.58057891E+03</pdfrwt>
<pdfrwt beam="2">  1       -2 0.95143396E-01 0.58057891E+03</pdfrwt>
<totfact> 0.25269265E+02</totfact>
</mgrwt>
</event>
<event>
 4    1  0.3145406E-005  0.3416960E+03  0.7818608E-02  0.1066076E+00
         -2   -1    0    0    0  501 -0.00000000000E+00  0.00000000000E+00  0.46694084958E+03  0.46694084959E+03  0.25500000000E-02 0. -1.
          2   -1    0    0  501    0  0.00000000000E+00 -0.00000000000E+00 -0.62511201810E+02  0.62511201862E+02  0.25500000000E-02 0.  1.
    5000001    1    1    2    0    0  0.43444171182E+02 -0.78831205618E+01  0.19631576985E+03  0.26021994753E+03  0.16500000000E+03 0.  0.
   -5000001    1    1    2    0    0 -0.43444171182E+02  0.78831205618E+01  0.20811387792E+03  0.26923210392E+03  0.16500000000E+03 0.  0.
<mgrwt>
<rscale>  0 0.34169597E+03</rscale>
<asrwt>0</asrwt>
<pdfrwt beam="1">  1        2 0.96171083E-02 0.34169597E+03</pdfrwt>
<pdfrwt beam="2">  1       -2 0.71837052E-01 0.34169597E+03</pdfrwt>
<totfact> 0.12198415E+03</totfact>
</mgrwt>
</event>
<event>
 4    1  0.3145406E-005  0.4353132E+03  0.7818608E-02  0.1032195E+00
          2   -1    0    0  501    0  0.00000000000E+00  0.00000000000E+00  0.13354166072E+03  0.13354166075E+03  0.25500000000E-02 0.  1.
         -2   -1    0    0    0  501 -0.00000000000E+00 -0.00000000000E+00 -0.35475360464E+03  0.35475360465E+03  0.25500000000E-02 0. -1.
    5000001    1    1    2    0    0  0.11703522484E+03  0.34673521821E+01 -0.20062362243E+03  0.28492824406E+03  0.16500000000E+03 0.  0.
   -5000001    1    1    2    0    0 -0.11703522484E+03 -0.34673521821E+01 -0.20588321483E+02  0.20336702134E+03  0.16500000000E+03 0.  0.
<mgrwt>
<rscale>  0 0.43531315E+03</rscale>
<asrwt>0</asrwt>
<pdfrwt beam="1">  1        2 0.20544871E-01 0.43531315E+03</pdfrwt>
<pdfrwt beam="2">  1       -2 0.54577477E-01 0.43531315E+03</pdfrwt>
<totfact> 0.87186080E+02</totfact>
</mgrwt>
</event>
<event>
 4    1  0.3145406E-005  0.5043870E+03  0.7818608E-02  0.1012640E+00
          2   -1    0    0  501    0  0.00000000000E+00  0.00000000000E+00  0.23846828080E+04  0.23846828081E+04  0.25500000000E-02 0.  1.
         -2   -1    0    0    0  501 -0.00000000000E+00 -0.00000000000E+00 -0.26670868068E+02  0.26670868190E+02  0.25500000000E-02 0. -1.
    5000001    1    1    2    0    0  0.11981913980E+02  0.18379910361E+03  0.94232768928E+03  0.97423413548E+03  0.16500000000E+03 0.  0.
   -5000001    1    1    2    0    0 -0.11981913980E+02 -0.18379910361E+03  0.14156842507E+04  0.14371195408E+04  0.16500000000E+03 0.  0.
<mgrwt>
<rscale>  0 0.50438700E+03</rscale>
<asrwt>0</asrwt>
<pdfrwt beam="1">  1        2 0.36687422E+00 0.50438700E+03</pdfrwt>
<pdfrwt beam="2">  1       -2 0.41032111E-02 0.50438700E+03</pdfrwt>
<totfact> 0.11970408E+03</totfact>
</mgrwt>
</event>
<event>
 4    1  0.3145406E-005  0.8704495E+03  0.7818608E-02  0.9463294E-01
          2   -1    0    0  501    0  0.00000000000E+00  0.00000000000E+00  0.22195075347E+04  0.22195075347E+04  0.25500000000E-02 0.  1.
         -2   -1    0    0    0  501 -0.00000000000E+00 -0.00000000000E+00 -0.85343527852E+02  0.85343527890E+02  0.25500000000E-02 0. -1.
    5000001    1    1    2    0    0 -0.23951624705E+03  0.20846919905E+03  0.41113186595E+03  0.54505215416E+03  0.16500000000E+03 0.  0.
   -5000001    1    1    2    0    0  0.23951624705E+03 -0.20846919905E+03  0.17230321409E+04  0.17597989084E+04  0.16500000000E+03 0.  0.
<mgrwt>
<rscale>  0 0.87044955E+03</rscale>
<asrwt>0</asrwt>
<pdfrwt beam="1">  1        2 0.34146264E+00 0.87044955E+03</pdfrwt>
<pdfrwt beam="2">  1       -2 0.13129776E-01 0.87044955E+03</pdfrwt>
<totfact> 0.22483301E+02</totfact>
</mgrwt>
</event>
<event>
 4    1  0.3145406E-005  0.4338893E+03  0.7818608E-02  0.1032638E+00
         -2   -1    0    0    0  501 -0.00000000000E+00  0.00000000000E+00  0.33421838328E+03  0.33421838329E+03  0.25500000000E-02 0. -1.
          2   -1    0    0  501    0  0.00000000000E+00 -0.00000000000E+00 -0.14082104387E+03  0.14082104389E+03  0.25500000000E-02 0.  1.
    5000001    1    1    2    0    0  0.41120928673E+02  0.12879062388E+03  0.13996946227E+03  0.25513605379E+03  0.16500000000E+03 0.  0.
   -5000001    1    1    2    0    0 -0.41120928673E+02 -0.12879062388E+03  0.53427877140E+02  0.21990337339E+03  0.16500000000E+03 0.  0.
<mgrwt>
<rscale>  0 0.43388930E+03</rscale>
<asrwt>0</asrwt>
<pdfrwt beam="1">  1        2 0.21664776E-01 0.43388930E+03</pdfrwt>
<pdfrwt beam="2">  1       -2 0.51418212E-01 0.43388930E+03</pdfrwt>
<totfact> 0.92600940E+02</totfact>
</mgrwt>
</event>
<event>
 4    1  0.3145406E-005  0.4862640E+03  0.7818608E-02  0.1017428E+00
         -2   -1    0    0    0  501 -0.00000000000E+00  0.00000000000E+00  0.78929302387E+03  0.78929302388E+03  0.25500000000E-02 0.  1.
          2   -1    0    0  501    0  0.00000000000E+00 -0.00000000000E+00 -0.74893815905E+02  0.74893815948E+02  0.25500000000E-02 0. -1.
    5000001    1    1    2    0    0 -0.37656589174E+02 -0.17455678596E+03  0.35769023013E+03  0.43249900689E+03  0.16500000000E+03 0.  0.
   -5000001    1    1    2    0    0  0.37656589174E+02  0.17455678596E+03  0.35670897784E+03  0.43168783294E+03  0.16500000000E+03 0.  0.
<mgrwt>
<rscale>  0 0.48626399E+03</rscale>
<asrwt>0</asrwt>
<pdfrwt beam="1">  1        2 0.11522125E-01 0.48626399E+03</pdfrwt>
<pdfrwt beam="2">  1       -2 0.12142970E+00 0.48626399E+03</pdfrwt>
<totfact> 0.29029415E+02</totfact>
</mgrwt>
</event>
<event>
 4    1  0.3145406E-005  0.1085179E+04  0.7818608E-02  0.9219759E-01
          2   -1    0    0  501    0  0.00000000000E+00  0.00000000000E+00  0.10220088556E+04  0.10220088556E+04  0.25500000000E-02 0.  1.
         -2   -1    0    0    0  501 -0.00000000000E+00 -0.00000000000E+00 -0.28806324982E+03  0.28806324983E+03  0.25500000000E-02 0. -1.
    5000001    1    1    2    0    0 -0.25442546253E+03 -0.42605590861E+03  0.54159442831E+03  0.75286484712E+03  0.16500000000E+03 0.  0.
   -5000001    1    1    2    0    0  0.25442546253E+03  0.42605590861E+03  0.19235117746E+03  0.55720725831E+03  0.16500000000E+03 0.  0.
<mgrwt>
<rscale>  0 0.10851787E+04</rscale>
<asrwt>0</asrwt>
<pdfrwt beam="1">  1        2 0.15723213E+00 0.10851787E+04</pdfrwt>
<pdfrwt beam="2">  1       -2 0.44317423E-01 0.10851787E+04</pdfrwt>
<totfact> 0.11694027E+02</totfact>
</mgrwt>
</event>
<event>
 4    1  0.3145406E-005  0.9800875E+03  0.7818608E-02  0.9330658E-01
          2   -1    0    0  501    0  0.00000000000E+00  0.00000000000E+00  0.59908835679E+03  0.59908835680E+03  0.25500000000E-02 0.  1.
         -2   -1    0    0    0  501 -0.00000000000E+00 -0.00000000000E+00 -0.40084720057E+03  0.40084720058E+03  0.25500000000E-02 0. -1.
    5000001    1    1    2    0    0 -0.44707518837E+03 -0.56653830588E+02  0.20028511747E+03  0.52002404642E+03  0.16500000000E+03 0.  0.
   -5000001    1    1    2    0    0  0.44707518837E+03  0.56653830588E+02 -0.20439612513E+01  0.47991151096E+03  0.16500000000E+03 0.  0.
<mgrwt>
<rscale>  0 0.98008753E+03</rscale>
<asrwt>0</asrwt>
<pdfrwt beam="1">  1        2 0.92167439E-01 0.98008753E+03</pdfrwt>
<pdfrwt beam="2">  1       -2 0.61668800E-01 0.98008753E+03</pdfrwt>
<totfact> 0.12141584E+02</totfact>
</mgrwt>
</event>
<event>
 4    1  0.3145406E-005  0.7320570E+03  0.7818608E-02  0.9663928E-01
         -2   -1    0    0    0  501 -0.00000000000E+00  0.00000000000E+00  0.62497505506E+02  0.62497505558E+02  0.25500000000E-02 0. -1.
          2   -1    0    0  501    0  0.00000000000E+00 -0.00000000000E+00 -0.21437154940E+04  0.21437154940E+04  0.25500000000E-02 0.  1.
    5000001    1    1    2    0    0 -0.52324476066E+02  0.98837175527E+02 -0.11541623706E+03  0.23033138266E+03  0.16500000000E+03 0.  0.
   -5000001    1    1    2    0    0  0.52324476066E+02 -0.98837175527E+02 -0.19658017515E+04  0.19758816169E+04  0.16500000000E+03 0.  0.
<mgrwt>
<rscale>  0 0.73205702E+03</rscale>
<asrwt>0</asrwt>
<pdfrwt beam="1">  1        2 0.32980233E+00 0.73205702E+03</pdfrwt>
<pdfrwt beam="2">  1       -2 0.96150025E-02 0.73205702E+03</pdfrwt>
<totfact> 0.41804056E+02</totfact>
</mgrwt>
</event>
<event>
 4    1  0.3145406E-005  0.4287884E+03  0.7818608E-02  0.1034243E+00
         -2   -1    0    0    0  501 -0.00000000000E+00  0.00000000000E+00  0.26926480775E+02  0.26926480896E+02  0.25500000000E-02 0. -1.
          2   -1    0    0  501    0  0.00000000000E+00 -0.00000000000E+00 -0.17070510132E+04  0.17070510133E+04  0.25500000000E-02 0.  1.
    5000001    1    1    2    0    0  0.11419602125E+03  0.56697145652E+02 -0.63849184653E+03  0.67167859552E+03  0.16500000000E+03 0.  0.
   -5000001    1    1    2    0    0 -0.11419602125E+03 -0.56697145652E+02 -0.10416326859E+04  0.10622988986E+04  0.16500000000E+03 0.  0.
<mgrwt>
<rscale>  0 0.42878842E+03</rscale>
<asrwt>0</asrwt>
<pdfrwt beam="1">  1        2 0.26262315E+00 0.42878842E+03</pdfrwt>
<pdfrwt beam="2">  1       -2 0.41425369E-02 0.42878842E+03</pdfrwt>
<totfact> 0.27513392E+03</totfact>
</mgrwt>
</event>
<event>
 4    1  0.3145406E-005  0.4290470E+03  0.7818608E-02  0.1034161E+00
          2   -1    0    0  501    0  0.00000000000E+00  0.00000000000E+00  0.18501844618E+04  0.18501844618E+04  0.25500000000E-02 0.  1.
         -2   -1    0    0    0  501 -0.00000000000E+00 -0.00000000000E+00 -0.24873372705E+02  0.24873372836E+02  0.25500000000E-02 0. -1.
    5000001    1    1    2    0    0  0.70824183968E+01 -0.13079234158E+03  0.73575177406E+03  0.76531854172E+03  0.16500000000E+03 0.  0.
   -5000001    1    1    2    0    0 -0.70824183968E+01  0.13079234158E+03  0.10895593150E+04  0.11097392929E+04  0.16500000000E+03 0.  0.
<mgrwt>
<rscale>  0 0.42904698E+03</rscale>
<asrwt>0</asrwt>
<pdfrwt beam="1">  1        2 0.28464385E+00 0.42904698E+03</pdfrwt>
<pdfrwt beam="2">  1       -2 0.38266716E-02 0.42904698E+03</pdfrwt>
<totfact> 0.26028930E+03</totfact>
</mgrwt>
</event>
<event>
 4    1  0.3145406E-005  0.7914961E+03  0.7818608E-02  0.9572408E-01
         -2   -1    0    0    0  501 -0.00000000000E+00  0.00000000000E+00  0.19567654528E+03  0.19567654530E+03  0.25500000000E-02 0. -1.
          2   -1    0    0  501    0  0.00000000000E+00 -0.00000000000E+00 -0.80038474302E+03  0.80038474302E+03  0.25500000000E-02 0.  1.
    5000001    1    1    2    0    0 -0.58373219785E+02  0.35494207996E+03 -0.30292874631E+03  0.49837951227E+03  0.16500000000E+03 0.  0.
   -5000001    1    1    2    0    0  0.58373219785E+02 -0.35494207996E+03 -0.30177945142E+03  0.49768177605E+03  0.16500000000E+03 0.  0.
<mgrwt>
<rscale>  0 0.79149611E+03</rscale>
<asrwt>0</asrwt>
<pdfrwt beam="1">  1        2 0.12313611E+00 0.79149611E+03</pdfrwt>
<pdfrwt beam="2">  1       -2 0.30104084E-01 0.79149611E+03</pdfrwt>
<totfact> 0.35230868E+02</totfact>
</mgrwt>
</event>
<event>
 4    1  0.3145406E-005  0.6470481E+03  0.7818608E-02  0.9812334E-01
          2   -1    0    0  501    0  0.00000000000E+00  0.00000000000E+00  0.34279748784E+03  0.34279748785E+03  0.25500000000E-02 0.  1.
         -2   -1    0    0    0  501 -0.00000000000E+00 -0.00000000000E+00 -0.30533420185E+03  0.30533420186E+03  0.25500000000E-02 0. -1.
    5000001    1    1    2    0    0  0.12985115472E+03 -0.21511421870E+03  0.13854528972E+03  0.33099130921E+03  0.16500000000E+03 0.  0.
   -5000001    1    1    2    0    0 -0.12985115472E+03  0.21511421870E+03 -0.10108200373E+03  0.31714038050E+03  0.16500000000E+03 0.  0.
<mgrwt>
<rscale>  0 0.64704806E+03</rscale>
<asrwt>0</asrwt>
<pdfrwt beam="1">  1        2 0.52738075E-01 0.64704806E+03</pdfrwt>
<pdfrwt beam="2">  1       -2 0.46974493E-01 0.64704806E+03</pdfrwt>
<totfact> 0.41000804E+02</totfact>
</mgrwt>
</event>
<event>
 4    1  0.3145406E-005  0.3647059E+03  0.7818608E-02  0.1056736E+00
          2   -1    0    0  501    0  0.00000000000E+00  0.00000000000E+00  0.81706015590E+02  0.81706015630E+02  0.25500000000E-02 0.  1.
         -2   -1    0    0    0  501 -0.00000000000E+00 -0.00000000000E+00 -0.40697863504E+03  0.40697863505E+03  0.25500000000E-02 0. -1.
    5000001    1    1    2    0    0 -0.57492327653E+02  0.48305959753E+02 -0.13621637016E+03  0.22675699104E+03  0.16500000000E+03 0.  0.
   -5000001    1    1    2    0    0  0.57492327653E+02 -0.48305959753E+02 -0.18905624930E+03  0.26192765964E+03  0.16500000000E+03 0.  0.
<mgrwt>
<rscale>  0 0.36470592E+03</rscale>
<asrwt>0</asrwt>
<pdfrwt beam="1">  1        2 0.12570157E-01 0.36470592E+03</pdfrwt>
<pdfrwt beam="2">  1       -2 0.62612096E-01 0.36470592E+03</pdfrwt>
<totfact> 0.11744857E+03</totfact>
</mgrwt>
</event>
<event>
 4    1  0.3145406E-005  0.3906591E+03  0.7818608E-02  0.1047063E+00
         -2   -1    0    0    0  501 -0.00000000000E+00  0.00000000000E+00  0.36785472080E+03  0.36785472081E+03  0.25500000000E-02 0. -1.
          2   -1    0    0  501    0  0.00000000000E+00 -0.00000000000E+00 -0.10371927425E+03  0.10371927428E+03  0.25500000000E-02 0.  1.
    5000001    1    1    2    0    0 -0.50236205919E+01  0.96980202671E+02  0.17879182227E+03  0.26195784429E+03  0.16500000000E+03 0.  0.
   -5000001    1    1    2    0    0  0.50236205919E+01 -0.96980202671E+02  0.85343624282E+02  0.20961615081E+03  0.16500000000E+03 0.  0.
<mgrwt>
<rscale>  0 0.39065906E+03</rscale>
<asrwt>0</asrwt>
<pdfrwt beam="1">  1        2 0.15956811E-01 0.39065906E+03</pdfrwt>
<pdfrwt beam="2">  1       -2 0.56593034E-01 0.39065906E+03</pdfrwt>
<totfact> 0.10879739E+03</totfact>
</mgrwt>
</event>
<event>
 4    1  0.3145406E-005  0.4241517E+03  0.7818608E-02  0.1035723E+00
          2   -1    0    0  501    0  0.00000000000E+00  0.00000000000E+00  0.11851151920E+04  0.11851151920E+04  0.25500000000E-02 0.  1.
         -2   -1    0    0    0  501 -0.00000000000E+00 -0.00000000000E+00 -0.37950886601E+02  0.37950886687E+02  0.25500000000E-02 0. -1.
    5000001    1    1    2    0    0 -0.97679544892E+02  0.60086001887E+02  0.37801927987E+03  0.42810652537E+03  0.16500000000E+03 0.  0.
   -5000001    1    1    2    0    0  0.97679544892E+02 -0.60086001887E+02  0.76914502551E+03  0.79495955330E+03  0.16500000000E+03 0.  0.
<mgrwt>
<rscale>  0 0.42415173E+03</rscale>
<asrwt>0</asrwt>
<pdfrwt beam="1">  1        2 0.18232539E+00 0.42415173E+03</pdfrwt>
<pdfrwt beam="2">  1       -2 0.58385986E-02 0.42415173E+03</pdfrwt>
<totfact> 0.31529454E+03</totfact>
</mgrwt>
</event>
<event>
 4    1  0.3145406E-005  0.4593994E+03  0.7818608E-02  0.1024956E+00
          2   -1    0    0  501    0  0.00000000000E+00  0.00000000000E+00  0.12247926753E+04  0.12247926753E+04  0.25500000000E-02 0. -1.
         -2   -1    0    0    0  501 -0.00000000000E+00 -0.00000000000E+00 -0.43078263262E+02  0.43078263337E+02  0.25500000000E-02 0.  1.
    5000001    1    1    2    0    0  0.66053102461E+02  0.39752506310E+02  0.20454135118E+03  0.27387120777E+03  0.16500000000E+03 0.  0.
   -5000001    1    1    2    0    0 -0.66053102461E+02 -0.39752506310E+02  0.97717306086E+03  0.99399973087E+03  0.16500000000E+03 0.  0.
<mgrwt>
<rscale>  0 0.45939935E+03</rscale>
<asrwt>0</asrwt>
<pdfrwt beam="1">  1        2 0.18842963E+00 0.45939935E+03</pdfrwt>
<pdfrwt beam="2">  1       -2 0.66274256E-02 0.45939935E+03</pdfrwt>
<totfact> 0.24540591E+03</totfact>
</mgrwt>
</event>
<event>
 4    1  0.3145406E-005  0.5479317E+03  0.7818608E-02  0.1001974E+00
          2   -1    0    0  501    0  0.00000000000E+00  0.00000000000E+00  0.44772760273E+03  0.44772760273E+03  0.25500000000E-02 0.  1.
         -2   -1    0    0    0  501 -0.00000000000E+00 -0.00000000000E+00 -0.16764051619E+03  0.16764051621E+03  0.25500000000E-02 0. -1.
    5000001    1    1    2    0    0  0.14073383185E+03 -0.64212504322E+02  0.31367765082E+03  0.38671426889E+03  0.16500000000E+03 0.  0.
   -5000001    1    1    2    0    0 -0.14073383185E+03  0.64212504322E+02 -0.33590564286E+02  0.22865385006E+03  0.16500000000E+03 0.  0.
<mgrwt>
<rscale>  0 0.54793170E+03</rscale>
<asrwt>0</asrwt>
<pdfrwt beam="1">  1        2 0.68881170E-01 0.54793170E+03</pdfrwt>
<pdfrwt beam="2">  1       -2 0.25790849E-01 0.54793170E+03</pdfrwt>
<totfact> 0.95042269E+02</totfact>
</mgrwt>
</event>
<event>
 4    1  0.3145406E-005  0.4769578E+03  0.7818608E-02  0.1019975E+00
         -2   -1    0    0    0  501 -0.00000000000E+00  0.00000000000E+00  0.11305739611E+03  0.11305739614E+03  0.25500000000E-02 0. -1.
          2   -1    0    0  501    0  0.00000000000E+00 -0.00000000000E+00 -0.50303819446E+03  0.50303819447E+03  0.25500000000E-02 0.  1.
    5000001    1    1    2    0    0  0.14673502986E+03 -0.88834209622E+02 -0.21434476093E+03  0.32029886408E+03  0.16500000000E+03 0.  0.
   -5000001    1    1    2    0    0 -0.14673502986E+03  0.88834209622E+02 -0.17563603741E+03  0.29579672653E+03  0.16500000000E+03 0.  0.
<mgrwt>
<rscale>  0 0.47695781E+03</rscale>
<asrwt>0</asrwt>
<pdfrwt beam="1">  1        2 0.77390490E-01 0.47695781E+03</pdfrwt>
<pdfrwt beam="2">  1       -2 0.17393446E-01 0.47695781E+03</pdfrwt>
<totfact> 0.16593312E+03</totfact>
</mgrwt>
</event>
<event>
 4    1  0.3145406E-005  0.3886168E+03  0.7818608E-02  0.1047794E+00
         -2   -1    0    0    0  501 -0.00000000000E+00  0.00000000000E+00  0.97499155024E+02  0.97499155058E+02  0.25500000000E-02 0. -1.
          2   -1    0    0  501    0  0.00000000000E+00 -0.00000000000E+00 -0.38724194068E+03  0.38724194069E+03  0.25500000000E-02 0.  1.
    5000001    1    1    2    0    0  0.71779184732E+02  0.46653424840E+02 -0.74288937919E+02  0.20018151690E+03  0.16500000000E+03 0.  0.
   -5000001    1    1    2    0    0 -0.71779184732E+02 -0.46653424840E+02 -0.21545384774E+03  0.28455957885E+03  0.16500000000E+03 0.  0.
<mgrwt>
<rscale>  0 0.38861684E+03</rscale>
<asrwt>0</asrwt>
<pdfrwt beam="1">  1        2 0.59575682E-01 0.38861684E+03</pdfrwt>
<pdfrwt beam="2">  1       -2 0.14999870E-01 0.38861684E+03</pdfrwt>
<totfact> 0.28483375E+03</totfact>
</mgrwt>
</event>
<event>
 4    1  0.3145406E-005  0.4956053E+03  0.7818608E-02  0.1014932E+00
          2   -1    0    0  501    0  0.00000000000E+00  0.00000000000E+00  0.25295281753E+04  0.25295281753E+04  0.25500000000E-02 0.  1.
         -2   -1    0    0    0  501 -0.00000000000E+00 -0.00000000000E+00 -0.24275733252E+02  0.24275733386E+02  0.25500000000E-02 0. -1.
    5000001    1    1    2    0    0  0.18195147598E+03 -0.17450513190E+02  0.11096120301E+04  0.11366066679E+04  0.16500000000E+03 0.  0.
   -5000001    1    1    2    0    0 -0.18195147598E+03  0.17450513190E+02  0.13956404119E+04  0.14171972408E+04  0.16500000000E+03 0.  0.
<mgrwt>
<rscale>  0 0.49560529E+03</rscale>
<asrwt>0</asrwt>
<pdfrwt beam="1">  1        2 0.38915820E+00 0.49560529E+03</pdfrwt>
<pdfrwt beam="2">  1       -2 0.37347280E-02 0.49560529E+03</pdfrwt>
<totfact> 0.11486632E+03</totfact>
</mgrwt>
</event>
<event>
 4    1  0.3145406E-005  0.3881091E+03  0.7818608E-02  0.1047977E+00
         -2   -1    0    0    0  501 -0.00000000000E+00  0.00000000000E+00  0.36034544299E+02  0.36034544389E+02  0.25500000000E-02 0. -1.
          2   -1    0    0  501    0  0.00000000000E+00 -0.00000000000E+00 -0.10450294919E+04  0.10450294919E+04  0.25500000000E-02 0.  1.
    5000001    1    1    2    0    0  0.53688321024E+02  0.84708919282E+02 -0.55837477734E+03  0.59081759350E+03  0.16500000000E+03 0.  0.
   -5000001    1    1    2    0    0 -0.53688321024E+02 -0.84708919282E+02 -0.45062017023E+03  0.49024644276E+03  0.16500000000E+03 0.  0.
<mgrwt>
<rscale>  0 0.38810906E+03</rscale>
<asrwt>0</asrwt>
<pdfrwt beam="1">  1        2 0.16077374E+00 0.38810906E+03</pdfrwt>
<pdfrwt beam="2">  1       -2 0.55437769E-02 0.38810906E+03</pdfrwt>
<totfact> 0.41368164E+03</totfact>
</mgrwt>
</event>
<event>
 4    1  0.3145406E-005  0.4712475E+03  0.7818608E-02  0.1021569E+00
         -2   -1    0    0    0  501 -0.00000000000E+00  0.00000000000E+00  0.19188683237E+03  0.19188683239E+03  0.25500000000E-02 0. -1.
          2   -1    0    0  501    0  0.00000000000E+00 -0.00000000000E+00 -0.28932969140E+03  0.28932969141E+03  0.25500000000E-02 0.  1.
    5000001    1    1    2    0    0 -0.14892491412E+03 -0.59011170470E+02 -0.10111580725E+03  0.25121774373E+03  0.16500000000E+03 0.  0.
   -5000001    1    1    2    0    0  0.14892491412E+03  0.59011170470E+02  0.36729482235E+01  0.22999878007E+03  0.16500000000E+03 0.  0.
<mgrwt>
<rscale>  0 0.47124753E+03</rscale>
<asrwt>0</asrwt>
<pdfrwt beam="1">  1        2 0.44512260E-01 0.47124753E+03</pdfrwt>
<pdfrwt beam="2">  1       -2 0.29521051E-01 0.47124753E+03</pdfrwt>
<totfact> 0.12059906E+03</totfact>
</mgrwt>
</event>
<event>
 4    1  0.3145406E-005  0.6979538E+03  0.7818608E-02  0.9720738E-01
         -2   -1    0    0    0  501 -0.00000000000E+00  0.00000000000E+00  0.17320124891E+03  0.17320124893E+03  0.25500000000E-02 0. -1.
          2   -1    0    0  501    0  0.00000000000E+00 -0.00000000000E+00 -0.70314093264E+03  0.70314093265E+03  0.25500000000E-02 0.  1.
    5000001    1    1    2    0    0  0.30399328568E+03 -0.45415587789E+02 -0.27657260940E+03  0.44518749042E+03  0.16500000000E+03 0.  0.
   -5000001    1    1    2    0    0 -0.30399328568E+03  0.45415587789E+02 -0.25336707433E+03  0.43115469116E+03  0.16500000000E+03 0.  0.
<mgrwt>
<rscale>  0 0.69795383E+03</rscale>
<asrwt>0</asrwt>
<pdfrwt beam="1">  1        2 0.10817553E+00 0.69795383E+03</pdfrwt>
<pdfrwt beam="2">  1       -2 0.26646346E-01 0.69795383E+03</pdfrwt>
<totfact> 0.52302658E+02</totfact>
</mgrwt>
</event>
<event>
 4    1  0.3145406E-005  0.5432300E+03  0.7818608E-02  0.1003073E+00
          2   -1    0    0  501    0  0.00000000000E+00  0.00000000000E+00  0.81958290954E+03  0.81958290954E+03  0.25500000000E-02 0.  1.
         -2   -1    0    0    0  501 -0.00000000000E+00 -0.00000000000E+00 -0.90014941918E+02  0.90014941955E+02  0.25500000000E-02 0. -1.
    5000001    1    1    2    0    0 -0.18376000497E+02  0.55248275537E+02  0.16923832733E+02  0.17578812661E+03  0.16500000000E+03 0.  0.
   -5000001    1    1    2    0    0  0.18376000497E+02 -0.55248275537E+02  0.71264413489E+03  0.73380972488E+03  0.16500000000E+03 0.  0.
<mgrwt>
<rscale>  0 0.54323000E+03</rscale>
<asrwt>0</asrwt>
<pdfrwt beam="1">  1        2 0.12608968E+00 0.54323000E+03</pdfrwt>
<pdfrwt beam="2">  1       -2 0.13848453E-01 0.54323000E+03</pdfrwt>
<totfact> 0.13426869E+03</totfact>
</mgrwt>
</event>
<event>
 4    1  0.3145406E-005  0.7111949E+03  0.7818608E-02  0.9698277E-01
         -2   -1    0    0    0  501 -0.00000000000E+00  0.00000000000E+00  0.96835777239E+02  0.96835777273E+02  0.25500000000E-02 0. -1.
          2   -1    0    0  501    0  0.00000000000E+00 -0.00000000000E+00 -0.13058144272E+04  0.13058144272E+04  0.25500000000E-02 0.  1.
    5000001    1    1    2    0    0 -0.23682574177E+03 -0.24106132669E+02 -0.19762808105E+03  0.35064140659E+03  0.16500000000E+03 0.  0.
   -5000001    1    1    2    0    0  0.23682574177E+03  0.24106132669E+02 -0.10113505689E+04  0.10520087979E+04  0.16500000000E+03 0.  0.
<mgrwt>
<rscale>  0 0.71119492E+03</rscale>
<asrwt>0</asrwt>
<pdfrwt beam="1">  1        2 0.20089451E+00 0.71119492E+03</pdfrwt>
<pdfrwt beam="2">  1       -2 0.14897813E-01 0.71119492E+03</pdfrwt>
<totfact> 0.58761917E+02</totfact>
</mgrwt>
</event>
<event>
 4    1  0.3145406E-005  0.5714482E+03  0.7818608E-02  0.9966479E-01
          2   -1    0    0  501    0  0.00000000000E+00  0.00000000000E+00  0.34863642933E+03  0.34863642934E+03  0.25500000000E-02 0.  1.
         -2   -1    0    0    0  501 -0.00000000000E+00 -0.00000000000E+00 -0.23416446178E+03  0.23416446179E+03  0.25500000000E-02 0. -1.
    5000001    1    1    2    0    0 -0.12803014359E+03 -0.14288002857E+03 -0.78090895038E+02  0.26481995416E+03  0.16500000000E+03 0.  0.
   -5000001    1    1    2    0    0  0.12803014359E+03  0.14288002857E+03  0.19256286259E+03  0.31798093698E+03  0.16500000000E+03 0.  0.
<mgrwt>
<rscale>  0 0.57144820E+03</rscale>
<asrwt>0</asrwt>
<pdfrwt beam="1">  1        2 0.53636374E-01 0.57144820E+03</pdfrwt>
<pdfrwt beam="2">  1       -2 0.36025302E-01 0.57144820E+03</pdfrwt>
<totfact> 0.67671551E+02</totfact>
</mgrwt>
</event>
<event>
 4    1  0.3145406E-005  0.4422385E+03  0.7818608E-02  0.1030062E+00
         -2   -1    0    0    0  501 -0.00000000000E+00  0.00000000000E+00  0.10204605901E+03  0.10204605904E+03  0.25500000000E-02 0. -1.
          2   -1    0    0  501    0  0.00000000000E+00 -0.00000000000E+00 -0.47913386055E+03  0.47913386056E+03  0.25500000000E-02 0.  1.
    5000001    1    1    2    0    0  0.42710607809E+02  0.13751312391E+03 -0.22872136267E+03  0.31665836008E+03  0.16500000000E+03 0.  0.
   -5000001    1    1    2    0    0 -0.42710607809E+02 -0.13751312391E+03 -0.14836643887E+03  0.26452155952E+03  0.16500000000E+03 0.  0.
<mgrwt>
<rscale>  0 0.44223850E+03</rscale>
<asrwt>0</asrwt>
<pdfrwt beam="1">  1        2 0.73712900E-01 0.44223850E+03</pdfrwt>
<pdfrwt beam="2">  1       -2 0.15699394E-01 0.44223850E+03</pdfrwt>
<totfact> 0.20850158E+03</totfact>
</mgrwt>
</event>
<event>
 4    1  0.3145406E-005  0.6253072E+03  0.7818608E-02  0.9854249E-01
          2   -1    0    0  501    0  0.00000000000E+00  0.00000000000E+00  0.10042781360E+04  0.10042781360E+04  0.25500000000E-02 0.  1.
         -2   -1    0    0    0  501 -0.00000000000E+00 -0.00000000000E+00 -0.97335860624E+02  0.97335860657E+02  0.25500000000E-02 0. -1.
    5000001    1    1    2    0    0  0.24478703053E+03  0.42711129366E+02  0.28837334166E+03  0.41488445990E+03  0.16500000000E+03 0.  0.
   -5000001    1    1    2    0    0 -0.24478703053E+03 -0.42711129366E+02  0.61856893368E+03  0.68672953672E+03  0.16500000000E+03 0.  0.
<mgrwt>
<rscale>  0 0.62530721E+03</rscale>
<asrwt>0</asrwt>
<pdfrwt beam="1">  1        2 0.15450432E+00 0.62530721E+03</pdfrwt>
<pdfrwt beam="2">  1       -2 0.14974748E-01 0.62530721E+03</pdfrwt>
<totfact> 0.88643030E+02</totfact>
</mgrwt>
</event>
<event>
 4    1  0.3145406E-005  0.5729175E+03  0.7818608E-02  0.9963243E-01
          2   -1    0    0  501    0  0.00000000000E+00  0.00000000000E+00  0.66743710353E+03  0.66743710354E+03  0.25500000000E-02 0.  1.
         -2   -1    0    0    0  501 -0.00000000000E+00 -0.00000000000E+00 -0.12294584613E+03  0.12294584615E+03  0.25500000000E-02 0. -1.
    5000001    1    1    2    0    0 -0.22350476160E+02  0.22477189948E+03  0.35741884482E+03  0.45386692016E+03  0.16500000000E+03 0.  0.
   -5000001    1    1    2    0    0  0.22350476160E+02 -0.22477189948E+03  0.18707241259E+03  0.33651602953E+03  0.16500000000E+03 0.  0.
<mgrwt>
<rscale>  0 0.57291751E+03</rscale>
<asrwt>0</asrwt>
<pdfrwt beam="1">  1        2 0.10268263E+00 0.57291751E+03</pdfrwt>
<pdfrwt beam="2">  1       -2 0.18914746E-01 0.57291751E+03</pdfrwt>
<totfact> 0.10275310E+03</totfact>
</mgrwt>
</event>
<event>
 4    1  0.3145406E-005  0.6461385E+03  0.7818608E-02  0.9814052E-01
          2   -1    0    0  501    0  0.00000000000E+00  0.00000000000E+00  0.14574617539E+04  0.14574617539E+04  0.25500000000E-02 0.  1.
         -2   -1    0    0    0  501 -0.00000000000E+00 -0.00000000000E+00 -0.71613354510E+02  0.71613354555E+02  0.25500000000E-02 0. -1.
    5000001    1    1    2    0    0 -0.22849151819E+03 -0.11628028847E+03  0.44003985532E+03  0.53534059592E+03  0.16500000000E+03 0.  0.
   -5000001    1    1    2    0    0  0.22849151819E+03  0.11628028847E+03  0.94580854407E+03  0.99373451253E+03  0.16500000000E+03 0.  0.
<mgrwt>
<rscale>  0 0.64613845E+03</rscale>
<asrwt>0</asrwt>
<pdfrwt beam="1">  1        2 0.22422487E+00 0.64613845E+03</pdfrwt>
<pdfrwt beam="2">  1       -2 0.11017440E-01 0.64613845E+03</pdfrwt>
<totfact> 0.79889505E+02</totfact>
</mgrwt>
</event>
<event>
 4    1  0.3145406E-005  0.3929407E+03  0.7818608E-02  0.1046252E+00
          2   -1    0    0  501    0  0.00000000000E+00  0.00000000000E+00  0.13243185383E+04  0.13243185383E+04  0.25500000000E-02 0.  1.
         -2   -1    0    0    0  501 -0.00000000000E+00 -0.00000000000E+00 -0.29147511217E+02  0.29147511329E+02  0.25500000000E-02 0. -1.
    5000001    1    1    2    0    0  0.20674848551E+02  0.99920391933E+02  0.75453320306E+03  0.77907437938E+03  0.16500000000E+03 0.  0.
   -5000001    1    1    2    0    0 -0.20674848551E+02 -0.99920391933E+02  0.54063782399E+03  0.57439167022E+03  0.16500000000E+03 0.  0.
<mgrwt>
<rscale>  0 0.39294065E+03</rscale>
<asrwt>0</asrwt>
<pdfrwt beam="1">  1        2 0.20374138E+00 0.39294065E+03</pdfrwt>
<pdfrwt beam="2">  1       -2 0.44842310E-02 0.39294065E+03</pdfrwt>
<totfact> 0.39422010E+03</totfact>
</mgrwt>
</event>
<event>
 4    1  0.3145406E-005  0.1050432E+04  0.7818608E-02  0.9254898E-01
         -2   -1    0    0    0  501 -0.00000000000E+00  0.00000000000E+00  0.72790802462E+03  0.72790802462E+03  0.25500000000E-02 0. -1.
          2   -1    0    0  501    0  0.00000000000E+00 -0.00000000000E+00 -0.37896552901E+03  0.37896552902E+03  0.25500000000E-02 0.  1.
    5000001    1    1    2    0    0 -0.25401293179E+03 -0.71577256070E+02 -0.27132210357E+03  0.41290017800E+03  0.16500000000E+03 0.  0.
   -5000001    1    1    2    0    0  0.25401293179E+03  0.71577256070E+02  0.62026459918E+03  0.69397337564E+03  0.16500000000E+03 0.  0.
<mgrwt>
<rscale>  0 0.10504324E+04</rscale>
<asrwt>0</asrwt>
<pdfrwt beam="1">  1        2 0.58302390E-01 0.10504324E+04</pdfrwt>
<pdfrwt beam="2">  1       -2 0.11198585E+00 0.10504324E+04</pdfrwt>
<totfact> 0.52930483E+01</totfact>
</mgrwt>
</event>
<event>
 4    1  0.3145406E-005  0.5361196E+03  0.7818608E-02  0.1004759E+00
         -2   -1    0    0    0  501 -0.00000000000E+00  0.00000000000E+00  0.20152154949E+03  0.20152154950E+03  0.25500000000E-02 0. -1.
          2   -1    0    0  501    0  0.00000000000E+00 -0.00000000000E+00 -0.35656763379E+03  0.35656763380E+03  0.25500000000E-02 0.  1.
    5000001    1    1    2    0    0 -0.19461518608E+03 -0.72484702531E+02 -0.37179782338E+02  0.26783659005E+03  0.16500000000E+03 0.  0.
   -5000001    1    1    2    0    0  0.19461518608E+03  0.72484702531E+02 -0.11786630197E+03  0.29025259326E+03  0.16500000000E+03 0.  0.
<mgrwt>
<rscale>  0 0.53611962E+03</rscale>
<asrwt>0</asrwt>
<pdfrwt beam="1">  1        2 0.54856559E-01 0.53611962E+03</pdfrwt>
<pdfrwt beam="2">  1       -2 0.31003315E-01 0.53611962E+03</pdfrwt>
<totfact> 0.87544274E+02</totfact>
</mgrwt>
</event>
<event>
 4    1  0.3145406E-005  0.4146629E+03  0.7818608E-02  0.1038817E+00
          2   -1    0    0  501    0  0.00000000000E+00  0.00000000000E+00  0.67027217425E+03  0.67027217425E+03  0.25500000000E-02 0.  1.
         -2   -1    0    0    0  501 -0.00000000000E+00 -0.00000000000E+00 -0.64132642884E+02  0.64132642934E+02  0.25500000000E-02 0. -1.
    5000001    1    1    2    0    0  0.11451761202E+03  0.65834957787E+01  0.21269736082E+03  0.29261372692E+03  0.16500000000E+03 0.  0.
   -5000001    1    1    2    0    0 -0.11451761202E+03 -0.65834957787E+01  0.39344217055E+03  0.44179109027E+03  0.16500000000E+03 0.  0.
<mgrwt>
<rscale>  0 0.41466288E+03</rscale>
<asrwt>0</asrwt>
<pdfrwt beam="1">  1        2 0.10311879E+00 0.41466288E+03</pdfrwt>
<pdfrwt beam="2">  1       -2 0.98665610E-02 0.41466288E+03</pdfrwt>
<totfact> 0.30147831E+03</totfact>
</mgrwt>
</event>
<event>
 4    1  0.3145406E-005  0.5316440E+03  0.7818608E-02  0.1005834E+00
          2   -1    0    0  501    0  0.00000000000E+00  0.00000000000E+00  0.15646937104E+03  0.15646937106E+03  0.25500000000E-02 0.  1.
         -2   -1    0    0    0  501 -0.00000000000E+00 -0.00000000000E+00 -0.45159846869E+03  0.45159846870E+03  0.25500000000E-02 0. -1.
    5000001    1    1    2    0    0  0.15470400220E+03  0.52061797418E+02  0.64961730996E+00  0.23209735252E+03  0.16500000000E+03 0.  0.
   -5000001    1    1    2    0    0 -0.15470400220E+03 -0.52061797418E+02 -0.29577871496E+03  0.37597048724E+03  0.16500000000E+03 0.  0.
<mgrwt>
<rscale>  0 0.53164397E+03</rscale>
<asrwt>0</asrwt>
<pdfrwt beam="1">  1        2 0.24072211E-01 0.53164397E+03</pdfrwt>
<pdfrwt beam="2">  1       -2 0.69476687E-01 0.53164397E+03</pdfrwt>
<totfact> 0.43665637E+02</totfact>
</mgrwt>
</event>
<event>
 4    1  0.3145406E-005  0.3738663E+03  0.7818608E-02  0.1053224E+00
          2   -1    0    0  501    0  0.00000000000E+00  0.00000000000E+00  0.12255487784E+04  0.12255487784E+04  0.25500000000E-02 0.  1.
         -2   -1    0    0    0  501 -0.00000000000E+00 -0.00000000000E+00 -0.28512948086E+02  0.28512948200E+02  0.25500000000E-02 0. -1.
    5000001    1    1    2    0    0  0.91920460521E+01 -0.82593246882E+02  0.50288370609E+03  0.53574542461E+03  0.16500000000E+03 0.  0.
   -5000001    1    1    2    0    0 -0.91920460521E+01  0.82593246882E+02  0.69415212419E+03  0.71831630196E+03  0.16500000000E+03 0.  0.
<mgrwt>
<rscale>  0 0.37386633E+03</rscale>
<asrwt>0</asrwt>
<pdfrwt beam="1">  1        2 0.18854599E+00 0.37386633E+03</pdfrwt>
<pdfrwt beam="2">  1       -2 0.43866068E-02 0.37386633E+03</pdfrwt>
<totfact> 0.46352250E+03</totfact>
</mgrwt>
</event>
<event>
 4    1  0.3145406E-005  0.8716941E+03  0.7818608E-02  0.9461674E-01
          2   -1    0    0  501    0  0.00000000000E+00  0.00000000000E+00  0.95519849381E+03  0.95519849382E+03  0.25500000000E-02 0.  1.
         -2   -1    0    0    0  501 -0.00000000000E+00 -0.00000000000E+00 -0.19887242646E+03  0.19887242648E+03  0.25500000000E-02 0. -1.
    5000001    1    1    2    0    0  0.21376011776E+03  0.32623865709E+03  0.51455197368E+03  0.66641862439E+03  0.16500000000E+03 0.  0.
   -5000001    1    1    2    0    0 -0.21376011776E+03 -0.32623865709E+03  0.24177409367E+03  0.48765229590E+03  0.16500000000E+03 0.  0.
<mgrwt>
<rscale>  0 0.87169408E+03</rscale>
<asrwt>0</asrwt>
<pdfrwt beam="1">  1        2 0.14695362E+00 0.87169408E+03</pdfrwt>
<pdfrwt beam="2">  1       -2 0.30595758E-01 0.87169408E+03</pdfrwt>
<totfact> 0.26682653E+02</totfact>
</mgrwt>
</event>
<event>
 4    1  0.3145406E-005  0.4530853E+03  0.7818608E-02  0.1026806E+00
          2   -1    0    0  501    0  0.00000000000E+00  0.00000000000E+00  0.70304536220E+03  0.70304536220E+03  0.25500000000E-02 0.  1.
         -2   -1    0    0    0  501 -0.00000000000E+00 -0.00000000000E+00 -0.72998956854E+02  0.72998956899E+02  0.25500000000E-02 0. -1.
    5000001    1    1    2    0    0  0.14843126637E+03  0.60932288996E+01  0.23789757369E+03  0.32540624432E+03  0.16500000000E+03 0.  0.
   -5000001    1    1    2    0    0 -0.14843126637E+03 -0.60932288996E+01  0.39214883166E+03  0.45063807478E+03  0.16500000000E+03 0.  0.
<mgrwt>
<rscale>  0 0.45308533E+03</rscale>
<asrwt>0</asrwt>
<pdfrwt beam="1">  1        2 0.10816082E+00 0.45308533E+03</pdfrwt>
<pdfrwt beam="2">  1       -2 0.11230609E-01 0.45308533E+03</pdfrwt>
<totfact> 0.23076090E+03</totfact>
</mgrwt>
</event>
<event>
 4    1  0.3145406E-005  0.7510630E+03  0.7818608E-02  0.9633684E-01
         -2   -1    0    0    0  501 -0.00000000000E+00  0.00000000000E+00  0.19848002210E+03  0.19848002211E+03  0.25500000000E-02 0.  1.
          2   -1    0    0  501    0  0.00000000000E+00 -0.00000000000E+00 -0.71051946516E+03  0.71051946517E+03  0.25500000000E-02 0. -1.
    5000001    1    1    2    0    0 -0.15694765332E+03  0.24431203636E+03 -0.46381521686E+03  0.57155095344E+03  0.16500000000E+03 0.  0.
   -5000001    1    1    2    0    0  0.15694765332E+03 -0.24431203636E+03 -0.48224226205E+02  0.33744853383E+03  0.16500000000E+03 0.  0.
<mgrwt>
<rscale>  0 0.75106303E+03</rscale>
<asrwt>0</asrwt>
<pdfrwt beam="1">  1        2 0.10931069E+00 0.75106303E+03</pdfrwt>
<pdfrwt beam="2">  1       -2 0.30535388E-01 0.75106303E+03</pdfrwt>
<totfact> 0.40101845E+02</totfact>
</mgrwt>
</event>
<event>
 4    1  0.3145406E-005  0.6930532E+03  0.7818608E-02  0.9729186E-01
         -2   -1    0    0    0  501 -0.00000000000E+00  0.00000000000E+00  0.38659225398E+02  0.38659225482E+02  0.25500000000E-02 0. -1.
          2   -1    0    0  501    0  0.00000000000E+00 -0.00000000000E+00 -0.31061324759E+04  0.31061324759E+04  0.25500000000E-02 0.  1.
    5000001    1    1    2    0    0 -0.13029326251E+03  0.20130469231E+03 -0.23869456294E+04  0.24046276949E+04  0.16500000000E+03 0.  0.
   -5000001    1    1    2    0    0  0.13029326251E+03 -0.20130469231E+03 -0.68052762113E+03  0.74016400650E+03  0.16500000000E+03 0.  0.
<mgrwt>
<rscale>  0 0.69305317E+03</rscale>
<asrwt>0</asrwt>
<pdfrwt beam="1">  1        2 0.47786634E+00 0.69305317E+03</pdfrwt>
<pdfrwt beam="2">  1       -2 0.59475756E-02 0.69305317E+03</pdfrwt>
<totfact> 0.25036871E+02</totfact>
</mgrwt>
</event>
<event>
 4    1  0.3145406E-005  0.6142980E+03  0.7818608E-02  0.9876178E-01
         -2   -1    0    0    0  501 -0.00000000000E+00  0.00000000000E+00  0.10249978837E+03  0.10249978840E+03  0.25500000000E-02 0. -1.
          2   -1    0    0  501    0  0.00000000000E+00 -0.00000000000E+00 -0.92039716151E+03  0.92039716152E+03  0.25500000000E-02 0.  1.
    5000001    1    1    2    0    0 -0.23556934999E+03  0.97536679503E+02 -0.48542215784E+03  0.57259583812E+03  0.16500000000E+03 0.  0.
   -5000001    1    1    2    0    0  0.23556934999E+03 -0.97536679503E+02 -0.33247521530E+03  0.45030111181E+03  0.16500000000E+03 0.  0.
<mgrwt>
<rscale>  0 0.61429802E+03</rscale>
<asrwt>0</asrwt>
<pdfrwt beam="1">  1        2 0.14159956E+00 0.61429802E+03</pdfrwt>
<pdfrwt beam="2">  1       -2 0.15769199E-01 0.61429802E+03</pdfrwt>
<totfact> 0.92051377E+02</totfact>
</mgrwt>
</event>
<event>
 4    1  0.3145406E-005  0.4003294E+03  0.7818608E-02  0.1043666E+00
         -2   -1    0    0    0  501 -0.00000000000E+00  0.00000000000E+00  0.71845386232E+02  0.71845386277E+02  0.25500000000E-02 0. -1.
          2   -1    0    0  501    0  0.00000000000E+00 -0.00000000000E+00 -0.55766852868E+03  0.55766852869E+03  0.25500000000E-02 0.  1.
    5000001    1    1    2    0    0 -0.11173482757E+03 -0.17672639672E+02 -0.25333244120E+03  0.32279919400E+03  0.16500000000E+03 0.  0.
   -5000001    1    1    2    0    0  0.11173482757E+03  0.17672639672E+02 -0.23249070126E+03  0.30671472097E+03  0.16500000000E+03 0.  0.
<mgrwt>
<rscale>  0 0.40032942E+03</rscale>
<asrwt>0</asrwt>
<pdfrwt beam="1">  1        2 0.85795156E-01 0.40032942E+03</pdfrwt>
<pdfrwt beam="2">  1       -2 0.11053137E-01 0.40032942E+03</pdfrwt>
<totfact> 0.31218189E+03</totfact>
</mgrwt>
</event>
<event>
 4    1  0.3145406E-005  0.7322170E+03  0.7818608E-02  0.9663670E-01
         -2   -1    0    0    0  501 -0.00000000000E+00  0.00000000000E+00  0.33736989508E+03  0.33736989509E+03  0.25500000000E-02 0. -1.
          2   -1    0    0  501    0  0.00000000000E+00 -0.00000000000E+00 -0.39729513295E+03  0.39729513296E+03  0.25500000000E-02 0.  1.
    5000001    1    1    2    0    0 -0.14629507772E+03 -0.29211327693E+03 -0.38823964515E+02  0.36805531724E+03  0.16500000000E+03 0.  0.
   -5000001    1    1    2    0    0  0.14629507772E+03  0.29211327693E+03 -0.21101273354E+02  0.36660971081E+03  0.16500000000E+03 0.  0.
<mgrwt>
<rscale>  0 0.73221696E+03</rscale>
<asrwt>0</asrwt>
<pdfrwt beam="1">  1        2 0.61122328E-01 0.73221696E+03</pdfrwt>
<pdfrwt beam="2">  1       -2 0.51903061E-01 0.73221696E+03</pdfrwt>
<totfact> 0.28337260E+02</totfact>
</mgrwt>
</event>
<event>
 4    1  0.3145406E-005  0.3750117E+03  0.7818608E-02  0.1052793E+00
          2   -1    0    0  501    0  0.00000000000E+00  0.00000000000E+00  0.68410520044E+03  0.68410520044E+03  0.25500000000E-02 0.  1.
         -2   -1    0    0    0  501 -0.00000000000E+00 -0.00000000000E+00 -0.51393339108E+02  0.51393339172E+02  0.25500000000E-02 0. -1.
    5000001    1    1    2    0    0 -0.65178761558E+02 -0.40986981236E+02  0.40418148337E+03  0.44330111109E+03  0.16500000000E+03 0.  0.
   -5000001    1    1    2    0    0  0.65178761558E+02  0.40986981236E+02  0.22853037796E+03  0.29219742853E+03  0.16500000000E+03 0.  0.
<mgrwt>
<rscale>  0 0.37501174E+03</rscale>
<asrwt>0</asrwt>
<pdfrwt beam="1">  1        2 0.10524694E+00 0.37501174E+03</pdfrwt>
<pdfrwt beam="2">  1       -2 0.79066683E-02 0.37501174E+03</pdfrwt>
<totfact> 0.41756407E+03</totfact>
</mgrwt>
</event>
<event>
 4    1  0.3145406E-005  0.4181852E+03  0.7818608E-02  0.1037659E+00
          2   -1    0    0  501    0  0.00000000000E+00  0.00000000000E+00  0.23440940305E+03  0.23440940306E+03  0.25500000000E-02 0.  1.
         -2   -1    0    0    0  501 -0.00000000000E+00 -0.00000000000E+00 -0.18651008166E+03  0.18651008167E+03  0.25500000000E-02 0. -1.
    5000001    1    1    2    0    0  0.96487880197E+02  0.81783027451E+02  0.15252514376E+01  0.20790791470E+03  0.16500000000E+03 0.  0.
   -5000001    1    1    2    0    0 -0.96487880197E+02 -0.81783027451E+02  0.46374069951E+02  0.21301157003E+03  0.16500000000E+03 0.  0.
<mgrwt>
<rscale>  0 0.41818521E+03</rscale>
<asrwt>0</asrwt>
<pdfrwt beam="1">  1        2 0.36062985E-01 0.41818521E+03</pdfrwt>
<pdfrwt beam="2">  1       -2 0.28693859E-01 0.41818521E+03</pdfrwt>
<totfact> 0.15990874E+03</totfact>
</mgrwt>
</event>
<event>
 4    1  0.3145406E-005  0.4719909E+03  0.7818608E-02  0.1021360E+00
          2   -1    0    0  501    0  0.00000000000E+00  0.00000000000E+00  0.41730324442E+03  0.41730324442E+03  0.25500000000E-02 0.  1.
         -2   -1    0    0    0  501 -0.00000000000E+00 -0.00000000000E+00 -0.13346134742E+03  0.13346134744E+03  0.25500000000E-02 0. -1.
    5000001    1    1    2    0    0 -0.15910619438E+03  0.43437625854E+02  0.18346058125E+03  0.29679015028E+03  0.16500000000E+03 0.  0.
   -5000001    1    1    2    0    0  0.15910619438E+03 -0.43437625854E+02  0.10038131575E+03  0.25397444159E+03  0.16500000000E+03 0.  0.
<mgrwt>
<rscale>  0 0.47199090E+03</rscale>
<asrwt>0</asrwt>
<pdfrwt beam="1">  1        2 0.64200499E-01 0.47199090E+03</pdfrwt>
<pdfrwt beam="2">  1       -2 0.20532515E-01 0.47199090E+03</pdfrwt>
<totfact> 0.15397902E+03</totfact>
</mgrwt>
</event>
<event>
 4    1  0.3145406E-005  0.3684944E+03  0.7818608E-02  0.1055270E+00
          2   -1    0    0  501    0  0.00000000000E+00  0.00000000000E+00  0.58868680717E+03  0.58868680718E+03  0.25500000000E-02 0.  1.
         -2   -1    0    0    0  501 -0.00000000000E+00 -0.00000000000E+00 -0.57665703005E+02  0.57665703061E+02  0.25500000000E-02 0. -1.
    5000001    1    1    2    0    0 -0.15892045321E+02 -0.43860802024E+02  0.14725012752E+03  0.22601753718E+03  0.16500000000E+03 0.  0.
   -5000001    1    1    2    0    0  0.15892045321E+02  0.43860802024E+02  0.38377097664E+03  0.42033497306E+03  0.16500000000E+03 0.  0.
<mgrwt>
<rscale>  0 0.36849444E+03</rscale>
<asrwt>0</asrwt>
<pdfrwt beam="1">  1        2 0.90567199E-01 0.36849444E+03</pdfrwt>
<pdfrwt beam="2">  1       -2 0.88716469E-02 0.36849444E+03</pdfrwt>
<totfact> 0.41636957E+03</totfact>
</mgrwt>
</event>
<event>
 4    1  0.3145406E-005  0.8007074E+03  0.7818608E-02  0.9558994E-01
         -2   -1    0    0    0  501 -0.00000000000E+00  0.00000000000E+00  0.60770056961E+02  0.60770057014E+02  0.25500000000E-02 0. -1.
          2   -1    0    0  501    0  0.00000000000E+00 -0.00000000000E+00 -0.26375336286E+04  0.26375336286E+04  0.25500000000E-02 0.  1.
    5000001    1    1    2    0    0 -0.12577336373E+03 -0.32788469398E+03 -0.16208042218E+04  0.16666009232E+04  0.16500000000E+03 0.  0.
   -5000001    1    1    2    0    0  0.12577336373E+03  0.32788469398E+03 -0.95595934978E+03  0.10317027624E+04  0.16500000000E+03 0.  0.
<mgrwt>
<rscale>  0 0.80070736E+03</rscale>
<asrwt>0</asrwt>
<pdfrwt beam="1">  1        2 0.40577431E+00 0.80070736E+03</pdfrwt>
<pdfrwt beam="2">  1       -2 0.93492416E-02 0.80070736E+03</pdfrwt>
<totfact> 0.22967033E+02</totfact>
</mgrwt>
</event>
<event>
 4    1  0.3145406E-005  0.4711100E+03  0.7818608E-02  0.1021607E+00
          2   -1    0    0  501    0  0.00000000000E+00  0.00000000000E+00  0.12601865434E+04  0.12601865434E+04  0.25500000000E-02 0.  1.
         -2   -1    0    0    0  501 -0.00000000000E+00 -0.00000000000E+00 -0.44030119175E+02  0.44030119249E+02  0.25500000000E-02 0. -1.
    5000001    1    1    2    0    0  0.14225036859E+03 -0.16611095730E+02  0.85179202943E+03  0.87936667964E+03  0.16500000000E+03 0.  0.
   -5000001    1    1    2    0    0 -0.14225036859E+03  0.16611095730E+02  0.36436439478E+03  0.42484998299E+03  0.16500000000E+03 0.  0.
<mgrwt>
<rscale>  0 0.47111002E+03</rscale>
<asrwt>0</asrwt>
<pdfrwt beam="1">  1        2 0.19387482E+00 0.47111002E+03</pdfrwt>
<pdfrwt beam="2">  1       -2 0.67738655E-02 0.47111002E+03</pdfrwt>
<totfact> 0.22625879E+03</totfact>
</mgrwt>
</event>
<event>
 4    1  0.3145406E-005  0.5684619E+03  0.7818608E-02  0.9973088E-01
          2   -1    0    0  501    0  0.00000000000E+00  0.00000000000E+00  0.95889234943E+03  0.95889234944E+03  0.25500000000E-02 0.  1.
         -2   -1    0    0    0  501 -0.00000000000E+00 -0.00000000000E+00 -0.84250579533E+02  0.84250579571E+02  0.25500000000E-02 0. -1.
    5000001    1    1    2    0    0  0.81468603244E+02 -0.94421585831E+02  0.79562781288E+02  0.22160280989E+03  0.16500000000E+03 0.  0.
   -5000001    1    1    2    0    0 -0.81468603244E+02  0.94421585831E+02  0.79507898861E+03  0.82154011912E+03  0.16500000000E+03 0.  0.
<mgrwt>
<rscale>  0 0.56846191E+03</rscale>
<asrwt>0</asrwt>
<pdfrwt beam="1">  1        2 0.14752190E+00 0.56846191E+03</pdfrwt>
<pdfrwt beam="2">  1       -2 0.12961628E-01 0.56846191E+03</pdfrwt>
<totfact> 0.12080613E+03</totfact>
</mgrwt>
</event>
<event>
 4    1  0.3145406E-005  0.3864578E+03  0.7818608E-02  0.1048572E+00
         -2   -1    0    0    0  501 -0.00000000000E+00  0.00000000000E+00  0.48509513797E+02  0.48509513864E+02  0.25500000000E-02 0. -1.
          2   -1    0    0  501    0  0.00000000000E+00 -0.00000000000E+00 -0.76969255772E+03  0.76969255773E+03  0.25500000000E-02 0.  1.
    5000001    1    1    2    0    0 -0.87819250653E+01  0.95275966401E+02 -0.42611415029E+03  0.46685426105E+03  0.16500000000E+03 0.  0.
   -5000001    1    1    2    0    0  0.87819250653E+01 -0.95275966401E+02 -0.29506889363E+03  0.35134781054E+03  0.16500000000E+03 0.  0.
<mgrwt>
<rscale>  0 0.38645782E+03</rscale>
<asrwt>0</asrwt>
<pdfrwt beam="1">  1        2 0.11841423E+00 0.38645782E+03</pdfrwt>
<pdfrwt beam="2">  1       -2 0.74630027E-02 0.38645782E+03</pdfrwt>
<totfact> 0.39497103E+03</totfact>
</mgrwt>
</event>
<event>
 4    1  0.3145406E-005  0.4925744E+03  0.7818608E-02  0.1015735E+00
          2   -1    0    0  501    0  0.00000000000E+00  0.00000000000E+00  0.59674527809E+03  0.59674527810E+03  0.25500000000E-02 0.  1.
         -2   -1    0    0    0  501 -0.00000000000E+00 -0.00000000000E+00 -0.10164701151E+03  0.10164701154E+03  0.25500000000E-02 0. -1.
    5000001    1    1    2    0    0  0.14227287966E+03  0.10855859595E+03  0.30071030238E+03  0.38688270445E+03  0.16500000000E+03 0.  0.
   -5000001    1    1    2    0    0 -0.14227287966E+03 -0.10855859595E+03  0.19438796420E+03  0.31150958519E+03  0.16500000000E+03 0.  0.
<mgrwt>
<rscale>  0 0.49257436E+03</rscale>
<asrwt>0</asrwt>
<pdfrwt beam="1">  1        2 0.91806968E-01 0.49257436E+03</pdfrwt>
<pdfrwt beam="2">  1       -2 0.15638001E-01 0.49257436E+03</pdfrwt>
<totfact> 0.16285406E+03</totfact>
</mgrwt>
</event>
<event>
 4    1  0.3145406E-005  0.5912424E+03  0.7818608E-02  0.9923744E-01
          2   -1    0    0  501    0  0.00000000000E+00  0.00000000000E+00  0.20020873545E+04  0.20020873545E+04  0.25500000000E-02 0. -1.
         -2   -1    0    0    0  501 -0.00000000000E+00 -0.00000000000E+00 -0.43650394283E+02  0.43650394358E+02  0.25500000000E-02 0.  1.
    5000001    1    1    2    0    0  0.17237689966E+03  0.15502707689E+03  0.70198724994E+03  0.75746834204E+03  0.16500000000E+03 0.  0.
   -5000001    1    1    2    0    0 -0.17237689966E+03 -0.15502707689E+03  0.12564497103E+04  0.12882694068E+04  0.16500000000E+03 0.  0.
<mgrwt>
<rscale>  0 0.59124243E+03</rscale>
<asrwt>0</asrwt>
<pdfrwt beam="1">  1        2 0.30801333E+00 0.59124243E+03</pdfrwt>
<pdfrwt beam="2">  1       -2 0.67154477E-02 0.59124243E+03</pdfrwt>
<totfact> 0.89539556E+02</totfact>
</mgrwt>
</event>
<event>
 4    1  0.3145406E-005  0.1561363E+04  0.7818608E-02  0.8844642E-01
          2   -1    0    0  501    0  0.00000000000E+00  0.00000000000E+00  0.30029557496E+04  0.30029557496E+04  0.25500000000E-02 0.  1.
         -2   -1    0    0    0  501 -0.00000000000E+00 -0.00000000000E+00 -0.20295468424E+03  0.20295468425E+03  0.25500000000E-02 0. -1.
    5000001    1    1    2    0    0 -0.25192458553E+03  0.71122882640E+03  0.11665538077E+04  0.13990658406E+04  0.16500000000E+03 0.  0.
   -5000001    1    1    2    0    0  0.25192458553E+03 -0.71122882640E+03  0.16334472577E+04  0.18068445932E+04  0.16500000000E+03 0.  0.
<mgrwt>
<rscale>  0 0.15613634E+04</rscale>
<asrwt>0</asrwt>
<pdfrwt beam="1">  1        2 0.46199319E+00 0.15613634E+04</pdfrwt>
<pdfrwt beam="2">  1       -2 0.31223798E-01 0.15613634E+04</pdfrwt>
<totfact> 0.15967270E+01</totfact>
</mgrwt>
</event>
<event>
 4    1  0.3145406E-005  0.5516686E+03  0.7818608E-02  0.1001108E+00
          2   -1    0    0  501    0  0.00000000000E+00  0.00000000000E+00  0.49865415657E+03  0.49865415658E+03  0.25500000000E-02 0.  1.
         -2   -1    0    0    0  501 -0.00000000000E+00 -0.00000000000E+00 -0.15257983764E+03  0.15257983766E+03  0.25500000000E-02 0. -1.
    5000001    1    1    2    0    0  0.63560037036E+02 -0.13662865889E+03 -0.17866269088E+02  0.22416840167E+03  0.16500000000E+03 0.  0.
   -5000001    1    1    2    0    0 -0.63560037036E+02  0.13662865889E+03  0.36394058802E+03  0.42706559256E+03  0.16500000000E+03 0.  0.
<mgrwt>
<rscale>  0 0.55166863E+03</rscale>
<asrwt>0</asrwt>
<pdfrwt beam="1">  1        2 0.76716024E-01 0.55166863E+03</pdfrwt>
<pdfrwt beam="2">  1       -2 0.23473821E-01 0.55166863E+03</pdfrwt>
<totfact> 0.99485639E+02</totfact>
</mgrwt>
</event>
<event>
 4    1  0.3145406E-005  0.4474405E+03  0.7818608E-02  0.1028488E+00
         -2   -1    0    0    0  501 -0.00000000000E+00  0.00000000000E+00  0.16952050381E+02  0.16952050573E+02  0.25500000000E-02 0. -1.
          2   -1    0    0  501    0  0.00000000000E+00 -0.00000000000E+00 -0.29524896907E+04  0.29524896907E+04  0.25500000000E-02 0.  1.
    5000001    1    1    2    0    0 -0.13616800851E+03  0.58654404057E+01 -0.19003969660E+04  0.19124094118E+04  0.16500000000E+03 0.  0.
   -5000001    1    1    2    0    0  0.13616800851E+03 -0.58654404057E+01 -0.10351406742E+04  0.10570323294E+04  0.16500000000E+03 0.  0.
<mgrwt>
<rscale>  0 0.44744052E+03</rscale>
<asrwt>0</asrwt>
<pdfrwt beam="1">  1        2 0.45422878E+00 0.44744052E+03</pdfrwt>
<pdfrwt beam="2">  1       -2 0.26080101E-02 0.44744052E+03</pdfrwt>
<totfact> 0.11320319E+03</totfact>
</mgrwt>
</event>
<event>
 4    1  0.3145406E-005  0.4165579E+03  0.7818608E-02  0.1038192E+00
         -2   -1    0    0    0  501 -0.00000000000E+00  0.00000000000E+00  0.14284099897E+03  0.14284099899E+03  0.25500000000E-02 0. -1.
          2   -1    0    0  501    0  0.00000000000E+00 -0.00000000000E+00 -0.30369522243E+03  0.30369522244E+03  0.25500000000E-02 0.  1.
    5000001    1    1    2    0    0 -0.22128804433E+02  0.95760924503E+02 -0.16682051087E+03  0.25438931089E+03  0.16500000000E+03 0.  0.
   -5000001    1    1    2    0    0  0.22128804433E+02 -0.95760924503E+02  0.59662873998E+01  0.19214691055E+03  0.16500000000E+03 0.  0.
<mgrwt>
<rscale>  0 0.41655794E+03</rscale>
<asrwt>0</asrwt>
<pdfrwt beam="1">  1        2 0.46722342E-01 0.41655794E+03</pdfrwt>
<pdfrwt beam="2">  1       -2 0.21975538E-01 0.41655794E+03</pdfrwt>
<totfact> 0.19385890E+03</totfact>
</mgrwt>
</event>
<event>
 4    1  0.3145406E-005  0.7015986E+03  0.7818608E-02  0.9714502E-01
          2   -1    0    0  501    0  0.00000000000E+00  0.00000000000E+00  0.18237311742E+04  0.18237311742E+04  0.25500000000E-02 0.  1.
         -2   -1    0    0    0  501 -0.00000000000E+00 -0.00000000000E+00 -0.67477137196E+02  0.67477137244E+02  0.25500000000E-02 0. -1.
    5000001    1    1    2    0    0 -0.28954336306E+03  0.10903925226E+03  0.90642935867E+03  0.97188687607E+03  0.16500000000E+03 0.  0.
   -5000001    1    1    2    0    0  0.28954336306E+03 -0.10903925226E+03  0.84982467835E+03  0.91932143539E+03  0.16500000000E+03 0.  0.
<mgrwt>
<rscale>  0 0.70159863E+03</rscale>
<asrwt>0</asrwt>
<pdfrwt beam="1">  1        2 0.28057405E+00 0.70159863E+03</pdfrwt>
<pdfrwt beam="2">  1       -2 0.10381097E-01 0.70159863E+03</pdfrwt>
<totfact> 0.55268651E+02</totfact>
</mgrwt>
</event>
<event>
 4    1  0.3145406E-005  0.7165270E+03  0.7818608E-02  0.9689379E-01
          2   -1    0    0  501    0  0.00000000000E+00  0.00000000000E+00  0.49132908627E+03  0.49132908628E+03  0.25500000000E-02 0.  1.
         -2   -1    0    0    0  501 -0.00000000000E+00 -0.00000000000E+00 -0.26123575821E+03  0.26123575822E+03  0.25500000000E-02 0. -1.
    5000001    1    1    2    0    0 -0.11617536302E+03 -0.26657060510E+03  0.25024998662E+03  0.41762023212E+03  0.16500000000E+03 0.  0.
   -5000001    1    1    2    0    0  0.11617536302E+03  0.26657060510E+03 -0.20156658564E+02  0.33494461238E+03  0.16500000000E+03 0.  0.
<mgrwt>
<rscale>  0 0.71652697E+03</rscale>
<asrwt>0</asrwt>
<pdfrwt beam="1">  1        2 0.75589089E-01 0.71652697E+03</pdfrwt>
<pdfrwt beam="2">  1       -2 0.40190117E-01 0.71652697E+03</pdfrwt>
<totfact> 0.37112241E+02</totfact>
</mgrwt>
</event>
<event>
 4    1  0.3145406E-005  0.8859855E+03  0.7818608E-02  0.9443272E-01
          2   -1    0    0  501    0  0.00000000000E+00  0.00000000000E+00  0.21586897137E+03  0.21586897139E+03  0.25500000000E-02 0.  1.
         -2   -1    0    0    0  501 -0.00000000000E+00 -0.00000000000E+00 -0.90908188049E+03  0.90908188049E+03  0.25500000000E-02 0. -1.
    5000001    1    1    2    0    0  0.19203505945E+03 -0.27504801513E+03 -0.64838455129E+03  0.74843596990E+03  0.16500000000E+03 0.  0.
   -5000001    1    1    2    0    0 -0.19203505945E+03  0.27504801513E+03 -0.44828357825E+02  0.37651488198E+03  0.16500000000E+03 0.  0.
<mgrwt>
<rscale>  0 0.88598549E+03</rscale>
<asrwt>0</asrwt>
<pdfrwt beam="1">  1        2 0.33210611E-01 0.88598549E+03</pdfrwt>
<pdfrwt beam="2">  1       -2 0.13985875E+00 0.88598549E+03</pdfrwt>
<totfact> 0.57342318E+01</totfact>
</mgrwt>
</event>
<event>
 4    1  0.3145406E-005  0.5424999E+03  0.7818608E-02  0.1003245E+00
         -2   -1    0    0    0  501 -0.00000000000E+00  0.00000000000E+00  0.48962108346E+03  0.48962108346E+03  0.25500000000E-02 0. -1.
          2   -1    0    0  501    0  0.00000000000E+00 -0.00000000000E+00 -0.15027240593E+03  0.15027240595E+03  0.25500000000E-02 0.  1.
    5000001    1    1    2    0    0 -0.18824782948E+03 -0.63224167022E+02  0.26777384774E+03  0.37197093184E+03  0.16500000000E+03 0.  0.
   -5000001    1    1    2    0    0  0.18824782948E+03  0.63224167022E+02  0.71574829783E+02  0.26792255758E+03  0.16500000000E+03 0.  0.
<mgrwt>
<rscale>  0 0.54249991E+03</rscale>
<asrwt>0</asrwt>
<pdfrwt beam="1">  1        2 0.23118832E-01 0.54249991E+03</pdfrwt>
<pdfrwt beam="2">  1       -2 0.75326319E-01 0.54249991E+03</pdfrwt>
<totfact> 0.38323606E+02</totfact>
</mgrwt>
</event>
<event>
 4    1  0.3145406E-005  0.3568159E+03  0.7818608E-02  0.1059852E+00
          2   -1    0    0  501    0  0.00000000000E+00  0.00000000000E+00  0.79875601555E+02  0.79875601596E+02  0.25500000000E-02 0.  1.
         -2   -1    0    0    0  501 -0.00000000000E+00 -0.00000000000E+00 -0.39848719222E+03  0.39848719223E+03  0.25500000000E-02 0. -1.
    5000001    1    1    2    0    0  0.51244528076E+02 -0.42450883053E+02 -0.17710785200E+03  0.25103838426E+03  0.16500000000E+03 0.  0.
   -5000001    1    1    2    0    0 -0.51244528076E+02  0.42450883053E+02 -0.14150373867E+03  0.22732440957E+03  0.16500000000E+03 0.  0.
<mgrwt>
<rscale>  0 0.35681594E+03</rscale>
<asrwt>0</asrwt>
<pdfrwt beam="1">  1        2 0.12288554E-01 0.35681594E+03</pdfrwt>
<pdfrwt beam="2">  1       -2 0.61305721E-01 0.35681594E+03</pdfrwt>
<totfact> 0.12617482E+03</totfact>
</mgrwt>
</event>
<event>
 4    1  0.3145406E-005  0.3651780E+03  0.7818608E-02  0.1056552E+00
          2   -1    0    0  501    0  0.00000000000E+00  0.00000000000E+00  0.90528425115E+03  0.90528425116E+03  0.25500000000E-02 0.  1.
         -2   -1    0    0    0  501 -0.00000000000E+00 -0.00000000000E+00 -0.36826815975E+02  0.36826816063E+02  0.25500000000E-02 0. -1.
    5000001    1    1    2    0    0 -0.68409292246E+02  0.20340339515E+02  0.51663020833E+03  0.54701492926E+03  0.16500000000E+03 0.  0.
   -5000001    1    1    2    0    0  0.68409292246E+02 -0.20340339515E+02  0.35182722685E+03  0.39509613796E+03  0.16500000000E+03 0.  0.
<mgrwt>
<rscale>  0 0.36517797E+03</rscale>
<asrwt>0</asrwt>
<pdfrwt beam="1">  1        2 0.13927449E+00 0.36517797E+03</pdfrwt>
<pdfrwt beam="2">  1       -2 0.56656643E-02 0.36517797E+03</pdfrwt>
<totfact> 0.48950494E+03</totfact>
</mgrwt>
</event>
<event>
 4    1  0.3145406E-005  0.4098826E+03  0.7818608E-02  0.1040410E+00
          2   -1    0    0  501    0  0.00000000000E+00  0.00000000000E+00  0.17392497813E+04  0.17392497813E+04  0.25500000000E-02 0.  1.
         -2   -1    0    0    0  501 -0.00000000000E+00 -0.00000000000E+00 -0.24148886821E+02  0.24148886955E+02  0.25500000000E-02 0. -1.
    5000001    1    1    2    0    0 -0.10857737945E+03  0.13353687830E+02  0.10855501155E+04  0.11034543133E+04  0.16500000000E+03 0.  0.
   -5000001    1    1    2    0    0  0.10857737945E+03 -0.13353687830E+02  0.62955077892E+03  0.65994435488E+03  0.16500000000E+03 0.  0.
<mgrwt>
<rscale>  0 0.40988265E+03</rscale>
<asrwt>0</asrwt>
<pdfrwt beam="1">  1        2 0.26757693E+00 0.40988265E+03</pdfrwt>
<pdfrwt beam="2">  1       -2 0.37152128E-02 0.40988265E+03</pdfrwt>
<totfact> 0.31223175E+03</totfact>
</mgrwt>
</event>
<event>
 4    1  0.3145406E-005  0.3476015E+03  0.7818608E-02  0.1063604E+00
         -2   -1    0    0    0  501 -0.00000000000E+00  0.00000000000E+00  0.21865195501E+02  0.21865195650E+02  0.25500000000E-02 0. -1.
          2   -1    0    0  501    0  0.00000000000E+00 -0.00000000000E+00 -0.13814968107E+04  0.13814968107E+04  0.25500000000E-02 0.  1.
    5000001    1    1    2    0    0 -0.12224116758E+02 -0.52777719407E+02 -0.70742947275E+03  0.72843419443E+03  0.16500000000E+03 0.  0.
   -5000001    1    1    2    0    0  0.12224116758E+02  0.52777719407E+02 -0.65220214248E+03  0.67492781196E+03  0.16500000000E+03 0.  0.
<mgrwt>
<rscale>  0 0.34760148E+03</rscale>
<asrwt>0</asrwt>
<pdfrwt beam="1">  1        2 0.21253790E+00 0.34760148E+03</pdfrwt>
<pdfrwt beam="2">  1       -2 0.33638773E-02 0.34760148E+03</pdfrwt>
<totfact> 0.56624530E+03</totfact>
</mgrwt>
</event>
<event>
 4    1  0.3145406E-005  0.8338143E+03  0.7818608E-02  0.9512322E-01
         -2   -1    0    0    0  501 -0.00000000000E+00  0.00000000000E+00  0.95649807475E+02  0.95649807509E+02  0.25500000000E-02 0. -1.
          2   -1    0    0  501    0  0.00000000000E+00 -0.00000000000E+00 -0.18171657819E+04  0.18171657819E+04  0.25500000000E-02 0.  1.
    5000001    1    1    2    0    0 -0.35778781922E+03 -0.13201813654E+03 -0.78311023926E+03  0.88652555451E+03  0.16500000000E+03 0.  0.
   -5000001    1    1    2    0    0  0.35778781922E+03  0.13201813654E+03 -0.93840573513E+03  0.10262900349E+04  0.16500000000E+03 0.  0.
<mgrwt>
<rscale>  0 0.83381427E+03</rscale>
<asrwt>0</asrwt>
<pdfrwt beam="1">  1        2 0.27956394E+00 0.83381427E+03</pdfrwt>
<pdfrwt beam="2">  1       -2 0.14715356E-01 0.83381427E+03</pdfrwt>
<totfact> 0.30953606E+02</totfact>
</mgrwt>
</event>
<event>
 4    1  0.3145406E-005  0.5482747E+03  0.7818608E-02  0.1001894E+00
         -2   -1    0    0    0  501 -0.00000000000E+00  0.00000000000E+00  0.12072455295E+03  0.12072455297E+03  0.25500000000E-02 0. -1.
          2   -1    0    0  501    0  0.00000000000E+00 -0.00000000000E+00 -0.62250216894E+03  0.62250216895E+03  0.25500000000E-02 0.  1.
    5000001    1    1    2    0    0 -0.11229804662E+03 -0.15942296651E+03 -0.11601256143E+03  0.28055382359E+03  0.16500000000E+03 0.  0.
   -5000001    1    1    2    0    0  0.11229804662E+03  0.15942296651E+03 -0.38576505456E+03  0.46267289833E+03  0.16500000000E+03 0.  0.
<mgrwt>
<rscale>  0 0.54827473E+03</rscale>
<asrwt>0</asrwt>
<pdfrwt beam="1">  1        2 0.95769563E-01 0.54827473E+03</pdfrwt>
<pdfrwt beam="2">  1       -2 0.18573009E-01 0.54827473E+03</pdfrwt>
<totfact> 0.11547529E+03</totfact>
</mgrwt>
</event>
<event>
 4    1  0.3145406E-005  0.3633572E+03  0.7818608E-02  0.1057262E+00
         -2   -1    0    0    0  501 -0.00000000000E+00  0.00000000000E+00  0.14562885038E+03  0.14562885041E+03  0.25500000000E-02 0. -1.
          2   -1    0    0  501    0  0.00000000000E+00 -0.00000000000E+00 -0.22665224513E+03  0.22665224514E+03  0.25500000000E-02 0.  1.
    5000001    1    1    2    0    0 -0.59223367950E+02  0.18499860357E+02 -0.85551016797E+02  0.19594292184E+03  0.16500000000E+03 0.  0.
   -5000001    1    1    2    0    0  0.59223367950E+02 -0.18499860357E+02  0.45276220553E+01  0.17633817371E+03  0.16500000000E+03 0.  0.
<mgrwt>
<rscale>  0 0.36335716E+03</rscale>
<asrwt>0</asrwt>
<pdfrwt beam="1">  1        2 0.34869576E-01 0.36335716E+03</pdfrwt>
<pdfrwt beam="2">  1       -2 0.22404438E-01 0.36335716E+03</pdfrwt>
<totfact> 0.25748643E+03</totfact>
</mgrwt>
</event>
<event>
 4    1  0.3145406E-005  0.1810508E+04  0.7818608E-02  0.8700731E-01
         -2   -1    0    0    0  501 -0.00000000000E+00  0.00000000000E+00  0.41247219951E+03  0.41247219951E+03  0.25500000000E-02 0. -1.
          2   -1    0    0  501    0  0.00000000000E+00 -0.00000000000E+00 -0.19867634354E+04  0.19867634354E+04  0.25500000000E-02 0.  1.
    5000001    1    1    2    0    0 -0.77571446978E+03 -0.21767621333E+03 -0.12885161164E+04  0.15285989189E+04  0.16500000000E+03 0.  0.
   -5000001    1    1    2    0    0  0.77571446978E+03  0.21767621333E+03 -0.28577511952E+03  0.87063671609E+03  0.16500000000E+03 0.  0.
<mgrwt>
<rscale>  0 0.18105079E+04</rscale>
<asrwt>0</asrwt>
<pdfrwt beam="1">  1        2 0.30565591E+00 0.18105079E+04</pdfrwt>
<pdfrwt beam="2">  1       -2 0.63457263E-01 0.18105079E+04</pdfrwt>
<totfact> 0.14734412E+01</totfact>
</mgrwt>
</event>
<event>
 4    1  0.3145406E-005  0.3675531E+03  0.7818608E-02  0.1055633E+00
         -2   -1    0    0    0  501 -0.00000000000E+00  0.00000000000E+00  0.34521365931E+02  0.34521366025E+02  0.25500000000E-02 0. -1.
          2   -1    0    0  501    0  0.00000000000E+00 -0.00000000000E+00 -0.97834536327E+03  0.97834536327E+03  0.25500000000E-02 0.  1.
    5000001    1    1    2    0    0  0.67760133243E+02  0.29952445782E+02 -0.38218295777E+03  0.42282076330E+03  0.16500000000E+03 0.  0.
   -5000001    1    1    2    0    0 -0.67760133243E+02 -0.29952445782E+02 -0.56164103957E+03  0.59004596600E+03  0.16500000000E+03 0.  0.
<mgrwt>
<rscale>  0 0.36755309E+03</rscale>
<asrwt>0</asrwt>
<pdfrwt beam="1">  1        2 0.15051465E+00 0.36755309E+03</pdfrwt>
<pdfrwt beam="2">  1       -2 0.53109801E-02 0.36755309E+03</pdfrwt>
<totfact> 0.48564322E+03</totfact>
</mgrwt>
</event>
<event>
 4    1  0.3145406E-005  0.4430154E+03  0.7818608E-02  0.1029826E+00
          2   -1    0    0  501    0  0.00000000000E+00  0.00000000000E+00  0.22164166266E+04  0.22164166266E+04  0.25500000000E-02 0.  1.
         -2   -1    0    0    0  501 -0.00000000000E+00 -0.00000000000E+00 -0.22137379837E+02  0.22137379984E+02  0.25500000000E-02 0. -1.
    5000001    1    1    2    0    0  0.14089078956E+03 -0.10705148335E+02  0.87828944047E+03  0.90475530174E+03  0.16500000000E+03 0.  0.
   -5000001    1    1    2    0    0 -0.14089078956E+03  0.10705148335E+02  0.13159898063E+04  0.13337987049E+04  0.16500000000E+03 0.  0.
<mgrwt>
<rscale>  0 0.44301538E+03</rscale>
<asrwt>0</asrwt>
<pdfrwt beam="1">  1        2 0.34098716E+00 0.44301538E+03</pdfrwt>
<pdfrwt beam="2">  1       -2 0.34057509E-02 0.44301538E+03</pdfrwt>
<totfact> 0.19741710E+03</totfact>
</mgrwt>
</event>
<event>
 4    1  0.3145406E-005  0.4890780E+03  0.7818608E-02  0.1016670E+00
          2   -1    0    0  501    0  0.00000000000E+00  0.00000000000E+00  0.37819579293E+03  0.37819579294E+03  0.25500000000E-02 0.  1.
         -2   -1    0    0    0  501 -0.00000000000E+00 -0.00000000000E+00 -0.15811734394E+03  0.15811734396E+03  0.25500000000E-02 0. -1.
    5000001    1    1    2    0    0 -0.12115673254E+03  0.12367067026E+02  0.25610441095E+03  0.32809505862E+03  0.16500000000E+03 0.  0.
   -5000001    1    1    2    0    0  0.12115673254E+03 -0.12367067026E+02 -0.36025961960E+02  0.20821807828E+03  0.16500000000E+03 0.  0.
<mgrwt>
<rscale>  0 0.48907797E+03</rscale>
<asrwt>0</asrwt>
<pdfrwt beam="1">  1        2 0.58183968E-01 0.48907797E+03</pdfrwt>
<pdfrwt beam="2">  1       -2 0.24325745E-01 0.48907797E+03</pdfrwt>
<totfact> 0.12745686E+03</totfact>
</mgrwt>
</event>
<event>
 4    1  0.3145406E-005  0.4956770E+03  0.7818608E-02  0.1014913E+00
          2   -1    0    0  501    0  0.00000000000E+00  0.00000000000E+00  0.25196314808E+03  0.25196314809E+03  0.25500000000E-02 0.  1.
         -2   -1    0    0    0  501 -0.00000000000E+00 -0.00000000000E+00 -0.24378142085E+03  0.24378142087E+03  0.25500000000E-02 0. -1.
    5000001    1    1    2    0    0  0.15695018827E+03  0.23473918883E+02  0.99048769162E+02  0.24943946187E+03  0.16500000000E+03 0.  0.
   -5000001    1    1    2    0    0 -0.15695018827E+03 -0.23473918883E+02 -0.90867041939E+02  0.24630510708E+03  0.16500000000E+03 0.  0.
<mgrwt>
<rscale>  0 0.49567705E+03</rscale>
<asrwt>0</asrwt>
<pdfrwt beam="1">  1        2 0.38763561E-01 0.49567705E+03</pdfrwt>
<pdfrwt beam="2">  1       -2 0.37504834E-01 0.49567705E+03</pdfrwt>
<totfact> 0.89684462E+02</totfact>
</mgrwt>
</event>
<event>
 4    1  0.3145406E-005  0.5162562E+03  0.7818608E-02  0.1009621E+00
          2   -1    0    0  501    0  0.00000000000E+00  0.00000000000E+00  0.25747853846E+04  0.25747853846E+04  0.25500000000E-02 0.  1.
         -2   -1    0    0    0  501 -0.00000000000E+00 -0.00000000000E+00 -0.25877934270E+02  0.25877934396E+02  0.25500000000E-02 0. -1.
    5000001    1    1    2    0    0  0.19487433784E+03  0.36204380748E+02  0.12196480352E+04  0.12466166590E+04  0.16500000000E+03 0.  0.
   -5000001    1    1    2    0    0 -0.19487433784E+03 -0.36204380748E+02  0.13292594152E+04  0.13540466601E+04  0.16500000000E+03 0.  0.
<mgrwt>
<rscale>  0 0.51625624E+03</rscale>
<asrwt>0</asrwt>
<pdfrwt beam="1">  1        2 0.39612073E+00 0.51625624E+03</pdfrwt>
<pdfrwt beam="2">  1       -2 0.39812217E-02 0.51625624E+03</pdfrwt>
<totfact> 0.98060974E+02</totfact>
</mgrwt>
</event>
<event>
 4    1  0.3145406E-005  0.1074431E+04  0.7818608E-02  0.9230477E-01
         -2   -1    0    0    0  501 -0.00000000000E+00  0.00000000000E+00  0.15849549100E+03  0.15849549102E+03  0.25500000000E-02 0. -1.
          2   -1    0    0  501    0  0.00000000000E+00 -0.00000000000E+00 -0.18208767486E+04  0.18208767486E+04  0.25500000000E-02 0.  1.
    5000001    1    1    2    0    0 -0.19922452647E+03 -0.38759496582E+03 -0.33873564878E+03  0.57609644092E+03  0.16500000000E+03 0.  0.
   -5000001    1    1    2    0    0  0.19922452647E+03  0.38759496582E+03 -0.13236456088E+04  0.14032757987E+04  0.16500000000E+03 0.  0.
<mgrwt>
<rscale>  0 0.10744315E+04</rscale>
<asrwt>0</asrwt>
<pdfrwt beam="1">  1        2 0.28013487E+00 0.10744315E+04</pdfrwt>
<pdfrwt beam="2">  1       -2 0.24383923E-01 0.10744315E+04</pdfrwt>
<totfact> 0.12549902E+02</totfact>
</mgrwt>
</event>
<event>
 4    1  0.3145406E-005  0.3954240E+03  0.7818608E-02  0.1045376E+00
         -2   -1    0    0    0  501 -0.00000000000E+00  0.00000000000E+00  0.65082077376E+02  0.65082077426E+02  0.25500000000E-02 0. -1.
          2   -1    0    0  501    0  0.00000000000E+00 -0.00000000000E+00 -0.60062668443E+03  0.60062668444E+03  0.25500000000E-02 0.  1.
    5000001    1    1    2    0    0  0.84662695418E+02 -0.54018377179E+02 -0.33878611736E+03  0.38998306423E+03  0.16500000000E+03 0.  0.
   -5000001    1    1    2    0    0 -0.84662695418E+02  0.54018377179E+02 -0.19675848969E+03  0.27572569763E+03  0.16500000000E+03 0.  0.
<mgrwt>
<rscale>  0 0.39542399E+03</rscale>
<asrwt>0</asrwt>
<pdfrwt beam="1">  1        2 0.92404102E-01 0.39542399E+03</pdfrwt>
<pdfrwt beam="2">  1       -2 0.10012628E-01 0.39542399E+03</pdfrwt>
<totfact> 0.33562832E+03</totfact>
</mgrwt>
</event>
<event>
 4    1  0.3145406E-005  0.5832334E+03  0.7818608E-02  0.9940815E-01
         -2   -1    0    0    0  501 -0.00000000000E+00  0.00000000000E+00  0.11716321439E+03  0.11716321441E+03  0.25500000000E-02 0. -1.
          2   -1    0    0  501    0  0.00000000000E+00 -0.00000000000E+00 -0.72582764766E+03  0.72582764767E+03  0.25500000000E-02 0.  1.
    5000001    1    1    2    0    0 -0.98063484988E+02 -0.19954316888E+03 -0.43665607808E+03  0.51703718808E+03  0.16500000000E+03 0.  0.
   -5000001    1    1    2    0    0  0.98063484988E+02  0.19954316888E+03 -0.17200835520E+03  0.32595367400E+03  0.16500000000E+03 0.  0.
<mgrwt>
<rscale>  0 0.58323340E+03</rscale>
<asrwt>0</asrwt>
<pdfrwt beam="1">  1        2 0.11166579E+00 0.58323340E+03</pdfrwt>
<pdfrwt beam="2">  1       -2 0.18025110E-01 0.58323340E+03</pdfrwt>
<totfact> 0.10052688E+03</totfact>
</mgrwt>
</event>
<event>
 4    1  0.3145406E-005  0.1098164E+04  0.7818608E-02  0.9206983E-01
         -2   -1    0    0    0  501 -0.00000000000E+00  0.00000000000E+00  0.59580309211E+03  0.59580309212E+03  0.25500000000E-02 0. -1.
          2   -1    0    0  501    0  0.00000000000E+00 -0.00000000000E+00 -0.50602450239E+03  0.50602450240E+03  0.25500000000E-02 0.  1.
    5000001    1    1    2    0    0 -0.16466916182E+03  0.36384039097E+03  0.38479704678E+03  0.57860999833E+03  0.16500000000E+03 0.  0.
   -5000001    1    1    2    0    0  0.16466916182E+03 -0.36384039097E+03 -0.29501845706E+03  0.52321759619E+03  0.16500000000E+03 0.  0.
<mgrwt>
<rscale>  0 0.10981639E+04</rscale>
<asrwt>0</asrwt>
<pdfrwt beam="1">  1        2 0.77849924E-01 0.10981639E+04</pdfrwt>
<pdfrwt beam="2">  1       -2 0.91662014E-01 0.10981639E+04</pdfrwt>
<totfact> 0.61109667E+01</totfact>
</mgrwt>
</event>
<event>
 4    1  0.3145406E-005  0.4692491E+03  0.7818608E-02  0.1022132E+00
         -2   -1    0    0    0  501 -0.00000000000E+00  0.00000000000E+00  0.10395737363E+03  0.10395737366E+03  0.25500000000E-02 0. -1.
          2   -1    0    0  501    0  0.00000000000E+00 -0.00000000000E+00 -0.52953117014E+03  0.52953117015E+03  0.25500000000E-02 0.  1.
    5000001    1    1    2    0    0 -0.13792720562E+03  0.46427227874E+02 -0.10274478243E+03  0.24281863984E+03  0.16500000000E+03 0.  0.
   -5000001    1    1    2    0    0  0.13792720562E+03 -0.46427227874E+02 -0.32282901408E+03  0.39066990397E+03  0.16500000000E+03 0.  0.
<mgrwt>
<rscale>  0 0.46924906E+03</rscale>
<asrwt>0</asrwt>
<pdfrwt beam="1">  1        2 0.81466333E-01 0.46924906E+03</pdfrwt>
<pdfrwt beam="2">  1       -2 0.15993442E-01 0.46924906E+03</pdfrwt>
<totfact> 0.18031879E+03</totfact>
</mgrwt>
</event>
<event>
 4    1  0.3145406E-005  0.4823252E+03  0.7818608E-02  0.1018498E+00
         -2   -1    0    0    0  501 -0.00000000000E+00  0.00000000000E+00  0.82273785288E+02  0.82273785327E+02  0.25500000000E-02 0. -1.
          2   -1    0    0  501    0  0.00000000000E+00 -0.00000000000E+00 -0.70690074179E+03  0.70690074180E+03  0.25500000000E-02 0.  1.
    5000001    1    1    2    0    0  0.81632401561E+02  0.11313024354E+03 -0.48756207355E+03  0.53329548710E+03  0.16500000000E+03 0.  0.
   -5000001    1    1    2    0    0 -0.81632401561E+02 -0.11313024354E+03 -0.13706488295E+03  0.25587904003E+03  0.16500000000E+03 0.  0.
<mgrwt>
<rscale>  0 0.48232520E+03</rscale>
<asrwt>0</asrwt>
<pdfrwt beam="1">  1        2 0.10875396E+00 0.48232520E+03</pdfrwt>
<pdfrwt beam="2">  1       -2 0.12657506E-01 0.48232520E+03</pdfrwt>
<totfact> 0.18848658E+03</totfact>
</mgrwt>
</event>
<event>
 4    1  0.3145406E-005  0.5006971E+03  0.7818608E-02  0.1013597E+00
         -2   -1    0    0    0  501 -0.00000000000E+00  0.00000000000E+00  0.21138062837E+03  0.21138062839E+03  0.25500000000E-02 0. -1.
          2   -1    0    0  501    0  0.00000000000E+00 -0.00000000000E+00 -0.29650014354E+03  0.29650014356E+03  0.25500000000E-02 0.  1.
    5000001    1    1    2    0    0 -0.13239096847E+03  0.88798847490E+02 -0.14418088115E+03  0.27097182572E+03  0.16500000000E+03 0.  0.
   -5000001    1    1    2    0    0  0.13239096847E+03 -0.88798847490E+02  0.59061365974E+02  0.23690894622E+03  0.16500000000E+03 0.  0.
<mgrwt>
<rscale>  0 0.50069706E+03</rscale>
<asrwt>0</asrwt>
<pdfrwt beam="1">  1        2 0.45615407E-01 0.50069706E+03</pdfrwt>
<pdfrwt beam="2">  1       -2 0.32520097E-01 0.50069706E+03</pdfrwt>
<totfact> 0.98172509E+02</totfact>
</mgrwt>
</event>
<event>
 4    1  0.3145406E-005  0.3665548E+03  0.7818608E-02  0.1056018E+00
          2   -1    0    0  501    0  0.00000000000E+00  0.00000000000E+00  0.23466717474E+04  0.23466717474E+04  0.25500000000E-02 0.  1.
         -2   -1    0    0    0  501 -0.00000000000E+00 -0.00000000000E+00 -0.14314143728E+02  0.14314143955E+02  0.25500000000E-02 0. -1.
    5000001    1    1    2    0    0 -0.78816556642E+02 -0.79992848410E+01  0.11052239003E+04  0.11202771568E+04  0.16500000000E+03 0.  0.
   -5000001    1    1    2    0    0  0.78816556642E+02  0.79992848410E+01  0.12271337034E+04  0.12407087346E+04  0.16500000000E+03 0.  0.
<mgrwt>
<rscale>  0 0.36655475E+03</rscale>
<asrwt>0</asrwt>
<pdfrwt beam="1">  1        2 0.36102622E+00 0.36655475E+03</pdfrwt>
<pdfrwt beam="2">  1       -2 0.22021772E-02 0.36655475E+03</pdfrwt>
<totfact> 0.32422905E+03</totfact>
</mgrwt>
</event>
<event>
 4    1  0.3145406E-005  0.9200508E+03  0.7818608E-02  0.9400858E-01
         -2   -1    0    0    0  501 -0.00000000000E+00  0.00000000000E+00  0.20412663848E+03  0.20412663849E+03  0.25500000000E-02 0. -1.
          2   -1    0    0  501    0  0.00000000000E+00 -0.00000000000E+00 -0.10367259905E+04  0.10367259905E+04  0.25500000000E-02 0.  1.
    5000001    1    1    2    0    0 -0.83776010512E+02  0.33213572185E+03 -0.76556787012E+03  0.85478168056E+03  0.16500000000E+03 0.  0.
   -5000001    1    1    2    0    0  0.83776010512E+02 -0.33213572185E+03 -0.67031481913E+02  0.38607094844E+03  0.16500000000E+03 0.  0.
<mgrwt>
<rscale>  0 0.92005085E+03</rscale>
<asrwt>0</asrwt>
<pdfrwt beam="1">  1        2 0.15949630E+00 0.92005085E+03</pdfrwt>
<pdfrwt beam="2">  1       -2 0.31404099E-01 0.92005085E+03</pdfrwt>
<totfact> 0.22470396E+02</totfact>
</mgrwt>
</event>
<event>
 4    1  0.3145406E-005  0.5456252E+03  0.7818608E-02  0.1002512E+00
          2   -1    0    0  501    0  0.00000000000E+00  0.00000000000E+00  0.44023050360E+03  0.44023050360E+03  0.25500000000E-02 0.  1.
         -2   -1    0    0    0  501 -0.00000000000E+00 -0.00000000000E+00 -0.16906306872E+03  0.16906306874E+03  0.25500000000E-02 0. -1.
    5000001    1    1    2    0    0  0.26290012175E+02  0.12407244406E+03 -0.61398996475E+02  0.21697919919E+03  0.16500000000E+03 0.  0.
   -5000001    1    1    2    0    0 -0.26290012175E+02 -0.12407244406E+03  0.33256643135E+03  0.39231437315E+03  0.16500000000E+03 0.  0.
<mgrwt>
<rscale>  0 0.54562522E+03</rscale>
<asrwt>0</asrwt>
<pdfrwt beam="1">  1        2 0.67727768E-01 0.54562522E+03</pdfrwt>
<pdfrwt beam="2">  1       -2 0.26009704E-01 0.54562522E+03</pdfrwt>
<totfact> 0.95408393E+02</totfact>
</mgrwt>
</event>
<event>
 4    1  0.3145406E-005  0.5328470E+03  0.7818608E-02  0.1005544E+00
         -2   -1    0    0    0  501 -0.00000000000E+00  0.00000000000E+00  0.36744020746E+02  0.36744020835E+02  0.25500000000E-02 0. -1.
          2   -1    0    0  501    0  0.00000000000E+00 -0.00000000000E+00 -0.19317834903E+04  0.19317834903E+04  0.25500000000E-02 0.  1.
    5000001    1    1    2    0    0 -0.33483959134E+02  0.17332224256E+03 -0.13621234060E+04  0.13833896590E+04  0.16500000000E+03 0.  0.
   -5000001    1    1    2    0    0  0.33483959134E+02 -0.17332224256E+03 -0.53291606358E+03  0.58513785222E+03  0.16500000000E+03 0.  0.
<mgrwt>
<rscale>  0 0.53284704E+03</rscale>
<asrwt>0</asrwt>
<pdfrwt beam="1">  1        2 0.29719738E+00 0.53284704E+03</pdfrwt>
<pdfrwt beam="2">  1       -2 0.56529278E-02 0.53284704E+03</pdfrwt>
<totfact> 0.12845872E+03</totfact>
</mgrwt>
</event>
<event>
 4    1  0.3145406E-005  0.1050030E+04  0.7818608E-02  0.9255313E-01
         -2   -1    0    0    0  501 -0.00000000000E+00  0.00000000000E+00  0.46178967583E+03  0.46178967583E+03  0.25500000000E-02 0. -1.
          2   -1    0    0  501    0  0.00000000000E+00 -0.00000000000E+00 -0.59689636590E+03  0.59689636591E+03  0.25500000000E-02 0.  1.
    5000001    1    1    2    0    0  0.46678296942E+03  0.13844088718E+03  0.39924509478E+02  0.51562698362E+03  0.16500000000E+03 0.  0.
   -5000001    1    1    2    0    0 -0.46678296942E+03 -0.13844088718E+03 -0.17503119955E+03  0.54305905812E+03  0.16500000000E+03 0.  0.
<mgrwt>
<rscale>  0 0.10500297E+04</rscale>
<asrwt>0</asrwt>
<pdfrwt beam="1">  1        2 0.91830211E-01 0.10500297E+04</pdfrwt>
<pdfrwt beam="2">  1       -2 0.71044565E-01 0.10500297E+04</pdfrwt>
<totfact> 0.89493643E+01</totfact>
</mgrwt>
</event>
<event>
 4    1  0.3145406E-005  0.3536508E+03  0.7818608E-02  0.1061126E+00
          2   -1    0    0  501    0  0.00000000000E+00  0.00000000000E+00  0.10754036894E+04  0.10754036894E+04  0.25500000000E-02 0.  1.
         -2   -1    0    0    0  501 -0.00000000000E+00 -0.00000000000E+00 -0.29074873066E+02  0.29074873178E+02  0.25500000000E-02 0. -1.
    5000001    1    1    2    0    0  0.29424013349E+02  0.29434604821E+02  0.67326900654E+03  0.69444101527E+03  0.16500000000E+03 0.  0.
   -5000001    1    1    2    0    0 -0.29424013349E+02 -0.29434604821E+02  0.37305980981E+03  0.41003754733E+03  0.16500000000E+03 0.  0.
<mgrwt>
<rscale>  0 0.35365082E+03</rscale>
<asrwt>0</asrwt>
<pdfrwt beam="1">  1        2 0.16544670E+00 0.35365082E+03</pdfrwt>
<pdfrwt beam="2">  1       -2 0.44730580E-02 0.35365082E+03</pdfrwt>
<totfact> 0.55044442E+03</totfact>
</mgrwt>
</event>
<event>
 4    1  0.3145406E-005  0.3885673E+03  0.7818608E-02  0.1047812E+00
          2   -1    0    0  501    0  0.00000000000E+00  0.00000000000E+00  0.65399471853E+03  0.65399471854E+03  0.25500000000E-02 0.  1.
         -2   -1    0    0    0  501 -0.00000000000E+00 -0.00000000000E+00 -0.57716266747E+02  0.57716266803E+02  0.25500000000E-02 0. -1.
    5000001    1    1    2    0    0 -0.78160803302E+01  0.10002495982E+03  0.33721134553E+03  0.38859049815E+03  0.16500000000E+03 0.  0.
   -5000001    1    1    2    0    0  0.78160803302E+01 -0.10002495982E+03  0.25906710625E+03  0.32312048719E+03  0.16500000000E+03 0.  0.
<mgrwt>
<rscale>  0 0.38856728E+03</rscale>
<asrwt>0</asrwt>
<pdfrwt beam="1">  1        2 0.10061457E+00 0.38856728E+03</pdfrwt>
<pdfrwt beam="2">  1       -2 0.88794257E-02 0.38856728E+03</pdfrwt>
<totfact> 0.36726430E+03</totfact>
</mgrwt>
</event>
<event>
 4    1  0.3145406E-005  0.3760875E+03  0.7818608E-02  0.1052389E+00
         -2   -1    0    0    0  501 -0.00000000000E+00  0.00000000000E+00  0.65932153078E+03  0.65932153078E+03  0.25500000000E-02 0. -1.
          2   -1    0    0  501    0  0.00000000000E+00 -0.00000000000E+00 -0.53631569232E+02  0.53631569293E+02  0.25500000000E-02 0.  1.
    5000001    1    1    2    0    0  0.24762138627E+02 -0.33284472024E+02  0.45467270337E+03  0.48546193134E+03  0.16500000000E+03 0.  0.
   -5000001    1    1    2    0    0 -0.24762138627E+02  0.33284472024E+02  0.15101725817E+03  0.22749116874E+03  0.16500000000E+03 0.  0.
<mgrwt>
<rscale>  0 0.37608748E+03</rscale>
<asrwt>0</asrwt>
<pdfrwt beam="1">  1        2 0.82510106E-02 0.37608748E+03</pdfrwt>
<pdfrwt beam="2">  1       -2 0.10143408E+00 0.37608748E+03</pdfrwt>
<totfact> 0.68203548E+02</totfact>
</mgrwt>
</event>
<event>
 4    1  0.3145406E-005  0.4702602E+03  0.7818608E-02  0.1021847E+00
         -2   -1    0    0    0  501 -0.00000000000E+00  0.00000000000E+00  0.89922737159E+03  0.89922737160E+03  0.25500000000E-02 0. -1.
          2   -1    0    0  501    0  0.00000000000E+00 -0.00000000000E+00 -0.61481840760E+02  0.61481840813E+02  0.25500000000E-02 0.  1.
    5000001    1    1    2    0    0  0.14316161610E+03 -0.53459316494E+02  0.27869719532E+03  0.35812047348E+03  0.16500000000E+03 0.  0.
   -5000001    1    1    2    0    0 -0.14316161610E+03  0.53459316494E+02  0.55904833552E+03  0.60258873893E+03  0.16500000000E+03 0.  0.
<mgrwt>
<rscale>  0 0.47026016E+03</rscale>
<asrwt>0</asrwt>
<pdfrwt beam="1">  1        2 0.94587450E-02 0.47026016E+03</pdfrwt>
<pdfrwt beam="2">  1       -2 0.13834267E+00 0.47026016E+03</pdfrwt>
<totfact> 0.26839174E+02</totfact>
</mgrwt>
</event>
<event>
 4    1  0.3145406E-005  0.4074333E+03  0.7818608E-02  0.1041236E+00
         -2   -1    0    0    0  501 -0.00000000000E+00  0.00000000000E+00  0.62807114045E+02  0.62807114097E+02  0.25500000000E-02 0. -1.
          2   -1    0    0  501    0  0.00000000000E+00 -0.00000000000E+00 -0.66076078629E+03  0.66076078630E+03  0.25500000000E-02 0.  1.
    5000001    1    1    2    0    0  0.11820530504E+03  0.71808088502E+01 -0.32713618408E+03  0.38505472480E+03  0.16500000000E+03 0.  0.
   -5000001    1    1    2    0    0 -0.11820530504E+03 -0.71808088502E+01 -0.27081748817E+03  0.33851317559E+03  0.16500000000E+03 0.  0.
<mgrwt>
<rscale>  0 0.40743332E+03</rscale>
<asrwt>0</asrwt>
<pdfrwt beam="1">  1        2 0.10165550E+00 0.40743332E+03</pdfrwt>
<pdfrwt beam="2">  1       -2 0.96626334E-02 0.40743332E+03</pdfrwt>
<totfact> 0.31715160E+03</totfact>
</mgrwt>
</event>
<event>
 4    1  0.3145406E-005  0.6387627E+03  0.7818608E-02  0.9828097E-01
          2   -1    0    0  501    0  0.00000000000E+00  0.00000000000E+00  0.10997098533E+04  0.10997098533E+04  0.25500000000E-02 0.  1.
         -2   -1    0    0    0  501 -0.00000000000E+00 -0.00000000000E+00 -0.92755791575E+02  0.92755791610E+02  0.25500000000E-02 0. -1.
    5000001    1    1    2    0    0 -0.75345201762E+02 -0.22398875707E+03  0.24661500156E+03  0.37933075504E+03  0.16500000000E+03 0.  0.
   -5000001    1    1    2    0    0  0.75345201762E+02  0.22398875707E+03  0.76033906012E+03  0.81313488983E+03  0.16500000000E+03 0.  0.
<mgrwt>
<rscale>  0 0.63876274E+03</rscale>
<asrwt>0</asrwt>
<pdfrwt beam="1">  1        2 0.16918613E+00 0.63876274E+03</pdfrwt>
<pdfrwt beam="2">  1       -2 0.14270122E-01 0.63876274E+03</pdfrwt>
<totfact> 0.83844957E+02</totfact>
</mgrwt>
</event>
<event>
 4    1  0.3145406E-005  0.4804145E+03  0.7818608E-02  0.1019021E+00
         -2   -1    0    0    0  501 -0.00000000000E+00  0.00000000000E+00  0.13521690761E+03  0.13521690764E+03  0.25500000000E-02 0. -1.
          2   -1    0    0  501    0  0.00000000000E+00 -0.00000000000E+00 -0.42671817169E+03  0.42671817170E+03  0.25500000000E-02 0.  1.
    5000001    1    1    2    0    0  0.66623357539E+02  0.13880993978E+03 -0.24197580911E+03  0.33088391219E+03  0.16500000000E+03 0.  0.
   -5000001    1    1    2    0    0 -0.66623357539E+02 -0.13880993978E+03 -0.49525454971E+02  0.23105116715E+03  0.16500000000E+03 0.  0.
<mgrwt>
<rscale>  0 0.48041445E+03</rscale>
<asrwt>0</asrwt>
<pdfrwt beam="1">  1        2 0.65648949E-01 0.48041445E+03</pdfrwt>
<pdfrwt beam="2">  1       -2 0.20802601E-01 0.48041445E+03</pdfrwt>
<totfact> 0.14682381E+03</totfact>
</mgrwt>
</event>
<event>
 4    1  0.3145406E-005  0.4738153E+03  0.7818608E-02  0.1020849E+00
          2   -1    0    0  501    0  0.00000000000E+00  0.00000000000E+00  0.14378230151E+04  0.14378230151E+04  0.25500000000E-02 0.  1.
         -2   -1    0    0    0  501 -0.00000000000E+00 -0.00000000000E+00 -0.39034871655E+02  0.39034871738E+02  0.25500000000E-02 0. -1.
    5000001    1    1    2    0    0 -0.16529170224E+03 -0.18028603315E+02  0.80976483963E+03  0.84296528568E+03  0.16500000000E+03 0.  0.
   -5000001    1    1    2    0    0  0.16529170224E+03  0.18028603315E+02  0.58902330382E+03  0.63389260116E+03  0.16500000000E+03 0.  0.
<mgrwt>
<rscale>  0 0.47381531E+03</rscale>
<asrwt>0</asrwt>
<pdfrwt beam="1">  1        2 0.22120347E+00 0.47381531E+03</pdfrwt>
<pdfrwt beam="2">  1       -2 0.60053667E-02 0.47381531E+03</pdfrwt>
<totfact> 0.21707668E+03</totfact>
</mgrwt>
</event>
<event>
 4    1  0.3145406E-005  0.7242231E+03  0.7818608E-02  0.9676681E-01
         -2   -1    0    0    0  501 -0.00000000000E+00  0.00000000000E+00  0.36988126787E+03  0.36988126788E+03  0.25500000000E-02 0. -1.
          2   -1    0    0  501    0  0.00000000000E+00 -0.00000000000E+00 -0.35450505917E+03  0.35450505918E+03  0.25500000000E-02 0.  1.
    5000001    1    1    2    0    0  0.30534669428E+03  0.55178681000E+02  0.94991737681E+02  0.36404631680E+03  0.16500000000E+03 0.  0.
   -5000001    1    1    2    0    0 -0.30534669428E+03 -0.55178681000E+02 -0.79615528980E+02  0.36034001027E+03  0.16500000000E+03 0.  0.
<mgrwt>
<rscale>  0 0.72422312E+03</rscale>
<asrwt>0</asrwt>
<pdfrwt beam="1">  1        2 0.54539240E-01 0.72422312E+03</pdfrwt>
<pdfrwt beam="2">  1       -2 0.56904810E-01 0.72422312E+03</pdfrwt>
<totfact> 0.26622150E+02</totfact>
</mgrwt>
</event>
<event>
 4    1  0.3145406E-005  0.5122879E+03  0.7818608E-02  0.1010620E+00
         -2   -1    0    0    0  501 -0.00000000000E+00  0.00000000000E+00  0.61144692713E+02  0.61144692766E+02  0.25500000000E-02 0. -1.
          2   -1    0    0  501    0  0.00000000000E+00 -0.00000000000E+00 -0.10730240178E+04  0.10730240178E+04  0.25500000000E-02 0.  1.
    5000001    1    1    2    0    0  0.17371158875E+03 -0.48474494524E+02 -0.33647315543E+03  0.41589022231E+03  0.16500000000E+03 0.  0.
   -5000001    1    1    2    0    0 -0.17371158875E+03  0.48474494524E+02 -0.67540616966E+03  0.71827848827E+03  0.16500000000E+03 0.  0.
<mgrwt>
<rscale>  0 0.51228790E+03</rscale>
<asrwt>0</asrwt>
<pdfrwt beam="1">  1        2 0.16508060E+00 0.51228790E+03</pdfrwt>
<pdfrwt beam="2">  1       -2 0.94068766E-02 0.51228790E+03</pdfrwt>
<totfact> 0.17307570E+03</totfact>
</mgrwt>
</event>
<event>
 4    1  0.3145406E-005  0.4312906E+03  0.7818608E-02  0.1033453E+00
          2   -1    0    0  501    0  0.00000000000E+00  0.00000000000E+00  0.78562606528E+03  0.78562606528E+03  0.25500000000E-02 0.  1.
         -2   -1    0    0    0  501 -0.00000000000E+00 -0.00000000000E+00 -0.59192154783E+02  0.59192154838E+02  0.25500000000E-02 0. -1.
    5000001    1    1    2    0    0 -0.19145206081E+02  0.10880645910E+03  0.19848410813E+03  0.28076026364E+03  0.16500000000E+03 0.  0.
   -5000001    1    1    2    0    0  0.19145206081E+02 -0.10880645910E+03  0.52794980236E+03  0.56405795648E+03  0.16500000000E+03 0.  0.
<mgrwt>
<rscale>  0 0.43129062E+03</rscale>
<asrwt>0</asrwt>
<pdfrwt beam="1">  1        2 0.12086555E+00 0.43129062E+03</pdfrwt>
<pdfrwt beam="2">  1       -2 0.91064853E-02 0.43129062E+03</pdfrwt>
<totfact> 0.28106373E+03</totfact>
</mgrwt>
</event>
<event>
 4    1  0.3145406E-005  0.4019020E+03  0.7818608E-02  0.1043123E+00
          2   -1    0    0  501    0  0.00000000000E+00  0.00000000000E+00  0.53210839143E+03  0.53210839144E+03  0.25500000000E-02 0.  1.
         -2   -1    0    0    0  501 -0.00000000000E+00 -0.00000000000E+00 -0.75889260623E+02  0.75889260665E+02  0.25500000000E-02 0. -1.
    5000001    1    1    2    0    0 -0.19953117679E+02  0.84885798640E+02  0.34083693308E+03  0.38858530681E+03  0.16500000000E+03 0.  0.
   -5000001    1    1    2    0    0  0.19953117679E+02 -0.84885798640E+02  0.11538219773E+03  0.21941234530E+03  0.16500000000E+03 0.  0.
<mgrwt>
<rscale>  0 0.40190204E+03</rscale>
<asrwt>0</asrwt>
<pdfrwt beam="1">  1        2 0.81862828E-01 0.40190204E+03</pdfrwt>
<pdfrwt beam="2">  1       -2 0.11675271E-01 0.40190204E+03</pdfrwt>
<totfact> 0.30154681E+03</totfact>
</mgrwt>
</event>
<event>
 4    1  0.3145406E-005  0.3762880E+03  0.7818608E-02  0.1052314E+00
          2   -1    0    0  501    0  0.00000000000E+00  0.00000000000E+00  0.63096095461E+03  0.63096095462E+03  0.25500000000E-02 0.  1.
         -2   -1    0    0    0  501 -0.00000000000E+00 -0.00000000000E+00 -0.56101978829E+02  0.56101978887E+02  0.25500000000E-02 0. -1.
    5000001    1    1    2    0    0 -0.48329699993E+02 -0.57330682957E+02  0.19521554223E+03  0.26637694164E+03  0.16500000000E+03 0.  0.
   -5000001    1    1    2    0    0  0.48329699993E+02  0.57330682957E+02  0.37964343356E+03  0.42068599187E+03  0.16500000000E+03 0.  0.
<mgrwt>
<rscale>  0 0.37628796E+03</rscale>
<asrwt>0</asrwt>
<pdfrwt beam="1">  1        2 0.97070918E-01 0.37628796E+03</pdfrwt>
<pdfrwt beam="2">  1       -2 0.86310735E-02 0.37628796E+03</pdfrwt>
<totfact> 0.40085533E+03</totfact>
</mgrwt>
</event>
<event>
 4    1  0.3145406E-005  0.4316701E+03  0.7818608E-02  0.1033334E+00
         -2   -1    0    0    0  501 -0.00000000000E+00  0.00000000000E+00  0.17597086531E+02  0.17597086716E+02  0.25500000000E-02 0. -1.
          2   -1    0    0  501    0  0.00000000000E+00 -0.00000000000E+00 -0.26473003047E+04  0.26473003047E+04  0.25500000000E-02 0.  1.
    5000001    1    1    2    0    0  0.10592345495E+03  0.84890054444E+02 -0.15034881985E+04  0.15185940415E+04  0.16500000000E+03 0.  0.
   -5000001    1    1    2    0    0 -0.10592345495E+03 -0.84890054444E+02 -0.11262150196E+04  0.11463033499E+04  0.16500000000E+03 0.  0.
<mgrwt>
<rscale>  0 0.43167012E+03</rscale>
<asrwt>0</asrwt>
<pdfrwt beam="1">  1        2 0.40727665E+00 0.43167012E+03</pdfrwt>
<pdfrwt beam="2">  1       -2 0.27072462E-02 0.43167012E+03</pdfrwt>
<totfact> 0.16132588E+03</totfact>
</mgrwt>
</event>
<event>
 4    1  0.3145406E-005  0.4403885E+03  0.7818608E-02  0.1030628E+00
          2   -1    0    0  501    0  0.00000000000E+00  0.00000000000E+00  0.13471986606E+04  0.13471986606E+04  0.25500000000E-02 0.  1.
         -2   -1    0    0    0  501 -0.00000000000E+00 -0.00000000000E+00 -0.35989870229E+02  0.35989870319E+02  0.25500000000E-02 0. -1.
    5000001    1    1    2    0    0  0.70740370231E+02  0.89229028629E+02  0.94165320687E+03  0.96275738456E+03  0.16500000000E+03 0.  0.
   -5000001    1    1    2    0    0 -0.70740370231E+02 -0.89229028629E+02  0.36955558353E+03  0.42043114639E+03  0.16500000000E+03 0.  0.
<mgrwt>
<rscale>  0 0.44038849E+03</rscale>
<asrwt>0</asrwt>
<pdfrwt beam="1">  1        2 0.20726129E+00 0.44038849E+03</pdfrwt>
<pdfrwt beam="2">  1       -2 0.55369041E-02 0.44038849E+03</pdfrwt>
<totfact> 0.27670956E+03</totfact>
</mgrwt>
</event>
<event>
 4    1  0.3145406E-005  0.1506723E+04  0.7818608E-02  0.8879994E-01
          2   -1    0    0  501    0  0.00000000000E+00  0.00000000000E+00  0.40062292134E+03  0.40062292135E+03  0.25500000000E-02 0.  1.
         -2   -1    0    0    0  501 -0.00000000000E+00 -0.00000000000E+00 -0.14166785689E+04  0.14166785689E+04  0.25500000000E-02 0. -1.
    5000001    1    1    2    0    0  0.22261148387E+02 -0.65759532789E+03 -0.11275307386E+03  0.68765211383E+03  0.16500000000E+03 0.  0.
   -5000001    1    1    2    0    0 -0.22261148387E+02  0.65759532789E+03 -0.90330257373E+03  0.11296493764E+04  0.16500000000E+03 0.  0.
<mgrwt>
<rscale>  0 0.15067235E+04</rscale>
<asrwt>0</asrwt>
<pdfrwt beam="1">  1        2 0.61634297E-01 0.15067235E+04</pdfrwt>
<pdfrwt beam="2">  1       -2 0.21795055E+00 0.15067235E+04</pdfrwt>
<totfact> 0.78017998E+00</totfact>
</mgrwt>
</event>
<event>
 4    1  0.3145406E-005  0.3995658E+03  0.7818608E-02  0.1043930E+00
         -2   -1    0    0    0  501 -0.00000000000E+00  0.00000000000E+00  0.27502534332E+02  0.27502534451E+02  0.25500000000E-02 0. -1.
          2   -1    0    0  501    0  0.00000000000E+00 -0.00000000000E+00 -0.14512555292E+04  0.14512555292E+04  0.25500000000E-02 0.  1.
    5000001    1    1    2    0    0  0.21469462740E+02 -0.96714287884E+02 -0.91026798235E+03  0.93039098825E+03  0.16500000000E+03 0.  0.
   -5000001    1    1    2    0    0 -0.21469462740E+02  0.96714287884E+02 -0.51348501248E+03  0.54836707537E+03  0.16500000000E+03 0.  0.
<mgrwt>
<rscale>  0 0.39956579E+03</rscale>
<asrwt>0</asrwt>
<pdfrwt beam="1">  1        2 0.22327002E+00 0.39956579E+03</pdfrwt>
<pdfrwt beam="2">  1       -2 0.42311603E-02 0.39956579E+03</pdfrwt>
<totfact> 0.36646928E+03</totfact>
</mgrwt>
</event>
<event>
 4    1  0.3145406E-005  0.4080850E+03  0.7818608E-02  0.1041016E+00
         -2   -1    0    0    0  501 -0.00000000000E+00  0.00000000000E+00  0.14456665688E+02  0.14456665913E+02  0.25500000000E-02 0. -1.
          2   -1    0    0  501    0  0.00000000000E+00 -0.00000000000E+00 -0.28798718915E+04  0.28798718915E+04  0.25500000000E-02 0.  1.
    5000001    1    1    2    0    0 -0.55666281638E+02  0.95849364319E+02 -0.11059527614E+04  0.11236735940E+04  0.16500000000E+03 0.  0.
   -5000001    1    1    2    0    0  0.55666281638E+02 -0.95849364319E+02 -0.17594624644E+04  0.17706549634E+04  0.16500000000E+03 0.  0.
<mgrwt>
<rscale>  0 0.40808502E+03</rscale>
<asrwt>0</asrwt>
<pdfrwt beam="1">  1        2 0.44305676E+00 0.40808502E+03</pdfrwt>
<pdfrwt beam="2">  1       -2 0.22241047E-02 0.40808502E+03</pdfrwt>
<totfact> 0.15930968E+03</totfact>
</mgrwt>
</event>
<event>
 4    1  0.3145406E-005  0.6679645E+03  0.7818608E-02  0.9773642E-01
          2   -1    0    0  501    0  0.00000000000E+00  0.00000000000E+00  0.54750525173E+03  0.54750525173E+03  0.25500000000E-02 0.  1.
         -2   -1    0    0    0  501 -0.00000000000E+00 -0.00000000000E+00 -0.20373165502E+03  0.20373165504E+03  0.25500000000E-02 0. -1.
    5000001    1    1    2    0    0  0.12719411994E+02  0.28988750961E+03  0.15943397879E+03  0.36991991737E+03  0.16500000000E+03 0.  0.
   -5000001    1    1    2    0    0 -0.12719411994E+02 -0.28988750961E+03  0.18433961792E+03  0.38131698940E+03  0.16500000000E+03 0.  0.
<mgrwt>
<rscale>  0 0.66796452E+03</rscale>
<asrwt>0</asrwt>
<pdfrwt beam="1">  1        2 0.84231575E-01 0.66796452E+03</pdfrwt>
<pdfrwt beam="2">  1       -2 0.31343332E-01 0.66796452E+03</pdfrwt>
<totfact> 0.52616318E+02</totfact>
</mgrwt>
</event>
<event>
 4    1  0.3145406E-005  0.5969310E+03  0.7818608E-02  0.9911794E-01
         -2   -1    0    0    0  501 -0.00000000000E+00  0.00000000000E+00  0.10930029833E+03  0.10930029836E+03  0.25500000000E-02 0. -1.
          2   -1    0    0  501    0  0.00000000000E+00 -0.00000000000E+00 -0.81501743166E+03  0.81501743167E+03  0.25500000000E-02 0.  1.
    5000001    1    1    2    0    0  0.13386728519E+03 -0.24783890814E+02 -0.67515180912E+03  0.70822994617E+03  0.16500000000E+03 0.  0.
   -5000001    1    1    2    0    0 -0.13386728519E+03  0.24783890814E+02 -0.30565324211E+02  0.21608778386E+03  0.16500000000E+03 0.  0.
<mgrwt>
<rscale>  0 0.59693098E+03</rscale>
<asrwt>0</asrwt>
<pdfrwt beam="1">  1        2 0.12538729E+00 0.59693098E+03</pdfrwt>
<pdfrwt beam="2">  1       -2 0.16815431E-01 0.59693098E+03</pdfrwt>
<totfact> 0.97420264E+02</totfact>
</mgrwt>
</event>
<event>
 4    1  0.3145406E-005  0.7715837E+03  0.7818608E-02  0.9602084E-01
          2   -1    0    0  501    0  0.00000000000E+00  0.00000000000E+00  0.84175577617E+03  0.84175577618E+03  0.25500000000E-02 0.  1.
         -2   -1    0    0    0  501 -0.00000000000E+00 -0.00000000000E+00 -0.17681536476E+03  0.17681536478E+03  0.25500000000E-02 0. -1.
    5000001    1    1    2    0    0 -0.70868378540E+02  0.27475416844E+03  0.64849578648E+02  0.33457831371E+03  0.16500000000E+03 0.  0.
   -5000001    1    1    2    0    0  0.70868378540E+02 -0.27475416844E+03  0.60009083277E+03  0.68399282725E+03  0.16500000000E+03 0.  0.
<mgrwt>
<rscale>  0 0.77158371E+03</rscale>
<asrwt>0</asrwt>
<pdfrwt beam="1">  1        2 0.12950089E+00 0.77158371E+03</pdfrwt>
<pdfrwt beam="2">  1       -2 0.27202364E-01 0.77158371E+03</pdfrwt>
<totfact> 0.39724317E+02</totfact>
</mgrwt>
</event>
<event>
 4    1  0.3145406E-005  0.3932862E+03  0.7818608E-02  0.1046130E+00
         -2   -1    0    0    0  501 -0.00000000000E+00  0.00000000000E+00  0.44146453096E+02  0.44146453170E+02  0.25500000000E-02 0. -1.
          2   -1    0    0  501    0  0.00000000000E+00 -0.00000000000E+00 -0.87591415056E+03  0.87591415057E+03  0.25500000000E-02 0.  1.
    5000001    1    1    2    0    0  0.10021160353E+03 -0.58717918838E+01 -0.50236828009E+03  0.53821532147E+03  0.16500000000E+03 0.  0.
   -5000001    1    1    2    0    0 -0.10021160353E+03  0.58717918838E+01 -0.32939941738E+03  0.38184528227E+03  0.16500000000E+03 0.  0.
<mgrwt>
<rscale>  0 0.39328617E+03</rscale>
<asrwt>0</asrwt>
<pdfrwt beam="1">  1        2 0.13475601E+00 0.39328617E+03</pdfrwt>
<pdfrwt beam="2">  1       -2 0.67917626E-02 0.39328617E+03</pdfrwt>
<totfact> 0.38669573E+03</totfact>
</mgrwt>
</event>
<event>
 4    1  0.3145406E-005  0.5937151E+03  0.7818608E-02  0.9918532E-01
         -2   -1    0    0    0  501 -0.00000000000E+00  0.00000000000E+00  0.19658018165E+03  0.19658018166E+03  0.25500000000E-02 0. -1.
          2   -1    0    0  501    0  0.00000000000E+00 -0.00000000000E+00 -0.44828733321E+03  0.44828733321E+03  0.25500000000E-02 0.  1.
    5000001    1    1    2    0    0 -0.99194212108E+02 -0.18381471637E+03  0.16892612533E+02  0.26671651998E+03  0.16500000000E+03 0.  0.
   -5000001    1    1    2    0    0  0.99194212108E+02  0.18381471637E+03 -0.26859976409E+03  0.37815099490E+03  0.16500000000E+03 0.  0.
<mgrwt>
<rscale>  0 0.59371510E+03</rscale>
<asrwt>0</asrwt>
<pdfrwt beam="1">  1        2 0.68967282E-01 0.59371510E+03</pdfrwt>
<pdfrwt beam="2">  1       -2 0.30243105E-01 0.59371510E+03</pdfrwt>
<totfact> 0.70926671E+02</totfact>
</mgrwt>
</event>
<event>
 4    1  0.3145406E-005  0.4441035E+03  0.7818608E-02  0.1029495E+00
          2   -1    0    0  501    0  0.00000000000E+00  0.00000000000E+00  0.15305957293E+04  0.15305957293E+04  0.25500000000E-02 0.  1.
         -2   -1    0    0    0  501 -0.00000000000E+00 -0.00000000000E+00 -0.32214244621E+02  0.32214244722E+02  0.25500000000E-02 0. -1.
    5000001    1    1    2    0    0  0.95629997721E+02  0.11163846240E+03  0.82578446166E+03  0.85484104948E+03  0.16500000000E+03 0.  0.
   -5000001    1    1    2    0    0 -0.95629997721E+02 -0.11163846240E+03  0.67259702303E+03  0.70796892456E+03  0.16500000000E+03 0.  0.
<mgrwt>
<rscale>  0 0.44410353E+03</rscale>
<asrwt>0</asrwt>
<pdfrwt beam="1">  1        2 0.23547626E+00 0.44410353E+03</pdfrwt>
<pdfrwt beam="2">  1       -2 0.49560378E-02 0.44410353E+03</pdfrwt>
<totfact> 0.26015564E+03</totfact>
</mgrwt>
</event>
<event>
 4    1  0.3145406E-005  0.4024659E+03  0.7818608E-02  0.1042929E+00
          2   -1    0    0  501    0  0.00000000000E+00  0.00000000000E+00  0.48907669275E+03  0.48907669275E+03  0.25500000000E-02 0.  1.
         -2   -1    0    0    0  501 -0.00000000000E+00 -0.00000000000E+00 -0.82798256169E+02  0.82798256208E+02  0.25500000000E-02 0. -1.
    5000001    1    1    2    0    0  0.57054117697E+02 -0.53699421138E+02  0.83149486064E+02  0.20069289277E+03  0.16500000000E+03 0.  0.
   -5000001    1    1    2    0    0 -0.57054117697E+02  0.53699421138E+02  0.32312895051E+03  0.37118205619E+03  0.16500000000E+03 0.  0.
<mgrwt>
<rscale>  0 0.40246589E+03</rscale>
<asrwt>0</asrwt>
<pdfrwt beam="1">  1        2 0.75242568E-01 0.40246589E+03</pdfrwt>
<pdfrwt beam="2">  1       -2 0.12738193E-01 0.40246589E+03</pdfrwt>
<totfact> 0.28794438E+03</totfact>
</mgrwt>
</event>
<event>
 4    1  0.3145406E-005  0.6560694E+03  0.7818608E-02  0.9795457E-01
          2   -1    0    0  501    0  0.00000000000E+00  0.00000000000E+00  0.18926014658E+03  0.18926014659E+03  0.25500000000E-02 0.  1.
         -2   -1    0    0    0  501 -0.00000000000E+00 -0.00000000000E+00 -0.56856536302E+03  0.56856536302E+03  0.25500000000E-02 0. -1.
    5000001    1    1    2    0    0 -0.20052645131E+03 -0.37270794629E+02  0.37822241827E+02  0.26505752542E+03  0.16500000000E+03 0.  0.
   -5000001    1    1    2    0    0  0.20052645131E+03  0.37270794629E+02 -0.41712745827E+03  0.49276798419E+03  0.16500000000E+03 0.  0.
<mgrwt>
<rscale>  0 0.65606940E+03</rscale>
<asrwt>0</asrwt>
<pdfrwt beam="1">  1        2 0.29116946E-01 0.65606940E+03</pdfrwt>
<pdfrwt beam="2">  1       -2 0.87471594E-01 0.65606940E+03</pdfrwt>
<totfact> 0.21000854E+02</totfact>
</mgrwt>
</event>
<event>
 4    1  0.3145406E-005  0.6867438E+03  0.7818608E-02  0.9740174E-01
          2   -1    0    0  501    0  0.00000000000E+00  0.00000000000E+00  0.17944635765E+04  0.17944635765E+04  0.25500000000E-02 0.  1.
         -2   -1    0    0    0  501 -0.00000000000E+00 -0.00000000000E+00 -0.65704464104E+02  0.65704464153E+02  0.25500000000E-02 0. -1.
    5000001    1    1    2    0    0 -0.26317460031E+03 -0.10366222241E+03  0.11442076655E+04  0.11901440704E+04  0.16500000000E+03 0.  0.
   -5000001    1    1    2    0    0  0.26317460031E+03  0.10366222241E+03  0.58455144693E+03  0.67002397025E+03  0.16500000000E+03 0.  0.
<mgrwt>
<rscale>  0 0.68674382E+03</rscale>
<asrwt>0</asrwt>
<pdfrwt beam="1">  1        2 0.27607129E+00 0.68674382E+03</pdfrwt>
<pdfrwt beam="2">  1       -2 0.10108380E-01 0.68674382E+03</pdfrwt>
<totfact> 0.59930912E+02</totfact>
</mgrwt>
</event>
<event>
 4    1  0.3145406E-005  0.4643202E+03  0.7818608E-02  0.1023536E+00
          2   -1    0    0  501    0  0.00000000000E+00  0.00000000000E+00  0.57335158086E+02  0.57335158142E+02  0.25500000000E-02 0.  1.
         -2   -1    0    0    0  501 -0.00000000000E+00 -0.00000000000E+00 -0.94005679432E+03  0.94005679432E+03  0.25500000000E-02 0. -1.
    5000001    1    1    2    0    0 -0.53348998535E+02 -0.10381310300E+03 -0.68674922886E+03  0.71587204117E+03  0.16500000000E+03 0.  0.
   -5000001    1    1    2    0    0  0.53348998535E+02  0.10381310300E+03 -0.19597240738E+03  0.28151991129E+03  0.16500000000E+03 0.  0.
<mgrwt>
<rscale>  0 0.46432017E+03</rscale>
<asrwt>0</asrwt>
<pdfrwt beam="1">  1        2 0.88207942E-02 0.46432017E+03</pdfrwt>
<pdfrwt beam="2">  1       -2 0.14462411E+00 0.46432017E+03</pdfrwt>
<totfact> 0.26171790E+02</totfact>
</mgrwt>
</event>
<event>
 4    1  0.3145406E-005  0.5310197E+03  0.7818608E-02  0.1005985E+00
         -2   -1    0    0    0  501 -0.00000000000E+00  0.00000000000E+00  0.14188484711E+03  0.14188484713E+03  0.25500000000E-02 0. -1.
          2   -1    0    0  501    0  0.00000000000E+00 -0.00000000000E+00 -0.49684992294E+03  0.49684992295E+03  0.25500000000E-02 0.  1.
    5000001    1    1    2    0    0  0.18389411986E+03 -0.86610639219E+02 -0.12433873209E+03  0.28983369446E+03  0.16500000000E+03 0.  0.
   -5000001    1    1    2    0    0 -0.18389411986E+03  0.86610639219E+02 -0.23062634374E+03  0.34890107562E+03  0.16500000000E+03 0.  0.
<mgrwt>
<rscale>  0 0.53101968E+03</rscale>
<asrwt>0</asrwt>
<pdfrwt beam="1">  1        2 0.76438449E-01 0.53101968E+03</pdfrwt>
<pdfrwt beam="2">  1       -2 0.21828438E-01 0.53101968E+03</pdfrwt>
<totfact> 0.11361246E+03</totfact>
</mgrwt>
</event>
<event>
 4    1  0.3145406E-005  0.3779837E+03  0.7818608E-02  0.1051682E+00
          2   -1    0    0  501    0  0.00000000000E+00  0.00000000000E+00  0.25185225076E+03  0.25185225077E+03  0.25500000000E-02 0.  1.
         -2   -1    0    0    0  501 -0.00000000000E+00 -0.00000000000E+00 -0.14182093549E+03  0.14182093551E+03  0.25500000000E-02 0. -1.
    5000001    1    1    2    0    0 -0.85466581643E+01  0.32576560293E+02  0.14435888775E+03  0.22180794873E+03  0.16500000000E+03 0.  0.
   -5000001    1    1    2    0    0  0.85466581643E+01 -0.32576560293E+02 -0.34327572481E+02  0.17186523755E+03  0.16500000000E+03 0.  0.
<mgrwt>
<rscale>  0 0.37798371E+03</rscale>
<asrwt>0</asrwt>
<pdfrwt beam="1">  1        2 0.38746500E-01 0.37798371E+03</pdfrwt>
<pdfrwt beam="2">  1       -2 0.21818606E-01 0.37798371E+03</pdfrwt>
<totfact> 0.24044843E+03</totfact>
</mgrwt>
</event>
<event>
 4    1  0.3145406E-005  0.4204576E+03  0.7818608E-02  0.1036917E+00
         -2   -1    0    0    0  501 -0.00000000000E+00  0.00000000000E+00  0.51440713005E+02  0.51440713068E+02  0.25500000000E-02 0. -1.
          2   -1    0    0  501    0  0.00000000000E+00 -0.00000000000E+00 -0.85916661188E+03  0.85916661188E+03  0.25500000000E-02 0.  1.
    5000001    1    1    2    0    0  0.57394302576E+02 -0.77076895066E+02 -0.21337280752E+03  0.28633530818E+03  0.16500000000E+03 0.  0.
   -5000001    1    1    2    0    0 -0.57394302576E+02  0.77076895066E+02 -0.59435309136E+03  0.62427201677E+03  0.16500000000E+03 0.  0.
<mgrwt>
<rscale>  0 0.42045758E+03</rscale>
<asrwt>0</asrwt>
<pdfrwt beam="1">  1        2 0.13217947E+00 0.42045758E+03</pdfrwt>
<pdfrwt beam="2">  1       -2 0.79139564E-02 0.42045758E+03</pdfrwt>
<totfact> 0.31229416E+03</totfact>
</mgrwt>
</event>
<event>
 4    1  0.3145406E-005  0.5276860E+03  0.7818608E-02  0.1006795E+00
          2   -1    0    0  501    0  0.00000000000E+00  0.00000000000E+00  0.72144559968E+03  0.72144559968E+03  0.25500000000E-02 0.  1.
         -2   -1    0    0    0  501 -0.00000000000E+00 -0.00000000000E+00 -0.96491160155E+02  0.96491160189E+02  0.25500000000E-02 0. -1.
    5000001    1    1    2    0    0  0.89912993987E+02 -0.71535701865E+02  0.47667095633E+02  0.20663701298E+03  0.16500000000E+03 0.  0.
   -5000001    1    1    2    0    0 -0.89912993987E+02  0.71535701865E+02  0.57728734389E+03  0.61129974689E+03  0.16500000000E+03 0.  0.
<mgrwt>
<rscale>  0 0.52768598E+03</rscale>
<asrwt>0</asrwt>
<pdfrwt beam="1">  1        2 0.11099163E+00 0.52768598E+03</pdfrwt>
<pdfrwt beam="2">  1       -2 0.14844793E-01 0.52768598E+03</pdfrwt>
<totfact> 0.14094329E+03</totfact>
</mgrwt>
</event>
<event>
 4    1  0.3145406E-005  0.3943818E+03  0.7818608E-02  0.1045743E+00
         -2   -1    0    0    0  501 -0.00000000000E+00  0.00000000000E+00  0.12819188471E+03  0.12819188473E+03  0.25500000000E-02 0. -1.
          2   -1    0    0  501    0  0.00000000000E+00 -0.00000000000E+00 -0.30332846926E+03  0.30332846927E+03  0.25500000000E-02 0.  1.
    5000001    1    1    2    0    0  0.85008526450E+02  0.61264876878E+02 -0.11608842288E+03  0.22733533961E+03  0.16500000000E+03 0.  0.
   -5000001    1    1    2    0    0 -0.85008526450E+02 -0.61264876878E+02 -0.59048161681E+02  0.20418501440E+03  0.16500000000E+03 0.  0.
<mgrwt>
<rscale>  0 0.39438179E+03</rscale>
<asrwt>0</asrwt>
<pdfrwt beam="1">  1        2 0.46665918E-01 0.39438179E+03</pdfrwt>
<pdfrwt beam="2">  1       -2 0.19721829E-01 0.39438179E+03</pdfrwt>
<totfact> 0.23407148E+03</totfact>
</mgrwt>
</event>
<event>
 4    1  0.3145406E-005  0.6494489E+03  0.7818608E-02  0.9807814E-01
          2   -1    0    0  501    0  0.00000000000E+00  0.00000000000E+00  0.38472455703E+03  0.38472455704E+03  0.25500000000E-02 0.  1.
         -2   -1    0    0    0  501 -0.00000000000E+00 -0.00000000000E+00 -0.27408174874E+03  0.27408174876E+03  0.25500000000E-02 0. -1.
    5000001    1    1    2    0    0  0.37701779599E+02 -0.25908730198E+03 -0.44448747492E+02  0.31264731789E+03  0.16500000000E+03 0.  0.
   -5000001    1    1    2    0    0 -0.37701779599E+02  0.25908730198E+03  0.15509155578E+03  0.34615898790E+03  0.16500000000E+03 0.  0.
<mgrwt>
<rscale>  0 0.64944893E+03</rscale>
<asrwt>0</asrwt>
<pdfrwt beam="1">  1        2 0.59188393E-01 0.64944893E+03</pdfrwt>
<pdfrwt beam="2">  1       -2 0.42166423E-01 0.64944893E+03</pdfrwt>
<totfact> 0.44667042E+02</totfact>
</mgrwt>
</event>
<event>
 4    1  0.3145406E-005  0.4435678E+03  0.7818608E-02  0.1029658E+00
          2   -1    0    0  501    0  0.00000000000E+00  0.00000000000E+00  0.98873335151E+03  0.98873335152E+03  0.25500000000E-02 0.  1.
         -2   -1    0    0    0  501 -0.00000000000E+00 -0.00000000000E+00 -0.49748593939E+02  0.49748594004E+02  0.25500000000E-02 0. -1.
    5000001    1    1    2    0    0  0.33545679178E+02  0.73464372005E+02  0.76041225854E+03  0.78228775364E+03  0.16500000000E+03 0.  0.
   -5000001    1    1    2    0    0 -0.33545679178E+02 -0.73464372005E+02  0.17857249903E+03  0.25619419188E+03  0.16500000000E+03 0.  0.
<mgrwt>
<rscale>  0 0.44356778E+03</rscale>
<asrwt>0</asrwt>
<pdfrwt beam="1">  1        2 0.15211284E+00 0.44356778E+03</pdfrwt>
<pdfrwt beam="2">  1       -2 0.76536292E-02 0.44356778E+03</pdfrwt>
<totfact> 0.27120454E+03</totfact>
</mgrwt>
</event>
<event>
 4    1  0.3145406E-005  0.4754176E+03  0.7818608E-02  0.1020402E+00
         -2   -1    0    0    0  501 -0.00000000000E+00  0.00000000000E+00  0.16347311390E+04  0.16347311390E+04  0.25500000000E-02 0. -1.
          2   -1    0    0  501    0  0.00000000000E+00 -0.00000000000E+00 -0.34565608343E+02  0.34565608437E+02  0.25500000000E-02 0.  1.
    5000001    1    1    2    0    0 -0.99856653878E+02 -0.52952023806E+02  0.12511785669E+04  0.12670627744E+04  0.16500000000E+03 0.  0.
   -5000001    1    1    2    0    0  0.99856653878E+02  0.52952023806E+02  0.34898696377E+03  0.40223397299E+03  0.16500000000E+03 0.  0.
<mgrwt>
<rscale>  0 0.47541761E+03</rscale>
<asrwt>0</asrwt>
<pdfrwt beam="1">  1        2 0.53177870E-02 0.47541761E+03</pdfrwt>
<pdfrwt beam="2">  1       -2 0.25149705E+00 0.47541761E+03</pdfrwt>
<totfact> 0.10027541E+02</totfact>
</mgrwt>
</event>
<event>
 4    1  0.3145406E-005  0.3881126E+03  0.7818608E-02  0.1047975E+00
          2   -1    0    0  501    0  0.00000000000E+00  0.00000000000E+00  0.12161128330E+04  0.12161128330E+04  0.25500000000E-02 0.  1.
         -2   -1    0    0    0  501 -0.00000000000E+00 -0.00000000000E+00 -0.30965754844E+02  0.30965754949E+02  0.25500000000E-02 0. -1.
    5000001    1    1    2    0    0 -0.13788167375E+02 -0.68422858312E+02  0.35295827122E+03  0.39582362527E+03  0.16500000000E+03 0.  0.
   -5000001    1    1    2    0    0  0.13788167375E+02  0.68422858312E+02  0.83218880694E+03  0.85125496269E+03  0.16500000000E+03 0.  0.
<mgrwt>
<rscale>  0 0.38811262E+03</rscale>
<asrwt>0</asrwt>
<pdfrwt beam="1">  1        2 0.18709426E+00 0.38811262E+03</pdfrwt>
<pdfrwt beam="2">  1       -2 0.47639629E-02 0.38811262E+03</pdfrwt>
<totfact> 0.41383039E+03</totfact>
</mgrwt>
</event>
<event>
 4    1  0.3145406E-005  0.5947950E+03  0.7818608E-02  0.9916264E-01
          2   -1    0    0  501    0  0.00000000000E+00  0.00000000000E+00  0.96901677869E+02  0.96901677903E+02  0.25500000000E-02 0.  1.
         -2   -1    0    0    0  501 -0.00000000000E+00 -0.00000000000E+00 -0.91273201813E+03  0.91273201813E+03  0.25500000000E-02 0. -1.
    5000001    1    1    2    0    0  0.12971591927E+03  0.12386272462E+03 -0.11859075182E+03  0.27102944615E+03  0.16500000000E+03 0.  0.
   -5000001    1    1    2    0    0 -0.12971591927E+03 -0.12386272462E+03 -0.69723958845E+03  0.73860424989E+03  0.16500000000E+03 0.  0.
<mgrwt>
<rscale>  0 0.59479497E+03</rscale>
<asrwt>0</asrwt>
<pdfrwt beam="1">  1        2 0.14907951E-01 0.59479497E+03</pdfrwt>
<pdfrwt beam="2">  1       -2 0.14042031E+00 0.59479497E+03</pdfrwt>
<totfact> 0.14622918E+02</totfact>
</mgrwt>
</event>
<event>
 4    1  0.3145406E-005  0.4446315E+03  0.7818608E-02  0.1029335E+00
          2   -1    0    0  501    0  0.00000000000E+00  0.00000000000E+00  0.29352668795E+04  0.29352668795E+04  0.25500000000E-02 0.  1.
         -2   -1    0    0    0  501 -0.00000000000E+00 -0.00000000000E+00 -0.16838093831E+02  0.16838094024E+02  0.25500000000E-02 0. -1.
    5000001    1    1    2    0    0  0.18834751951E+02 -0.14755833016E+03  0.14032337273E+04  0.14207104217E+04  0.16500000000E+03 0.  0.
   -5000001    1    1    2    0    0 -0.18834751951E+02  0.14755833016E+03  0.15151950583E+04  0.15313945518E+04  0.16500000000E+03 0.  0.
<mgrwt>
<rscale>  0 0.44463153E+03</rscale>
<asrwt>0</asrwt>
<pdfrwt beam="1">  1        2 0.45157929E+00 0.44463153E+03</pdfrwt>
<pdfrwt beam="2">  1       -2 0.25904773E-02 0.44463153E+03</pdfrwt>
<totfact> 0.11712804E+03</totfact>
</mgrwt>
</event>
<event>
 4    1  0.3145406E-005  0.4661490E+03  0.7818608E-02  0.1023013E+00
          2   -1    0    0  501    0  0.00000000000E+00  0.00000000000E+00  0.10207615008E+04  0.10207615008E+04  0.25500000000E-02 0.  1.
         -2   -1    0    0    0  501 -0.00000000000E+00 -0.00000000000E+00 -0.53218823424E+02  0.53218823485E+02  0.25500000000E-02 0. -1.
    5000001    1    1    2    0    0 -0.62302393842E+01  0.16019353313E+03  0.56991357785E+03  0.61459520837E+03  0.16500000000E+03 0.  0.
   -5000001    1    1    2    0    0  0.62302393842E+01 -0.16019353313E+03  0.39762909956E+03  0.45938511595E+03  0.16500000000E+03 0.  0.
<mgrwt>
<rscale>  0 0.46614902E+03</rscale>
<asrwt>0</asrwt>
<pdfrwt beam="1">  1        2 0.15704023E+00 0.46614902E+03</pdfrwt>
<pdfrwt beam="2">  1       -2 0.81875113E-02 0.46614902E+03</pdfrwt>
<totfact> 0.23276885E+03</totfact>
</mgrwt>
</event>
<event>
 4    1  0.3145406E-005  0.3753514E+03  0.7818608E-02  0.1052665E+00
          2   -1    0    0  501    0  0.00000000000E+00  0.00000000000E+00  0.12845035278E+03  0.12845035281E+03  0.25500000000E-02 0.  1.
         -2   -1    0    0    0  501 -0.00000000000E+00 -0.00000000000E+00 -0.27420844727E+03  0.27420844728E+03  0.25500000000E-02 0. -1.
    5000001    1    1    2    0    0  0.72411771418E+02  0.29125438518E+02 -0.11970579933E+03  0.21828017364E+03  0.16500000000E+03 0.  0.
   -5000001    1    1    2    0    0 -0.72411771418E+02 -0.29125438518E+02 -0.26052295157E+02  0.18437862645E+03  0.16500000000E+03 0.  0.
<mgrwt>
<rscale>  0 0.37535142E+03</rscale>
<asrwt>0</asrwt>
<pdfrwt beam="1">  1        2 0.19761593E-01 0.37535142E+03</pdfrwt>
<pdfrwt beam="2">  1       -2 0.42185915E-01 0.37535142E+03</pdfrwt>
<totfact> 0.15230120E+03</totfact>
</mgrwt>
</event>
<event>
 4    1  0.3145406E-005  0.4857288E+03  0.7818608E-02  0.1017573E+00
         -2   -1    0    0    0  501 -0.00000000000E+00  0.00000000000E+00  0.81983986180E+02  0.81983986220E+02  0.25500000000E-02 0. -1.
          2   -1    0    0  501    0  0.00000000000E+00 -0.00000000000E+00 -0.71944681741E+03  0.71944681741E+03  0.25500000000E-02 0.  1.
    5000001    1    1    2    0    0  0.32368442106E+02  0.10717357722E+03 -0.54750011683E+03  0.58267938837E+03  0.16500000000E+03 0.  0.
   -5000001    1    1    2    0    0 -0.32368442106E+02 -0.10717357722E+03 -0.89962714396E+02  0.21875141526E+03  0.16500000000E+03 0.  0.
<mgrwt>
<rscale>  0 0.48572880E+03</rscale>
<asrwt>0</asrwt>
<pdfrwt beam="1">  1        2 0.11068412E+00 0.48572880E+03</pdfrwt>
<pdfrwt beam="2">  1       -2 0.12612921E-01 0.48572880E+03</pdfrwt>
<totfact> 0.18546164E+03</totfact>
</mgrwt>
</event>
<event>
 4    1  0.3145406E-005  0.1109326E+04  0.7818608E-02  0.9196150E-01
         -2   -1    0    0    0  501 -0.00000000000E+00  0.00000000000E+00  0.16770317712E+04  0.16770317712E+04  0.25500000000E-02 0. -1.
          2   -1    0    0  501    0  0.00000000000E+00 -0.00000000000E+00 -0.18344970147E+03  0.18344970149E+03  0.25500000000E-02 0.  1.
    5000001    1    1    2    0    0 -0.50866154368E+03 -0.11834754020E+03  0.59978360173E+03  0.81222415329E+03  0.16500000000E+03 0.  0.
   -5000001    1    1    2    0    0  0.50866154368E+03  0.11834754020E+03  0.89379846804E+03  0.10482573194E+04  0.16500000000E+03 0.  0.
<mgrwt>
<rscale>  0 0.11093259E+04</rscale>
<asrwt>0</asrwt>
<pdfrwt beam="1">  1        2 0.28223031E-01 0.11093259E+04</pdfrwt>
<pdfrwt beam="2">  1       -2 0.25800489E+00 0.11093259E+04</pdfrwt>
<totfact> 0.10926992E+01</totfact>
</mgrwt>
</event>
<event>
 4    1  0.3145406E-005  0.4693466E+03  0.7818608E-02  0.1022105E+00
         -2   -1    0    0    0  501 -0.00000000000E+00  0.00000000000E+00  0.18022199865E+03  0.18022199867E+03  0.25500000000E-02 0.  1.
          2   -1    0    0  501    0  0.00000000000E+00 -0.00000000000E+00 -0.30557624226E+03  0.30557624227E+03  0.25500000000E-02 0. -1.
    5000001    1    1    2    0    0 -0.25670398281E+02  0.15286089451E+03  0.13050017095E+01  0.22638932273E+03  0.16500000000E+03 0.  0.
   -5000001    1    1    2    0    0  0.25670398281E+02 -0.15286089451E+03 -0.12665924532E+03  0.25940891821E+03  0.16500000000E+03 0.  0.
<mgrwt>
<rscale>  0 0.46934661E+03</rscale>
<asrwt>0</asrwt>
<pdfrwt beam="1">  1        2 0.47011729E-01 0.46934661E+03</pdfrwt>
<pdfrwt beam="2">  1       -2 0.27726461E-01 0.46934661E+03</pdfrwt>
<totfact> 0.12736133E+03</totfact>
</mgrwt>
</event>
<event>
 4    1  0.3145406E-005  0.4597815E+03  0.7818608E-02  0.1024845E+00
          2   -1    0    0  501    0  0.00000000000E+00  0.00000000000E+00  0.43704565221E+03  0.43704565222E+03  0.25500000000E-02 0.  1.
         -2   -1    0    0    0  501 -0.00000000000E+00 -0.00000000000E+00 -0.12092503085E+03  0.12092503087E+03  0.25500000000E-02 0. -1.
    5000001    1    1    2    0    0 -0.50595997971E+01 -0.11404443008E+03  0.29424395562E+03  0.35614075448E+03  0.16500000000E+03 0.  0.
   -5000001    1    1    2    0    0  0.50595997971E+01  0.11404443008E+03  0.21876665745E+02  0.20182992862E+03  0.16500000000E+03 0.  0.
<mgrwt>
<rscale>  0 0.45978151E+03</rscale>
<asrwt>0</asrwt>
<pdfrwt beam="1">  1        2 0.67237792E-01 0.45978151E+03</pdfrwt>
<pdfrwt beam="2">  1       -2 0.18603851E-01 0.45978151E+03</pdfrwt>
<totfact> 0.17338082E+03</totfact>
</mgrwt>
</event>
<event>
 4    1  0.3145406E-005  0.3571411E+03  0.7818608E-02  0.1059722E+00
         -2   -1    0    0    0  501 -0.00000000000E+00  0.00000000000E+00  0.21852761374E+02  0.21852761522E+02  0.25500000000E-02 0. -1.
          2   -1    0    0  501    0  0.00000000000E+00 -0.00000000000E+00 -0.14591954178E+04  0.14591954178E+04  0.25500000000E-02 0.  1.
    5000001    1    1    2    0    0  0.22874207790E+02  0.59748073049E+02 -0.81762533016E+03  0.83655797297E+03  0.16500000000E+03 0.  0.
   -5000001    1    1    2    0    0 -0.22874207790E+02 -0.59748073049E+02 -0.61971732623E+03  0.64449020633E+03  0.16500000000E+03 0.  0.
<mgrwt>
<rscale>  0 0.35714115E+03</rscale>
<asrwt>0</asrwt>
<pdfrwt beam="1">  1        2 0.22449153E+00 0.35714115E+03</pdfrwt>
<pdfrwt beam="2">  1       -2 0.33619644E-02 0.35714115E+03</pdfrwt>
<totfact> 0.51396575E+03</totfact>
</mgrwt>
</event>
<event>
 4    1  0.3145406E-005  0.3913246E+03  0.7818608E-02  0.1046826E+00
          2   -1    0    0  501    0  0.00000000000E+00  0.00000000000E+00  0.86686498314E+03  0.86686498315E+03  0.25500000000E-02 0.  1.
         -2   -1    0    0    0  501 -0.00000000000E+00 -0.00000000000E+00 -0.44163438937E+02  0.44163439011E+02  0.25500000000E-02 0. -1.
    5000001    1    1    2    0    0 -0.61083679534E+02  0.85325139485E+02  0.39536603688E+03  0.44107924282E+03  0.16500000000E+03 0.  0.
   -5000001    1    1    2    0    0  0.61083679534E+02 -0.85325139485E+02  0.42733550733E+03  0.46994917934E+03  0.16500000000E+03 0.  0.
<mgrwt>
<rscale>  0 0.39132462E+03</rscale>
<asrwt>0</asrwt>
<pdfrwt beam="1">  1        2 0.13336384E+00 0.39132462E+03</pdfrwt>
<pdfrwt beam="2">  1       -2 0.67943756E-02 0.39132462E+03</pdfrwt>
<totfact> 0.39185756E+03</totfact>
</mgrwt>
</event>
<event>
 4    1  0.3145406E-005  0.4039754E+03  0.7818608E-02  0.1042412E+00
         -2   -1    0    0    0  501 -0.00000000000E+00  0.00000000000E+00  0.68198536492E+02  0.68198536540E+02  0.25500000000E-02 0. -1.
          2   -1    0    0  501    0  0.00000000000E+00 -0.00000000000E+00 -0.59823902361E+03  0.59823902362E+03  0.25500000000E-02 0.  1.
    5000001    1    1    2    0    0  0.74096497451E+02 -0.88542807969E+02 -0.29078439981E+03  0.35370989095E+03  0.16500000000E+03 0.  0.
   -5000001    1    1    2    0    0 -0.74096497451E+02  0.88542807969E+02 -0.23925608730E+03  0.31272766921E+03  0.16500000000E+03 0.  0.
<mgrwt>
<rscale>  0 0.40397537E+03</rscale>
<asrwt>0</asrwt>
<pdfrwt beam="1">  1        2 0.92036770E-01 0.40397537E+03</pdfrwt>
<pdfrwt beam="2">  1       -2 0.10492083E-01 0.40397537E+03</pdfrwt>
<totfact> 0.31285777E+03</totfact>
</mgrwt>
</event>
<event>
 4    1  0.3145406E-005  0.4431705E+03  0.7818608E-02  0.1029778E+00
         -2   -1    0    0    0  501 -0.00000000000E+00  0.00000000000E+00  0.48220470794E+02  0.48220470862E+02  0.25500000000E-02 0.  1.
          2   -1    0    0  501    0  0.00000000000E+00 -0.00000000000E+00 -0.10182403068E+04  0.10182403068E+04  0.25500000000E-02 0. -1.
    5000001    1    1    2    0    0  0.10818199524E+03  0.10083411222E+03 -0.48992089116E+03  0.53769725858E+03  0.16500000000E+03 0.  0.
   -5000001    1    1    2    0    0 -0.10818199524E+03 -0.10083411222E+03 -0.48009894485E+03  0.52876351910E+03  0.16500000000E+03 0.  0.
<mgrwt>
<rscale>  0 0.44317052E+03</rscale>
<asrwt>0</asrwt>
<pdfrwt beam="1">  1        2 0.15665234E+00 0.44317052E+03</pdfrwt>
<pdfrwt beam="2">  1       -2 0.74185347E-02 0.44317052E+03</pdfrwt>
<totfact> 0.27304393E+03</totfact>
</mgrwt>
</event>
<event>
 4    1  0.3145406E-005  0.7008855E+03  0.7818608E-02  0.9715719E-01
          2   -1    0    0  501    0  0.00000000000E+00  0.00000000000E+00  0.11513346901E+04  0.11513346901E+04  0.25500000000E-02 0.  1.
         -2   -1    0    0    0  501 -0.00000000000E+00 -0.00000000000E+00 -0.10666759923E+03  0.10666759926E+03  0.25500000000E-02 0. -1.
    5000001    1    1    2    0    0  0.68479838182E+01  0.29644710324E+03  0.36527087064E+03  0.49857355409E+03  0.16500000000E+03 0.  0.
   -5000001    1    1    2    0    0 -0.68479838182E+01 -0.29644710324E+03  0.67939622028E+03  0.75942873532E+03  0.16500000000E+03 0.  0.
<mgrwt>
<rscale>  0 0.70088546E+03</rscale>
<asrwt>0</asrwt>
<pdfrwt beam="1">  1        2 0.17712842E+00 0.70088546E+03</pdfrwt>
<pdfrwt beam="2">  1       -2 0.16410399E-01 0.70088546E+03</pdfrwt>
<totfact> 0.61458489E+02</totfact>
</mgrwt>
</event>
<event>
 4    1  0.3145406E-005  0.4316022E+03  0.7818608E-02  0.1033355E+00
         -2   -1    0    0    0  501 -0.00000000000E+00  0.00000000000E+00  0.14217762216E+02  0.14217762445E+02  0.25500000000E-02 0. -1.
          2   -1    0    0  501    0  0.00000000000E+00 -0.00000000000E+00 -0.32754879879E+04  0.32754879879E+04  0.25500000000E-02 0.  1.
    5000001    1    1    2    0    0  0.12311287041E+03  0.41109246600E+02 -0.12496561467E+04  0.12671670111E+04  0.16500000000E+03 0.  0.
   -5000001    1    1    2    0    0 -0.12311287041E+03 -0.41109246600E+02 -0.20116140790E+04  0.20225387392E+04  0.16500000000E+03 0.  0.
<mgrwt>
<rscale>  0 0.43160218E+03</rscale>
<asrwt>0</asrwt>
<pdfrwt beam="1">  1        2 0.50392063E+00 0.43160218E+03</pdfrwt>
<pdfrwt beam="2">  1       -2 0.21873507E-02 0.43160218E+03</pdfrwt>
<totfact> 0.93362678E+02</totfact>
</mgrwt>
</event>
<event>
 4    1  0.3145406E-005  0.6386473E+03  0.7818608E-02  0.9828318E-01
          2   -1    0    0  501    0  0.00000000000E+00  0.00000000000E+00  0.22341325507E+04  0.22341325507E+04  0.25500000000E-02 0.  1.
         -2   -1    0    0    0  501 -0.00000000000E+00 -0.00000000000E+00 -0.45640791971E+02  0.45640792043E+02  0.25500000000E-02 0. -1.
    5000001    1    1    2    0    0  0.27271075957E+03 -0.18307165149E+02  0.10727480446E+04  0.11192496048E+04  0.16500000000E+03 0.  0.
   -5000001    1    1    2    0    0 -0.27271075957E+03  0.18307165149E+02  0.11157437141E+04  0.11605237379E+04  0.16500000000E+03 0.  0.
<mgrwt>
<rscale>  0 0.63864725E+03</rscale>
<asrwt>0</asrwt>
<pdfrwt beam="1">  1        2 0.34371268E+00 0.63864725E+03</pdfrwt>
<pdfrwt beam="2">  1       -2 0.70216607E-02 0.63864725E+03</pdfrwt>
<totfact> 0.62148508E+02</totfact>
</mgrwt>
</event>
<event>
 4    1  0.3145406E-005  0.5557316E+03  0.7818608E-02  0.1000176E+00
         -2   -1    0    0    0  501 -0.00000000000E+00  0.00000000000E+00  0.46894081939E+02  0.46894082008E+02  0.25500000000E-02 0. -1.
          2   -1    0    0  501    0  0.00000000000E+00 -0.00000000000E+00 -0.16464634683E+04  0.16464634683E+04  0.25500000000E-02 0.  1.
    5000001    1    1    2    0    0 -0.12977159616E+03 -0.10340808542E+03 -0.34322606912E+03  0.41540707002E+03  0.16500000000E+03 0.  0.
   -5000001    1    1    2    0    0  0.12977159616E+03  0.10340808542E+03 -0.12563433173E+04  0.12779504803E+04  0.16500000000E+03 0.  0.
<mgrwt>
<rscale>  0 0.55573156E+03</rscale>
<asrwt>0</asrwt>
<pdfrwt beam="1">  1        2 0.25330203E+00 0.55573156E+03</pdfrwt>
<pdfrwt beam="2">  1       -2 0.72144754E-02 0.55573156E+03</pdfrwt>
<totfact> 0.12477226E+03</totfact>
</mgrwt>
</event>
<event>
 4    1  0.3145406E-005  0.4744565E+03  0.7818608E-02  0.1020670E+00
          2   -1    0    0  501    0  0.00000000000E+00  0.00000000000E+00  0.19835324534E+04  0.19835324534E+04  0.25500000000E-02 0.  1.
         -2   -1    0    0    0  501 -0.00000000000E+00 -0.00000000000E+00 -0.28372230204E+02  0.28372230318E+02  0.25500000000E-02 0. -1.
    5000001    1    1    2    0    0 -0.14994958087E+03  0.74439680515E+02  0.84174715606E+03  0.87395046632E+03  0.16500000000E+03 0.  0.
   -5000001    1    1    2    0    0  0.14994958087E+03 -0.74439680515E+02  0.11134130671E+04  0.11379542174E+04  0.16500000000E+03 0.  0.
<mgrwt>
<rscale>  0 0.47445649E+03</rscale>
<asrwt>0</asrwt>
<pdfrwt beam="1">  1        2 0.30515888E+00 0.47445649E+03</pdfrwt>
<pdfrwt beam="2">  1       -2 0.43649579E-02 0.47445649E+03</pdfrwt>
<totfact> 0.18024238E+03</totfact>
</mgrwt>
</event>
<event>
 4    1  0.3145406E-005  0.7030697E+03  0.7818608E-02  0.9711997E-01
         -2   -1    0    0    0  501 -0.00000000000E+00  0.00000000000E+00  0.29470427208E+03  0.29470427209E+03  0.25500000000E-02 0. -1.
          2   -1    0    0  501    0  0.00000000000E+00 -0.00000000000E+00 -0.41932462434E+03  0.41932462435E+03  0.25500000000E-02 0.  1.
    5000001    1    1    2    0    0 -0.25863648142E+03 -0.16310893340E+03 -0.11656959683E+03  0.36648441247E+03  0.16500000000E+03 0.  0.
   -5000001    1    1    2    0    0  0.25863648142E+03  0.16310893340E+03 -0.80507554275E+01  0.34754448397E+03  0.16500000000E+03 0.  0.
<mgrwt>
<rscale>  0 0.70306972E+03</rscale>
<asrwt>0</asrwt>
<pdfrwt beam="1">  1        2 0.64511481E-01 0.70306972E+03</pdfrwt>
<pdfrwt beam="2">  1       -2 0.45339119E-01 0.70306972E+03</pdfrwt>
<totfact> 0.35076976E+02</totfact>
</mgrwt>
</event>
<event>
 4    1  0.3145406E-005  0.4741595E+03  0.7818608E-02  0.1020753E+00
          2   -1    0    0  501    0  0.00000000000E+00  0.00000000000E+00  0.13114693652E+04  0.13114693652E+04  0.25500000000E-02 0. -1.
         -2   -1    0    0    0  501 -0.00000000000E+00 -0.00000000000E+00 -0.42857893873E+02  0.42857893949E+02  0.25500000000E-02 0.  1.
    5000001    1    1    2    0    0  0.86451345458E+01 -0.29206646835E+02  0.15589941725E+03  0.22903579386E+03  0.16500000000E+03 0.  0.
   -5000001    1    1    2    0    0 -0.86451345458E+01  0.29206646835E+02  0.11127120541E+04  0.11252914653E+04  0.16500000000E+03 0.  0.
<mgrwt>
<rscale>  0 0.47415953E+03</rscale>
<asrwt>0</asrwt>
<pdfrwt beam="1">  1        2 0.20176452E+00 0.47415953E+03</pdfrwt>
<pdfrwt beam="2">  1       -2 0.65935221E-02 0.47415953E+03</pdfrwt>
<totfact> 0.22069253E+03</totfact>
</mgrwt>
</event>
<event>
 4    1  0.3145406E-005  0.4257457E+03  0.7818608E-02  0.1035212E+00
          2   -1    0    0  501    0  0.00000000000E+00  0.00000000000E+00  0.11125197995E+04  0.11125197995E+04  0.25500000000E-02 0.  1.
         -2   -1    0    0    0  501 -0.00000000000E+00 -0.00000000000E+00 -0.40731719997E+02  0.40731720077E+02  0.25500000000E-02 0. -1.
    5000001    1    1    2    0    0  0.11717360819E+03 -0.36163605102E+02  0.68554978374E+03  0.71571011365E+03  0.16500000000E+03 0.  0.
   -5000001    1    1    2    0    0 -0.11717360819E+03  0.36163605102E+02  0.38623829574E+03  0.43754140591E+03  0.16500000000E+03 0.  0.
<mgrwt>
<rscale>  0 0.42574568E+03</rscale>
<asrwt>0</asrwt>
<pdfrwt beam="1">  1        2 0.17115688E+00 0.42574568E+03</pdfrwt>
<pdfrwt beam="2">  1       -2 0.62664190E-02 0.42574568E+03</pdfrwt>
<totfact> 0.31169014E+03</totfact>
</mgrwt>
</event>
<event>
 4    1  0.3145406E-005  0.3695578E+03  0.7818608E-02  0.1054862E+00
          2   -1    0    0  501    0  0.00000000000E+00  0.00000000000E+00  0.54300145900E+03  0.54300145901E+03  0.25500000000E-02 0.  1.
         -2   -1    0    0    0  501 -0.00000000000E+00 -0.00000000000E+00 -0.62878722071E+02  0.62878722123E+02  0.25500000000E-02 0. -1.
    5000001    1    1    2    0    0  0.74660291376E+02  0.32529671786E+02  0.26778249402E+03  0.32490737566E+03  0.16500000000E+03 0.  0.
   -5000001    1    1    2    0    0 -0.74660291376E+02 -0.32529671786E+02  0.21234024291E+03  0.28097280547E+03  0.16500000000E+03 0.  0.
<mgrwt>
<rscale>  0 0.36955778E+03</rscale>
<asrwt>0</asrwt>
<pdfrwt beam="1">  1        2 0.83538684E-01 0.36955778E+03</pdfrwt>
<pdfrwt beam="2">  1       -2 0.96736498E-02 0.36955778E+03</pdfrwt>
<totfact> 0.39841031E+03</totfact>
</mgrwt>
</event>
<event>
 4    1  0.3145406E-005  0.3898096E+03  0.7818608E-02  0.1047366E+00
         -2   -1    0    0    0  501 -0.00000000000E+00  0.00000000000E+00  0.46634525136E+02  0.46634525205E+02  0.25500000000E-02 0.  1.
          2   -1    0    0  501    0  0.00000000000E+00 -0.00000000000E+00 -0.81458705499E+03  0.81458705499E+03  0.25500000000E-02 0. -1.
    5000001    1    1    2    0    0  0.29446756205E+02  0.95809235058E+02 -0.44310899138E+03  0.48333952789E+03  0.16500000000E+03 0.  0.
   -5000001    1    1    2    0    0 -0.29446756205E+02 -0.95809235058E+02 -0.32484353847E+03  0.37788205231E+03  0.16500000000E+03 0.  0.
<mgrwt>
<rscale>  0 0.38980960E+03</rscale>
<asrwt>0</asrwt>
<pdfrwt beam="1">  1        2 0.12532107E+00 0.38980960E+03</pdfrwt>
<pdfrwt beam="2">  1       -2 0.71745429E-02 0.38980960E+03</pdfrwt>
<totfact> 0.39063092E+03</totfact>
</mgrwt>
</event>
<event>
 4    1  0.3145406E-005  0.5279346E+03  0.7818608E-02  0.1006734E+00
          2   -1    0    0  501    0  0.00000000000E+00  0.00000000000E+00  0.11704181645E+04  0.11704181645E+04  0.25500000000E-02 0.  1.
         -2   -1    0    0    0  501 -0.00000000000E+00 -0.00000000000E+00 -0.59533196608E+02  0.59533196662E+02  0.25500000000E-02 0. -1.
    5000001    1    1    2    0    0 -0.12169324966E+03  0.14038797081E+03  0.76298189585E+03  0.80242407912E+03  0.16500000000E+03 0.  0.
   -5000001    1    1    2    0    0  0.12169324966E+03 -0.14038797081E+03  0.34790307207E+03  0.42752728207E+03  0.16500000000E+03 0.  0.
<mgrwt>
<rscale>  0 0.52793460E+03</rscale>
<asrwt>0</asrwt>
<pdfrwt beam="1">  1        2 0.18006434E+00 0.52793460E+03</pdfrwt>
<pdfrwt beam="2">  1       -2 0.91589530E-02 0.52793460E+03</pdfrwt>
<totfact> 0.15790121E+03</totfact>
</mgrwt>
</event>
<event>
 4    1  0.3145406E-005  0.4514938E+03  0.7818608E-02  0.1027278E+00
         -2   -1    0    0    0  501 -0.00000000000E+00  0.00000000000E+00  0.31614373625E+02  0.31614373728E+02  0.25500000000E-02 0. -1.
          2   -1    0    0  501    0  0.00000000000E+00 -0.00000000000E+00 -0.16119774107E+04  0.16119774107E+04  0.25500000000E-02 0.  1.
    5000001    1    1    2    0    0  0.99816399462E+02 -0.96444682624E+02 -0.10336157930E+04  0.10558652840E+04  0.16500000000E+03 0.  0.
   -5000001    1    1    2    0    0 -0.99816399462E+02  0.96444682624E+02 -0.54674724407E+03  0.58772650043E+03  0.16500000000E+03 0.  0.
<mgrwt>
<rscale>  0 0.45149377E+03</rscale>
<asrwt>0</asrwt>
<pdfrwt beam="1">  1        2 0.24799646E+00 0.45149377E+03</pdfrwt>
<pdfrwt beam="2">  1       -2 0.48637511E-02 0.45149377E+03</pdfrwt>
<totfact> 0.24187469E+03</totfact>
</mgrwt>
</event>
<event>
 4    1  0.3145406E-005  0.5207743E+03  0.7818608E-02  0.1008494E+00
          2   -1    0    0  501    0  0.00000000000E+00  0.00000000000E+00  0.38822655775E+03  0.38822655776E+03  0.25500000000E-02 0.  1.
         -2   -1    0    0    0  501 -0.00000000000E+00 -0.00000000000E+00 -0.17464408126E+03  0.17464408128E+03  0.25500000000E-02 0. -1.
    5000001    1    1    2    0    0 -0.49073951573E+02  0.15270713077E+03 -0.24914285761E+02  0.23145937472E+03  0.16500000000E+03 0.  0.
   -5000001    1    1    2    0    0  0.49073951573E+02 -0.15270713077E+03  0.23849676225E+03  0.33141126432E+03  0.16500000000E+03 0.  0.
<mgrwt>
<rscale>  0 0.52077431E+03</rscale>
<asrwt>0</asrwt>
<pdfrwt beam="1">  1        2 0.59727162E-01 0.52077431E+03</pdfrwt>
<pdfrwt beam="2">  1       -2 0.26868320E-01 0.52077431E+03</pdfrwt>
<totfact> 0.10356650E+03</totfact>
</mgrwt>
</event>
<event>
 4    1  0.3145406E-005  0.4512716E+03  0.7818608E-02  0.1027344E+00
         -2   -1    0    0    0  501 -0.00000000000E+00  0.00000000000E+00  0.96317754379E+02  0.96317754412E+02  0.25500000000E-02 0. -1.
          2   -1    0    0  501    0  0.00000000000E+00 -0.00000000000E+00 -0.52857860245E+03  0.52857860246E+03  0.25500000000E-02 0.  1.
    5000001    1    1    2    0    0 -0.96704252616E+02 -0.11377910219E+03 -0.26774091055E+03  0.34814880691E+03  0.16500000000E+03 0.  0.
   -5000001    1    1    2    0    0  0.96704252616E+02  0.11377910219E+03 -0.16451993753E+03  0.27674754997E+03  0.16500000000E+03 0.  0.
<mgrwt>
<rscale>  0 0.45127155E+03</rscale>
<asrwt>0</asrwt>
<pdfrwt beam="1">  1        2 0.81319783E-01 0.45127155E+03</pdfrwt>
<pdfrwt beam="2">  1       -2 0.14818116E-01 0.45127155E+03</pdfrwt>
<totfact> 0.20535205E+03</totfact>
</mgrwt>
</event>
<event>
 4    1  0.3145406E-005  0.7990980E+03  0.7818608E-02  0.9561324E-01
         -2   -1    0    0    0  501 -0.00000000000E+00  0.00000000000E+00  0.26576753206E+03  0.26576753207E+03  0.25500000000E-02 0. -1.
          2   -1    0    0  501    0  0.00000000000E+00 -0.00000000000E+00 -0.60067305791E+03  0.60067305792E+03  0.25500000000E-02 0.  1.
    5000001    1    1    2    0    0  0.30355552829E+03 -0.14474148197E+03 -0.31815637701E+03  0.49147180549E+03  0.16500000000E+03 0.  0.
   -5000001    1    1    2    0    0 -0.30355552829E+03  0.14474148197E+03 -0.16749148848E+02  0.37496878450E+03  0.16500000000E+03 0.  0.
<mgrwt>
<rscale>  0 0.79909798E+03</rscale>
<asrwt>0</asrwt>
<pdfrwt beam="1">  1        2 0.92411240E-01 0.79909798E+03</pdfrwt>
<pdfrwt beam="2">  1       -2 0.40887313E-01 0.79909798E+03</pdfrwt>
<totfact> 0.28227579E+02</totfact>
</mgrwt>
</event>
<event>
 4    1  0.3145406E-005  0.4947275E+03  0.7818608E-02  0.1015164E+00
         -2   -1    0    0    0  501 -0.00000000000E+00  0.00000000000E+00  0.10201623169E+03  0.10201623173E+03  0.25500000000E-02 0. -1.
          2   -1    0    0  501    0  0.00000000000E+00 -0.00000000000E+00 -0.59979507095E+03  0.59979507095E+03  0.25500000000E-02 0.  1.
    5000001    1    1    2    0    0 -0.16138242343E+03 -0.88991731164E+02 -0.24908043906E+03  0.35104113709E+03  0.16500000000E+03 0.  0.
   -5000001    1    1    2    0    0  0.16138242343E+03  0.88991731164E+02 -0.24869840019E+03  0.35077016559E+03  0.16500000000E+03 0.  0.
<mgrwt>
<rscale>  0 0.49472753E+03</rscale>
<asrwt>0</asrwt>
<pdfrwt beam="1">  1        2 0.92276163E-01 0.49472753E+03</pdfrwt>
<pdfrwt beam="2">  1       -2 0.15694805E-01 0.49472753E+03</pdfrwt>
<totfact> 0.16088491E+03</totfact>
</mgrwt>
</event>
<event>
 4    1  0.3145406E-005  0.6667331E+03  0.7818608E-02  0.9775878E-01
         -2   -1    0    0    0  501 -0.00000000000E+00  0.00000000000E+00  0.10114533191E+03  0.10114533194E+03  0.25500000000E-02 0. -1.
          2   -1    0    0  501    0  0.00000000000E+00 -0.00000000000E+00 -0.10987483489E+04  0.10987483489E+04  0.25500000000E-02 0.  1.
    5000001    1    1    2    0    0 -0.22170414545E+03  0.17960550840E+03 -0.58873775494E+03  0.67472069099E+03  0.16500000000E+03 0.  0.
   -5000001    1    1    2    0    0  0.22170414545E+03 -0.17960550840E+03 -0.40886526206E+03  0.52517298986E+03  0.16500000000E+03 0.  0.
<mgrwt>
<rscale>  0 0.66673313E+03</rscale>
<asrwt>0</asrwt>
<pdfrwt beam="1">  1        2 0.16903820E+00 0.66673313E+03</pdfrwt>
<pdfrwt beam="2">  1       -2 0.15560821E-01 0.66673313E+03</pdfrwt>
<totfact> 0.72478949E+02</totfact>
</mgrwt>
</event>
<event>
 4    1  0.3145406E-005  0.4859774E+03  0.7818608E-02  0.1017505E+00
          2   -1    0    0  501    0  0.00000000000E+00  0.00000000000E+00  0.23295919904E+03  0.23295919905E+03  0.25500000000E-02 0.  1.
         -2   -1    0    0    0  501 -0.00000000000E+00 -0.00000000000E+00 -0.25344994944E+03  0.25344994945E+03  0.25500000000E-02 0. -1.
    5000001    1    1    2    0    0 -0.16927636843E+03 -0.49748643580E+02 -0.36519046965E+02  0.24431139400E+03  0.16500000000E+03 0.  0.
   -5000001    1    1    2    0    0  0.16927636843E+03  0.49748643580E+02  0.16028296562E+02  0.24209775451E+03  0.16500000000E+03 0.  0.
<mgrwt>
<rscale>  0 0.48597735E+03</rscale>
<asrwt>0</asrwt>
<pdfrwt beam="1">  1        2 0.35839877E-01 0.48597735E+03</pdfrwt>
<pdfrwt beam="2">  1       -2 0.38992300E-01 0.48597735E+03</pdfrwt>
<totfact> 0.90761945E+02</totfact>
</mgrwt>
</event>
<event>
 4    1  0.3145406E-005  0.4061459E+03  0.7818608E-02  0.1041672E+00
         -2   -1    0    0    0  501 -0.00000000000E+00  0.00000000000E+00  0.28152499729E+02  0.28152499844E+02  0.25500000000E-02 0. -1.
          2   -1    0    0  501    0  0.00000000000E+00 -0.00000000000E+00 -0.14648297372E+04  0.14648297372E+04  0.25500000000E-02 0.  1.
    5000001    1    1    2    0    0  0.27575960639E+02 -0.10457007893E+03 -0.54134569868E+03  0.57617315148E+03  0.16500000000E+03 0.  0.
   -5000001    1    1    2    0    0 -0.27575960639E+02  0.10457007893E+03 -0.89533153880E+03  0.91680908557E+03  0.16500000000E+03 0.  0.
<mgrwt>
<rscale>  0 0.40614588E+03</rscale>
<asrwt>0</asrwt>
<pdfrwt beam="1">  1        2 0.22535836E+00 0.40614588E+03</pdfrwt>
<pdfrwt beam="2">  1       -2 0.43311550E-02 0.40614588E+03</pdfrwt>
<totfact> 0.34762808E+03</totfact>
</mgrwt>
</event>
<event>
 4    1  0.3145406E-005  0.6843838E+03  0.7818608E-02  0.9744317E-01
          2   -1    0    0  501    0  0.00000000000E+00  0.00000000000E+00  0.10890346671E+03  0.10890346674E+03  0.25500000000E-02 0.  1.
         -2   -1    0    0    0  501 -0.00000000000E+00 -0.00000000000E+00 -0.10752208689E+04  0.10752208689E+04  0.25500000000E-02 0. -1.
    5000001    1    1    2    0    0 -0.14644953205E+03  0.16841934917E+03 -0.13686800430E+03  0.30946791952E+03  0.16500000000E+03 0.  0.
   -5000001    1    1    2    0    0  0.14644953205E+03 -0.16841934917E+03 -0.82944939791E+03  0.87465641614E+03  0.16500000000E+03 0.  0.
<mgrwt>
<rscale>  0 0.68438375E+03</rscale>
<asrwt>0</asrwt>
<pdfrwt beam="1">  1        2 0.16754380E-01 0.68438375E+03</pdfrwt>
<pdfrwt beam="2">  1       -2 0.16541859E+00 0.68438375E+03</pdfrwt>
<totfact> 0.81905793E+01</totfact>
</mgrwt>
</event>
<event>
 4    1  0.3145406E-005  0.4895138E+03  0.7818608E-02  0.1016553E+00
          2   -1    0    0  501    0  0.00000000000E+00  0.00000000000E+00  0.10108816845E+04  0.10108816845E+04  0.25500000000E-02 0.  1.
         -2   -1    0    0    0  501 -0.00000000000E+00 -0.00000000000E+00 -0.59261077537E+02  0.59261077592E+02  0.25500000000E-02 0. -1.
    5000001    1    1    2    0    0 -0.90098890287E+02  0.13476722136E+03  0.65071365021E+03  0.69060355382E+03  0.16500000000E+03 0.  0.
   -5000001    1    1    2    0    0  0.90098890287E+02 -0.13476722136E+03  0.30090695670E+03  0.37953920822E+03  0.16500000000E+03 0.  0.
<mgrwt>
<rscale>  0 0.48951379E+03</rscale>
<asrwt>0</asrwt>
<pdfrwt beam="1">  1        2 0.15552024E+00 0.48951379E+03</pdfrwt>
<pdfrwt beam="2">  1       -2 0.91170899E-02 0.48951379E+03</pdfrwt>
<totfact> 0.19885203E+03</totfact>
</mgrwt>
</event>
<event>
 4    1  0.3145406E-005  0.5469591E+03  0.7818608E-02  0.1002200E+00
          2   -1    0    0  501    0  0.00000000000E+00  0.00000000000E+00  0.55966023266E+03  0.55966023267E+03  0.25500000000E-02 0.  1.
         -2   -1    0    0    0  501 -0.00000000000E+00 -0.00000000000E+00 -0.13363656960E+03  0.13363656962E+03  0.25500000000E-02 0. -1.
    5000001    1    1    2    0    0  0.15537486225E+03 -0.14794378250E+03  0.26271139059E+03  0.37718826247E+03  0.16500000000E+03 0.  0.
   -5000001    1    1    2    0    0 -0.15537486225E+03  0.14794378250E+03  0.16331227247E+03  0.31610853981E+03  0.16500000000E+03 0.  0.
<mgrwt>
<rscale>  0 0.54695913E+03</rscale>
<asrwt>0</asrwt>
<pdfrwt beam="1">  1        2 0.86101573E-01 0.54695913E+03</pdfrwt>
<pdfrwt beam="2">  1       -2 0.20559473E-01 0.54695913E+03</pdfrwt>
<totfact> 0.10988971E+03</totfact>
</mgrwt>
</event>
<event>
 4    1  0.3145406E-005  0.4120860E+03  0.7818608E-02  0.1039673E+00
         -2   -1    0    0    0  501 -0.00000000000E+00  0.00000000000E+00  0.42728733378E+02  0.42728733454E+02  0.25500000000E-02 0. -1.
          2   -1    0    0  501    0  0.00000000000E+00 -0.00000000000E+00 -0.99356346900E+03  0.99356346900E+03  0.25500000000E-02 0.  1.
    5000001    1    1    2    0    0  0.35665263346E+02  0.84336616040E+02 -0.26737563709E+03  0.32726045762E+03  0.16500000000E+03 0.  0.
   -5000001    1    1    2    0    0 -0.35665263346E+02 -0.84336616040E+02 -0.68345909853E+03  0.70903174483E+03  0.16500000000E+03 0.  0.
<mgrwt>
<rscale>  0 0.41208596E+03</rscale>
<asrwt>0</asrwt>
<pdfrwt beam="1">  1        2 0.15285590E+00 0.41208596E+03</pdfrwt>
<pdfrwt beam="2">  1       -2 0.65736520E-02 0.41208596E+03</pdfrwt>
<totfact> 0.34184416E+03</totfact>
</mgrwt>
</event>
<event>
 4    1  0.3145406E-005  0.5747341E+03  0.7818608E-02  0.9959257E-01
          2   -1    0    0  501    0  0.00000000000E+00  0.00000000000E+00  0.13559534107E+04  0.13559534107E+04  0.25500000000E-02 0.  1.
         -2   -1    0    0    0  501 -0.00000000000E+00 -0.00000000000E+00 -0.60901655289E+02  0.60901655343E+02  0.25500000000E-02 0. -1.
    5000001    1    1    2    0    0  0.21434055623E+03  0.88504521807E+02  0.74551343640E+03  0.79799135853E+03  0.16500000000E+03 0.  0.
   -5000001    1    1    2    0    0 -0.21434055623E+03 -0.88504521807E+02  0.54953831902E+03  0.61886370753E+03  0.16500000000E+03 0.  0.
<mgrwt>
<rscale>  0 0.57473405E+03</rscale>
<asrwt>0</asrwt>
<pdfrwt beam="1">  1        2 0.20860819E+00 0.57473405E+03</pdfrwt>
<pdfrwt beam="2">  1       -2 0.93694865E-02 0.57473405E+03</pdfrwt>
<totfact> 0.11885940E+03</totfact>
</mgrwt>
</event>
<event>
 4    1  0.3145406E-005  0.4319525E+03  0.7818608E-02  0.1033245E+00
         -2   -1    0    0    0  501 -0.00000000000E+00  0.00000000000E+00  0.14748733721E+03  0.14748733723E+03  0.25500000000E-02 0. -1.
          2   -1    0    0  501    0  0.00000000000E+00 -0.00000000000E+00 -0.31626943553E+03  0.31626943554E+03  0.25500000000E-02 0.  1.
    5000001    1    1    2    0    0 -0.13622329283E+03  0.10328509488E+02 -0.11393581868E+03  0.24263106643E+03  0.16500000000E+03 0.  0.
   -5000001    1    1    2    0    0  0.13622329283E+03 -0.10328509488E+02 -0.54846279636E+02  0.22112570635E+03  0.16500000000E+03 0.  0.
<mgrwt>
<rscale>  0 0.43195248E+03</rscale>
<asrwt>0</asrwt>
<pdfrwt beam="1">  1        2 0.48656836E-01 0.43195248E+03</pdfrwt>
<pdfrwt beam="2">  1       -2 0.22690360E-01 0.43195248E+03</pdfrwt>
<totfact> 0.17538096E+03</totfact>
</mgrwt>
</event>
<event>
 4    1  0.3145406E-005  0.3802479E+03  0.7818608E-02  0.1050842E+00
         -2   -1    0    0    0  501 -0.00000000000E+00  0.00000000000E+00  0.20422699132E+02  0.20422699291E+02  0.25500000000E-02 0. -1.
          2   -1    0    0  501    0  0.00000000000E+00 -0.00000000000E+00 -0.17699476401E+04  0.17699476401E+04  0.25500000000E-02 0.  1.
    5000001    1    1    2    0    0  0.25507431504E+02 -0.78306633460E+02 -0.10925521804E+04  0.11080062386E+04  0.16500000000E+03 0.  0.
   -5000001    1    1    2    0    0 -0.25507431504E+02  0.78306633460E+02 -0.65697276055E+03  0.68236410076E+03  0.16500000000E+03 0.  0.
<mgrwt>
<rscale>  0 0.38024786E+03</rscale>
<asrwt>0</asrwt>
<pdfrwt beam="1">  1        2 0.27229952E+00 0.38024786E+03</pdfrwt>
<pdfrwt beam="2">  1       -2 0.31419551E-02 0.38024786E+03</pdfrwt>
<totfact> 0.38760173E+03</totfact>
</mgrwt>
</event>
<event>
 4    1  0.3145406E-005  0.1139491E+04  0.7818608E-02  0.9167533E-01
          2   -1    0    0  501    0  0.00000000000E+00  0.00000000000E+00  0.16809396039E+04  0.16809396039E+04  0.25500000000E-02 0.  1.
         -2   -1    0    0    0  501 -0.00000000000E+00 -0.00000000000E+00 -0.19311225523E+03  0.19311225525E+03  0.25500000000E-02 0. -1.
    5000001    1    1    2    0    0  0.37499581414E+03  0.22523683200E+03  0.12794490753E+04  0.13621925075E+04  0.16500000000E+03 0.  0.
   -5000001    1    1    2    0    0 -0.37499581414E+03 -0.22523683200E+03  0.20837827340E+03  0.51185935171E+03  0.16500000000E+03 0.  0.
<mgrwt>
<rscale>  0 0.11394912E+04</rscale>
<asrwt>0</asrwt>
<pdfrwt beam="1">  1        2 0.25860609E+00 0.11394912E+04</pdfrwt>
<pdfrwt beam="2">  1       -2 0.29709578E-01 0.11394912E+04</pdfrwt>
<totfact> 0.10392743E+02</totfact>
</mgrwt>
</event>
<event>
 4    1  0.3145406E-005  0.5205134E+03  0.7818608E-02  0.1008559E+00
         -2   -1    0    0    0  501 -0.00000000000E+00  0.00000000000E+00  0.28203302326E+03  0.28203302327E+03  0.25500000000E-02 0. -1.
          2   -1    0    0  501    0  0.00000000000E+00 -0.00000000000E+00 -0.24016177006E+03  0.24016177008E+03  0.25500000000E-02 0.  1.
    5000001    1    1    2    0    0  0.81882413801E+02 -0.98170429346E+02 -0.13502195321E+03  0.24859221777E+03  0.16500000000E+03 0.  0.
   -5000001    1    1    2    0    0 -0.81882413801E+02  0.98170429346E+02  0.17689320641E+03  0.27360257557E+03  0.16500000000E+03 0.  0.
<mgrwt>
<rscale>  0 0.52051340E+03</rscale>
<asrwt>0</asrwt>
<pdfrwt beam="1">  1        2 0.36947965E-01 0.52051340E+03</pdfrwt>
<pdfrwt beam="2">  1       -2 0.43389696E-01 0.52051340E+03</pdfrwt>
<totfact> 0.71273504E+02</totfact>
</mgrwt>
</event>
<event>
 4    1  0.3145406E-005  0.4348785E+03  0.7818608E-02  0.1032330E+00
         -2   -1    0    0    0  501 -0.00000000000E+00  0.00000000000E+00  0.10080091808E+03  0.10080091811E+03  0.25500000000E-02 0. -1.
          2   -1    0    0  501    0  0.00000000000E+00 -0.00000000000E+00 -0.46904174259E+03  0.46904174260E+03  0.25500000000E-02 0.  1.
    5000001    1    1    2    0    0  0.61747885748E+01 -0.13337362499E+03 -0.12226713233E+03  0.24495081854E+03  0.16500000000E+03 0.  0.
   -5000001    1    1    2    0    0 -0.61747885748E+01  0.13337362499E+03 -0.24597369218E+03  0.32489184216E+03  0.16500000000E+03 0.  0.
<mgrwt>
<rscale>  0 0.43487855E+03</rscale>
<asrwt>0</asrwt>
<pdfrwt beam="1">  1        2 0.72160267E-01 0.43487855E+03</pdfrwt>
<pdfrwt beam="2">  1       -2 0.15507834E-01 0.43487855E+03</pdfrwt>
<totfact> 0.21799727E+03</totfact>
</mgrwt>
</event>
<event>
 4    1  0.3145406E-005  0.3509791E+03  0.7818608E-02  0.1062214E+00
         -2   -1    0    0    0  501 -0.00000000000E+00  0.00000000000E+00  0.57364541138E+02  0.57364541195E+02  0.25500000000E-02 0. -1.
          2   -1    0    0  501    0  0.00000000000E+00 -0.00000000000E+00 -0.53685754747E+03  0.53685754748E+03  0.25500000000E-02 0.  1.
    5000001    1    1    2    0    0 -0.28284434897E+02  0.33560046815E+02 -0.17107284726E+03  0.24169651439E+03  0.16500000000E+03 0.  0.
   -5000001    1    1    2    0    0  0.28284434897E+02 -0.33560046815E+02 -0.30842015908E+03  0.35252557428E+03  0.16500000000E+03 0.  0.
<mgrwt>
<rscale>  0 0.35097913E+03</rscale>
<asrwt>0</asrwt>
<pdfrwt beam="1">  1        2 0.82593466E-01 0.35097913E+03</pdfrwt>
<pdfrwt beam="2">  1       -2 0.88253144E-02 0.35097913E+03</pdfrwt>
<totfact> 0.46664558E+03</totfact>
</mgrwt>
</event>
<event>
 4    1  0.3145406E-005  0.3685475E+03  0.7818608E-02  0.1055250E+00
          2   -1    0    0  501    0  0.00000000000E+00  0.00000000000E+00  0.49330798221E+03  0.49330798221E+03  0.25500000000E-02 0.  1.
         -2   -1    0    0    0  501 -0.00000000000E+00 -0.00000000000E+00 -0.68834912573E+02  0.68834912621E+02  0.25500000000E-02 0. -1.
    5000001    1    1    2    0    0 -0.48375889263E+02  0.64336197377E+02  0.18800218322E+03  0.26277213294E+03  0.16500000000E+03 0.  0.
   -5000001    1    1    2    0    0  0.48375889263E+02 -0.64336197377E+02  0.23647088641E+03  0.29937076189E+03  0.16500000000E+03 0.  0.
<mgrwt>
<rscale>  0 0.36854748E+03</rscale>
<asrwt>0</asrwt>
<pdfrwt beam="1">  1        2 0.75893537E-01 0.36854748E+03</pdfrwt>
<pdfrwt beam="2">  1       -2 0.10589986E-01 0.36854748E+03</pdfrwt>
<totfact> 0.38438732E+03</totfact>
</mgrwt>
</event>
<event>
 4    1  0.3145406E-005  0.5044333E+03  0.7818608E-02  0.1012628E+00
          2   -1    0    0  501    0  0.00000000000E+00  0.00000000000E+00  0.20769941128E+03  0.20769941130E+03  0.25500000000E-02 0.  1.
         -2   -1    0    0    0  501 -0.00000000000E+00 -0.00000000000E+00 -0.30627544180E+03  0.30627544181E+03  0.25500000000E-02 0. -1.
    5000001    1    1    2    0    0  0.61993024103E+02  0.49013385534E+02 -0.22618882513E+03  0.29091550597E+03  0.16500000000E+03 0.  0.
   -5000001    1    1    2    0    0 -0.61993024103E+02 -0.49013385534E+02  0.12761279461E+03  0.22305934714E+03  0.16500000000E+03 0.  0.
<mgrwt>
<rscale>  0 0.50443326E+03</rscale>
<asrwt>0</asrwt>
<pdfrwt beam="1">  1        2 0.31953756E-01 0.50443326E+03</pdfrwt>
<pdfrwt beam="2">  1       -2 0.47119299E-01 0.50443326E+03</pdfrwt>
<totfact> 0.71123716E+02</totfact>
</mgrwt>
</event>
<event>
 4    1  0.3145406E-005  0.5043486E+03  0.7818608E-02  0.1012650E+00
          2   -1    0    0  501    0  0.00000000000E+00  0.00000000000E+00  0.29611244810E+03  0.29611244811E+03  0.25500000000E-02 0.  1.
         -2   -1    0    0    0  501 -0.00000000000E+00 -0.00000000000E+00 -0.21475584951E+03  0.21475584953E+03  0.25500000000E-02 0. -1.
    5000001    1    1    2    0    0 -0.13986846771E+03 -0.44098317578E+02  0.16415168608E+03  0.27509748438E+03  0.16500000000E+03 0.  0.
   -5000001    1    1    2    0    0  0.13986846771E+03  0.44098317578E+02 -0.82795087488E+02  0.23577081326E+03  0.16500000000E+03 0.  0.
<mgrwt>
<rscale>  0 0.50434861E+03</rscale>
<asrwt>0</asrwt>
<pdfrwt beam="1">  1        2 0.45555761E-01 0.50434861E+03</pdfrwt>
<pdfrwt beam="2">  1       -2 0.33039361E-01 0.50434861E+03</pdfrwt>
<totfact> 0.95445308E+02</totfact>
</mgrwt>
</event>
<event>
 4    1  0.3145406E-005  0.8689889E+03  0.7818608E-02  0.9465199E-01
         -2   -1    0    0    0  501 -0.00000000000E+00  0.00000000000E+00  0.14099059810E+03  0.14099059813E+03  0.25500000000E-02 0. -1.
          2   -1    0    0  501    0  0.00000000000E+00 -0.00000000000E+00 -0.13389929660E+04  0.13389929660E+04  0.25500000000E-02 0.  1.
    5000001    1    1    2    0    0 -0.61625291771E+01 -0.38429574339E+03 -0.79935542587E+03  0.90217254005E+03  0.16500000000E+03 0.  0.
   -5000001    1    1    2    0    0  0.61625291771E+01  0.38429574339E+03 -0.39864694202E+03  0.57781102407E+03  0.16500000000E+03 0.  0.
<mgrwt>
<rscale>  0 0.86898888E+03</rscale>
<asrwt>0</asrwt>
<pdfrwt beam="1">  1        2 0.20599891E+00 0.86898888E+03</pdfrwt>
<pdfrwt beam="2">  1       -2 0.21690862E-01 0.86898888E+03</pdfrwt>
<totfact> 0.29134570E+02</totfact>
</mgrwt>
</event>
<event>
 4    1  0.3145406E-005  0.8324267E+03  0.7818608E-02  0.9514232E-01
         -2   -1    0    0    0  501 -0.00000000000E+00  0.00000000000E+00  0.10376536983E+03  0.10376536986E+03  0.25500000000E-02 0. -1.
          2   -1    0    0  501    0  0.00000000000E+00 -0.00000000000E+00 -0.16694735584E+04  0.16694735584E+04  0.25500000000E-02 0.  1.
    5000001    1    1    2    0    0 -0.21353481807E+03  0.20380373877E+03 -0.12997325395E+04  0.13430051216E+04  0.16500000000E+03 0.  0.
   -5000001    1    1    2    0    0  0.21353481807E+03 -0.20380373877E+03 -0.26597564903E+03  0.43023380660E+03  0.16500000000E+03 0.  0.
<mgrwt>
<rscale>  0 0.83242667E+03</rscale>
<asrwt>0</asrwt>
<pdfrwt beam="1">  1        2 0.25684207E+00 0.83242667E+03</pdfrwt>
<pdfrwt beam="2">  1       -2 0.15963904E-01 0.83242667E+03</pdfrwt>
<totfact> 0.32483196E+02</totfact>
</mgrwt>
</event>
<event>
 4    1  0.3145406E-005  0.6149085E+03  0.7818608E-02  0.9874949E-01
          2   -1    0    0  501    0  0.00000000000E+00  0.00000000000E+00  0.21699650387E+03  0.21699650388E+03  0.25500000000E-02 0.  1.
         -2   -1    0    0    0  501 -0.00000000000E+00 -0.00000000000E+00 -0.43562046235E+03  0.43562046236E+03  0.25500000000E-02 0. -1.
    5000001    1    1    2    0    0  0.20198052437E+03 -0.13999277411E+03 -0.21094281795E+02  0.29675592286E+03  0.16500000000E+03 0.  0.
   -5000001    1    1    2    0    0 -0.20198052437E+03  0.13999277411E+03 -0.19752967669E+03  0.35586104338E+03  0.16500000000E+03 0.  0.
<mgrwt>
<rscale>  0 0.61490850E+03</rscale>
<asrwt>0</asrwt>
<pdfrwt beam="1">  1        2 0.33384078E-01 0.61490850E+03</pdfrwt>
<pdfrwt beam="2">  1       -2 0.67018533E-01 0.61490850E+03</pdfrwt>
<totfact> 0.32567756E+02</totfact>
</mgrwt>
</event>
<event>
 4    1  0.3145406E-005  0.1545950E+04  0.7818608E-02  0.8854459E-01
         -2   -1    0    0    0  501 -0.00000000000E+00  0.00000000000E+00  0.68620492237E+03  0.68620492238E+03  0.25500000000E-02 0. -1.
          2   -1    0    0  501    0  0.00000000000E+00 -0.00000000000E+00 -0.87071705571E+03  0.87071705571E+03  0.25500000000E-02 0.  1.
    5000001    1    1    2    0    0 -0.24923944087E+03 -0.64203237648E+03 -0.40419533154E+03  0.81542917374E+03  0.16500000000E+03 0.  0.
   -5000001    1    1    2    0    0  0.24923944087E+03  0.64203237648E+03  0.21968319820E+03  0.74149280436E+03  0.16500000000E+03 0.  0.
<mgrwt>
<rscale>  0 0.15459500E+04</rscale>
<asrwt>0</asrwt>
<pdfrwt beam="1">  1        2 0.13395647E+00 0.15459500E+04</pdfrwt>
<pdfrwt beam="2">  1       -2 0.10556999E+00 0.15459500E+04</pdfrwt>
<totfact> 0.21454858E+01</totfact>
</mgrwt>
</event>
<event>
 4    1  0.3145406E-005  0.7693479E+03  0.7818608E-02  0.9605476E-01
          2   -1    0    0  501    0  0.00000000000E+00  0.00000000000E+00  0.14676467475E+04  0.14676467475E+04  0.25500000000E-02 0. -1.
         -2   -1    0    0    0  501 -0.00000000000E+00 -0.00000000000E+00 -0.10082402350E+03  0.10082402353E+03  0.25500000000E-02 0.  1.
    5000001    1    1    2    0    0 -0.18529779146E+03  0.26641269225E+03  0.43010274683E+03  0.56349300523E+03  0.16500000000E+03 0.  0.
   -5000001    1    1    2    0    0  0.18529779146E+03 -0.26641269225E+03  0.93671997712E+03  0.10049777657E+04  0.16500000000E+03 0.  0.
<mgrwt>
<rscale>  0 0.76934791E+03</rscale>
<asrwt>0</asrwt>
<pdfrwt beam="1">  1        2 0.22579181E+00 0.76934791E+03</pdfrwt>
<pdfrwt beam="2">  1       -2 0.15511388E-01 0.76934791E+03</pdfrwt>
<totfact> 0.44300138E+02</totfact>
</mgrwt>
</event>
<event>
 4    1  0.3145406E-005  0.6351005E+03  0.7818608E-02  0.9835146E-01
         -2   -1    0    0    0  501 -0.00000000000E+00  0.00000000000E+00  0.13631702938E+03  0.13631702940E+03  0.25500000000E-02 0. -1.
          2   -1    0    0  501    0  0.00000000000E+00 -0.00000000000E+00 -0.73973262257E+03  0.73973262258E+03  0.25500000000E-02 0.  1.
    5000001    1    1    2    0    0  0.21179924400E+03 -0.15881084855E+03 -0.38370131204E+03  0.49450126616E+03  0.16500000000E+03 0.  0.
   -5000001    1    1    2    0    0 -0.21179924400E+03  0.15881084855E+03 -0.21971428116E+03  0.38154838582E+03  0.16500000000E+03 0.  0.
<mgrwt>
<rscale>  0 0.63510048E+03</rscale>
<asrwt>0</asrwt>
<pdfrwt beam="1">  1        2 0.11380502E+00 0.63510048E+03</pdfrwt>
<pdfrwt beam="2">  1       -2 0.20971851E-01 0.63510048E+03</pdfrwt>
<totfact> 0.75349334E+02</totfact>
</mgrwt>
</event>
<event>
 4    1  0.3145406E-005  0.5641633E+03  0.7818608E-02  0.9982678E-01
         -2   -1    0    0    0  501 -0.00000000000E+00  0.00000000000E+00  0.80968326181E+02  0.80968326221E+02  0.25500000000E-02 0. -1.
          2   -1    0    0  501    0  0.00000000000E+00 -0.00000000000E+00 -0.98273053304E+03  0.98273053304E+03  0.25500000000E-02 0.  1.
    5000001    1    1    2    0    0  0.51713392819E+02 -0.21381505333E+03 -0.33232431611E+03  0.43134163155E+03  0.16500000000E+03 0.  0.
   -5000001    1    1    2    0    0 -0.51713392819E+02  0.21381505333E+03 -0.56943789075E+03  0.63235722772E+03  0.16500000000E+03 0.  0.
<mgrwt>
<rscale>  0 0.56416326E+03</rscale>
<asrwt>0</asrwt>
<pdfrwt beam="1">  1        2 0.15118930E+00 0.56416326E+03</pdfrwt>
<pdfrwt beam="2">  1       -2 0.12456666E-01 0.56416326E+03</pdfrwt>
<totfact> 0.12456505E+03</totfact>
</mgrwt>
</event>
<event>
 4    1  0.3145406E-005  0.1224579E+04  0.7818608E-02  0.9091611E-01
         -2   -1    0    0    0  501 -0.00000000000E+00  0.00000000000E+00  0.47095284343E+03  0.47095284344E+03  0.25500000000E-02 0. -1.
          2   -1    0    0  501    0  0.00000000000E+00 -0.00000000000E+00 -0.79604192027E+03  0.79604192028E+03  0.25500000000E-02 0.  1.
    5000001    1    1    2    0    0  0.37230279732E+03 -0.41885063082E+03 -0.35227564803E+03  0.68217912312E+03  0.16500000000E+03 0.  0.
   -5000001    1    1    2    0    0 -0.37230279732E+03  0.41885063082E+03  0.27186571190E+02  0.58481564059E+03  0.16500000000E+03 0.  0.
<mgrwt>
<rscale>  0 0.12245786E+04</rscale>
<asrwt>0</asrwt>
<pdfrwt beam="1">  1        2 0.12246799E+00 0.12245786E+04</pdfrwt>
<pdfrwt beam="2">  1       -2 0.72454284E-01 0.12245786E+04</pdfrwt>
<totfact> 0.58901556E+01</totfact>
</mgrwt>
</event>
<event>
 4    1  0.3145406E-005  0.4386779E+03  0.7818608E-02  0.1031153E+00
         -2   -1    0    0    0  501 -0.00000000000E+00  0.00000000000E+00  0.73143752034E+02  0.73143752078E+02  0.25500000000E-02 0. -1.
          2   -1    0    0  501    0  0.00000000000E+00 -0.00000000000E+00 -0.65774001182E+03  0.65774001182E+03  0.25500000000E-02 0.  1.
    5000001    1    1    2    0    0  0.16772841411E+01  0.14324483704E+03 -0.26056873324E+03  0.34006317260E+03  0.16500000000E+03 0.  0.
   -5000001    1    1    2    0    0 -0.16772841411E+01 -0.14324483704E+03 -0.32402752655E+03  0.39082059130E+03  0.16500000000E+03 0.  0.
<mgrwt>
<rscale>  0 0.43867789E+03</rscale>
<asrwt>0</asrwt>
<pdfrwt beam="1">  1        2 0.10119077E+00 0.43867789E+03</pdfrwt>
<pdfrwt beam="2">  1       -2 0.11252885E-01 0.43867789E+03</pdfrwt>
<totfact> 0.24957181E+03</totfact>
</mgrwt>
</event>
<event>
 4    1  0.3145406E-005  0.4558741E+03  0.7818608E-02  0.1025985E+00
         -2   -1    0    0    0  501 -0.00000000000E+00  0.00000000000E+00  0.10460459764E+03  0.10460459767E+03  0.25500000000E-02 0. -1.
          2   -1    0    0  501    0  0.00000000000E+00 -0.00000000000E+00 -0.49668272613E+03  0.49668272613E+03  0.25500000000E-02 0.  1.
    5000001    1    1    2    0    0  0.13592581829E+03  0.71556269685E+02 -0.15161932456E+03  0.27167912579E+03  0.16500000000E+03 0.  0.
   -5000001    1    1    2    0    0 -0.13592581829E+03 -0.71556269685E+02 -0.24045880393E+03  0.32960819801E+03  0.16500000000E+03 0.  0.
<mgrwt>
<rscale>  0 0.45587409E+03</rscale>
<asrwt>0</asrwt>
<pdfrwt beam="1">  1        2 0.76412726E-01 0.45587409E+03</pdfrwt>
<pdfrwt beam="2">  1       -2 0.16093015E-01 0.45587409E+03</pdfrwt>
<totfact> 0.19201875E+03</totfact>
</mgrwt>
</event>
<event>
 4    1  0.3145406E-005  0.4800053E+03  0.7818608E-02  0.1019134E+00
         -2   -1    0    0    0  501 -0.00000000000E+00  0.00000000000E+00  0.93572827032E+03  0.93572827033E+03  0.25500000000E-02 0. -1.
          2   -1    0    0  501    0  0.00000000000E+00 -0.00000000000E+00 -0.61557687688E+02  0.61557687741E+02  0.25500000000E-02 0.  1.
    5000001    1    1    2    0    0  0.90399818562E+02  0.14655067124E+03  0.49310663205E+03  0.54774846144E+03  0.16500000000E+03 0.  0.
   -5000001    1    1    2    0    0 -0.90399818562E+02 -0.14655067124E+03  0.38106395058E+03  0.44953749662E+03  0.16500000000E+03 0.  0.
<mgrwt>
<rscale>  0 0.48000529E+03</rscale>
<asrwt>0</asrwt>
<pdfrwt beam="1">  1        2 0.94704136E-02 0.48000529E+03</pdfrwt>
<pdfrwt beam="2">  1       -2 0.14395819E+00 0.48000529E+03</pdfrwt>
<totfact> 0.24183905E+02</totfact>
</mgrwt>
</event>
<event>
 4    1  0.3145406E-005  0.3820591E+03  0.7818608E-02  0.1050175E+00
          2   -1    0    0  501    0  0.00000000000E+00  0.00000000000E+00  0.16820668114E+04  0.16820668114E+04  0.25500000000E-02 0.  1.
         -2   -1    0    0    0  501 -0.00000000000E+00 -0.00000000000E+00 -0.21694910073E+02  0.21694910222E+02  0.25500000000E-02 0. -1.
    5000001    1    1    2    0    0  0.30714225553E+02 -0.89835095572E+02  0.75917324488E+03  0.78267664064E+03  0.16500000000E+03 0.  0.
   -5000001    1    1    2    0    0 -0.30714225553E+02  0.89835095572E+02  0.90119865648E+03  0.92108508103E+03  0.16500000000E+03 0.  0.
<mgrwt>
<rscale>  0 0.38205910E+03</rscale>
<asrwt>0</asrwt>
<pdfrwt beam="1">  1        2 0.25877948E+00 0.38205910E+03</pdfrwt>
<pdfrwt beam="2">  1       -2 0.33376789E-02 0.38205910E+03</pdfrwt>
<totfact> 0.39416971E+03</totfact>
</mgrwt>
</event>
<event>
 4    1  0.3145406E-005  0.4273291E+03  0.7818608E-02  0.1034707E+00
          2   -1    0    0  501    0  0.00000000000E+00  0.00000000000E+00  0.42774629199E+03  0.42774629200E+03  0.25500000000E-02 0.  1.
         -2   -1    0    0    0  501 -0.00000000000E+00 -0.00000000000E+00 -0.10672810328E+03  0.10672810331E+03  0.25500000000E-02 0. -1.
    5000001    1    1    2    0    0  0.56833154080E+02 -0.87784699072E+02  0.52254688784E+02  0.20221699556E+03  0.16500000000E+03 0.  0.
   -5000001    1    1    2    0    0 -0.56833154080E+02  0.87784699072E+02  0.26876349992E+03  0.33225739974E+03  0.16500000000E+03 0.  0.
<mgrwt>
<rscale>  0 0.42732915E+03</rscale>
<asrwt>0</asrwt>
<pdfrwt beam="1">  1        2 0.65807121E-01 0.42732915E+03</pdfrwt>
<pdfrwt beam="2">  1       -2 0.16419708E-01 0.42732915E+03</pdfrwt>
<totfact> 0.21951783E+03</totfact>
</mgrwt>
</event>
<event>
 4    1  0.3145406E-005  0.3527146E+03  0.7818608E-02  0.1061506E+00
         -2   -1    0    0    0  501 -0.00000000000E+00  0.00000000000E+00  0.33414119710E+02  0.33414119807E+02  0.25500000000E-02 0. -1.
          2   -1    0    0  501    0  0.00000000000E+00 -0.00000000000E+00 -0.93080089789E+03  0.93080089789E+03  0.25500000000E-02 0.  1.
    5000001    1    1    2    0    0  0.49379187444E+01 -0.49939467818E+02 -0.54945376258E+03  0.57588433795E+03  0.16500000000E+03 0.  0.
   -5000001    1    1    2    0    0 -0.49379187444E+01  0.49939467818E+02 -0.34793301560E+03  0.38833067975E+03  0.16500000000E+03 0.  0.
<mgrwt>
<rscale>  0 0.35271457E+03</rscale>
<asrwt>0</asrwt>
<pdfrwt beam="1">  1        2 0.14320012E+00 0.35271457E+03</pdfrwt>
<pdfrwt beam="2">  1       -2 0.51406345E-02 0.35271457E+03</pdfrwt>
<totfact> 0.54694991E+03</totfact>
</mgrwt>
</event>
<event>
 4    1  0.3145406E-005  0.5779690E+03  0.7818608E-02  0.9952198E-01
          2   -1    0    0  501    0  0.00000000000E+00  0.00000000000E+00  0.10806001927E+04  0.10806001928E+04  0.25500000000E-02 0.  1.
         -2   -1    0    0    0  501 -0.00000000000E+00 -0.00000000000E+00 -0.77283011674E+02  0.77283011716E+02  0.25500000000E-02 0. -1.
    5000001    1    1    2    0    0  0.13696753583E+03  0.44492512984E+02  0.87937323280E+03  0.90623505348E+03  0.16500000000E+03 0.  0.
   -5000001    1    1    2    0    0 -0.13696753583E+03 -0.44492512984E+02  0.12394394827E+03  0.25164815099E+03  0.16500000000E+03 0.  0.
<mgrwt>
<rscale>  0 0.57796899E+03</rscale>
<asrwt>0</asrwt>
<pdfrwt beam="1">  1        2 0.16624618E+00 0.57796899E+03</pdfrwt>
<pdfrwt beam="2">  1       -2 0.11889694E-01 0.57796899E+03</pdfrwt>
<totfact> 0.11683935E+03</totfact>
</mgrwt>
</event>
<event>
 4    1  0.3145406E-005  0.4097068E+03  0.7818608E-02  0.1040469E+00
         -2   -1    0    0    0  501 -0.00000000000E+00  0.00000000000E+00  0.19883723581E+02  0.19883723744E+02  0.25500000000E-02 0.  1.
          2   -1    0    0  501    0  0.00000000000E+00 -0.00000000000E+00 -0.21105160517E+04  0.21105160517E+04  0.25500000000E-02 0. -1.
    5000001    1    1    2    0    0  0.90963694345E+02 -0.77584177128E+02 -0.11551566151E+04  0.11729899844E+04  0.16500000000E+03 0.  0.
   -5000001    1    1    2    0    0 -0.90963694345E+02  0.77584177128E+02 -0.93547571299E+03  0.95740979096E+03  0.16500000000E+03 0.  0.
<mgrwt>
<rscale>  0 0.40970681E+03</rscale>
<asrwt>0</asrwt>
<pdfrwt beam="1">  1        2 0.32469460E+00 0.40970681E+03</pdfrwt>
<pdfrwt beam="2">  1       -2 0.30590361E-02 0.40970681E+03</pdfrwt>
<totfact> 0.26532658E+03</totfact>
</mgrwt>
</event>
<event>
 4    1  0.3145406E-005  0.1045334E+04  0.7818608E-02  0.9260175E-01
         -2   -1    0    0    0  501 -0.00000000000E+00  0.00000000000E+00  0.40404405735E+03  0.40404405736E+03  0.25500000000E-02 0.  1.
          2   -1    0    0  501    0  0.00000000000E+00 -0.00000000000E+00 -0.67611617176E+03  0.67611617177E+03  0.25500000000E-02 0. -1.
    5000001    1    1    2    0    0 -0.33382743524E+03  0.33690839654E+03 -0.28580521477E+03  0.57780415797E+03  0.16500000000E+03 0.  0.
   -5000001    1    1    2    0    0  0.33382743524E+03 -0.33690839654E+03  0.13733100365E+02  0.50235607115E+03  0.16500000000E+03 0.  0.
<mgrwt>
<rscale>  0 0.10453339E+04</rscale>
<asrwt>0</asrwt>
<pdfrwt beam="1">  1        2 0.10401787E+00 0.10453339E+04</pdfrwt>
<pdfrwt beam="2">  1       -2 0.62160624E-01 0.10453339E+04</pdfrwt>
<totfact> 0.10248274E+02</totfact>
</mgrwt>
</event>
<event>
 4    1  0.3145406E-005  0.3773300E+03  0.7818608E-02  0.1051925E+00
          2   -1    0    0  501    0  0.00000000000E+00  0.00000000000E+00  0.37149791496E+03  0.37149791497E+03  0.25500000000E-02 0.  1.
         -2   -1    0    0    0  501 -0.00000000000E+00 -0.00000000000E+00 -0.95813426678E+02  0.95813426712E+02  0.25500000000E-02 0. -1.
    5000001    1    1    2    0    0 -0.70891784040E+02  0.57277420561E+02  0.14768322203E+03  0.23946123281E+03  0.16500000000E+03 0.  0.
   -5000001    1    1    2    0    0  0.70891784040E+02 -0.57277420561E+02  0.12800126626E+03  0.22785010887E+03  0.16500000000E+03 0.  0.
<mgrwt>
<rscale>  0 0.37733003E+03</rscale>
<asrwt>0</asrwt>
<pdfrwt beam="1">  1        2 0.57153525E-01 0.37733003E+03</pdfrwt>
<pdfrwt beam="2">  1       -2 0.14740527E-01 0.37733003E+03</pdfrwt>
<totfact> 0.30672757E+03</totfact>
</mgrwt>
</event>
<event>
 4    1  0.3145406E-005  0.4919741E+03  0.7818608E-02  0.1015895E+00
          2   -1    0    0  501    0  0.00000000000E+00  0.00000000000E+00  0.15060931331E+04  0.15060931331E+04  0.25500000000E-02 0.  1.
         -2   -1    0    0    0  501 -0.00000000000E+00 -0.00000000000E+00 -0.40176551717E+02  0.40176551798E+02  0.25500000000E-02 0. -1.
    5000001    1    1    2    0    0  0.15780147650E+03 -0.84018156450E+02  0.84733342547E+03  0.88156638464E+03  0.16500000000E+03 0.  0.
   -5000001    1    1    2    0    0 -0.15780147650E+03  0.84018156450E+02  0.61858315587E+03  0.66470330022E+03  0.16500000000E+03 0.  0.
<mgrwt>
<rscale>  0 0.49197410E+03</rscale>
<asrwt>0</asrwt>
<pdfrwt beam="1">  1        2 0.23170666E+00 0.49197410E+03</pdfrwt>
<pdfrwt beam="2">  1       -2 0.61810073E-02 0.49197410E+03</pdfrwt>
<totfact> 0.19024093E+03</totfact>
</mgrwt>
</event>
<event>
 4    1  0.3145406E-005  0.5346748E+03  0.7818608E-02  0.1005105E+00
         -2   -1    0    0    0  501 -0.00000000000E+00  0.00000000000E+00  0.10624602997E+03  0.10624603000E+03  0.25500000000E-02 0. -1.
          2   -1    0    0  501    0  0.00000000000E+00 -0.00000000000E+00 -0.67267733077E+03  0.67267733077E+03  0.25500000000E-02 0.  1.
    5000001    1    1    2    0    0  0.12565918812E+03  0.15711371220E+03 -0.19377437801E+03  0.32442019002E+03  0.16500000000E+03 0.  0.
   -5000001    1    1    2    0    0 -0.12565918812E+03 -0.15711371220E+03 -0.37265692279E+03  0.45450317075E+03  0.16500000000E+03 0.  0.
<mgrwt>
<rscale>  0 0.53467484E+03</rscale>
<asrwt>0</asrwt>
<pdfrwt beam="1">  1        2 0.10348882E+00 0.53467484E+03</pdfrwt>
<pdfrwt beam="2">  1       -2 0.16345543E-01 0.53467484E+03</pdfrwt>
<totfact> 0.13071627E+03</totfact>
</mgrwt>
</event>
<event>
 4    1  0.3145406E-005  0.5104298E+03  0.7818608E-02  0.1011092E+00
         -2   -1    0    0    0  501 -0.00000000000E+00  0.00000000000E+00  0.75179830933E+02  0.75179830977E+02  0.25500000000E-02 0. -1.
          2   -1    0    0  501    0  0.00000000000E+00 -0.00000000000E+00 -0.86638445787E+03  0.86638445787E+03  0.25500000000E-02 0.  1.
    5000001    1    1    2    0    0 -0.14072199002E+03 -0.72518440726E+02 -0.60469186386E+03  0.64648190457E+03  0.16500000000E+03 0.  0.
   -5000001    1    1    2    0    0  0.14072199002E+03  0.72518440726E+02 -0.18651276308E+03  0.29508238428E+03  0.16500000000E+03 0.  0.
<mgrwt>
<rscale>  0 0.51042977E+03</rscale>
<asrwt>0</asrwt>
<pdfrwt beam="1">  1        2 0.13328991E+00 0.51042977E+03</pdfrwt>
<pdfrwt beam="2">  1       -2 0.11566128E-01 0.51042977E+03</pdfrwt>
<totfact> 0.16788761E+03</totfact>
</mgrwt>
</event>
<event>
 4    1  0.3145406E-005  0.6147196E+03  0.7818608E-02  0.9875329E-01
         -2   -1    0    0    0  501 -0.00000000000E+00  0.00000000000E+00  0.70736793487E+02  0.70736793533E+02  0.25500000000E-02 0. -1.
          2   -1    0    0  501    0  0.00000000000E+00 -0.00000000000E+00 -0.13355150877E+04  0.13355150877E+04  0.25500000000E-02 0.  1.
    5000001    1    1    2    0    0 -0.20818124689E+03  0.64296384169E+02 -0.95405645706E+03  0.99243245606E+03  0.16500000000E+03 0.  0.
   -5000001    1    1    2    0    0  0.20818124689E+03 -0.64296384169E+02 -0.31072183716E+03  0.41381942519E+03  0.16500000000E+03 0.  0.
<mgrwt>
<rscale>  0 0.61471963E+03</rscale>
<asrwt>0</asrwt>
<pdfrwt beam="1">  1        2 0.20546384E+00 0.61471963E+03</pdfrwt>
<pdfrwt beam="2">  1       -2 0.10882585E-01 0.61471963E+03</pdfrwt>
<totfact> 0.95593044E+02</totfact>
</mgrwt>
</event>
<event>
 4    1  0.3145406E-005  0.5321987E+03  0.7818608E-02  0.1005700E+00
         -2   -1    0    0    0  501 -0.00000000000E+00  0.00000000000E+00  0.52179996348E+02  0.52179996410E+02  0.25500000000E-02 0. -1.
          2   -1    0    0  501    0  0.00000000000E+00 -0.00000000000E+00 -0.13570115454E+04  0.13570115454E+04  0.25500000000E-02 0.  1.
    5000001    1    1    2    0    0 -0.19153505617E+03  0.82298850767E+02 -0.62280236922E+03  0.67717543494E+03  0.16500000000E+03 0.  0.
   -5000001    1    1    2    0    0  0.19153505617E+03 -0.82298850767E+02 -0.68202917985E+03  0.73201610689E+03  0.16500000000E+03 0.  0.
<mgrwt>
<rscale>  0 0.53219868E+03</rscale>
<asrwt>0</asrwt>
<pdfrwt beam="1">  1        2 0.20877098E+00 0.53219868E+03</pdfrwt>
<pdfrwt beam="2">  1       -2 0.80276927E-02 0.53219868E+03</pdfrwt>
<totfact> 0.15224512E+03</totfact>
</mgrwt>
</event>
<event>
 4    1  0.3145406E-005  0.8017508E+03  0.7818608E-02  0.9557486E-01
         -2   -1    0    0    0  501 -0.00000000000E+00  0.00000000000E+00  0.22639590355E+03  0.22639590357E+03  0.25500000000E-02 0. -1.
          2   -1    0    0  501    0  0.00000000000E+00 -0.00000000000E+00 -0.70982332756E+03  0.70982332756E+03  0.25500000000E-02 0.  1.
    5000001    1    1    2    0    0 -0.30651208726E+03 -0.10458144516E+03 -0.44272045513E+02  0.36615837055E+03  0.16500000000E+03 0.  0.
   -5000001    1    1    2    0    0  0.30651208726E+03  0.10458144516E+03 -0.43915537850E+03  0.57006086058E+03  0.16500000000E+03 0.  0.
<mgrwt>
<rscale>  0 0.80175082E+03</rscale>
<asrwt>0</asrwt>
<pdfrwt beam="1">  1        2 0.10920359E+00 0.80175082E+03</pdfrwt>
<pdfrwt beam="2">  1       -2 0.34830139E-01 0.80175082E+03</pdfrwt>
<totfact> 0.31283135E+02</totfact>
</mgrwt>
</event>
<event>
 4    1  0.3145406E-005  0.4576227E+03  0.7818608E-02  0.1025473E+00
         -2   -1    0    0    0  501 -0.00000000000E+00  0.00000000000E+00  0.22520041896E+03  0.22520041898E+03  0.25500000000E-02 0. -1.
          2   -1    0    0  501    0  0.00000000000E+00 -0.00000000000E+00 -0.23248023020E+03  0.23248023021E+03  0.25500000000E-02 0.  1.
    5000001    1    1    2    0    0  0.13637203658E+03 -0.40131791319E+02 -0.73803982727E+02  0.22995634564E+03  0.16500000000E+03 0.  0.
   -5000001    1    1    2    0    0 -0.13637203658E+03  0.40131791319E+02  0.66524171492E+02  0.22772430355E+03  0.16500000000E+03 0.  0.
<mgrwt>
<rscale>  0 0.45762275E+03</rscale>
<asrwt>0</asrwt>
<pdfrwt beam="1">  1        2 0.35766189E-01 0.45762275E+03</pdfrwt>
<pdfrwt beam="2">  1       -2 0.34646218E-01 0.45762275E+03</pdfrwt>
<totfact> 0.11389823E+03</totfact>
</mgrwt>
</event>
<event>
 4    1  0.3145406E-005  0.6764379E+03  0.7818608E-02  0.9758397E-01
          2   -1    0    0  501    0  0.00000000000E+00  0.00000000000E+00  0.81798135810E+03  0.81798135811E+03  0.25500000000E-02 0.  1.
         -2   -1    0    0    0  501 -0.00000000000E+00 -0.00000000000E+00 -0.13984678043E+03  0.13984678045E+03  0.25500000000E-02 0. -1.
    5000001    1    1    2    0    0  0.29228340902E+03  0.10998019273E+02  0.28213625203E+03  0.43860735553E+03  0.16500000000E+03 0.  0.
   -5000001    1    1    2    0    0 -0.29228340902E+03 -0.10998019273E+02  0.39599832565E+03  0.51922078303E+03  0.16500000000E+03 0.  0.
<mgrwt>
<rscale>  0 0.67643790E+03</rscale>
<asrwt>0</asrwt>
<pdfrwt beam="1">  1        2 0.12584329E+00 0.67643790E+03</pdfrwt>
<pdfrwt beam="2">  1       -2 0.21514889E-01 0.67643790E+03</pdfrwt>
<totfact> 0.63103287E+02</totfact>
</mgrwt>
</event>
<event>
 4    1  0.3145406E-005  0.3865429E+03  0.7818608E-02  0.1048542E+00
         -2   -1    0    0    0  501 -0.00000000000E+00  0.00000000000E+00  0.48068259927E+02  0.48068259995E+02  0.25500000000E-02 0. -1.
          2   -1    0    0  501    0  0.00000000000E+00 -0.00000000000E+00 -0.77710014056E+03  0.77710014056E+03  0.25500000000E-02 0.  1.
    5000001    1    1    2    0    0  0.87756469072E+02  0.36484947957E+02 -0.29382729340E+03  0.35013115776E+03  0.16500000000E+03 0.  0.
   -5000001    1    1    2    0    0 -0.87756469072E+02 -0.36484947957E+02 -0.43520458723E+03  0.47503724279E+03  0.16500000000E+03 0.  0.
<mgrwt>
<rscale>  0 0.38654289E+03</rscale>
<asrwt>0</asrwt>
<pdfrwt beam="1">  1        2 0.11955386E+00 0.38654289E+03</pdfrwt>
<pdfrwt beam="2">  1       -2 0.73951175E-02 0.38654289E+03</pdfrwt>
<totfact> 0.39581285E+03</totfact>
</mgrwt>
</event>
<event>
 4    1  0.3145406E-005  0.4864840E+03  0.7818608E-02  0.1017368E+00
          2   -1    0    0  501    0  0.00000000000E+00  0.00000000000E+00  0.94835409361E+03  0.94835409361E+03  0.25500000000E-02 0.  1.
         -2   -1    0    0    0  501 -0.00000000000E+00 -0.00000000000E+00 -0.62388791323E+02  0.62388791375E+02  0.25500000000E-02 0. -1.
    5000001    1    1    2    0    0 -0.24464426006E+01 -0.16359809486E+03  0.59239065434E+03  0.63633482466E+03  0.16500000000E+03 0.  0.
   -5000001    1    1    2    0    0  0.24464426006E+01  0.16359809486E+03  0.29357464795E+03  0.37440806033E+03  0.16500000000E+03 0.  0.
<mgrwt>
<rscale>  0 0.48648398E+03</rscale>
<asrwt>0</asrwt>
<pdfrwt beam="1">  1        2 0.14590062E+00 0.48648398E+03</pdfrwt>
<pdfrwt beam="2">  1       -2 0.95982763E-02 0.48648398E+03</pdfrwt>
<totfact> 0.20060493E+03</totfact>
</mgrwt>
</event>
<event>
 4    1  0.3145406E-005  0.5688282E+03  0.7818608E-02  0.9972275E-01
          2   -1    0    0  501    0  0.00000000000E+00  0.00000000000E+00  0.19738797181E+04  0.19738797181E+04  0.25500000000E-02 0.  1.
         -2   -1    0    0    0  501 -0.00000000000E+00 -0.00000000000E+00 -0.40980912417E+02  0.40980912496E+02  0.25500000000E-02 0. -1.
    5000001    1    1    2    0    0  0.43422466502E+02  0.22574494591E+03  0.86501215447E+03  0.91011939798E+03  0.16500000000E+03 0.  0.
   -5000001    1    1    2    0    0 -0.43422466502E+02 -0.22574494591E+03  0.10678866512E+04  0.11047412326E+04  0.16500000000E+03 0.  0.
<mgrwt>
<rscale>  0 0.56882824E+03</rscale>
<asrwt>0</asrwt>
<pdfrwt beam="1">  1        2 0.30367381E+00 0.56882824E+03</pdfrwt>
<pdfrwt beam="2">  1       -2 0.63047557E-02 0.56882824E+03</pdfrwt>
<totfact> 0.10256934E+03</totfact>
</mgrwt>
</event>
<event>
 4    1  0.3145406E-005  0.6889451E+03  0.7818608E-02  0.9736327E-01
          2   -1    0    0  501    0  0.00000000000E+00  0.00000000000E+00  0.11753782366E+03  0.11753782369E+03  0.25500000000E-02 0.  1.
         -2   -1    0    0    0  501 -0.00000000000E+00 -0.00000000000E+00 -0.10095587534E+04  0.10095587534E+04  0.25500000000E-02 0. -1.
    5000001    1    1    2    0    0 -0.30033346173E+03  0.20363788887E+02 -0.39912141064E+03  0.52643876430E+03  0.16500000000E+03 0.  0.
   -5000001    1    1    2    0    0  0.30033346173E+03 -0.20363788887E+02 -0.49289951905E+03  0.60065781274E+03  0.16500000000E+03 0.  0.
<mgrwt>
<rscale>  0 0.68894510E+03</rscale>
<asrwt>0</asrwt>
<pdfrwt beam="1">  1        2 0.18082743E-01 0.68894510E+03</pdfrwt>
<pdfrwt beam="2">  1       -2 0.15531673E+00 0.68894510E+03</pdfrwt>
<totfact> 0.88651523E+01</totfact>
</mgrwt>
</event>
<event>
 4    1  0.3145406E-005  0.6907122E+03  0.7818608E-02  0.9733249E-01
          2   -1    0    0  501    0  0.00000000000E+00  0.00000000000E+00  0.58639382022E+03  0.58639382022E+03  0.25500000000E-02 0.  1.
         -2   -1    0    0    0  501 -0.00000000000E+00 -0.00000000000E+00 -0.20339714393E+03  0.20339714394E+03  0.25500000000E-02 0. -1.
    5000001    1    1    2    0    0  0.13605904639E+03  0.25690236072E+03  0.29075392960E+03  0.44302791631E+03  0.16500000000E+03 0.  0.
   -5000001    1    1    2    0    0 -0.13605904639E+03 -0.25690236072E+03  0.92242746684E+02  0.34676304786E+03  0.16500000000E+03 0.  0.
<mgrwt>
<rscale>  0 0.69071218E+03</rscale>
<asrwt>0</asrwt>
<pdfrwt beam="1">  1        2 0.90214435E-01 0.69071218E+03</pdfrwt>
<pdfrwt beam="2">  1       -2 0.31291868E-01 0.69071218E+03</pdfrwt>
<totfact> 0.48620271E+02</totfact>
</mgrwt>
</event>
<event>
 4    1  0.3145406E-005  0.5619090E+03  0.7818608E-02  0.9987744E-01
         -2   -1    0    0    0  501 -0.00000000000E+00  0.00000000000E+00  0.13556951949E+03  0.13556951952E+03  0.25500000000E-02 0. -1.
          2   -1    0    0  501    0  0.00000000000E+00 -0.00000000000E+00 -0.58225051205E+03  0.58225051205E+03  0.25500000000E-02 0.  1.
    5000001    1    1    2    0    0  0.17180371433E+02 -0.21771592512E+03 -0.14239472482E+03  0.30853953858E+03  0.16500000000E+03 0.  0.
   -5000001    1    1    2    0    0 -0.17180371433E+02  0.21771592512E+03 -0.30428626773E+03  0.40928049299E+03  0.16500000000E+03 0.  0.
<mgrwt>
<rscale>  0 0.56190897E+03</rscale>
<asrwt>0</asrwt>
<pdfrwt beam="1">  1        2 0.89577000E-01 0.56190897E+03</pdfrwt>
<pdfrwt beam="2">  1       -2 0.20856850E-01 0.56190897E+03</pdfrwt>
<totfact> 0.10225848E+03</totfact>
</mgrwt>
</event>
<event>
 4    1  0.3145406E-005  0.4112680E+03  0.7818608E-02  0.1039946E+00
         -2   -1    0    0    0  501 -0.00000000000E+00  0.00000000000E+00  0.11537703959E+03  0.11537703962E+03  0.25500000000E-02 0.  1.
          2   -1    0    0  501    0  0.00000000000E+00 -0.00000000000E+00 -0.36649699206E+03  0.36649699207E+03  0.25500000000E-02 0. -1.
    5000001    1    1    2    0    0  0.75054409801E+02 -0.86663860186E+02 -0.17685421322E+03  0.26766808145E+03  0.16500000000E+03 0.  0.
   -5000001    1    1    2    0    0 -0.75054409801E+02  0.86663860186E+02 -0.74265739255E+02  0.21420595024E+03  0.16500000000E+03 0.  0.
<mgrwt>
<rscale>  0 0.41126798E+03</rscale>
<asrwt>0</asrwt>
<pdfrwt beam="1">  1        2 0.56384152E-01 0.41126798E+03</pdfrwt>
<pdfrwt beam="2">  1       -2 0.17750314E-01 0.41126798E+03</pdfrwt>
<totfact> 0.22807959E+03</totfact>
</mgrwt>
</event>
<event>
 4    1  0.3145406E-005  0.4180767E+03  0.7818608E-02  0.1037694E+00
         -2   -1    0    0    0  501 -0.00000000000E+00  0.00000000000E+00  0.56470869371E+02  0.56470869428E+02  0.25500000000E-02 0. -1.
          2   -1    0    0  501    0  0.00000000000E+00 -0.00000000000E+00 -0.77379779223E+03  0.77379779223E+03  0.25500000000E-02 0.  1.
    5000001    1    1    2    0    0 -0.60296258771E+01  0.10733318979E+03 -0.21943241194E+03  0.29484293010E+03  0.16500000000E+03 0.  0.
   -5000001    1    1    2    0    0  0.60296258771E+01 -0.10733318979E+03 -0.49789451091E+03  0.53542573156E+03  0.16500000000E+03 0.  0.
<mgrwt>
<rscale>  0 0.41807671E+03</rscale>
<asrwt>0</asrwt>
<pdfrwt beam="1">  1        2 0.11904581E+00 0.41807671E+03</pdfrwt>
<pdfrwt beam="2">  1       -2 0.86878266E-02 0.41807671E+03</pdfrwt>
<totfact> 0.30884528E+03</totfact>
</mgrwt>
</event>
<event>
 4    1  0.3145406E-005  0.3928521E+03  0.7818608E-02  0.1046283E+00
          2   -1    0    0  501    0  0.00000000000E+00  0.00000000000E+00  0.67363160019E+03  0.67363160020E+03  0.25500000000E-02 0.  1.
         -2   -1    0    0    0  501 -0.00000000000E+00 -0.00000000000E+00 -0.57276410244E+02  0.57276410300E+02  0.25500000000E-02 0. -1.
    5000001    1    1    2    0    0  0.95553930304E+02 -0.19787760367E+02  0.38790005432E+03  0.43268182444E+03  0.16500000000E+03 0.  0.
   -5000001    1    1    2    0    0 -0.95553930304E+02  0.19787760367E+02  0.22845513563E+03  0.29822618606E+03  0.16500000000E+03 0.  0.
<mgrwt>
<rscale>  0 0.39285213E+03</rscale>
<asrwt>0</asrwt>
<pdfrwt beam="1">  1        2 0.10363563E+00 0.39285213E+03</pdfrwt>
<pdfrwt beam="2">  1       -2 0.88117557E-02 0.39285213E+03</pdfrwt>
<totfact> 0.35871870E+03</totfact>
</mgrwt>
</event>
<event>
 4    1  0.3145406E-005  0.5022423E+03  0.7818608E-02  0.1013195E+00
          2   -1    0    0  501    0  0.00000000000E+00  0.00000000000E+00  0.98218208332E+03  0.98218208333E+03  0.25500000000E-02 0.  1.
         -2   -1    0    0    0  501 -0.00000000000E+00 -0.00000000000E+00 -0.64205849604E+02  0.64205849655E+02  0.25500000000E-02 0. -1.
    5000001    1    1    2    0    0  0.11778066659E+03 -0.14372216062E+03  0.53435224424E+03  0.58930948219E+03  0.16500000000E+03 0.  0.
   -5000001    1    1    2    0    0 -0.11778066659E+03  0.14372216062E+03  0.38362398948E+03  0.45707845079E+03  0.16500000000E+03 0.  0.
<mgrwt>
<rscale>  0 0.50224231E+03</rscale>
<asrwt>0</asrwt>
<pdfrwt beam="1">  1        2 0.15110493E+00 0.50224231E+03</pdfrwt>
<pdfrwt beam="2">  1       -2 0.98778233E-02 0.50224231E+03</pdfrwt>
<totfact> 0.18220956E+03</totfact>
</mgrwt>
</event>
<event>
 4    1  0.3145406E-005  0.9483147E+03  0.7818608E-02  0.9367123E-01
         -2   -1    0    0    0  501 -0.00000000000E+00  0.00000000000E+00  0.58822478139E+03  0.58822478139E+03  0.25500000000E-02 0. -1.
          2   -1    0    0  501    0  0.00000000000E+00 -0.00000000000E+00 -0.38220962532E+03  0.38220962532E+03  0.25500000000E-02 0.  1.
    5000001    1    1    2    0    0 -0.26149301441E+03 -0.29042725395E+03 -0.11376738189E+03  0.43919768170E+03  0.16500000000E+03 0.  0.
   -5000001    1    1    2    0    0  0.26149301441E+03  0.29042725395E+03  0.31978253796E+03  0.53123672502E+03  0.16500000000E+03 0.  0.
<mgrwt>
<rscale>  0 0.94831466E+03</rscale>
<asrwt>0</asrwt>
<pdfrwt beam="1">  1        2 0.58801481E-01 0.94831466E+03</pdfrwt>
<pdfrwt beam="2">  1       -2 0.90496120E-01 0.94831466E+03</pdfrwt>
<totfact> 0.87475733E+01</totfact>
</mgrwt>
</event>
<event>
 4    1  0.3145406E-005  0.4700555E+03  0.7818608E-02  0.1021905E+00
         -2   -1    0    0    0  501 -0.00000000000E+00  0.00000000000E+00  0.44427507584E+02  0.44427507657E+02  0.25500000000E-02 0. -1.
          2   -1    0    0  501    0  0.00000000000E+00 -0.00000000000E+00 -0.12433298586E+04  0.12433298586E+04  0.25500000000E-02 0.  1.
    5000001    1    1    2    0    0  0.16652845224E+03  0.34519717818E+01 -0.55448479585E+03  0.60201497518E+03  0.16500000000E+03 0.  0.
   -5000001    1    1    2    0    0 -0.16652845224E+03 -0.34519717818E+01 -0.64441755518E+03  0.68574239109E+03  0.16500000000E+03 0.  0.
<mgrwt>
<rscale>  0 0.47005551E+03</rscale>
<asrwt>0</asrwt>
<pdfrwt beam="1">  1        2 0.19128149E+00 0.47005551E+03</pdfrwt>
<pdfrwt beam="2">  1       -2 0.68350021E-02 0.47005551E+03</pdfrwt>
<totfact> 0.22811552E+03</totfact>
</mgrwt>
</event>
<event>
 4    1  0.3145406E-005  0.3967577E+03  0.7818608E-02  0.1044908E+00
         -2   -1    0    0    0  501 -0.00000000000E+00  0.00000000000E+00  0.13415423753E+02  0.13415423995E+02  0.25500000000E-02 0. -1.
          2   -1    0    0  501    0  0.00000000000E+00 -0.00000000000E+00 -0.29335014345E+04  0.29335014345E+04  0.25500000000E-02 0.  1.
    5000001    1    1    2    0    0 -0.94652944579E+02  0.35691398206E+02 -0.11366175291E+04  0.11529776508E+04  0.16500000000E+03 0.  0.
   -5000001    1    1    2    0    0  0.94652944579E+02 -0.35691398206E+02 -0.17834684816E+04  0.17939392076E+04  0.16500000000E+03 0.  0.
<mgrwt>
<rscale>  0 0.39675769E+03</rscale>
<asrwt>0</asrwt>
<pdfrwt beam="1">  1        2 0.45130740E+00 0.39675769E+03</pdfrwt>
<pdfrwt beam="2">  1       -2 0.20639137E-02 0.39675769E+03</pdfrwt>
<totfact> 0.16577008E+03</totfact>
</mgrwt>
</event>
<event>
 4    1  0.3145406E-005  0.4675721E+03  0.7818608E-02  0.1022608E+00
          2   -1    0    0  501    0  0.00000000000E+00  0.00000000000E+00  0.21470420094E+04  0.21470420094E+04  0.25500000000E-02 0.  1.
         -2   -1    0    0    0  501 -0.00000000000E+00 -0.00000000000E+00 -0.25456384935E+02  0.25456385063E+02  0.25500000000E-02 0. -1.
    5000001    1    1    2    0    0  0.92157533467E+02  0.13761414643E+03  0.10631789230E+04  0.10885793892E+04  0.16500000000E+03 0.  0.
   -5000001    1    1    2    0    0 -0.92157533467E+02 -0.13761414643E+03  0.10584067015E+04  0.10839190053E+04  0.16500000000E+03 0.  0.
<mgrwt>
<rscale>  0 0.46757215E+03</rscale>
<asrwt>0</asrwt>
<pdfrwt beam="1">  1        2 0.33031418E+00 0.46757215E+03</pdfrwt>
<pdfrwt beam="2">  1       -2 0.39163667E-02 0.46757215E+03</pdfrwt>
<totfact> 0.17378433E+03</totfact>
</mgrwt>
</event>
<event>
 4    1  0.3145406E-005  0.4025413E+03  0.7818608E-02  0.1042903E+00
          2   -1    0    0  501    0  0.00000000000E+00  0.00000000000E+00  0.13371671857E+04  0.13371671857E+04  0.25500000000E-02 0.  1.
         -2   -1    0    0    0  501 -0.00000000000E+00 -0.00000000000E+00 -0.30295293447E+02  0.30295293555E+02  0.25500000000E-02 0. -1.
    5000001    1    1    2    0    0 -0.54342550738E+02  0.10109906545E+03  0.68918415619E+03  0.71789549030E+03  0.16500000000E+03 0.  0.
   -5000001    1    1    2    0    0  0.54342550738E+02 -0.10109906545E+03  0.61768773606E+03  0.64956698895E+03  0.16500000000E+03 0.  0.
<mgrwt>
<rscale>  0 0.40254129E+03</rscale>
<asrwt>0</asrwt>
<pdfrwt beam="1">  1        2 0.20571798E+00 0.40254129E+03</pdfrwt>
<pdfrwt beam="2">  1       -2 0.46608154E-02 0.40254129E+03</pdfrwt>
<totfact> 0.36551934E+03</totfact>
</mgrwt>
</event>
<event>
 4    1  0.3145406E-005  0.5265201E+03  0.7818608E-02  0.1007080E+00
         -2   -1    0    0    0  501 -0.00000000000E+00  0.00000000000E+00  0.61395825132E+02  0.61395825185E+02  0.25500000000E-02 0. -1.
          2   -1    0    0  501    0  0.00000000000E+00 -0.00000000000E+00 -0.11288367535E+04  0.11288367535E+04  0.25500000000E-02 0.  1.
    5000001    1    1    2    0    0  0.13242487392E+03  0.94023277003E+02 -0.25043523695E+03  0.34105649350E+03  0.16500000000E+03 0.  0.
   -5000001    1    1    2    0    0 -0.13242487392E+03 -0.94023277003E+02 -0.81700569140E+03  0.84917608517E+03  0.16500000000E+03 0.  0.
<mgrwt>
<rscale>  0 0.52652014E+03</rscale>
<asrwt>0</asrwt>
<pdfrwt beam="1">  1        2 0.17366718E+00 0.52652014E+03</pdfrwt>
<pdfrwt beam="2">  1       -2 0.94455124E-02 0.52652014E+03</pdfrwt>
<totfact> 0.15906242E+03</totfact>
</mgrwt>
</event>
<event>
 4    1  0.3145406E-005  0.5585792E+03  0.7818608E-02  0.9995275E-01
          2   -1    0    0  501    0  0.00000000000E+00  0.00000000000E+00  0.27481027494E+04  0.27481027494E+04  0.25500000000E-02 0.  1.
         -2   -1    0    0    0  501 -0.00000000000E+00 -0.00000000000E+00 -0.28384188612E+02  0.28384188726E+02  0.25500000000E-02 0. -1.
    5000001    1    1    2    0    0 -0.43700620479E+02 -0.57660348453E+02  0.24206329161E+04  0.24273284027E+04  0.16500000000E+03 0.  0.
   -5000001    1    1    2    0    0  0.43700620479E+02  0.57660348453E+02  0.29908564475E+03  0.34915853550E+03  0.16500000000E+03 0.  0.
<mgrwt>
<rscale>  0 0.55857915E+03</rscale>
<asrwt>0</asrwt>
<pdfrwt beam="1">  1        2 0.42278513E+00 0.55857915E+03</pdfrwt>
<pdfrwt beam="2">  1       -2 0.43667974E-02 0.55857915E+03</pdfrwt>
<totfact> 0.67417506E+02</totfact>
</mgrwt>
</event>
<event>
 4    1  0.3145406E-005  0.6634263E+03  0.7818608E-02  0.9781907E-01
          2   -1    0    0  501    0  0.00000000000E+00  0.00000000000E+00  0.35920979378E+03  0.35920979379E+03  0.25500000000E-02 0.  1.
         -2   -1    0    0    0  501 -0.00000000000E+00 -0.00000000000E+00 -0.30632131758E+03  0.30632131759E+03  0.25500000000E-02 0. -1.
    5000001    1    1    2    0    0  0.13347082370E+03 -0.19358105065E+03  0.19286369277E+03  0.34599058938E+03  0.16500000000E+03 0.  0.
   -5000001    1    1    2    0    0 -0.13347082370E+03  0.19358105065E+03 -0.13997521657E+03  0.31954052201E+03  0.16500000000E+03 0.  0.
<mgrwt>
<rscale>  0 0.66342631E+03</rscale>
<asrwt>0</asrwt>
<pdfrwt beam="1">  1        2 0.55263045E-01 0.66342631E+03</pdfrwt>
<pdfrwt beam="2">  1       -2 0.47126356E-01 0.66342631E+03</pdfrwt>
<totfact> 0.38655008E+02</totfact>
</mgrwt>
</event>
<event>
 4    1  0.3145406E-005  0.4197941E+03  0.7818608E-02  0.1037133E+00
          2   -1    0    0  501    0  0.00000000000E+00  0.00000000000E+00  0.27178091539E+03  0.27178091540E+03  0.25500000000E-02 0.  1.
         -2   -1    0    0    0  501 -0.00000000000E+00 -0.00000000000E+00 -0.16210397598E+03  0.16210397600E+03  0.25500000000E-02 0. -1.
    5000001    1    1    2    0    0  0.24943820491E+02  0.12628634058E+03  0.71546887912E+02  0.22116598104E+03  0.16500000000E+03 0.  0.
   -5000001    1    1    2    0    0 -0.24943820491E+02 -0.12628634058E+03  0.38130051500E+02  0.21271891036E+03  0.16500000000E+03 0.  0.
<mgrwt>
<rscale>  0 0.41979408E+03</rscale>
<asrwt>0</asrwt>
<pdfrwt beam="1">  1        2 0.41812448E-01 0.41979408E+03</pdfrwt>
<pdfrwt beam="2">  1       -2 0.24939074E-01 0.41979408E+03</pdfrwt>
<totfact> 0.17505122E+03</totfact>
</mgrwt>
</event>
<event>
 4    1  0.3145406E-005  0.7360487E+03  0.7818608E-02  0.9657496E-01
         -2   -1    0    0    0  501 -0.00000000000E+00  0.00000000000E+00  0.10461323062E+03  0.10461323065E+03  0.25500000000E-02 0. -1.
          2   -1    0    0  501    0  0.00000000000E+00 -0.00000000000E+00 -0.12946920209E+04  0.12946920209E+04  0.25500000000E-02 0.  1.
    5000001    1    1    2    0    0  0.29521399513E+03 -0.11386826928E+03 -0.42394393047E+03  0.55413964111E+03  0.16500000000E+03 0.  0.
   -5000001    1    1    2    0    0 -0.29521399513E+03  0.11386826928E+03 -0.76613485978E+03  0.84516561042E+03  0.16500000000E+03 0.  0.
<mgrwt>
<rscale>  0 0.73604868E+03</rscale>
<asrwt>0</asrwt>
<pdfrwt beam="1">  1        2 0.19918338E+00 0.73604868E+03</pdfrwt>
<pdfrwt beam="2">  1       -2 0.16094344E-01 0.73604868E+03</pdfrwt>
<totfact> 0.52248234E+02</totfact>
</mgrwt>
</event>
<event>
 4    1  0.3145406E-005  0.4352639E+03  0.7818608E-02  0.1032210E+00
         -2   -1    0    0    0  501 -0.00000000000E+00  0.00000000000E+00  0.10174371148E+03  0.10174371151E+03  0.25500000000E-02 0. -1.
          2   -1    0    0  501    0  0.00000000000E+00 -0.00000000000E+00 -0.46551937063E+03  0.46551937063E+03  0.25500000000E-02 0.  1.
    5000001    1    1    2    0    0  0.86566042627E+02  0.89246554814E+02 -0.27104508669E+03  0.34080649392E+03  0.16500000000E+03 0.  0.
   -5000001    1    1    2    0    0 -0.86566042627E+02 -0.89246554814E+02 -0.92730572458E+02  0.22645658823E+03  0.16500000000E+03 0.  0.
<mgrwt>
<rscale>  0 0.43526391E+03</rscale>
<asrwt>0</asrwt>
<pdfrwt beam="1">  1        2 0.71618363E-01 0.43526391E+03</pdfrwt>
<pdfrwt beam="2">  1       -2 0.15652879E-01 0.43526391E+03</pdfrwt>
<totfact> 0.21645014E+03</totfact>
</mgrwt>
</event>
<event>
 4    1  0.3145406E-005  0.4236103E+03  0.7818608E-02  0.1035898E+00
          2   -1    0    0  501    0  0.00000000000E+00  0.00000000000E+00  0.11664549232E+04  0.11664549232E+04  0.25500000000E-02 0.  1.
         -2   -1    0    0    0  501 -0.00000000000E+00 -0.00000000000E+00 -0.38459633030E+02  0.38459633114E+02  0.25500000000E-02 0. -1.
    5000001    1    1    2    0    0  0.73824935218E+02  0.54600375719E+02  0.29109728427E+03  0.34697831488E+03  0.16500000000E+03 0.  0.
   -5000001    1    1    2    0    0 -0.73824935218E+02 -0.54600375719E+02  0.83689800592E+03  0.85793624145E+03  0.16500000000E+03 0.  0.
<mgrwt>
<rscale>  0 0.42361033E+03</rscale>
<asrwt>0</asrwt>
<pdfrwt beam="1">  1        2 0.17945461E+00 0.42361033E+03</pdfrwt>
<pdfrwt beam="2">  1       -2 0.59168664E-02 0.42361033E+03</pdfrwt>
<totfact> 0.31668711E+03</totfact>
</mgrwt>
</event>
<event>
 4    1  0.3145406E-005  0.4990189E+03  0.7818608E-02  0.1014035E+00
         -2   -1    0    0    0  501 -0.00000000000E+00  0.00000000000E+00  0.18169709930E+03  0.18169709932E+03  0.25500000000E-02 0.  1.
          2   -1    0    0  501    0  0.00000000000E+00 -0.00000000000E+00 -0.34263043057E+03  0.34263043058E+03  0.25500000000E-02 0. -1.
    5000001    1    1    2    0    0 -0.91751301082E+02 -0.26202525681E+02  0.88712067974E+02  0.21023725789E+03  0.16500000000E+03 0.  0.
   -5000001    1    1    2    0    0  0.91751301082E+02  0.26202525681E+02 -0.24964539925E+03  0.31409027200E+03  0.16500000000E+03 0.  0.
<mgrwt>
<rscale>  0 0.49901886E+03</rscale>
<asrwt>0</asrwt>
<pdfrwt beam="1">  1        2 0.52712374E-01 0.49901886E+03</pdfrwt>
<pdfrwt beam="2">  1       -2 0.27953400E-01 0.49901886E+03</pdfrwt>
<totfact> 0.11067332E+03</totfact>
</mgrwt>
</event>
<event>
 4    1  0.3145406E-005  0.4443310E+03  0.7818608E-02  0.1029426E+00
         -2   -1    0    0    0  501 -0.00000000000E+00  0.00000000000E+00  0.23324115205E+02  0.23324115345E+02  0.25500000000E-02 0. -1.
          2   -1    0    0  501    0  0.00000000000E+00 -0.00000000000E+00 -0.21161579525E+04  0.21161579525E+04  0.25500000000E-02 0.  1.
    5000001    1    1    2    0    0 -0.10552238014E+03 -0.90032900762E+02 -0.78749289812E+03  0.81646246731E+03  0.16500000000E+03 0.  0.
   -5000001    1    1    2    0    0  0.10552238014E+03  0.90032900762E+02 -0.13053409392E+04  0.13230196005E+04  0.16500000000E+03 0.  0.
<mgrwt>
<rscale>  0 0.44433101E+03</rscale>
<asrwt>0</asrwt>
<pdfrwt beam="1">  1        2 0.32556261E+00 0.44433101E+03</pdfrwt>
<pdfrwt beam="2">  1       -2 0.35883271E-02 0.44433101E+03</pdfrwt>
<totfact> 0.20659165E+03</totfact>
</mgrwt>
</event>
<event>
 4    1  0.3145406E-005  0.5988690E+03  0.7818608E-02  0.9907755E-01
         -2   -1    0    0    0  501 -0.00000000000E+00  0.00000000000E+00  0.45346058261E+03  0.45346058262E+03  0.25500000000E-02 0. -1.
          2   -1    0    0  501    0  0.00000000000E+00 -0.00000000000E+00 -0.19772613724E+03  0.19772613725E+03  0.25500000000E-02 0.  1.
    5000001    1    1    2    0    0  0.23785007476E+03 -0.53918481131E+02  0.68746890260E+02  0.30237558697E+03  0.16500000000E+03 0.  0.
   -5000001    1    1    2    0    0 -0.23785007476E+03  0.53918481131E+02  0.18698755511E+03  0.34881113291E+03  0.16500000000E+03 0.  0.
<mgrwt>
<rscale>  0 0.59886897E+03</rscale>
<asrwt>0</asrwt>
<pdfrwt beam="1">  1        2 0.30419406E-01 0.59886897E+03</pdfrwt>
<pdfrwt beam="2">  1       -2 0.69763167E-01 0.59886897E+03</pdfrwt>
<totfact> 0.33150632E+02</totfact>
</mgrwt>
</event>
<event>
 4    1  0.3145406E-005  0.4398532E+03  0.7818608E-02  0.1030792E+00
         -2   -1    0    0    0  501 -0.00000000000E+00  0.00000000000E+00  0.88686601665E+02  0.88686601701E+02  0.25500000000E-02 0. -1.
          2   -1    0    0  501    0  0.00000000000E+00 -0.00000000000E+00 -0.54537789743E+03  0.54537789744E+03  0.25500000000E-02 0.  1.
    5000001    1    1    2    0    0  0.37325387032E+02 -0.12020996971E+03 -0.33328209562E+03  0.39261377535E+03  0.16500000000E+03 0.  0.
   -5000001    1    1    2    0    0 -0.37325387032E+02  0.12020996971E+03 -0.12340920015E+03  0.24145072379E+03  0.16500000000E+03 0.  0.
<mgrwt>
<rscale>  0 0.43985321E+03</rscale>
<asrwt>0</asrwt>
<pdfrwt beam="1">  1        2 0.83904290E-01 0.43985321E+03</pdfrwt>
<pdfrwt beam="2">  1       -2 0.13644093E-01 0.43985321E+03</pdfrwt>
<totfact> 0.22716747E+03</totfact>
</mgrwt>
</event>
<event>
 4    1  0.3145406E-005  0.4551610E+03  0.7818608E-02  0.1026194E+00
         -2   -1    0    0    0  501 -0.00000000000E+00  0.00000000000E+00  0.17780370940E+03  0.17780370942E+03  0.25500000000E-02 0. -1.
          2   -1    0    0  501    0  0.00000000000E+00 -0.00000000000E+00 -0.29129247257E+03  0.29129247258E+03  0.25500000000E-02 0.  1.
    5000001    1    1    2    0    0 -0.10691115752E+03 -0.11025666597E+03 -0.24458715860E+02  0.22673719760E+03  0.16500000000E+03 0.  0.
   -5000001    1    1    2    0    0  0.10691115752E+03  0.11025666597E+03 -0.89030047314E+02  0.24235898440E+03  0.16500000000E+03 0.  0.
<mgrwt>
<rscale>  0 0.45516099E+03</rscale>
<asrwt>0</asrwt>
<pdfrwt beam="1">  1        2 0.44814226E-01 0.45516099E+03</pdfrwt>
<pdfrwt beam="2">  1       -2 0.27354417E-01 0.45516099E+03</pdfrwt>
<totfact> 0.13752803E+03</totfact>
</mgrwt>
</event>
<event>
 4    1  0.3145406E-005  0.4127133E+03  0.7818608E-02  0.1039464E+00
          2   -1    0    0  501    0  0.00000000000E+00  0.00000000000E+00  0.80060415513E+03  0.80060415513E+03  0.25500000000E-02 0.  1.
         -2   -1    0    0    0  501 -0.00000000000E+00 -0.00000000000E+00 -0.53188653546E+02  0.53188653607E+02  0.25500000000E-02 0. -1.
    5000001    1    1    2    0    0 -0.10393165920E+03  0.42660975189E+02  0.26549296445E+03  0.33216451159E+03  0.16500000000E+03 0.  0.
   -5000001    1    1    2    0    0  0.10393165920E+03 -0.42660975189E+02  0.48192253713E+03  0.52162829715E+03  0.16500000000E+03 0.  0.
<mgrwt>
<rscale>  0 0.41271325E+03</rscale>
<asrwt>0</asrwt>
<pdfrwt beam="1">  1        2 0.12316986E+00 0.41271325E+03</pdfrwt>
<pdfrwt beam="2">  1       -2 0.81828703E-02 0.41271325E+03</pdfrwt>
<totfact> 0.32500796E+03</totfact>
</mgrwt>
</event>
<event>
 4    1  0.3145406E-005  0.6196338E+03  0.7818608E-02  0.9865489E-01
         -2   -1    0    0    0  501 -0.00000000000E+00  0.00000000000E+00  0.13507562853E+03  0.13507562856E+03  0.25500000000E-02 0. -1.
          2   -1    0    0  501    0  0.00000000000E+00 -0.00000000000E+00 -0.71061302360E+03  0.71061302361E+03  0.25500000000E-02 0.  1.
    5000001    1    1    2    0    0 -0.24200951915E+03  0.80379766004E+02 -0.37114554492E+03  0.47958683224E+03  0.16500000000E+03 0.  0.
   -5000001    1    1    2    0    0  0.24200951915E+03 -0.80379766004E+02 -0.20439185015E+03  0.36610181993E+03  0.16500000000E+03 0.  0.
<mgrwt>
<rscale>  0 0.61963377E+03</rscale>
<asrwt>0</asrwt>
<pdfrwt beam="1">  1        2 0.10932508E+00 0.61963377E+03</pdfrwt>
<pdfrwt beam="2">  1       -2 0.20780866E-01 0.61963377E+03</pdfrwt>
<totfact> 0.80604000E+02</totfact>
</mgrwt>
</event>
<event>
 4    1  0.3145406E-005  0.4814476E+03  0.7818608E-02  0.1018738E+00
         -2   -1    0    0    0  501 -0.00000000000E+00  0.00000000000E+00  0.18171045570E+03  0.18171045572E+03  0.25500000000E-02 0.  1.
          2   -1    0    0  501    0  0.00000000000E+00 -0.00000000000E+00 -0.31890267043E+03  0.31890267044E+03  0.25500000000E-02 0. -1.
    5000001    1    1    2    0    0 -0.14989526866E+03 -0.83037217705E+02 -0.10693075235E+03  0.26081211032E+03  0.16500000000E+03 0.  0.
   -5000001    1    1    2    0    0  0.14989526866E+03  0.83037217705E+02 -0.30261462379E+02  0.23980101584E+03  0.16500000000E+03 0.  0.
<mgrwt>
<rscale>  0 0.48144761E+03</rscale>
<asrwt>0</asrwt>
<pdfrwt beam="1">  1        2 0.49061949E-01 0.48144761E+03</pdfrwt>
<pdfrwt beam="2">  1       -2 0.27955455E-01 0.48144761E+03</pdfrwt>
<totfact> 0.11974107E+03</totfact>
</mgrwt>
</event>
<event>
 4    1  0.3145406E-005  0.5451326E+03  0.7818608E-02  0.1002627E+00
          2   -1    0    0  501    0  0.00000000000E+00  0.00000000000E+00  0.51924655588E+03  0.51924655588E+03  0.25500000000E-02 0.  1.
         -2   -1    0    0    0  501 -0.00000000000E+00 -0.00000000000E+00 -0.14307727031E+03  0.14307727033E+03  0.25500000000E-02 0. -1.
    5000001    1    1    2    0    0  0.14779580453E+03 -0.11955174015E+03  0.61056075003E+02  0.25901556460E+03  0.16500000000E+03 0.  0.
   -5000001    1    1    2    0    0 -0.14779580453E+03  0.11955174015E+03  0.31511321057E+03  0.40330826161E+03  0.16500000000E+03 0.  0.
<mgrwt>
<rscale>  0 0.54513257E+03</rscale>
<asrwt>0</asrwt>
<pdfrwt beam="1">  1        2 0.79884085E-01 0.54513257E+03</pdfrwt>
<pdfrwt beam="2">  1       -2 0.22011888E-01 0.54513257E+03</pdfrwt>
<totfact> 0.10639729E+03</totfact>
</mgrwt>
</event>
<event>
 4    1  0.3145406E-005  0.8781642E+03  0.7818608E-02  0.9453297E-01
         -2   -1    0    0    0  501 -0.00000000000E+00  0.00000000000E+00  0.22800489990E+03  0.22800489991E+03  0.25500000000E-02 0. -1.
          2   -1    0    0  501    0  0.00000000000E+00 -0.00000000000E+00 -0.84556551581E+03  0.84556551581E+03  0.25500000000E-02 0.  1.
    5000001    1    1    2    0    0 -0.37517521668E+03  0.79333558012E+02 -0.14241996929E+03  0.44108809130E+03  0.16500000000E+03 0.  0.
   -5000001    1    1    2    0    0  0.37517521668E+03 -0.79333558012E+02 -0.47514064662E+03  0.63248232442E+03  0.16500000000E+03 0.  0.
<mgrwt>
<rscale>  0 0.87816418E+03</rscale>
<asrwt>0</asrwt>
<pdfrwt beam="1">  1        2 0.13008700E+00 0.87816418E+03</pdfrwt>
<pdfrwt beam="2">  1       -2 0.35077677E-01 0.87816418E+03</pdfrwt>
<totfact> 0.24446299E+02</totfact>
</mgrwt>
</event>
<event>
 4    1  0.3145406E-005  0.6305183E+03  0.7818608E-02  0.9844038E-01
         -2   -1    0    0    0  501 -0.00000000000E+00  0.00000000000E+00  0.23646387829E+03  0.23646387830E+03  0.25500000000E-02 0. -1.
          2   -1    0    0  501    0  0.00000000000E+00 -0.00000000000E+00 -0.42031078046E+03  0.42031078046E+03  0.25500000000E-02 0.  1.
    5000001    1    1    2    0    0  0.22464167190E+03  0.14563780522E+03 -0.68887691543E+02  0.32193907050E+03  0.16500000000E+03 0.  0.
   -5000001    1    1    2    0    0 -0.22464167190E+03 -0.14563780522E+03 -0.11495921062E+03  0.33483558827E+03  0.16500000000E+03 0.  0.
<mgrwt>
<rscale>  0 0.63051825E+03</rscale>
<asrwt>0</asrwt>
<pdfrwt beam="1">  1        2 0.64663197E-01 0.63051825E+03</pdfrwt>
<pdfrwt beam="2">  1       -2 0.36379058E-01 0.63051825E+03</pdfrwt>
<totfact> 0.53861802E+02</totfact>
</mgrwt>
</event>
<event>
 4    1  0.3145406E-005  0.4481583E+03  0.7818608E-02  0.1028273E+00
          2   -1    0    0  501    0  0.00000000000E+00  0.00000000000E+00  0.73280282034E+03  0.73280282035E+03  0.25500000000E-02 0.  1.
         -2   -1    0    0    0  501 -0.00000000000E+00 -0.00000000000E+00 -0.68519752552E+02  0.68519752600E+02  0.25500000000E-02 0. -1.
    5000001    1    1    2    0    0  0.39560218077E+02  0.71301279723E+02  0.10359752203E+03  0.21120210680E+03  0.16500000000E+03 0.  0.
   -5000001    1    1    2    0    0 -0.39560218077E+02 -0.71301279723E+02  0.56068554576E+03  0.59012046615E+03  0.16500000000E+03 0.  0.
<mgrwt>
<rscale>  0 0.44815831E+03</rscale>
<asrwt>0</asrwt>
<pdfrwt beam="1">  1        2 0.11273890E+00 0.44815831E+03</pdfrwt>
<pdfrwt beam="2">  1       -2 0.10541500E-01 0.44815831E+03</pdfrwt>
<totfact> 0.24279887E+03</totfact>
</mgrwt>
</event>
<event>
 4    1  0.3145406E-005  0.8252187E+03  0.7818608E-02  0.9524215E-01
          2   -1    0    0  501    0  0.00000000000E+00  0.00000000000E+00  0.38492074043E+04  0.38492074043E+04  0.25500000000E-02 0.  1.
         -2   -1    0    0    0  501 -0.00000000000E+00 -0.00000000000E+00 -0.44228965998E+02  0.44228966071E+02  0.25500000000E-02 0. -1.
    5000001    1    1    2    0    0  0.19966145367E+03 -0.13503899038E+03  0.32773926510E+04  0.32903841438E+04  0.16500000000E+03 0.  0.
   -5000001    1    1    2    0    0 -0.19966145367E+03  0.13503899038E+03  0.52758578733E+03  0.60305222659E+03  0.16500000000E+03 0.  0.
<mgrwt>
<rscale>  0 0.82521867E+03</rscale>
<asrwt>0</asrwt>
<pdfrwt beam="1">  1        2 0.59218563E+00 0.82521867E+03</pdfrwt>
<pdfrwt beam="2">  1       -2 0.68044577E-02 0.82521867E+03</pdfrwt>
<totfact> 0.61974106E+01</totfact>
</mgrwt>
</event>
<event>
 4    1  0.3145406E-005  0.3618063E+03  0.7818608E-02  0.1057871E+00
          2   -1    0    0  501    0  0.00000000000E+00  0.00000000000E+00  0.10967219562E+04  0.10967219562E+04  0.25500000000E-02 0.  1.
         -2   -1    0    0    0  501 -0.00000000000E+00 -0.00000000000E+00 -0.29839793082E+02  0.29839793191E+02  0.25500000000E-02 0. -1.
    5000001    1    1    2    0    0  0.63813908705E+02 -0.35846681384E+02  0.49610807012E+03  0.52792557880E+03  0.16500000000E+03 0.  0.
   -5000001    1    1    2    0    0 -0.63813908705E+02  0.35846681384E+02  0.57077409303E+03  0.59863617062E+03  0.16500000000E+03 0.  0.
<mgrwt>
<rscale>  0 0.36180634E+03</rscale>
<asrwt>0</asrwt>
<pdfrwt beam="1">  1        2 0.16872647E+00 0.36180634E+03</pdfrwt>
<pdfrwt beam="2">  1       -2 0.45907371E-02 0.36180634E+03</pdfrwt>
<totfact> 0.51393254E+03</totfact>
</mgrwt>
</event>
<event>
 4    1  0.3145406E-005  0.3998691E+03  0.7818608E-02  0.1043825E+00
         -2   -1    0    0    0  501 -0.00000000000E+00  0.00000000000E+00  0.26136906151E+03  0.26136906152E+03  0.25500000000E-02 0. -1.
          2   -1    0    0  501    0  0.00000000000E+00 -0.00000000000E+00 -0.15294017097E+03  0.15294017099E+03  0.25500000000E-02 0.  1.
    5000001    1    1    2    0    0 -0.10885027310E+03 -0.40049308151E+01  0.23401518093E+02  0.19909056350E+03  0.16500000000E+03 0.  0.
   -5000001    1    1    2    0    0  0.10885027310E+03  0.40049308151E+01  0.85027372450E+02  0.21521866901E+03  0.16500000000E+03 0.  0.
<mgrwt>
<rscale>  0 0.39986912E+03</rscale>
<asrwt>0</asrwt>
<pdfrwt beam="1">  1        2 0.23529257E-01 0.39986912E+03</pdfrwt>
<pdfrwt beam="2">  1       -2 0.40210624E-01 0.39986912E+03</pdfrwt>
<totfact> 0.13687633E+03</totfact>
</mgrwt>
</event>
<event>
 4    1  0.3145406E-005  0.3640129E+03  0.7818608E-02  0.1057006E+00
          2   -1    0    0  501    0  0.00000000000E+00  0.00000000000E+00  0.33056675184E+03  0.33056675185E+03  0.25500000000E-02 0.  1.
         -2   -1    0    0    0  501 -0.00000000000E+00 -0.00000000000E+00 -0.10021079154E+03  0.10021079157E+03  0.25500000000E-02 0. -1.
    5000001    1    1    2    0    0 -0.68425243969E+02  0.34636310060E+02  0.10992972420E+03  0.21258229524E+03  0.16500000000E+03 0.  0.
   -5000001    1    1    2    0    0  0.68425243969E+02 -0.34636310060E+02  0.12042623610E+03  0.21819524818E+03  0.16500000000E+03 0.  0.
<mgrwt>
<rscale>  0 0.36401294E+03</rscale>
<asrwt>0</asrwt>
<pdfrwt beam="1">  1        2 0.50856423E-01 0.36401294E+03</pdfrwt>
<pdfrwt beam="2">  1       -2 0.15417045E-01 0.36401294E+03</pdfrwt>
<totfact> 0.32311854E+03</totfact>
</mgrwt>
</event>
<event>
 4    1  0.3145406E-005  0.8535856E+03  0.7818608E-02  0.9485537E-01
          2   -1    0    0  501    0  0.00000000000E+00  0.00000000000E+00  0.71418531048E+03  0.71418531048E+03  0.25500000000E-02 0.  1.
         -2   -1    0    0    0  501 -0.00000000000E+00 -0.00000000000E+00 -0.25504877262E+03  0.25504877263E+03  0.25500000000E-02 0. -1.
    5000001    1    1    2    0    0 -0.11079326158E+03 -0.34028717401E+03  0.43485159613E+02  0.39646748506E+03  0.16500000000E+03 0.  0.
   -5000001    1    1    2    0    0  0.11079326158E+03  0.34028717401E+03  0.41565137825E+03  0.57276659805E+03  0.16500000000E+03 0.  0.
<mgrwt>
<rscale>  0 0.85358558E+03</rscale>
<asrwt>0</asrwt>
<pdfrwt beam="1">  1        2 0.10987466E+00 0.85358558E+03</pdfrwt>
<pdfrwt beam="2">  1       -2 0.39238274E-01 0.85358558E+03</pdfrwt>
<totfact> 0.24626222E+02</totfact>
</mgrwt>
</event>
<event>
 4    1  0.3145406E-005  0.3952077E+03  0.7818608E-02  0.1045452E+00
         -2   -1    0    0    0  501 -0.00000000000E+00  0.00000000000E+00  0.16259149418E+02  0.16259149618E+02  0.25500000000E-02 0. -1.
          2   -1    0    0  501    0  0.00000000000E+00 -0.00000000000E+00 -0.24015570204E+04  0.24015570204E+04  0.25500000000E-02 0.  1.
    5000001    1    1    2    0    0  0.49351302675E+02 -0.95397327816E+02 -0.12961242348E+04  0.13109916984E+04  0.16500000000E+03 0.  0.
   -5000001    1    1    2    0    0 -0.49351302675E+02  0.95397327816E+02 -0.10891736362E+04  0.11068244716E+04  0.16500000000E+03 0.  0.
<mgrwt>
<rscale>  0 0.39520767E+03</rscale>
<asrwt>0</asrwt>
<pdfrwt beam="1">  1        2 0.36947003E+00 0.39520767E+03</pdfrwt>
<pdfrwt beam="2">  1       -2 0.25014095E-02 0.39520767E+03</pdfrwt>
<totfact> 0.24977104E+03</totfact>
</mgrwt>
</event>
<event>
 4    1  0.3145406E-005  0.5875073E+03  0.7818608E-02  0.9931669E-01
         -2   -1    0    0    0  501 -0.00000000000E+00  0.00000000000E+00  0.14501671094E+03  0.14501671096E+03  0.25500000000E-02 0. -1.
          2   -1    0    0  501    0  0.00000000000E+00 -0.00000000000E+00 -0.59504312547E+03  0.59504312547E+03  0.25500000000E-02 0.  1.
    5000001    1    1    2    0    0  0.61020840887E+02 -0.18309413755E+03 -0.38944683403E+02  0.25688264751E+03  0.16500000000E+03 0.  0.
   -5000001    1    1    2    0    0 -0.61020840887E+02  0.18309413755E+03 -0.41108173113E+03  0.48317718892E+03  0.16500000000E+03 0.  0.
<mgrwt>
<rscale>  0 0.58750727E+03</rscale>
<asrwt>0</asrwt>
<pdfrwt beam="1">  1        2 0.91545095E-01 0.58750727E+03</pdfrwt>
<pdfrwt beam="2">  1       -2 0.22310264E-01 0.58750727E+03</pdfrwt>
<totfact> 0.88483628E+02</totfact>
</mgrwt>
</event>
<event>
 4    1  0.3145406E-005  0.4283916E+03  0.7818608E-02  0.1034369E+00
          2   -1    0    0  501    0  0.00000000000E+00  0.00000000000E+00  0.13817521592E+04  0.13817521592E+04  0.25500000000E-02 0.  1.
         -2   -1    0    0    0  501 -0.00000000000E+00 -0.00000000000E+00 -0.33204110471E+02  0.33204110569E+02  0.25500000000E-02 0. -1.
    5000001    1    1    2    0    0 -0.12377104616E+03 -0.55923939137E+02  0.62662760058E+03  0.66206790335E+03  0.16500000000E+03 0.  0.
   -5000001    1    1    2    0    0  0.12377104616E+03  0.55923939137E+02  0.72192044811E+03  0.75288836639E+03  0.16500000000E+03 0.  0.
<mgrwt>
<rscale>  0 0.42839165E+03</rscale>
<asrwt>0</asrwt>
<pdfrwt beam="1">  1        2 0.21257720E+00 0.42839165E+03</pdfrwt>
<pdfrwt beam="2">  1       -2 0.51083259E-02 0.42839165E+03</pdfrwt>
<totfact> 0.29981899E+03</totfact>
</mgrwt>
</event>
<event>
 4    1  0.3145406E-005  0.5339928E+03  0.7818608E-02  0.1005268E+00
          2   -1    0    0  501    0  0.00000000000E+00  0.00000000000E+00  0.35169442162E+04  0.35169442162E+04  0.25500000000E-02 0.  1.
         -2   -1    0    0    0  501 -0.00000000000E+00 -0.00000000000E+00 -0.20269603800E+02  0.20269603961E+02  0.25500000000E-02 0. -1.
    5000001    1    1    2    0    0  0.17364671039E+03  0.11763901494E+03  0.16929367100E+04  0.17138412476E+04  0.16500000000E+03 0.  0.
   -5000001    1    1    2    0    0 -0.17364671039E+03 -0.11763901494E+03  0.18037379024E+04  0.18233725726E+04  0.16500000000E+03 0.  0.
<mgrwt>
<rscale>  0 0.53399276E+03</rscale>
<asrwt>0</asrwt>
<pdfrwt beam="1">  1        2 0.54106819E+00 0.53399276E+03</pdfrwt>
<pdfrwt beam="2">  1       -2 0.31184015E-02 0.53399276E+03</pdfrwt>
<totfact> 0.37436948E+02</totfact>
</mgrwt>
</event>
<event>
 4    1  0.3145406E-005  0.3751784E+03  0.7818608E-02  0.1052730E+00
         -2   -1    0    0    0  501 -0.00000000000E+00  0.00000000000E+00  0.12617534813E+02  0.12617535071E+02  0.25500000000E-02 0. -1.
          2   -1    0    0  501    0  0.00000000000E+00 -0.00000000000E+00 -0.27889525579E+04  0.27889525579E+04  0.25500000000E-02 0.  1.
    5000001    1    1    2    0    0 -0.60812549955E+02 -0.25299259107E+02 -0.18378508274E+04  0.18464178515E+04  0.16500000000E+03 0.  0.
   -5000001    1    1    2    0    0  0.60812549955E+02  0.25299259107E+02 -0.93848419573E+03  0.95515224146E+03  0.16500000000E+03 0.  0.
<mgrwt>
<rscale>  0 0.37517839E+03</rscale>
<asrwt>0</asrwt>
<pdfrwt beam="1">  1        2 0.42906913E+00 0.37517839E+03</pdfrwt>
<pdfrwt beam="2">  1       -2 0.19411614E-02 0.37517839E+03</pdfrwt>
<totfact> 0.22108857E+03</totfact>
</mgrwt>
</event>
<event>
 4    1  0.3145406E-005  0.6645704E+03  0.7818608E-02  0.9779817E-01
         -2   -1    0    0    0  501 -0.00000000000E+00  0.00000000000E+00  0.47530135154E+02  0.47530135222E+02  0.25500000000E-02 0. -1.
          2   -1    0    0  501    0  0.00000000000E+00 -0.00000000000E+00 -0.23230201048E+04  0.23230201048E+04  0.25500000000E-02 0.  1.
    5000001    1    1    2    0    0 -0.14619578382E+03  0.19998647843E+03 -0.16646618618E+04  0.16910623622E+04  0.16500000000E+03 0.  0.
   -5000001    1    1    2    0    0  0.14619578382E+03 -0.19998647843E+03 -0.61082810788E+03  0.67948787785E+03  0.16500000000E+03 0.  0.
<mgrwt>
<rscale>  0 0.66457042E+03</rscale>
<asrwt>0</asrwt>
<pdfrwt beam="1">  1        2 0.35738762E+00 0.66457042E+03</pdfrwt>
<pdfrwt beam="2">  1       -2 0.73123303E-02 0.66457042E+03</pdfrwt>
<totfact> 0.51941462E+02</totfact>
</mgrwt>
</event>
<event>
 4    1  0.3145406E-005  0.5513814E+03  0.7818608E-02  0.1001175E+00
          2   -1    0    0  501    0  0.00000000000E+00  0.00000000000E+00  0.12051906386E+03  0.12051906389E+03  0.25500000000E-02 0.  1.
         -2   -1    0    0    0  501 -0.00000000000E+00 -0.00000000000E+00 -0.63065006873E+03  0.63065006874E+03  0.25500000000E-02 0. -1.
    5000001    1    1    2    0    0  0.16783290838E+03  0.88531976254E+02 -0.40904348098E+03  0.48015348097E+03  0.16500000000E+03 0.  0.
   -5000001    1    1    2    0    0 -0.16783290838E+03 -0.88531976254E+02 -0.10108752389E+03  0.27101565166E+03  0.16500000000E+03 0.  0.
<mgrwt>
<rscale>  0 0.55138138E+03</rscale>
<asrwt>0</asrwt>
<pdfrwt beam="1">  1        2 0.18541395E-01 0.55138138E+03</pdfrwt>
<pdfrwt beam="2">  1       -2 0.97023086E-01 0.55138138E+03</pdfrwt>
<totfact> 0.27898569E+02</totfact>
</mgrwt>
</event>
<event>
 4    1  0.3145406E-005  0.7582909E+03  0.7818608E-02  0.9622432E-01
         -2   -1    0    0    0  501 -0.00000000000E+00  0.00000000000E+00  0.31190173040E+03  0.31190173041E+03  0.25500000000E-02 0. -1.
          2   -1    0    0  501    0  0.00000000000E+00 -0.00000000000E+00 -0.46088643654E+03  0.46088643655E+03  0.25500000000E-02 0.  1.
    5000001    1    1    2    0    0 -0.15370412007E+03 -0.29269755574E+03  0.12159446056E+02  0.36968860922E+03  0.16500000000E+03 0.  0.
   -5000001    1    1    2    0    0  0.15370412007E+03  0.29269755574E+03 -0.16114415220E+03  0.40309955774E+03  0.16500000000E+03 0.  0.
<mgrwt>
<rscale>  0 0.75829091E+03</rscale>
<asrwt>0</asrwt>
<pdfrwt beam="1">  1        2 0.70905606E-01 0.75829091E+03</pdfrwt>
<pdfrwt beam="2">  1       -2 0.47984881E-01 0.75829091E+03</pdfrwt>
<totfact> 0.28065951E+02</totfact>
</mgrwt>
</event>
<event>
 4    1  0.3145406E-005  0.3792147E+03  0.7818608E-02  0.1051224E+00
         -2   -1    0    0    0  501 -0.00000000000E+00  0.00000000000E+00  0.17489604550E+02  0.17489604736E+02  0.25500000000E-02 0. -1.
          2   -1    0    0  501    0  0.00000000000E+00 -0.00000000000E+00 -0.20555608778E+04  0.20555608778E+04  0.25500000000E-02 0.  1.
    5000001    1    1    2    0    0  0.13191728315E+02  0.91817945665E+02 -0.95880512011E+03  0.97731101252E+03  0.16500000000E+03 0.  0.
   -5000001    1    1    2    0    0 -0.13191728315E+02 -0.91817945665E+02 -0.10792661531E+04  0.10957394700E+04  0.16500000000E+03 0.  0.
<mgrwt>
<rscale>  0 0.37921470E+03</rscale>
<asrwt>0</asrwt>
<pdfrwt beam="1">  1        2 0.31623994E+00 0.37921470E+03</pdfrwt>
<pdfrwt beam="2">  1       -2 0.26907100E-02 0.37921470E+03</pdfrwt>
<totfact> 0.34473279E+03</totfact>
</mgrwt>
</event>
<event>
 4    1  0.3145406E-005  0.5534772E+03  0.7818608E-02  0.1000692E+00
         -2   -1    0    0    0  501 -0.00000000000E+00  0.00000000000E+00  0.88867677197E+02  0.88867677234E+02  0.25500000000E-02 0. -1.
          2   -1    0    0  501    0  0.00000000000E+00 -0.00000000000E+00 -0.86177852363E+03  0.86177852364E+03  0.25500000000E-02 0.  1.
    5000001    1    1    2    0    0  0.35434127176E+02 -0.18592338980E+03 -0.18662247475E+03  0.31285145409E+03  0.16500000000E+03 0.  0.
   -5000001    1    1    2    0    0 -0.35434127176E+02  0.18592338980E+03 -0.58628837169E+03  0.63779474678E+03  0.16500000000E+03 0.  0.
<mgrwt>
<rscale>  0 0.55347721E+03</rscale>
<asrwt>0</asrwt>
<pdfrwt beam="1">  1        2 0.13258131E+00 0.55347721E+03</pdfrwt>
<pdfrwt beam="2">  1       -2 0.13671951E-01 0.55347721E+03</pdfrwt>
<totfact> 0.12824162E+03</totfact>
</mgrwt>
</event>
<event>
 4    1  0.3145406E-005  0.1011649E+04  0.7818608E-02  0.9295860E-01
         -2   -1    0    0    0  501 -0.00000000000E+00  0.00000000000E+00  0.71994714838E+02  0.71994714883E+02  0.25500000000E-02 0. -1.
          2   -1    0    0  501    0  0.00000000000E+00 -0.00000000000E+00 -0.35538516463E+04  0.35538516463E+04  0.25500000000E-02 0.  1.
    5000001    1    1    2    0    0  0.14975201013E+03 -0.45410116281E+03 -0.17411902641E+04  0.18131745824E+04  0.16500000000E+03 0.  0.
   -5000001    1    1    2    0    0 -0.14975201013E+03  0.45410116281E+03 -0.17406666674E+04  0.18126717787E+04  0.16500000000E+03 0.  0.
<mgrwt>
<rscale>  0 0.10116492E+04</rscale>
<asrwt>0</asrwt>
<pdfrwt beam="1">  1        2 0.54674627E+00 0.10116492E+04</pdfrwt>
<pdfrwt beam="2">  1       -2 0.11076113E-01 0.10116492E+04</pdfrwt>
<totfact> 0.45034946E+01</totfact>
</mgrwt>
</event>
<event>
 4    1  0.3145406E-005  0.6992168E+03  0.7818608E-02  0.9718572E-01
         -2   -1    0    0    0  501 -0.00000000000E+00  0.00000000000E+00  0.86404583644E+02  0.86404583682E+02  0.25500000000E-02 0. -1.
          2   -1    0    0  501    0  0.00000000000E+00 -0.00000000000E+00 -0.14145782928E+04  0.14145782928E+04  0.25500000000E-02 0.  1.
    5000001    1    1    2    0    0 -0.29334749021E+03  0.94563219660E+02 -0.66938694931E+03  0.75518132950E+03  0.16500000000E+03 0.  0.
   -5000001    1    1    2    0    0  0.29334749021E+03 -0.94563219660E+02 -0.65878675981E+03  0.74580154694E+03  0.16500000000E+03 0.  0.
<mgrwt>
<rscale>  0 0.69921684E+03</rscale>
<asrwt>0</asrwt>
<pdfrwt beam="1">  1        2 0.21762741E+00 0.69921684E+03</pdfrwt>
<pdfrwt beam="2">  1       -2 0.13293014E-01 0.69921684E+03</pdfrwt>
<totfact> 0.61748257E+02</totfact>
</mgrwt>
</event>
<event>
 4    1  0.3145406E-005  0.8358701E+03  0.7818608E-02  0.9509500E-01
         -2   -1    0    0    0  501 -0.00000000000E+00  0.00000000000E+00  0.60041851838E+02  0.60041851892E+02  0.25500000000E-02 0. -1.
          2   -1    0    0  501    0  0.00000000000E+00 -0.00000000000E+00 -0.29091324490E+04  0.29091324490E+04  0.25500000000E-02 0.  1.
    5000001    1    1    2    0    0  0.30621724036E+03 -0.14762212976E+03 -0.20588227602E+04  0.20932122323E+04  0.16500000000E+03 0.  0.
   -5000001    1    1    2    0    0 -0.30621724036E+03  0.14762212976E+03 -0.79026783691E+03  0.87596206855E+03  0.16500000000E+03 0.  0.
<mgrwt>
<rscale>  0 0.83587008E+03</rscale>
<asrwt>0</asrwt>
<pdfrwt beam="1">  1        2 0.44755873E+00 0.83587008E+03</pdfrwt>
<pdfrwt beam="2">  1       -2 0.92372102E-02 0.83587008E+03</pdfrwt>
<totfact> 0.16133536E+02</totfact>
</mgrwt>
</event>
<event>
 4    1  0.3145406E-005  0.4673063E+03  0.7818608E-02  0.1022683E+00
          2   -1    0    0  501    0  0.00000000000E+00  0.00000000000E+00  0.13797501369E+04  0.13797501369E+04  0.25500000000E-02 0. -1.
         -2   -1    0    0    0  501 -0.00000000000E+00 -0.00000000000E+00 -0.39567887102E+02  0.39567887184E+02  0.25500000000E-02 0.  1.
    5000001    1    1    2    0    0  0.15257709355E+03 -0.44951031665E+02  0.80822455508E+03  0.84009064759E+03  0.16500000000E+03 0.  0.
   -5000001    1    1    2    0    0 -0.15257709355E+03  0.44951031665E+02  0.53195769475E+03  0.57922737653E+03  0.16500000000E+03 0.  0.
<mgrwt>
<rscale>  0 0.46730631E+03</rscale>
<asrwt>0</asrwt>
<pdfrwt beam="1">  1        2 0.21226924E+00 0.46730631E+03</pdfrwt>
<pdfrwt beam="2">  1       -2 0.60873677E-02 0.46730631E+03</pdfrwt>
<totfact> 0.22893919E+03</totfact>
</mgrwt>
</event>
<event>
 4    1  0.3145406E-005  0.4570958E+03  0.7818608E-02  0.1025627E+00
         -2   -1    0    0    0  501 -0.00000000000E+00  0.00000000000E+00  0.96613547553E+02  0.96613547587E+02  0.25500000000E-02 0. -1.
          2   -1    0    0  501    0  0.00000000000E+00 -0.00000000000E+00 -0.54065037698E+03  0.54065037699E+03  0.25500000000E-02 0.  1.
    5000001    1    1    2    0    0  0.11055326188E+03  0.10385704386E+03 -0.28438018392E+03  0.36208479432E+03  0.16500000000E+03 0.  0.
   -5000001    1    1    2    0    0 -0.11055326188E+03 -0.10385704386E+03 -0.15965664550E+03  0.27517913025E+03  0.16500000000E+03 0.  0.
<mgrwt>
<rscale>  0 0.45709584E+03</rscale>
<asrwt>0</asrwt>
<pdfrwt beam="1">  1        2 0.83176979E-01 0.45709584E+03</pdfrwt>
<pdfrwt beam="2">  1       -2 0.14863623E-01 0.45709584E+03</pdfrwt>
<totfact> 0.19905458E+03</totfact>
</mgrwt>
</event>
<event>
 4    1  0.3145406E-005  0.9145484E+03  0.7818608E-02  0.9407576E-01
         -2   -1    0    0    0  501 -0.00000000000E+00  0.00000000000E+00  0.12055265088E+03  0.12055265091E+03  0.25500000000E-02 0.  1.
          2   -1    0    0  501    0  0.00000000000E+00 -0.00000000000E+00 -0.17345091643E+04  0.17345091643E+04  0.25500000000E-02 0. -1.
    5000001    1    1    2    0    0 -0.31265341507E+03  0.26345067079E+03 -0.10530436233E+04  0.11416147715E+04  0.16500000000E+03 0.  0.
   -5000001    1    1    2    0    0  0.31265341507E+03 -0.26345067079E+03 -0.56091289010E+03  0.71344704371E+03  0.16500000000E+03 0.  0.
<mgrwt>
<rscale>  0 0.91454836E+03</rscale>
<asrwt>0</asrwt>
<pdfrwt beam="1">  1        2 0.26684755E+00 0.91454836E+03</pdfrwt>
<pdfrwt beam="2">  1       -2 0.18546563E-01 0.91454836E+03</pdfrwt>
<totfact> 0.22985596E+02</totfact>
</mgrwt>
</event>
<event>
 4    1  0.3145406E-005  0.3908167E+03  0.7818608E-02  0.1047007E+00
          2   -1    0    0  501    0  0.00000000000E+00  0.00000000000E+00  0.13421987635E+04  0.13421987635E+04  0.25500000000E-02 0.  1.
         -2   -1    0    0    0  501 -0.00000000000E+00 -0.00000000000E+00 -0.28449161858E+02  0.28449161972E+02  0.25500000000E-02 0. -1.
    5000001    1    1    2    0    0  0.76627355625E+02  0.32068999635E+02  0.88032259249E+03  0.89949599177E+03  0.16500000000E+03 0.  0.
   -5000001    1    1    2    0    0 -0.76627355625E+02 -0.32068999635E+02  0.43342700915E+03  0.47115193370E+03  0.16500000000E+03 0.  0.
<mgrwt>
<rscale>  0 0.39081673E+03</rscale>
<asrwt>0</asrwt>
<pdfrwt beam="1">  1        2 0.20649215E+00 0.39081673E+03</pdfrwt>
<pdfrwt beam="2">  1       -2 0.43767934E-02 0.39081673E+03</pdfrwt>
<totfact> 0.39978830E+03</totfact>
</mgrwt>
</event>
<event>
 4    1  0.3145406E-005  0.4233227E+03  0.7818608E-02  0.1035990E+00
         -2   -1    0    0    0  501 -0.00000000000E+00  0.00000000000E+00  0.35608246763E+02  0.35608246854E+02  0.25500000000E-02 0. -1.
          2   -1    0    0  501    0  0.00000000000E+00 -0.00000000000E+00 -0.12581503074E+04  0.12581503074E+04  0.25500000000E-02 0.  1.
    5000001    1    1    2    0    0  0.40537466620E+02 -0.81563669953E+02 -0.90567692364E+03  0.92507924443E+03  0.16500000000E+03 0.  0.
   -5000001    1    1    2    0    0 -0.40537466620E+02  0.81563669953E+02 -0.31686513704E+03  0.36867930987E+03  0.16500000000E+03 0.  0.
<mgrwt>
<rscale>  0 0.42332270E+03</rscale>
<asrwt>0</asrwt>
<pdfrwt beam="1">  1        2 0.19356155E+00 0.42332270E+03</pdfrwt>
<pdfrwt beam="2">  1       -2 0.54781928E-02 0.42332270E+03</pdfrwt>
<totfact> 0.31587378E+03</totfact>
</mgrwt>
</event>
<event>
 4    1  0.3145406E-005  0.4194390E+03  0.7818608E-02  0.1037249E+00
          2   -1    0    0  501    0  0.00000000000E+00  0.00000000000E+00  0.13373764620E+04  0.13373764620E+04  0.25500000000E-02 0.  1.
         -2   -1    0    0    0  501 -0.00000000000E+00 -0.00000000000E+00 -0.32886972741E+02  0.32886972840E+02  0.25500000000E-02 0. -1.
    5000001    1    1    2    0    0 -0.90785334488E+02 -0.51966372402E+02  0.90136097490E+03  0.92229013217E+03  0.16500000000E+03 0.  0.
   -5000001    1    1    2    0    0  0.90785334488E+02  0.51966372402E+02  0.40312851433E+03  0.44797330265E+03  0.16500000000E+03 0.  0.
<mgrwt>
<rscale>  0 0.41943897E+03</rscale>
<asrwt>0</asrwt>
<pdfrwt beam="1">  1        2 0.20575012E+00 0.41943897E+03</pdfrwt>
<pdfrwt beam="2">  1       -2 0.50595368E-02 0.41943897E+03</pdfrwt>
<totfact> 0.32213914E+03</totfact>
</mgrwt>
</event>
<event>
 4    1  0.3145406E-005  0.4307959E+03  0.7818608E-02  0.1033609E+00
          2   -1    0    0  501    0  0.00000000000E+00  0.00000000000E+00  0.16876356937E+04  0.16876356937E+04  0.25500000000E-02 0.  1.
         -2   -1    0    0    0  501 -0.00000000000E+00 -0.00000000000E+00 -0.27491883497E+02  0.27491883615E+02  0.25500000000E-02 0. -1.
    5000001    1    1    2    0    0 -0.74487235474E+02 -0.40281109704E+01  0.36566207851E+03  0.40804206840E+03  0.16500000000E+03 0.  0.
   -5000001    1    1    2    0    0  0.74487235474E+02  0.40281109704E+01  0.12944817317E+04  0.13070855089E+04  0.16500000000E+03 0.  0.
<mgrwt>
<rscale>  0 0.43079593E+03</rscale>
<asrwt>0</asrwt>
<pdfrwt beam="1">  1        2 0.25963628E+00 0.43079593E+03</pdfrwt>
<pdfrwt beam="2">  1       -2 0.42295202E-02 0.43079593E+03</pdfrwt>
<totfact> 0.27299601E+03</totfact>
</mgrwt>
</event>
<event>
 4    1  0.3145406E-005  0.4045260E+03  0.7818608E-02  0.1042224E+00
          2   -1    0    0  501    0  0.00000000000E+00  0.00000000000E+00  0.26250582146E+04  0.26250582146E+04  0.25500000000E-02 0.  1.
         -2   -1    0    0    0  501 -0.00000000000E+00 -0.00000000000E+00 -0.15584538545E+02  0.15584538753E+02  0.25500000000E-02 0. -1.
    5000001    1    1    2    0    0 -0.80432386564E+02  0.56851435486E+02  0.17167542864E+04  0.17274755380E+04  0.16500000000E+03 0.  0.
   -5000001    1    1    2    0    0  0.80432386564E+02 -0.56851435486E+02  0.89271938964E+03  0.91316721534E+03  0.16500000000E+03 0.  0.
<mgrwt>
<rscale>  0 0.40452600E+03</rscale>
<asrwt>0</asrwt>
<pdfrwt beam="1">  1        2 0.40385460E+00 0.40452600E+03</pdfrwt>
<pdfrwt beam="2">  1       -2 0.23976244E-02 0.40452600E+03</pdfrwt>
<totfact> 0.19969699E+03</totfact>
</mgrwt>
</event>
<event>
 4    1  0.3145406E-005  0.6139555E+03  0.7818608E-02  0.9876868E-01
         -2   -1    0    0    0  501 -0.00000000000E+00  0.00000000000E+00  0.85784148331E+02  0.85784148369E+02  0.25500000000E-02 0. -1.
          2   -1    0    0  501    0  0.00000000000E+00 -0.00000000000E+00 -0.10985170992E+04  0.10985170992E+04  0.25500000000E-02 0.  1.
    5000001    1    1    2    0    0 -0.18372887977E+03  0.17304964956E+03 -0.39542356306E+03  0.49727987763E+03  0.16500000000E+03 0.  0.
   -5000001    1    1    2    0    0  0.18372887977E+03 -0.17304964956E+03 -0.61730938779E+03  0.68702136992E+03  0.16500000000E+03 0.  0.
<mgrwt>
<rscale>  0 0.61395555E+03</rscale>
<asrwt>0</asrwt>
<pdfrwt beam="1">  1        2 0.16900262E+00 0.61395555E+03</pdfrwt>
<pdfrwt beam="2">  1       -2 0.13197562E-01 0.61395555E+03</pdfrwt>
<totfact> 0.95776494E+02</totfact>
</mgrwt>
</event>
<event>
 4    1  0.3145406E-005  0.5232072E+03  0.7818608E-02  0.1007893E+00
         -2   -1    0    0    0  501 -0.00000000000E+00  0.00000000000E+00  0.17062991791E+03  0.17062991793E+03  0.25500000000E-02 0. -1.
          2   -1    0    0  501    0  0.00000000000E+00 -0.00000000000E+00 -0.40108120619E+03  0.40108120620E+03  0.25500000000E-02 0.  1.
    5000001    1    1    2    0    0 -0.87590371718E+02 -0.12526452540E+03  0.30756538704E+02  0.22701153982E+03  0.16500000000E+03 0.  0.
   -5000001    1    1    2    0    0  0.87590371718E+02  0.12526452540E+03 -0.26120782699E+03  0.34469958431E+03  0.16500000000E+03 0.  0.
<mgrwt>
<rscale>  0 0.52320724E+03</rscale>
<asrwt>0</asrwt>
<pdfrwt beam="1">  1        2 0.61704801E-01 0.52320724E+03</pdfrwt>
<pdfrwt beam="2">  1       -2 0.26250757E-01 0.52320724E+03</pdfrwt>
<totfact> 0.10416741E+03</totfact>
</mgrwt>
</event>
<event>
 4    1  0.3145406E-005  0.8148416E+03  0.7818608E-02  0.9538780E-01
          2   -1    0    0  501    0  0.00000000000E+00  0.00000000000E+00  0.26098684087E+04  0.26098684087E+04  0.25500000000E-02 0.  1.
         -2   -1    0    0    0  501 -0.00000000000E+00 -0.00000000000E+00 -0.63601563848E+02  0.63601563899E+02  0.25500000000E-02 0. -1.
    5000001    1    1    2    0    0 -0.18112394834E+03 -0.26353338093E+03  0.19000559645E+04  0.19338286883E+04  0.16500000000E+03 0.  0.
   -5000001    1    1    2    0    0  0.18112394834E+03  0.26353338093E+03  0.64621088034E+03  0.73964128427E+03  0.16500000000E+03 0.  0.
<mgrwt>
<rscale>  0 0.81484161E+03</rscale>
<asrwt>0</asrwt>
<pdfrwt beam="1">  1        2 0.40151819E+00 0.81484161E+03</pdfrwt>
<pdfrwt beam="2">  1       -2 0.97848566E-02 0.81484161E+03</pdfrwt>
<totfact> 0.22098111E+02</totfact>
</mgrwt>
</event>
<event>
 4    1  0.3145406E-005  0.6044292E+03  0.7818608E-02  0.9896259E-01
          2   -1    0    0  501    0  0.00000000000E+00  0.00000000000E+00  0.66857815271E+03  0.66857815272E+03  0.25500000000E-02 0.  1.
         -2   -1    0    0    0  501 -0.00000000000E+00 -0.00000000000E+00 -0.13660882026E+03  0.13660882029E+03  0.25500000000E-02 0. -1.
    5000001    1    1    2    0    0 -0.71937097716E+02 -0.17397388600E+03  0.49153371253E+03  0.55160878310E+03  0.16500000000E+03 0.  0.
   -5000001    1    1    2    0    0  0.71937097716E+02  0.17397388600E+03  0.40435619915E+02  0.25357818990E+03  0.16500000000E+03 0.  0.
<mgrwt>
<rscale>  0 0.60442923E+03</rscale>
<asrwt>0</asrwt>
<pdfrwt beam="1">  1        2 0.10285818E+00 0.60442923E+03</pdfrwt>
<pdfrwt beam="2">  1       -2 0.21016741E-01 0.60442923E+03</pdfrwt>
<totfact> 0.85299669E+02</totfact>
</mgrwt>
</event>
<event>
 4    1  0.3145406E-005  0.3963197E+03  0.7818608E-02  0.1045062E+00
         -2   -1    0    0    0  501 -0.00000000000E+00  0.00000000000E+00  0.55106602395E+02  0.55106602454E+02  0.25500000000E-02 0. -1.
          2   -1    0    0  501    0  0.00000000000E+00 -0.00000000000E+00 -0.71257023717E+03  0.71257023718E+03  0.25500000000E-02 0.  1.
    5000001    1    1    2    0    0  0.10481742961E+03 -0.28984576282E+02 -0.30029492290E+03  0.35948413030E+03  0.16500000000E+03 0.  0.
   -5000001    1    1    2    0    0 -0.10481742961E+03  0.28984576282E+02 -0.35716871187E+03  0.40819270934E+03  0.16500000000E+03 0.  0.
<mgrwt>
<rscale>  0 0.39631969E+03</rscale>
<asrwt>0</asrwt>
<pdfrwt beam="1">  1        2 0.10962618E+00 0.39631969E+03</pdfrwt>
<pdfrwt beam="2">  1       -2 0.84779394E-02 0.39631969E+03</pdfrwt>
<totfact> 0.35598608E+03</totfact>
</mgrwt>
</event>
<event>
 4    1  0.3145406E-005  0.8073976E+03  0.7818608E-02  0.9549371E-01
         -2   -1    0    0    0  501 -0.00000000000E+00  0.00000000000E+00  0.71481805242E+03  0.71481805242E+03  0.25500000000E-02 0. -1.
          2   -1    0    0  501    0  0.00000000000E+00 -0.00000000000E+00 -0.22799188371E+03  0.22799188373E+03  0.25500000000E-02 0.  1.
    5000001    1    1    2    0    0 -0.16929761498E+03  0.33064488789E+01  0.62551652528E+03  0.66870661612E+03  0.16500000000E+03 0.  0.
   -5000001    1    1    2    0    0  0.16929761498E+03 -0.33064488789E+01 -0.13869035658E+03  0.27410332003E+03  0.16500000000E+03 0.  0.
<mgrwt>
<rscale>  0 0.80739758E+03</rscale>
<asrwt>0</asrwt>
<pdfrwt beam="1">  1        2 0.35075675E-01 0.80739758E+03</pdfrwt>
<pdfrwt beam="2">  1       -2 0.10997201E+00 0.80739758E+03</pdfrwt>
<totfact> 0.98777168E+01</totfact>
</mgrwt>
</event>
<event>
 4    1  0.3145406E-005  0.4932774E+03  0.7818608E-02  0.1015549E+00
          2   -1    0    0  501    0  0.00000000000E+00  0.00000000000E+00  0.15147306442E+04  0.15147306442E+04  0.25500000000E-02 0.  1.
         -2   -1    0    0    0  501 -0.00000000000E+00 -0.00000000000E+00 -0.40159378989E+02  0.40159379069E+02  0.25500000000E-02 0. -1.
    5000001    1    1    2    0    0 -0.17097444764E+03  0.66041344789E+02  0.72640217940E+03  0.76712374960E+03  0.16500000000E+03 0.  0.
   -5000001    1    1    2    0    0  0.17097444764E+03 -0.66041344789E+02  0.74816908579E+03  0.78776627365E+03  0.16500000000E+03 0.  0.
<mgrwt>
<rscale>  0 0.49327737E+03</rscale>
<asrwt>0</asrwt>
<pdfrwt beam="1">  1        2 0.23303548E+00 0.49327737E+03</pdfrwt>
<pdfrwt beam="2">  1       -2 0.61783662E-02 0.49327737E+03</pdfrwt>
<totfact> 0.18829741E+03</totfact>
</mgrwt>
</event>
<event>
 4    1  0.3145406E-005  0.6186174E+03  0.7818608E-02  0.9867516E-01
         -2   -1    0    0    0  501 -0.00000000000E+00  0.00000000000E+00  0.77820957189E+02  0.77820957231E+02  0.25500000000E-02 0.  1.
          2   -1    0    0  501    0  0.00000000000E+00 -0.00000000000E+00 -0.12293844792E+04  0.12293844792E+04  0.25500000000E-02 0. -1.
    5000001    1    1    2    0    0 -0.13450478982E+03  0.21161093040E+03 -0.73357523139E+03  0.79260856951E+03  0.16500000000E+03 0.  0.
   -5000001    1    1    2    0    0  0.13450478982E+03 -0.21161093040E+03 -0.41798829062E+03  0.51459686692E+03  0.16500000000E+03 0.  0.
<mgrwt>
<rscale>  0 0.61861742E+03</rscale>
<asrwt>0</asrwt>
<pdfrwt beam="1">  1        2 0.18913606E+00 0.61861742E+03</pdfrwt>
<pdfrwt beam="2">  1       -2 0.11972456E-01 0.61861742E+03</pdfrwt>
<totfact> 0.94058993E+02</totfact>
</mgrwt>
</event>
<event>
 4    1  0.3145406E-005  0.4830932E+03  0.7818608E-02  0.1018289E+00
          2   -1    0    0  501    0  0.00000000000E+00  0.00000000000E+00  0.21896168700E+03  0.21896168701E+03  0.25500000000E-02 0.  1.
         -2   -1    0    0    0  501 -0.00000000000E+00 -0.00000000000E+00 -0.26646108739E+03  0.26646108741E+03  0.25500000000E-02 0. -1.
    5000001    1    1    2    0    0  0.13274535241E+03  0.20404023847E+02  0.91178920485E+02  0.23146543655E+03  0.16500000000E+03 0.  0.
   -5000001    1    1    2    0    0 -0.13274535241E+03 -0.20404023847E+02 -0.13867832088E+03  0.25395733787E+03  0.16500000000E+03 0.  0.
<mgrwt>
<rscale>  0 0.48309324E+03</rscale>
<asrwt>0</asrwt>
<pdfrwt beam="1">  1        2 0.33686413E-01 0.48309324E+03</pdfrwt>
<pdfrwt beam="2">  1       -2 0.40994014E-01 0.48309324E+03</pdfrwt>
<totfact> 0.88237803E+02</totfact>
</mgrwt>
</event>
<event>
 4    1  0.3145406E-005  0.6896290E+03  0.7818608E-02  0.9735134E-01
         -2   -1    0    0    0  501 -0.00000000000E+00  0.00000000000E+00  0.40173263270E+02  0.40173263351E+02  0.25500000000E-02 0. -1.
          2   -1    0    0  501    0  0.00000000000E+00 -0.00000000000E+00 -0.29596063278E+04  0.29596063278E+04  0.25500000000E-02 0.  1.
    5000001    1    1    2    0    0  0.20673774205E+03  0.63677110436E+02 -0.23811938413E+04  0.23966861243E+04  0.16500000000E+03 0.  0.
   -5000001    1    1    2    0    0 -0.20673774205E+03 -0.63677110436E+02 -0.53823922321E+03  0.60309346687E+03  0.16500000000E+03 0.  0.
<mgrwt>
<rscale>  0 0.68962901E+03</rscale>
<asrwt>0</asrwt>
<pdfrwt beam="1">  1        2 0.45532388E+00 0.68962901E+03</pdfrwt>
<pdfrwt beam="2">  1       -2 0.61805044E-02 0.68962901E+03</pdfrwt>
<totfact> 0.29009364E+02</totfact>
</mgrwt>
</event>
<event>
 4    1  0.3145406E-005  0.5706206E+03  0.7818608E-02  0.9968306E-01
          2   -1    0    0  501    0  0.00000000000E+00  0.00000000000E+00  0.29306208279E+04  0.29306208279E+04  0.25500000000E-02 0.  1.
         -2   -1    0    0    0  501 -0.00000000000E+00 -0.00000000000E+00 -0.27776352843E+02  0.27776352960E+02  0.25500000000E-02 0. -1.
    5000001    1    1    2    0    0  0.13819984822E+03  0.18331116675E+03  0.12523218283E+04  0.12838368836E+04  0.16500000000E+03 0.  0.
   -5000001    1    1    2    0    0 -0.13819984822E+03 -0.18331116675E+03  0.16505226467E+04  0.16745602972E+04  0.16500000000E+03 0.  0.
<mgrwt>
<rscale>  0 0.57062057E+03</rscale>
<asrwt>0</asrwt>
<pdfrwt beam="1">  1        2 0.45086442E+00 0.57062057E+03</pdfrwt>
<pdfrwt beam="2">  1       -2 0.42732881E-02 0.57062057E+03</pdfrwt>
<totfact> 0.54325049E+02</totfact>
</mgrwt>
</event>
<event>
 4    1  0.3145406E-005  0.5067309E+03  0.7818608E-02  0.1012037E+00
          2   -1    0    0  501    0  0.00000000000E+00  0.00000000000E+00  0.46869373297E+03  0.46869373298E+03  0.25500000000E-02 0.  1.
         -2   -1    0    0    0  501 -0.00000000000E+00 -0.00000000000E+00 -0.13696372557E+03  0.13696372560E+03  0.25500000000E-02 0. -1.
    5000001    1    1    2    0    0  0.19032764447E+03 -0.27283346835E+02  0.16560708878E+03  0.30268746442E+03  0.16500000000E+03 0.  0.
   -5000001    1    1    2    0    0 -0.19032764447E+03  0.27283346835E+02  0.16612291862E+03  0.30296999415E+03  0.16500000000E+03 0.  0.
<mgrwt>
<rscale>  0 0.50673085E+03</rscale>
<asrwt>0</asrwt>
<pdfrwt beam="1">  1        2 0.72106729E-01 0.50673085E+03</pdfrwt>
<pdfrwt beam="2">  1       -2 0.21071342E-01 0.50673085E+03</pdfrwt>
<totfact> 0.12919100E+03</totfact>
</mgrwt>
</event>
<event>
 4    1  0.3145406E-005  0.4658137E+03  0.7818608E-02  0.1023108E+00
          2   -1    0    0  501    0  0.00000000000E+00  0.00000000000E+00  0.14849115973E+04  0.14849115973E+04  0.25500000000E-02 0.  1.
         -2   -1    0    0    0  501 -0.00000000000E+00 -0.00000000000E+00 -0.36531192989E+02  0.36531193078E+02  0.25500000000E-02 0. -1.
    5000001    1    1    2    0    0 -0.64993965982E+01  0.16008131985E+03  0.60407905569E+03  0.64637819939E+03  0.16500000000E+03 0.  0.
   -5000001    1    1    2    0    0  0.64993965982E+01 -0.16008131985E+03  0.84430134858E+03  0.87506459095E+03  0.16500000000E+03 0.  0.
<mgrwt>
<rscale>  0 0.46581366E+03</rscale>
<asrwt>0</asrwt>
<pdfrwt beam="1">  1        2 0.22844797E+00 0.46581366E+03</pdfrwt>
<pdfrwt beam="2">  1       -2 0.56201827E-02 0.46581366E+03</pdfrwt>
<totfact> 0.22674716E+03</totfact>
</mgrwt>
</event>
<event>
 4    1  0.3145406E-005  0.4285127E+03  0.7818608E-02  0.1034331E+00
          2   -1    0    0  501    0  0.00000000000E+00  0.00000000000E+00  0.26259603102E+04  0.26259603102E+04  0.25500000000E-02 0.  1.
         -2   -1    0    0    0  501 -0.00000000000E+00 -0.00000000000E+00 -0.17481522903E+02  0.17481523089E+02  0.25500000000E-02 0. -1.
    5000001    1    1    2    0    0 -0.50101211350E+02 -0.12715752019E+03  0.13120892284E+04  0.13294669268E+04  0.16500000000E+03 0.  0.
   -5000001    1    1    2    0    0  0.50101211350E+02  0.12715752019E+03  0.12963895589E+04  0.13139749064E+04  0.16500000000E+03 0.  0.
<mgrwt>
<rscale>  0 0.42851271E+03</rscale>
<asrwt>0</asrwt>
<pdfrwt beam="1">  1        2 0.40399387E+00 0.42851271E+03</pdfrwt>
<pdfrwt beam="2">  1       -2 0.26894652E-02 0.42851271E+03</pdfrwt>
<totfact> 0.16757853E+03</totfact>
</mgrwt>
</event>
<event>
 4    1  0.3145406E-005  0.6759983E+03  0.7818608E-02  0.9759182E-01
         -2   -1    0    0    0  501 -0.00000000000E+00  0.00000000000E+00  0.84414171707E+02  0.84414171745E+02  0.25500000000E-02 0. -1.
          2   -1    0    0  501    0  0.00000000000E+00 -0.00000000000E+00 -0.13533677474E+04  0.13533677474E+04  0.25500000000E-02 0.  1.
    5000001    1    1    2    0    0 -0.95592274180E+02 -0.20534684965E+03 -0.10364173615E+04  0.10736345555E+04  0.16500000000E+03 0.  0.
   -5000001    1    1    2    0    0  0.95592274180E+02  0.20534684965E+03 -0.23253621421E+03  0.36414736366E+03  0.16500000000E+03 0.  0.
<mgrwt>
<rscale>  0 0.67599828E+03</rscale>
<asrwt>0</asrwt>
<pdfrwt beam="1">  1        2 0.20821041E+00 0.67599828E+03</pdfrwt>
<pdfrwt beam="2">  1       -2 0.12986797E-01 0.67599828E+03</pdfrwt>
<totfact> 0.69594922E+02</totfact>
</mgrwt>
</event>
<event>
 4    1  0.3145406E-005  0.3705424E+03  0.7818608E-02  0.1054486E+00
         -2   -1    0    0    0  501 -0.00000000000E+00  0.00000000000E+00  0.38210176458E+02  0.38210176543E+02  0.25500000000E-02 0.  1.
          2   -1    0    0  501    0  0.00000000000E+00 -0.00000000000E+00 -0.89833200204E+03  0.89833200205E+03  0.25500000000E-02 0. -1.
    5000001    1    1    2    0    0  0.54573136053E+02  0.35737426811E+02 -0.29524750693E+03  0.34445824305E+03  0.16500000000E+03 0.  0.
   -5000001    1    1    2    0    0 -0.54573136053E+02 -0.35737426811E+02 -0.56487431865E+03  0.59208393554E+03  0.16500000000E+03 0.  0.
<mgrwt>
<rscale>  0 0.37054244E+03</rscale>
<asrwt>0</asrwt>
<pdfrwt beam="1">  1        2 0.13820491E+00 0.37054244E+03</pdfrwt>
<pdfrwt beam="2">  1       -2 0.58784894E-02 0.37054244E+03</pdfrwt>
<totfact> 0.46737858E+03</totfact>
</mgrwt>
</event>
<event>
 4    1  0.3145406E-005  0.5256979E+03  0.7818608E-02  0.1007281E+00
         -2   -1    0    0    0  501 -0.00000000000E+00  0.00000000000E+00  0.50504025905E+02  0.50504025969E+02  0.25500000000E-02 0. -1.
          2   -1    0    0  501    0  0.00000000000E+00 -0.00000000000E+00 -0.13680012608E+04  0.13680012608E+04  0.25500000000E-02 0.  1.
    5000001    1    1    2    0    0  0.35645687392E+02 -0.13285416294E+03 -0.25002785226E+03  0.32963581502E+03  0.16500000000E+03 0.  0.
   -5000001    1    1    2    0    0 -0.35645687392E+02  0.13285416294E+03 -0.10674693826E+04  0.10888694717E+04  0.16500000000E+03 0.  0.
<mgrwt>
<rscale>  0 0.52569790E+03</rscale>
<asrwt>0</asrwt>
<pdfrwt beam="1">  1        2 0.21046170E+00 0.52569790E+03</pdfrwt>
<pdfrwt beam="2">  1       -2 0.77698512E-02 0.52569790E+03</pdfrwt>
<totfact> 0.15811758E+03</totfact>
</mgrwt>
</event>
<event>
 4    1  0.3145406E-005  0.5736289E+03  0.7818608E-02  0.9961680E-01
         -2   -1    0    0    0  501 -0.00000000000E+00  0.00000000000E+00  0.64785809327E+02  0.64785809377E+02  0.25500000000E-02 0. -1.
          2   -1    0    0  501    0  0.00000000000E+00 -0.00000000000E+00 -0.12697616307E+04  0.12697616307E+04  0.25500000000E-02 0.  1.
    5000001    1    1    2    0    0  0.18423216334E+03 -0.14143297644E+03 -0.52558106598E+03  0.59783378438E+03  0.16500000000E+03 0.  0.
   -5000001    1    1    2    0    0 -0.18423216334E+03  0.14143297644E+03 -0.67939475537E+03  0.73671365567E+03  0.16500000000E+03 0.  0.
<mgrwt>
<rscale>  0 0.57362892E+03</rscale>
<asrwt>0</asrwt>
<pdfrwt beam="1">  1        2 0.19534792E+00 0.57362892E+03</pdfrwt>
<pdfrwt beam="2">  1       -2 0.99670486E-02 0.57362892E+03</pdfrwt>
<totfact> 0.12043855E+03</totfact>
</mgrwt>
</event>
<event>
 4    1  0.3145406E-005  0.4281788E+03  0.7818608E-02  0.1034437E+00
         -2   -1    0    0    0  501 -0.00000000000E+00  0.00000000000E+00  0.52528782036E+03  0.52528782036E+03  0.25500000000E-02 0. -1.
          2   -1    0    0  501    0  0.00000000000E+00 -0.00000000000E+00 -0.87255548402E+02  0.87255548440E+02  0.25500000000E-02 0.  1.
    5000001    1    1    2    0    0 -0.61410198524E+02  0.12172290385E+03  0.21236755562E+03  0.30151725736E+03  0.16500000000E+03 0.  0.
   -5000001    1    1    2    0    0  0.61410198524E+02 -0.12172290385E+03  0.22566471633E+03  0.31102611145E+03  0.16500000000E+03 0.  0.
<mgrwt>
<rscale>  0 0.42817883E+03</rscale>
<asrwt>0</asrwt>
<pdfrwt beam="1">  1        2 0.13423930E-01 0.42817883E+03</pdfrwt>
<pdfrwt beam="2">  1       -2 0.80813511E-01 0.42817883E+03</pdfrwt>
<totfact> 0.62444083E+02</totfact>
</mgrwt>
</event>
<event>
 4    1  0.3145406E-005  0.4956508E+03  0.7818608E-02  0.1014920E+00
          2   -1    0    0  501    0  0.00000000000E+00  0.00000000000E+00  0.21245023001E+04  0.21245023001E+04  0.25500000000E-02 0.  1.
         -2   -1    0    0    0  501 -0.00000000000E+00 -0.00000000000E+00 -0.28909085255E+02  0.28909085367E+02  0.25500000000E-02 0. -1.
    5000001    1    1    2    0    0  0.11532505688E+03 -0.40312328391E+02  0.16508607797E+04  0.16635778511E+04  0.16500000000E+03 0.  0.
   -5000001    1    1    2    0    0 -0.11532505688E+03  0.40312328391E+02  0.44473243510E+03  0.48983353438E+03  0.16500000000E+03 0.  0.
<mgrwt>
<rscale>  0 0.49565076E+03</rscale>
<asrwt>0</asrwt>
<pdfrwt beam="1">  1        2 0.32684657E+00 0.49565076E+03</pdfrwt>
<pdfrwt beam="2">  1       -2 0.44475507E-02 0.49565076E+03</pdfrwt>
<totfact> 0.14683955E+03</totfact>
</mgrwt>
</event>
<event>
 4    1  0.3145406E-005  0.3903690E+03  0.7818608E-02  0.1047167E+00
          2   -1    0    0  501    0  0.00000000000E+00  0.00000000000E+00  0.15597589577E+04  0.15597589577E+04  0.25500000000E-02 0.  1.
         -2   -1    0    0    0  501 -0.00000000000E+00 -0.00000000000E+00 -0.24424918992E+02  0.24424919125E+02  0.25500000000E-02 0. -1.
    5000001    1    1    2    0    0 -0.36547054729E+02  0.55852749156E+02  0.10927457100E+04  0.11071465140E+04  0.16500000000E+03 0.  0.
   -5000001    1    1    2    0    0  0.36547054729E+02 -0.55852749156E+02  0.44258832868E+03  0.47703736278E+03  0.16500000000E+03 0.  0.
<mgrwt>
<rscale>  0 0.39036899E+03</rscale>
<asrwt>0</asrwt>
<pdfrwt beam="1">  1        2 0.23996294E+00 0.39036899E+03</pdfrwt>
<pdfrwt beam="2">  1       -2 0.37576794E-02 0.39036899E+03</pdfrwt>
<totfact> 0.38322483E+03</totfact>
</mgrwt>
</event>
<event>
 4    1  0.3145406E-005  0.4523038E+03  0.7818608E-02  0.1027037E+00
          2   -1    0    0  501    0  0.00000000000E+00  0.00000000000E+00  0.35495087878E+03  0.35495087879E+03  0.25500000000E-02 0.  1.
         -2   -1    0    0    0  501 -0.00000000000E+00 -0.00000000000E+00 -0.14408948928E+03  0.14408948931E+03  0.25500000000E-02 0. -1.
    5000001    1    1    2    0    0  0.87736215320E+02  0.11308545967E+03  0.17008362801E+03  0.27683822927E+03  0.16500000000E+03 0.  0.
   -5000001    1    1    2    0    0 -0.87736215320E+02 -0.11308545967E+03  0.40777761484E+02  0.22220213882E+03  0.16500000000E+03 0.  0.
<mgrwt>
<rscale>  0 0.45230384E+03</rscale>
<asrwt>0</asrwt>
<pdfrwt beam="1">  1        2 0.54607827E-01 0.45230384E+03</pdfrwt>
<pdfrwt beam="2">  1       -2 0.22167614E-01 0.45230384E+03</pdfrwt>
<totfact> 0.16104887E+03</totfact>
</mgrwt>
</event>
<event>
 4    1  0.3145406E-005  0.3897577E+03  0.7818608E-02  0.1047385E+00
          2   -1    0    0  501    0  0.00000000000E+00  0.00000000000E+00  0.11241446681E+04  0.11241446681E+04  0.25500000000E-02 0.  1.
         -2   -1    0    0    0  501 -0.00000000000E+00 -0.00000000000E+00 -0.33783694458E+02  0.33783694554E+02  0.25500000000E-02 0. -1.
    5000001    1    1    2    0    0 -0.78220994105E+02 -0.51508041344E+02  0.41294544454E+03  0.45444531289E+03  0.16500000000E+03 0.  0.
   -5000001    1    1    2    0    0  0.78220994105E+02  0.51508041344E+02  0.67741552913E+03  0.70348304980E+03  0.16500000000E+03 0.  0.
<mgrwt>
<rscale>  0 0.38975767E+03</rscale>
<asrwt>0</asrwt>
<pdfrwt beam="1">  1        2 0.17294531E+00 0.38975767E+03</pdfrwt>
<pdfrwt beam="2">  1       -2 0.51974921E-02 0.38975767E+03</pdfrwt>
<totfact> 0.40959002E+03</totfact>
</mgrwt>
</event>
<event>
 4    1  0.3145406E-005  0.3467230E+03  0.7818608E-02  0.1063968E+00
          2   -1    0    0  501    0  0.00000000000E+00  0.00000000000E+00  0.10172269150E+04  0.10172269150E+04  0.25500000000E-02 0.  1.
         -2   -1    0    0    0  501 -0.00000000000E+00 -0.00000000000E+00 -0.29545240260E+02  0.29545240370E+02  0.25500000000E-02 0. -1.
    5000001    1    1    2    0    0 -0.49674823371E+02  0.17330547934E+02  0.47020773763E+03  0.50108707077E+03  0.16500000000E+03 0.  0.
   -5000001    1    1    2    0    0  0.49674823371E+02 -0.17330547934E+02  0.51747393715E+03  0.54568508464E+03  0.16500000000E+03 0.  0.
<mgrwt>
<rscale>  0 0.34672302E+03</rscale>
<asrwt>0</asrwt>
<pdfrwt beam="1">  1        2 0.15649647E+00 0.34672302E+03</pdfrwt>
<pdfrwt beam="2">  1       -2 0.45454208E-02 0.34672302E+03</pdfrwt>
<totfact> 0.58246325E+03</totfact>
</mgrwt>
</event>
<event>
 4    1  0.3145406E-005  0.3450502E+03  0.7818608E-02  0.1064665E+00
         -2   -1    0    0    0  501 -0.00000000000E+00  0.00000000000E+00  0.15066546561E+03  0.15066546563E+03  0.25500000000E-02 0. -1.
          2   -1    0    0  501    0  0.00000000000E+00 -0.00000000000E+00 -0.19755625523E+03  0.19755625525E+03  0.25500000000E-02 0.  1.
    5000001    1    1    2    0    0 -0.39619618199E+02  0.18897105833E+01 -0.54821678690E+02  0.17833592349E+03  0.16500000000E+03 0.  0.
   -5000001    1    1    2    0    0  0.39619618199E+02 -0.18897105833E+01  0.79308890662E+01  0.16988579739E+03  0.16500000000E+03 0.  0.
<mgrwt>
<rscale>  0 0.34505017E+03</rscale>
<asrwt>0</asrwt>
<pdfrwt beam="1">  1        2 0.30393270E-01 0.34505017E+03</pdfrwt>
<pdfrwt beam="2">  1       -2 0.23179302E-01 0.34505017E+03</pdfrwt>
<totfact> 0.28193075E+03</totfact>
</mgrwt>
</event>
<event>
 4    1  0.3145406E-005  0.7040033E+03  0.7818608E-02  0.9710410E-01
          2   -1    0    0  501    0  0.00000000000E+00  0.00000000000E+00  0.23678551135E+03  0.23678551136E+03  0.25500000000E-02 0.  1.
         -2   -1    0    0    0  501 -0.00000000000E+00 -0.00000000000E+00 -0.52328009967E+03  0.52328009967E+03  0.25500000000E-02 0. -1.
    5000001    1    1    2    0    0  0.51217519749E+00  0.30953852916E+03 -0.17501463399E+03  0.39200699671E+03  0.16500000000E+03 0.  0.
   -5000001    1    1    2    0    0 -0.51217519749E+00 -0.30953852916E+03 -0.11147995433E+03  0.36805861432E+03  0.16500000000E+03 0.  0.
<mgrwt>
<rscale>  0 0.70400326E+03</rscale>
<asrwt>0</asrwt>
<pdfrwt beam="1">  1        2 0.36428540E-01 0.70400326E+03</pdfrwt>
<pdfrwt beam="2">  1       -2 0.80504630E-01 0.70400326E+03</pdfrwt>
<totfact> 0.19683626E+02</totfact>
</mgrwt>
</event>
<event>
 4    1  0.3145406E-005  0.5753082E+03  0.7818608E-02  0.9958001E-01
         -2   -1    0    0    0  501 -0.00000000000E+00  0.00000000000E+00  0.73881741898E+02  0.73881741942E+02  0.25500000000E-02 0. -1.
          2   -1    0    0  501    0  0.00000000000E+00 -0.00000000000E+00 -0.11199639069E+04  0.11199639069E+04  0.25500000000E-02 0.  1.
    5000001    1    1    2    0    0 -0.20974362736E+03 -0.66487060494E+02 -0.34810083986E+03  0.44363511261E+03  0.16500000000E+03 0.  0.
   -5000001    1    1    2    0    0  0.20974362736E+03  0.66487060494E+02 -0.69798132515E+03  0.75021053624E+03  0.16500000000E+03 0.  0.
<mgrwt>
<rscale>  0 0.57530821E+03</rscale>
<asrwt>0</asrwt>
<pdfrwt beam="1">  1        2 0.17230213E+00 0.57530821E+03</pdfrwt>
<pdfrwt beam="2">  1       -2 0.11366423E-01 0.57530821E+03</pdfrwt>
<totfact> 0.11908009E+03</totfact>
</mgrwt>
</event>
<event>
 4    1  0.3145406E-005  0.4605495E+03  0.7818608E-02  0.1024622E+00
         -2   -1    0    0    0  501 -0.00000000000E+00  0.00000000000E+00  0.85625980612E+02  0.85625980650E+02  0.25500000000E-02 0. -1.
          2   -1    0    0  501    0  0.00000000000E+00 -0.00000000000E+00 -0.61927996552E+03  0.61927996553E+03  0.25500000000E-02 0.  1.
    5000001    1    1    2    0    0  0.13927461186E+03 -0.79992981816E+02 -0.27030368711E+03  0.35508502914E+03  0.16500000000E+03 0.  0.
   -5000001    1    1    2    0    0 -0.13927461186E+03  0.79992981816E+02 -0.26335029780E+03  0.34982091704E+03  0.16500000000E+03 0.  0.
<mgrwt>
<rscale>  0 0.46054947E+03</rscale>
<asrwt>0</asrwt>
<pdfrwt beam="1">  1        2 0.95273838E-01 0.46054947E+03</pdfrwt>
<pdfrwt beam="2">  1       -2 0.13173228E-01 0.46054947E+03</pdfrwt>
<totfact> 0.20737417E+03</totfact>
</mgrwt>
</event>
<event>
 4    1  0.3145406E-005  0.4572402E+03  0.7818608E-02  0.1025585E+00
         -2   -1    0    0    0  501 -0.00000000000E+00  0.00000000000E+00  0.21536235523E+02  0.21536235674E+02  0.25500000000E-02 0. -1.
          2   -1    0    0  501    0  0.00000000000E+00 -0.00000000000E+00 -0.24269397584E+04  0.24269397584E+04  0.25500000000E-02 0.  1.
    5000001    1    1    2    0    0 -0.15026725733E+03 -0.45356817934E+02 -0.13104214073E+04  0.13300626881E+04  0.16500000000E+03 0.  0.
   -5000001    1    1    2    0    0  0.15026725733E+03  0.45356817934E+02 -0.10949821156E+04  0.11184133060E+04  0.16500000000E+03 0.  0.
<mgrwt>
<rscale>  0 0.45724018E+03</rscale>
<asrwt>0</asrwt>
<pdfrwt beam="1">  1        2 0.37337513E+00 0.45724018E+03</pdfrwt>
<pdfrwt beam="2">  1       -2 0.33132689E-02 0.45724018E+03</pdfrwt>
<totfact> 0.15770056E+03</totfact>
</mgrwt>
</event>
<event>
 4    1  0.3145406E-005  0.1095498E+04  0.7818608E-02  0.9209591E-01
          2   -1    0    0  501    0  0.00000000000E+00  0.00000000000E+00  0.64540356665E+03  0.64540356666E+03  0.25500000000E-02 0.  1.
         -2   -1    0    0    0  501 -0.00000000000E+00 -0.00000000000E+00 -0.46487025387E+03  0.46487025388E+03  0.25500000000E-02 0. -1.
    5000001    1    1    2    0    0  0.48840985476E+03  0.18084054175E+02  0.27695953732E+03  0.58549364177E+03  0.16500000000E+03 0.  0.
   -5000001    1    1    2    0    0 -0.48840985476E+03 -0.18084054175E+02 -0.96426224542E+02  0.52478017876E+03  0.16500000000E+03 0.  0.
<mgrwt>
<rscale>  0 0.10954979E+04</rscale>
<asrwt>0</asrwt>
<pdfrwt beam="1">  1        2 0.99292857E-01 0.10954979E+04</pdfrwt>
<pdfrwt beam="2">  1       -2 0.71518500E-01 0.10954979E+04</pdfrwt>
<totfact> 0.79943319E+01</totfact>
</mgrwt>
</event>
<event>
 4    1  0.3145406E-005  0.4751301E+03  0.7818608E-02  0.1020482E+00
          2   -1    0    0  501    0  0.00000000000E+00  0.00000000000E+00  0.15311647534E+04  0.15311647534E+04  0.25500000000E-02 0.  1.
         -2   -1    0    0    0  501 -0.00000000000E+00 -0.00000000000E+00 -0.36858975651E+02  0.36858975740E+02  0.25500000000E-02 0. -1.
    5000001    1    1    2    0    0 -0.10225897000E+03  0.90324975818E+02  0.40743010838E+03  0.46026056904E+03  0.16500000000E+03 0.  0.
   -5000001    1    1    2    0    0  0.10225897000E+03 -0.90324975818E+02  0.10868756694E+04  0.11077631601E+04  0.16500000000E+03 0.  0.
<mgrwt>
<rscale>  0 0.47513015E+03</rscale>
<asrwt>0</asrwt>
<pdfrwt beam="1">  1        2 0.23556374E+00 0.47513015E+03</pdfrwt>
<pdfrwt beam="2">  1       -2 0.56706133E-02 0.47513015E+03</pdfrwt>
<totfact> 0.21091608E+03</totfact>
</mgrwt>
</event>
<event>
 4    1  0.3145406E-005  0.5466210E+03  0.7818608E-02  0.1002279E+00
         -2   -1    0    0    0  501 -0.00000000000E+00  0.00000000000E+00  0.21683410142E+03  0.21683410144E+03  0.25500000000E-02 0. -1.
          2   -1    0    0  501    0  0.00000000000E+00 -0.00000000000E+00 -0.34449673293E+03  0.34449673293E+03  0.25500000000E-02 0.  1.
    5000001    1    1    2    0    0  0.74244655398E+02 -0.20482136092E+03 -0.67009895937E+02  0.28138831692E+03  0.16500000000E+03 0.  0.
   -5000001    1    1    2    0    0 -0.74244655398E+02  0.20482136092E+03 -0.60652735567E+02  0.27994251745E+03  0.16500000000E+03 0.  0.
<mgrwt>
<rscale>  0 0.54662104E+03</rscale>
<asrwt>0</asrwt>
<pdfrwt beam="1">  1        2 0.52999497E-01 0.54662104E+03</pdfrwt>
<pdfrwt beam="2">  1       -2 0.33359093E-01 0.54662104E+03</pdfrwt>
<totfact> 0.79323174E+02</totfact>
</mgrwt>
</event>
<event>
 4    1  0.3145406E-005  0.4189881E+03  0.7818608E-02  0.1037396E+00
          2   -1    0    0  501    0  0.00000000000E+00  0.00000000000E+00  0.23721340526E+03  0.23721340527E+03  0.25500000000E-02 0.  1.
         -2   -1    0    0    0  501 -0.00000000000E+00 -0.00000000000E+00 -0.18501381326E+03  0.18501381328E+03  0.25500000000E-02 0. -1.
    5000001    1    1    2    0    0 -0.13124391294E+02 -0.53219398190E+02  0.14387159688E+03  0.22567363687E+03  0.16500000000E+03 0.  0.
   -5000001    1    1    2    0    0  0.13124391294E+02  0.53219398190E+02 -0.91672004884E+02  0.19655358168E+03  0.16500000000E+03 0.  0.
<mgrwt>
<rscale>  0 0.41898810E+03</rscale>
<asrwt>0</asrwt>
<pdfrwt beam="1">  1        2 0.36494370E-01 0.41898810E+03</pdfrwt>
<pdfrwt beam="2">  1       -2 0.28463664E-01 0.41898810E+03</pdfrwt>
<totfact> 0.16016472E+03</totfact>
</mgrwt>
</event>
<event>
 4    1  0.3145406E-005  0.6813686E+03  0.7818608E-02  0.9749636E-01
          2   -1    0    0  501    0  0.00000000000E+00  0.00000000000E+00  0.65555136819E+03  0.65555136820E+03  0.25500000000E-02 0.  1.
         -2   -1    0    0    0  501 -0.00000000000E+00 -0.00000000000E+00 -0.17705062704E+03  0.17705062706E+03  0.25500000000E-02 0. -1.
    5000001    1    1    2    0    0 -0.20925841532E+03 -0.19673805064E+03  0.14190848153E+03  0.36035810256E+03  0.16500000000E+03 0.  0.
   -5000001    1    1    2    0    0  0.20925841532E+03  0.19673805064E+03  0.33659225962E+03  0.47224389269E+03  0.16500000000E+03 0.  0.
<mgrwt>
<rscale>  0 0.68136857E+03</rscale>
<asrwt>0</asrwt>
<pdfrwt beam="1">  1        2 0.10085406E+00 0.68136857E+03</pdfrwt>
<pdfrwt beam="2">  1       -2 0.27238558E-01 0.68136857E+03</pdfrwt>
<totfact> 0.54864988E+02</totfact>
</mgrwt>
</event>
<event>
 4    1  0.3145406E-005  0.4165715E+03  0.7818608E-02  0.1038188E+00
         -2   -1    0    0    0  501 -0.00000000000E+00  0.00000000000E+00  0.24137554192E+02  0.24137554327E+02  0.25500000000E-02 0. -1.
          2   -1    0    0  501    0  0.00000000000E+00 -0.00000000000E+00 -0.17973216183E+04  0.17973216183E+04  0.25500000000E-02 0.  1.
    5000001    1    1    2    0    0  0.77988479761E+02 -0.47236721810E+02 -0.49932474706E+03  0.53372625370E+03  0.16500000000E+03 0.  0.
   -5000001    1    1    2    0    0 -0.77988479761E+02  0.47236721810E+02 -0.12738593171E+04  0.12877329189E+04  0.16500000000E+03 0.  0.
<mgrwt>
<rscale>  0 0.41657147E+03</rscale>
<asrwt>0</asrwt>
<pdfrwt beam="1">  1        2 0.27651091E+00 0.41657147E+03</pdfrwt>
<pdfrwt beam="2">  1       -2 0.37134713E-02 0.41657147E+03</pdfrwt>
<totfact> 0.29086236E+03</totfact>
</mgrwt>
</event>
<event>
 4    1  0.3145406E-005  0.4822617E+03  0.7818608E-02  0.1018515E+00
          2   -1    0    0  501    0  0.00000000000E+00  0.00000000000E+00  0.87415747134E+03  0.87415747134E+03  0.25500000000E-02 0.  1.
         -2   -1    0    0    0  501 -0.00000000000E+00 -0.00000000000E+00 -0.66514433384E+02  0.66514433433E+02  0.25500000000E-02 0. -1.
    5000001    1    1    2    0    0 -0.13197286454E+03  0.52790716512E+02  0.60573226255E+03  0.64369268336E+03  0.16500000000E+03 0.  0.
   -5000001    1    1    2    0    0  0.13197286454E+03 -0.52790716512E+02  0.20191077541E+03  0.29697922141E+03  0.16500000000E+03 0.  0.
<mgrwt>
<rscale>  0 0.48226171E+03</rscale>
<asrwt>0</asrwt>
<pdfrwt beam="1">  1        2 0.13448576E+00 0.48226171E+03</pdfrwt>
<pdfrwt beam="2">  1       -2 0.10232990E-01 0.48226171E+03</pdfrwt>
<totfact> 0.20245233E+03</totfact>
</mgrwt>
</event>
<event>
 4    1  0.3145406E-005  0.4387954E+03  0.7818608E-02  0.1031117E+00
          2   -1    0    0  501    0  0.00000000000E+00  0.00000000000E+00  0.15062012034E+03  0.15062012036E+03  0.25500000000E-02 0.  1.
         -2   -1    0    0    0  501 -0.00000000000E+00 -0.00000000000E+00 -0.31958111001E+03  0.31958111002E+03  0.25500000000E-02 0. -1.
    5000001    1    1    2    0    0 -0.49568378002E+02  0.11824773858E+03 -0.12830852895E+02  0.20935420360E+03  0.16500000000E+03 0.  0.
   -5000001    1    1    2    0    0  0.49568378002E+02 -0.11824773858E+03 -0.15613013678E+03  0.26084702679E+03  0.16500000000E+03 0.  0.
<mgrwt>
<rscale>  0 0.43879537E+03</rscale>
<asrwt>0</asrwt>
<pdfrwt beam="1">  1        2 0.23172326E-01 0.43879537E+03</pdfrwt>
<pdfrwt beam="2">  1       -2 0.49166324E-01 0.43879537E+03</pdfrwt>
<totfact> 0.93831194E+02</totfact>
</mgrwt>
</event>
<event>
 4    1  0.3145406E-005  0.5033411E+03  0.7818608E-02  0.1012910E+00
          2   -1    0    0  501    0  0.00000000000E+00  0.00000000000E+00  0.10643709534E+03  0.10643709537E+03  0.25500000000E-02 0.  1.
         -2   -1    0    0    0  501 -0.00000000000E+00 -0.00000000000E+00 -0.59507521542E+03  0.59507521543E+03  0.25500000000E-02 0. -1.
    5000001    1    1    2    0    0 -0.55279646040E+02 -0.11586584412E+03 -0.49038530419E+02  0.21473358044E+03  0.16500000000E+03 0.  0.
   -5000001    1    1    2    0    0  0.55279646040E+02  0.11586584412E+03 -0.43959958966E+03  0.48677873036E+03  0.16500000000E+03 0.  0.
<mgrwt>
<rscale>  0 0.50334115E+03</rscale>
<asrwt>0</asrwt>
<pdfrwt beam="1">  1        2 0.16374938E-01 0.50334115E+03</pdfrwt>
<pdfrwt beam="2">  1       -2 0.91550031E-01 0.50334115E+03</pdfrwt>
<totfact> 0.37027075E+02</totfact>
</mgrwt>
</event>
<event>
 4    1  0.3145406E-005  0.4986421E+03  0.7818608E-02  0.1014134E+00
         -2   -1    0    0    0  501 -0.00000000000E+00  0.00000000000E+00  0.75610361857E+02  0.75610361900E+02  0.25500000000E-02 0. -1.
          2   -1    0    0  501    0  0.00000000000E+00 -0.00000000000E+00 -0.82212262878E+03  0.82212262879E+03  0.25500000000E-02 0.  1.
    5000001    1    1    2    0    0 -0.11236372006E+03  0.14808166481E+03 -0.40845316945E+03  0.47813468466E+03  0.16500000000E+03 0.  0.
   -5000001    1    1    2    0    0  0.11236372006E+03 -0.14808166481E+03 -0.33805909748E+03  0.41959830603E+03  0.16500000000E+03 0.  0.
<mgrwt>
<rscale>  0 0.49864211E+03</rscale>
<asrwt>0</asrwt>
<pdfrwt beam="1">  1        2 0.12648040E+00 0.49864211E+03</pdfrwt>
<pdfrwt beam="2">  1       -2 0.11632364E-01 0.49864211E+03</pdfrwt>
<totfact> 0.17840985E+03</totfact>
</mgrwt>
</event>
<event>
 4    1  0.3145406E-005  0.5127579E+03  0.7818608E-02  0.1010502E+00
          2   -1    0    0  501    0  0.00000000000E+00  0.00000000000E+00  0.10084914278E+04  0.10084914278E+04  0.25500000000E-02 0.  1.
         -2   -1    0    0    0  501 -0.00000000000E+00 -0.00000000000E+00 -0.65176732505E+02  0.65176732555E+02  0.25500000000E-02 0. -1.
    5000001    1    1    2    0    0 -0.20894628534E+02  0.19345085971E+03  0.52485067575E+03  0.58356923537E+03  0.16500000000E+03 0.  0.
   -5000001    1    1    2    0    0  0.20894628534E+02 -0.19345085971E+03  0.41846401952E+03  0.49009892497E+03  0.16500000000E+03 0.  0.
<mgrwt>
<rscale>  0 0.51275794E+03</rscale>
<asrwt>0</asrwt>
<pdfrwt beam="1">  1        2 0.15515252E+00 0.51275794E+03</pdfrwt>
<pdfrwt beam="2">  1       -2 0.10027190E-01 0.51275794E+03</pdfrwt>
<totfact> 0.17115827E+03</totfact>
</mgrwt>
</event>
<event>
 4    1  0.3145406E-005  0.5673358E+03  0.7818608E-02  0.9975592E-01
         -2   -1    0    0    0  501 -0.00000000000E+00  0.00000000000E+00  0.15315862634E+03  0.15315862636E+03  0.25500000000E-02 0. -1.
          2   -1    0    0  501    0  0.00000000000E+00 -0.00000000000E+00 -0.52538643335E+03  0.52538643336E+03  0.25500000000E-02 0.  1.
    5000001    1    1    2    0    0  0.20675989482E+03  0.31660637596E+01 -0.63658795247E+02  0.27209763005E+03  0.16500000000E+03 0.  0.
   -5000001    1    1    2    0    0 -0.20675989482E+03 -0.31660637596E+01 -0.30856901177E+03  0.40644742967E+03  0.16500000000E+03 0.  0.
<mgrwt>
<rscale>  0 0.56733575E+03</rscale>
<asrwt>0</asrwt>
<pdfrwt beam="1">  1        2 0.80828681E-01 0.56733575E+03</pdfrwt>
<pdfrwt beam="2">  1       -2 0.23562866E-01 0.56733575E+03</pdfrwt>
<totfact> 0.93018400E+02</totfact>
</mgrwt>
</event>
<event>
 4    1  0.3145406E-005  0.6863960E+03  0.7818608E-02  0.9740784E-01
          2   -1    0    0  501    0  0.00000000000E+00  0.00000000000E+00  0.24777893060E+04  0.24777893060E+04  0.25500000000E-02 0.  1.
         -2   -1    0    0    0  501 -0.00000000000E+00 -0.00000000000E+00 -0.47536276738E+02  0.47536276806E+02  0.25500000000E-02 0. -1.
    5000001    1    1    2    0    0 -0.18572737302E+03 -0.23661563338E+03  0.12476742947E+04  0.12939852243E+04  0.16500000000E+03 0.  0.
   -5000001    1    1    2    0    0  0.18572737302E+03  0.23661563338E+03  0.11825787346E+04  0.12313403585E+04  0.16500000000E+03 0.  0.
<mgrwt>
<rscale>  0 0.68639603E+03</rscale>
<asrwt>0</asrwt>
<pdfrwt beam="1">  1        2 0.38119840E+00 0.68639603E+03</pdfrwt>
<pdfrwt beam="2">  1       -2 0.73132725E-02 0.68639603E+03</pdfrwt>
<totfact> 0.42469250E+02</totfact>
</mgrwt>
</event>
<event>
 4    1  0.3145406E-005  0.4100757E+03  0.7818608E-02  0.1040346E+00
         -2   -1    0    0    0  501 -0.00000000000E+00  0.00000000000E+00  0.69087220478E+02  0.69087220525E+02  0.25500000000E-02 0. -1.
          2   -1    0    0  501    0  0.00000000000E+00 -0.00000000000E+00 -0.60851361905E+03  0.60851361905E+03  0.25500000000E-02 0.  1.
    5000001    1    1    2    0    0  0.10290321640E+03 -0.27469109393E+02 -0.17235042324E+03  0.26129158484E+03  0.16500000000E+03 0.  0.
   -5000001    1    1    2    0    0 -0.10290321640E+03  0.27469109393E+02 -0.36707597533E+03  0.41630925474E+03  0.16500000000E+03 0.  0.
<mgrwt>
<rscale>  0 0.41007567E+03</rscale>
<asrwt>0</asrwt>
<pdfrwt beam="1">  1        2 0.93617476E-01 0.41007567E+03</pdfrwt>
<pdfrwt beam="2">  1       -2 0.10628804E-01 0.41007567E+03</pdfrwt>
<totfact> 0.30033912E+03</totfact>
</mgrwt>
</event>
<event>
 4    1  0.3145406E-005  0.7290244E+03  0.7818608E-02  0.9668845E-01
          2   -1    0    0  501    0  0.00000000000E+00  0.00000000000E+00  0.15595841458E+03  0.15595841460E+03  0.25500000000E-02 0.  1.
         -2   -1    0    0    0  501 -0.00000000000E+00 -0.00000000000E+00 -0.85195231988E+03  0.85195231988E+03  0.25500000000E-02 0. -1.
    5000001    1    1    2    0    0 -0.65980940674E+02  0.22147627784E+03 -0.66398966350E+03  0.72215822325E+03  0.16500000000E+03 0.  0.
   -5000001    1    1    2    0    0  0.65980940674E+02 -0.22147627784E+03 -0.32004241808E+02  0.28575251123E+03  0.16500000000E+03 0.  0.
<mgrwt>
<rscale>  0 0.72902437E+03</rscale>
<asrwt>0</asrwt>
<pdfrwt beam="1">  1        2 0.23993603E-01 0.72902437E+03</pdfrwt>
<pdfrwt beam="2">  1       -2 0.13106959E+00 0.72902437E+03</pdfrwt>
<totfact> 0.98773408E+01</totfact>
</mgrwt>
</event>
<event>
 4    1  0.3145406E-005  0.3946136E+03  0.7818608E-02  0.1045661E+00
          2   -1    0    0  501    0  0.00000000000E+00  0.00000000000E+00  0.77346048200E+03  0.77346048201E+03  0.25500000000E-02 0.  1.
         -2   -1    0    0    0  501 -0.00000000000E+00 -0.00000000000E+00 -0.50332196892E+02  0.50332196957E+02  0.25500000000E-02 0. -1.
    5000001    1    1    2    0    0  0.65674804986E+02  0.34449181752E+02  0.52600820139E+03  0.55624594746E+03  0.16500000000E+03 0.  0.
   -5000001    1    1    2    0    0 -0.65674804986E+02 -0.34449181752E+02  0.19712008372E+03  0.26754673150E+03  0.16500000000E+03 0.  0.
<mgrwt>
<rscale>  0 0.39461356E+03</rscale>
<asrwt>0</asrwt>
<pdfrwt beam="1">  1        2 0.11899392E+00 0.39461356E+03</pdfrwt>
<pdfrwt beam="2">  1       -2 0.77434148E-02 0.39461356E+03</pdfrwt>
<totfact> 0.37050431E+03</totfact>
</mgrwt>
</event>
<event>
 4    1  0.3145406E-005  0.4867987E+03  0.7818608E-02  0.1017283E+00
          2   -1    0    0  501    0  0.00000000000E+00  0.00000000000E+00  0.21064666222E+04  0.21064666222E+04  0.25500000000E-02 0.  1.
         -2   -1    0    0    0  501 -0.00000000000E+00 -0.00000000000E+00 -0.28124466338E+02  0.28124466453E+02  0.25500000000E-02 0. -1.
    5000001    1    1    2    0    0 -0.12560360619E+03  0.11726779306E+03  0.82035128230E+03  0.85424190224E+03  0.16500000000E+03 0.  0.
   -5000001    1    1    2    0    0  0.12560360619E+03 -0.11726779306E+03  0.12579908736E+04  0.12803491864E+04  0.16500000000E+03 0.  0.
<mgrwt>
<rscale>  0 0.48679873E+03</rscale>
<asrwt>0</asrwt>
<pdfrwt beam="1">  1        2 0.32407178E+00 0.48679873E+03</pdfrwt>
<pdfrwt beam="2">  1       -2 0.43268410E-02 0.48679873E+03</pdfrwt>
<totfact> 0.15674293E+03</totfact>
</mgrwt>
</event>
<event>
 4    1  0.3145406E-005  0.5287567E+03  0.7818608E-02  0.1006534E+00
         -2   -1    0    0    0  501 -0.00000000000E+00  0.00000000000E+00  0.16262558865E+04  0.16262558865E+04  0.25500000000E-02 0. -1.
          2   -1    0    0  501    0  0.00000000000E+00 -0.00000000000E+00 -0.42979656669E+02  0.42979656745E+02  0.25500000000E-02 0.  1.
    5000001    1    1    2    0    0  0.14614030209E+03 -0.10516047169E+03  0.47194452240E+03  0.53138718927E+03  0.16500000000E+03 0.  0.
   -5000001    1    1    2    0    0 -0.14614030209E+03  0.10516047169E+03  0.11113317074E+04  0.11378483540E+04  0.16500000000E+03 0.  0.
<mgrwt>
<rscale>  0 0.52875673E+03</rscale>
<asrwt>0</asrwt>
<pdfrwt beam="1">  1        2 0.66122542E-02 0.52875673E+03</pdfrwt>
<pdfrwt beam="2">  1       -2 0.25019324E+00 0.52875673E+03</pdfrwt>
<totfact> 0.76138325E+01</totfact>
</mgrwt>
</event>
<event>
 4    1  0.3145406E-005  0.9130149E+03  0.7818608E-02  0.9409457E-01
         -2   -1    0    0    0  501 -0.00000000000E+00  0.00000000000E+00  0.26409266091E+03  0.26409266092E+03  0.25500000000E-02 0. -1.
          2   -1    0    0  501    0  0.00000000000E+00 -0.00000000000E+00 -0.78911334744E+03  0.78911334744E+03  0.25500000000E-02 0.  1.
    5000001    1    1    2    0    0  0.24142074775E+03 -0.34131210761E+03 -0.35476610150E+03  0.57259227992E+03  0.16500000000E+03 0.  0.
   -5000001    1    1    2    0    0 -0.24142074775E+03  0.34131210761E+03 -0.17025458503E+03  0.48061372845E+03  0.16500000000E+03 0.  0.
<mgrwt>
<rscale>  0 0.91301488E+03</rscale>
<asrwt>0</asrwt>
<pdfrwt beam="1">  1        2 0.12140205E+00 0.91301488E+03</pdfrwt>
<pdfrwt beam="2">  1       -2 0.40629641E-01 0.91301488E+03</pdfrwt>
<totfact> 0.20156166E+02</totfact>
</mgrwt>
</event>
<event>
 4    1  0.3145406E-005  0.6995617E+03  0.7818608E-02  0.9717982E-01
         -2   -1    0    0    0  501 -0.00000000000E+00  0.00000000000E+00  0.73871659552E+02  0.73871659596E+02  0.25500000000E-02 0. -1.
          2   -1    0    0  501    0  0.00000000000E+00 -0.00000000000E+00 -0.16562053374E+04  0.16562053374E+04  0.25500000000E-02 0.  1.
    5000001    1    1    2    0    0  0.70837515082E+02  0.24145874854E+03 -0.35014282448E+03  0.46167659495E+03  0.16500000000E+03 0.  0.
   -5000001    1    1    2    0    0 -0.70837515082E+02 -0.24145874854E+03 -0.12321908534E+04  0.12684004021E+04  0.16500000000E+03 0.  0.
<mgrwt>
<rscale>  0 0.69956168E+03</rscale>
<asrwt>0</asrwt>
<pdfrwt beam="1">  1        2 0.25480079E+00 0.69956168E+03</pdfrwt>
<pdfrwt beam="2">  1       -2 0.11364872E-01 0.69956168E+03</pdfrwt>
<totfact> 0.58815095E+02</totfact>
</mgrwt>
</event>
<event>
 4    1  0.3145406E-005  0.6366881E+03  0.7818608E-02  0.9832084E-01
         -2   -1    0    0    0  501 -0.00000000000E+00  0.00000000000E+00  0.16701991803E+03  0.16701991805E+03  0.25500000000E-02 0. -1.
          2   -1    0    0  501    0  0.00000000000E+00 -0.00000000000E+00 -0.60677147572E+03  0.60677147573E+03  0.25500000000E-02 0.  1.
    5000001    1    1    2    0    0 -0.10028068517E+03 -0.23693863296E+03 -0.32804628593E+03  0.44836982204E+03  0.16500000000E+03 0.  0.
   -5000001    1    1    2    0    0  0.10028068517E+03  0.23693863296E+03 -0.11170527176E+03  0.32542157173E+03  0.16500000000E+03 0.  0.
<mgrwt>
<rscale>  0 0.63668806E+03</rscale>
<asrwt>0</asrwt>
<pdfrwt beam="1">  1        2 0.93349457E-01 0.63668806E+03</pdfrwt>
<pdfrwt beam="2">  1       -2 0.25695372E-01 0.63668806E+03</pdfrwt>
<totfact> 0.67093041E+02</totfact>
</mgrwt>
</event>
<event>
 4    1  0.3145406E-005  0.5561550E+03  0.7818608E-02  0.1000079E+00
         -2   -1    0    0    0  501 -0.00000000000E+00  0.00000000000E+00  0.41784900591E+03  0.41784900592E+03  0.25500000000E-02 0. -1.
          2   -1    0    0  501    0  0.00000000000E+00 -0.00000000000E+00 -0.18505990157E+03  0.18505990159E+03  0.25500000000E-02 0.  1.
    5000001    1    1    2    0    0 -0.18037881531E+03 -0.12293427585E+03  0.17008312414E+03  0.32218414347E+03  0.16500000000E+03 0.  0.
   -5000001    1    1    2    0    0  0.18037881531E+03  0.12293427585E+03  0.62705980206E+02  0.28072476404E+03  0.16500000000E+03 0.  0.
<mgrwt>
<rscale>  0 0.55615500E+03</rscale>
<asrwt>0</asrwt>
<pdfrwt beam="1">  1        2 0.28470754E-01 0.55615500E+03</pdfrwt>
<pdfrwt beam="2">  1       -2 0.64284462E-01 0.55615500E+03</pdfrwt>
<totfact> 0.42622985E+02</totfact>
</mgrwt>
</event>
<event>
 4    1  0.3145406E-005  0.4803953E+03  0.7818608E-02  0.1019027E+00
         -2   -1    0    0    0  501 -0.00000000000E+00  0.00000000000E+00  0.54250814070E+02  0.54250814130E+02  0.25500000000E-02 0. -1.
          2   -1    0    0  501    0  0.00000000000E+00 -0.00000000000E+00 -0.10634848963E+04  0.10634848963E+04  0.25500000000E-02 0.  1.
    5000001    1    1    2    0    0 -0.12791269761E+03  0.11342991084E+03 -0.42262213161E+03  0.48483241332E+03  0.16500000000E+03 0.  0.
   -5000001    1    1    2    0    0  0.12791269761E+03 -0.11342991084E+03 -0.58661195062E+03  0.63290329711E+03  0.16500000000E+03 0.  0.
<mgrwt>
<rscale>  0 0.48039534E+03</rscale>
<asrwt>0</asrwt>
<pdfrwt beam="1">  1        2 0.16361305E+00 0.48039534E+03</pdfrwt>
<pdfrwt beam="2">  1       -2 0.83462798E-02 0.48039534E+03</pdfrwt>
<totfact> 0.21248697E+03</totfact>
</mgrwt>
</event>
<event>
 4    1  0.3145406E-005  0.5252901E+03  0.7818608E-02  0.1007381E+00
          2   -1    0    0  501    0  0.00000000000E+00  0.00000000000E+00  0.12007166229E+04  0.12007166229E+04  0.25500000000E-02 0.  1.
         -2   -1    0    0    0  501 -0.00000000000E+00 -0.00000000000E+00 -0.57451033047E+02  0.57451033104E+02  0.25500000000E-02 0. -1.
    5000001    1    1    2    0    0  0.28960025838E+02  0.19384976327E+03  0.43318776964E+03  0.50328228419E+03  0.16500000000E+03 0.  0.
   -5000001    1    1    2    0    0 -0.28960025838E+02 -0.19384976327E+03  0.71007782019E+03  0.75488537179E+03  0.16500000000E+03 0.  0.
<mgrwt>
<rscale>  0 0.52529005E+03</rscale>
<asrwt>0</asrwt>
<pdfrwt beam="1">  1        2 0.18472564E+00 0.52529005E+03</pdfrwt>
<pdfrwt beam="2">  1       -2 0.88386201E-02 0.52529005E+03</pdfrwt>
<totfact> 0.16048305E+03</totfact>
</mgrwt>
</event>
<event>
 4    1  0.3145406E-005  0.5432432E+03  0.7818608E-02  0.1003070E+00
          2   -1    0    0  501    0  0.00000000000E+00  0.00000000000E+00  0.18161677108E+04  0.18161677108E+04  0.25500000000E-02 0.  1.
         -2   -1    0    0    0  501 -0.00000000000E+00 -0.00000000000E+00 -0.40623057023E+02  0.40623057103E+02  0.25500000000E-02 0. -1.
    5000001    1    1    2    0    0  0.10363257094E+02  0.21502070243E+03  0.83800764378E+03  0.88080821443E+03  0.16500000000E+03 0.  0.
   -5000001    1    1    2    0    0 -0.10363257094E+02 -0.21502070243E+03  0.93753700998E+03  0.97598255346E+03  0.16500000000E+03 0.  0.
<mgrwt>
<rscale>  0 0.54324317E+03</rscale>
<asrwt>0</asrwt>
<pdfrwt beam="1">  1        2 0.27941045E+00 0.54324317E+03</pdfrwt>
<pdfrwt beam="2">  1       -2 0.62497003E-02 0.54324317E+03</pdfrwt>
<totfact> 0.12668702E+03</totfact>
</mgrwt>
</event>
<event>
 4    1  0.3145406E-005  0.7403196E+03  0.7818608E-02  0.9650661E-01
         -2   -1    0    0    0  501 -0.00000000000E+00  0.00000000000E+00  0.17656599141E+03  0.17656599143E+03  0.25500000000E-02 0. -1.
          2   -1    0    0  501    0  0.00000000000E+00 -0.00000000000E+00 -0.77601742128E+03  0.77601742129E+03  0.25500000000E-02 0.  1.
    5000001    1    1    2    0    0  0.12279033564E+03  0.27837942402E+02 -0.69410222441E+03  0.72446898864E+03  0.16500000000E+03 0.  0.
   -5000001    1    1    2    0    0 -0.12279033564E+03 -0.27837942402E+02  0.94650794541E+02  0.22811442407E+03  0.16500000000E+03 0.  0.
<mgrwt>
<rscale>  0 0.74031962E+03</rscale>
<asrwt>0</asrwt>
<pdfrwt beam="1">  1        2 0.11938729E+00 0.74031962E+03</pdfrwt>
<pdfrwt beam="2">  1       -2 0.27163999E-01 0.74031962E+03</pdfrwt>
<totfact> 0.44431291E+02</totfact>
</mgrwt>
</event>
<event>
 4    1  0.3145406E-005  0.7775054E+03  0.7818608E-02  0.9593160E-01
          2   -1    0    0  501    0  0.00000000000E+00  0.00000000000E+00  0.13842925006E+04  0.13842925006E+04  0.25500000000E-02 0.  1.
         -2   -1    0    0    0  501 -0.00000000000E+00 -0.00000000000E+00 -0.10917394690E+03  0.10917394693E+03  0.25500000000E-02 0. -1.
    5000001    1    1    2    0    0 -0.23491267826E+03  0.12290507282E+03  0.10823250449E+04  0.11264733136E+04  0.16500000000E+03 0.  0.
   -5000001    1    1    2    0    0  0.23491267826E+03 -0.12290507282E+03  0.19279350873E+03  0.36699313392E+03  0.16500000000E+03 0.  0.
<mgrwt>
<rscale>  0 0.77750544E+03</rscale>
<asrwt>0</asrwt>
<pdfrwt beam="1">  1        2 0.21296808E+00 0.77750544E+03</pdfrwt>
<pdfrwt beam="2">  1       -2 0.16795992E-01 0.77750544E+03</pdfrwt>
<totfact> 0.43075783E+02</totfact>
</mgrwt>
</event>
<event>
 4    1  0.3145406E-005  0.4559121E+03  0.7818608E-02  0.1025974E+00
         -2   -1    0    0    0  501 -0.00000000000E+00  0.00000000000E+00  0.12571677346E+03  0.12571677349E+03  0.25500000000E-02 0. -1.
          2   -1    0    0  501    0  0.00000000000E+00 -0.00000000000E+00 -0.41334158645E+03  0.41334158646E+03  0.25500000000E-02 0.  1.
    5000001    1    1    2    0    0 -0.79476144936E+02  0.91291519656E+02 -0.25053782383E+02  0.20616326343E+03  0.16500000000E+03 0.  0.
   -5000001    1    1    2    0    0  0.79476144936E+02 -0.91291519656E+02 -0.26257103060E+03  0.33289509652E+03  0.16500000000E+03 0.  0.
<mgrwt>
<rscale>  0 0.45591214E+03</rscale>
<asrwt>0</asrwt>
<pdfrwt beam="1">  1        2 0.63591012E-01 0.45591214E+03</pdfrwt>
<pdfrwt beam="2">  1       -2 0.19341042E-01 0.45591214E+03</pdfrwt>
<totfact> 0.17256673E+03</totfact>
</mgrwt>
</event>
<event>
 4    1  0.3145406E-005  0.5573363E+03  0.7818608E-02  0.9998100E-01
          2   -1    0    0  501    0  0.00000000000E+00  0.00000000000E+00  0.21397279514E+04  0.21397279514E+04  0.25500000000E-02 0.  1.
         -2   -1    0    0    0  501 -0.00000000000E+00 -0.00000000000E+00 -0.36292433472E+02  0.36292433561E+02  0.25500000000E-02 0. -1.
    5000001    1    1    2    0    0  0.20752946096E+03  0.85479083329E+02  0.10225570017E+04  0.10598221420E+04  0.16500000000E+03 0.  0.
   -5000001    1    1    2    0    0 -0.20752946096E+03 -0.85479083329E+02  0.10808785162E+04  0.11161982430E+04  0.16500000000E+03 0.  0.
<mgrwt>
<rscale>  0 0.55733629E+03</rscale>
<asrwt>0</asrwt>
<pdfrwt beam="1">  1        2 0.32918911E+00 0.55733629E+03</pdfrwt>
<pdfrwt beam="2">  1       -2 0.55834480E-02 0.55733629E+03</pdfrwt>
<totfact> 0.10091983E+03</totfact>
</mgrwt>
</event>
<event>
 4    1  0.3145406E-005  0.5263464E+03  0.7818608E-02  0.1007122E+00
         -2   -1    0    0    0  501 -0.00000000000E+00  0.00000000000E+00  0.20006996026E+02  0.20006996188E+02  0.25500000000E-02 0. -1.
          2   -1    0    0  501    0  0.00000000000E+00 -0.00000000000E+00 -0.34617961218E+04  0.34617961218E+04  0.25500000000E-02 0.  1.
    5000001    1    1    2    0    0 -0.14852707666E+03  0.12133743032E+03 -0.12414945176E+04  0.12670109320E+04  0.16500000000E+03 0.  0.
   -5000001    1    1    2    0    0  0.14852707666E+03 -0.12133743032E+03 -0.22002946081E+04  0.22147921860E+04  0.16500000000E+03 0.  0.
<mgrwt>
<rscale>  0 0.52634643E+03</rscale>
<asrwt>0</asrwt>
<pdfrwt beam="1">  1        2 0.53258354E+00 0.52634643E+03</pdfrwt>
<pdfrwt beam="2">  1       -2 0.30780021E-02 0.52634643E+03</pdfrwt>
<totfact> 0.41643248E+02</totfact>
</mgrwt>
</event>
<event>
 4    1  0.3145406E-005  0.5007642E+03  0.7818608E-02  0.1013580E+00
          2   -1    0    0  501    0  0.00000000000E+00  0.00000000000E+00  0.74804845515E+03  0.74804845516E+03  0.25500000000E-02 0.  1.
         -2   -1    0    0    0  501 -0.00000000000E+00 -0.00000000000E+00 -0.83806314114E+02  0.83806314153E+02  0.25500000000E-02 0. -1.
    5000001    1    1    2    0    0  0.14304114704E+03  0.74755482910E+02  0.17091874620E+03  0.28720614509E+03  0.16500000000E+03 0.  0.
   -5000001    1    1    2    0    0 -0.14304114704E+03 -0.74755482910E+02  0.49332339484E+03  0.54464862423E+03  0.16500000000E+03 0.  0.
<mgrwt>
<rscale>  0 0.50076415E+03</rscale>
<asrwt>0</asrwt>
<pdfrwt beam="1">  1        2 0.11508438E+00 0.50076415E+03</pdfrwt>
<pdfrwt beam="2">  1       -2 0.12893279E-01 0.50076415E+03</pdfrwt>
<totfact> 0.17025897E+03</totfact>
</mgrwt>
</event>
<event>
 4    1  0.3145406E-005  0.4492528E+03  0.7818608E-02  0.1027945E+00
         -2   -1    0    0    0  501 -0.00000000000E+00  0.00000000000E+00  0.12323616239E+03  0.12323616242E+03  0.25500000000E-02 0. -1.
          2   -1    0    0  501    0  0.00000000000E+00 -0.00000000000E+00 -0.40943356651E+03  0.40943356651E+03  0.25500000000E-02 0.  1.
    5000001    1    1    2    0    0 -0.13643498990E+03 -0.11833550566E+02 -0.63760172714E+02  0.22370717246E+03  0.16500000000E+03 0.  0.
   -5000001    1    1    2    0    0  0.13643498990E+03  0.11833550566E+02 -0.22243723140E+03  0.30896255647E+03  0.16500000000E+03 0.  0.
<mgrwt>
<rscale>  0 0.44925281E+03</rscale>
<asrwt>0</asrwt>
<pdfrwt beam="1">  1        2 0.62989779E-01 0.44925281E+03</pdfrwt>
<pdfrwt beam="2">  1       -2 0.18959410E-01 0.44925281E+03</pdfrwt>
<totfact> 0.18046963E+03</totfact>
</mgrwt>
</event>
<event>
 4    1  0.3145406E-005  0.5349612E+03  0.7818608E-02  0.1005036E+00
         -2   -1    0    0    0  501 -0.00000000000E+00  0.00000000000E+00  0.19018786813E+03  0.19018786815E+03  0.25500000000E-02 0. -1.
          2   -1    0    0  501    0  0.00000000000E+00 -0.00000000000E+00 -0.37618527822E+03  0.37618527823E+03  0.25500000000E-02 0.  1.
    5000001    1    1    2    0    0  0.11526026130E+03  0.15908612392E+03 -0.17312313079E+03  0.30949950093E+03  0.16500000000E+03 0.  0.
   -5000001    1    1    2    0    0 -0.11526026130E+03 -0.15908612392E+03 -0.12874279291E+02  0.25687364545E+03  0.16500000000E+03 0.  0.
<mgrwt>
<rscale>  0 0.53496122E+03</rscale>
<asrwt>0</asrwt>
<pdfrwt beam="1">  1        2 0.57874658E-01 0.53496122E+03</pdfrwt>
<pdfrwt beam="2">  1       -2 0.29259672E-01 0.53496122E+03</pdfrwt>
<totfact> 0.91799137E+02</totfact>
</mgrwt>
</event>
<event>
 4    1  0.3145406E-005  0.6017769E+03  0.7818608E-02  0.9901726E-01
         -2   -1    0    0    0  501 -0.00000000000E+00  0.00000000000E+00  0.88120767445E+02  0.88120767481E+02  0.25500000000E-02 0. -1.
          2   -1    0    0  501    0  0.00000000000E+00 -0.00000000000E+00 -0.10273838684E+04  0.10273838684E+04  0.25500000000E-02 0.  1.
    5000001    1    1    2    0    0  0.78836900218E+02  0.23047330041E+03 -0.35275153169E+03  0.45933848320E+03  0.16500000000E+03 0.  0.
   -5000001    1    1    2    0    0 -0.78836900218E+02 -0.23047330041E+03 -0.58651156922E+03  0.65616615264E+03  0.16500000000E+03 0.  0.
<mgrwt>
<rscale>  0 0.60177689E+03</rscale>
<asrwt>0</asrwt>
<pdfrwt beam="1">  1        2 0.15805905E+00 0.60177689E+03</pdfrwt>
<pdfrwt beam="2">  1       -2 0.13557042E-01 0.60177689E+03</pdfrwt>
<totfact> 0.10135042E+03</totfact>
</mgrwt>
</event>
<event>
 4    1  0.3145406E-005  0.4069474E+03  0.7818608E-02  0.1041400E+00
          2   -1    0    0  501    0  0.00000000000E+00  0.00000000000E+00  0.71179853810E+03  0.71179853810E+03  0.25500000000E-02 0.  1.
         -2   -1    0    0    0  501 -0.00000000000E+00 -0.00000000000E+00 -0.58164702410E+02  0.58164702466E+02  0.25500000000E-02 0. -1.
    5000001    1    1    2    0    0 -0.11161153695E+03  0.35679806776E+02  0.36679090158E+03  0.41891616019E+03  0.16500000000E+03 0.  0.
   -5000001    1    1    2    0    0  0.11161153695E+03 -0.35679806776E+02  0.28684293411E+03  0.35104708037E+03  0.16500000000E+03 0.  0.
<mgrwt>
<rscale>  0 0.40694742E+03</rscale>
<asrwt>0</asrwt>
<pdfrwt beam="1">  1        2 0.10950747E+00 0.40694742E+03</pdfrwt>
<pdfrwt beam="2">  1       -2 0.89484157E-02 0.40694742E+03</pdfrwt>
<totfact> 0.32726677E+03</totfact>
</mgrwt>
</event>
<event>
 4    1  0.3145406E-005  0.3890182E+03  0.7818608E-02  0.1047650E+00
         -2   -1    0    0    0  501 -0.00000000000E+00  0.00000000000E+00  0.50094483999E+02  0.50094484064E+02  0.25500000000E-02 0. -1.
          2   -1    0    0  501    0  0.00000000000E+00 -0.00000000000E+00 -0.75524847903E+03  0.75524847903E+03  0.25500000000E-02 0.  1.
    5000001    1    1    2    0    0 -0.20385799951E+02  0.99733392467E+02 -0.38507656421E+03  0.43112792848E+03  0.16500000000E+03 0.  0.
   -5000001    1    1    2    0    0  0.20385799951E+02 -0.99733392467E+02 -0.32007743082E+03  0.37421503462E+03  0.16500000000E+03 0.  0.
<mgrwt>
<rscale>  0 0.38901816E+03</rscale>
<asrwt>0</asrwt>
<pdfrwt beam="1">  1        2 0.11619207E+00 0.38901816E+03</pdfrwt>
<pdfrwt beam="2">  1       -2 0.77068443E-02 0.38901816E+03</pdfrwt>
<totfact> 0.38467529E+03</totfact>
</mgrwt>
</event>
<event>
 4    1  0.3145406E-005  0.1054144E+04  0.7818608E-02  0.9251076E-01
          2   -1    0    0  501    0  0.00000000000E+00  0.00000000000E+00  0.20445538632E+04  0.20445538632E+04  0.25500000000E-02 0.  1.
         -2   -1    0    0    0  501 -0.00000000000E+00 -0.00000000000E+00 -0.13587563932E+03  0.13587563935E+03  0.25500000000E-02 0. -1.
    5000001    1    1    2    0    0 -0.37321764235E+03 -0.26085809582E+03  0.52421538678E+03  0.71369820404E+03  0.16500000000E+03 0.  0.
   -5000001    1    1    2    0    0  0.37321764235E+03  0.26085809582E+03  0.13844628371E+04  0.14667312985E+04  0.16500000000E+03 0.  0.
<mgrwt>
<rscale>  0 0.10541443E+04</rscale>
<asrwt>0</asrwt>
<pdfrwt beam="1">  1        2 0.31454676E+00 0.10541443E+04</pdfrwt>
<pdfrwt beam="2">  1       -2 0.20903944E-01 0.10541443E+04</pdfrwt>
<totfact> 0.12459838E+02</totfact>
</mgrwt>
</event>
<event>
 4    1  0.3145406E-005  0.1004741E+04  0.7818608E-02  0.9303360E-01
         -2   -1    0    0    0  501 -0.00000000000E+00  0.00000000000E+00  0.49204379731E+03  0.49204379732E+03  0.25500000000E-02 0. -1.
          2   -1    0    0  501    0  0.00000000000E+00 -0.00000000000E+00 -0.51291436051E+03  0.51291436051E+03  0.25500000000E-02 0.  1.
    5000001    1    1    2    0    0  0.45938943470E+03  0.10189577228E+03  0.50651033673E+02  0.50121046311E+03  0.16500000000E+03 0.  0.
   -5000001    1    1    2    0    0 -0.45938943470E+03 -0.10189577228E+03 -0.71521596868E+02  0.50374769472E+03  0.16500000000E+03 0.  0.
<mgrwt>
<rscale>  0 0.10047414E+04</rscale>
<asrwt>0</asrwt>
<pdfrwt beam="1">  1        2 0.78909902E-01 0.10047414E+04</pdfrwt>
<pdfrwt beam="2">  1       -2 0.75699046E-01 0.10047414E+04</pdfrwt>
<totfact> 0.93397655E+01</totfact>
</mgrwt>
</event>
<event>
 4    1  0.3145406E-005  0.4516280E+03  0.7818608E-02  0.1027238E+00
          2   -1    0    0  501    0  0.00000000000E+00  0.00000000000E+00  0.18688010445E+04  0.18688010445E+04  0.25500000000E-02 0. -1.
         -2   -1    0    0    0  501 -0.00000000000E+00 -0.00000000000E+00 -0.27285928649E+02  0.27285928768E+02  0.25500000000E-02 0.  1.
    5000001    1    1    2    0    0 -0.14179004398E+03 -0.20660637354E+02  0.11595722532E+04  0.11799847834E+04  0.16500000000E+03 0.  0.
   -5000001    1    1    2    0    0  0.14179004398E+03  0.20660637354E+02  0.68194286260E+03  0.71610218988E+03  0.16500000000E+03 0.  0.
<mgrwt>
<rscale>  0 0.45162804E+03</rscale>
<asrwt>0</asrwt>
<pdfrwt beam="1">  1        2 0.28750793E+00 0.45162804E+03</pdfrwt>
<pdfrwt beam="2">  1       -2 0.41978340E-02 0.45162804E+03</pdfrwt>
<totfact> 0.22069867E+03</totfact>
</mgrwt>
</event>
<event>
 4    1  0.3145406E-005  0.6007260E+03  0.7818608E-02  0.9903901E-01
         -2   -1    0    0    0  501 -0.00000000000E+00  0.00000000000E+00  0.41998831059E+03  0.41998831059E+03  0.25500000000E-02 0. -1.
          2   -1    0    0  501    0  0.00000000000E+00 -0.00000000000E+00 -0.21481055772E+03  0.21481055774E+03  0.25500000000E-02 0.  1.
    5000001    1    1    2    0    0 -0.18768274983E+03 -0.71250095889E+02  0.26177003050E+03  0.36884948098E+03  0.16500000000E+03 0.  0.
   -5000001    1    1    2    0    0  0.18768274983E+03  0.71250095889E+02 -0.56592277638E+02  0.26594938736E+03  0.16500000000E+03 0.  0.
<mgrwt>
<rscale>  0 0.60072597E+03</rscale>
<asrwt>0</asrwt>
<pdfrwt beam="1">  1        2 0.33047778E-01 0.60072597E+03</pdfrwt>
<pdfrwt beam="2">  1       -2 0.64613586E-01 0.60072597E+03</pdfrwt>
<totfact> 0.35636956E+02</totfact>
</mgrwt>
</event>
<event>
 4    1  0.3145406E-005  0.5128615E+03  0.7818608E-02  0.1010475E+00
          2   -1    0    0  501    0  0.00000000000E+00  0.00000000000E+00  0.12564001606E+04  0.12564001606E+04  0.25500000000E-02 0.  1.
         -2   -1    0    0    0  501 -0.00000000000E+00 -0.00000000000E+00 -0.52337408497E+02  0.52337408559E+02  0.25500000000E-02 0. -1.
    5000001    1    1    2    0    0  0.17961948616E+03  0.29985560698E+02  0.41504207316E+03  0.48233516993E+03  0.16500000000E+03 0.  0.
   -5000001    1    1    2    0    0 -0.17961948616E+03 -0.29985560698E+02  0.78902067897E+03  0.82640239926E+03  0.16500000000E+03 0.  0.
<mgrwt>
<rscale>  0 0.51286150E+03</rscale>
<asrwt>0</asrwt>
<pdfrwt beam="1">  1        2 0.19329234E+00 0.51286150E+03</pdfrwt>
<pdfrwt beam="2">  1       -2 0.80519087E-02 0.51286150E+03</pdfrwt>
<totfact> 0.17293694E+03</totfact>
</mgrwt>
</event>
<event>
 4    1  0.3145406E-005  0.4498217E+03  0.7818608E-02  0.1027775E+00
          2   -1    0    0  501    0  0.00000000000E+00  0.00000000000E+00  0.78911817224E+02  0.78911817265E+02  0.25500000000E-02 0.  1.
         -2   -1    0    0    0  501 -0.00000000000E+00 -0.00000000000E+00 -0.64103057690E+03  0.64103057690E+03  0.25500000000E-02 0. -1.
    5000001    1    1    2    0    0 -0.14673691793E+03  0.25288410825E+01 -0.34937249405E+03  0.41330891319E+03  0.16500000000E+03 0.  0.
   -5000001    1    1    2    0    0  0.14673691793E+03 -0.25288410825E+01 -0.21274626562E+03  0.30663348098E+03  0.16500000000E+03 0.  0.
<mgrwt>
<rscale>  0 0.44982169E+03</rscale>
<asrwt>0</asrwt>
<pdfrwt beam="1">  1        2 0.12140280E-01 0.44982169E+03</pdfrwt>
<pdfrwt beam="2">  1       -2 0.98620086E-01 0.44982169E+03</pdfrwt>
<totfact> 0.44842099E+02</totfact>
</mgrwt>
</event>
<event>
 4    1  0.3145406E-005  0.6263964E+03  0.7818608E-02  0.9852106E-01
         -2   -1    0    0    0  501 -0.00000000000E+00  0.00000000000E+00  0.57994973097E+02  0.57994973153E+02  0.25500000000E-02 0. -1.
          2   -1    0    0  501    0  0.00000000000E+00 -0.00000000000E+00 -0.16914072461E+04  0.16914072461E+04  0.25500000000E-02 0.  1.
    5000001    1    1    2    0    0  0.86515760486E+02  0.22737942493E+03 -0.11185581942E+04  0.11565395858E+04  0.16500000000E+03 0.  0.
   -5000001    1    1    2    0    0 -0.86515760486E+02 -0.22737942493E+03 -0.51485407877E+03  0.59286263343E+03  0.16500000000E+03 0.  0.
<mgrwt>
<rscale>  0 0.62639642E+03</rscale>
<asrwt>0</asrwt>
<pdfrwt beam="1">  1        2 0.26021646E+00 0.62639642E+03</pdfrwt>
<pdfrwt beam="2">  1       -2 0.89223048E-02 0.62639642E+03</pdfrwt>
<totfact> 0.83746655E+02</totfact>
</mgrwt>
</event>
<event>
 4    1  0.3145406E-005  0.9392203E+03  0.7818608E-02  0.9377840E-01
         -2   -1    0    0    0  501 -0.00000000000E+00  0.00000000000E+00  0.16541025136E+03  0.16541025138E+03  0.25500000000E-02 0. -1.
          2   -1    0    0  501    0  0.00000000000E+00 -0.00000000000E+00 -0.13332529501E+04  0.13332529501E+04  0.25500000000E-02 0.  1.
    5000001    1    1    2    0    0  0.29997497073E+03  0.15698113750E+03 -0.10315011890E+04  0.10981109978E+04  0.16500000000E+03 0.  0.
   -5000001    1    1    2    0    0 -0.29997497073E+03 -0.15698113750E+03 -0.13634150974E+03  0.40055220368E+03  0.16500000000E+03 0.  0.
<mgrwt>
<rscale>  0 0.93922033E+03</rscale>
<asrwt>0</asrwt>
<pdfrwt beam="1">  1        2 0.20511583E+00 0.93922033E+03</pdfrwt>
<pdfrwt beam="2">  1       -2 0.25447732E-01 0.93922033E+03</pdfrwt>
<totfact> 0.21958470E+02</totfact>
</mgrwt>
</event>
<event>
 4    1  0.3145406E-005  0.3550507E+03  0.7818608E-02  0.1060561E+00
         -2   -1    0    0    0  501 -0.00000000000E+00  0.00000000000E+00  0.99854420705E+02  0.99854420738E+02  0.25500000000E-02 0. -1.
          2   -1    0    0  501    0  0.00000000000E+00 -0.00000000000E+00 -0.31561198589E+03  0.31561198590E+03  0.25500000000E-02 0.  1.
    5000001    1    1    2    0    0 -0.34056195215E+02 -0.55695506791E+02 -0.10163861934E+03  0.20449259852E+03  0.16500000000E+03 0.  0.
   -5000001    1    1    2    0    0  0.34056195215E+02  0.55695506791E+02 -0.11411894584E+03  0.21097380811E+03  0.16500000000E+03 0.  0.
<mgrwt>
<rscale>  0 0.35505071E+03</rscale>
<asrwt>0</asrwt>
<pdfrwt beam="1">  1        2 0.48555690E-01 0.35505071E+03</pdfrwt>
<pdfrwt beam="2">  1       -2 0.15362219E-01 0.35505071E+03</pdfrwt>
<totfact> 0.34165939E+03</totfact>
</mgrwt>
</event>
<event>
 4    1  0.3145406E-005  0.6072436E+03  0.7818608E-02  0.9890491E-01
          2   -1    0    0  501    0  0.00000000000E+00  0.00000000000E+00  0.94177801359E+03  0.94177801359E+03  0.25500000000E-02 0.  1.
         -2   -1    0    0    0  501 -0.00000000000E+00 -0.00000000000E+00 -0.97885259244E+02  0.97885259278E+02  0.25500000000E-02 0. -1.
    5000001    1    1    2    0    0  0.22668666980E+03 -0.28079489311E+02  0.22835094096E+03  0.36269057917E+03  0.16500000000E+03 0.  0.
   -5000001    1    1    2    0    0 -0.22668666980E+03  0.28079489311E+02  0.61554181339E+03  0.67697269370E+03  0.16500000000E+03 0.  0.
<mgrwt>
<rscale>  0 0.60724356E+03</rscale>
<asrwt>0</asrwt>
<pdfrwt beam="1">  1        2 0.14488893E+00 0.60724356E+03</pdfrwt>
<pdfrwt beam="2">  1       -2 0.15059271E-01 0.60724356E+03</pdfrwt>
<totfact> 0.96358876E+02</totfact>
</mgrwt>
</event>
<event>
 4    1  0.3145406E-005  0.5604243E+03  0.7818608E-02  0.9991095E-01
         -2   -1    0    0    0  501 -0.00000000000E+00  0.00000000000E+00  0.54700268071E+02  0.54700268131E+02  0.25500000000E-02 0. -1.
          2   -1    0    0  501    0  0.00000000000E+00 -0.00000000000E+00 -0.14354381466E+04  0.14354381466E+04  0.25500000000E-02 0.  1.
    5000001    1    1    2    0    0 -0.11586898449E+03 -0.19132300636E+03 -0.78489205320E+03  0.83265277847E+03  0.16500000000E+03 0.  0.
   -5000001    1    1    2    0    0  0.11586898449E+03  0.19132300636E+03 -0.59584582537E+03  0.65748563630E+03  0.16500000000E+03 0.  0.
<mgrwt>
<rscale>  0 0.56042431E+03</rscale>
<asrwt>0</asrwt>
<pdfrwt beam="1">  1        2 0.22083661E+00 0.56042431E+03</pdfrwt>
<pdfrwt beam="2">  1       -2 0.84154269E-02 0.56042431E+03</pdfrwt>
<totfact> 0.12752310E+03</totfact>
</mgrwt>
</event>
<event>
 4    1  0.3145406E-005  0.4243966E+03  0.7818608E-02  0.1035645E+00
         -2   -1    0    0    0  501 -0.00000000000E+00  0.00000000000E+00  0.30318930891E+02  0.30318930998E+02  0.25500000000E-02 0. -1.
          2   -1    0    0  501    0  0.00000000000E+00 -0.00000000000E+00 -0.14851484572E+04  0.14851484572E+04  0.25500000000E-02 0.  1.
    5000001    1    1    2    0    0  0.12158209635E+03  0.25214590068E+02 -0.55302101336E+03  0.59031789988E+03  0.16500000000E+03 0.  0.
   -5000001    1    1    2    0    0 -0.12158209635E+03 -0.25214590068E+02 -0.90180851297E+03  0.92514948833E+03  0.16500000000E+03 0.  0.
<mgrwt>
<rscale>  0 0.42439658E+03</rscale>
<asrwt>0</asrwt>
<pdfrwt beam="1">  1        2 0.22848432E+00 0.42439658E+03</pdfrwt>
<pdfrwt beam="2">  1       -2 0.46644521E-02 0.42439658E+03</pdfrwt>
<totfact> 0.30244452E+03</totfact>
</mgrwt>
</event>
<event>
 4    1  0.3145406E-005  0.8695581E+03  0.7818608E-02  0.9464456E-01
         -2   -1    0    0    0  501 -0.00000000000E+00  0.00000000000E+00  0.19429121463E+03  0.19429121465E+03  0.25500000000E-02 0. -1.
          2   -1    0    0  501    0  0.00000000000E+00 -0.00000000000E+00 -0.97293542917E+03  0.97293542917E+03  0.25500000000E-02 0.  1.
    5000001    1    1    2    0    0  0.78826260214E+01  0.29437620083E+03 -0.21495782219E+02  0.33824037616E+03  0.16500000000E+03 0.  0.
   -5000001    1    1    2    0    0 -0.78826260214E+01 -0.29437620083E+03 -0.75714843232E+03  0.82898626766E+03  0.16500000000E+03 0.  0.
<mgrwt>
<rscale>  0 0.86955806E+03</rscale>
<asrwt>0</asrwt>
<pdfrwt beam="1">  1        2 0.14968237E+00 0.86955806E+03</pdfrwt>
<pdfrwt beam="2">  1       -2 0.29890957E-01 0.86955806E+03</pdfrwt>
<totfact> 0.27136244E+02</totfact>
</mgrwt>
</event>
<event>
 4    1  0.3145406E-005  0.8566353E+03  0.7818608E-02  0.9481474E-01
         -2   -1    0    0    0  501 -0.00000000000E+00  0.00000000000E+00  0.10136303621E+03  0.10136303624E+03  0.25500000000E-02 0. -1.
          2   -1    0    0  501    0  0.00000000000E+00 -0.00000000000E+00 -0.18098907206E+04  0.18098907206E+04  0.25500000000E-02 0.  1.
    5000001    1    1    2    0    0  0.20749203879E+03 -0.30382070316E+03 -0.53193842521E+03  0.66749041494E+03  0.16500000000E+03 0.  0.
   -5000001    1    1    2    0    0 -0.20749203879E+03  0.30382070316E+03 -0.11765892592E+04  0.12437633419E+04  0.16500000000E+03 0.  0.
<mgrwt>
<rscale>  0 0.85663532E+03</rscale>
<asrwt>0</asrwt>
<pdfrwt beam="1">  1        2 0.27844470E+00 0.85663532E+03</pdfrwt>
<pdfrwt beam="2">  1       -2 0.15594315E-01 0.85663532E+03</pdfrwt>
<totfact> 0.28266359E+02</totfact>
</mgrwt>
</event>
<event>
 4    1  0.3145406E-005  0.8173442E+03  0.7818608E-02  0.9535246E-01
         -2   -1    0    0    0  501 -0.00000000000E+00  0.00000000000E+00  0.90963161301E+02  0.90963161337E+02  0.25500000000E-02 0. -1.
          2   -1    0    0  501    0  0.00000000000E+00 -0.00000000000E+00 -0.18360496065E+04  0.18360496065E+04  0.25500000000E-02 0.  1.
    5000001    1    1    2    0    0  0.11479375413E+03 -0.33692675118E+03 -0.11422923035E+04  0.12077888674E+04  0.16500000000E+03 0.  0.
   -5000001    1    1    2    0    0 -0.11479375413E+03  0.33692675118E+03 -0.60279414167E+03  0.71922390038E+03  0.16500000000E+03 0.  0.
<mgrwt>
<rscale>  0 0.81734418E+03</rscale>
<asrwt>0</asrwt>
<pdfrwt beam="1">  1        2 0.28246914E+00 0.81734418E+03</pdfrwt>
<pdfrwt beam="2">  1       -2 0.13994334E-01 0.81734418E+03</pdfrwt>
<totfact> 0.32935849E+02</totfact>
</mgrwt>
</event>
<event>
 4    1  0.3145406E-005  0.6286269E+03  0.7818608E-02  0.9847732E-01
         -2   -1    0    0    0  501 -0.00000000000E+00  0.00000000000E+00  0.82684445880E+02  0.82684445920E+02  0.25500000000E-02 0. -1.
          2   -1    0    0  501    0  0.00000000000E+00 -0.00000000000E+00 -0.11948191349E+04  0.11948191349E+04  0.25500000000E-02 0.  1.
    5000001    1    1    2    0    0 -0.44442992240E+02 -0.24860093088E+03 -0.73543650691E+03  0.79490216888E+03  0.16500000000E+03 0.  0.
   -5000001    1    1    2    0    0  0.44442992240E+02  0.24860093088E+03 -0.37669818208E+03  0.48260141191E+03  0.16500000000E+03 0.  0.
<mgrwt>
<rscale>  0 0.62862694E+03</rscale>
<asrwt>0</asrwt>
<pdfrwt beam="1">  1        2 0.18381832E+00 0.62862694E+03</pdfrwt>
<pdfrwt beam="2">  1       -2 0.12720685E-01 0.62862694E+03</pdfrwt>
<totfact> 0.89121582E+02</totfact>
</mgrwt>
</event>
<event>
 4    1  0.3145406E-005  0.4472473E+03  0.7818608E-02  0.1028546E+00
         -2   -1    0    0    0  501 -0.00000000000E+00  0.00000000000E+00  0.36762395448E+02  0.36762395536E+02  0.25500000000E-02 0.  1.
          2   -1    0    0  501    0  0.00000000000E+00 -0.00000000000E+00 -0.13602902931E+04  0.13602902931E+04  0.25500000000E-02 0. -1.
    5000001    1    1    2    0    0 -0.10010532304E+03  0.69197157519E+02 -0.38284268762E+03  0.43428429142E+03  0.16500000000E+03 0.  0.
   -5000001    1    1    2    0    0  0.10010532304E+03 -0.69197157519E+02 -0.94068520999E+03  0.96276839718E+03  0.16500000000E+03 0.  0.
<mgrwt>
<rscale>  0 0.44724727E+03</rscale>
<asrwt>0</asrwt>
<pdfrwt beam="1">  1        2 0.20927539E+00 0.44724727E+03</pdfrwt>
<pdfrwt beam="2">  1       -2 0.56557542E-02 0.44724727E+03</pdfrwt>
<totfact> 0.26325446E+03</totfact>
</mgrwt>
</event>
<event>
 4    1  0.3145406E-005  0.6581432E+03  0.7818608E-02  0.9791618E-01
         -2   -1    0    0    0  501 -0.00000000000E+00  0.00000000000E+00  0.35002910863E+03  0.35002910864E+03  0.25500000000E-02 0. -1.
          2   -1    0    0  501    0  0.00000000000E+00 -0.00000000000E+00 -0.30936891532E+03  0.30936891533E+03  0.25500000000E-02 0.  1.
    5000001    1    1    2    0    0  0.61641425776E+02 -0.27796112000E+03  0.21369412163E+02  0.32976309888E+03  0.16500000000E+03 0.  0.
   -5000001    1    1    2    0    0 -0.61641425776E+02  0.27796112000E+03  0.19290781148E+02  0.32963492510E+03  0.16500000000E+03 0.  0.
<mgrwt>
<rscale>  0 0.65814322E+03</rscale>
<asrwt>0</asrwt>
<pdfrwt beam="1">  1        2 0.47595218E-01 0.65814322E+03</pdfrwt>
<pdfrwt beam="2">  1       -2 0.53850632E-01 0.65814322E+03</pdfrwt>
<totfact> 0.34793738E+02</totfact>
</mgrwt>
</event>
<event>
 4    1  0.3145406E-005  0.5983910E+03  0.7818608E-02  0.9908750E-01
         -2   -1    0    0    0  501 -0.00000000000E+00  0.00000000000E+00  0.11434802654E+04  0.11434802654E+04  0.25500000000E-02 0. -1.
          2   -1    0    0  501    0  0.00000000000E+00 -0.00000000000E+00 -0.78285522898E+02  0.78285522940E+02  0.25500000000E-02 0.  1.
    5000001    1    1    2    0    0  0.68746766798E+01 -0.24448627174E+03  0.63411477643E+03  0.69939069763E+03  0.16500000000E+03 0.  0.
   -5000001    1    1    2    0    0 -0.68746766798E+01  0.24448627174E+03  0.43107996611E+03  0.52237509074E+03  0.16500000000E+03 0.  0.
<mgrwt>
<rscale>  0 0.59839101E+03</rscale>
<asrwt>0</asrwt>
<pdfrwt beam="1">  1        2 0.12043927E-01 0.59839101E+03</pdfrwt>
<pdfrwt beam="2">  1       -2 0.17592004E+00 0.59839101E+03</pdfrwt>
<totfact> 0.10386807E+02</totfact>
</mgrwt>
</event>
<event>
 4    1  0.3145406E-005  0.8659539E+03  0.7818608E-02  0.9469171E-01
          2   -1    0    0  501    0  0.00000000000E+00  0.00000000000E+00  0.20909712360E+04  0.20909712360E+04  0.25500000000E-02 0.  1.
         -2   -1    0    0    0  501 -0.00000000000E+00 -0.00000000000E+00 -0.89656442694E+02  0.89656442730E+02  0.25500000000E-02 0. -1.
    5000001    1    1    2    0    0 -0.27319967213E+03  0.11850127455E+03  0.16743042993E+04  0.17085667970E+04  0.16500000000E+03 0.  0.
   -5000001    1    1    2    0    0  0.27319967213E+03 -0.11850127455E+03  0.32701049394E+03  0.47206088174E+03  0.16500000000E+03 0.  0.
<mgrwt>
<rscale>  0 0.86595391E+03</rscale>
<asrwt>0</asrwt>
<pdfrwt beam="1">  1        2 0.32168789E+00 0.86595391E+03</pdfrwt>
<pdfrwt beam="2">  1       -2 0.13793299E-01 0.86595391E+03</pdfrwt>
<totfact> 0.24382920E+02</totfact>
</mgrwt>
</event>
<event>
 4    1  0.3145406E-005  0.7273734E+03  0.7818608E-02  0.9671532E-01
          2   -1    0    0  501    0  0.00000000000E+00  0.00000000000E+00  0.34159528982E+03  0.34159528983E+03  0.25500000000E-02 0.  1.
         -2   -1    0    0    0  501 -0.00000000000E+00 -0.00000000000E+00 -0.38720677795E+03  0.38720677796E+03  0.25500000000E-02 0. -1.
    5000001    1    1    2    0    0 -0.16629122304E+03  0.23160541004E+03  0.13160462091E+03  0.35473738605E+03  0.16500000000E+03 0.  0.
   -5000001    1    1    2    0    0  0.16629122304E+03 -0.23160541004E+03 -0.17721610904E+03  0.37406468174E+03  0.16500000000E+03 0.  0.
<mgrwt>
<rscale>  0 0.72737339E+03</rscale>
<asrwt>0</asrwt>
<pdfrwt beam="1">  1        2 0.52553121E-01 0.72737339E+03</pdfrwt>
<pdfrwt beam="2">  1       -2 0.59570274E-01 0.72737339E+03</pdfrwt>
<totfact> 0.25204662E+02</totfact>
</mgrwt>
</event>
<event>
 4    1  0.3145406E-005  0.4428053E+03  0.7818608E-02  0.1029890E+00
         -2   -1    0    0    0  501 -0.00000000000E+00  0.00000000000E+00  0.14386834056E+03  0.14386834058E+03  0.25500000000E-02 0. -1.
          2   -1    0    0  501    0  0.00000000000E+00 -0.00000000000E+00 -0.34072217195E+03  0.34072217196E+03  0.25500000000E-02 0.  1.
    5000001    1    1    2    0    0  0.14364540096E+03  0.19337924103E+02 -0.12911164176E+03  0.25476022563E+03  0.16500000000E+03 0.  0.
   -5000001    1    1    2    0    0 -0.14364540096E+03 -0.19337924103E+02 -0.67742189629E+02  0.22983028691E+03  0.16500000000E+03 0.  0.
<mgrwt>
<rscale>  0 0.44280530E+03</rscale>
<asrwt>0</asrwt>
<pdfrwt beam="1">  1        2 0.52418795E-01 0.44280530E+03</pdfrwt>
<pdfrwt beam="2">  1       -2 0.22133591E-01 0.44280530E+03</pdfrwt>
<totfact> 0.16888403E+03</totfact>
</mgrwt>
</event>
<event>
 4    1  0.3145406E-005  0.3542718E+03  0.7818608E-02  0.1060875E+00
          2   -1    0    0  501    0  0.00000000000E+00  0.00000000000E+00  0.37236361367E+03  0.37236361368E+03  0.25500000000E-02 0.  1.
         -2   -1    0    0    0  501 -0.00000000000E+00 -0.00000000000E+00 -0.84264738443E+02  0.84264738481E+02  0.25500000000E-02 0. -1.
    5000001    1    1    2    0    0  0.31505326801E+02  0.49217141565E+02  0.10905315662E+03  0.20623409905E+03  0.16500000000E+03 0.  0.
   -5000001    1    1    2    0    0 -0.31505326801E+02 -0.49217141565E+02  0.17904571861E+03  0.25039425312E+03  0.16500000000E+03 0.  0.
<mgrwt>
<rscale>  0 0.35427177E+03</rscale>
<asrwt>0</asrwt>
<pdfrwt beam="1">  1        2 0.57286709E-01 0.35427177E+03</pdfrwt>
<pdfrwt beam="2">  1       -2 0.12963806E-01 0.35427177E+03</pdfrwt>
<totfact> 0.37773297E+03</totfact>
</mgrwt>
</event>
<event>
 4    1  0.3145406E-005  0.5320384E+03  0.7818608E-02  0.1005739E+00
         -2   -1    0    0    0  501 -0.00000000000E+00  0.00000000000E+00  0.11755147875E+03  0.11755147878E+03  0.25500000000E-02 0. -1.
          2   -1    0    0  501    0  0.00000000000E+00 -0.00000000000E+00 -0.60200200223E+03  0.60200200223E+03  0.25500000000E-02 0.  1.
    5000001    1    1    2    0    0  0.20102093280E+03  0.15163700621E+02 -0.31508023755E+03  0.40882748114E+03  0.16500000000E+03 0.  0.
   -5000001    1    1    2    0    0 -0.20102093280E+03 -0.15163700621E+02 -0.16937028592E+03  0.31072599987E+03  0.16500000000E+03 0.  0.
<mgrwt>
<rscale>  0 0.53203844E+03</rscale>
<asrwt>0</asrwt>
<pdfrwt beam="1">  1        2 0.92615691E-01 0.53203844E+03</pdfrwt>
<pdfrwt beam="2">  1       -2 0.18084843E-01 0.53203844E+03</pdfrwt>
<totfact> 0.12586012E+03</totfact>
</mgrwt>
</event>
<event>
 4    1  0.3145406E-005  0.4341966E+03  0.7818608E-02  0.1032542E+00
          2   -1    0    0  501    0  0.00000000000E+00  0.00000000000E+00  0.41081036336E+03  0.41081036337E+03  0.25500000000E-02 0.  1.
         -2   -1    0    0    0  501 -0.00000000000E+00 -0.00000000000E+00 -0.11472852766E+03  0.11472852769E+03  0.25500000000E-02 0. -1.
    5000001    1    1    2    0    0 -0.10219624999E+03  0.18874682786E+02  0.26354315955E+03  0.32784191939E+03  0.16500000000E+03 0.  0.
   -5000001    1    1    2    0    0  0.10219624999E+03 -0.18874682786E+02  0.32538676150E+02  0.19769697167E+03  0.16500000000E+03 0.  0.
<mgrwt>
<rscale>  0 0.43419658E+03</rscale>
<asrwt>0</asrwt>
<pdfrwt beam="1">  1        2 0.63201594E-01 0.43419658E+03</pdfrwt>
<pdfrwt beam="2">  1       -2 0.17650543E-01 0.43419658E+03</pdfrwt>
<totfact> 0.20315042E+03</totfact>
</mgrwt>
</event>
<event>
 4    1  0.3145406E-005  0.6208347E+03  0.7818608E-02  0.9863099E-01
          2   -1    0    0  501    0  0.00000000000E+00  0.00000000000E+00  0.19487134174E+04  0.19487134174E+04  0.25500000000E-02 0.  1.
         -2   -1    0    0    0  501 -0.00000000000E+00 -0.00000000000E+00 -0.49447463944E+02  0.49447464010E+02  0.25500000000E-02 0. -1.
    5000001    1    1    2    0    0  0.10004447181E+03 -0.23718458992E+03  0.11220113102E+04  0.11629272575E+04  0.16500000000E+03 0.  0.
   -5000001    1    1    2    0    0 -0.10004447181E+03  0.23718458992E+03  0.77725464321E+03  0.83523362386E+03  0.16500000000E+03 0.  0.
<mgrwt>
<rscale>  0 0.62083472E+03</rscale>
<asrwt>0</asrwt>
<pdfrwt beam="1">  1        2 0.29980210E+00 0.62083472E+03</pdfrwt>
<pdfrwt beam="2">  1       -2 0.76073012E-02 0.62083472E+03</pdfrwt>
<totfact> 0.78404193E+02</totfact>
</mgrwt>
</event>
<event>
 4    1  0.3145406E-005  0.5506104E+03  0.7818608E-02  0.1001353E+00
         -2   -1    0    0    0  501 -0.00000000000E+00  0.00000000000E+00  0.19082332656E+03  0.19082332658E+03  0.25500000000E-02 0. -1.
          2   -1    0    0  501    0  0.00000000000E+00 -0.00000000000E+00 -0.39718909505E+03  0.39718909506E+03  0.25500000000E-02 0.  1.
    5000001    1    1    2    0    0 -0.20575896939E+03  0.63087084937E+02 -0.52512968627E+02  0.27622336187E+03  0.16500000000E+03 0.  0.
   -5000001    1    1    2    0    0  0.20575896939E+03 -0.63087084937E+02 -0.15385279986E+03  0.31178905977E+03  0.16500000000E+03 0.  0.
<mgrwt>
<rscale>  0 0.55061037E+03</rscale>
<asrwt>0</asrwt>
<pdfrwt beam="1">  1        2 0.61106014E-01 0.55061037E+03</pdfrwt>
<pdfrwt beam="2">  1       -2 0.29357435E-01 0.55061037E+03</pdfrwt>
<totfact> 0.85879644E+02</totfact>
</mgrwt>
</event>
<event>
 4    1  0.3145406E-005  0.5096634E+03  0.7818608E-02  0.1011287E+00
          2   -1    0    0  501    0  0.00000000000E+00  0.00000000000E+00  0.23820520163E+03  0.23820520165E+03  0.25500000000E-02 0.  1.
         -2   -1    0    0    0  501 -0.00000000000E+00 -0.00000000000E+00 -0.27261872590E+03  0.27261872591E+03  0.25500000000E-02 0. -1.
    5000001    1    1    2    0    0 -0.95818685075E+02  0.14569721385E+03 -0.10287242959E+03  0.26118314513E+03  0.16500000000E+03 0.  0.
   -5000001    1    1    2    0    0  0.95818685075E+02 -0.14569721385E+03  0.68458905320E+02  0.24964078243E+03  0.16500000000E+03 0.  0.
<mgrwt>
<rscale>  0 0.50966341E+03</rscale>
<asrwt>0</asrwt>
<pdfrwt beam="1">  1        2 0.36646954E-01 0.50966341E+03</pdfrwt>
<pdfrwt beam="2">  1       -2 0.41941342E-01 0.50966341E+03</pdfrwt>
<totfact> 0.76875296E+02</totfact>
</mgrwt>
</event>
<event>
 4    1  0.3145406E-005  0.5698164E+03  0.7818608E-02  0.9970085E-01
          2   -1    0    0  501    0  0.00000000000E+00  0.00000000000E+00  0.17160242466E+04  0.17160242466E+04  0.25500000000E-02 0. -1.
         -2   -1    0    0    0  501 -0.00000000000E+00 -0.00000000000E+00 -0.47302757559E+02  0.47302757628E+02  0.25500000000E-02 0.  1.
    5000001    1    1    2    0    0 -0.24501391761E+02  0.23044894954E+03  0.88236547312E+03  0.92709269477E+03  0.16500000000E+03 0.  0.
   -5000001    1    1    2    0    0  0.24501391761E+02 -0.23044894954E+03  0.78635601597E+03  0.83623430950E+03  0.16500000000E+03 0.  0.
<mgrwt>
<rscale>  0 0.56981639E+03</rscale>
<asrwt>0</asrwt>
<pdfrwt beam="1">  1        2 0.26400377E+00 0.56981639E+03</pdfrwt>
<pdfrwt beam="2">  1       -2 0.72773462E-02 0.56981639E+03</pdfrwt>
<totfact> 0.11274979E+03</totfact>
</mgrwt>
</event>
<event>
 4    1  0.3145406E-005  0.5308523E+03  0.7818608E-02  0.1006026E+00
         -2   -1    0    0    0  501 -0.00000000000E+00  0.00000000000E+00  0.41140010380E+02  0.41140010459E+02  0.25500000000E-02 0. -1.
          2   -1    0    0  501    0  0.00000000000E+00 -0.00000000000E+00 -0.17124704290E+04  0.17124704290E+04  0.25500000000E-02 0.  1.
    5000001    1    1    2    0    0 -0.29647410603E+02  0.20577335243E+03 -0.82872827932E+03  0.87019377294E+03  0.16500000000E+03 0.  0.
   -5000001    1    1    2    0    0  0.29647410603E+02 -0.20577335243E+03 -0.84260213926E+03  0.88341666648E+03  0.16500000000E+03 0.  0.
<mgrwt>
<rscale>  0 0.53085234E+03</rscale>
<asrwt>0</asrwt>
<pdfrwt beam="1">  1        2 0.26345693E+00 0.53085234E+03</pdfrwt>
<pdfrwt beam="2">  1       -2 0.63292337E-02 0.53085234E+03</pdfrwt>
<totfact> 0.14136983E+03</totfact>
</mgrwt>
</event>
<event>
 4    1  0.3145406E-005  0.1025716E+04  0.7818608E-02  0.9280781E-01
          2   -1    0    0  501    0  0.00000000000E+00  0.00000000000E+00  0.74668091668E+03  0.74668091668E+03  0.25500000000E-02 0.  1.
         -2   -1    0    0    0  501 -0.00000000000E+00 -0.00000000000E+00 -0.35225652124E+03  0.35225652125E+03  0.25500000000E-02 0. -1.
    5000001    1    1    2    0    0  0.24610636767E+03  0.41214327739E+03  0.11871684172E+03  0.52129561078E+03  0.16500000000E+03 0.  0.
   -5000001    1    1    2    0    0 -0.24610636767E+03 -0.41214327739E+03  0.27570755371E+03  0.57764182715E+03  0.16500000000E+03 0.  0.
<mgrwt>
<rscale>  0 0.10257158E+04</rscale>
<asrwt>0</asrwt>
<pdfrwt beam="1">  1        2 0.11487399E+00 0.10257158E+04</pdfrwt>
<pdfrwt beam="2">  1       -2 0.54193311E-01 0.10257158E+04</pdfrwt>
<totfact> 0.12058899E+02</totfact>
</mgrwt>
</event>
<event>
 4    1  0.3145406E-005  0.3906253E+03  0.7818608E-02  0.1047075E+00
          2   -1    0    0  501    0  0.00000000000E+00  0.00000000000E+00  0.52577735429E+03  0.52577735429E+03  0.25500000000E-02 0.  1.
         -2   -1    0    0    0  501 -0.00000000000E+00 -0.00000000000E+00 -0.72553573566E+02  0.72553573611E+02  0.25500000000E-02 0. -1.
    5000001    1    1    2    0    0 -0.38266620444E+02 -0.97136243883E+02  0.23383570509E+03  0.30463735997E+03  0.16500000000E+03 0.  0.
   -5000001    1    1    2    0    0  0.38266620444E+02  0.97136243883E+02  0.21938807564E+03  0.29369356794E+03  0.16500000000E+03 0.  0.
<mgrwt>
<rscale>  0 0.39062527E+03</rscale>
<asrwt>0</asrwt>
<pdfrwt beam="1">  1        2 0.80888824E-01 0.39062527E+03</pdfrwt>
<pdfrwt beam="2">  1       -2 0.11162088E-01 0.39062527E+03</pdfrwt>
<totfact> 0.32871797E+03</totfact>
</mgrwt>
</event>
