<event>
 6    2  0.1063641E+001  0.8306268E+02  0.7546771E-02  0.1320578E+00
         -1   -1    0    0    0  501 -0.00000000000E+00  0.00000000000E+00  0.57574606236E+01  0.57574606236E+01  0.00000000000E+00 0.  1.
          2   -1    0    0  502    0  0.00000000000E+00 -0.00000000000E+00 -0.67108810445E+03  0.67108810445E+03  0.00000000000E+00 0. -1.
         24    2    1    2    0    0 -0.20450606751E+02 -0.63438610821E+01 -0.31202350260E+03  0.32289018945E+03  0.80255444548E+02 0.  0.
        -11    1    3    3    0    0 -0.45270570605E+02  0.14962702046E+02 -0.14326237919E+03  0.15098813300E+03  0.00000000000E+00 0.  1.
         12    1    3    3    0    0  0.24819963854E+02 -0.21306563128E+02 -0.16876112341E+03  0.17190205645E+03  0.00000000000E+00 0. -1.
         21    1    1    2  502  501  0.20450606751E+02  0.63438610821E+01 -0.35330714122E+03  0.35395537562E+03  0.00000000000E+00 0. -1.
<mgrwt>
<rscale>  1 0.83062677E+02</rscale>
<asrwt>0</asrwt>
<pdfrwt beam="1">  1        2 0.10324428E+00 0.83062677E+02</pdfrwt>
<pdfrwt beam="2">  1       -1 0.88576355E-03 0.83062677E+02</pdfrwt>
<totfact> 0.97252552E+04</totfact>
</mgrwt>
</event>
<event>
 6    2  0.1063641E+001  0.8155456E+02  0.7546771E-02  0.1324697E+00
          4   -1    0    0  502    0  0.00000000000E+00  0.00000000000E+00  0.16540858375E+02  0.16540858375E+02  0.00000000000E+00 0. -1.
         -3   -1    0    0    0  501 -0.00000000000E+00 -0.00000000000E+00 -0.18129593569E+03  0.18129593569E+03  0.00000000000E+00 0.  1.
         24    2    1    2    0    0  0.23314488124E+02  0.11914928677E+02 -0.13869333947E+03  0.16089433799E+03  0.77237391849E+02 0.  0.
        -13    1    3    3    0    0  0.32835490637E+02 -0.24447135142E+02 -0.93793946026E+02  0.10233834166E+03  0.00000000000E+00 0.  1.
         14    1    3    3    0    0 -0.95210025133E+01  0.36362063819E+02 -0.44899393447E+02  0.58555996328E+02  0.00000000000E+00 0. -1.
         21    1    1    2  502  501 -0.23314488124E+02 -0.11914928677E+02 -0.26061737840E+02  0.36942456078E+02  0.00000000000E+00 0. -1.
<mgrwt>
<rscale>  1 0.81554556E+02</rscale>
<asrwt>0</asrwt>
<pdfrwt beam="1">  1        4 0.25447476E-02 0.81554556E+02</pdfrwt>
<pdfrwt beam="2">  1       -3 0.27891681E-01 0.81554556E+02</pdfrwt>
<totfact> 0.14403559E+04</totfact>
</mgrwt>
</event>
<event>
 6    2  0.1063641E+001  0.1037322E+03  0.7546771E-02  0.1272638E+00
          2   -1    0    0  502    0  0.00000000000E+00  0.00000000000E+00  0.24872475041E+02  0.24872475041E+02  0.00000000000E+00 0. -1.
         -1   -1    0    0    0  501 -0.00000000000E+00 -0.00000000000E+00 -0.52444643633E+03  0.52444643633E+03  0.00000000000E+00 0.  1.
         24    2    1    2    0    0 -0.38790935831E+02  0.52498946140E+02 -0.98767783807E+02  0.14323213745E+03  0.80619439535E+02 0.  0.
        -11    1    3    3    0    0 -0.29509711775E+02 -0.39182570594E+01 -0.76121000643E+02  0.81734830802E+02  0.00000000000E+00 0.  1.
         12    1    3    3    0    0 -0.92812240557E+01  0.56417203200E+02 -0.22646783164E+02  0.61497306644E+02  0.00000000000E+00 0. -1.
         21    1    1    2  502  501  0.38790935831E+02 -0.52498946140E+02 -0.40080617748E+03  0.40608677392E+03  0.00000000000E+00 0.  1.
<mgrwt>
<rscale>  1 0.10373220E+03</rscale>
<asrwt>0</asrwt>
<pdfrwt beam="1">  1        2 0.38265346E-02 0.10373220E+03</pdfrwt>
<pdfrwt beam="2">  1       -1 0.80684067E-01 0.10373220E+03</pdfrwt>
<totfact> 0.38765315E+03</totfact>
</mgrwt>
</event>
<event>
 6    2  0.1063641E+001  0.8225211E+02  0.7546771E-02  0.1322779E+00
         -1   -1    0    0    0  501 -0.00000000000E+00  0.00000000000E+00  0.12752678408E+03  0.12752678408E+03  0.00000000000E+00 0.  1.
          2   -1    0    0  502    0  0.00000000000E+00 -0.00000000000E+00 -0.34934593468E+02  0.34934593468E+02  0.00000000000E+00 0. -1.
         24    2    1    2    0    0  0.23740756104E+01 -0.22208179133E+02  0.10768556276E+03  0.13550494347E+03  0.79161668904E+02 0.  0.
        -13    1    3    3    0    0  0.23685940681E+02  0.22479870339E+02  0.39771399128E+02  0.51460009182E+02  0.00000000000E+00 0.  1.
         14    1    3    3    0    0 -0.21311865070E+02 -0.44688049472E+02  0.67914163632E+02  0.84044934292E+02  0.00000000000E+00 0. -1.
         21    1    1    2  502  501 -0.23740756104E+01  0.22208179133E+02 -0.15093372145E+02  0.26956434076E+02  0.00000000000E+00 0. -1.
<mgrwt>
<rscale>  1 0.82252108E+02</rscale>
<asrwt>0</asrwt>
<pdfrwt beam="1">  1        2 0.53745529E-02 0.82252108E+02</pdfrwt>
<pdfrwt beam="2">  1       -1 0.19619505E-01 0.82252108E+02</pdfrwt>
<totfact> 0.29282906E+04</totfact>
</mgrwt>
</event>
<event>
 6    2  0.1063641E+001  0.8822361E+02  0.7546771E-02  0.1307211E+00
          2   -1    0    0  502    0  0.00000000000E+00  0.00000000000E+00  0.79547366598E+02  0.79547366598E+02  0.00000000000E+00 0. -1.
         -1   -1    0    0    0  501 -0.00000000000E+00 -0.00000000000E+00 -0.10175394130E+03  0.10175394130E+03  0.00000000000E+00 0.  1.
         24    2    1    2    0    0  0.32269792753E+02  0.12672591470E+02 -0.76574255132E+02  0.11682046753E+03  0.81126265691E+02 0.  0.
        -13    1    3    3    0    0 -0.30605984234E+01 -0.14479526689E+02 -0.70277765584E+02  0.71819135969E+02  0.00000000000E+00 0.  1.
         14    1    3    3    0    0  0.35330391177E+02  0.27152118160E+02 -0.62964895482E+01  0.45001331557E+02  0.00000000000E+00 0. -1.
         21    1    1    2  502  501 -0.32269792753E+02 -0.12672591470E+02  0.54367680433E+02  0.64480840368E+02  0.00000000000E+00 0. -1.
<mgrwt>
<rscale>  1 0.88223608E+02</rscale>
<asrwt>0</asrwt>
<pdfrwt beam="1">  1        2 0.12238056E-01 0.88223608E+02</pdfrwt>
<pdfrwt beam="2">  1       -1 0.15654452E-01 0.88223608E+02</pdfrwt>
<totfact> 0.15232887E+04</totfact>
</mgrwt>
</event>
<event>
 6    2  0.1063641E+001  0.8750175E+02  0.7546771E-02  0.1309017E+00
          2   -1    0    0  502    0  0.00000000000E+00  0.00000000000E+00  0.52198276561E+02  0.52198276561E+02  0.00000000000E+00 0. -1.
         -1   -1    0    0    0  501 -0.00000000000E+00 -0.00000000000E+00 -0.69743228095E+02  0.69743228095E+02  0.00000000000E+00 0.  1.
         24    2    1    2    0    0  0.86801802580E+01 -0.30753449480E+02 -0.20434557749E+02  0.89856149612E+02  0.81458187363E+02 0.  0.
        -13    1    3    3    0    0  0.24443744283E+02  0.13576511518E+02 -0.30883407113E+02  0.41660570501E+02  0.00000000000E+00 0.  1.
         14    1    3    3    0    0 -0.15763564025E+02 -0.44329960998E+02  0.10448849364E+02  0.48195579111E+02  0.00000000000E+00 0. -1.
         21    1    1    2  502  501 -0.86801802580E+01  0.30753449480E+02  0.28896062156E+01  0.32085355044E+02  0.00000000000E+00 0.  1.
<mgrwt>
<rscale>  1 0.87501751E+02</rscale>
<asrwt>0</asrwt>
<pdfrwt beam="1">  1        2 0.80305041E-02 0.87501751E+02</pdfrwt>
<pdfrwt beam="2">  1       -1 0.10729727E-01 0.87501751E+02</pdfrwt>
<totfact> 0.45239471E+04</totfact>
</mgrwt>
</event>
<event>
 6    2  0.1063641E+001  0.8412367E+02  0.7546771E-02  0.1317740E+00
         -1   -1    0    0    0  501 -0.00000000000E+00  0.00000000000E+00  0.12386752527E+03  0.12386752527E+03  0.00000000000E+00 0.  1.
          2   -1    0    0  502    0  0.00000000000E+00 -0.00000000000E+00 -0.22132634493E+02  0.22132634493E+02  0.00000000000E+00 0. -1.
         24    2    1    2    0    0 -0.20052474184E+01  0.20293056710E+02  0.85373595756E+02  0.11985592249E+03  0.81614717640E+02 0.  0.
        -13    1    3    3    0    0  0.37157552902E+02  0.16753683805E+02  0.61729898374E+02  0.73972630155E+02  0.00000000000E+00 0.  1.
         14    1    3    3    0    0 -0.39162800321E+02  0.35393729052E+01  0.23643697382E+02  0.45883292334E+02  0.00000000000E+00 0. -1.
         21    1    1    2  502  501  0.20052474184E+01 -0.20293056710E+02  0.16361295019E+02  0.26144237272E+02  0.00000000000E+00 0. -1.
<mgrwt>
<rscale>  1 0.84123667E+02</rscale>
<asrwt>0</asrwt>
<pdfrwt beam="1">  1        2 0.34050208E-02 0.84123667E+02</pdfrwt>
<pdfrwt beam="2">  1       -1 0.19056542E-01 0.84123667E+02</pdfrwt>
<totfact> 0.55638500E+04</totfact>
</mgrwt>
</event>
<event>
 6    2  0.1063641E+001  0.8648102E+02  0.7546771E-02  0.1311604E+00
         -1   -1    0    0    0  501 -0.00000000000E+00  0.00000000000E+00  0.74073441236E+01  0.74073441236E+01  0.00000000000E+00 0.  1.
          2   -1    0    0  502    0  0.00000000000E+00 -0.00000000000E+00 -0.68639599659E+03  0.68639599659E+03  0.00000000000E+00 0. -1.
         24    2    1    2    0    0 -0.22110710855E+02 -0.21977090892E+02 -0.26742498141E+03  0.28106064678E+03  0.80666538478E+02 0.  0.
        -13    1    3    3    0    0 -0.17684579009E+02 -0.15662766119E+02 -0.13881735255E+02  0.27400166987E+02  0.00000000000E+00 0.  1.
         14    1    3    3    0    0 -0.44261318468E+01 -0.63143247729E+01 -0.25354324615E+03  0.25366047979E+03  0.00000000000E+00 0. -1.
         21    1    1    2  502  501  0.22110710855E+02  0.21977090892E+02 -0.41156367106E+03  0.41274269393E+03  0.00000000000E+00 0. -1.
<mgrwt>
<rscale>  1 0.86481018E+02</rscale>
<asrwt>0</asrwt>
<pdfrwt beam="1">  1        2 0.10559942E+00 0.86481018E+02</pdfrwt>
<pdfrwt beam="2">  1       -1 0.11395910E-02 0.86481018E+02</pdfrwt>
<totfact> 0.66823442E+04</totfact>
</mgrwt>
</event>
<event>
 6    2  0.1063641E+001  0.8417435E+02  0.7546771E-02  0.1317606E+00
         -1   -1    0    0    0  501 -0.00000000000E+00  0.00000000000E+00  0.43405719597E+01  0.43405719597E+01  0.00000000000E+00 0.  1.
          2   -1    0    0  502    0  0.00000000000E+00 -0.00000000000E+00 -0.10087239981E+04  0.10087239981E+04  0.00000000000E+00 0. -1.
         24    2    1    2    0    0  0.18426603821E+02 -0.17443411539E+02 -0.43229702478E+03  0.44041575713E+03  0.80259012925E+02 0.  0.
        -13    1    3    3    0    0  0.37315116719E+02 -0.14497556353E-01 -0.93878726382E+02  0.10102293508E+03  0.00000000000E+00 0.  1.
         14    1    3    3    0    0 -0.18888512898E+02 -0.17428913982E+02 -0.33841829840E+03  0.33939282204E+03  0.00000000000E+00 0. -1.
         21    1    1    2  502  501 -0.18426603821E+02  0.17443411539E+02 -0.57208640140E+03  0.57264881297E+03  0.00000000000E+00 0. -1.
<mgrwt>
<rscale>  1 0.84174352E+02</rscale>
<asrwt>0</asrwt>
<pdfrwt beam="1">  1        2 0.15518822E+00 0.84174352E+02</pdfrwt>
<pdfrwt beam="2">  1       -1 0.66778070E-03 0.84174352E+02</pdfrwt>
<totfact> 0.87481537E+04</totfact>
</mgrwt>
</event>
<event>
 6    2  0.1063641E+001  0.9224770E+02  0.7546771E-02  0.1297498E+00
          2   -1    0    0  502    0  0.00000000000E+00  0.00000000000E+00  0.57426008611E+02  0.57426008611E+02  0.00000000000E+00 0. -1.
         -1   -1    0    0    0  501 -0.00000000000E+00 -0.00000000000E+00 -0.84120260256E+02  0.84120260256E+02  0.00000000000E+00 0.  1.
         24    2    1    2    0    0 -0.12556890771E+02 -0.44204862484E+02 -0.24937483603E+02  0.95558970544E+02  0.79986832604E+02 0.  0.
        -13    1    3    3    0    0 -0.42155450322E+01 -0.67396494102E+02 -0.19947648672E+02  0.70412832103E+02  0.00000000000E+00 0.  1.
         14    1    3    3    0    0 -0.83413457388E+01  0.23191631619E+02 -0.49898349307E+01  0.25146138441E+02  0.00000000000E+00 0. -1.
         21    1    1    2  502  501  0.12556890771E+02  0.44204862484E+02 -0.17567680426E+01  0.45987298323E+02  0.00000000000E+00 0. -1.
<mgrwt>
<rscale>  1 0.92247703E+02</rscale>
<asrwt>0</asrwt>
<pdfrwt beam="1">  1        2 0.88347706E-02 0.92247703E+02</pdfrwt>
<pdfrwt beam="2">  1       -1 0.12941578E-01 0.92247703E+02</pdfrwt>
<totfact> 0.30432899E+04</totfact>
</mgrwt>
</event>
<event>
 6    2  0.1063641E+001  0.8421887E+02  0.7546771E-02  0.1317488E+00
         -1   -1    0    0    0  501 -0.00000000000E+00  0.00000000000E+00  0.20118532608E+01  0.20118532608E+01  0.00000000000E+00 0.  1.
          2   -1    0    0  502    0  0.00000000000E+00 -0.00000000000E+00 -0.14152381618E+04  0.14152381618E+04  0.00000000000E+00 0. -1.
         24    2    1    2    0    0  0.17736295878E+02  0.12845609313E+02 -0.10559581858E+04  0.10593113368E+04  0.81321782093E+02 0.  0.
        -11    1    3    3    0    0 -0.13242658453E+02  0.40422671659E+02 -0.49749633852E+03  0.49931149318E+03  0.00000000000E+00 0.  1.
         12    1    3    3    0    0  0.30978954331E+02 -0.27577062346E+02 -0.55846184724E+03  0.55999984357E+03  0.00000000000E+00 0. -1.
         21    1    1    2  502  501 -0.17736295878E+02 -0.12845609313E+02 -0.35726812280E+03  0.35793867833E+03  0.00000000000E+00 0.  1.
<mgrwt>
<rscale>  1 0.84218870E+02</rscale>
<asrwt>0</asrwt>
<pdfrwt beam="1">  1        2 0.21773046E+00 0.84218870E+02</pdfrwt>
<pdfrwt beam="2">  1       -1 0.30951373E-03 0.84218870E+02</pdfrwt>
<totfact> 0.15390925E+05</totfact>
</mgrwt>
</event>
<event>
 6    2  0.1063641E+001  0.8355368E+02  0.7546771E-02  0.1319259E+00
          2   -1    0    0  502    0  0.00000000000E+00  0.00000000000E+00  0.36083200247E+02  0.36083200247E+02  0.00000000000E+00 0. -1.
         -1   -1    0    0    0  501 -0.00000000000E+00 -0.00000000000E+00 -0.80816029204E+02  0.80816029204E+02  0.00000000000E+00 0.  1.
         24    2    1    2    0    0 -0.22732301088E+02  0.88441718831E+01 -0.36187073880E+02  0.91053401569E+02  0.79913958307E+02 0.  0.
        -11    1    3    3    0    0 -0.43120249078E+02  0.27408376615E+02 -0.37609430466E+02  0.63443236433E+02  0.00000000000E+00 0.  1.
         12    1    3    3    0    0  0.20387947990E+02 -0.18564204732E+02  0.14223565860E+01  0.27610165136E+02  0.00000000000E+00 0. -1.
         21    1    1    2  502  501  0.22732301088E+02 -0.88441718831E+01 -0.85457550770E+01  0.25845827881E+02  0.00000000000E+00 0. -1.
<mgrwt>
<rscale>  1 0.83553681E+02</rscale>
<asrwt>0</asrwt>
<pdfrwt beam="1">  1        2 0.55512617E-02 0.83553681E+02</pdfrwt>
<pdfrwt beam="2">  1       -1 0.12433235E-01 0.83553681E+02</pdfrwt>
<totfact> 0.57154825E+04</totfact>
</mgrwt>
</event>
<event>
 6    2  0.1063641E+001  0.8223217E+02  0.7546771E-02  0.1322834E+00
         -3   -1    0    0    0  501 -0.00000000000E+00  0.00000000000E+00  0.21746304060E+01  0.21746304060E+01  0.00000000000E+00 0.  1.
          4   -1    0    0  502    0  0.00000000000E+00 -0.00000000000E+00 -0.13906891688E+04  0.13906891688E+04  0.00000000000E+00 0. -1.
         24    2    1    2    0    0 -0.52602903278E+01 -0.20240377599E+02 -0.85652293988E+03  0.86046131572E+03  0.79528521668E+02 0.  0.
        -13    1    3    3    0    0 -0.30610825574E+02 -0.14437037765E+02 -0.16428026700E+03  0.16773030981E+03  0.00000000000E+00 0.  1.
         14    1    3    3    0    0  0.25350535246E+02 -0.58033398342E+01 -0.69224267288E+03  0.69273100591E+03  0.00000000000E+00 0. -1.
         21    1    1    2  502  501  0.52602903278E+01  0.20240377599E+02 -0.53199159855E+03  0.53240248353E+03  0.00000000000E+00 0.  1.
<mgrwt>
<rscale>  1 0.82232167E+02</rscale>
<asrwt>0</asrwt>
<pdfrwt beam="1">  1        4 0.21395282E+00 0.82232167E+02</pdfrwt>
<pdfrwt beam="2">  1       -3 0.33455752E-03 0.82232167E+02</pdfrwt>
<totfact> 0.28973258E+03</totfact>
</mgrwt>
</event>
<event>
 6    2  0.1063641E+001  0.8802854E+02  0.7546771E-02  0.1307697E+00
         -1   -1    0    0    0  501 -0.00000000000E+00  0.00000000000E+00  0.45274789990E+02  0.45274789990E+02  0.00000000000E+00 0.  1.
          2   -1    0    0  502    0  0.00000000000E+00 -0.00000000000E+00 -0.10750039103E+04  0.10750039103E+04  0.00000000000E+00 0. -1.
         24    2    1    2    0    0  0.98733069484E+01 -0.34380760587E+02  0.18809716030E+01  0.88048638422E+02  0.80433238061E+02 0.  0.
        -13    1    3    3    0    0  0.67143102360E+01  0.16299195536E+02  0.26333741209E+02  0.31689298874E+02  0.00000000000E+00 0.  1.
         14    1    3    3    0    0  0.31589967124E+01 -0.50679956123E+02 -0.24452769606E+02  0.56359339548E+02  0.00000000000E+00 0. -1.
         21    1    1    2  502  501 -0.98733069484E+01  0.34380760587E+02 -0.10316100919E+04  0.10322300619E+04  0.00000000000E+00 0. -1.
<mgrwt>
<rscale>  1 0.88028545E+02</rscale>
<asrwt>0</asrwt>
<pdfrwt beam="1">  1        2 0.16538523E+00 0.88028545E+02</pdfrwt>
<pdfrwt beam="2">  1       -1 0.69653518E-02 0.88028545E+02</pdfrwt>
<totfact> 0.28034246E+03</totfact>
</mgrwt>
</event>
<event>
 6    2  0.1063641E+001  0.9632473E+02  0.7546771E-02  0.1288220E+00
         -1   -1    0    0    0  501 -0.00000000000E+00  0.00000000000E+00  0.72103457247E+02  0.72103457247E+02  0.00000000000E+00 0.  1.
          2   -1    0    0  502    0  0.00000000000E+00 -0.00000000000E+00 -0.10457364770E+03  0.10457364770E+03  0.00000000000E+00 0. -1.
         24    2    1    2    0    0 -0.42223164484E+01  0.51336352797E+02  0.24985354262E+02  0.99512419415E+02  0.81395359915E+02 0.  0.
        -11    1    3    3    0    0  0.11843135470E+02 -0.37200063475E+01  0.38616214897E+02  0.40562425444E+02  0.00000000000E+00 0.  1.
         12    1    3    3    0    0 -0.16065451918E+02  0.55056359144E+02 -0.13630860635E+02  0.58949993971E+02  0.00000000000E+00 0. -1.
         21    1    1    2  502  501  0.42223164484E+01 -0.51336352797E+02 -0.57455544712E+02  0.77164685529E+02  0.00000000000E+00 0. -1.
<mgrwt>
<rscale>  1 0.96324730E+02</rscale>
<asrwt>0</asrwt>
<pdfrwt beam="1">  1        2 0.16088254E-01 0.96324730E+02</pdfrwt>
<pdfrwt beam="2">  1       -1 0.11092840E-01 0.96324730E+02</pdfrwt>
<totfact> 0.18973841E+04</totfact>
</mgrwt>
</event>
<event>
 6    2  0.1063641E+001  0.9191943E+02  0.7546771E-02  0.1298269E+00
         -3   -1    0    0    0  501 -0.00000000000E+00  0.00000000000E+00  0.86954447723E+02  0.86954447723E+02  0.00000000000E+00 0.  1.
          4   -1    0    0  502    0  0.00000000000E+00 -0.00000000000E+00 -0.54009200591E+02  0.54009200591E+02  0.00000000000E+00 0. -1.
         24    2    1    2    0    0 -0.33402104414E+02  0.17409277302E+02  0.15564057634E+01  0.91932608370E+02  0.83847472039E+02 0.  0.
        -11    1    3    3    0    0  0.10872767204E+02 -0.24433624543E+02  0.13337876443E+02  0.29885080273E+02  0.00000000000E+00 0.  1.
         12    1    3    3    0    0 -0.44274871617E+02  0.41842901845E+02 -0.11781470679E+02  0.62047528097E+02  0.00000000000E+00 0. -1.
         21    1    1    2  502  501  0.33402104414E+02 -0.17409277302E+02  0.31388841369E+02  0.49031039944E+02  0.00000000000E+00 0.  1.
<mgrwt>
<rscale>  1 0.91919433E+02</rscale>
<asrwt>0</asrwt>
<pdfrwt beam="1">  1        4 0.83091078E-02 0.91919433E+02</pdfrwt>
<pdfrwt beam="2">  1       -3 0.13377607E-01 0.91919433E+02</pdfrwt>
<totfact> 0.81658055E+03</totfact>
</mgrwt>
</event>
<event>
 6    2  0.1063641E+001  0.8769413E+02  0.7546771E-02  0.1308534E+00
         -1   -1    0    0    0  501 -0.00000000000E+00  0.00000000000E+00  0.55314692219E+01  0.55314692219E+01  0.00000000000E+00 0.  1.
          2   -1    0    0  502    0  0.00000000000E+00 -0.00000000000E+00 -0.10548276419E+04  0.10548276419E+04  0.00000000000E+00 0. -1.
         24    2    1    2    0    0  0.21556339569E+02 -0.23410168669E+02 -0.36740193706E+03  0.37772270692E+03  0.81716266402E+02 0.  0.
        -11    1    3    3    0    0 -0.82120780381E+01 -0.44548925039E+02 -0.13320381115E+03  0.14069577198E+03  0.00000000000E+00 0.  1.
         12    1    3    3    0    0  0.29768417607E+02  0.21138756370E+02 -0.23419812591E+03  0.23702693494E+03  0.00000000000E+00 0. -1.
         21    1    1    2  502  501 -0.21556339569E+02  0.23410168669E+02 -0.68189423563E+03  0.68263640421E+03  0.00000000000E+00 0. -1.
<mgrwt>
<rscale>  1 0.87694127E+02</rscale>
<asrwt>0</asrwt>
<pdfrwt beam="1">  1        2 0.16228113E+00 0.87694127E+02</pdfrwt>
<pdfrwt beam="2">  1       -1 0.85099550E-03 0.87694127E+02</pdfrwt>
<totfact> 0.58852965E+04</totfact>
</mgrwt>
</event>
<event>
 6    2  0.1063641E+001  0.8275384E+02  0.7546771E-02  0.1321413E+00
          2   -1    0    0  502    0  0.00000000000E+00  0.00000000000E+00  0.49641662452E+02  0.49641662452E+02  0.00000000000E+00 0. -1.
         -1   -1    0    0    0  501 -0.00000000000E+00 -0.00000000000E+00 -0.77180617774E+02  0.77180617774E+02  0.00000000000E+00 0.  1.
         24    2    1    2    0    0 -0.23572418608E+02  0.13397310370E+02 -0.45366039127E+02  0.94373062036E+02  0.78185999307E+02 0.  0.
        -11    1    3    3    0    0  0.22334714277E+02  0.80468558988E+01 -0.41732689452E+02  0.48012589189E+02  0.00000000000E+00 0.  1.
         12    1    3    3    0    0 -0.45907132885E+02  0.53504544715E+01 -0.36333496752E+01  0.46360472847E+02  0.00000000000E+00 0. -1.
         21    1    1    2  502  501  0.23572418608E+02 -0.13397310370E+02  0.17827083806E+02  0.32449218191E+02  0.00000000000E+00 0. -1.
<mgrwt>
<rscale>  1 0.82753836E+02</rscale>
<asrwt>0</asrwt>
<pdfrwt beam="1">  1        2 0.76371788E-02 0.82753836E+02</pdfrwt>
<pdfrwt beam="2">  1       -1 0.11873941E-01 0.82753836E+02</pdfrwt>
<totfact> 0.40966089E+04</totfact>
</mgrwt>
</event>
<event>
 6    2  0.1063641E+001  0.8755972E+02  0.7546771E-02  0.1308871E+00
         -1   -1    0    0    0  501 -0.00000000000E+00  0.00000000000E+00  0.33447693417E+02  0.33447693417E+02  0.00000000000E+00 0.  1.
          2   -1    0    0  502    0  0.00000000000E+00 -0.00000000000E+00 -0.19270001393E+04  0.19270001393E+04  0.00000000000E+00 0. -1.
         24    2    1    2    0    0 -0.30908559843E+02 -0.24202243368E+02 -0.24417381961E+02  0.90900568047E+02  0.78266321453E+02 0.  0.
        -13    1    3    3    0    0 -0.29841615925E+02 -0.23409810262E+02  0.22410260604E+02  0.44054069482E+02  0.00000000000E+00 0.  1.
         14    1    3    3    0    0 -0.10669439177E+01 -0.79243310525E+00 -0.46827642566E+02  0.46846498565E+02  0.00000000000E+00 0. -1.
         21    1    1    2  502  501  0.30908559843E+02  0.24202243368E+02 -0.18691350639E+04  0.18695472646E+04  0.00000000000E+00 0. -1.
<mgrwt>
<rscale>  1 0.87559721E+02</rscale>
<asrwt>0</asrwt>
<pdfrwt beam="1">  1        2 0.29646157E+00 0.87559721E+02</pdfrwt>
<pdfrwt beam="2">  1       -1 0.51457989E-02 0.87559721E+02</pdfrwt>
<totfact> 0.15857300E+03</totfact>
</mgrwt>
</event>
<event>
 6    2  0.1063641E+001  0.8473432E+02  0.7546771E-02  0.1316129E+00
         -1   -1    0    0    0  501 -0.00000000000E+00  0.00000000000E+00  0.13815339601E+03  0.13815339601E+03  0.00000000000E+00 0.  1.
          2   -1    0    0  502    0  0.00000000000E+00 -0.00000000000E+00 -0.48125856305E+02  0.48125856305E+02  0.00000000000E+00 0. -1.
         24    2    1    2    0    0 -0.27419706943E+02 -0.17946468446E+01  0.11917078291E+03  0.14622441852E+03  0.80155124504E+02 0.  0.
        -13    1    3    3    0    0  0.66350559193E+00 -0.71840367709E+01  0.11734922248E+03  0.11757078991E+03  0.00000000000E+00 0.  1.
         14    1    3    3    0    0 -0.28083212535E+02  0.53893899262E+01  0.18215604391E+01  0.28653628610E+02  0.00000000000E+00 0. -1.
         21    1    1    2  502  501  0.27419706943E+02  0.17946468446E+01 -0.29143243207E+02  0.40054833800E+02  0.00000000000E+00 0. -1.
<mgrwt>
<rscale>  1 0.84734320E+02</rscale>
<asrwt>0</asrwt>
<pdfrwt beam="1">  1        2 0.74039780E-02 0.84734320E+02</pdfrwt>
<pdfrwt beam="2">  1       -1 0.21254368E-01 0.84734320E+02</pdfrwt>
<totfact> 0.17269079E+04</totfact>
</mgrwt>
</event>
<event>
 6    2  0.1063641E+001  0.7273177E+02  0.7546771E-02  0.1351042E+00
         -3   -1    0    0    0  501 -0.00000000000E+00  0.00000000000E+00  0.32512708007E+02  0.32512708007E+02  0.00000000000E+00 0.  1.
          4   -1    0    0  502    0  0.00000000000E+00 -0.00000000000E+00 -0.74354751312E+02  0.74354751312E+02  0.00000000000E+00 0. -1.
         24    2    1    2    0    0 -0.10225891074E+02  0.23048563803E+02 -0.35145582104E+02  0.80778232917E+02  0.68221007250E+02 0.  0.
        -13    1    3    3    0    0  0.16343720217E+02  0.36909539994E+02 -0.30181761869E+02  0.50402084109E+02  0.00000000000E+00 0.  1.
         14    1    3    3    0    0 -0.26569611290E+02 -0.13860976191E+02 -0.49638202349E+01  0.30376148808E+02  0.00000000000E+00 0. -1.
         21    1    1    2  502  501  0.10225891074E+02 -0.23048563803E+02 -0.66964612008E+01  0.26089226402E+02  0.00000000000E+00 0.  1.
<mgrwt>
<rscale>  1 0.72731774E+02</rscale>
<asrwt>0</asrwt>
<pdfrwt beam="1">  1        4 0.11439192E-01 0.72731774E+02</pdfrwt>
<pdfrwt beam="2">  1       -3 0.50019552E-02 0.72731774E+02</pdfrwt>
<totfact> 0.21898145E+04</totfact>
</mgrwt>
</event>
<event>
 6    2  0.1063641E+001  0.8627492E+02  0.7546771E-02  0.1312132E+00
          2   -1    0    0  502    0  0.00000000000E+00  0.00000000000E+00  0.15746067578E+04  0.15746067578E+04  0.00000000000E+00 0. -1.
         -1   -1    0    0    0  501 -0.00000000000E+00 -0.00000000000E+00 -0.26140961317E+01  0.26140961317E+01  0.00000000000E+00 0.  1.
         24    2    1    2    0    0 -0.30960543963E+02 -0.69651657411E+01  0.81296606626E+03  0.81753115323E+03  0.80226509296E+02 0.  0.
        -13    1    3    3    0    0 -0.34295907057E+02 -0.16571469589E+02  0.15946352826E+03  0.16394950347E+03  0.00000000000E+00 0.  1.
         14    1    3    3    0    0  0.33353630937E+01  0.96063038478E+01  0.65350253800E+03  0.65358164976E+03  0.00000000000E+00 0. -1.
         21    1    1    2  502  501  0.30960543963E+02  0.69651657411E+01  0.75902659546E+03  0.75968970075E+03  0.00000000000E+00 0. -1.
<mgrwt>
<rscale>  1 0.86274919E+02</rscale>
<asrwt>0</asrwt>
<pdfrwt beam="1">  1        2 0.24224643E+00 0.86274919E+02</pdfrwt>
<pdfrwt beam="2">  1       -1 0.40216990E-03 0.86274919E+02</pdfrwt>
<totfact> 0.88935127E+04</totfact>
</mgrwt>
</event>
<event>
 6    2  0.1063641E+001  0.9893051E+02  0.7546771E-02  0.1282561E+00
          2   -1    0    0  502    0  0.00000000000E+00  0.00000000000E+00  0.74044569883E+02  0.74044569883E+02  0.00000000000E+00 0. -1.
         -1   -1    0    0    0  501 -0.00000000000E+00 -0.00000000000E+00 -0.12998432998E+03  0.12998432998E+03  0.00000000000E+00 0.  1.
         24    2    1    2    0    0  0.43744837645E+02  0.36409410888E+02 -0.93269183764E+02  0.13596465159E+03  0.80919650399E+02 0.  0.
        -11    1    3    3    0    0  0.27695872930E+02  0.24633435873E+02 -0.10602849440E+03  0.11232056430E+03  0.00000000000E+00 0.  1.
         12    1    3    3    0    0  0.16048964714E+02  0.11775975015E+02  0.12759310635E+02  0.23644087291E+02  0.00000000000E+00 0. -1.
         21    1    1    2  502  501 -0.43744837645E+02 -0.36409410888E+02  0.37329423666E+02  0.68064248273E+02  0.00000000000E+00 0. -1.
<mgrwt>
<rscale>  1 0.98930510E+02</rscale>
<asrwt>0</asrwt>
<pdfrwt beam="1">  1        2 0.11391472E-01 0.98930510E+02</pdfrwt>
<pdfrwt beam="2">  1       -1 0.19997589E-01 0.98930510E+02</pdfrwt>
<totfact> 0.11416116E+04</totfact>
</mgrwt>
</event>
<event>
 6    2  0.1063641E+001  0.8295393E+02  0.7546771E-02  0.1320872E+00
         -1   -1    0    0    0  501 -0.00000000000E+00  0.00000000000E+00  0.13316691803E+02  0.13316691803E+02  0.00000000000E+00 0.  1.
          2   -1    0    0  502    0  0.00000000000E+00 -0.00000000000E+00 -0.23000854425E+03  0.23000854425E+03  0.00000000000E+00 0. -1.
         24    2    1    2    0    0 -0.22180777762E+02 -0.22967500126E+01 -0.13330498238E+03  0.15700819219E+03  0.79900513909E+02 0.  0.
        -13    1    3    3    0    0 -0.31943623941E+02  0.22356884535E+00 -0.10261249417E+02  0.33552024278E+02  0.00000000000E+00 0.  1.
         14    1    3    3    0    0  0.97628461792E+01 -0.25203188580E+01 -0.12304373297E+03  0.12345616791E+03  0.00000000000E+00 0. -1.
         21    1    1    2  502  501  0.22180777762E+02  0.22967500126E+01 -0.83386870064E+02  0.86317043866E+02  0.00000000000E+00 0. -1.
<mgrwt>
<rscale>  1 0.82953927E+02</rscale>
<asrwt>0</asrwt>
<pdfrwt beam="1">  1        2 0.35385933E-01 0.82953927E+02</pdfrwt>
<pdfrwt beam="2">  1       -1 0.20487216E-02 0.82953927E+02</pdfrwt>
<totfact> 0.93016988E+04</totfact>
</mgrwt>
</event>
<event>
 6    2  0.1063641E+001  0.8787869E+02  0.7546771E-02  0.1308072E+00
         -1   -1    0    0    0  501 -0.00000000000E+00  0.00000000000E+00  0.25979345185E+01  0.25979345185E+01  0.00000000000E+00 0.  1.
          2   -1    0    0  502    0  0.00000000000E+00 -0.00000000000E+00 -0.20081484624E+04  0.20081484624E+04  0.00000000000E+00 0. -1.
         24    2    1    2    0    0 -0.16907254460E+02  0.19308111710E+02 -0.78126068081E+03  0.78618758328E+03  0.84047642941E+02 0.  0.
        -11    1    3    3    0    0 -0.38496599331E+02  0.40473991441E+02 -0.42678329216E+03  0.43042317620E+03  0.00000000000E+00 0.  1.
         12    1    3    3    0    0  0.21589344872E+02 -0.21165879731E+02 -0.35447738865E+03  0.35576440708E+03  0.00000000000E+00 0. -1.
         21    1    1    2  502  501  0.16907254460E+02 -0.19308111710E+02 -0.12242898471E+04  0.12245588136E+04  0.00000000000E+00 0. -1.
<mgrwt>
<rscale>  1 0.87878693E+02</rscale>
<asrwt>0</asrwt>
<pdfrwt beam="1">  1        2 0.30894620E+00 0.87878693E+02</pdfrwt>
<pdfrwt beam="2">  1       -1 0.39968186E-03 0.87878693E+02</pdfrwt>
<totfact> 0.54474850E+04</totfact>
</mgrwt>
</event>
<event>
 6    2  0.1063641E+001  0.8258072E+02  0.7546771E-02  0.1321883E+00
         -1   -1    0    0    0  501 -0.00000000000E+00  0.00000000000E+00  0.10187361667E+02  0.10187361667E+02  0.00000000000E+00 0.  1.
          2   -1    0    0  502    0  0.00000000000E+00 -0.00000000000E+00 -0.27846479591E+03  0.27846479591E+03  0.00000000000E+00 0. -1.
         24    2    1    2    0    0  0.64263493119E+01  0.22195391328E+02 -0.19347166807E+03  0.21035888830E+03  0.79282041967E+02 0.  0.
        -11    1    3    3    0    0  0.25503571849E+02  0.34160446033E+02 -0.52635598311E+02  0.67733850177E+02  0.00000000000E+00 0.  1.
         12    1    3    3    0    0 -0.19077222537E+02 -0.11965054705E+02 -0.14083606976E+03  0.14262503812E+03  0.00000000000E+00 0. -1.
         21    1    1    2  502  501 -0.64263493119E+01 -0.22195391328E+02 -0.74805766173E+02  0.78293269279E+02  0.00000000000E+00 0.  1.
<mgrwt>
<rscale>  1 0.82580721E+02</rscale>
<asrwt>0</asrwt>
<pdfrwt beam="1">  1        2 0.42840742E-01 0.82580721E+02</pdfrwt>
<pdfrwt beam="2">  1       -1 0.15672863E-02 0.82580721E+02</pdfrwt>
<totfact> 0.11130532E+05</totfact>
</mgrwt>
</event>
<event>
 6    2  0.1063641E+001  0.7777612E+02  0.7546771E-02  0.1335484E+00
         -1   -1    0    0    0  501 -0.00000000000E+00  0.00000000000E+00  0.28070639864E+01  0.28070639864E+01  0.00000000000E+00 0.  1.
          2   -1    0    0  502    0  0.00000000000E+00 -0.00000000000E+00 -0.86669820256E+03  0.86669820256E+03  0.00000000000E+00 0. -1.
         24    2    1    2    0    0 -0.12216399122E+02 -0.16889928847E+02 -0.68952297445E+03  0.69389556646E+03  0.74930733061E+02 0.  0.
        -11    1    3    3    0    0 -0.35750309693E+01 -0.24771350617E+02 -0.71356409880E+02  0.75618370049E+02  0.00000000000E+00 0.  1.
         12    1    3    3    0    0 -0.86413681526E+01  0.78814217698E+01 -0.61816656457E+03  0.61827719641E+03  0.00000000000E+00 0. -1.
         21    1    1    2  502  501  0.12216399122E+02  0.16889928847E+02 -0.17436816413E+03  0.17560970009E+03  0.00000000000E+00 0.  1.
<mgrwt>
<rscale>  1 0.77776120E+02</rscale>
<asrwt>0</asrwt>
<pdfrwt beam="1">  1        2 0.13333811E+00 0.77776120E+02</pdfrwt>
<pdfrwt beam="2">  1       -1 0.43185624E-03 0.77776120E+02</pdfrwt>
<totfact> 0.19353780E+05</totfact>
</mgrwt>
</event>
<event>
 6    2  0.1063641E+001  0.9463694E+02  0.7546771E-02  0.1291996E+00
          2   -1    0    0  502    0  0.00000000000E+00  0.00000000000E+00  0.15364620256E+03  0.15364620256E+03  0.00000000000E+00 0. -1.
         -1   -1    0    0    0  501 -0.00000000000E+00 -0.00000000000E+00 -0.35530586814E+02  0.35530586814E+02  0.00000000000E+00 0.  1.
         24    2    1    2    0    0  0.27658791913E+02  0.37665657655E+02  0.51316147545E+02  0.10765452561E+03  0.82294831853E+02 0.  0.
        -11    1    3    3    0    0  0.35972627281E+02 -0.14183211297E+01 -0.72814095187E+01  0.36729558572E+02  0.00000000000E+00 0.  1.
         12    1    3    3    0    0 -0.83138353678E+01  0.39083978785E+02  0.58597557063E+02  0.70924967042E+02  0.00000000000E+00 0. -1.
         21    1    1    2  502  501 -0.27658791913E+02 -0.37665657655E+02  0.66799468205E+02  0.81522263763E+02  0.00000000000E+00 0. -1.
<mgrwt>
<rscale>  1 0.94636937E+02</rscale>
<asrwt>0</asrwt>
<pdfrwt beam="1">  1        2 0.23637877E-01 0.94636937E+02</pdfrwt>
<pdfrwt beam="2">  1       -1 0.54662442E-02 0.94636937E+02</pdfrwt>
<totfact> 0.35381722E+04</totfact>
</mgrwt>
</event>
<event>
 6    2  0.1063641E+001  0.8183507E+02  0.7546771E-02  0.1323923E+00
         -3   -1    0    0    0  501 -0.00000000000E+00  0.00000000000E+00  0.28016528032E+01  0.28016528032E+01  0.00000000000E+00 0.  1.
          4   -1    0    0  502    0  0.00000000000E+00 -0.00000000000E+00 -0.12658446954E+04  0.12658446954E+04  0.00000000000E+00 0. -1.
         24    2    1    2    0    0 -0.20056065767E+02 -0.26962321905E+00 -0.63092232304E+03  0.63620747956E+03  0.79338898871E+02 0.  0.
        -11    1    3    3    0    0  0.35712301103E+01 -0.29875363841E+02 -0.11414812162E+03  0.11804695981E+03  0.00000000000E+00 0.  1.
         12    1    3    3    0    0 -0.23627295877E+02  0.29605740622E+02 -0.51677420141E+03  0.51816051976E+03  0.00000000000E+00 0. -1.
         21    1    1    2  502  501  0.20056065767E+02  0.26962321905E+00 -0.63212071952E+03  0.63243886860E+03  0.00000000000E+00 0. -1.
<mgrwt>
<rscale>  1 0.81835074E+02</rscale>
<asrwt>0</asrwt>
<pdfrwt beam="1">  1        4 0.19474521E+00 0.81835074E+02</pdfrwt>
<pdfrwt beam="2">  1       -3 0.43102379E-03 0.81835074E+02</pdfrwt>
<totfact> 0.26178692E+03</totfact>
</mgrwt>
</event>
<event>
 6    2  0.1063641E+001  0.8082567E+02  0.7546771E-02  0.1326724E+00
         -1   -1    0    0    0  501 -0.00000000000E+00  0.00000000000E+00  0.60153581502E+01  0.60153581502E+01  0.00000000000E+00 0.  1.
          2   -1    0    0  502    0  0.00000000000E+00 -0.00000000000E+00 -0.46177718212E+03  0.46177718212E+03  0.00000000000E+00 0. -1.
         24    2    1    2    0    0  0.81301365167E+01 -0.20950860864E+02 -0.31272701178E+03  0.32300305450E+03  0.77638596267E+02 0.  0.
        -13    1    3    3    0    0  0.26984451600E+02 -0.19790267820E+02 -0.53599891699E+02  0.63188319480E+02  0.00000000000E+00 0.  1.
         14    1    3    3    0    0 -0.18854315084E+02 -0.11605930441E+01 -0.25912712008E+03  0.25981473502E+03  0.00000000000E+00 0. -1.
         21    1    1    2  502  501 -0.81301365167E+01  0.20950860864E+02 -0.14303481219E+03  0.14478948577E+03  0.00000000000E+00 0. -1.
<mgrwt>
<rscale>  1 0.80825672E+02</rscale>
<asrwt>0</asrwt>
<pdfrwt beam="1">  1        2 0.71042647E-01 0.80825672E+02</pdfrwt>
<pdfrwt beam="2">  1       -1 0.92543967E-03 0.80825672E+02</pdfrwt>
<totfact> 0.13735612E+05</totfact>
</mgrwt>
</event>
<event>
 6    2  0.1063641E+001  0.8397889E+02  0.7546771E-02  0.1318125E+00
         -1   -1    0    0    0  501 -0.00000000000E+00  0.00000000000E+00  0.30788063699E+01  0.30788063699E+01  0.00000000000E+00 0.  1.
          2   -1    0    0  502    0  0.00000000000E+00 -0.00000000000E+00 -0.10828261363E+04  0.10828261363E+04  0.00000000000E+00 0. -1.
         24    2    1    2    0    0 -0.21298692221E+02  0.13180063500E+02 -0.64609655502E+03  0.65153143640E+03  0.80156757993E+02 0.  0.
        -11    1    3    3    0    0 -0.34795813839E+02  0.20657034080E+02 -0.15507914731E+03  0.16027165579E+03  0.00000000000E+00 0.  1.
         12    1    3    3    0    0  0.13497121618E+02 -0.74769705801E+01 -0.49101740770E+03  0.49125978062E+03  0.00000000000E+00 0. -1.
         21    1    1    2  502  501  0.21298692221E+02 -0.13180063500E+02 -0.43365077494E+03  0.43437350629E+03  0.00000000000E+00 0.  1.
<mgrwt>
<rscale>  1 0.83978891E+02</rscale>
<asrwt>0</asrwt>
<pdfrwt beam="1">  1        2 0.16658873E+00 0.83978891E+02</pdfrwt>
<pdfrwt beam="2">  1       -1 0.47366226E-03 0.83978891E+02</pdfrwt>
<totfact> 0.12819481E+05</totfact>
</mgrwt>
</event>
<event>
 6    2  0.1063641E+001  0.7265923E+02  0.7546771E-02  0.1351277E+00
          2   -1    0    0  502    0  0.00000000000E+00  0.00000000000E+00  0.87445500448E+03  0.87445500448E+03  0.00000000000E+00 0. -1.
         -1   -1    0    0    0  501 -0.00000000000E+00 -0.00000000000E+00 -0.30276148943E+01  0.30276148943E+01  0.00000000000E+00 0.  1.
         24    2    1    2    0    0 -0.28158968496E+01 -0.20041414327E+02  0.47364416795E+03  0.47918489282E+03  0.69783781145E+02 0.  0.
        -13    1    3    3    0    0 -0.88717571234E+01 -0.43328979547E+02  0.21998139008E+03  0.22438342302E+03  0.00000000000E+00 0.  1.
         14    1    3    3    0    0  0.60558602738E+01  0.23287565220E+02  0.25366277787E+03  0.25480146980E+03  0.00000000000E+00 0. -1.
         21    1    1    2  502  501  0.28158968496E+01  0.20041414327E+02  0.39778322163E+03  0.39829772655E+03  0.00000000000E+00 0. -1.
<mgrwt>
<rscale>  1 0.72659230E+02</rscale>
<asrwt>0</asrwt>
<pdfrwt beam="1">  1        2 0.13453134E+00 0.72659230E+02</pdfrwt>
<pdfrwt beam="2">  1       -1 0.46578760E-03 0.72659230E+02</pdfrwt>
<totfact> 0.17043977E+05</totfact>
</mgrwt>
</event>
<event>
 6    2  0.1063641E+001  0.8287361E+02  0.7546771E-02  0.1321089E+00
         -1   -1    0    0    0  501 -0.00000000000E+00  0.00000000000E+00  0.28150166434E+01  0.28150166434E+01  0.00000000000E+00 0.  1.
          2   -1    0    0  502    0  0.00000000000E+00 -0.00000000000E+00 -0.23598543790E+04  0.23598543790E+04  0.00000000000E+00 0. -1.
         24    2    1    2    0    0 -0.10090926442E+02 -0.24842884288E+02 -0.63066035728E+03  0.63608216504E+03  0.78415806746E+02 0.  0.
        -11    1    3    3    0    0 -0.18665693936E+02 -0.27589155076E+02 -0.10111727173E+03  0.10646253919E+03  0.00000000000E+00 0.  1.
         12    1    3    3    0    0  0.85747674945E+01  0.27462707887E+01 -0.52954308554E+03  0.52961962585E+03  0.00000000000E+00 0. -1.
         21    1    1    2  502  501  0.10090926442E+02  0.24842884288E+02 -0.17263790050E+04  0.17265872306E+04  0.00000000000E+00 0. -1.
<mgrwt>
<rscale>  1 0.82873605E+02</rscale>
<asrwt>0</asrwt>
<pdfrwt beam="1">  1        2 0.36305471E+00 0.82873605E+02</pdfrwt>
<pdfrwt beam="2">  1       -1 0.43307926E-03 0.82873605E+02</pdfrwt>
<totfact> 0.32159825E+04</totfact>
</mgrwt>
</event>
<event>
 6    2  0.1063641E+001  0.1102164E+03  0.7546771E-02  0.1260170E+00
         -1   -1    0    0    0  501 -0.00000000000E+00  0.00000000000E+00  0.22312648456E+02  0.22312648456E+02  0.00000000000E+00 0.  1.
          2   -1    0    0  502    0  0.00000000000E+00 -0.00000000000E+00 -0.75096913717E+03  0.75096913717E+03  0.00000000000E+00 0. -1.
         24    2    1    2    0    0 -0.19852653666E+02 -0.48851836109E+01 -0.11501134912E+03  0.15929615858E+03  0.10830356797E+03 0.  0.
        -13    1    3    3    0    0  0.20160096691E+01 -0.26365544596E+02  0.11710447426E+02  0.28919557669E+02  0.00000000000E+00 0.  1.
         14    1    3    3    0    0 -0.21868663335E+02  0.21480360985E+02 -0.12672179655E+03  0.13037660091E+03  0.00000000000E+00 0. -1.
         21    1    1    2  502  501  0.19852653666E+02  0.48851836109E+01 -0.61364513959E+03  0.61398562705E+03  0.00000000000E+00 0. -1.
<mgrwt>
<rscale>  1 0.11021640E+03</rscale>
<asrwt>0</asrwt>
<pdfrwt beam="1">  1        2 0.11553371E+00 0.11021640E+03</pdfrwt>
<pdfrwt beam="2">  1       -1 0.34327153E-02 0.11021640E+03</pdfrwt>
<totfact> 0.12719378E+04</totfact>
</mgrwt>
</event>
<event>
 6    2  0.1063641E+001  0.1121140E+03  0.7546771E-02  0.1256704E+00
         -1   -1    0    0    0  501 -0.00000000000E+00  0.00000000000E+00  0.72743038624E+01  0.72743038624E+01  0.00000000000E+00 0.  1.
          2   -1    0    0  502    0  0.00000000000E+00 -0.00000000000E+00 -0.85174618850E+03  0.85174618850E+03  0.00000000000E+00 0. -1.
         24    2    1    2    0    0 -0.27977469170E+02 -0.30762690248E+02 -0.52381777999E+03  0.53568144938E+03  0.10411756182E+03 0.  0.
        -13    1    3    3    0    0 -0.12704883791E+02 -0.47803675242E+02 -0.10319787346E+03  0.11443953218E+03  0.00000000000E+00 0.  1.
         14    1    3    3    0    0 -0.15272585380E+02  0.17040984994E+02 -0.42061990653E+03  0.42124191720E+03  0.00000000000E+00 0. -1.
         21    1    1    2  502  501  0.27977469170E+02  0.30762690248E+02 -0.32065410465E+03  0.32333904299E+03  0.00000000000E+00 0. -1.
<mgrwt>
<rscale>  1 0.11211400E+03</rscale>
<asrwt>0</asrwt>
<pdfrwt beam="1">  1        2 0.13103780E+00 0.11211400E+03</pdfrwt>
<pdfrwt beam="2">  1       -1 0.11191243E-02 0.11211400E+03</pdfrwt>
<totfact> 0.54487569E+04</totfact>
</mgrwt>
</event>
<event>
 6    2  0.1063641E+001  0.1153077E+03  0.7546771E-02  0.1251045E+00
          2   -1    0    0  502    0  0.00000000000E+00  0.00000000000E+00  0.12076788336E+04  0.12076788336E+04  0.00000000000E+00 0. -1.
         -1   -1    0    0    0  501 -0.00000000000E+00 -0.00000000000E+00 -0.78397985069E+02  0.78397985069E+02  0.00000000000E+00 0.  1.
         24    2    1    2    0    0 -0.78145819008E+02 -0.25878506970E+02 -0.33742847183E+02  0.12014346597E+03  0.80742841956E+02 0.  0.
        -13    1    3    3    0    0 -0.14460450329E+02 -0.79104811946E+01 -0.49457251781E+02  0.52131565200E+02  0.00000000000E+00 0.  1.
         14    1    3    3    0    0 -0.63685368679E+02 -0.17968025775E+02  0.15714404598E+02  0.68011900767E+02  0.00000000000E+00 0. -1.
         21    1    1    2  502  501  0.78145819008E+02  0.25878506970E+02  0.11630236957E+04  0.11659333527E+04  0.00000000000E+00 0. -1.
<mgrwt>
<rscale>  1 0.11530773E+03</rscale>
<asrwt>0</asrwt>
<pdfrwt beam="1">  1        2 0.18579673E+00 0.11530773E+03</pdfrwt>
<pdfrwt beam="2">  1       -1 0.12061229E-01 0.11530773E+03</pdfrwt>
<totfact> 0.10361746E+03</totfact>
</mgrwt>
</event>
<event>
 6    2  0.1063641E+001  0.8775075E+02  0.7546771E-02  0.1308392E+00
          2   -1    0    0  502    0  0.00000000000E+00  0.00000000000E+00  0.41356482372E+02  0.41356482372E+02  0.00000000000E+00 0. -1.
         -1   -1    0    0    0  501 -0.00000000000E+00 -0.00000000000E+00 -0.87937832103E+02  0.87937832103E+02  0.00000000000E+00 0.  1.
         24    2    1    2    0    0  0.17428609802E+02  0.27692559502E+02 -0.31129319993E+02  0.93108688676E+02  0.81422104200E+02 0.  0.
        -11    1    3    3    0    0 -0.10715342666E+02 -0.12399052551E+02 -0.40091707845E+02  0.43311662524E+02  0.00000000000E+00 0.  1.
         12    1    3    3    0    0  0.28143952468E+02  0.40091612054E+02  0.89623878523E+01  0.49797026152E+02  0.00000000000E+00 0. -1.
         21    1    1    2  502  501 -0.17428609802E+02 -0.27692559502E+02 -0.15452029738E+02  0.36185625799E+02  0.00000000000E+00 0.  1.
<mgrwt>
<rscale>  1 0.87750746E+02</rscale>
<asrwt>0</asrwt>
<pdfrwt beam="1">  1        2 0.63625357E-02 0.87750746E+02</pdfrwt>
<pdfrwt beam="2">  1       -1 0.13528897E-01 0.87750746E+02</pdfrwt>
<totfact> 0.42527002E+04</totfact>
</mgrwt>
</event>
<event>
 6    2  0.1063641E+001  0.8872923E+02  0.7546771E-02  0.1305959E+00
         -3   -1    0    0    0  501 -0.00000000000E+00  0.00000000000E+00  0.57904919160E+03  0.57904919160E+03  0.00000000000E+00 0.  1.
          4   -1    0    0  502    0  0.00000000000E+00 -0.00000000000E+00 -0.73799085589E+01  0.73799085589E+01  0.00000000000E+00 0. -1.
         24    2    1    2    0    0 -0.18075037156E+02  0.32972750939E+02  0.46334248099E+03  0.47176173202E+03  0.80367703951E+02 0.  0.
        -13    1    3    3    0    0 -0.40534943802E+02  0.22076866654E+02  0.41298512617E+03  0.41555647528E+03  0.00000000000E+00 0.  1.
         14    1    3    3    0    0  0.22459906646E+02  0.10895884285E+02  0.50357354817E+02  0.56205256738E+02  0.00000000000E+00 0. -1.
         21    1    1    2  502  501  0.18075037156E+02 -0.32972750939E+02  0.10832680205E+03  0.11466736814E+03  0.00000000000E+00 0. -1.
<mgrwt>
<rscale>  1 0.88729235E+02</rscale>
<asrwt>0</asrwt>
<pdfrwt beam="1">  1        4 0.11353710E-02 0.88729235E+02</pdfrwt>
<pdfrwt beam="2">  1       -3 0.89084455E-01 0.88729235E+02</pdfrwt>
<totfact> 0.50100583E+03</totfact>
</mgrwt>
</event>
<event>
 6    2  0.1063641E+001  0.9589798E+02  0.7546771E-02  0.1289166E+00
          2   -1    0    0  502    0  0.00000000000E+00  0.00000000000E+00  0.46992646825E+04  0.46992646825E+04  0.00000000000E+00 0. -1.
         -1   -1    0    0    0  501 -0.00000000000E+00 -0.00000000000E+00 -0.17977028787E+01  0.17977028787E+01  0.00000000000E+00 0.  1.
         24    2    1    2    0    0 -0.27198099007E+02  0.44477105687E+02  0.14455099132E+04  0.14486874513E+04  0.80488962460E+02 0.  0.
        -11    1    3    3    0    0 -0.83077915557E+01  0.42745733110E+02  0.31256475363E+03  0.31558349499E+03  0.00000000000E+00 0.  1.
         12    1    3    3    0    0 -0.18890307451E+02  0.17313725770E+01  0.11329451595E+04  0.11331039564E+04  0.00000000000E+00 0. -1.
         21    1    1    2  502  501  0.27198099007E+02 -0.44477105687E+02  0.32519570664E+04  0.32523749340E+04  0.00000000000E+00 0. -1.
<mgrwt>
<rscale>  1 0.95897980E+02</rscale>
<asrwt>0</asrwt>
<pdfrwt beam="1">  1        2 0.72295396E+00 0.95897980E+02</pdfrwt>
<pdfrwt beam="2">  1       -1 0.27657344E-03 0.95897980E+02</pdfrwt>
<totfact> 0.15772468E+03</totfact>
</mgrwt>
</event>
<event>
 6    2  0.1063641E+001  0.9432556E+02  0.7546771E-02  0.1292702E+00
          2   -1    0    0  502    0  0.00000000000E+00  0.00000000000E+00  0.25259861471E+04  0.25259861471E+04  0.00000000000E+00 0. -1.
         -1   -1    0    0    0  501 -0.00000000000E+00 -0.00000000000E+00 -0.21203405176E+01  0.21203405176E+01  0.00000000000E+00 0.  1.
         24    2    1    2    0    0  0.98522065436E+01  0.46240593424E+02  0.13514301262E+04  0.13547179402E+04  0.81621401524E+02 0.  0.
        -11    1    3    3    0    0  0.25275140836E+02  0.22667711404E+02  0.19422545725E+03  0.19717044943E+03  0.00000000000E+00 0.  1.
         12    1    3    3    0    0 -0.15422934292E+02  0.23572882019E+02  0.11572046689E+04  0.11575474908E+04  0.00000000000E+00 0. -1.
         21    1    1    2  502  501 -0.98522065436E+01 -0.46240593424E+02  0.11724356804E+04  0.11733885474E+04  0.00000000000E+00 0. -1.
<mgrwt>
<rscale>  1 0.94325562E+02</rscale>
<asrwt>0</asrwt>
<pdfrwt beam="1">  1        2 0.38861084E+00 0.94325562E+02</pdfrwt>
<pdfrwt beam="2">  1       -1 0.32620826E-03 0.94325562E+02</pdfrwt>
<totfact> 0.39449347E+04</totfact>
</mgrwt>
</event>
<event>
 6    2  0.1063641E+001  0.8191558E+02  0.7546771E-02  0.1323702E+00
          2   -1    0    0  502    0  0.00000000000E+00  0.00000000000E+00  0.10729054423E+04  0.10729054423E+04  0.00000000000E+00 0. -1.
         -1   -1    0    0    0  501 -0.00000000000E+00 -0.00000000000E+00 -0.27773385954E+01  0.27773385954E+01  0.00000000000E+00 0.  1.
         24    2    1    2    0    0  0.86310019812E+01 -0.19484532562E+02  0.67023864121E+03  0.67522588756E+03  0.79095017908E+02 0.  0.
        -11    1    3    3    0    0  0.77039364267E+01 -0.35489641065E+02  0.13655707547E+03  0.14130357434E+03  0.00000000000E+00 0.  1.
         12    1    3    3    0    0  0.92706555450E+00  0.16005108503E+02  0.53368156573E+03  0.53392231322E+03  0.00000000000E+00 0. -1.
         21    1    1    2  502  501 -0.86310019812E+01  0.19484532562E+02  0.39988946246E+03  0.40045689330E+03  0.00000000000E+00 0.  1.
<mgrwt>
<rscale>  1 0.81915585E+02</rscale>
<asrwt>0</asrwt>
<pdfrwt beam="1">  1        2 0.16506204E+00 0.81915585E+02</pdfrwt>
<pdfrwt beam="2">  1       -1 0.42728372E-03 0.81915585E+02</pdfrwt>
<totfact> 0.14939065E+05</totfact>
</mgrwt>
</event>
<event>
 6    2  0.1063641E+001  0.1001248E+03  0.7546771E-02  0.1280034E+00
         -1   -1    0    0    0  501 -0.00000000000E+00  0.00000000000E+00  0.11428379009E+02  0.11428379009E+02  0.00000000000E+00 0.  1.
          2   -1    0    0  502    0  0.00000000000E+00 -0.00000000000E+00 -0.96244945884E+03  0.96244945884E+03  0.00000000000E+00 0. -1.
         24    2    1    2    0    0 -0.48026287469E+02 -0.29517345964E+02 -0.23242219280E+03  0.25307123519E+03  0.82747666864E+02 0.  0.
        -11    1    3    3    0    0 -0.39811140747E+02 -0.20022492138E+02 -0.38930821519E+02  0.59172932859E+02  0.00000000000E+00 0.  1.
         12    1    3    3    0    0 -0.82151467228E+01 -0.94948538257E+01 -0.19349137128E+03  0.19389830233E+03  0.00000000000E+00 0. -1.
         21    1    1    2  502  501  0.48026287469E+02  0.29517345964E+02 -0.71859888702E+03  0.72080660266E+03  0.00000000000E+00 0. -1.
<mgrwt>
<rscale>  1 0.10012479E+03</rscale>
<asrwt>0</asrwt>
<pdfrwt beam="1">  1        2 0.14806914E+00 0.10012479E+03</pdfrwt>
<pdfrwt beam="2">  1       -1 0.17582123E-02 0.10012479E+03</pdfrwt>
<totfact> 0.24173353E+04</totfact>
</mgrwt>
</event>
<event>
 6    2  0.1063641E+001  0.8504241E+02  0.7546771E-02  0.1315322E+00
         -1   -1    0    0    0  501 -0.00000000000E+00  0.00000000000E+00  0.15634925123E+01  0.15634925123E+01  0.00000000000E+00 0.  1.
          2   -1    0    0  502    0  0.00000000000E+00 -0.00000000000E+00 -0.21091382035E+04  0.21091382035E+04  0.00000000000E+00 0. -1.
         24    2    1    2    0    0  0.24538929835E+02  0.38590953283E+01 -0.13208256455E+04  0.13235605754E+04  0.81333629452E+02 0.  0.
        -11    1    3    3    0    0  0.11071172611E+02 -0.13610078112E+02 -0.59270295869E+02  0.61812402167E+02  0.00000000000E+00 0.  1.
         12    1    3    3    0    0  0.13467757224E+02  0.17469173441E+02 -0.12615553496E+04  0.12617481732E+04  0.00000000000E+00 0. -1.
         21    1    1    2  502  501 -0.24538929835E+02 -0.38590953283E+01 -0.78674906547E+03  0.78714112058E+03  0.00000000000E+00 0.  1.
<mgrwt>
<rscale>  1 0.85042407E+02</rscale>
<asrwt>0</asrwt>
<pdfrwt beam="1">  1        2 0.32448382E+00 0.85042407E+02</pdfrwt>
<pdfrwt beam="2">  1       -1 0.24053655E-03 0.85042407E+02</pdfrwt>
<totfact> 0.97847673E+04</totfact>
</mgrwt>
</event>
<event>
 6    2  0.1063641E+001  0.8939406E+02  0.7546771E-02  0.1304326E+00
          2   -1    0    0  502    0  0.00000000000E+00  0.00000000000E+00  0.16199065283E+04  0.16199065283E+04  0.00000000000E+00 0. -1.
         -1   -1    0    0    0  501 -0.00000000000E+00 -0.00000000000E+00 -0.30311362954E+01  0.30311362954E+01  0.00000000000E+00 0.  1.
         24    2    1    2    0    0 -0.29721928117E+02  0.23342289623E+02  0.76172480686E+03  0.76695239674E+03  0.81012603948E+02 0.  0.
        -11    1    3    3    0    0 -0.21534037354E+02  0.12466033554E+02  0.58198806557E+02  0.63294690472E+02  0.00000000000E+00 0.  1.
         12    1    3    3    0    0 -0.81878907631E+01  0.10876256069E+02  0.70352600030E+03  0.70365770627E+03  0.00000000000E+00 0. -1.
         21    1    1    2  502  501  0.29721928117E+02 -0.23342289623E+02  0.85515058517E+03  0.85598526788E+03  0.00000000000E+00 0. -1.
<mgrwt>
<rscale>  1 0.89394057E+02</rscale>
<asrwt>0</asrwt>
<pdfrwt beam="1">  1        2 0.24921570E+00 0.89394057E+02</pdfrwt>
<pdfrwt beam="2">  1       -1 0.46632995E-03 0.89394057E+02</pdfrwt>
<totfact> 0.68888680E+04</totfact>
</mgrwt>
</event>
<event>
 6    2  0.1063641E+001  0.8737978E+02  0.7546771E-02  0.1309324E+00
          2   -1    0    0  502    0  0.00000000000E+00  0.00000000000E+00  0.19255261913E+04  0.19255261913E+04  0.00000000000E+00 0. -1.
         -1   -1    0    0    0  501 -0.00000000000E+00 -0.00000000000E+00 -0.18979707200E+01  0.18979707200E+01  0.00000000000E+00 0.  1.
         24    2    1    2    0    0  0.31892611850E+02  0.51889411435E+01  0.12741698157E+04  0.12771624582E+04  0.81185969011E+02 0.  0.
        -11    1    3    3    0    0 -0.12224831390E+02  0.14672137670E+02  0.84253100059E+02  0.86390410324E+02  0.00000000000E+00 0.  1.
         12    1    3    3    0    0  0.44117443239E+02 -0.94831965268E+01  0.11899167157E+04  0.11907720479E+04  0.00000000000E+00 0. -1.
         21    1    1    2  502  501 -0.31892611850E+02 -0.51889411435E+01  0.64945840484E+03  0.65026170379E+03  0.00000000000E+00 0.  1.
<mgrwt>
<rscale>  1 0.87379777E+02</rscale>
<asrwt>0</asrwt>
<pdfrwt beam="1">  1        2 0.29623324E+00 0.87379777E+02</pdfrwt>
<pdfrwt beam="2">  1       -1 0.29199704E-03 0.87379777E+02</pdfrwt>
<totfact> 0.92709729E+04</totfact>
</mgrwt>
</event>
<event>
 6    2  0.1063641E+001  0.9916196E+02  0.7546771E-02  0.1282068E+00
          2   -1    0    0  502    0  0.00000000000E+00  0.00000000000E+00  0.32561138593E+03  0.32561138593E+03  0.00000000000E+00 0. -1.
         -1   -1    0    0    0  501 -0.00000000000E+00 -0.00000000000E+00 -0.14836389056E+03  0.14836389056E+03  0.00000000000E+00 0.  1.
         24    2    1    2    0    0  0.42486573260E+02 -0.40593858489E+02 -0.12868023822E+03  0.16245521545E+03  0.79875672551E+02 0.  0.
        -13    1    3    3    0    0  0.61158170430E+02 -0.82014784399E+01 -0.77193971454E+02  0.98825580129E+02  0.00000000000E+00 0.  1.
         14    1    3    3    0    0 -0.18671597170E+02 -0.32392380049E+02 -0.51486266764E+02  0.63629635324E+02  0.00000000000E+00 0. -1.
         21    1    1    2  502  501 -0.42486573260E+02  0.40593858489E+02  0.30592773358E+03  0.31152006104E+03  0.00000000000E+00 0. -1.
<mgrwt>
<rscale>  1 0.99161955E+02</rscale>
<asrwt>0</asrwt>
<pdfrwt beam="1">  1        2 0.50094059E-01 0.99161955E+02</pdfrwt>
<pdfrwt beam="2">  1       -1 0.22825214E-01 0.99161955E+02</pdfrwt>
<totfact> 0.17962633E+03</totfact>
</mgrwt>
</event>
<event>
 6    2  0.1063641E+001  0.8422456E+02  0.7546771E-02  0.1317473E+00
         -1   -1    0    0    0  501 -0.00000000000E+00  0.00000000000E+00  0.26138506640E+02  0.26138506640E+02  0.00000000000E+00 0.  1.
          2   -1    0    0  502    0  0.00000000000E+00 -0.00000000000E+00 -0.11739220019E+03  0.11739220019E+03  0.00000000000E+00 0. -1.
         24    2    1    2    0    0  0.14362848091E+02 -0.18906454729E+02 -0.56423114643E+02  0.10137724122E+03  0.80808611772E+02 0.  0.
        -11    1    3    3    0    0  0.42501042592E+02 -0.24801749424E+02 -0.15942391399E+02  0.51726446228E+02  0.00000000000E+00 0.  1.
         12    1    3    3    0    0 -0.28138194502E+02  0.58952946945E+01 -0.40480723244E+02  0.49650794996E+02  0.00000000000E+00 0. -1.
         21    1    1    2  502  501 -0.14362848091E+02  0.18906454729E+02 -0.34830578911E+02  0.42153465611E+02  0.00000000000E+00 0. -1.
<mgrwt>
<rscale>  1 0.84224564E+02</rscale>
<asrwt>0</asrwt>
<pdfrwt beam="1">  1        2 0.18060338E-01 0.84224564E+02</pdfrwt>
<pdfrwt beam="2">  1       -1 0.40213087E-02 0.84224564E+02</pdfrwt>
<totfact> 0.73525556E+04</totfact>
</mgrwt>
</event>
<event>
 6    2  0.1063641E+001  0.8460452E+02  0.7546771E-02  0.1316470E+00
         -1   -1    0    0    0  501 -0.00000000000E+00  0.00000000000E+00  0.13688007006E+02  0.13688007006E+02  0.00000000000E+00 0.  1.
          2   -1    0    0  502    0  0.00000000000E+00 -0.00000000000E+00 -0.29940245484E+03  0.29940245484E+03  0.00000000000E+00 0. -1.
         24    2    1    2    0    0  0.13195828986E+02 -0.15469358438E+02 -0.12406193785E+03  0.15016420572E+03  0.82124864089E+02 0.  0.
        -13    1    3    3    0    0  0.29126540255E+02 -0.45454030152E-01 -0.56191237377E+01  0.29663647194E+02  0.00000000000E+00 0.  1.
         14    1    3    3    0    0 -0.15930711269E+02 -0.15423904408E+02 -0.11844281411E+03  0.12050055852E+03  0.00000000000E+00 0. -1.
         21    1    1    2  502  501 -0.13195828986E+02  0.15469358438E+02 -0.16165250998E+03  0.16292625613E+03  0.00000000000E+00 0. -1.
<mgrwt>
<rscale>  1 0.84604517E+02</rscale>
<asrwt>0</asrwt>
<pdfrwt beam="1">  1        2 0.46061911E-01 0.84604517E+02</pdfrwt>
<pdfrwt beam="2">  1       -1 0.21058475E-02 0.84604517E+02</pdfrwt>
<totfact> 0.68081848E+04</totfact>
</mgrwt>
</event>
<event>
 6    2  0.1063641E+001  0.8426311E+02  0.7546771E-02  0.1317371E+00
          4   -1    0    0  502    0  0.00000000000E+00  0.00000000000E+00  0.24876536074E+03  0.24876536074E+03  0.00000000000E+00 0. -1.
         -3   -1    0    0    0  501 -0.00000000000E+00 -0.00000000000E+00 -0.13604344664E+02  0.13604344664E+02  0.00000000000E+00 0.  1.
         24    2    1    2    0    0  0.89121077155E+01 -0.18771103478E+02  0.22277615095E+03  0.23817952405E+03  0.81660836731E+02 0.  0.
        -11    1    3    3    0    0 -0.73360614959E+01 -0.42509272132E+02  0.66418352611E+02  0.79197560436E+02  0.00000000000E+00 0.  1.
         12    1    3    3    0    0  0.16248169211E+02  0.23738168653E+02  0.15635779834E+03  0.15898196361E+03  0.00000000000E+00 0. -1.
         21    1    1    2  502  501 -0.89121077155E+01  0.18771103478E+02  0.12384865128E+02  0.24190181355E+02  0.00000000000E+00 0.  1.
<mgrwt>
<rscale>  1 0.84263113E+02</rscale>
<asrwt>0</asrwt>
<pdfrwt beam="1">  1        4 0.38271591E-01 0.84263113E+02</pdfrwt>
<pdfrwt beam="2">  1       -3 0.20929763E-02 0.84263113E+02</pdfrwt>
<totfact> 0.99702225E+03</totfact>
</mgrwt>
</event>
<event>
 6    2  0.1063641E+001  0.8388085E+02  0.7546771E-02  0.1318385E+00
         -1   -1    0    0    0  501 -0.00000000000E+00  0.00000000000E+00  0.28026764955E+02  0.28026764955E+02  0.00000000000E+00 0.  1.
          2   -1    0    0  502    0  0.00000000000E+00 -0.00000000000E+00 -0.10344090308E+03  0.10344090308E+03  0.00000000000E+00 0. -1.
         24    2    1    2    0    0 -0.18507543611E+02  0.14226529855E+02 -0.53780969712E+02  0.99641306355E+02  0.80567201185E+02 0.  0.
        -11    1    3    3    0    0  0.21293010358E+02  0.24878323877E+02 -0.11036155643E+01  0.32764939437E+02  0.00000000000E+00 0.  1.
         12    1    3    3    0    0 -0.39800553970E+02 -0.10651794021E+02 -0.52677354147E+02  0.66876366918E+02  0.00000000000E+00 0. -1.
         21    1    1    2  502  501  0.18507543611E+02 -0.14226529855E+02 -0.21633168414E+02  0.31826361682E+02  0.00000000000E+00 0. -1.
<mgrwt>
<rscale>  1 0.83880851E+02</rscale>
<asrwt>0</asrwt>
<pdfrwt beam="1">  1        2 0.15913985E-01 0.83880851E+02</pdfrwt>
<pdfrwt beam="2">  1       -1 0.43118100E-02 0.83880851E+02</pdfrwt>
<totfact> 0.76679258E+04</totfact>
</mgrwt>
</event>
<event>
 6    2  0.1063641E+001  0.1028209E+03  0.7546771E-02  0.1274473E+00
         -1   -1    0    0    0  501 -0.00000000000E+00  0.00000000000E+00  0.88054648360E+02  0.88054648360E+02  0.00000000000E+00 0.  1.
          2   -1    0    0  502    0  0.00000000000E+00 -0.00000000000E+00 -0.81933747747E+02  0.81933747747E+02  0.00000000000E+00 0. -1.
         24    2    1    2    0    0 -0.55295852330E+02 -0.31224330230E+02  0.20580395362E+02  0.10486031406E+03  0.80867439105E+02 0.  0.
        -11    1    3    3    0    0 -0.43509478826E+02 -0.16132123680E+02  0.50977108348E+02  0.68934648310E+02  0.00000000000E+00 0.  1.
         12    1    3    3    0    0 -0.11786373504E+02 -0.15092206550E+02 -0.30396712986E+02  0.35925665746E+02  0.00000000000E+00 0. -1.
         21    1    1    2  502  501  0.55295852330E+02  0.31224330230E+02 -0.14459494749E+02  0.65128082051E+02  0.00000000000E+00 0. -1.
<mgrwt>
<rscale>  1 0.10282088E+03</rscale>
<asrwt>0</asrwt>
<pdfrwt beam="1">  1        2 0.12605192E-01 0.10282088E+03</pdfrwt>
<pdfrwt beam="2">  1       -1 0.13546869E-01 0.10282088E+03</pdfrwt>
<totfact> 0.18696988E+04</totfact>
</mgrwt>
</event>
<event>
 6    2  0.1063641E+001  0.1342988E+03  0.7546771E-02  0.1221213E+00
         -1   -1    0    0    0  501 -0.00000000000E+00  0.00000000000E+00  0.24842796531E+02  0.24842796531E+02  0.00000000000E+00 0.  1.
          2   -1    0    0  502    0  0.00000000000E+00 -0.00000000000E+00 -0.82729218523E+03  0.82729218523E+03  0.00000000000E+00 0. -1.
         24    2    1    2    0    0 -0.19879251923E+02 -0.10779982214E+03 -0.20748103376E+03  0.24715289137E+03  0.77589857802E+02 0.  0.
        -13    1    3    3    0    0  0.44807743311E+01 -0.93167880866E+02 -0.19491116826E+03  0.21608029729E+03  0.00000000000E+00 0.  1.
         14    1    3    3    0    0 -0.24360026254E+02 -0.14631941274E+02 -0.12569865501E+02  0.31072594087E+02  0.00000000000E+00 0. -1.
         21    1    1    2  502  501  0.19879251923E+02  0.10779982214E+03 -0.59496835494E+03  0.60498209039E+03  0.00000000000E+00 0. -1.
<mgrwt>
<rscale>  1 0.13429882E+03</rscale>
<asrwt>0</asrwt>
<pdfrwt beam="1">  1        2 0.12727573E+00 0.13429882E+03</pdfrwt>
<pdfrwt beam="2">  1       -1 0.38219685E-02 0.13429882E+03</pdfrwt>
<totfact> 0.97773581E+03</totfact>
</mgrwt>
</event>
<event>
 6    2  0.1063641E+001  0.8700398E+02  0.7546771E-02  0.1310274E+00
         -1   -1    0    0    0  501 -0.00000000000E+00  0.00000000000E+00  0.73288092445E+01  0.73288092445E+01  0.00000000000E+00 0.  1.
          2   -1    0    0  502    0  0.00000000000E+00 -0.00000000000E+00 -0.50056407893E+03  0.50056407893E+03  0.00000000000E+00 0. -1.
         24    2    1    2    0    0 -0.11757130966E+02 -0.16483171048E+02 -0.26843351872E+03  0.28218123075E+03  0.84615412092E+02 0.  0.
        -13    1    3    3    0    0  0.23979473377E+02 -0.11995031750E+02 -0.26911757178E+02  0.37988664158E+02  0.00000000000E+00 0.  1.
         14    1    3    3    0    0 -0.35736604343E+02 -0.44881392984E+01 -0.24152176154E+03  0.24419256660E+03  0.00000000000E+00 0. -1.
         21    1    1    2  502  501  0.11757130966E+02  0.16483171048E+02 -0.22480175097E+03  0.22571165742E+03  0.00000000000E+00 0. -1.
<mgrwt>
<rscale>  1 0.87003983E+02</rscale>
<asrwt>0</asrwt>
<pdfrwt beam="1">  1        2 0.77009882E-01 0.87003983E+02</pdfrwt>
<pdfrwt beam="2">  1       -1 0.11275088E-02 0.87003983E+02</pdfrwt>
<totfact> 0.96484358E+04</totfact>
</mgrwt>
</event>
<event>
 6    2  0.1063641E+001  0.9956263E+02  0.7546771E-02  0.1281218E+00
          2   -1    0    0  502    0  0.00000000000E+00  0.00000000000E+00  0.18432498400E+04  0.18432498400E+04  0.00000000000E+00 0. -1.
         -1   -1    0    0    0  501 -0.00000000000E+00 -0.00000000000E+00 -0.52023308008E+01  0.52023308008E+01  0.00000000000E+00 0.  1.
         24    2    1    2    0    0 -0.47936047061E+02 -0.29520904243E+02  0.53476628711E+03  0.54395560421E+03  0.82118019505E+02 0.  0.
        -11    1    3    3    0    0  0.12850840288E+02 -0.32019941474E+02  0.12408533093E+03  0.12879281851E+03  0.00000000000E+00 0.  1.
         12    1    3    3    0    0 -0.60786887349E+02  0.24990372311E+01  0.41068095618E+03  0.41516278570E+03  0.00000000000E+00 0. -1.
         21    1    1    2  502  501  0.47936047061E+02  0.29520904243E+02  0.13032812221E+04  0.13044965666E+04  0.00000000000E+00 0. -1.
<mgrwt>
<rscale>  1 0.99562631E+02</rscale>
<asrwt>0</asrwt>
<pdfrwt beam="1">  1        2 0.28357638E+00 0.99562631E+02</pdfrwt>
<pdfrwt beam="2">  1       -1 0.80036005E-03 0.99562631E+02</pdfrwt>
<totfact> 0.25144957E+04</totfact>
</mgrwt>
</event>
<event>
 6    2  0.1063641E+001  0.9710981E+02  0.7546771E-02  0.1286494E+00
         -3   -1    0    0    0  501 -0.00000000000E+00  0.00000000000E+00  0.29032120688E+03  0.29032120688E+03  0.00000000000E+00 0.  1.
          4   -1    0    0  502    0  0.00000000000E+00 -0.00000000000E+00 -0.20583526698E+02  0.20583526698E+02  0.00000000000E+00 0. -1.
         24    2    1    2    0    0  0.38568295720E+02  0.36552800094E+02  0.13700440294E+03  0.16793010815E+03  0.81281573361E+02 0.  0.
        -11    1    3    3    0    0 -0.12240196787E+02  0.39818981602E+02  0.87532261157E+02  0.96939519581E+02  0.00000000000E+00 0.  1.
         12    1    3    3    0    0  0.50808492507E+02 -0.32661815084E+01  0.49472141785E+02  0.70990588568E+02  0.00000000000E+00 0. -1.
         21    1    1    2  502  501 -0.38568295720E+02 -0.36552800094E+02  0.13273327724E+03  0.14297462543E+03  0.00000000000E+00 0.  1.
<mgrwt>
<rscale>  1 0.97109808E+02</rscale>
<asrwt>0</asrwt>
<pdfrwt beam="1">  1        4 0.31666966E-02 0.97109808E+02</pdfrwt>
<pdfrwt beam="2">  1       -3 0.44664798E-01 0.97109808E+02</pdfrwt>
<totfact> 0.44487320E+03</totfact>
</mgrwt>
</event>
<event>
 6    2  0.1063641E+001  0.8395020E+02  0.7546771E-02  0.1318201E+00
          4   -1    0    0  502    0  0.00000000000E+00  0.00000000000E+00  0.25977945905E+01  0.25977945905E+01  0.00000000000E+00 0. -1.
         -3   -1    0    0    0  501 -0.00000000000E+00 -0.00000000000E+00 -0.21504273601E+04  0.21504273601E+04  0.00000000000E+00 0.  1.
         24    2    1    2    0    0 -0.17573988796E+02 -0.13001534066E+02 -0.20813753122E+04  0.20830676479E+04  0.81053998069E+02 0.  0.
        -13    1    3    3    0    0 -0.14919682251E+02 -0.47151772494E+02 -0.11510379237E+04  0.11520999039E+04  0.00000000000E+00 0.  1.
         14    1    3    3    0    0 -0.26543065452E+01  0.34150238427E+02 -0.93033738847E+03  0.93096774408E+03  0.00000000000E+00 0. -1.
         21    1    1    2  502  501  0.17573988796E+02  0.13001534066E+02 -0.66454253249E+02  0.69957506711E+02  0.00000000000E+00 0. -1.
<mgrwt>
<rscale>  1 0.83950197E+02</rscale>
<asrwt>0</asrwt>
<pdfrwt beam="1">  1        4 0.39966146E-03 0.83950197E+02</pdfrwt>
<pdfrwt beam="2">  1       -3 0.33083436E+00 0.83950197E+02</pdfrwt>
<totfact> 0.66309902E+02</totfact>
</mgrwt>
</event>
<event>
 6    2  0.1063641E+001  0.9393533E+02  0.7546771E-02  0.1293592E+00
         -1   -1    0    0    0  501 -0.00000000000E+00  0.00000000000E+00  0.17181341160E+02  0.17181341160E+02  0.00000000000E+00 0.  1.
          2   -1    0    0  502    0  0.00000000000E+00 -0.00000000000E+00 -0.40575288883E+03  0.40575288883E+03  0.00000000000E+00 0. -1.
         24    2    1    2    0    0  0.48498933246E+02  0.12509791368E+01 -0.34555442238E+03  0.35809454660E+03  0.80437143144E+02 0.  0.
        -13    1    3    3    0    0  0.11529302081E+02 -0.21253475499E+02 -0.26953963056E+03  0.27062196414E+03  0.00000000000E+00 0.  1.
         14    1    3    3    0    0  0.36969631165E+02  0.22504454636E+02 -0.76014791820E+02  0.87472582461E+02  0.00000000000E+00 0. -1.
         21    1    1    2  502  501 -0.48498933246E+02 -0.12509791368E+01 -0.43017125286E+02  0.64839683394E+02  0.00000000000E+00 0.  1.
<mgrwt>
<rscale>  1 0.93935326E+02</rscale>
<asrwt>0</asrwt>
<pdfrwt beam="1">  1        2 0.62423520E-01 0.93935326E+02</pdfrwt>
<pdfrwt beam="2">  1       -1 0.26432833E-02 0.93935326E+02</pdfrwt>
<totfact> 0.36260835E+04</totfact>
</mgrwt>
</event>
<event>
 6    2  0.1063641E+001  0.7587017E+02  0.7546771E-02  0.1341197E+00
          2   -1    0    0  502    0  0.00000000000E+00  0.00000000000E+00  0.92597773201E+02  0.92597773201E+02  0.00000000000E+00 0. -1.
         -1   -1    0    0    0  501 -0.00000000000E+00 -0.00000000000E+00 -0.31159901378E+02  0.31159901378E+02  0.00000000000E+00 0.  1.
         24    2    1    2    0    0 -0.14529802293E+02  0.22611894150E+02  0.60198919193E+02  0.96851394357E+02  0.70949769592E+02 0.  0.
        -13    1    3    3    0    0 -0.18980171679E+02 -0.22131462736E+02  0.34087658450E+02  0.44855512686E+02  0.00000000000E+00 0.  1.
         14    1    3    3    0    0  0.44503693854E+01  0.44743356886E+02  0.26111260744E+02  0.51995881671E+02  0.00000000000E+00 0. -1.
         21    1    1    2  502  501  0.14529802293E+02 -0.22611894150E+02  0.12389526290E+01  0.26906280221E+02  0.00000000000E+00 0. -1.
<mgrwt>
<rscale>  1 0.75870170E+02</rscale>
<asrwt>0</asrwt>
<pdfrwt beam="1">  1        2 0.14245811E-01 0.75870170E+02</pdfrwt>
<pdfrwt beam="2">  1       -1 0.47938310E-02 0.75870170E+02</pdfrwt>
<totfact> 0.73540520E+04</totfact>
</mgrwt>
</event>
<event>
 6    2  0.1063641E+001  0.7919941E+02  0.7546771E-02  0.1331339E+00
          2   -1    0    0  502    0  0.00000000000E+00  0.00000000000E+00  0.48955429066E+02  0.48955429066E+02  0.00000000000E+00 0. -1.
         -1   -1    0    0    0  501 -0.00000000000E+00 -0.00000000000E+00 -0.54826111429E+02  0.54826111429E+02  0.00000000000E+00 0.  1.
         24    2    1    2    0    0  0.24187747540E+01  0.22259119581E+02  0.40260254686E+01  0.79301677306E+02  0.75968600531E+02 0.  0.
        -13    1    3    3    0    0  0.36618799023E+00 -0.28447577076E+02  0.16605675834E+01  0.28498354686E+02  0.00000000000E+00 0.  1.
         14    1    3    3    0    0  0.20525867637E+01  0.50706696656E+02  0.23654578852E+01  0.50803322620E+02  0.00000000000E+00 0. -1.
         21    1    1    2  502  501 -0.24187747540E+01 -0.22259119581E+02 -0.98967078321E+01  0.24479863189E+02  0.00000000000E+00 0.  1.
<mgrwt>
<rscale>  1 0.79199414E+02</rscale>
<asrwt>0</asrwt>
<pdfrwt beam="1">  1        2 0.75316045E-02 0.79199414E+02</pdfrwt>
<pdfrwt beam="2">  1       -1 0.84347863E-02 0.79199414E+02</pdfrwt>
<totfact> 0.69297800E+04</totfact>
</mgrwt>
</event>
<event>
 6    2  0.1063641E+001  0.8668528E+02  0.7546771E-02  0.1311083E+00
          2   -1    0    0  502    0  0.00000000000E+00  0.00000000000E+00  0.76982884824E+03  0.76982884824E+03  0.00000000000E+00 0. -1.
         -1   -1    0    0    0  501 -0.00000000000E+00 -0.00000000000E+00 -0.44257248124E+01  0.44257248124E+01  0.00000000000E+00 0.  1.
         24    2    1    2    0    0  0.18923138836E+02  0.23305131127E+02  0.57662212308E+03  0.58310154427E+03  0.81321115249E+02 0.  0.
        -11    1    3    3    0    0  0.40221095960E+01  0.48856336227E+02  0.22712979117E+03  0.23235976629E+03  0.00000000000E+00 0.  1.
         12    1    3    3    0    0  0.14901029240E+02 -0.25551205100E+02  0.34949233192E+03  0.35074177798E+03  0.00000000000E+00 0. -1.
         21    1    1    2  502  501 -0.18923138836E+02 -0.23305131127E+02  0.18878100034E+03  0.19115302878E+03  0.00000000000E+00 0.  1.
<mgrwt>
<rscale>  1 0.86685282E+02</rscale>
<asrwt>0</asrwt>
<pdfrwt beam="1">  1        2 0.11843510E+00 0.86685282E+02</pdfrwt>
<pdfrwt beam="2">  1       -1 0.68088135E-03 0.86685282E+02</pdfrwt>
<totfact> 0.12048220E+05</totfact>
</mgrwt>
</event>
<event>
 6    2  0.1063641E+001  0.8664043E+02  0.7546771E-02  0.1311198E+00
         -1   -1    0    0    0  501 -0.00000000000E+00  0.00000000000E+00  0.19148073502E+01  0.19148073502E+01  0.00000000000E+00 0.  1.
          2   -1    0    0  502    0  0.00000000000E+00 -0.00000000000E+00 -0.20696178416E+04  0.20696178416E+04  0.00000000000E+00 0. -1.
         24    2    1    2    0    0  0.97704326669E+01  0.26753902634E+02 -0.10985889371E+04  0.11020000987E+04  0.81825009626E+02 0.  0.
        -11    1    3    3    0    0 -0.10000473391E+02  0.50170388048E+02 -0.49571422967E+03  0.49834694220E+03  0.00000000000E+00 0.  1.
         12    1    3    3    0    0  0.19770906058E+02 -0.23416485413E+02 -0.60287470740E+03  0.60365315649E+03  0.00000000000E+00 0. -1.
         21    1    1    2  502  501 -0.97704326669E+01 -0.26753902634E+02 -0.96911409718E+03  0.96953255026E+03  0.00000000000E+00 0. -1.
<mgrwt>
<rscale>  1 0.86640434E+02</rscale>
<asrwt>0</asrwt>
<pdfrwt beam="1">  1        2 0.31840233E+00 0.86640434E+02</pdfrwt>
<pdfrwt beam="2">  1       -1 0.29458613E-03 0.86640434E+02</pdfrwt>
<totfact> 0.77470622E+04</totfact>
</mgrwt>
</event>
<event>
 6    2  0.1063641E+001  0.7998716E+02  0.7546771E-02  0.1329088E+00
         -1   -1    0    0    0  501 -0.00000000000E+00  0.00000000000E+00  0.85905751903E+02  0.85905751903E+02  0.00000000000E+00 0.  1.
          2   -1    0    0  502    0  0.00000000000E+00 -0.00000000000E+00 -0.33001684487E+02  0.33001684487E+02  0.00000000000E+00 0. -1.
         24    2    1    2    0    0  0.26033543526E+02  0.30447224489E+01  0.43570538881E+02  0.91084236031E+02  0.75570698499E+02 0.  0.
        -11    1    3    3    0    0  0.29738088951E+01  0.33565401171E+02  0.80438636767E+00  0.33706479089E+02  0.00000000000E+00 0.  1.
         12    1    3    3    0    0  0.23059734631E+02 -0.30520678722E+02  0.42766152513E+02  0.57377756942E+02  0.00000000000E+00 0. -1.
         21    1    1    2  502  501 -0.26033543526E+02 -0.30447224489E+01  0.93335285358E+01  0.27823200359E+02  0.00000000000E+00 0.  1.
<mgrwt>
<rscale>  1 0.79987163E+02</rscale>
<asrwt>0</asrwt>
<pdfrwt beam="1">  1        2 0.50771823E-02 0.79987163E+02</pdfrwt>
<pdfrwt beam="2">  1       -1 0.13216269E-01 0.79987163E+02</pdfrwt>
<totfact> 0.57982664E+04</totfact>
</mgrwt>
</event>
<event>
 6    2  0.1063641E+001  0.8559791E+02  0.7546771E-02  0.1313876E+00
         -1   -1    0    0    0  501 -0.00000000000E+00  0.00000000000E+00  0.83053178974E+01  0.83053178974E+01  0.00000000000E+00 0.  1.
          2   -1    0    0  502    0  0.00000000000E+00 -0.00000000000E+00 -0.41061483962E+03  0.41061483962E+03  0.00000000000E+00 0. -1.
         24    2    1    2    0    0  0.25342084062E+02  0.17642642619E+02 -0.28147503395E+03  0.29420264672E+03  0.79834319307E+02 0.  0.
        -11    1    3    3    0    0 -0.42544660380E+01  0.18284600588E+02 -0.10293150934E+02  0.21409718729E+02  0.00000000000E+00 0.  1.
         12    1    3    3    0    0  0.29596550100E+02 -0.64195796828E+00 -0.27118188301E+03  0.27279292799E+03  0.00000000000E+00 0. -1.
         21    1    1    2  502  501 -0.25342084062E+02 -0.17642642619E+02 -0.12083448778E+03  0.12471751080E+03  0.00000000000E+00 0.  1.
<mgrwt>
<rscale>  1 0.85597912E+02</rscale>
<asrwt>0</asrwt>
<pdfrwt beam="1">  1        2 0.63171531E-01 0.85597912E+02</pdfrwt>
<pdfrwt beam="2">  1       -1 0.12777409E-02 0.85597912E+02</pdfrwt>
<totfact> 0.99604202E+04</totfact>
</mgrwt>
</event>
<event>
 6    2  0.1063641E+001  0.8323638E+02  0.7546771E-02  0.1320110E+00
          2   -1    0    0  502    0  0.00000000000E+00  0.00000000000E+00  0.21622786550E+02  0.21622786550E+02  0.00000000000E+00 0. -1.
         -1   -1    0    0    0  501 -0.00000000000E+00 -0.00000000000E+00 -0.16087702109E+03  0.16087702109E+03  0.00000000000E+00 0.  1.
         24    2    1    2    0    0 -0.10064704338E+02  0.17420308060E+02 -0.13942406290E+03  0.16238030844E+03  0.80768371578E+02 0.  0.
        -11    1    3    3    0    0 -0.36188145504E+02  0.35932568672E+02 -0.79805707189E+02  0.94708406524E+02  0.00000000000E+00 0.  1.
         12    1    3    3    0    0  0.26123441166E+02 -0.18512260612E+02 -0.59618355715E+02  0.67671901920E+02  0.00000000000E+00 0. -1.
         21    1    1    2  502  501  0.10064704338E+02 -0.17420308060E+02  0.16982836194E+00  0.20119499198E+02  0.00000000000E+00 0. -1.
<mgrwt>
<rscale>  1 0.83236382E+02</rscale>
<asrwt>0</asrwt>
<pdfrwt beam="1">  1        2 0.33265826E-02 0.83236382E+02</pdfrwt>
<pdfrwt beam="2">  1       -1 0.24750311E-01 0.83236382E+02</pdfrwt>
<totfact> 0.37724119E+04</totfact>
</mgrwt>
</event>
<event>
 6    2  0.1063641E+001  0.8765027E+02  0.7546771E-02  0.1308644E+00
          2   -1    0    0  502    0  0.00000000000E+00  0.00000000000E+00  0.41161643335E+03  0.41161643335E+03  0.00000000000E+00 0. -1.
         -1   -1    0    0    0  501 -0.00000000000E+00 -0.00000000000E+00 -0.11453495670E+02  0.11453495670E+02  0.00000000000E+00 0.  1.
         24    2    1    2    0    0  0.79055100291E+01  0.25252161169E+02  0.16881085693E+03  0.19020955454E+03  0.83560759277E+02 0.  0.
        -11    1    3    3    0    0  0.31670984738E+02 -0.59844153766E+01  0.24031287201E+02  0.40204070269E+02  0.00000000000E+00 0.  1.
         12    1    3    3    0    0 -0.23765474709E+02  0.31236576546E+02  0.14477956973E+03  0.15000548428E+03  0.00000000000E+00 0. -1.
         21    1    1    2  502  501 -0.79055100291E+01 -0.25252161169E+02  0.23135208075E+03  0.23286037447E+03  0.00000000000E+00 0. -1.
<mgrwt>
<rscale>  1 0.87650267E+02</rscale>
<asrwt>0</asrwt>
<pdfrwt beam="1">  1        2 0.63325594E-01 0.87650267E+02</pdfrwt>
<pdfrwt beam="2">  1       -1 0.17620766E-02 0.87650267E+02</pdfrwt>
<totfact> 0.63210897E+04</totfact>
</mgrwt>
</event>
<event>
 6    2  0.1063641E+001  0.8652396E+02  0.7546771E-02  0.1311495E+00
          2   -1    0    0  502    0  0.00000000000E+00  0.00000000000E+00  0.79219882821E+03  0.79219882821E+03  0.00000000000E+00 0. -1.
         -1   -1    0    0    0  501 -0.00000000000E+00 -0.00000000000E+00 -0.10854522100E+02  0.10854522100E+02  0.00000000000E+00 0.  1.
         24    2    1    2    0    0 -0.13965357186E+01 -0.33145079708E+02  0.16946644228E+03  0.19027682753E+03  0.79911509912E+02 0.  0.
        -11    1    3    3    0    0  0.38938187666E+02 -0.14307974518E+02  0.71336491808E+02  0.82521486033E+02  0.00000000000E+00 0.  1.
         12    1    3    3    0    0 -0.40334723385E+02 -0.18837105190E+02  0.98129950469E+02  0.10775534150E+03  0.00000000000E+00 0. -1.
         21    1    1    2  502  501  0.13965357186E+01  0.33145079708E+02  0.61187786383E+03  0.61277652278E+03  0.00000000000E+00 0. -1.
<mgrwt>
<rscale>  1 0.86523962E+02</rscale>
<asrwt>0</asrwt>
<pdfrwt beam="1">  1        2 0.12187670E+00 0.86523962E+02</pdfrwt>
<pdfrwt beam="2">  1       -1 0.16699271E-02 0.86523962E+02</pdfrwt>
<totfact> 0.32835441E+04</totfact>
</mgrwt>
</event>
<event>
 6    2  0.1063641E+001  0.1119028E+03  0.7546771E-02  0.1257086E+00
         -1   -1    0    0    0  501 -0.00000000000E+00  0.00000000000E+00  0.28647734511E+03  0.28647734511E+03  0.00000000000E+00 0.  1.
          2   -1    0    0  502    0  0.00000000000E+00 -0.00000000000E+00 -0.31615747529E+02  0.31615747529E+02  0.00000000000E+00 0. -1.
         24    2    1    2    0    0 -0.75616619115E+02  0.19012629069E+02  0.13915400462E+03  0.17856675025E+03  0.80267640702E+02 0.  0.
        -13    1    3    3    0    0  0.61858952726E+01 -0.19656869643E+02  0.18052827184E+02  0.27396393810E+02  0.00000000000E+00 0.  1.
         14    1    3    3    0    0 -0.81802514388E+02  0.38669498712E+02  0.12110117744E+03  0.15117035644E+03  0.00000000000E+00 0. -1.
         21    1    1    2  502  501  0.75616619115E+02 -0.19012629069E+02  0.11570759296E+03  0.13952634238E+03  0.00000000000E+00 0.  1.
<mgrwt>
<rscale>  1 0.11190285E+03</rscale>
<asrwt>0</asrwt>
<pdfrwt beam="1">  1        2 0.48639613E-02 0.11190285E+03</pdfrwt>
<pdfrwt beam="2">  1       -1 0.44073436E-01 0.11190285E+03</pdfrwt>
<totfact> 0.89436793E+03</totfact>
</mgrwt>
</event>
<event>
 6    2  0.1063641E+001  0.8798949E+02  0.7546771E-02  0.1307795E+00
         -3   -1    0    0    0  501 -0.00000000000E+00  0.00000000000E+00  0.17725169847E+03  0.17725169847E+03  0.00000000000E+00 0.  1.
          4   -1    0    0  502    0  0.00000000000E+00 -0.00000000000E+00 -0.23085426770E+02  0.23085426770E+02  0.00000000000E+00 0. -1.
         24    2    1    2    0    0 -0.16544387257E+02 -0.31363690836E+02  0.13160009094E+03  0.15830582301E+03  0.80527956715E+02 0.  0.
        -13    1    3    3    0    0 -0.18878299680E+02 -0.35517327994E+02  0.14161442592E+03  0.14721588370E+03  0.00000000000E+00 0.  1.
         14    1    3    3    0    0  0.23339124229E+01  0.41536371588E+01 -0.10014334979E+02  0.11089939311E+02  0.00000000000E+00 0. -1.
         21    1    1    2  502  501  0.16544387257E+02  0.31363690836E+02  0.22566180758E+02  0.42031302223E+02  0.00000000000E+00 0. -1.
<mgrwt>
<rscale>  1 0.87989486E+02</rscale>
<asrwt>0</asrwt>
<pdfrwt beam="1">  1        4 0.35516042E-02 0.87989486E+02</pdfrwt>
<pdfrwt beam="2">  1       -3 0.27269491E-01 0.87989486E+02</pdfrwt>
<totfact> 0.91396025E+03</totfact>
</mgrwt>
</event>
<event>
 6    2  0.1063641E+001  0.8255911E+02  0.7546771E-02  0.1321942E+00
          2   -1    0    0  502    0  0.00000000000E+00  0.00000000000E+00  0.31779750736E+04  0.31779750736E+04  0.00000000000E+00 0. -1.
         -1   -1    0    0    0  501 -0.00000000000E+00 -0.00000000000E+00 -0.87078738967E+00  0.87078738967E+00  0.00000000000E+00 0.  1.
         24    2    1    2    0    0  0.24823500515E+01 -0.20094477777E+02  0.27801228336E+04  0.27813484096E+04  0.80037840437E+02 0.  0.
        -13    1    3    3    0    0  0.20480226907E+02 -0.30413696607E+02  0.59587394673E+03  0.59700099919E+03  0.00000000000E+00 0.  1.
         14    1    3    3    0    0 -0.17997876856E+02  0.10319218830E+02  0.21842488868E+04  0.21843474104E+04  0.00000000000E+00 0. -1.
         21    1    1    2  502  501 -0.24823500515E+01  0.20094477777E+02  0.39698145265E+03  0.39749745137E+03  0.00000000000E+00 0.  1.
<mgrwt>
<rscale>  1 0.82559106E+02</rscale>
<asrwt>0</asrwt>
<pdfrwt beam="1">  1        2 0.48890996E+00 0.82559106E+02</pdfrwt>
<pdfrwt beam="2">  1       -1 0.13396983E-03 0.82559106E+02</pdfrwt>
<totfact> 0.58292327E+04</totfact>
</mgrwt>
</event>
<event>
 6    2  0.1063641E+001  0.8310441E+02  0.7546771E-02  0.1320465E+00
          2   -1    0    0  502    0  0.00000000000E+00  0.00000000000E+00  0.14800933619E+02  0.14800933619E+02  0.00000000000E+00 0. -1.
         -1   -1    0    0    0  501 -0.00000000000E+00 -0.00000000000E+00 -0.26537744521E+03  0.26537744521E+03  0.00000000000E+00 0.  1.
         24    2    1    2    0    0 -0.88821533425E+01  0.22301448152E+02 -0.23993627156E+03  0.25392077144E+03  0.79561903709E+02 0.  0.
        -11    1    3    3    0    0 -0.39264093820E+01 -0.22759238910E+02 -0.16295522858E+03  0.16458373603E+03  0.00000000000E+00 0.  1.
         12    1    3    3    0    0 -0.49557439605E+01  0.45060687062E+02 -0.76981042985E+02  0.89337035409E+02  0.00000000000E+00 0. -1.
         21    1    1    2  502  501  0.88821533425E+01 -0.22301448152E+02 -0.10640240026E+02  0.26257607383E+02  0.00000000000E+00 0.  1.
<mgrwt>
<rscale>  1 0.83104415E+02</rscale>
<asrwt>0</asrwt>
<pdfrwt beam="1">  1        2 0.22770668E-02 0.83104415E+02</pdfrwt>
<pdfrwt beam="2">  1       -1 0.40827297E-01 0.83104415E+02</pdfrwt>
<totfact> 0.27016639E+04</totfact>
</mgrwt>
</event>
<event>
 6    2  0.1063641E+001  0.1119578E+03  0.7546771E-02  0.1256987E+00
         -1   -1    0    0    0  501 -0.00000000000E+00  0.00000000000E+00  0.89739610561E+03  0.89739610561E+03  0.00000000000E+00 0.  1.
          2   -1    0    0  502    0  0.00000000000E+00 -0.00000000000E+00 -0.10414283913E+02  0.10414283913E+02  0.00000000000E+00 0. -1.
         24    2    1    2    0    0 -0.41368447827E+02  0.65876765663E+02  0.60621948814E+03  0.61647109476E+03  0.80519849367E+02 0.  0.
        -11    1    3    3    0    0 -0.46523033120E+02  0.68854464176E+02  0.60462457498E+03  0.61030828810E+03  0.00000000000E+00 0.  1.
         12    1    3    3    0    0  0.51545852925E+01 -0.29776985131E+01  0.15949131589E+01  0.61628066623E+01  0.00000000000E+00 0. -1.
         21    1    1    2  502  501  0.41368447827E+02 -0.65876765663E+02  0.28076233356E+03  0.29133929477E+03  0.00000000000E+00 0. -1.
<mgrwt>
<rscale>  1 0.11195777E+03</rscale>
<asrwt>0</asrwt>
<pdfrwt beam="1">  1        2 0.16021982E-02 0.11195777E+03</pdfrwt>
<pdfrwt beam="2">  1       -1 0.13806088E+00 0.11195777E+03</pdfrwt>
<totfact> 0.37756072E+03</totfact>
</mgrwt>
</event>
<event>
 6    2  0.1063641E+001  0.8369085E+02  0.7546771E-02  0.1318892E+00
         -1   -1    0    0    0  501 -0.00000000000E+00  0.00000000000E+00  0.46921197021E+03  0.46921197021E+03  0.00000000000E+00 0.  1.
          2   -1    0    0  502    0  0.00000000000E+00 -0.00000000000E+00 -0.42314156174E+02  0.42314156174E+02  0.00000000000E+00 0. -1.
         24    2    1    2    0    0 -0.18895117643E+02 -0.90036250755E+01  0.46261701748E+03  0.47012622022E+03  0.81031273889E+02 0.  0.
        -13    1    3    3    0    0  0.12217847824E+02 -0.32799936389E+02  0.11235313595E+03  0.11767896495E+03  0.00000000000E+00 0.  1.
         14    1    3    3    0    0 -0.31112965468E+02  0.23796311313E+02  0.35026388152E+03  0.35244725528E+03  0.00000000000E+00 0. -1.
         21    1    1    2  502  501  0.18895117643E+02  0.90036250755E+01 -0.35719203442E+02  0.41399906157E+02  0.00000000000E+00 0. -1.
<mgrwt>
<rscale>  1 0.83690848E+02</rscale>
<asrwt>0</asrwt>
<pdfrwt beam="1">  1        2 0.65098705E-02 0.83690848E+02</pdfrwt>
<pdfrwt beam="2">  1       -1 0.72186453E-01 0.83690848E+02</pdfrwt>
<totfact> 0.24072491E+03</totfact>
</mgrwt>
</event>
<event>
 6    2  0.1063641E+001  0.8866717E+02  0.7546771E-02  0.1306112E+00
         -3   -1    0    0    0  501 -0.00000000000E+00  0.00000000000E+00  0.95457149380E+02  0.95457149380E+02  0.00000000000E+00 0.  1.
          4   -1    0    0  502    0  0.00000000000E+00 -0.00000000000E+00 -0.44884760588E+02  0.44884760588E+02  0.00000000000E+00 0. -1.
         24    2    1    2    0    0  0.21620947660E+02  0.30341252298E+02  0.17191288156E+02  0.90318367027E+02  0.80459990463E+02 0.  0.
        -11    1    3    3    0    0  0.41336384654E+02  0.13683892152E+01  0.31980259786E+02  0.52281030989E+02  0.00000000000E+00 0.  1.
         12    1    3    3    0    0 -0.19715436994E+02  0.28972863082E+02 -0.14788971629E+02  0.38037336038E+02  0.00000000000E+00 0. -1.
         21    1    1    2  502  501 -0.21620947660E+02 -0.30341252298E+02  0.33381100635E+02  0.50023542940E+02  0.00000000000E+00 0.  1.
<mgrwt>
<rscale>  1 0.88667170E+02</rscale>
<asrwt>0</asrwt>
<pdfrwt beam="1">  1        4 0.69053478E-02 0.88667170E+02</pdfrwt>
<pdfrwt beam="2">  1       -3 0.14685715E-01 0.88667170E+02</pdfrwt>
<totfact> 0.93545762E+03</totfact>
</mgrwt>
</event>
<event>
 6    2  0.1063641E+001  0.8245699E+02  0.7546771E-02  0.1322220E+00
          2   -1    0    0  502    0  0.00000000000E+00  0.00000000000E+00  0.27776908547E+02  0.27776908547E+02  0.00000000000E+00 0. -1.
         -1   -1    0    0    0  501 -0.00000000000E+00 -0.00000000000E+00 -0.10187384247E+03  0.10187384247E+03  0.00000000000E+00 0.  1.
         24    2    1    2    0    0  0.16885957977E+02  0.11501528916E+02 -0.44533327047E+02  0.93714312745E+02  0.79885758750E+02 0.  0.
        -11    1    3    3    0    0 -0.23555075121E+02 -0.13600399304E+02  0.18388775670E+01  0.27261582784E+02  0.00000000000E+00 0.  1.
         12    1    3    3    0    0  0.40441033098E+02  0.25101928220E+02 -0.46372204614E+02  0.66452729960E+02  0.00000000000E+00 0. -1.
         21    1    1    2  502  501 -0.16885957977E+02 -0.11501528916E+02 -0.29563606876E+02  0.35936438273E+02  0.00000000000E+00 0.  1.
<mgrwt>
<rscale>  1 0.82456990E+02</rscale>
<asrwt>0</asrwt>
<pdfrwt beam="1">  1        2 0.42733706E-02 0.82456990E+02</pdfrwt>
<pdfrwt beam="2">  1       -1 0.15672899E-01 0.82456990E+02</pdfrwt>
<totfact> 0.55954139E+04</totfact>
</mgrwt>
</event>
<event>
 6    2  0.1063641E+001  0.8013636E+02  0.7546771E-02  0.1328665E+00
          2   -1    0    0  502    0  0.00000000000E+00  0.00000000000E+00  0.39600330558E+03  0.39600330558E+03  0.00000000000E+00 0. -1.
         -1   -1    0    0    0  501 -0.00000000000E+00 -0.00000000000E+00 -0.93679630936E+01  0.93679630936E+01  0.00000000000E+00 0.  1.
         24    2    1    2    0    0  0.22056988717E+02 -0.49995556040E+01  0.17435223233E+03  0.19188678407E+03  0.76878675040E+02 0.  0.
        -11    1    3    3    0    0  0.12305889577E+02  0.10835245026E+02 -0.14951194737E+00  0.16396945047E+02  0.00000000000E+00 0.  1.
         12    1    3    3    0    0  0.97510991398E+01 -0.15834800630E+02  0.17450174428E+03  0.17548983903E+03  0.00000000000E+00 0. -1.
         21    1    1    2  502  501 -0.22056988717E+02  0.49995556040E+01  0.21228311015E+03  0.21348448460E+03  0.00000000000E+00 0. -1.
<mgrwt>
<rscale>  1 0.80136365E+02</rscale>
<asrwt>0</asrwt>
<pdfrwt beam="1">  1        2 0.60923573E-01 0.80136365E+02</pdfrwt>
<pdfrwt beam="2">  1       -1 0.14412254E-02 0.80136365E+02</pdfrwt>
<totfact> 0.86427069E+04</totfact>
</mgrwt>
</event>
<event>
 6    2  0.1063641E+001  0.8299448E+02  0.7546771E-02  0.1320762E+00
          4   -1    0    0  502    0  0.00000000000E+00  0.00000000000E+00  0.46700837164E+02  0.46700837164E+02  0.00000000000E+00 0. -1.
         -3   -1    0    0    0  501 -0.00000000000E+00 -0.00000000000E+00 -0.59785332956E+02  0.59785332956E+02  0.00000000000E+00 0.  1.
         24    2    1    2    0    0 -0.11162172119E+01  0.20513949992E+02 -0.17290660379E+01  0.83012485491E+02  0.80411535198E+02 0.  0.
        -13    1    3    3    0    0  0.37463474630E+02  0.12090074773E+02  0.12081904072E+02  0.41178322517E+02  0.00000000000E+00 0.  1.
         14    1    3    3    0    0 -0.38579691842E+02  0.84238752195E+01 -0.13810970110E+02  0.41834162973E+02  0.00000000000E+00 0. -1.
         21    1    1    2  502  501  0.11162172119E+01 -0.20513949992E+02 -0.11355429755E+02  0.23473684629E+02  0.00000000000E+00 0. -1.
<mgrwt>
<rscale>  1 0.82994476E+02</rscale>
<asrwt>0</asrwt>
<pdfrwt beam="1">  1        4 0.71847442E-02 0.82994476E+02</pdfrwt>
<pdfrwt beam="2">  1       -3 0.91977435E-02 0.82994476E+02</pdfrwt>
<totfact> 0.18670242E+04</totfact>
</mgrwt>
</event>
<event>
 6    2  0.1063641E+001  0.8423006E+02  0.7546771E-02  0.1317458E+00
          4   -1    0    0  502    0  0.00000000000E+00  0.00000000000E+00  0.19241206422E+03  0.19241206422E+03  0.00000000000E+00 0. -1.
         -3   -1    0    0    0  501 -0.00000000000E+00 -0.00000000000E+00 -0.16053868798E+02  0.16053868798E+02  0.00000000000E+00 0.  1.
         24    2    1    2    0    0  0.14773000270E+02 -0.21523583394E+02  0.12316888285E+03  0.14921553934E+03  0.80082440641E+02 0.  0.
        -13    1    3    3    0    0  0.31623649611E+02  0.65396636063E-01  0.10584447737E+02  0.33348013814E+02  0.00000000000E+00 0.  1.
         14    1    3    3    0    0 -0.16850649341E+02 -0.21588980030E+02  0.11258443511E+03  0.11586752552E+03  0.00000000000E+00 0. -1.
         21    1    1    2  502  501 -0.14773000270E+02  0.21523583394E+02  0.53189312580E+02  0.59250393685E+02  0.00000000000E+00 0.  1.
<mgrwt>
<rscale>  1 0.84230063E+02</rscale>
<asrwt>0</asrwt>
<pdfrwt beam="1">  1        4 0.29601854E-01 0.84230063E+02</pdfrwt>
<pdfrwt beam="2">  1       -3 0.24698261E-02 0.84230063E+02</pdfrwt>
<totfact> 0.12640989E+04</totfact>
</mgrwt>
</event>
<event>
 6    2  0.1063641E+001  0.1073699E+03  0.7546771E-02  0.1265519E+00
          2   -1    0    0  502    0  0.00000000000E+00  0.00000000000E+00  0.24312231359E+03  0.24312231359E+03  0.00000000000E+00 0. -1.
         -1   -1    0    0    0  501 -0.00000000000E+00 -0.00000000000E+00 -0.35540579384E+02  0.35540579384E+02  0.00000000000E+00 0.  1.
         24    2    1    2    0    0 -0.39961122522E+02  0.60258616644E+02  0.87568430126E+02  0.13855156099E+03  0.79374510428E+02 0.  0.
        -13    1    3    3    0    0  0.26447760100E+01  0.52195156141E+02  0.15619972642E+02  0.54546427106E+02  0.00000000000E+00 0.  1.
         14    1    3    3    0    0 -0.42605898532E+02  0.80634605031E+01  0.71948457484E+02  0.84005133887E+02  0.00000000000E+00 0. -1.
         21    1    1    2  502  501  0.39961122522E+02 -0.60258616644E+02  0.12001330408E+03  0.14011133198E+03  0.00000000000E+00 0.  1.
<mgrwt>
<rscale>  1 0.10736995E+03</rscale>
<asrwt>0</asrwt>
<pdfrwt beam="1">  1        2 0.37403432E-01 0.10736995E+03</pdfrwt>
<pdfrwt beam="2">  1       -1 0.54677816E-02 0.10736995E+03</pdfrwt>
<totfact> 0.21898842E+04</totfact>
</mgrwt>
</event>
<event>
 6    2  0.1063641E+001  0.8390352E+02  0.7546771E-02  0.1318325E+00
         -1   -1    0    0    0  501 -0.00000000000E+00  0.00000000000E+00  0.11863918970E+01  0.11863918970E+01  0.00000000000E+00 0.  1.
          2   -1    0    0  502    0  0.00000000000E+00 -0.00000000000E+00 -0.23447055762E+04  0.23447055762E+04  0.00000000000E+00 0. -1.
         24    2    1    2    0    0  0.14880407579E+02  0.15006750517E+02 -0.17793558560E+04  0.17813329454E+04  0.81198343859E+02 0.  0.
        -11    1    3    3    0    0  0.99332374307E+01 -0.16001289977E+01 -0.25813695531E+02  0.27705170919E+02  0.00000000000E+00 0.  1.
         12    1    3    3    0    0  0.49471701483E+01  0.16606879515E+02 -0.17535421605E+04  0.17536277745E+04  0.00000000000E+00 0. -1.
         21    1    1    2  502  501 -0.14880407579E+02 -0.15006750517E+02 -0.56416332828E+03  0.56455902266E+03  0.00000000000E+00 0.  1.
<mgrwt>
<rscale>  1 0.83903517E+02</rscale>
<asrwt>0</asrwt>
<pdfrwt beam="1">  1        2 0.36072404E+00 0.83903517E+02</pdfrwt>
<pdfrwt beam="2">  1       -1 0.18252178E-03 0.83903517E+02</pdfrwt>
<totfact> 0.10863934E+05</totfact>
</mgrwt>
</event>
<event>
 6    2  0.1063641E+001  0.7381828E+02  0.7546771E-02  0.1347570E+00
          4   -1    0    0  502    0  0.00000000000E+00  0.00000000000E+00  0.16155787929E+02  0.16155787929E+02  0.00000000000E+00 0. -1.
         -3   -1    0    0    0  501 -0.00000000000E+00 -0.00000000000E+00 -0.19822456384E+03  0.19822456384E+03  0.00000000000E+00 0.  1.
         24    2    1    2    0    0 -0.22695305678E+02  0.11097722203E+01 -0.17601165995E+03  0.19086446038E+03  0.70234103564E+02 0.  0.
        -11    1    3    3    0    0 -0.24120632131E+02 -0.19482195454E+01 -0.18220864812E+03  0.18380857407E+03  0.00000000000E+00 0.  1.
         12    1    3    3    0    0  0.14253264536E+01  0.30579917657E+01  0.61969881711E+01  0.70558863037E+01  0.00000000000E+00 0. -1.
         21    1    1    2  502  501  0.22695305678E+02 -0.11097722203E+01 -0.60571159648E+01  0.23515891393E+02  0.00000000000E+00 0.  1.
<mgrwt>
<rscale>  1 0.73818275E+02</rscale>
<asrwt>0</asrwt>
<pdfrwt beam="1">  1        4 0.24855058E-02 0.73818275E+02</pdfrwt>
<pdfrwt beam="2">  1       -3 0.30496087E-01 0.73818275E+02</pdfrwt>
<totfact> 0.12334010E+04</totfact>
</mgrwt>
</event>
<event>
 6    2  0.1063641E+001  0.9362746E+02  0.7546771E-02  0.1294298E+00
          2   -1    0    0  502    0  0.00000000000E+00  0.00000000000E+00  0.19698034982E+04  0.19698034982E+04  0.00000000000E+00 0. -1.
         -1   -1    0    0    0  501 -0.00000000000E+00 -0.00000000000E+00 -0.27477819931E+01  0.27477819931E+01  0.00000000000E+00 0.  1.
         24    2    1    2    0    0  0.46963357208E+02  0.15424244637E+02  0.10507093807E+04  0.10548726487E+04  0.79515016695E+02 0.  0.
        -13    1    3    3    0    0  0.34872941842E+02  0.21455498424E+02  0.20466777673E+03  0.20872316430E+03  0.00000000000E+00 0.  1.
         14    1    3    3    0    0  0.12090415366E+02 -0.60312537863E+01  0.84604160402E+03  0.84614948437E+03  0.00000000000E+00 0. -1.
         21    1    1    2  502  501 -0.46963357208E+02 -0.15424244637E+02  0.91634633541E+03  0.91767863148E+03  0.00000000000E+00 0. -1.
<mgrwt>
<rscale>  1 0.93627465E+02</rscale>
<asrwt>0</asrwt>
<pdfrwt beam="1">  1        2 0.30304556E+00 0.93627465E+02</pdfrwt>
<pdfrwt beam="2">  1       -1 0.42273727E-03 0.93627465E+02</pdfrwt>
<totfact> 0.52948748E+04</totfact>
</mgrwt>
</event>
<event>
 6    2  0.1063641E+001  0.1070381E+03  0.7546771E-02  0.1266155E+00
         -1   -1    0    0    0  501 -0.00000000000E+00  0.00000000000E+00  0.56783717018E+01  0.56783717018E+01  0.00000000000E+00 0.  1.
          2   -1    0    0  502    0  0.00000000000E+00 -0.00000000000E+00 -0.16009193078E+04  0.16009193078E+04  0.00000000000E+00 0. -1.
         24    2    1    2    0    0 -0.69341316629E+02 -0.21709859042E+02 -0.11975039791E+04  0.12022782227E+04  0.78597765181E+02 0.  0.
        -13    1    3    3    0    0  0.74220692421E+01 -0.28580101170E+02 -0.38267210028E+03  0.38380964765E+03  0.00000000000E+00 0.  1.
         14    1    3    3    0    0 -0.76763385871E+02  0.68702421275E+01 -0.81483187884E+03  0.81846857509E+03  0.00000000000E+00 0. -1.
         21    1    1    2  502  501  0.69341316629E+02  0.21709859042E+02 -0.39773695701E+03  0.40431945680E+03  0.00000000000E+00 0.  1.
<mgrwt>
<rscale>  1 0.10703805E+03</rscale>
<asrwt>0</asrwt>
<pdfrwt beam="1">  1        2 0.24629547E+00 0.10703805E+03</pdfrwt>
<pdfrwt beam="2">  1       -1 0.87359497E-03 0.10703805E+03</pdfrwt>
<totfact> 0.29616127E+04</totfact>
</mgrwt>
</event>
<event>
 6    2  0.1063641E+001  0.8626597E+02  0.7546771E-02  0.1312155E+00
         -1   -1    0    0    0  501 -0.00000000000E+00  0.00000000000E+00  0.13742798269E+02  0.13742798269E+02  0.00000000000E+00 0.  1.
          2   -1    0    0  502    0  0.00000000000E+00 -0.00000000000E+00 -0.52116843163E+03  0.52116843163E+03  0.00000000000E+00 0. -1.
         24    2    1    2    0    0  0.30018000108E+02 -0.10426393113E+02 -0.12919785185E+03  0.15535089911E+03  0.80199918499E+02 0.  0.
        -13    1    3    3    0    0  0.47292680181E+02  0.19650204739E+02 -0.83965258462E+02  0.98350865647E+02  0.00000000000E+00 0.  1.
         14    1    3    3    0    0 -0.17274680073E+02 -0.30076597852E+02 -0.45232593388E+02  0.57000033461E+02  0.00000000000E+00 0. -1.
         21    1    1    2  502  501 -0.30018000108E+02  0.10426393113E+02 -0.37822778151E+03  0.37956033079E+03  0.00000000000E+00 0. -1.
<mgrwt>
<rscale>  1 0.86265966E+02</rscale>
<asrwt>0</asrwt>
<pdfrwt beam="1">  1        2 0.80179757E-01 0.86265966E+02</pdfrwt>
<pdfrwt beam="2">  1       -1 0.21142767E-02 0.86265966E+02</pdfrwt>
<totfact> 0.37823989E+04</totfact>
</mgrwt>
</event>
<event>
 6    2  0.1063641E+001  0.9106197E+02  0.7546771E-02  0.1300300E+00
         -1   -1    0    0    0  501 -0.00000000000E+00  0.00000000000E+00  0.79826360613E+01  0.79826360613E+01  0.00000000000E+00 0.  1.
          2   -1    0    0  502    0  0.00000000000E+00 -0.00000000000E+00 -0.91084312860E+03  0.91084312860E+03  0.00000000000E+00 0. -1.
         24    2    1    2    0    0 -0.22305874448E+02 -0.26069174795E+01 -0.25843363639E+03  0.27400771205E+03  0.88249270757E+02 0.  0.
        -11    1    3    3    0    0 -0.75015848178E+01 -0.37587053345E+02 -0.54873306169E+02  0.66933848566E+02  0.00000000000E+00 0.  1.
         12    1    3    3    0    0 -0.14804289631E+02  0.34980135866E+02 -0.20356033022E+03  0.20707386348E+03  0.00000000000E+00 0. -1.
         21    1    1    2  502  501  0.22305874448E+02  0.26069174795E+01 -0.64442685614E+03  0.64481805261E+03  0.00000000000E+00 0. -1.
<mgrwt>
<rscale>  1 0.91061967E+02</rscale>
<asrwt>0</asrwt>
<pdfrwt beam="1">  1        2 0.14012961E+00 0.91061967E+02</pdfrwt>
<pdfrwt beam="2">  1       -1 0.12280988E-02 0.91061967E+02</pdfrwt>
<totfact> 0.42863990E+04</totfact>
</mgrwt>
</event>
<event>
 6    2  0.1063641E+001  0.9066444E+02  0.7546771E-02  0.1301251E+00
          2   -1    0    0  502    0  0.00000000000E+00  0.00000000000E+00  0.10476961956E+03  0.10476961956E+03  0.00000000000E+00 0. -1.
         -1   -1    0    0    0  501 -0.00000000000E+00 -0.00000000000E+00 -0.24496375869E+03  0.24496375869E+03  0.00000000000E+00 0.  1.
         24    2    1    2    0    0  0.28972599678E+02  0.28666214351E+02 -0.23210867861E+03  0.24918763769E+03  0.80986892219E+02 0.  0.
        -13    1    3    3    0    0  0.48373680933E+02  0.13519565049E+02 -0.21058041926E+03  0.21648765466E+03  0.00000000000E+00 0.  1.
         14    1    3    3    0    0 -0.19401081255E+02  0.15146649302E+02 -0.21528259353E+02  0.32699983023E+02  0.00000000000E+00 0. -1.
         21    1    1    2  502  501 -0.28972599678E+02 -0.28666214351E+02  0.91914539484E+02  0.10054574057E+03  0.00000000000E+00 0. -1.
<mgrwt>
<rscale>  1 0.90664437E+02</rscale>
<asrwt>0</asrwt>
<pdfrwt beam="1">  1        2 0.16118403E-01 0.90664437E+02</pdfrwt>
<pdfrwt beam="2">  1       -1 0.37686732E-01 0.90664437E+02</pdfrwt>
<totfact> 0.26574340E+03</totfact>
</mgrwt>
</event>
<event>
 6    2  0.1063641E+001  0.8388456E+02  0.7546771E-02  0.1318376E+00
          2   -1    0    0  502    0  0.00000000000E+00  0.00000000000E+00  0.14538302994E+03  0.14538302994E+03  0.00000000000E+00 0. -1.
         -1   -1    0    0    0  501 -0.00000000000E+00 -0.00000000000E+00 -0.23470422554E+02  0.23470422554E+02  0.00000000000E+00 0.  1.
         24    2    1    2    0    0  0.23315578412E+02 -0.90638754481E+00  0.61273366650E+02  0.10387995596E+03  0.80574078053E+02 0.  0.
        -11    1    3    3    0    0  0.37581105535E+02 -0.27504305285E+02  0.15559431028E+02  0.49101142515E+02  0.00000000000E+00 0.  1.
         12    1    3    3    0    0 -0.14265527122E+02  0.26597917740E+02  0.45713935622E+02  0.54778813443E+02  0.00000000000E+00 0. -1.
         21    1    1    2  502  501 -0.23315578412E+02  0.90638754481E+00  0.60639240740E+02  0.64973496540E+02  0.00000000000E+00 0. -1.
<mgrwt>
<rscale>  1 0.83884562E+02</rscale>
<asrwt>0</asrwt>
<pdfrwt beam="1">  1        2 0.22366619E-01 0.83884562E+02</pdfrwt>
<pdfrwt beam="2">  1       -1 0.36108343E-02 0.83884562E+02</pdfrwt>
<totfact> 0.67675209E+04</totfact>
</mgrwt>
</event>
<event>
 6    2  0.1063641E+001  0.8283329E+02  0.7546771E-02  0.1321198E+00
         -1   -1    0    0    0  501 -0.00000000000E+00  0.00000000000E+00  0.13484009511E+02  0.13484009511E+02  0.00000000000E+00 0.  1.
          2   -1    0    0  502    0  0.00000000000E+00 -0.00000000000E+00 -0.66213229261E+03  0.66213229261E+03  0.00000000000E+00 0. -1.
         24    2    1    2    0    0 -0.72475713529E+01 -0.20286617302E+02 -0.11603446993E+03  0.14256700974E+03  0.79982997704E+02 0.  0.
        -13    1    3    3    0    0 -0.32258585201E+02 -0.31245482059E+02 -0.34648550764E+02  0.56722293133E+02  0.00000000000E+00 0.  1.
         14    1    3    3    0    0  0.25011013848E+02  0.10958864757E+02 -0.81385919170E+02  0.85844716608E+02  0.00000000000E+00 0. -1.
         21    1    1    2  502  501  0.72475713529E+01  0.20286617302E+02 -0.53261381317E+03  0.53304929238E+03  0.00000000000E+00 0. -1.
<mgrwt>
<rscale>  1 0.82833291E+02</rscale>
<asrwt>0</asrwt>
<pdfrwt beam="1">  1        2 0.10186650E+00 0.82833291E+02</pdfrwt>
<pdfrwt beam="2">  1       -1 0.20744631E-02 0.82833291E+02</pdfrwt>
<totfact> 0.29647691E+04</totfact>
</mgrwt>
</event>
<event>
 6    2  0.1063641E+001  0.8896097E+02  0.7546771E-02  0.1305388E+00
         -1   -1    0    0    0  501 -0.00000000000E+00  0.00000000000E+00  0.15223364193E+01  0.15223364193E+01  0.00000000000E+00 0.  1.
          2   -1    0    0  502    0  0.00000000000E+00 -0.00000000000E+00 -0.25468996400E+04  0.25468996400E+04  0.00000000000E+00 0. -1.
         24    2    1    2    0    0 -0.26699295881E+02 -0.20281164183E+02 -0.20358171304E+04  0.20377599080E+04  0.82400705321E+02 0.  0.
        -13    1    3    3    0    0  0.25503401324E+02  0.11107946905E+02 -0.57216735940E+03  0.57284316975E+03  0.00000000000E+00 0.  1.
         14    1    3    3    0    0 -0.52202697205E+02 -0.31389111089E+02 -0.14636497710E+04  0.14649167383E+04  0.00000000000E+00 0. -1.
         21    1    1    2  502  501  0.26699295881E+02  0.20281164183E+02 -0.50956017317E+03  0.51066206840E+03  0.00000000000E+00 0.  1.
<mgrwt>
<rscale>  1 0.88960970E+02</rscale>
<asrwt>0</asrwt>
<pdfrwt beam="1">  1        2 0.39182842E+00 0.88960970E+02</pdfrwt>
<pdfrwt beam="2">  1       -1 0.23420697E-03 0.88960970E+02</pdfrwt>
<totfact> 0.60702232E+04</totfact>
</mgrwt>
</event>
<event>
 6    2  0.1063641E+001  0.7756271E+02  0.7546771E-02  0.1336114E+00
          2   -1    0    0  502    0  0.00000000000E+00  0.00000000000E+00  0.23856012317E+04  0.23856012317E+04  0.00000000000E+00 0. -1.
         -1   -1    0    0    0  501 -0.00000000000E+00 -0.00000000000E+00 -0.20420324216E+01  0.20420324216E+01  0.00000000000E+00 0.  1.
         24    2    1    2    0    0  0.33485612802E+02 -0.17040453274E+02  0.82665414979E+03  0.83028492500E+03  0.67855066155E+02 0.  0.
        -11    1    3    3    0    0  0.10530602767E+02 -0.37615936885E+02  0.27384619022E+03  0.27661812703E+03  0.00000000000E+00 0.  1.
         12    1    3    3    0    0  0.22955010035E+02  0.20575483612E+02  0.55280795957E+03  0.55366679797E+03  0.00000000000E+00 0. -1.
         21    1    1    2  502  501 -0.33485612802E+02  0.17040453274E+02  0.15569050495E+04  0.15573583391E+04  0.00000000000E+00 0. -1.
<mgrwt>
<rscale>  1 0.77562706E+02</rscale>
<asrwt>0</asrwt>
<pdfrwt beam="1">  1        2 0.36701335E+00 0.77562706E+02</pdfrwt>
<pdfrwt beam="2">  1       -1 0.31416074E-03 0.77562706E+02</pdfrwt>
<totfact> 0.48488037E+04</totfact>
</mgrwt>
</event>
<event>
 6    2  0.1063641E+001  0.8288539E+02  0.7546771E-02  0.1321057E+00
          2   -1    0    0  502    0  0.00000000000E+00  0.00000000000E+00  0.20312527014E+04  0.20312527014E+04  0.00000000000E+00 0. -1.
         -1   -1    0    0    0  501 -0.00000000000E+00 -0.00000000000E+00 -0.14212160501E+01  0.14212160501E+01  0.00000000000E+00 0.  1.
         24    2    1    2    0    0 -0.21307867338E+02 -0.40788380115E+01  0.13852766652E+04  0.13877540943E+04  0.79995780721E+02 0.  0.
        -11    1    3    3    0    0 -0.41999920676E+02  0.58028131938E+01  0.40578059021E+03  0.40798964861E+03  0.00000000000E+00 0.  1.
         12    1    3    3    0    0  0.20692053337E+02 -0.98816512053E+01  0.97949607501E+03  0.97976444571E+03  0.00000000000E+00 0. -1.
         21    1    1    2  502  501  0.21307867338E+02  0.40788380115E+01  0.64455482017E+03  0.64491982318E+03  0.00000000000E+00 0.  1.
<mgrwt>
<rscale>  1 0.82885385E+02</rscale>
<asrwt>0</asrwt>
<pdfrwt beam="1">  1        2 0.31249809E+00 0.82885385E+02</pdfrwt>
<pdfrwt beam="2">  1       -1 0.21865025E-03 0.82885385E+02</pdfrwt>
<totfact> 0.12185587E+05</totfact>
</mgrwt>
</event>
<event>
 6    2  0.1063641E+001  0.8739686E+02  0.7546771E-02  0.1309281E+00
         -1   -1    0    0    0  501 -0.00000000000E+00  0.00000000000E+00  0.46299876390E+01  0.46299876390E+01  0.00000000000E+00 0.  1.
          2   -1    0    0  502    0  0.00000000000E+00 -0.00000000000E+00 -0.80108702836E+03  0.80108702836E+03  0.00000000000E+00 0. -1.
         24    2    1    2    0    0 -0.32148510263E+02  0.92931414539E+01 -0.52835814997E+03  0.53553762298E+03  0.80736124486E+02 0.  0.
        -11    1    3    3    0    0 -0.40989587747E+01  0.15552546913E+02 -0.17111238941E+02  0.23483561838E+02  0.00000000000E+00 0.  1.
         12    1    3    3    0    0 -0.28049551489E+02 -0.62594054586E+01 -0.51124691102E+03  0.51205406114E+03  0.00000000000E+00 0. -1.
         21    1    1    2  502  501  0.32148510263E+02 -0.92931414539E+01 -0.26809889075E+03  0.27017939302E+03  0.00000000000E+00 0. -1.
<mgrwt>
<rscale>  1 0.87396859E+02</rscale>
<asrwt>0</asrwt>
<pdfrwt beam="1">  1        2 0.12324417E+00 0.87396859E+02</pdfrwt>
<pdfrwt beam="2">  1       -1 0.71230572E-03 0.87396859E+02</pdfrwt>
<totfact> 0.10789879E+05</totfact>
</mgrwt>
</event>
<event>
 6    2  0.1063641E+001  0.8477598E+02  0.7546771E-02  0.1316019E+00
         -1   -1    0    0    0  501 -0.00000000000E+00  0.00000000000E+00  0.42187130283E+01  0.42187130283E+01  0.00000000000E+00 0.  1.
          2   -1    0    0  502    0  0.00000000000E+00 -0.00000000000E+00 -0.15908765564E+04  0.15908765564E+04  0.00000000000E+00 0. -1.
         24    2    1    2    0    0 -0.94323269702E+00 -0.29302564590E+02 -0.44169248331E+03  0.44975461892E+03  0.79545191196E+02 0.  0.
        -13    1    3    3    0    0  0.19864077647E+01 -0.99930736213E+01 -0.29908983248E+01  0.10618512560E+02  0.00000000000E+00 0.  1.
         14    1    3    3    0    0 -0.29296404617E+01 -0.19309490969E+02 -0.43870158499E+03  0.43913610636E+03  0.00000000000E+00 0. -1.
         21    1    1    2  502  501  0.94323269702E+00  0.29302564590E+02 -0.11449653601E+04  0.11453406505E+04  0.00000000000E+00 0. -1.
<mgrwt>
<rscale>  1 0.84775984E+02</rscale>
<asrwt>0</asrwt>
<pdfrwt beam="1">  1        2 0.24475071E+00 0.84775984E+02</pdfrwt>
<pdfrwt beam="2">  1       -1 0.64903154E-03 0.84775984E+02</pdfrwt>
<totfact> 0.44639891E+04</totfact>
</mgrwt>
</event>
<event>
 6    2  0.1063641E+001  0.8687111E+02  0.7546771E-02  0.1310611E+00
         -1   -1    0    0    0  501 -0.00000000000E+00  0.00000000000E+00  0.19063966494E+02  0.19063966494E+02  0.00000000000E+00 0.  1.
          2   -1    0    0  502    0  0.00000000000E+00 -0.00000000000E+00 -0.27999274133E+03  0.27999274133E+03  0.00000000000E+00 0. -1.
         24    2    1    2    0    0 -0.53870851373E+01  0.43848337289E+02 -0.10139872906E+03  0.13352262410E+03  0.74799007496E+02 0.  0.
        -11    1    3    3    0    0 -0.21599792202E+02  0.41175069011E+02 -0.20229143019E+02  0.50706563269E+02  0.00000000000E+00 0.  1.
         12    1    3    3    0    0  0.16212707065E+02  0.26732682778E+01 -0.81169586041E+02  0.82816060832E+02  0.00000000000E+00 0. -1.
         21    1    1    2  502  501  0.53870851373E+01 -0.43848337289E+02 -0.15953004578E+03  0.16553408373E+03  0.00000000000E+00 0. -1.
<mgrwt>
<rscale>  1 0.86871105E+02</rscale>
<asrwt>0</asrwt>
<pdfrwt beam="1">  1        2 0.43075801E-01 0.86871105E+02</pdfrwt>
<pdfrwt beam="2">  1       -1 0.29329183E-02 0.86871105E+02</pdfrwt>
<totfact> 0.45606304E+04</totfact>
</mgrwt>
</event>
<event>
 6    2  0.1063641E+001  0.8362712E+02  0.7546771E-02  0.1319062E+00
         -1   -1    0    0    0  501 -0.00000000000E+00  0.00000000000E+00  0.49232215011E+01  0.49232215011E+01  0.00000000000E+00 0.  1.
          2   -1    0    0  502    0  0.00000000000E+00 -0.00000000000E+00 -0.63872037938E+03  0.63872037938E+03  0.00000000000E+00 0. -1.
         24    2    1    2    0    0  0.27842451534E+02 -0.61840283156E+01 -0.47517255298E+03  0.48247533604E+03  0.78613296997E+02 0.  0.
        -13    1    3    3    0    0  0.31653676498E+02 -0.16078653579E+02 -0.84455868507E+02  0.91614802636E+02  0.00000000000E+00 0.  1.
         14    1    3    3    0    0 -0.38112249645E+01  0.98946252630E+01 -0.39071668448E+03  0.39086053340E+03  0.00000000000E+00 0. -1.
         21    1    1    2  502  501 -0.27842451534E+02  0.61840283156E+01 -0.15862460490E+03  0.16116826484E+03  0.00000000000E+00 0.  1.
<mgrwt>
<rscale>  1 0.83627117E+02</rscale>
<asrwt>0</asrwt>
<pdfrwt beam="1">  1        2 0.98264689E-01 0.83627117E+02</pdfrwt>
<pdfrwt beam="2">  1       -1 0.75741857E-03 0.83627117E+02</pdfrwt>
<totfact> 0.12829468E+05</totfact>
</mgrwt>
</event>
<event>
 6    2  0.1063641E+001  0.8440133E+02  0.7546771E-02  0.1317006E+00
          2   -1    0    0  502    0  0.00000000000E+00  0.00000000000E+00  0.95736363517E+03  0.95736363517E+03  0.00000000000E+00 0. -1.
         -1   -1    0    0    0  501 -0.00000000000E+00 -0.00000000000E+00 -0.17988940669E+02  0.17988940669E+02  0.00000000000E+00 0.  1.
         24    2    1    2    0    0  0.25685469026E+02  0.93617245870E+01  0.82442907726E+02  0.11798481788E+03  0.79851105246E+02 0.  0.
        -13    1    3    3    0    0  0.27638666830E+02  0.25032361713E+02  0.34725314038E+01  0.37450948071E+02  0.00000000000E+00 0.  1.
         14    1    3    3    0    0 -0.19531978040E+01 -0.15670637126E+02  0.78970376322E+02  0.80533869807E+02  0.00000000000E+00 0. -1.
         21    1    1    2  502  501 -0.25685469026E+02 -0.93617245870E+01  0.85693178678E+03  0.85736775796E+03  0.00000000000E+00 0. -1.
<mgrwt>
<rscale>  1 0.84401328E+02</rscale>
<asrwt>0</asrwt>
<pdfrwt beam="1">  1        2 0.14728667E+00 0.84401328E+02</pdfrwt>
<pdfrwt beam="2">  1       -1 0.27675301E-02 0.84401328E+02</pdfrwt>
<totfact> 0.12547722E+04</totfact>
</mgrwt>
</event>
<event>
 6    2  0.1063641E+001  0.9190148E+02  0.7546771E-02  0.1298311E+00
         -1   -1    0    0    0  501 -0.00000000000E+00  0.00000000000E+00  0.50604684522E+01  0.50604684522E+01  0.00000000000E+00 0.  1.
          2   -1    0    0  502    0  0.00000000000E+00 -0.00000000000E+00 -0.23190386922E+04  0.23190386922E+04  0.00000000000E+00 0. -1.
         24    2    1    2    0    0 -0.38783091902E+02 -0.19112007255E+02 -0.43398901028E+03  0.44361282999E+03  0.81095529175E+02 0.  0.
        -13    1    3    3    0    0 -0.20874618548E+02 -0.44974840295E+02 -0.15218937900E+03  0.16006277843E+03  0.00000000000E+00 0.  1.
         14    1    3    3    0    0 -0.17908473353E+02  0.25862833040E+02 -0.28179963128E+03  0.28355005156E+03  0.00000000000E+00 0. -1.
         21    1    1    2  502  501  0.38783091902E+02  0.19112007255E+02 -0.18799892134E+04  0.18804863306E+04  0.00000000000E+00 0. -1.
<mgrwt>
<rscale>  1 0.91901479E+02</rscale>
<asrwt>0</asrwt>
<pdfrwt beam="1">  1        2 0.35677525E+00 0.91901479E+02</pdfrwt>
<pdfrwt beam="2">  1       -1 0.77853346E-03 0.91901479E+02</pdfrwt>
<totfact> 0.14937175E+04</totfact>
</mgrwt>
</event>
<event>
 6    2  0.1063641E+001  0.7792645E+02  0.7546771E-02  0.1335041E+00
         -1   -1    0    0    0  501 -0.00000000000E+00  0.00000000000E+00  0.27672740328E+03  0.27672740328E+03  0.00000000000E+00 0.  1.
          2   -1    0    0  502    0  0.00000000000E+00 -0.00000000000E+00 -0.12440651019E+02  0.12440651019E+02  0.00000000000E+00 0. -1.
         24    2    1    2    0    0  0.24618039752E+02 -0.17773243725E+01  0.24708753135E+03  0.25908450459E+03  0.73914312592E+02 0.  0.
        -11    1    3    3    0    0  0.11117288450E+02  0.24398847209E+02  0.21009557762E+03  0.21179955048E+03  0.00000000000E+00 0.  1.
         12    1    3    3    0    0  0.13500751301E+02 -0.26176171582E+02  0.36991953731E+02  0.47284954110E+02  0.00000000000E+00 0. -1.
         21    1    1    2  502  501 -0.24618039752E+02  0.17773243725E+01  0.17199220907E+02  0.30083549706E+02  0.00000000000E+00 0.  1.
<mgrwt>
<rscale>  1 0.77926455E+02</rscale>
<asrwt>0</asrwt>
<pdfrwt beam="1">  1        2 0.19139465E-02 0.77926455E+02</pdfrwt>
<pdfrwt beam="2">  1       -1 0.42573442E-01 0.77926455E+02</pdfrwt>
<totfact> 0.31433315E+04</totfact>
</mgrwt>
</event>
<event>
 6    2  0.1063641E+001  0.8580708E+02  0.7546771E-02  0.1313335E+00
          2   -1    0    0  502    0  0.00000000000E+00  0.00000000000E+00  0.13498570620E+01  0.13498570620E+01  0.00000000000E+00 0. -1.
         -1   -1    0    0    0  501 -0.00000000000E+00 -0.00000000000E+00 -0.23777393793E+04  0.23777393793E+04  0.00000000000E+00 0.  1.
         24    2    1    2    0    0  0.25035115584E+02 -0.10677567228E+02 -0.18729442868E+04  0.18749088396E+04  0.81376210743E+02 0.  0.
        -13    1    3    3    0    0  0.17122309243E+02  0.16165344695E+02 -0.16559534505E+04  0.16561208658E+04  0.00000000000E+00 0.  1.
         14    1    3    3    0    0  0.79128063403E+01 -0.26842911923E+02 -0.21699083630E+03  0.21878797376E+03  0.00000000000E+00 0. -1.
         21    1    1    2  502  501 -0.25035115584E+02  0.10677567228E+02 -0.50344523539E+03  0.50418039677E+03  0.00000000000E+00 0. -1.
<mgrwt>
<rscale>  1 0.85807081E+02</rscale>
<asrwt>0</asrwt>
<pdfrwt beam="1">  1        2 0.20767039E-03 0.85807081E+02</pdfrwt>
<pdfrwt beam="2">  1       -1 0.36580593E+00 0.85807081E+02</pdfrwt>
<totfact> 0.21189721E+03</totfact>
</mgrwt>
</event>
<event>
 6    2  0.1063641E+001  0.8507502E+02  0.7546771E-02  0.1315236E+00
         -1   -1    0    0    0  501 -0.00000000000E+00  0.00000000000E+00  0.53998060003E+01  0.53998060003E+01  0.00000000000E+00 0.  1.
          2   -1    0    0  502    0  0.00000000000E+00 -0.00000000000E+00 -0.61272634873E+03  0.61272634873E+03  0.00000000000E+00 0. -1.
         24    2    1    2    0    0  0.23551053912E+02 -0.12896001844E+02 -0.51480249908E+03  0.52178479468E+03  0.80726698751E+02 0.  0.
        -13    1    3    3    0    0  0.26101218062E+02  0.18404987795E+02 -0.84441615585E+02  0.90279585747E+02  0.00000000000E+00 0.  1.
         14    1    3    3    0    0 -0.25501641494E+01 -0.31300989639E+02 -0.43036088350E+03  0.43150520893E+03  0.00000000000E+00 0. -1.
         21    1    1    2  502  501 -0.23551053912E+02  0.12896001844E+02 -0.92524043642E+02  0.96341360048E+02  0.00000000000E+00 0.  1.
<mgrwt>
<rscale>  1 0.85075019E+02</rscale>
<asrwt>0</asrwt>
<pdfrwt beam="1">  1        2 0.94265538E-01 0.85075019E+02</pdfrwt>
<pdfrwt beam="2">  1       -1 0.83073986E-03 0.85075019E+02</pdfrwt>
<totfact> 0.11839696E+05</totfact>
</mgrwt>
</event>
<event>
 6    2  0.1063641E+001  0.8440616E+02  0.7546771E-02  0.1316993E+00
         -1   -1    0    0    0  501 -0.00000000000E+00  0.00000000000E+00  0.94619663673E+01  0.94619663673E+01  0.00000000000E+00 0.  1.
          2   -1    0    0  502    0  0.00000000000E+00 -0.00000000000E+00 -0.88790393240E+03  0.88790393240E+03  0.00000000000E+00 0. -1.
         24    2    1    2    0    0 -0.21747738574E+02  0.38737943823E+02 -0.19502854216E+03  0.21251007426E+03  0.71769122765E+02 0.  0.
        -13    1    3    3    0    0  0.21288581487E+02  0.28046338177E+02 -0.52274849197E+02  0.63027459455E+02  0.00000000000E+00 0.  1.
         14    1    3    3    0    0 -0.43036320062E+02  0.10691605646E+02 -0.14275369296E+03  0.14948261481E+03  0.00000000000E+00 0. -1.
         21    1    1    2  502  501  0.21747738574E+02 -0.38737943823E+02 -0.68341342387E+03  0.68485582450E+03  0.00000000000E+00 0. -1.
<mgrwt>
<rscale>  1 0.84406157E+02</rscale>
<asrwt>0</asrwt>
<pdfrwt beam="1">  1        2 0.13660063E+00 0.84406157E+02</pdfrwt>
<pdfrwt beam="2">  1       -1 0.14556868E-02 0.84406157E+02</pdfrwt>
<totfact> 0.34534407E+04</totfact>
</mgrwt>
</event>
<event>
 6    2  0.1063641E+001  0.8188833E+02  0.7546771E-02  0.1323776E+00
         -1   -1    0    0    0  501 -0.00000000000E+00  0.00000000000E+00  0.37643251294E+01  0.37643251294E+01  0.00000000000E+00 0.  1.
          2   -1    0    0  502    0  0.00000000000E+00 -0.00000000000E+00 -0.82093491559E+03  0.82093491559E+03  0.00000000000E+00 0. -1.
         24    2    1    2    0    0 -0.22932580493E+02 -0.15305161497E+01 -0.49664974401E+03  0.50335540814E+03  0.78596774426E+02 0.  0.
        -13    1    3    3    0    0 -0.17301331254E+02  0.81137152278E+01 -0.24488545149E+02  0.31062151913E+02  0.00000000000E+00 0.  1.
         14    1    3    3    0    0 -0.56312492387E+01 -0.96442313774E+01 -0.47216119886E+03  0.47229325622E+03  0.00000000000E+00 0. -1.
         21    1    1    2  502  501  0.22932580493E+02  0.15305161497E+01 -0.32052084645E+03  0.32134383258E+03  0.00000000000E+00 0. -1.
<mgrwt>
<rscale>  1 0.81888331E+02</rscale>
<asrwt>0</asrwt>
<pdfrwt beam="1">  1        2 0.12629773E+00 0.81888331E+02</pdfrwt>
<pdfrwt beam="2">  1       -1 0.57912671E-03 0.81888331E+02</pdfrwt>
<totfact> 0.13860882E+05</totfact>
</mgrwt>
</event>
<event>
 6    2  0.1063641E+001  0.8249296E+02  0.7546771E-02  0.1322122E+00
          2   -1    0    0  502    0  0.00000000000E+00  0.00000000000E+00  0.42492263279E+03  0.42492263279E+03  0.00000000000E+00 0. -1.
         -1   -1    0    0    0  501 -0.00000000000E+00 -0.00000000000E+00 -0.96592073049E+01  0.96592073049E+01  0.00000000000E+00 0.  1.
         24    2    1    2    0    0 -0.19734969909E+02 -0.86674008239E+01  0.17626651510E+03  0.19461493394E+03  0.79627227089E+02 0.  0.
        -13    1    3    3    0    0 -0.22409211594E+02 -0.36776511175E+02  0.53688688437E+02  0.68827028154E+02  0.00000000000E+00 0.  1.
         14    1    3    3    0    0  0.26742416849E+01  0.28109110351E+02  0.12257782666E+03  0.12578790579E+03  0.00000000000E+00 0. -1.
         21    1    1    2  502  501  0.19734969909E+02  0.86674008239E+01  0.23899691039E+03  0.23996690616E+03  0.00000000000E+00 0. -1.
<mgrwt>
<rscale>  1 0.82492958E+02</rscale>
<asrwt>0</asrwt>
<pdfrwt beam="1">  1        2 0.65372698E-01 0.82492958E+02</pdfrwt>
<pdfrwt beam="2">  1       -1 0.14860322E-02 0.82492958E+02</pdfrwt>
<totfact> 0.77182570E+04</totfact>
</mgrwt>
</event>
<event>
 6    2  0.1063641E+001  0.8457249E+02  0.7546771E-02  0.1316554E+00
         -1   -1    0    0    0  501 -0.00000000000E+00  0.00000000000E+00  0.10487431144E+02  0.10487431144E+02  0.00000000000E+00 0.  1.
          2   -1    0    0  502    0  0.00000000000E+00 -0.00000000000E+00 -0.37199112418E+03  0.37199112418E+03  0.00000000000E+00 0. -1.
         24    2    1    2    0    0 -0.21239836010E+02 -0.14909587482E+02 -0.17709332663E+03  0.19625124887E+03  0.80492732046E+02 0.  0.
        -13    1    3    3    0    0 -0.20907466815E+02  0.12869200926E+02 -0.94260828113E+01  0.26298090012E+02  0.00000000000E+00 0.  1.
         14    1    3    3    0    0 -0.33236919463E+00 -0.27778788409E+02 -0.16766724382E+03  0.16995315886E+03  0.00000000000E+00 0. -1.
         21    1    1    2  502  501  0.21239836010E+02  0.14909587482E+02 -0.18441036640E+03  0.18622730645E+03  0.00000000000E+00 0.  1.
<mgrwt>
<rscale>  1 0.84572492E+02</rscale>
<asrwt>0</asrwt>
<pdfrwt beam="1">  1        2 0.57229401E-01 0.84572492E+02</pdfrwt>
<pdfrwt beam="2">  1       -1 0.16134510E-02 0.84572492E+02</pdfrwt>
<totfact> 0.79263673E+04</totfact>
</mgrwt>
</event>
<event>
 6    2  0.1063641E+001  0.8340885E+02  0.7546771E-02  0.1319647E+00
          2   -1    0    0  502    0  0.00000000000E+00  0.00000000000E+00  0.12857807122E+03  0.12857807122E+03  0.00000000000E+00 0. -1.
         -1   -1    0    0    0  501 -0.00000000000E+00 -0.00000000000E+00 -0.21247021139E+02  0.21247021139E+02  0.00000000000E+00 0.  1.
         24    2    1    2    0    0 -0.14253088322E+02 -0.15569402056E+02  0.86763162166E+02  0.12035315960E+03  0.80693741459E+02 0.  0.
        -11    1    3    3    0    0  0.22458384818E+02 -0.81262239701E+01 -0.20426661825E+01  0.23970545463E+02  0.00000000000E+00 0.  1.
         12    1    3    3    0    0 -0.36711473140E+02 -0.74431780860E+01  0.88805828348E+02  0.96382614141E+02  0.00000000000E+00 0. -1.
         21    1    1    2  502  501  0.14253088322E+02  0.15569402056E+02  0.20567887920E+02  0.29471932760E+02  0.00000000000E+00 0.  1.
<mgrwt>
<rscale>  1 0.83408853E+02</rscale>
<asrwt>0</asrwt>
<pdfrwt beam="1">  1        2 0.19781241E-01 0.83408853E+02</pdfrwt>
<pdfrwt beam="2">  1       -1 0.32687726E-02 0.83408853E+02</pdfrwt>
<totfact> 0.89425001E+04</totfact>
</mgrwt>
</event>
<event>
 6    2  0.1063641E+001  0.1052275E+03  0.7546771E-02  0.1269672E+00
          2   -1    0    0  502    0  0.00000000000E+00  0.00000000000E+00  0.56096938480E+02  0.56096938480E+02  0.00000000000E+00 0. -1.
         -1   -1    0    0    0  501 -0.00000000000E+00 -0.00000000000E+00 -0.29738770335E+03  0.29738770335E+03  0.00000000000E+00 0.  1.
         24    2    1    2    0    0 -0.39245638546E+02 -0.50619068990E+02 -0.26504601185E+03  0.28517049945E+03  0.83488412773E+02 0.  0.
        -13    1    3    3    0    0 -0.39108390497E+02 -0.65716138873E+02 -0.25684803118E+03  0.26799064953E+03  0.00000000000E+00 0.  1.
         14    1    3    3    0    0 -0.13724804938E+00  0.15097069883E+02 -0.81979806715E+01  0.17179849917E+02  0.00000000000E+00 0. -1.
         21    1    1    2  502  501  0.39245638546E+02  0.50619068990E+02  0.23755246980E+02  0.68314142382E+02  0.00000000000E+00 0. -1.
<mgrwt>
<rscale>  1 0.10522749E+03</rscale>
<asrwt>0</asrwt>
<pdfrwt beam="1">  1        2 0.86302983E-02 0.10522749E+03</pdfrwt>
<pdfrwt beam="2">  1       -1 0.45751954E-01 0.10522749E+03</pdfrwt>
<totfact> 0.40208821E+03</totfact>
</mgrwt>
</event>
<event>
 6    2  0.1063641E+001  0.8236317E+02  0.7546771E-02  0.1322476E+00
         -1   -1    0    0    0  501 -0.00000000000E+00  0.00000000000E+00  0.54532217136E+02  0.54532217136E+02  0.00000000000E+00 0.  1.
          2   -1    0    0  502    0  0.00000000000E+00 -0.00000000000E+00 -0.48896806823E+02  0.48896806823E+02  0.00000000000E+00 0. -1.
         24    2    1    2    0    0  0.14193304158E+02 -0.14157409192E+02  0.98305995999E+01  0.82947770798E+02  0.79886230816E+02 0.  0.
        -11    1    3    3    0    0  0.46035983136E+02  0.29324783053E+01  0.35343419347E+01  0.46264486869E+02  0.00000000000E+00 0.  1.
         12    1    3    3    0    0 -0.31842678979E+02 -0.17089887497E+02  0.62962576652E+01  0.36683283929E+02  0.00000000000E+00 0. -1.
         21    1    1    2  502  501 -0.14193304158E+02  0.14157409192E+02 -0.41951892869E+01  0.20481253162E+02  0.00000000000E+00 0. -1.
<mgrwt>
<rscale>  1 0.82363171E+02</rscale>
<asrwt>0</asrwt>
<pdfrwt beam="1">  1        2 0.75225856E-02 0.82363171E+02</pdfrwt>
<pdfrwt beam="2">  1       -1 0.83895719E-02 0.82363171E+02</pdfrwt>
<totfact> 0.70379669E+04</totfact>
</mgrwt>
</event>
<event>
 6    2  0.1063641E+001  0.8478907E+02  0.7546771E-02  0.1315985E+00
         -1   -1    0    0    0  501 -0.00000000000E+00  0.00000000000E+00  0.20415141826E+01  0.20415141826E+01  0.00000000000E+00 0.  1.
          2   -1    0    0  502    0  0.00000000000E+00 -0.00000000000E+00 -0.15681653115E+04  0.15681653115E+04  0.00000000000E+00 0. -1.
         24    2    1    2    0    0 -0.47416135546E+01 -0.26355082641E+02 -0.12916103510E+04  0.12943903912E+04  0.80449443351E+02 0.  0.
        -13    1    3    3    0    0  0.18034272966E+02  0.11906461879E+02 -0.89955947644E+03  0.89981900985E+03  0.00000000000E+00 0.  1.
         14    1    3    3    0    0 -0.22775886521E+02 -0.38261544521E+02 -0.39205087453E+03  0.39457138139E+03  0.00000000000E+00 0. -1.
         21    1    1    2  502  501  0.47416135546E+01  0.26355082641E+02 -0.27451344636E+03  0.27581643445E+03  0.00000000000E+00 0.  1.
<mgrwt>
<rscale>  1 0.84789069E+02</rscale>
<asrwt>0</asrwt>
<pdfrwt beam="1">  1        2 0.24125722E+00 0.84789069E+02</pdfrwt>
<pdfrwt beam="2">  1       -1 0.31407778E-03 0.84789069E+02</pdfrwt>
<totfact> 0.12613473E+05</totfact>
</mgrwt>
</event>
<event>
 6    2  0.1063641E+001  0.8495512E+02  0.7546771E-02  0.1315550E+00
          2   -1    0    0  502    0  0.00000000000E+00  0.00000000000E+00  0.17734708932E+03  0.17734708932E+03  0.00000000000E+00 0. -1.
         -1   -1    0    0    0  501 -0.00000000000E+00 -0.00000000000E+00 -0.18167389523E+02  0.18167389523E+02  0.00000000000E+00 0.  1.
         24    2    1    2    0    0 -0.67465621021E+01  0.26773578720E+02  0.10851326830E+03  0.13781328390E+03  0.80343208819E+02 0.  0.
        -13    1    3    3    0    0 -0.29423560878E+01 -0.17430176522E+02 -0.28797246266E+01  0.17909810911E+02  0.00000000000E+00 0.  1.
         14    1    3    3    0    0 -0.38042060144E+01  0.44203755242E+02  0.11139299293E+03  0.11990347298E+03  0.00000000000E+00 0. -1.
         21    1    1    2  502  501  0.67465621021E+01 -0.26773578720E+02  0.50666431496E+02  0.57701194946E+02  0.00000000000E+00 0.  1.
<mgrwt>
<rscale>  1 0.84955117E+02</rscale>
<asrwt>0</asrwt>
<pdfrwt beam="1">  1        2 0.27284166E-01 0.84955117E+02</pdfrwt>
<pdfrwt beam="2">  1       -1 0.27949831E-02 0.84955117E+02</pdfrwt>
<totfact> 0.78967285E+04</totfact>
</mgrwt>
</event>
<event>
 6    2  0.1063641E+001  0.8336530E+02  0.7546771E-02  0.1319764E+00
          2   -1    0    0  502    0  0.00000000000E+00  0.00000000000E+00  0.10748239845E+02  0.10748239845E+02  0.00000000000E+00 0. -1.
         -1   -1    0    0    0  501 -0.00000000000E+00 -0.00000000000E+00 -0.42735306158E+03  0.42735306158E+03  0.00000000000E+00 0.  1.
         24    2    1    2    0    0  0.28827650751E+01 -0.20803979881E+02 -0.40619278603E+03  0.41465932196E+03  0.80676253997E+02 0.  0.
        -13    1    3    3    0    0  0.19915485285E+02 -0.20252509960E+02 -0.39037845430E+03  0.39141043458E+03  0.00000000000E+00 0.  1.
         14    1    3    3    0    0 -0.17032720210E+02 -0.55146992031E+00 -0.15814331725E+02  0.23248887387E+02  0.00000000000E+00 0. -1.
         21    1    1    2  502  501 -0.28827650751E+01  0.20803979881E+02 -0.10412035704E+02  0.23441979457E+02  0.00000000000E+00 0. -1.
<mgrwt>
<rscale>  1 0.83365304E+02</rscale>
<asrwt>0</asrwt>
<pdfrwt beam="1">  1        2 0.16535753E-02 0.83365304E+02</pdfrwt>
<pdfrwt beam="2">  1       -1 0.65746628E-01 0.83365304E+02</pdfrwt>
<totfact> 0.17473897E+04</totfact>
</mgrwt>
</event>
<event>
 6    2  0.1063641E+001  0.1010409E+03  0.7546771E-02  0.1278122E+00
         -1   -1    0    0    0  501 -0.00000000000E+00  0.00000000000E+00  0.17256409911E+02  0.17256409911E+02  0.00000000000E+00 0.  1.
          2   -1    0    0  502    0  0.00000000000E+00 -0.00000000000E+00 -0.50365651242E+03  0.50365651242E+03  0.00000000000E+00 0. -1.
         24    2    1    2    0    0  0.51771696717E+02  0.32899383287E+02 -0.41336947801E+03  0.42553918320E+03  0.80290678684E+02 0.  0.
        -13    1    3    3    0    0 -0.18047226456E+02  0.23849237289E+02 -0.10105989207E+03  0.10539255328E+03  0.00000000000E+00 0.  1.
         14    1    3    3    0    0  0.69818923174E+02  0.90501459983E+01 -0.31230958594E+03  0.32014662992E+03  0.00000000000E+00 0. -1.
         21    1    1    2  502  501 -0.51771696717E+02 -0.32899383287E+02 -0.73030624496E+02  0.95373739131E+02  0.00000000000E+00 0.  1.
<mgrwt>
<rscale>  1 0.10104094E+03</rscale>
<asrwt>0</asrwt>
<pdfrwt beam="1">  1        2 0.77485627E-01 0.10104094E+03</pdfrwt>
<pdfrwt beam="2">  1       -1 0.26548320E-02 0.10104094E+03</pdfrwt>
<totfact> 0.28827157E+04</totfact>
</mgrwt>
</event>
<event>
 6    2  0.1063641E+001  0.8305820E+02  0.7546771E-02  0.1320590E+00
         -3   -1    0    0    0  501 -0.00000000000E+00  0.00000000000E+00  0.83577626681E+01  0.83577626681E+01  0.00000000000E+00 0.  1.
          4   -1    0    0  502    0  0.00000000000E+00 -0.00000000000E+00 -0.45198841716E+03  0.45198841716E+03  0.00000000000E+00 0. -1.
         24    2    1    2    0    0  0.23827673363E+02 -0.37768333718E+01 -0.21564276782E+03  0.23108541354E+03  0.79477308405E+02 0.  0.
        -11    1    3    3    0    0 -0.89845198172E+01  0.10841944370E+02 -0.17405825676E+01  0.14187987234E+02  0.00000000000E+00 0.  1.
         12    1    3    3    0    0  0.32812193180E+02 -0.14618777742E+02 -0.21390218525E+03  0.21689742631E+03  0.00000000000E+00 0. -1.
         21    1    1    2  502  501 -0.23827673363E+02  0.37768333718E+01 -0.22798788668E+03  0.22926076629E+03  0.00000000000E+00 0.  1.
<mgrwt>
<rscale>  1 0.83058203E+02</rscale>
<asrwt>0</asrwt>
<pdfrwt beam="1">  1        4 0.69536669E-01 0.83058203E+02</pdfrwt>
<pdfrwt beam="2">  1       -3 0.12858098E-02 0.83058203E+02</pdfrwt>
<totfact> 0.61366751E+03</totfact>
</mgrwt>
</event>
<event>
 6    2  0.1063641E+001  0.9467423E+02  0.7546771E-02  0.1291912E+00
          2   -1    0    0  502    0  0.00000000000E+00  0.00000000000E+00  0.14766712275E+03  0.14766712275E+03  0.00000000000E+00 0. -1.
         -1   -1    0    0    0  501 -0.00000000000E+00 -0.00000000000E+00 -0.36203212066E+02  0.36203212066E+02  0.00000000000E+00 0.  1.
         24    2    1    2    0    0 -0.49586554886E+02  0.99305784184E+01  0.62256707548E+02  0.11330978172E+03  0.80036030542E+02 0.  0.
        -11    1    3    3    0    0  0.94982063004E+01 -0.17043073945E+02 -0.46550073659E+01  0.20058698512E+02  0.00000000000E+00 0.  1.
         12    1    3    3    0    0 -0.59084761186E+02  0.26973652363E+02  0.66911714914E+02  0.93251083205E+02  0.00000000000E+00 0. -1.
         21    1    1    2  502  501  0.49586554886E+02 -0.99305784184E+01  0.49207203140E+02  0.70560553102E+02  0.00000000000E+00 0.  1.
<mgrwt>
<rscale>  1 0.94674226E+02</rscale>
<asrwt>0</asrwt>
<pdfrwt beam="1">  1        2 0.22718019E-01 0.94674226E+02</pdfrwt>
<pdfrwt beam="2">  1       -1 0.55697250E-02 0.94674226E+02</pdfrwt>
<totfact> 0.35956730E+04</totfact>
</mgrwt>
</event>
<event>
 6    2  0.1063641E+001  0.8479094E+02  0.7546771E-02  0.1315980E+00
         -1   -1    0    0    0  501 -0.00000000000E+00  0.00000000000E+00  0.52293286049E+01  0.52293286049E+01  0.00000000000E+00 0.  1.
          2   -1    0    0  502    0  0.00000000000E+00 -0.00000000000E+00 -0.65167170379E+03  0.65167170379E+03  0.00000000000E+00 0. -1.
         24    2    1    2    0    0 -0.22926882603E+01 -0.30557044370E+02 -0.42781639186E+03  0.43613801474E+03  0.79060188309E+02 0.  0.
        -13    1    3    3    0    0 -0.16049034755E+02 -0.53460787831E+02 -0.23843802122E+03  0.24488429373E+03  0.00000000000E+00 0.  1.
         14    1    3    3    0    0  0.13756346495E+02  0.22903743461E+02 -0.18937837064E+03  0.19125372100E+03  0.00000000000E+00 0. -1.
         21    1    1    2  502  501  0.22926882603E+01  0.30557044370E+02 -0.21862598333E+03  0.22076301766E+03  0.00000000000E+00 0. -1.
<mgrwt>
<rscale>  1 0.84790936E+02</rscale>
<asrwt>0</asrwt>
<pdfrwt beam="1">  1        2 0.10025715E+00 0.84790936E+02</pdfrwt>
<pdfrwt beam="2">  1       -1 0.80451241E-03 0.84790936E+02</pdfrwt>
<totfact> 0.11546370E+05</totfact>
</mgrwt>
</event>
<event>
 6    2  0.1063641E+001  0.8415339E+02  0.7546771E-02  0.1317661E+00
         -3   -1    0    0    0  501 -0.00000000000E+00  0.00000000000E+00  0.76420921023E+03  0.76420921023E+03  0.00000000000E+00 0.  1.
          4   -1    0    0  502    0  0.00000000000E+00 -0.00000000000E+00 -0.43190290797E+01  0.43190290797E+01  0.00000000000E+00 0. -1.
         24    2    1    2    0    0 -0.24189916504E+02 -0.10580170460E+02  0.65419083010E+03  0.65958125734E+03  0.79904322673E+02 0.  0.
        -11    1    3    3    0    0 -0.31025171195E+02 -0.30905332110E+02  0.59528729998E+03  0.59689586221E+03  0.00000000000E+00 0.  1.
         12    1    3    3    0    0  0.68352546904E+01  0.20325161650E+02  0.58903530121E+02  0.62685395138E+02  0.00000000000E+00 0. -1.
         21    1    1    2  502  501  0.24189916504E+02  0.10580170460E+02  0.10569935104E+03  0.10894698196E+03  0.00000000000E+00 0. -1.
<mgrwt>
<rscale>  1 0.84153389E+02</rscale>
<asrwt>0</asrwt>
<pdfrwt beam="1">  1        4 0.66446662E-03 0.84153389E+02</pdfrwt>
<pdfrwt beam="2">  1       -3 0.11757054E+00 0.84153389E+02</pdfrwt>
<totfact> 0.58592695E+03</totfact>
</mgrwt>
</event>
<event>
 6    2  0.1063641E+001  0.9093162E+02  0.7546771E-02  0.1300611E+00
          2   -1    0    0  502    0  0.00000000000E+00  0.00000000000E+00  0.91428538321E+03  0.91428538321E+03  0.00000000000E+00 0. -1.
         -1   -1    0    0    0  501 -0.00000000000E+00 -0.00000000000E+00 -0.43062821111E+01  0.43062821111E+01  0.00000000000E+00 0.  1.
         24    2    1    2    0    0 -0.18630478970E+02  0.28922680144E+02  0.68027571366E+03  0.68632616557E+03  0.84172102138E+02 0.  0.
        -11    1    3    3    0    0 -0.28339086794E+02 -0.16239779294E+02  0.12726853896E+03  0.13139298033E+03  0.00000000000E+00 0.  1.
         12    1    3    3    0    0  0.97086078237E+01  0.45162459438E+02  0.55300717470E+03  0.55493318523E+03  0.00000000000E+00 0. -1.
         21    1    1    2  502  501  0.18630478970E+02 -0.28922680144E+02  0.22970338744E+03  0.23226549976E+03  0.00000000000E+00 0.  1.
<mgrwt>
<rscale>  1 0.90931617E+02</rscale>
<asrwt>0</asrwt>
<pdfrwt beam="1">  1        2 0.14065914E+00 0.90931617E+02</pdfrwt>
<pdfrwt beam="2">  1       -1 0.66250567E-03 0.90931617E+02</pdfrwt>
<totfact> 0.10174466E+05</totfact>
</mgrwt>
</event>
<event>
 6    2  0.1063641E+001  0.8109872E+02  0.7546771E-02  0.1325962E+00
          2   -1    0    0  502    0  0.00000000000E+00  0.00000000000E+00  0.21084990954E+02  0.21084990954E+02  0.00000000000E+00 0. -1.
         -1   -1    0    0    0  501 -0.00000000000E+00 -0.00000000000E+00 -0.13574488776E+03  0.13574488776E+03  0.00000000000E+00 0.  1.
         24    2    1    2    0    0  0.16068746539E+02  0.15607263363E+02 -0.10438166286E+03  0.13218371516E+03  0.77943644559E+02 0.  0.
        -13    1    3    3    0    0  0.41662270487E+01  0.19964719911E+02 -0.11428999999E+03  0.11609544171E+03  0.00000000000E+00 0.  1.
         14    1    3    3    0    0  0.11902519490E+02 -0.43574565483E+01  0.99083371311E+01  0.16088273446E+02  0.00000000000E+00 0. -1.
         21    1    1    2  502  501 -0.16068746539E+02 -0.15607263363E+02 -0.10278233951E+02  0.24646163558E+02  0.00000000000E+00 0. -1.
<mgrwt>
<rscale>  1 0.81098724E+02</rscale>
<asrwt>0</asrwt>
<pdfrwt beam="1">  1        2 0.32438447E-02 0.81098724E+02</pdfrwt>
<pdfrwt beam="2">  1       -1 0.20883830E-01 0.81098724E+02</pdfrwt>
<totfact> 0.51022465E+04</totfact>
</mgrwt>
</event>
<event>
 6    2  0.1063641E+001  0.8571707E+02  0.7546771E-02  0.1313568E+00
         -1   -1    0    0    0  501 -0.00000000000E+00  0.00000000000E+00  0.21924938895E+03  0.21924938895E+03  0.00000000000E+00 0.  1.
          2   -1    0    0  502    0  0.00000000000E+00 -0.00000000000E+00 -0.23092386559E+02  0.23092386559E+02  0.00000000000E+00 0. -1.
         24    2    1    2    0    0 -0.19467486986E+02 -0.22397721971E+02  0.19458082587E+03  0.21262435080E+03  0.80416265499E+02 0.  0.
        -11    1    3    3    0    0  0.12876439141E+02  0.11514041843E+02  0.13835682233E+03  0.13943093678E+03  0.00000000000E+00 0.  1.
         12    1    3    3    0    0 -0.32343926127E+02 -0.33911763814E+02  0.56224003540E+02  0.73193414023E+02  0.00000000000E+00 0. -1.
         21    1    1    2  502  501  0.19467486986E+02  0.22397721971E+02  0.15761765195E+01  0.29717424711E+02  0.00000000000E+00 0. -1.
<mgrwt>
<rscale>  1 0.85717074E+02</rscale>
<asrwt>0</asrwt>
<pdfrwt beam="1">  1        2 0.35526750E-02 0.85717074E+02</pdfrwt>
<pdfrwt beam="2">  1       -1 0.33730674E-01 0.85717074E+02</pdfrwt>
<totfact> 0.20830487E+04</totfact>
</mgrwt>
</event>
<event>
 6    2  0.1063641E+001  0.8259624E+02  0.7546771E-02  0.1321841E+00
         -1   -1    0    0    0  501 -0.00000000000E+00  0.00000000000E+00  0.44964037052E+03  0.44964037052E+03  0.00000000000E+00 0.  1.
          2   -1    0    0  502    0  0.00000000000E+00 -0.00000000000E+00 -0.24169840465E+02  0.24169840465E+02  0.00000000000E+00 0. -1.
         24    2    1    2    0    0  0.68011029222E+01  0.20552698935E+02  0.44003402909E+03  0.44771875762E+03  0.79708661641E+02 0.  0.
        -13    1    3    3    0    0 -0.79986660249E+01  0.33027839348E+02  0.41339845581E+03  0.41479283998E+03  0.00000000000E+00 0.  1.
         14    1    3    3    0    0  0.14799768947E+02 -0.12475140413E+02  0.26635573279E+02  0.32925917650E+02  0.00000000000E+00 0. -1.
         21    1    1    2  502  501 -0.68011029222E+01 -0.20552698935E+02 -0.14563499031E+02  0.26091453361E+02  0.00000000000E+00 0. -1.
<mgrwt>
<rscale>  1 0.82596242E+02</rscale>
<asrwt>0</asrwt>
<pdfrwt beam="1">  1        2 0.37184373E-02 0.82596242E+02</pdfrwt>
<pdfrwt beam="2">  1       -1 0.69175435E-01 0.82596242E+02</pdfrwt>
<totfact> 0.53719398E+03</totfact>
</mgrwt>
</event>
<event>
 6    2  0.1063641E+001  0.8448630E+02  0.7546771E-02  0.1316781E+00
         -1   -1    0    0    0  501 -0.00000000000E+00  0.00000000000E+00  0.15234698569E+02  0.15234698569E+02  0.00000000000E+00 0.  1.
          2   -1    0    0  502    0  0.00000000000E+00 -0.00000000000E+00 -0.11824905147E+04  0.11824905147E+04  0.00000000000E+00 0. -1.
         24    2    1    2    0    0  0.15051414097E+01 -0.24152394854E+02 -0.10310296938E+03  0.13329725193E+03  0.80946472746E+02 0.  0.
        -13    1    3    3    0    0 -0.94093300696E+01  0.17670724098E+02  0.15397742402E+01  0.20078866681E+02  0.00000000000E+00 0.  1.
         14    1    3    3    0    0  0.10914471479E+02 -0.41823118951E+02 -0.10464274362E+03  0.11321838525E+03  0.00000000000E+00 0. -1.
         21    1    1    2  502  501 -0.15051414097E+01  0.24152394854E+02 -0.10641528468E+04  0.10644279614E+04  0.00000000000E+00 0. -1.
<mgrwt>
<rscale>  1 0.84486301E+02</rscale>
<asrwt>0</asrwt>
<pdfrwt beam="1">  1        2 0.18192161E+00 0.84486301E+02</pdfrwt>
<pdfrwt beam="2">  1       -1 0.23437999E-02 0.84486301E+02</pdfrwt>
<totfact> 0.11860749E+04</totfact>
</mgrwt>
</event>
<event>
 6    2  0.1063641E+001  0.8781652E+02  0.7546771E-02  0.1308227E+00
          2   -1    0    0  502    0  0.00000000000E+00  0.00000000000E+00  0.11102131904E+03  0.11102131904E+03  0.00000000000E+00 0. -1.
         -1   -1    0    0    0  501 -0.00000000000E+00 -0.00000000000E+00 -0.33050610713E+02  0.33050610713E+02  0.00000000000E+00 0.  1.
         24    2    1    2    0    0 -0.16782116076E+02 -0.15073981770E+02  0.33095409465E+02  0.93845872827E+02  0.84869767130E+02 0.  0.
        -11    1    3    3    0    0 -0.78615952153E+00  0.88845641624E+01 -0.26333431807E+02  0.27802934339E+02  0.00000000000E+00 0.  1.
         12    1    3    3    0    0 -0.15995956555E+02 -0.23958545932E+02  0.59428841272E+02  0.66042938488E+02  0.00000000000E+00 0. -1.
         21    1    1    2  502  501  0.16782116076E+02  0.15073981770E+02  0.44875298862E+02  0.50226056926E+02  0.00000000000E+00 0.  1.
<mgrwt>
<rscale>  1 0.87816523E+02</rscale>
<asrwt>0</asrwt>
<pdfrwt beam="1">  1        2 0.17080203E-01 0.87816523E+02</pdfrwt>
<pdfrwt beam="2">  1       -1 0.50847094E-02 0.87816523E+02</pdfrwt>
<totfact> 0.55997394E+04</totfact>
</mgrwt>
</event>
<event>
 6    2  0.1063641E+001  0.8399431E+02  0.7546771E-02  0.1318084E+00
          2   -1    0    0  502    0  0.00000000000E+00  0.00000000000E+00  0.13839367964E+04  0.13839367964E+04  0.00000000000E+00 0. -1.
         -1   -1    0    0    0  501 -0.00000000000E+00 -0.00000000000E+00 -0.23951148290E+01  0.23951148290E+01  0.00000000000E+00 0.  1.
         24    2    1    2    0    0  0.22188347944E+02  0.36121734459E+01  0.80891277088E+03  0.81326189811E+03  0.80930052742E+02 0.  0.
        -13    1    3    3    0    0 -0.13693781685E+02 -0.15332657401E+02  0.63482418692E+02  0.66728011530E+02  0.00000000000E+00 0.  1.
         14    1    3    3    0    0  0.35882129629E+02  0.18944830847E+02  0.74543035219E+03  0.74653388658E+03  0.00000000000E+00 0. -1.
         21    1    1    2  502  501 -0.22188347944E+02 -0.36121734459E+01  0.57262891069E+03  0.57307001313E+03  0.00000000000E+00 0.  1.
<mgrwt>
<rscale>  1 0.83994309E+02</rscale>
<asrwt>0</asrwt>
<pdfrwt beam="1">  1        2 0.21291271E+00 0.83994309E+02</pdfrwt>
<pdfrwt beam="2">  1       -1 0.36848031E-03 0.83994309E+02</pdfrwt>
<totfact> 0.12531900E+05</totfact>
</mgrwt>
</event>
<event>
 6    2  0.1063641E+001  0.7851762E+02  0.7546771E-02  0.1333312E+00
         -1   -1    0    0    0  501 -0.00000000000E+00  0.00000000000E+00  0.39895844008E+03  0.39895844008E+03  0.00000000000E+00 0.  1.
          2   -1    0    0  502    0  0.00000000000E+00 -0.00000000000E+00 -0.82665765274E+01  0.82665765274E+01  0.00000000000E+00 0. -1.
         24    2    1    2    0    0  0.21752934474E+02 -0.52863977542E+00  0.36593939048E+03  0.37426815782E+03  0.75442341097E+02 0.  0.
        -11    1    3    3    0    0  0.16598230543E+02  0.11621709069E+02  0.35858870946E+03  0.35916072716E+03  0.00000000000E+00 0.  1.
         12    1    3    3    0    0  0.51547039303E+01 -0.12150348844E+02  0.73506810209E+01  0.15107430659E+02  0.00000000000E+00 0. -1.
         21    1    1    2  502  501 -0.21752934474E+02  0.52863977542E+00  0.24752473066E+02  0.32956858787E+02  0.00000000000E+00 0. -1.
<mgrwt>
<rscale>  1 0.78517619E+02</rscale>
<asrwt>0</asrwt>
<pdfrwt beam="1">  1        2 0.12717813E-02 0.78517619E+02</pdfrwt>
<pdfrwt beam="2">  1       -1 0.61378207E-01 0.78517619E+02</pdfrwt>
<totfact> 0.28197811E+04</totfact>
</mgrwt>
</event>
<event>
 6    2  0.1063641E+001  0.8649860E+02  0.7546771E-02  0.1311559E+00
          4   -1    0    0  502    0  0.00000000000E+00  0.00000000000E+00  0.22042247355E+02  0.22042247355E+02  0.00000000000E+00 0. -1.
         -3   -1    0    0    0  501 -0.00000000000E+00 -0.00000000000E+00 -0.15890974626E+03  0.15890974626E+03  0.00000000000E+00 0.  1.
         24    2    1    2    0    0  0.27869873170E+02 -0.15456485949E+02 -0.99911702787E+02  0.13215277584E+03  0.80413773826E+02 0.  0.
        -13    1    3    3    0    0 -0.28435787276E+02 -0.31532040141E+01 -0.38012665222E+02  0.47576248390E+02  0.00000000000E+00 0.  1.
         14    1    3    3    0    0  0.56305660446E+02 -0.12303281935E+02 -0.61899037565E+02  0.84576527454E+02  0.00000000000E+00 0. -1.
         21    1    1    2  502  501 -0.27869873170E+02  0.15456485949E+02 -0.36955796123E+02  0.48799217775E+02  0.00000000000E+00 0.  1.
<mgrwt>
<rscale>  1 0.86498600E+02</rscale>
<asrwt>0</asrwt>
<pdfrwt beam="1">  1        4 0.33911149E-02 0.86498600E+02</pdfrwt>
<pdfrwt beam="2">  1       -3 0.24447654E-01 0.86498600E+02</pdfrwt>
<totfact> 0.11896050E+04</totfact>
</mgrwt>
</event>
<event>
 6    2  0.1063641E+001  0.7398191E+02  0.7546771E-02  0.1347053E+00
          2   -1    0    0  502    0  0.00000000000E+00  0.00000000000E+00  0.25270168153E+03  0.25270168153E+03  0.00000000000E+00 0. -1.
         -1   -1    0    0    0  501 -0.00000000000E+00 -0.00000000000E+00 -0.16374362748E+02  0.16374362748E+02  0.00000000000E+00 0.  1.
         24    2    1    2    0    0 -0.34943759937E+02 -0.14147298534E+02  0.83017049744E+02  0.11119871530E+03  0.63656196248E+02 0.  0.
        -11    1    3    3    0    0 -0.34936857919E+02 -0.34802519533E+02  0.40061807271E+02  0.63535405947E+02  0.00000000000E+00 0.  1.
         12    1    3    3    0    0 -0.69020182723E-02  0.20655220998E+02  0.42955242472E+02  0.47663309348E+02  0.00000000000E+00 0. -1.
         21    1    1    2  502  501  0.34943759937E+02  0.14147298534E+02  0.15331026904E+03  0.15787732898E+03  0.00000000000E+00 0. -1.
<mgrwt>
<rscale>  1 0.73981915E+02</rscale>
<asrwt>0</asrwt>
<pdfrwt beam="1">  1        2 0.38877179E-01 0.73981915E+02</pdfrwt>
<pdfrwt beam="2">  1       -1 0.25191329E-02 0.73981915E+02</pdfrwt>
<totfact> 0.61720264E+04</totfact>
</mgrwt>
</event>
<event>
 6    2  0.1063641E+001  0.8427475E+02  0.7546771E-02  0.1317340E+00
         -1   -1    0    0    0  501 -0.00000000000E+00  0.00000000000E+00  0.27903454190E+01  0.27903454190E+01  0.00000000000E+00 0.  1.
          2   -1    0    0  502    0  0.00000000000E+00 -0.00000000000E+00 -0.11620237398E+04  0.11620237398E+04  0.00000000000E+00 0. -1.
         24    2    1    2    0    0  0.16734286578E+02  0.22510304211E+02 -0.77827947214E+03  0.78282895329E+03  0.79470014558E+02 0.  0.
        -13    1    3    3    0    0  0.12192923862E+02 -0.27349801276E+02 -0.18156032121E+03  0.18401312252E+03  0.00000000000E+00 0.  1.
         14    1    3    3    0    0  0.45413627167E+01  0.49860105487E+02 -0.59671915092E+03  0.59881583076E+03  0.00000000000E+00 0. -1.
         21    1    1    2  502  501 -0.16734286578E+02 -0.22510304211E+02 -0.38095392226E+03  0.38198513195E+03  0.00000000000E+00 0. -1.
<mgrwt>
<rscale>  1 0.84274749E+02</rscale>
<asrwt>0</asrwt>
<pdfrwt beam="1">  1        2 0.17877298E+00 0.84274749E+02</pdfrwt>
<pdfrwt beam="2">  1       -1 0.42928369E-03 0.84274749E+02</pdfrwt>
<totfact> 0.13295243E+05</totfact>
</mgrwt>
</event>
<event>
 6    2  0.1063641E+001  0.8332274E+02  0.7546771E-02  0.1319878E+00
         -3   -1    0    0    0  501 -0.00000000000E+00  0.00000000000E+00  0.57500979365E+01  0.57500979365E+01  0.00000000000E+00 0.  1.
          4   -1    0    0  502    0  0.00000000000E+00 -0.00000000000E+00 -0.49647855701E+03  0.49647855701E+03  0.00000000000E+00 0. -1.
         24    2    1    2    0    0  0.22666186173E+02 -0.20053437808E+00 -0.35716145098E+03  0.36675193421E+03  0.80180315371E+02 0.  0.
        -11    1    3    3    0    0 -0.16624424500E+02 -0.26610624869E+02 -0.87254793754E+02  0.92724839600E+02  0.00000000000E+00 0.  1.
         12    1    3    3    0    0  0.39290610674E+02  0.26410090490E+02 -0.26990665723E+03  0.27402709461E+03  0.00000000000E+00 0. -1.
         21    1    1    2  502  501 -0.22666186173E+02  0.20053437808E+00 -0.13356700809E+03  0.13547672073E+03  0.00000000000E+00 0.  1.
<mgrwt>
<rscale>  1 0.83322741E+02</rscale>
<asrwt>0</asrwt>
<pdfrwt beam="1">  1        4 0.76381311E-01 0.83322741E+02</pdfrwt>
<pdfrwt beam="2">  1       -3 0.88463052E-03 0.83322741E+02</pdfrwt>
<totfact> 0.87304851E+03</totfact>
</mgrwt>
</event>
<event>
 6    2  0.1063641E+001  0.8397550E+02  0.7546771E-02  0.1318134E+00
          2   -1    0    0  502    0  0.00000000000E+00  0.00000000000E+00  0.86988747474E+01  0.86988747474E+01  0.00000000000E+00 0. -1.
         -1   -1    0    0    0  501 -0.00000000000E+00 -0.00000000000E+00 -0.34714976183E+03  0.34714976183E+03  0.00000000000E+00 0.  1.
         24    2    1    2    0    0 -0.21929390781E+02 -0.24695037959E+01 -0.29982695786E+03  0.31136488070E+03  0.81023994222E+02 0.  0.
        -11    1    3    3    0    0 -0.47538702842E+02 -0.79591138965E+01 -0.25442154444E+03  0.25894709505E+03  0.00000000000E+00 0.  1.
         12    1    3    3    0    0  0.25609312062E+02  0.54896101005E+01 -0.45405413424E+02  0.52417785642E+02  0.00000000000E+00 0. -1.
         21    1    1    2  502  501  0.21929390781E+02  0.24695037959E+01 -0.38623929214E+02  0.44483755877E+02  0.00000000000E+00 0. -1.
<mgrwt>
<rscale>  1 0.83975498E+02</rscale>
<asrwt>0</asrwt>
<pdfrwt beam="1">  1        2 0.13382884E-02 0.83975498E+02</pdfrwt>
<pdfrwt beam="2">  1       -1 0.53407656E-01 0.83975498E+02</pdfrwt>
<totfact> 0.34373056E+04</totfact>
</mgrwt>
</event>
<event>
 6    2  0.1063641E+001  0.9059393E+02  0.7546771E-02  0.1301420E+00
         -1   -1    0    0    0  501 -0.00000000000E+00  0.00000000000E+00  0.93263994281E+01  0.93263994281E+01  0.00000000000E+00 0.  1.
          2   -1    0    0  502    0  0.00000000000E+00 -0.00000000000E+00 -0.51043974744E+03  0.51043974744E+03  0.00000000000E+00 0. -1.
         24    2    1    2    0    0 -0.16198735979E+02 -0.40436100407E+02 -0.27634620898E+03  0.29081692968E+03  0.79434136907E+02 0.  0.
        -11    1    3    3    0    0 -0.91219811660E+01 -0.24624849769E+02 -0.17876364871E+02  0.31767250236E+02  0.00000000000E+00 0.  1.
         12    1    3    3    0    0 -0.70767548125E+01 -0.15811250638E+02 -0.25846984411E+03  0.25904967944E+03  0.00000000000E+00 0. -1.
         21    1    1    2  502  501  0.16198735979E+02  0.40436100407E+02 -0.22476713903E+03  0.22894921719E+03  0.00000000000E+00 0.  1.
<mgrwt>
<rscale>  1 0.90593926E+02</rscale>
<asrwt>0</asrwt>
<pdfrwt beam="1">  1        2 0.78529199E-01 0.90593926E+02</pdfrwt>
<pdfrwt beam="2">  1       -1 0.14348306E-02 0.90593926E+02</pdfrwt>
<totfact> 0.67555434E+04</totfact>
</mgrwt>
</event>
<event>
 6    2  0.1063641E+001  0.8135593E+02  0.7546771E-02  0.1325247E+00
          4   -1    0    0  502    0  0.00000000000E+00  0.00000000000E+00  0.83156328242E+03  0.83156328242E+03  0.00000000000E+00 0. -1.
         -3   -1    0    0    0  501 -0.00000000000E+00 -0.00000000000E+00 -0.33429099760E+01  0.33429099760E+01  0.00000000000E+00 0.  1.
         24    2    1    2    0    0  0.14201213481E+02  0.14446899831E+02  0.55440776247E+03  0.56034521053E+03  0.78793403941E+02 0.  0.
        -11    1    3    3    0    0 -0.15175882221E+02  0.26773516770E+02  0.95574128253E+02  0.10040688519E+03  0.00000000000E+00 0.  1.
         12    1    3    3    0    0  0.29377095702E+02 -0.12326616940E+02  0.45883363421E+03  0.45993832535E+03  0.00000000000E+00 0. -1.
         21    1    1    2  502  501 -0.14201213481E+02 -0.14446899831E+02  0.27381260998E+03  0.27456098186E+03  0.00000000000E+00 0. -1.
<mgrwt>
<rscale>  1 0.81355933E+02</rscale>
<asrwt>0</asrwt>
<pdfrwt beam="1">  1        4 0.12793265E+00 0.81355933E+02</pdfrwt>
<pdfrwt beam="2">  1       -3 0.51429451E-03 0.81355933E+02</pdfrwt>
<totfact> 0.59247794E+03</totfact>
</mgrwt>
</event>
<event>
 6    2  0.1063641E+001  0.8449023E+02  0.7546771E-02  0.1316771E+00
         -1   -1    0    0    0  501 -0.00000000000E+00  0.00000000000E+00  0.67661696928E+01  0.67661696928E+01  0.00000000000E+00 0.  1.
          2   -1    0    0  502    0  0.00000000000E+00 -0.00000000000E+00 -0.57708787522E+03  0.57708787522E+03  0.00000000000E+00 0. -1.
         24    2    1    2    0    0  0.48244444235E+01 -0.22793277123E+02 -0.27676528372E+03  0.28937453539E+03  0.81214473538E+02 0.  0.
        -13    1    3    3    0    0  0.21765008819E+02  0.14111915121E+02 -0.20725542133E+03  0.20887238072E+03  0.00000000000E+00 0.  1.
         14    1    3    3    0    0 -0.16940564396E+02 -0.36905192243E+02 -0.69509862392E+02  0.80502154669E+02  0.00000000000E+00 0. -1.
         21    1    1    2  502  501 -0.48244444235E+01  0.22793277123E+02 -0.29355642181E+03  0.29447950953E+03  0.00000000000E+00 0. -1.
<mgrwt>
<rscale>  1 0.84490233E+02</rscale>
<asrwt>0</asrwt>
<pdfrwt beam="1">  1        2 0.88782733E-01 0.84490233E+02</pdfrwt>
<pdfrwt beam="2">  1       -1 0.10409494E-02 0.84490233E+02</pdfrwt>
<totfact> 0.92065707E+04</totfact>
</mgrwt>
</event>
<event>
 6    2  0.1063641E+001  0.8359225E+02  0.7546771E-02  0.1319156E+00
          4   -1    0    0  502    0  0.00000000000E+00  0.00000000000E+00  0.88364676487E+01  0.88364676487E+01  0.00000000000E+00 0. -1.
         -3   -1    0    0    0  501 -0.00000000000E+00 -0.00000000000E+00 -0.36053471231E+03  0.36053471231E+03  0.00000000000E+00 0.  1.
         24    2    1    2    0    0 -0.42843103723E+00 -0.21225054205E+02 -0.32319773871E+03  0.33383295661E+03  0.80851580902E+02 0.  0.
        -11    1    3    3    0    0 -0.20693125223E+02  0.50568589297E+01 -0.27191705412E+03  0.27275018162E+03  0.00000000000E+00 0.  1.
         12    1    3    3    0    0  0.20264694185E+02 -0.26281913135E+02 -0.51280684588E+02  0.61082774988E+02  0.00000000000E+00 0. -1.
         21    1    1    2  502  501  0.42843103723E+00  0.21225054205E+02 -0.28500505953E+02  0.35538223348E+02  0.00000000000E+00 0. -1.
<mgrwt>
<rscale>  1 0.83592252E+02</rscale>
<asrwt>0</asrwt>
<pdfrwt beam="1">  1        4 0.13594568E-02 0.83592252E+02</pdfrwt>
<pdfrwt beam="2">  1       -3 0.55466868E-01 0.83592252E+02</pdfrwt>
<totfact> 0.10170063E+04</totfact>
</mgrwt>
</event>
<event>
 6    2  0.1063641E+001  0.1146328E+03  0.7546771E-02  0.1252223E+00
         -1   -1    0    0    0  501 -0.00000000000E+00  0.00000000000E+00  0.46688153957E+01  0.46688153957E+01  0.00000000000E+00 0.  1.
          2   -1    0    0  502    0  0.00000000000E+00 -0.00000000000E+00 -0.20922530522E+04  0.20922530522E+04  0.00000000000E+00 0. -1.
         24    2    1    2    0    0 -0.74056470275E+02 -0.22019566622E+02 -0.14824398094E+04  0.14868653128E+04  0.84684400171E+02 0.  0.
        -11    1    3    3    0    0 -0.62033580433E+02 -0.52852165578E+02 -0.10726257414E+04  0.10757172015E+04  0.00000000000E+00 0.  1.
         12    1    3    3    0    0 -0.12022889842E+02  0.30832598957E+02 -0.40981406801E+03  0.41114811124E+03  0.00000000000E+00 0. -1.
         21    1    1    2  502  501  0.74056470275E+02  0.22019566622E+02 -0.60514442741E+03  0.61005655486E+03  0.00000000000E+00 0. -1.
<mgrwt>
<rscale>  1 0.11463276E+03</rscale>
<asrwt>0</asrwt>
<pdfrwt beam="1">  1        2 0.32188533E+00 0.11463276E+03</pdfrwt>
<pdfrwt beam="2">  1       -1 0.71827874E-03 0.11463276E+03</pdfrwt>
<totfact> 0.22100317E+04</totfact>
</mgrwt>
</event>
<event>
 6    2  0.1063641E+001  0.8172395E+02  0.7546771E-02  0.1324229E+00
         -1   -1    0    0    0  501 -0.00000000000E+00  0.00000000000E+00  0.40395907689E+02  0.40395907689E+02  0.00000000000E+00 0.  1.
          2   -1    0    0  502    0  0.00000000000E+00 -0.00000000000E+00 -0.13740162962E+03  0.13740162962E+03  0.00000000000E+00 0. -1.
         24    2    1    2    0    0  0.87313405334E+01  0.20791982541E+02 -0.37025030916E+01  0.81807780087E+02  0.78551012140E+02 0.  0.
        -11    1    3    3    0    0 -0.12991007822E+01  0.50423747220E+02 -0.23376418694E+01  0.50494618684E+02  0.00000000000E+00 0.  1.
         12    1    3    3    0    0  0.10030441316E+02 -0.29631764678E+02 -0.13648612222E+01  0.31313161404E+02  0.00000000000E+00 0. -1.
         21    1    1    2  502  501 -0.87313405334E+01 -0.20791982541E+02 -0.93303218836E+02  0.95989757218E+02  0.00000000000E+00 0. -1.
<mgrwt>
<rscale>  1 0.81723952E+02</rscale>
<asrwt>0</asrwt>
<pdfrwt beam="1">  1        2 0.21138712E-01 0.81723952E+02</pdfrwt>
<pdfrwt beam="2">  1       -1 0.62147551E-02 0.81723952E+02</pdfrwt>
<totfact> 0.32534425E+04</totfact>
</mgrwt>
</event>
<event>
 6    2  0.1063641E+001  0.8290396E+02  0.7546771E-02  0.1321007E+00
          2   -1    0    0  502    0  0.00000000000E+00  0.00000000000E+00  0.15578863844E+04  0.15578863844E+04  0.00000000000E+00 0. -1.
         -1   -1    0    0    0  501 -0.00000000000E+00 -0.00000000000E+00 -0.44437989381E+01  0.44437989381E+01  0.00000000000E+00 0.  1.
         24    2    1    2    0    0 -0.12841445673E+02 -0.16513003370E+02  0.39067912953E+03  0.39937857796E+03  0.80221470154E+02 0.  0.
        -13    1    3    3    0    0 -0.79643224584E+01  0.83314117428E+01  0.45042547419E+01  0.12374617757E+02  0.00000000000E+00 0.  1.
         14    1    3    3    0    0 -0.48771232144E+01 -0.24844415113E+02  0.38617487479E+03  0.38700396020E+03  0.00000000000E+00 0. -1.
         21    1    1    2  502  501  0.12841445673E+02  0.16513003370E+02  0.11627634559E+04  0.11629516053E+04  0.00000000000E+00 0. -1.
<mgrwt>
<rscale>  1 0.82903958E+02</rscale>
<asrwt>0</asrwt>
<pdfrwt beam="1">  1        2 0.23967439E+00 0.82903958E+02</pdfrwt>
<pdfrwt beam="2">  1       -1 0.68366262E-03 0.82903958E+02</pdfrwt>
<totfact> 0.43038952E+04</totfact>
</mgrwt>
</event>
<event>
 6    2  0.1063641E+001  0.8369546E+02  0.7546771E-02  0.1318880E+00
         -1   -1    0    0    0  501 -0.00000000000E+00  0.00000000000E+00  0.52480730676E+01  0.52480730676E+01  0.00000000000E+00 0.  1.
          2   -1    0    0  502    0  0.00000000000E+00 -0.00000000000E+00 -0.67218623992E+03  0.67218623992E+03  0.00000000000E+00 0. -1.
         24    2    1    2    0    0  0.19571524510E+02  0.21121322374E+02 -0.38291040904E+03  0.39195064964E+03  0.78586102916E+02 0.  0.
        -13    1    3    3    0    0  0.50023397867E+02  0.96573837148E+01 -0.21992206576E+03  0.22574614151E+03  0.00000000000E+00 0.  1.
         14    1    3    3    0    0 -0.30451873358E+02  0.11463938660E+02 -0.16298834327E+03  0.16620450813E+03  0.00000000000E+00 0. -1.
         21    1    1    2  502  501 -0.19571524510E+02 -0.21121322374E+02 -0.28402775782E+03  0.28548366336E+03  0.00000000000E+00 0. -1.
<mgrwt>
<rscale>  1 0.83695462E+02</rscale>
<asrwt>0</asrwt>
<pdfrwt beam="1">  1        2 0.10341330E+00 0.83695462E+02</pdfrwt>
<pdfrwt beam="2">  1       -1 0.80739564E-03 0.83695462E+02</pdfrwt>
<totfact> 0.11067359E+05</totfact>
</mgrwt>
</event>
<event>
 6    2  0.1063641E+001  0.8408426E+02  0.7546771E-02  0.1317845E+00
          2   -1    0    0  502    0  0.00000000000E+00  0.00000000000E+00  0.18272432333E+04  0.18272432333E+04  0.00000000000E+00 0. -1.
         -1   -1    0    0    0  501 -0.00000000000E+00 -0.00000000000E+00 -0.17271130906E+01  0.17271130906E+01  0.00000000000E+00 0.  1.
         24    2    1    2    0    0 -0.21625588062E+02  0.17712971068E+02  0.14268434575E+04  0.14293188640E+04  0.79301622360E+02 0.  0.
        -11    1    3    3    0    0 -0.27394267058E+01  0.45096010353E+02  0.55298321395E+03  0.55482572896E+03  0.00000000000E+00 0.  1.
         12    1    3    3    0    0 -0.18886161357E+02 -0.27383039285E+02  0.87386024352E+03  0.87449313499E+03  0.00000000000E+00 0. -1.
         21    1    1    2  502  501  0.21625588062E+02 -0.17712971068E+02  0.39867266274E+03  0.39965148245E+03  0.00000000000E+00 0.  1.
<mgrwt>
<rscale>  1 0.84084260E+02</rscale>
<asrwt>0</asrwt>
<pdfrwt beam="1">  1        2 0.28111280E+00 0.84084260E+02</pdfrwt>
<pdfrwt beam="2">  1       -1 0.26571117E-03 0.84084260E+02</pdfrwt>
<totfact> 0.11783789E+05</totfact>
</mgrwt>
</event>
<event>
 6    2  0.1063641E+001  0.8568287E+02  0.7546771E-02  0.1313656E+00
          2   -1    0    0  502    0  0.00000000000E+00  0.00000000000E+00  0.24143879899E+04  0.24143879899E+04  0.00000000000E+00 0. -1.
         -1   -1    0    0    0  501 -0.00000000000E+00 -0.00000000000E+00 -0.14336006170E+01  0.14336006170E+01  0.00000000000E+00 0.  1.
         24    2    1    2    0    0 -0.66633329054E+01 -0.23453488133E+02  0.14298766976E+04  0.14324415958E+04  0.82140665614E+02 0.  0.
        -13    1    3    3    0    0  0.27336331659E+02 -0.20344578467E+02  0.28113134295E+03  0.28318899854E+03  0.00000000000E+00 0.  1.
         14    1    3    3    0    0 -0.33999664565E+02 -0.31089096660E+01  0.11487453546E+04  0.11492525972E+04  0.00000000000E+00 0. -1.
         21    1    1    2  502  501  0.66633329054E+01  0.23453488133E+02  0.98307769174E+03  0.98337999477E+03  0.00000000000E+00 0. -1.
<mgrwt>
<rscale>  1 0.85682875E+02</rscale>
<asrwt>0</asrwt>
<pdfrwt beam="1">  1        2 0.37144105E+00 0.85682875E+02</pdfrwt>
<pdfrwt beam="2">  1       -1 0.22055587E-03 0.85682875E+02</pdfrwt>
<totfact> 0.77139318E+04</totfact>
</mgrwt>
</event>
<event>
 6    2  0.1063641E+001  0.8371847E+02  0.7546771E-02  0.1318818E+00
         -1   -1    0    0    0  501 -0.00000000000E+00  0.00000000000E+00  0.38881717218E+02  0.38881717218E+02  0.00000000000E+00 0.  1.
          2   -1    0    0  502    0  0.00000000000E+00 -0.00000000000E+00 -0.77264320464E+02  0.77264320464E+02  0.00000000000E+00 0. -1.
         24    2    1    2    0    0  0.16537441553E+02  0.13060014858E+02 -0.15686024293E+02  0.85175315099E+02  0.81023033656E+02 0.  0.
        -11    1    3    3    0    0 -0.27296715108E+02  0.13121453687E+02  0.12819068187E+02  0.32887865722E+02  0.00000000000E+00 0.  1.
         12    1    3    3    0    0  0.43834156661E+02 -0.61438829568E-01 -0.28505092481E+02  0.52287449376E+02  0.00000000000E+00 0. -1.
         21    1    1    2  502  501 -0.16537441553E+02 -0.13060014858E+02 -0.22696578953E+02  0.30970722584E+02  0.00000000000E+00 0.  1.
<mgrwt>
<rscale>  1 0.83718474E+02</rscale>
<asrwt>0</asrwt>
<pdfrwt beam="1">  1        2 0.11886818E-01 0.83718474E+02</pdfrwt>
<pdfrwt beam="2">  1       -1 0.59818027E-02 0.83718474E+02</pdfrwt>
<totfact> 0.66761474E+04</totfact>
</mgrwt>
</event>
<event>
 6    2  0.1063641E+001  0.8293340E+02  0.7546771E-02  0.1320927E+00
         -1   -1    0    0    0  501 -0.00000000000E+00  0.00000000000E+00  0.15529075432E+03  0.15529075432E+03  0.00000000000E+00 0.  1.
          2   -1    0    0  502    0  0.00000000000E+00 -0.00000000000E+00 -0.28742611400E+02  0.28742611400E+02  0.00000000000E+00 0. -1.
         24    2    1    2    0    0 -0.13375705287E+02  0.16520861036E+02  0.13715343919E+03  0.16027793161E+03  0.80162966125E+02 0.  0.
        -11    1    3    3    0    0 -0.21679126202E+02  0.67074013909E+00  0.14042308454E+03  0.14208827213E+03  0.00000000000E+00 0.  1.
         12    1    3    3    0    0  0.83034209156E+01  0.15850120896E+02 -0.32696453481E+01  0.18189659481E+02  0.00000000000E+00 0. -1.
         21    1    1    2  502  501  0.13375705287E+02 -0.16520861036E+02 -0.10605296263E+02  0.23755434117E+02  0.00000000000E+00 0. -1.
<mgrwt>
<rscale>  1 0.82933404E+02</rscale>
<asrwt>0</asrwt>
<pdfrwt beam="1">  1        2 0.44219403E-02 0.82933404E+02</pdfrwt>
<pdfrwt beam="2">  1       -1 0.23890885E-01 0.82933404E+02</pdfrwt>
<totfact> 0.27517139E+04</totfact>
</mgrwt>
</event>
<event>
 6    2  0.1063641E+001  0.8434703E+02  0.7546771E-02  0.1317149E+00
          2   -1    0    0  502    0  0.00000000000E+00  0.00000000000E+00  0.44192801254E+03  0.44192801254E+03  0.00000000000E+00 0. -1.
         -1   -1    0    0    0  501 -0.00000000000E+00 -0.00000000000E+00 -0.81710272860E+01  0.81710272860E+01  0.00000000000E+00 0.  1.
         24    2    1    2    0    0 -0.88639592795E+01  0.22877167182E+02  0.23202436881E+03  0.24687998784E+03  0.80699975975E+02 0.  0.
        -11    1    3    3    0    0  0.58607964291E+01  0.14810203921E+02  0.17828986314E+01  0.16027158279E+02  0.00000000000E+00 0.  1.
         12    1    3    3    0    0 -0.14724755709E+02  0.80669632613E+01  0.23024147018E+03  0.23085282956E+03  0.00000000000E+00 0. -1.
         21    1    1    2  502  501  0.88639592795E+01 -0.22877167182E+02  0.20173261644E+03  0.20321905198E+03  0.00000000000E+00 0. -1.
<mgrwt>
<rscale>  1 0.84347025E+02</rscale>
<asrwt>0</asrwt>
<pdfrwt beam="1">  1        2 0.67988907E-01 0.84347025E+02</pdfrwt>
<pdfrwt beam="2">  1       -1 0.12570815E-02 0.84347025E+02</pdfrwt>
<totfact> 0.94107845E+04</totfact>
</mgrwt>
</event>
<event>
 6    2  0.1063641E+001  0.9665858E+02  0.7546771E-02  0.1287484E+00
          2   -1    0    0  502    0  0.00000000000E+00  0.00000000000E+00  0.53817114702E+03  0.53817114702E+03  0.00000000000E+00 0. -1.
         -1   -1    0    0    0  501 -0.00000000000E+00 -0.00000000000E+00 -0.10390729948E+02  0.10390729948E+02  0.00000000000E+00 0.  1.
         24    2    1    2    0    0 -0.37524360971E+02 -0.28458423003E+02  0.27654691545E+03  0.29295234694E+03  0.84409250822E+02 0.  0.
        -11    1    3    3    0    0  0.40918746494E+01  0.18189465908E+01 -0.50163609907E+01  0.67242756068E+01  0.00000000000E+00 0.  1.
         12    1    3    3    0    0 -0.41616235621E+02 -0.30277369594E+02  0.28156327644E+03  0.28622807133E+03  0.00000000000E+00 0. -1.
         21    1    1    2  502  501  0.37524360971E+02  0.28458423003E+02  0.25123350162E+03  0.25560953003E+03  0.00000000000E+00 0. -1.
<mgrwt>
<rscale>  1 0.96658580E+02</rscale>
<asrwt>0</asrwt>
<pdfrwt beam="1">  1        2 0.82795539E-01 0.96658580E+02</pdfrwt>
<pdfrwt beam="2">  1       -1 0.15985743E-02 0.96658580E+02</pdfrwt>
<totfact> 0.55144375E+04</totfact>
</mgrwt>
</event>
<event>
 6    2  0.1063641E+001  0.9129148E+02  0.7546771E-02  0.1299754E+00
         -1   -1    0    0    0  501 -0.00000000000E+00  0.00000000000E+00  0.49935591870E+02  0.49935591870E+02  0.00000000000E+00 0.  1.
          2   -1    0    0  502    0  0.00000000000E+00 -0.00000000000E+00 -0.41556944711E+03  0.41556944711E+03  0.00000000000E+00 0. -1.
         24    2    1    2    0    0  0.29583115291E+02 -0.29334259647E+02  0.60517740075E+01  0.91491848720E+02  0.81230997250E+02 0.  0.
        -13    1    3    3    0    0  0.34822042393E+02 -0.54969866251E+02  0.28805237880E+01  0.65134923424E+02  0.00000000000E+00 0.  1.
         14    1    3    3    0    0 -0.52389271020E+01  0.25635606604E+02  0.31712502195E+01  0.26356925297E+02  0.00000000000E+00 0. -1.
         21    1    1    2  502  501 -0.29583115291E+02  0.29334259647E+02 -0.37168562925E+03  0.37401319026E+03  0.00000000000E+00 0. -1.
<mgrwt>
<rscale>  1 0.91291481E+02</rscale>
<asrwt>0</asrwt>
<pdfrwt beam="1">  1        2 0.63933759E-01 0.91291481E+02</pdfrwt>
<pdfrwt beam="2">  1       -1 0.76823990E-02 0.91291481E+02</pdfrwt>
<totfact> 0.74250714E+03</totfact>
</mgrwt>
</event>
<event>
 6    2  0.1063641E+001  0.8311250E+02  0.7546771E-02  0.1320444E+00
          2   -1    0    0  502    0  0.00000000000E+00  0.00000000000E+00  0.92802437626E+03  0.92802437626E+03  0.00000000000E+00 0. -1.
         -1   -1    0    0    0  501 -0.00000000000E+00 -0.00000000000E+00 -0.40230319985E+01  0.40230319985E+01  0.00000000000E+00 0.  1.
         24    2    1    2    0    0  0.10112164707E+02 -0.18497874161E+02  0.87175804147E+03  0.87571100874E+03  0.80394407434E+02 0.  0.
        -11    1    3    3    0    0 -0.21009102795E+02  0.22817498263E+02  0.36777292779E+03  0.36907851068E+03  0.00000000000E+00 0.  1.
         12    1    3    3    0    0  0.31121267501E+02 -0.41315372424E+02  0.50398511367E+03  0.50663249806E+03  0.00000000000E+00 0. -1.
         21    1    1    2  502  501 -0.10112164707E+02  0.18497874161E+02  0.52243302793E+02  0.56336399515E+02  0.00000000000E+00 0.  1.
<mgrwt>
<rscale>  1 0.83112502E+02</rscale>
<asrwt>0</asrwt>
<pdfrwt beam="1">  1        2 0.14277281E+00 0.83112502E+02</pdfrwt>
<pdfrwt beam="2">  1       -1 0.61892874E-03 0.83112502E+02</pdfrwt>
<totfact> 0.10845474E+05</totfact>
</mgrwt>
</event>
<event>
 6    2  0.1063641E+001  0.8112377E+02  0.7546771E-02  0.1325892E+00
         -1   -1    0    0    0  501 -0.00000000000E+00  0.00000000000E+00  0.11410590107E+03  0.11410590107E+03  0.00000000000E+00 0.  1.
          2   -1    0    0  502    0  0.00000000000E+00 -0.00000000000E+00 -0.24115270699E+02  0.24115270699E+02  0.00000000000E+00 0. -1.
         24    2    1    2    0    0  0.21497331975E+02  0.10182576748E+02  0.69980823530E+02  0.10713721255E+03  0.77558020209E+02 0.  0.
        -13    1    3    3    0    0 -0.25186802678E+02 -0.82763683604E+01  0.41992372865E+02  0.49661178814E+02  0.00000000000E+00 0.  1.
         14    1    3    3    0    0  0.46684134653E+02  0.18458945108E+02  0.27988450665E+02  0.57476033731E+02  0.00000000000E+00 0. -1.
         21    1    1    2  502  501 -0.21497331975E+02 -0.10182576748E+02  0.20009806843E+02  0.31083959225E+02  0.00000000000E+00 0.  1.
<mgrwt>
<rscale>  1 0.81123774E+02</rscale>
<asrwt>0</asrwt>
<pdfrwt beam="1">  1        2 0.37100417E-02 0.81123774E+02</pdfrwt>
<pdfrwt beam="2">  1       -1 0.17554754E-01 0.81123774E+02</pdfrwt>
<totfact> 0.56248125E+04</totfact>
</mgrwt>
</event>
<event>
 6    2  0.1063641E+001  0.8225083E+02  0.7546771E-02  0.1322783E+00
         -1   -1    0    0    0  501 -0.00000000000E+00  0.00000000000E+00  0.82028969045E+01  0.82028969045E+01  0.00000000000E+00 0.  1.
          2   -1    0    0  502    0  0.00000000000E+00 -0.00000000000E+00 -0.35501863091E+03  0.35501863091E+03  0.00000000000E+00 0. -1.
         24    2    1    2    0    0  0.75724079089E+01  0.18618065722E+02 -0.22098362206E+03  0.23579431671E+03  0.79757287078E+02 0.  0.
        -11    1    3    3    0    0 -0.49375736072E+00 -0.83567172073E+01  0.38432711388E+01  0.92113653635E+01  0.00000000000E+00 0.  1.
         12    1    3    3    0    0  0.80661652697E+01  0.26974782930E+02 -0.22482689320E+03  0.22658295135E+03  0.00000000000E+00 0. -1.
         21    1    1    2  502  501 -0.75724079089E+01 -0.18618065722E+02 -0.12583211194E+03  0.12742721110E+03  0.00000000000E+00 0. -1.
<mgrwt>
<rscale>  1 0.82250827E+02</rscale>
<asrwt>0</asrwt>
<pdfrwt beam="1">  1        2 0.54618267E-01 0.82250827E+02</pdfrwt>
<pdfrwt beam="2">  1       -1 0.12619838E-02 0.82250827E+02</pdfrwt>
<totfact> 0.11732726E+05</totfact>
</mgrwt>
</event>
<event>
 6    2  0.1063641E+001  0.8495397E+02  0.7546771E-02  0.1315553E+00
          4   -1    0    0  502    0  0.00000000000E+00  0.00000000000E+00  0.78936484767E+02  0.78936484767E+02  0.00000000000E+00 0. -1.
         -3   -1    0    0    0  501 -0.00000000000E+00 -0.00000000000E+00 -0.45661267234E+02  0.45661267234E+02  0.00000000000E+00 0.  1.
         24    2    1    2    0    0  0.26552532345E+02  0.16466219641E+02  0.37879924218E+02  0.93016480860E+02  0.79000023352E+02 0.  0.
        -13    1    3    3    0    0 -0.25285664374E+02 -0.43758569047E+01  0.26452794604E+00  0.25662870485E+02  0.00000000000E+00 0.  1.
         14    1    3    3    0    0  0.51838196719E+02  0.20842076546E+02  0.37615396272E+02  0.67353610375E+02  0.00000000000E+00 0. -1.
         21    1    1    2  502  501 -0.26552532345E+02 -0.16466219641E+02 -0.46047066849E+01  0.31581271141E+02  0.00000000000E+00 0.  1.
<mgrwt>
<rscale>  1 0.84953970E+02</rscale>
<asrwt>0</asrwt>
<pdfrwt beam="1">  1        4 0.12144075E-01 0.84953970E+02</pdfrwt>
<pdfrwt beam="2">  1       -3 0.70248103E-02 0.84953970E+02</pdfrwt>
<totfact> 0.12141063E+04</totfact>
</mgrwt>
</event>
<event>
 6    2  0.1063641E+001  0.8538612E+02  0.7546771E-02  0.1314426E+00
         -1   -1    0    0    0  501 -0.00000000000E+00  0.00000000000E+00  0.37076276928E+01  0.37076276928E+01  0.00000000000E+00 0.  1.
          2   -1    0    0  502    0  0.00000000000E+00 -0.00000000000E+00 -0.10398531087E+04  0.10398531087E+04  0.00000000000E+00 0. -1.
         24    2    1    2    0    0 -0.14608464269E+02  0.33812250250E+02 -0.63234276775E+03  0.63808162876E+03  0.77033197624E+02 0.  0.
        -13    1    3    3    0    0  0.72713454649E+01  0.14043535967E+02 -0.22364105116E+02  0.27390629145E+02  0.00000000000E+00 0.  1.
         14    1    3    3    0    0 -0.21879809734E+02  0.19768714283E+02 -0.60997866263E+03  0.61069099961E+03  0.00000000000E+00 0. -1.
         21    1    1    2  502  501  0.14608464269E+02 -0.33812250250E+02 -0.40380271328E+03  0.40547910766E+03  0.00000000000E+00 0. -1.
<mgrwt>
<rscale>  1 0.85386117E+02</rscale>
<asrwt>0</asrwt>
<pdfrwt beam="1">  1        2 0.15997747E+00 0.85386117E+02</pdfrwt>
<pdfrwt beam="2">  1       -1 0.57040401E-03 0.85386117E+02</pdfrwt>
<totfact> 0.10484204E+05</totfact>
</mgrwt>
</event>
<event>
 6    2  0.1063641E+001  0.9674560E+02  0.7546771E-02  0.1287292E+00
         -1   -1    0    0    0  501 -0.00000000000E+00  0.00000000000E+00  0.47442228528E+01  0.47442228528E+01  0.00000000000E+00 0.  1.
          2   -1    0    0  502    0  0.00000000000E+00 -0.00000000000E+00 -0.12594727936E+04  0.12594727936E+04  0.00000000000E+00 0. -1.
         24    2    1    2    0    0  0.54630792058E+02  0.11808342276E+02 -0.88783859817E+03  0.89309410910E+03  0.78966770929E+02 0.  0.
        -11    1    3    3    0    0  0.44828214545E+02  0.15471880430E+02 -0.21473755279E+03  0.21991171975E+03  0.00000000000E+00 0.  1.
         12    1    3    3    0    0  0.98025775123E+01 -0.36635381545E+01 -0.67310104538E+03  0.67318238935E+03  0.00000000000E+00 0. -1.
         21    1    1    2  502  501 -0.54630792058E+02 -0.11808342276E+02 -0.36688997256E+03  0.37112290734E+03  0.00000000000E+00 0.  1.
<mgrwt>
<rscale>  1 0.96745601E+02</rscale>
<asrwt>0</asrwt>
<pdfrwt beam="1">  1        2 0.19376509E+00 0.96745601E+02</pdfrwt>
<pdfrwt beam="2">  1       -1 0.72988028E-03 0.96745601E+02</pdfrwt>
<totfact> 0.56930250E+04</totfact>
</mgrwt>
</event>
<event>
 6    2  0.1063641E+001  0.1821557E+03  0.7546771E-02  0.1165733E+00
          2   -1    0    0  502    0  0.00000000000E+00  0.00000000000E+00  0.23044758856E+04  0.23044758856E+04  0.00000000000E+00 0. -1.
         -1   -1    0    0    0  501 -0.00000000000E+00 -0.00000000000E+00 -0.13067120567E+02  0.13067120567E+02  0.00000000000E+00 0.  1.
         24    2    1    2    0    0  0.15669878051E+03  0.43659219357E+02  0.10784435374E+04  0.10937189670E+04  0.81976095917E+02 0.  0.
        -11    1    3    3    0    0  0.28506087714E+02 -0.23752255205E+02  0.24206617554E+03  0.24489344623E+03  0.00000000000E+00 0.  1.
         12    1    3    3    0    0  0.12819269279E+03  0.67411474562E+02  0.83637736184E+03  0.84882552081E+03  0.00000000000E+00 0. -1.
         21    1    1    2  502  501 -0.15669878051E+03 -0.43659219357E+02  0.12129652277E+04  0.12238240392E+04  0.00000000000E+00 0.  1.
<mgrwt>
<rscale>  1 0.18215575E+03</rscale>
<asrwt>0</asrwt>
<pdfrwt beam="1">  1        2 0.35453443E+00 0.18215575E+03</pdfrwt>
<pdfrwt beam="2">  1       -1 0.20103281E-02 0.18215575E+03</pdfrwt>
<totfact> 0.39710251E+03</totfact>
</mgrwt>
</event>
<event>
 6    2  0.1063641E+001  0.8258056E+02  0.7546771E-02  0.1321884E+00
         -1   -1    0    0    0  501 -0.00000000000E+00  0.00000000000E+00  0.70830208269E+03  0.70830208269E+03  0.00000000000E+00 0.  1.
          2   -1    0    0  502    0  0.00000000000E+00 -0.00000000000E+00 -0.56656246074E+01  0.56656246074E+01  0.00000000000E+00 0. -1.
         24    2    1    2    0    0 -0.20337625845E+02  0.67532351947E+01  0.66904936159E+03  0.67412654440E+03  0.79751642010E+02 0.  0.
        -11    1    3    3    0    0 -0.13524094506E+02  0.22909849340E+02  0.63731555073E+03  0.63787057742E+03  0.00000000000E+00 0.  1.
         12    1    3    3    0    0 -0.68135313385E+01 -0.16156614146E+02  0.31733810857E+02  0.36255966977E+02  0.00000000000E+00 0. -1.
         21    1    1    2  502  501  0.20337625845E+02 -0.67532351947E+01  0.33587096492E+02  0.39841162901E+02  0.00000000000E+00 0. -1.
<mgrwt>
<rscale>  1 0.82580564E+02</rscale>
<asrwt>0</asrwt>
<pdfrwt beam="1">  1        2 0.87163512E-03 0.82580564E+02</pdfrwt>
<pdfrwt beam="2">  1       -1 0.10896948E+00 0.82580564E+02</pdfrwt>
<totfact> 0.14708052E+04</totfact>
</mgrwt>
</event>
<event>
 6    2  0.1063641E+001  0.8779326E+02  0.7546771E-02  0.1308285E+00
         -1   -1    0    0    0  501 -0.00000000000E+00  0.00000000000E+00  0.58223713909E+02  0.58223713909E+02  0.00000000000E+00 0.  1.
          2   -1    0    0  502    0  0.00000000000E+00 -0.00000000000E+00 -0.23376034866E+03  0.23376034866E+03  0.00000000000E+00 0. -1.
         24    2    1    2    0    0  0.70943447269E+01  0.28210111069E+02  0.23459164026E+02  0.90873476014E+02  0.82834269312E+02 0.  0.
        -13    1    3    3    0    0  0.40942777373E+02  0.65948739340E+01  0.28611812759E+02  0.50382925784E+02  0.00000000000E+00 0.  1.
         14    1    3    3    0    0 -0.33848432646E+02  0.21615237135E+02 -0.51526487324E+01  0.40490550230E+02  0.00000000000E+00 0. -1.
         21    1    1    2  502  501 -0.70943447269E+01 -0.28210111069E+02 -0.19899579878E+03  0.20111058656E+03  0.00000000000E+00 0. -1.
<mgrwt>
<rscale>  1 0.87793259E+02</rscale>
<asrwt>0</asrwt>
<pdfrwt beam="1">  1        2 0.35963131E-01 0.87793259E+02</pdfrwt>
<pdfrwt beam="2">  1       -1 0.89574945E-02 0.87793259E+02</pdfrwt>
<totfact> 0.10751221E+04</totfact>
</mgrwt>
</event>
<event>
 6    2  0.1063641E+001  0.8555844E+02  0.7546771E-02  0.1313979E+00
          2   -1    0    0  502    0  0.00000000000E+00  0.00000000000E+00  0.80077181886E+02  0.80077181886E+02  0.00000000000E+00 0. -1.
         -1   -1    0    0    0  501 -0.00000000000E+00 -0.00000000000E+00 -0.40382747090E+02  0.40382747090E+02  0.00000000000E+00 0.  1.
         24    2    1    2    0    0 -0.22202950398E+02  0.15265370542E+02  0.22397768544E+02  0.88441540391E+02  0.81204947428E+02 0.  0.
        -13    1    3    3    0    0  0.26623893848E+02 -0.12196850194E+02  0.44769117314E+01  0.29624949231E+02  0.00000000000E+00 0.  1.
         14    1    3    3    0    0 -0.48826844247E+02  0.27462220736E+02  0.17920856812E+02  0.58816591160E+02  0.00000000000E+00 0. -1.
         21    1    1    2  502  501  0.22202950398E+02 -0.15265370542E+02  0.17296666252E+02  0.32018388586E+02  0.00000000000E+00 0.  1.
<mgrwt>
<rscale>  1 0.85558436E+02</rscale>
<asrwt>0</asrwt>
<pdfrwt beam="1">  1        2 0.12319566E-01 0.85558436E+02</pdfrwt>
<pdfrwt beam="2">  1       -1 0.62127303E-02 0.85558436E+02</pdfrwt>
<totfact> 0.60719591E+04</totfact>
</mgrwt>
</event>
<event>
 6    2  0.1063641E+001  0.8221331E+02  0.7546771E-02  0.1322885E+00
          2   -1    0    0  502    0  0.00000000000E+00  0.00000000000E+00  0.56506741383E+03  0.56506741383E+03  0.00000000000E+00 0. -1.
         -1   -1    0    0    0  501 -0.00000000000E+00 -0.00000000000E+00 -0.47566518178E+01  0.47566518178E+01  0.00000000000E+00 0.  1.
         24    2    1    2    0    0 -0.14867098828E+02  0.15109040675E+02  0.42770858833E+03  0.43553836200E+03  0.79433711413E+02 0.  0.
        -11    1    3    3    0    0 -0.20777625691E+02  0.10902912578E+02  0.31578718838E+02  0.39342073096E+02  0.00000000000E+00 0.  1.
         12    1    3    3    0    0  0.59105268635E+01  0.42061280973E+01  0.39612986949E+03  0.39619628891E+03  0.00000000000E+00 0. -1.
         21    1    1    2  502  501  0.14867098828E+02 -0.15109040675E+02  0.13260217368E+03  0.13428570365E+03  0.00000000000E+00 0. -1.
<mgrwt>
<rscale>  1 0.82213309E+02</rscale>
<asrwt>0</asrwt>
<pdfrwt beam="1">  1        2 0.86933395E-01 0.82213309E+02</pdfrwt>
<pdfrwt beam="2">  1       -1 0.73179303E-03 0.82213309E+02</pdfrwt>
<totfact> 0.15393901E+05</totfact>
</mgrwt>
</event>
<event>
 6    2  0.1063641E+001  0.9080274E+02  0.7546771E-02  0.1300919E+00
          2   -1    0    0  502    0  0.00000000000E+00  0.00000000000E+00  0.40963531453E+03  0.40963531453E+03  0.00000000000E+00 0. -1.
         -1   -1    0    0    0  501 -0.00000000000E+00 -0.00000000000E+00 -0.13790936020E+02  0.13790936020E+02  0.00000000000E+00 0.  1.
         24    2    1    2    0    0  0.14919879439E+02 -0.25524213720E+02  0.14666158217E+03  0.17249567394E+03  0.85854816714E+02 0.  0.
        -13    1    3    3    0    0  0.12278499684E+02 -0.22143247141E+02 -0.44792292298E+00  0.25323617107E+02  0.00000000000E+00 0.  1.
         14    1    3    3    0    0  0.26413797555E+01 -0.33809665785E+01  0.14710950509E+03  0.14717205683E+03  0.00000000000E+00 0. -1.
         21    1    1    2  502  501 -0.14919879439E+02  0.25524213720E+02  0.24918279633E+03  0.25093057661E+03  0.00000000000E+00 0. -1.
<mgrwt>
<rscale>  1 0.90802741E+02</rscale>
<asrwt>0</asrwt>
<pdfrwt beam="1">  1        2 0.63020808E-01 0.90802741E+02</pdfrwt>
<pdfrwt beam="2">  1       -1 0.21216828E-02 0.90802741E+02</pdfrwt>
<totfact> 0.48986975E+04</totfact>
</mgrwt>
</event>
<event>
 6    2  0.1063641E+001  0.8384487E+02  0.7546771E-02  0.1318481E+00
         -3   -1    0    0    0  501 -0.00000000000E+00  0.00000000000E+00  0.53679022162E+02  0.53679022162E+02  0.00000000000E+00 0.  1.
          4   -1    0    0  502    0  0.00000000000E+00 -0.00000000000E+00 -0.56126650028E+02  0.56126650028E+02  0.00000000000E+00 0. -1.
         24    2    1    2    0    0  0.23212131219E+02  0.11559384694E+02 -0.15605666834E+01  0.83859395236E+02  0.79734185835E+02 0.  0.
        -11    1    3    3    0    0  0.95681475645E+01  0.34772608813E+02  0.26663819855E+02  0.44851344024E+02  0.00000000000E+00 0.  1.
         12    1    3    3    0    0  0.13643983655E+02 -0.23213224119E+02 -0.28224386538E+02  0.39008051213E+02  0.00000000000E+00 0. -1.
         21    1    1    2  502  501 -0.23212131219E+02 -0.11559384694E+02 -0.88706118208E+00  0.25946276954E+02  0.00000000000E+00 0.  1.
<mgrwt>
<rscale>  1 0.83844873E+02</rscale>
<asrwt>0</asrwt>
<pdfrwt beam="1">  1        4 0.86348692E-02 0.83844873E+02</pdfrwt>
<pdfrwt beam="2">  1       -3 0.82583111E-02 0.83844873E+02</pdfrwt>
<totfact> 0.16497344E+04</totfact>
</mgrwt>
</event>
<event>
 6    2  0.1063641E+001  0.1034368E+03  0.7546771E-02  0.1273230E+00
         -1   -1    0    0    0  501 -0.00000000000E+00  0.00000000000E+00  0.77484943448E+01  0.77484943448E+01  0.00000000000E+00 0.  1.
          2   -1    0    0  502    0  0.00000000000E+00 -0.00000000000E+00 -0.10811460035E+04  0.10811460035E+04  0.00000000000E+00 0. -1.
         24    2    1    2    0    0  0.36450021560E+02 -0.53430147847E+02 -0.43052021501E+03  0.44277175401E+03  0.80720417787E+02 0.  0.
        -13    1    3    3    0    0  0.28393018632E+02  0.15171387875E+02 -0.97959486406E+02  0.10311350782E+03  0.00000000000E+00 0.  1.
         14    1    3    3    0    0  0.80570029280E+01 -0.68601535721E+02 -0.33256072860E+03  0.33965824619E+03  0.00000000000E+00 0. -1.
         21    1    1    2  502  501 -0.36450021560E+02  0.53430147847E+02 -0.64287729410E+03  0.64612274379E+03  0.00000000000E+00 0.  1.
<mgrwt>
<rscale>  1 0.10343680E+03</rscale>
<asrwt>0</asrwt>
<pdfrwt beam="1">  1        2 0.16633008E+00 0.10343680E+03</pdfrwt>
<pdfrwt beam="2">  1       -1 0.11920766E-02 0.10343680E+03</pdfrwt>
<totfact> 0.35930630E+04</totfact>
</mgrwt>
</event>
<event>
 6    2  0.1063641E+001  0.8671915E+02  0.7546771E-02  0.1310997E+00
         -1   -1    0    0    0  501 -0.00000000000E+00  0.00000000000E+00  0.98736746586E+00  0.98736746586E+00  0.00000000000E+00 0.  1.
          2   -1    0    0  502    0  0.00000000000E+00 -0.00000000000E+00 -0.39079186935E+04  0.39079186935E+04  0.00000000000E+00 0. -1.
         24    2    1    2    0    0 -0.35042579046E+02 -0.12419630528E+02 -0.28622566478E+04  0.28635700323E+04  0.78345275600E+02 0.  0.
        -13    1    3    3    0    0  0.41563420735E+01 -0.35067442863E+02 -0.75294954333E+03  0.75377716570E+03  0.00000000000E+00 0.  1.
         14    1    3    3    0    0 -0.39198921120E+02  0.22647812335E+02 -0.21093071045E+04  0.21097928666E+04  0.00000000000E+00 0. -1.
         21    1    1    2  502  501  0.35042579046E+02  0.12419630528E+02 -0.10446746782E+04  0.10453360287E+04  0.00000000000E+00 0.  1.
<mgrwt>
<rscale>  1 0.86719155E+02</rscale>
<asrwt>0</asrwt>
<pdfrwt beam="1">  1        2 0.60123187E+00 0.86719155E+02</pdfrwt>
<pdfrwt beam="2">  1       -1 0.15189925E-03 0.86719155E+02</pdfrwt>
<totfact> 0.16580013E+04</totfact>
</mgrwt>
</event>
<event>
 6    2  0.1063641E+001  0.8231070E+02  0.7546771E-02  0.1322619E+00
          4   -1    0    0  502    0  0.00000000000E+00  0.00000000000E+00  0.48264232545E+02  0.48264232545E+02  0.00000000000E+00 0. -1.
         -3   -1    0    0    0  501 -0.00000000000E+00 -0.00000000000E+00 -0.66569646772E+02  0.66569646772E+02  0.00000000000E+00 0.  1.
         24    2    1    2    0    0  0.26483569215E+02 -0.13901940807E+02 -0.20556214937E+02  0.84838721367E+02  0.76683813638E+02 0.  0.
        -13    1    3    3    0    0 -0.18378112628E+02 -0.95036612255E+01 -0.32207490010E+02  0.38280504349E+02  0.00000000000E+00 0.  1.
         14    1    3    3    0    0  0.44861681844E+02 -0.43982795811E+01  0.11651275073E+02  0.46558217018E+02  0.00000000000E+00 0. -1.
         21    1    1    2  502  501 -0.26483569215E+02  0.13901940807E+02  0.22508007096E+01  0.29995157949E+02  0.00000000000E+00 0. -1.
<mgrwt>
<rscale>  1 0.82310696E+02</rscale>
<asrwt>0</asrwt>
<pdfrwt beam="1">  1        4 0.74252665E-02 0.82310696E+02</pdfrwt>
<pdfrwt beam="2">  1       -3 0.10241484E-01 0.82310696E+02</pdfrwt>
<totfact> 0.14816239E+04</totfact>
</mgrwt>
</event>
<event>
 6    2  0.1063641E+001  0.1343640E+03  0.7546771E-02  0.1221120E+00
          2   -1    0    0  502    0  0.00000000000E+00  0.00000000000E+00  0.39218082346E+03  0.39218082346E+03  0.00000000000E+00 0. -1.
         -1   -1    0    0    0  501 -0.00000000000E+00 -0.00000000000E+00 -0.74032450935E+02  0.74032450935E+02  0.00000000000E+00 0.  1.
         24    2    1    2    0    0  0.43587456458E+02  0.97935814218E+02  0.33196766558E+03  0.35812875688E+03  0.81008551686E+02 0.  0.
        -13    1    3    3    0    0  0.57216869116E+02  0.10439752779E+03  0.30085096340E+03  0.32354893927E+03  0.00000000000E+00 0.  1.
         14    1    3    3    0    0 -0.13629412659E+02 -0.64617135728E+01  0.31116702173E+02  0.34579817609E+02  0.00000000000E+00 0. -1.
         21    1    1    2  502  501 -0.43587456458E+02 -0.97935814218E+02 -0.13819293051E+02  0.10808451752E+03  0.00000000000E+00 0. -1.
<mgrwt>
<rscale>  1 0.13436397E+03</rscale>
<asrwt>0</asrwt>
<pdfrwt beam="1">  1        2 0.60335510E-01 0.13436397E+03</pdfrwt>
<pdfrwt beam="2">  1       -1 0.11389608E-01 0.13436397E+03</pdfrwt>
<totfact> 0.44551820E+03</totfact>
</mgrwt>
</event>
<event>
 6    2  0.1063641E+001  0.9582959E+02  0.7546771E-02  0.1289319E+00
         -1   -1    0    0    0  501 -0.00000000000E+00  0.00000000000E+00  0.13190881227E+03  0.13190881227E+03  0.00000000000E+00 0.  1.
          2   -1    0    0  502    0  0.00000000000E+00 -0.00000000000E+00 -0.41446619989E+02  0.41446619989E+02  0.00000000000E+00 0. -1.
         24    2    1    2    0    0 -0.51797432416E+02 -0.76269121416E+00  0.63465310372E+02  0.11493978935E+03  0.80621050933E+02 0.  0.
        -11    1    3    3    0    0 -0.18455725503E+02  0.14971152912E+02  0.73073541173E+02  0.76840690021E+02  0.00000000000E+00 0.  1.
         12    1    3    3    0    0 -0.33341706913E+02 -0.15733844126E+02 -0.96082308015E+01  0.38099099333E+02  0.00000000000E+00 0. -1.
         21    1    1    2  502  501  0.51797432416E+02  0.76269121416E+00  0.26996881906E+02  0.58415642900E+02  0.00000000000E+00 0.  1.
<mgrwt>
<rscale>  1 0.95829586E+02</rscale>
<asrwt>0</asrwt>
<pdfrwt beam="1">  1        2 0.63764031E-02 0.95829586E+02</pdfrwt>
<pdfrwt beam="2">  1       -1 0.20293663E-01 0.95829586E+02</pdfrwt>
<totfact> 0.22748164E+04</totfact>
</mgrwt>
</event>
<event>
 6    2  0.1063641E+001  0.8533236E+02  0.7546771E-02  0.1314566E+00
          2   -1    0    0  502    0  0.00000000000E+00  0.00000000000E+00  0.93766307224E+03  0.93766307224E+03  0.00000000000E+00 0. -1.
         -1   -1    0    0    0  501 -0.00000000000E+00 -0.00000000000E+00 -0.42667265164E+01  0.42667265164E+01  0.00000000000E+00 0.  1.
         24    2    1    2    0    0 -0.12603688926E+01 -0.27250582583E+02  0.46671306249E+03  0.47444988515E+03  0.80854363111E+02 0.  0.
        -13    1    3    3    0    0 -0.94602181583E+01 -0.42921754382E+02  0.12915325147E+03  0.13642703212E+03  0.00000000000E+00 0.  1.
         14    1    3    3    0    0  0.81998492658E+01  0.15671171799E+02  0.33755981102E+03  0.33802285303E+03  0.00000000000E+00 0. -1.
         21    1    1    2  502  501  0.12603688926E+01  0.27250582583E+02  0.46668328324E+03  0.46747991362E+03  0.00000000000E+00 0. -1.
<mgrwt>
<rscale>  1 0.85332355E+02</rscale>
<asrwt>0</asrwt>
<pdfrwt beam="1">  1        2 0.14425569E+00 0.85332355E+02</pdfrwt>
<pdfrwt beam="2">  1       -1 0.65642021E-03 0.85332355E+02</pdfrwt>
<totfact> 0.98905897E+04</totfact>
</mgrwt>
</event>
<event>
 6    2  0.1063641E+001  0.9417587E+02  0.7546771E-02  0.1293043E+00
         -1   -1    0    0    0  501 -0.00000000000E+00  0.00000000000E+00  0.16957407948E+02  0.16957407948E+02  0.00000000000E+00 0.  1.
          2   -1    0    0  502    0  0.00000000000E+00 -0.00000000000E+00 -0.31518117614E+03  0.31518117614E+03  0.00000000000E+00 0. -1.
         24    2    1    2    0    0  0.33419769213E+02  0.16023201731E+02 -0.13399428603E+03  0.16377900825E+03  0.86576387567E+02 0.  0.
        -13    1    3    3    0    0  0.50094756327E+02  0.64183875289E+01 -0.31563172814E+02  0.59555975251E+02  0.00000000000E+00 0.  1.
         14    1    3    3    0    0 -0.16674987114E+02  0.96048142019E+01 -0.10243111322E+03  0.10422303300E+03  0.00000000000E+00 0. -1.
         21    1    1    2  502  501 -0.33419769213E+02 -0.16023201731E+02 -0.16422948215E+03  0.16835957584E+03  0.00000000000E+00 0. -1.
<mgrwt>
<rscale>  1 0.94175872E+02</rscale>
<asrwt>0</asrwt>
<pdfrwt beam="1">  1        2 0.48489414E-01 0.94175872E+02</pdfrwt>
<pdfrwt beam="2">  1       -1 0.26088319E-02 0.94175872E+02</pdfrwt>
<totfact> 0.48182710E+04</totfact>
</mgrwt>
</event>
<event>
 6    2  0.1063641E+001  0.8358391E+02  0.7546771E-02  0.1319178E+00
         -1   -1    0    0    0  501 -0.00000000000E+00  0.00000000000E+00  0.24396801577E+01  0.24396801577E+01  0.00000000000E+00 0.  1.
          2   -1    0    0  502    0  0.00000000000E+00 -0.00000000000E+00 -0.11606407319E+04  0.11606407319E+04  0.00000000000E+00 0. -1.
         24    2    1    2    0    0 -0.68234116068E+01 -0.21793843920E+02 -0.91400248595E+03  0.91781632966E+03  0.80403607455E+02 0.  0.
        -11    1    3    3    0    0  0.21952798232E+01 -0.36671590538E+02 -0.18532359035E+03  0.18892976988E+03  0.00000000000E+00 0.  1.
         12    1    3    3    0    0 -0.90186914300E+01  0.14877746618E+02 -0.72867889560E+03  0.72888655979E+03  0.00000000000E+00 0. -1.
         21    1    1    2  502  501  0.68234116068E+01  0.21793843920E+02 -0.24419856583E+03  0.24526408244E+03  0.00000000000E+00 0. -1.
<mgrwt>
<rscale>  1 0.83583914E+02</rscale>
<asrwt>0</asrwt>
<pdfrwt beam="1">  1        2 0.17856034E+00 0.83583914E+02</pdfrwt>
<pdfrwt beam="2">  1       -1 0.37533494E-03 0.83583914E+02</pdfrwt>
<totfact> 0.16038843E+05</totfact>
</mgrwt>
</event>
<event>
 6    2  0.1063641E+001  0.1132388E+03  0.7546771E-02  0.1254687E+00
         -1   -1    0    0    0  501 -0.00000000000E+00  0.00000000000E+00  0.14550687897E+03  0.14550687897E+03  0.00000000000E+00 0.  1.
          2   -1    0    0  502    0  0.00000000000E+00 -0.00000000000E+00 -0.19023035261E+03  0.19023035261E+03  0.00000000000E+00 0. -1.
         24    2    1    2    0    0 -0.55100046705E+02  0.58730194584E+02  0.11216569541E+03  0.15938683531E+03  0.79610107016E+02 0.  0.
        -11    1    3    3    0    0 -0.33368174585E+02  0.44652314284E+02  0.12001614681E+03  0.13232966312E+03  0.00000000000E+00 0.  1.
         12    1    3    3    0    0 -0.21731872119E+02  0.14077880300E+02 -0.78504513992E+01  0.27057172186E+02  0.00000000000E+00 0. -1.
         21    1    1    2  502  501  0.55100046705E+02 -0.58730194584E+02 -0.15688916905E+03  0.17635039628E+03  0.00000000000E+00 0. -1.
<mgrwt>
<rscale>  1 0.11323877E+03</rscale>
<asrwt>0</asrwt>
<pdfrwt beam="1">  1        2 0.29266208E-01 0.11323877E+03</pdfrwt>
<pdfrwt beam="2">  1       -1 0.22385674E-01 0.11323877E+03</pdfrwt>
<totfact> 0.32935325E+03</totfact>
</mgrwt>
</event>
<event>
 6    2  0.1063641E+001  0.8656619E+02  0.7546771E-02  0.1311387E+00
          2   -1    0    0  502    0  0.00000000000E+00  0.00000000000E+00  0.70899262284E+01  0.70899262284E+01  0.00000000000E+00 0. -1.
         -1   -1    0    0    0  501 -0.00000000000E+00 -0.00000000000E+00 -0.53239631907E+03  0.53239631907E+03  0.00000000000E+00 0.  1.
         24    2    1    2    0    0 -0.10662258442E+02 -0.26129537933E+02 -0.46386744503E+03  0.47187573712E+03  0.81836839004E+02 0.  0.
        -11    1    3    3    0    0  0.75099071630E+00 -0.46348262065E+02 -0.41704206070E+03  0.41961030228E+03  0.00000000000E+00 0.  1.
         12    1    3    3    0    0 -0.11413249158E+02  0.20218724133E+02 -0.46825384324E+02  0.52265434840E+02  0.00000000000E+00 0. -1.
         21    1    1    2  502  501  0.10662258442E+02  0.26129537933E+02 -0.61438947812E+02  0.67610508177E+02  0.00000000000E+00 0. -1.
<mgrwt>
<rscale>  1 0.86566187E+02</rscale>
<asrwt>0</asrwt>
<pdfrwt beam="1">  1        2 0.10907580E-02 0.86566187E+02</pdfrwt>
<pdfrwt beam="2">  1       -1 0.81907120E-01 0.86566187E+02</pdfrwt>
<totfact> 0.20021388E+04</totfact>
</mgrwt>
</event>
<event>
 6    2  0.1063641E+001  0.8133639E+02  0.7546771E-02  0.1325301E+00
          2   -1    0    0  502    0  0.00000000000E+00  0.00000000000E+00  0.11197393393E+04  0.11197393393E+04  0.00000000000E+00 0. -1.
         -1   -1    0    0    0  501 -0.00000000000E+00 -0.00000000000E+00 -0.25095685253E+01  0.25095685253E+01  0.00000000000E+00 0.  1.
         24    2    1    2    0    0  0.22698509997E+02  0.83167000373E+00  0.77204646402E+03  0.77631910383E+03  0.78100539899E+02 0.  0.
        -13    1    3    3    0    0  0.40586685053E+02 -0.13709048705E+02  0.24137106163E+03  0.24514323652E+03  0.00000000000E+00 0.  1.
         14    1    3    3    0    0 -0.17888175056E+02  0.14540718708E+02  0.53067540239E+03  0.53117586731E+03  0.00000000000E+00 0. -1.
         21    1    1    2  502  501 -0.22698509997E+02 -0.83167000373E+00  0.34518330678E+03  0.34592980402E+03  0.00000000000E+00 0.  1.
<mgrwt>
<rscale>  1 0.81336390E+02</rscale>
<asrwt>0</asrwt>
<pdfrwt beam="1">  1        2 0.17226719E+00 0.81336390E+02</pdfrwt>
<pdfrwt beam="2">  1       -1 0.38608836E-03 0.81336390E+02</pdfrwt>
<totfact> 0.16178857E+05</totfact>
</mgrwt>
</event>
<event>
 6    2  0.1063641E+001  0.9806669E+02  0.7546771E-02  0.1284415E+00
         -1   -1    0    0    0  501 -0.00000000000E+00  0.00000000000E+00  0.77366553255E+02  0.77366553255E+02  0.00000000000E+00 0.  1.
          2   -1    0    0  502    0  0.00000000000E+00 -0.00000000000E+00 -0.78550478476E+02  0.78550478476E+02  0.00000000000E+00 0. -1.
         24    2    1    2    0    0  0.26421837682E+02  0.48986747594E+02 -0.13274179443E+02  0.98961003135E+02  0.80741942974E+02 0.  0.
        -11    1    3    3    0    0 -0.22479716911E+02  0.17660819143E+02  0.17213695393E+02  0.33369949270E+02  0.00000000000E+00 0.  1.
         12    1    3    3    0    0  0.48901554594E+02  0.31325928451E+02 -0.30487874837E+02  0.65591053865E+02  0.00000000000E+00 0. -1.
         21    1    1    2  502  501 -0.26421837682E+02 -0.48986747594E+02  0.12090254223E+02  0.56956028597E+02  0.00000000000E+00 0.  1.
<mgrwt>
<rscale>  1 0.98066693E+02</rscale>
<asrwt>0</asrwt>
<pdfrwt beam="1">  1        2 0.12084689E-01 0.98066693E+02</pdfrwt>
<pdfrwt beam="2">  1       -1 0.11902547E-01 0.98066693E+02</pdfrwt>
<totfact> 0.23857236E+04</totfact>
</mgrwt>
</event>
<event>
 6    2  0.1063641E+001  0.1111417E+03  0.7546771E-02  0.1258470E+00
         -1   -1    0    0    0  501 -0.00000000000E+00  0.00000000000E+00  0.31216703357E+01  0.31216703357E+01  0.00000000000E+00 0.  1.
          2   -1    0    0  502    0  0.00000000000E+00 -0.00000000000E+00 -0.29110612631E+04  0.29110612631E+04  0.00000000000E+00 0. -1.
         24    2    1    2    0    0 -0.76287792442E+02 -0.49633579429E+01 -0.19701479677E+04  0.19732803911E+04  0.80672330663E+02 0.  0.
        -11    1    3    3    0    0 -0.31552402024E+02  0.37767203001E+02 -0.90646998873E+03  0.90780491085E+03  0.00000000000E+00 0.  1.
         12    1    3    3    0    0 -0.44735390418E+02 -0.42730560944E+02 -0.10636779790E+04  0.10654754802E+04  0.00000000000E+00 0. -1.
         21    1    1    2  502  501  0.76287792442E+02  0.49633579429E+01 -0.93779162512E+03  0.94090254242E+03  0.00000000000E+00 0.  1.
<mgrwt>
<rscale>  1 0.11114174E+03</rscale>
<asrwt>0</asrwt>
<pdfrwt beam="1">  1        2 0.44785810E+00 0.11114174E+03</pdfrwt>
<pdfrwt beam="2">  1       -1 0.48025427E-03 0.11114174E+03</pdfrwt>
<totfact> 0.14265815E+04</totfact>
</mgrwt>
</event>
<event>
 6    2  0.1063641E+001  0.8607155E+02  0.7546771E-02  0.1312654E+00
         -1   -1    0    0    0  501 -0.00000000000E+00  0.00000000000E+00  0.50343213124E+01  0.50343213124E+01  0.00000000000E+00 0.  1.
          2   -1    0    0  502    0  0.00000000000E+00 -0.00000000000E+00 -0.26318135328E+04  0.26318135328E+04  0.00000000000E+00 0. -1.
         24    2    1    2    0    0 -0.70055166805E+01  0.33089493258E+02 -0.37249303669E+03  0.38230795655E+03  0.79147453711E+02 0.  0.
        -13    1    3    3    0    0  0.33862719962E+02  0.29648077191E+02 -0.20145657749E+03  0.20642297571E+03  0.00000000000E+00 0.  1.
         14    1    3    3    0    0 -0.40868236642E+02  0.34414160671E+01 -0.17103645920E+03  0.17588498084E+03  0.00000000000E+00 0. -1.
         21    1    1    2  502  501  0.70055166805E+01 -0.33089493258E+02 -0.22542861748E+04  0.22545398976E+04  0.00000000000E+00 0. -1.
<mgrwt>
<rscale>  1 0.86071547E+02</rscale>
<asrwt>0</asrwt>
<pdfrwt beam="1">  1        2 0.40489478E+00 0.86071547E+02</pdfrwt>
<pdfrwt beam="2">  1       -1 0.77451022E-03 0.86071547E+02</pdfrwt>
<totfact> 0.10298763E+04</totfact>
</mgrwt>
</event>
<event>
 6    2  0.1063641E+001  0.9051294E+02  0.7546771E-02  0.1301614E+00
         -1   -1    0    0    0  501 -0.00000000000E+00  0.00000000000E+00  0.25279389573E+02  0.25279389573E+02  0.00000000000E+00 0.  1.
          2   -1    0    0  502    0  0.00000000000E+00 -0.00000000000E+00 -0.41658536483E+03  0.41658536483E+03  0.00000000000E+00 0. -1.
         24    2    1    2    0    0 -0.13469384665E+01  0.41790386588E+02 -0.61524885158E+02  0.10944360880E+03  0.80276655138E+02 0.  0.
        -11    1    3    3    0    0  0.24323654801E+01  0.63091960643E+02 -0.26932219536E+02  0.68642962849E+02  0.00000000000E+00 0.  1.
         12    1    3    3    0    0 -0.37793039465E+01 -0.21301574055E+02 -0.34592665622E+02  0.40800645956E+02  0.00000000000E+00 0. -1.
         21    1    1    2  502  501  0.13469384665E+01 -0.41790386588E+02 -0.32978109009E+03  0.33242114559E+03  0.00000000000E+00 0. -1.
<mgrwt>
<rscale>  1 0.90512938E+02</rscale>
<asrwt>0</asrwt>
<pdfrwt beam="1">  1        2 0.64090053E-01 0.90512938E+02</pdfrwt>
<pdfrwt beam="2">  1       -1 0.38891371E-02 0.90512938E+02</pdfrwt>
<totfact> 0.20114560E+04</totfact>
</mgrwt>
</event>
<event>
 6    2  0.1063641E+001  0.8365512E+02  0.7546771E-02  0.1318987E+00
          2   -1    0    0  502    0  0.00000000000E+00  0.00000000000E+00  0.13749707448E+03  0.13749707448E+03  0.00000000000E+00 0. -1.
         -1   -1    0    0    0  501 -0.00000000000E+00 -0.00000000000E+00 -0.23255110453E+02  0.23255110453E+02  0.00000000000E+00 0.  1.
         24    2    1    2    0    0 -0.25538170081E+02 -0.78997028844E+01  0.70082099320E+02  0.10913148087E+03  0.79269010564E+02 0.  0.
        -13    1    3    3    0    0  0.25645729747E+02 -0.16720743795E+02  0.17692592949E+02  0.35359787507E+02  0.00000000000E+00 0.  1.
         14    1    3    3    0    0 -0.51183899828E+02  0.88210409107E+01  0.52389506371E+02  0.73771693366E+02  0.00000000000E+00 0. -1.
         21    1    1    2  502  501  0.25538170081E+02  0.78997028844E+01  0.44159864711E+02  0.51620704064E+02  0.00000000000E+00 0.  1.
<mgrwt>
<rscale>  1 0.83655122E+02</rscale>
<asrwt>0</asrwt>
<pdfrwt beam="1">  1        2 0.21153396E-01 0.83655122E+02</pdfrwt>
<pdfrwt beam="2">  1       -1 0.35777094E-02 0.83655122E+02</pdfrwt>
<totfact> 0.72903449E+04</totfact>
</mgrwt>
</event>
<event>
 6    2  0.1063641E+001  0.9052621E+02  0.7546771E-02  0.1301582E+00
         -1   -1    0    0    0  501 -0.00000000000E+00  0.00000000000E+00  0.94665027464E+01  0.94665027464E+01  0.00000000000E+00 0.  1.
          2   -1    0    0  502    0  0.00000000000E+00 -0.00000000000E+00 -0.46698700045E+03  0.46698700045E+03  0.00000000000E+00 0. -1.
         24    2    1    2    0    0  0.19153501620E+02  0.36097719816E+02 -0.34720902849E+03  0.35881625468E+03  0.80778048699E+02 0.  0.
        -13    1    3    3    0    0  0.26197148283E+02 -0.60050353449E+01 -0.37262637867E+02  0.45944044319E+02  0.00000000000E+00 0.  1.
         14    1    3    3    0    0 -0.70436466628E+01  0.42102755161E+02 -0.30994639063E+03  0.31287221036E+03  0.00000000000E+00 0. -1.
         21    1    1    2  502  501 -0.19153501620E+02 -0.36097719816E+02 -0.11031146920E+03  0.11763724852E+03  0.00000000000E+00 0.  1.
<mgrwt>
<rscale>  1 0.90526213E+02</rscale>
<asrwt>0</asrwt>
<pdfrwt beam="1">  1        2 0.71844166E-01 0.90526213E+02</pdfrwt>
<pdfrwt beam="2">  1       -1 0.14563848E-02 0.90526213E+02</pdfrwt>
<totfact> 0.72784933E+04</totfact>
</mgrwt>
</event>
<event>
 6    2  0.1063641E+001  0.8437216E+02  0.7546771E-02  0.1317083E+00
          4   -1    0    0  502    0  0.00000000000E+00  0.00000000000E+00  0.29538689310E+02  0.29538689310E+02  0.00000000000E+00 0. -1.
         -3   -1    0    0    0  501 -0.00000000000E+00 -0.00000000000E+00 -0.29142456590E+03  0.29142456590E+03  0.00000000000E+00 0.  1.
         24    2    1    2    0    0  0.18311490855E+02 -0.14806998264E+02 -0.27924152430E+03  0.29170959899E+03  0.81019154222E+02 0.  0.
        -13    1    3    3    0    0  0.25093675865E+02 -0.88901024273E+01 -0.28123403877E+03  0.28249125837E+03  0.00000000000E+00 0.  1.
         14    1    3    3    0    0 -0.67821850101E+01 -0.59168958367E+01  0.19925144698E+01  0.92183406189E+01  0.00000000000E+00 0. -1.
         21    1    1    2  502  501 -0.18311490855E+02  0.14806998264E+02  0.17355647713E+02  0.29253656224E+02  0.00000000000E+00 0. -1.
<mgrwt>
<rscale>  1 0.84372159E+02</rscale>
<asrwt>0</asrwt>
<pdfrwt beam="1">  1        4 0.45444136E-02 0.84372159E+02</pdfrwt>
<pdfrwt beam="2">  1       -3 0.44834550E-01 0.84372159E+02</pdfrwt>
<totfact> 0.24204805E+03</totfact>
</mgrwt>
</event>
<event>
 6    2  0.1063641E+001  0.8381257E+02  0.7546771E-02  0.1318567E+00
          2   -1    0    0  502    0  0.00000000000E+00  0.00000000000E+00  0.10124170742E+03  0.10124170742E+03  0.00000000000E+00 0. -1.
         -1   -1    0    0    0  501 -0.00000000000E+00 -0.00000000000E+00 -0.37818089865E+02  0.37818089865E+02  0.00000000000E+00 0.  1.
         24    2    1    2    0    0 -0.24756297164E+02 -0.30498890533E+01  0.74152472386E+02  0.11190681589E+03  0.80014812442E+02 0.  0.
        -11    1    3    3    0    0  0.34280678402E+01 -0.16627555258E+02 -0.11642644444E+02  0.20585878962E+02  0.00000000000E+00 0.  1.
         12    1    3    3    0    0 -0.28184365004E+02  0.13577666205E+02  0.85795116831E+02  0.91320936933E+02  0.00000000000E+00 0. -1.
         21    1    1    2  502  501  0.24756297164E+02  0.30498890533E+01 -0.10728854829E+02  0.27152981392E+02  0.00000000000E+00 0.  1.
<mgrwt>
<rscale>  1 0.83812566E+02</rscale>
<asrwt>0</asrwt>
<pdfrwt beam="1">  1        2 0.15575647E-01 0.83812566E+02</pdfrwt>
<pdfrwt beam="2">  1       -1 0.58181677E-02 0.83812566E+02</pdfrwt>
<totfact> 0.50736804E+04</totfact>
</mgrwt>
</event>
<event>
 6    2  0.1063641E+001  0.9344016E+02  0.7546771E-02  0.1294728E+00
          4   -1    0    0  502    0  0.00000000000E+00  0.00000000000E+00  0.10150025729E+04  0.10150025729E+04  0.00000000000E+00 0. -1.
         -3   -1    0    0    0  501 -0.00000000000E+00 -0.00000000000E+00 -0.17235874371E+02  0.17235874371E+02  0.00000000000E+00 0.  1.
         24    2    1    2    0    0  0.19383690100E+02  0.42214213583E+02  0.11466521766E+03  0.14791611193E+03  0.81075870376E+02 0.  0.
        -11    1    3    3    0    0 -0.17507956388E+02  0.35921661632E+02  0.17186624398E+02  0.43500280108E+02  0.00000000000E+00 0.  1.
         12    1    3    3    0    0  0.36891646488E+02  0.62925519501E+01  0.97478593260E+02  0.10441583182E+03  0.00000000000E+00 0. -1.
         21    1    1    2  502  501 -0.19383690100E+02 -0.42214213583E+02  0.88310148083E+03  0.88432233531E+03  0.00000000000E+00 0. -1.
<mgrwt>
<rscale>  1 0.93440163E+02</rscale>
<asrwt>0</asrwt>
<pdfrwt beam="1">  1        4 0.15615420E+00 0.93440163E+02</pdfrwt>
<pdfrwt beam="2">  1       -3 0.26516738E-02 0.93440163E+02</pdfrwt>
<totfact> 0.32620063E+02</totfact>
</mgrwt>
</event>
<event>
 6    2  0.1063641E+001  0.9104341E+02  0.7546771E-02  0.1300344E+00
         -1   -1    0    0    0  501 -0.00000000000E+00  0.00000000000E+00  0.51520320053E+03  0.51520320053E+03  0.00000000000E+00 0.  1.
          2   -1    0    0  502    0  0.00000000000E+00 -0.00000000000E+00 -0.18658781900E+02  0.18658781900E+02  0.00000000000E+00 0. -1.
         24    2    1    2    0    0  0.46020641514E+02 -0.70190169835E+01  0.47302178465E+03  0.48170375821E+03  0.78241522683E+02 0.  0.
        -11    1    3    3    0    0  0.42544955531E+02  0.28505648946E+02  0.34572096822E+03  0.34949339497E+03  0.00000000000E+00 0.  1.
         12    1    3    3    0    0  0.34756859827E+01 -0.35524665929E+02  0.12730081643E+03  0.13221036324E+03  0.00000000000E+00 0. -1.
         21    1    1    2  502  501 -0.46020641514E+02  0.70190169835E+01  0.23522633978E+02  0.52158224222E+02  0.00000000000E+00 0. -1.
<mgrwt>
<rscale>  1 0.91043407E+02</rscale>
<asrwt>0</asrwt>
<pdfrwt beam="1">  1        2 0.28705822E-02 0.91043407E+02</pdfrwt>
<pdfrwt beam="2">  1       -1 0.79262020E-01 0.91043407E+02</pdfrwt>
<totfact> 0.58223393E+03</totfact>
</mgrwt>
</event>
<event>
 6    2  0.1063641E+001  0.8333270E+02  0.7546771E-02  0.1319851E+00
          2   -1    0    0  502    0  0.00000000000E+00  0.00000000000E+00  0.20510655166E+04  0.20510655166E+04  0.00000000000E+00 0. -1.
         -1   -1    0    0    0  501 -0.00000000000E+00 -0.00000000000E+00 -0.15868352207E+01  0.15868352207E+01  0.00000000000E+00 0.  1.
         24    2    1    2    0    0 -0.28989649569E+02  0.95687701166E+01  0.15568762684E+04  0.15591048887E+04  0.77539522284E+02 0.  0.
        -11    1    3    3    0    0  0.49982850907E+01 -0.30151623487E+02  0.65850857738E+03  0.65921745255E+03  0.00000000000E+00 0.  1.
         12    1    3    3    0    0 -0.33987934660E+02  0.39720393604E+02  0.89836769103E+03  0.89988743611E+03  0.00000000000E+00 0. -1.
         21    1    1    2  502  501  0.28989649569E+02 -0.95687701166E+01  0.49260241296E+03  0.49354746317E+03  0.00000000000E+00 0.  1.
<mgrwt>
<rscale>  1 0.83332699E+02</rscale>
<asrwt>0</asrwt>
<pdfrwt beam="1">  1        2 0.31554642E+00 0.83332699E+02</pdfrwt>
<pdfrwt beam="2">  1       -1 0.24413014E-03 0.83332699E+02</pdfrwt>
<totfact> 0.10230997E+05</totfact>
</mgrwt>
</event>
<event>
 6    2  0.1063641E+001  0.8169824E+02  0.7546771E-02  0.1324300E+00
          2   -1    0    0  502    0  0.00000000000E+00  0.00000000000E+00  0.11679291472E+04  0.11679291472E+04  0.00000000000E+00 0. -1.
         -1   -1    0    0    0  501 -0.00000000000E+00 -0.00000000000E+00 -0.47489138041E+01  0.47489138041E+01  0.00000000000E+00 0.  1.
         24    2    1    2    0    0  0.30962365607E+02  0.64594500360E+01  0.37198810237E+03  0.38085397651E+03  0.75327355882E+02 0.  0.
        -11    1    3    3    0    0  0.42652278149E+02  0.24898453030E+02  0.15284668831E+03  0.16062770596E+03  0.00000000000E+00 0.  1.
         12    1    3    3    0    0 -0.11689912543E+02 -0.18439002994E+02  0.21914141405E+03  0.22022627055E+03  0.00000000000E+00 0. -1.
         21    1    1    2  502  501 -0.30962365607E+02 -0.64594500360E+01  0.79119213106E+03  0.79182408452E+03  0.00000000000E+00 0. -1.
<mgrwt>
<rscale>  1 0.81698244E+02</rscale>
<asrwt>0</asrwt>
<pdfrwt beam="1">  1        2 0.17968118E+00 0.81698244E+02</pdfrwt>
<pdfrwt beam="2">  1       -1 0.73060305E-03 0.81698244E+02</pdfrwt>
<totfact> 0.62535805E+04</totfact>
</mgrwt>
</event>
<event>
 6    2  0.1063641E+001  0.8392091E+02  0.7546771E-02  0.1318279E+00
          2   -1    0    0  502    0  0.00000000000E+00  0.00000000000E+00  0.19822949117E+04  0.19822949117E+04  0.00000000000E+00 0. -1.
         -1   -1    0    0    0  501 -0.00000000000E+00 -0.00000000000E+00 -0.16351260970E+01  0.16351260970E+01  0.00000000000E+00 0.  1.
         24    2    1    2    0    0  0.23594193002E+02 -0.16848405539E+02  0.13519697719E+04  0.13545718822E+04  0.78753826236E+02 0.  0.
        -13    1    3    3    0    0 -0.24648067467E+02 -0.38412482756E+01  0.20466523270E+03  0.20617987267E+03  0.00000000000E+00 0.  1.
         14    1    3    3    0    0  0.48242260469E+02 -0.13007157263E+02  0.11473045392E+04  0.11483920095E+04  0.00000000000E+00 0. -1.
         21    1    1    2  502  501 -0.23594193002E+02  0.16848405539E+02  0.62869001372E+03  0.62935815563E+03  0.00000000000E+00 0. -1.
<mgrwt>
<rscale>  1 0.83920914E+02</rscale>
<asrwt>0</asrwt>
<pdfrwt beam="1">  1        2 0.30496652E+00 0.83920914E+02</pdfrwt>
<pdfrwt beam="2">  1       -1 0.25155945E-03 0.83920914E+02</pdfrwt>
<totfact> 0.10633310E+05</totfact>
</mgrwt>
</event>
<event>
 6    2  0.1063641E+001  0.1023917E+03  0.7546771E-02  0.1275345E+00
         -1   -1    0    0    0  501 -0.00000000000E+00  0.00000000000E+00  0.15342203141E+03  0.15342203141E+03  0.00000000000E+00 0.  1.
          2   -1    0    0  502    0  0.00000000000E+00 -0.00000000000E+00 -0.51045968732E+02  0.51045968732E+02  0.00000000000E+00 0. -1.
         24    2    1    2    0    0  0.41704896992E+02  0.49463351745E+02  0.28537055505E+02  0.10629406990E+03  0.79360847777E+02 0.  0.
        -13    1    3    3    0    0  0.38292760068E+01  0.45644447503E+02  0.45549873785E+02  0.64597754949E+02  0.00000000000E+00 0.  1.
         14    1    3    3    0    0  0.37875620985E+02  0.38189042420E+01 -0.17012818280E+02  0.41696314951E+02  0.00000000000E+00 0. -1.
         21    1    1    2  502  501 -0.41704896992E+02 -0.49463351745E+02  0.73839007175E+02  0.98173930244E+02  0.00000000000E+00 0.  1.
<mgrwt>
<rscale>  1 0.10239173E+03</rscale>
<asrwt>0</asrwt>
<pdfrwt beam="1">  1        2 0.78532261E-02 0.10239173E+03</pdfrwt>
<pdfrwt beam="2">  1       -1 0.23603389E-01 0.10239173E+03</pdfrwt>
<totfact> 0.13830743E+04</totfact>
</mgrwt>
</event>
<event>
 6    2  0.1063641E+001  0.9697228E+02  0.7546771E-02  0.1286795E+00
          2   -1    0    0  502    0  0.00000000000E+00  0.00000000000E+00  0.31243959875E+02  0.31243959875E+02  0.00000000000E+00 0. -1.
         -1   -1    0    0    0  501 -0.00000000000E+00 -0.00000000000E+00 -0.34793015740E+03  0.34793015740E+03  0.00000000000E+00 0.  1.
         24    2    1    2    0    0 -0.45687941890E+02  0.21300710004E+02 -0.31406670505E+03  0.32869669636E+03  0.82840296327E+02 0.  0.
        -11    1    3    3    0    0 -0.31950476083E+02 -0.20898179484E+02 -0.23452713313E+03  0.23761427357E+03  0.00000000000E+00 0.  1.
         12    1    3    3    0    0 -0.13737465807E+02  0.42198889488E+02 -0.79539571922E+02  0.91082422796E+02  0.00000000000E+00 0. -1.
         21    1    1    2  502  501  0.45687941890E+02 -0.21300710004E+02 -0.26194924670E+01  0.50477420909E+02  0.00000000000E+00 0.  1.
<mgrwt>
<rscale>  1 0.96972279E+02</rscale>
<asrwt>0</asrwt>
<pdfrwt beam="1">  1        2 0.48067629E-02 0.96972279E+02</pdfrwt>
<pdfrwt beam="2">  1       -1 0.53527719E-01 0.96972279E+02</pdfrwt>
<totfact> 0.63201512E+03</totfact>
</mgrwt>
</event>
<event>
 6    2  0.1063641E+001  0.1237656E+03  0.7546771E-02  0.1237011E+00
         -1   -1    0    0    0  501 -0.00000000000E+00  0.00000000000E+00  0.72419808176E+01  0.72419808176E+01  0.00000000000E+00 0.  1.
          2   -1    0    0  502    0  0.00000000000E+00 -0.00000000000E+00 -0.12069130324E+04  0.12069130324E+04  0.00000000000E+00 0. -1.
         24    2    1    2    0    0  0.50761423015E+02  0.34105100162E+02 -0.71379151189E+03  0.72444202890E+03  0.10760135156E+03 0.  0.
        -11    1    3    3    0    0 -0.16049991219E+02  0.19650442136E+02 -0.41199844675E+02  0.48385631085E+02  0.00000000000E+00 0.  1.
         12    1    3    3    0    0  0.66811414234E+02  0.14454658026E+02 -0.67259166722E+03  0.67605639781E+03  0.00000000000E+00 0. -1.
         21    1    1    2  502  501 -0.50761423015E+02 -0.34105100162E+02 -0.48587953968E+03  0.48971298431E+03  0.00000000000E+00 0. -1.
<mgrwt>
<rscale>  1 0.12376563E+03</rscale>
<asrwt>0</asrwt>
<pdfrwt beam="1">  1        2 0.18567899E+00 0.12376563E+03</pdfrwt>
<pdfrwt beam="2">  1       -1 0.11141505E-02 0.12376563E+03</pdfrwt>
<totfact> 0.34183868E+04</totfact>
</mgrwt>
</event>
<event>
 6    2  0.1063641E+001  0.8562895E+02  0.7546771E-02  0.1313796E+00
          2   -1    0    0  502    0  0.00000000000E+00  0.00000000000E+00  0.10917613402E+03  0.10917613402E+03  0.00000000000E+00 0. -1.
         -1   -1    0    0    0  501 -0.00000000000E+00 -0.00000000000E+00 -0.31581155198E+02  0.31581155198E+02  0.00000000000E+00 0.  1.
         24    2    1    2    0    0 -0.40943798516E+01 -0.28701986821E+02  0.43638471511E+02  0.96107402515E+02  0.80571388398E+02 0.  0.
        -11    1    3    3    0    0  0.15537690338E+02 -0.21473864099E+02 -0.17317481650E+02  0.31661361801E+02  0.00000000000E+00 0.  1.
         12    1    3    3    0    0 -0.19632070189E+02 -0.72281227221E+01  0.60955953160E+02  0.64446040714E+02  0.00000000000E+00 0. -1.
         21    1    1    2  502  501  0.40943798516E+01  0.28701986821E+02  0.33956507310E+02  0.44649886703E+02  0.00000000000E+00 0.  1.
<mgrwt>
<rscale>  1 0.85628947E+02</rscale>
<asrwt>0</asrwt>
<pdfrwt beam="1">  1        2 0.16796328E-01 0.85628947E+02</pdfrwt>
<pdfrwt beam="2">  1       -1 0.48586393E-02 0.85628947E+02</pdfrwt>
<totfact> 0.60777569E+04</totfact>
</mgrwt>
</event>
<event>
 6    2  0.1063641E+001  0.8712429E+02  0.7546771E-02  0.1309969E+00
         -1   -1    0    0    0  501 -0.00000000000E+00  0.00000000000E+00  0.27760228730E+01  0.27760228730E+01  0.00000000000E+00 0.  1.
          2   -1    0    0  502    0  0.00000000000E+00 -0.00000000000E+00 -0.21928781067E+04  0.21928781067E+04  0.00000000000E+00 0. -1.
         24    2    1    2    0    0 -0.18336532526E+02 -0.31719341366E+02 -0.74336244871E+03  0.74845064808E+03  0.79046172646E+02 0.  0.
        -11    1    3    3    0    0 -0.41155088947E+01  0.23552214682E+02 -0.11253683028E+03  0.11504860885E+03  0.00000000000E+00 0.  1.
         12    1    3    3    0    0 -0.14221023631E+02 -0.55271556047E+02 -0.63082561844E+03  0.63340203923E+03  0.00000000000E+00 0. -1.
         21    1    1    2  502  501  0.18336532526E+02  0.31719341366E+02 -0.14467396351E+04  0.14472034815E+04  0.00000000000E+00 0.  1.
<mgrwt>
<rscale>  1 0.87124293E+02</rscale>
<asrwt>0</asrwt>
<pdfrwt beam="1">  1        2 0.33736701E+00 0.87124293E+02</pdfrwt>
<pdfrwt beam="2">  1       -1 0.42707899E-03 0.87124293E+02</pdfrwt>
<totfact> 0.40045551E+04</totfact>
</mgrwt>
</event>
<event>
 6    2  0.1063641E+001  0.8533485E+02  0.7546771E-02  0.1314559E+00
          2   -1    0    0  502    0  0.00000000000E+00  0.00000000000E+00  0.24185933550E+02  0.24185933550E+02  0.00000000000E+00 0. -1.
         -1   -1    0    0    0  501 -0.00000000000E+00 -0.00000000000E+00 -0.17334414962E+03  0.17334414962E+03  0.00000000000E+00 0.  1.
         24    2    1    2    0    0 -0.21914818727E+02 -0.18391952724E+02 -0.14551257065E+03  0.16868889847E+03  0.80395976542E+02 0.  0.
        -13    1    3    3    0    0 -0.11346138031E+02 -0.50273129915E+02 -0.93803840126E+02  0.10702935514E+03  0.00000000000E+00 0.  1.
         14    1    3    3    0    0 -0.10568680695E+02  0.31881177191E+02 -0.51708730522E+02  0.61659543324E+02  0.00000000000E+00 0. -1.
         21    1    1    2  502  501  0.21914818727E+02  0.18391952724E+02 -0.36456454257E+01  0.28841184709E+02  0.00000000000E+00 0. -1.
<mgrwt>
<rscale>  1 0.85334848E+02</rscale>
<asrwt>0</asrwt>
<pdfrwt beam="1">  1        2 0.37209131E-02 0.85334848E+02</pdfrwt>
<pdfrwt beam="2">  1       -1 0.26668329E-01 0.85334848E+02</pdfrwt>
<totfact> 0.28933434E+04</totfact>
</mgrwt>
</event>
<event>
 6    2  0.1063641E+001  0.8446234E+02  0.7546771E-02  0.1316845E+00
         -1   -1    0    0    0  501 -0.00000000000E+00  0.00000000000E+00  0.71946961168E+02  0.71946961168E+02  0.00000000000E+00 0.  1.
          2   -1    0    0  502    0  0.00000000000E+00 -0.00000000000E+00 -0.40645280208E+02  0.40645280208E+02  0.00000000000E+00 0. -1.
         24    2    1    2    0    0  0.23255249666E+02 -0.34055298986E+01  0.27197865582E+02  0.88733373600E+02  0.81126342376E+02 0.  0.
        -11    1    3    3    0    0  0.46194711396E+02 -0.20274649081E+02  0.32164035990E+02  0.59829240071E+02  0.00000000000E+00 0.  1.
         12    1    3    3    0    0 -0.22939461731E+02  0.16869119183E+02 -0.49661704083E+01  0.28904133528E+02  0.00000000000E+00 0. -1.
         21    1    1    2  502  501 -0.23255249666E+02  0.34055298986E+01  0.41038153776E+01  0.23858867776E+02  0.00000000000E+00 0. -1.
<mgrwt>
<rscale>  1 0.84462345E+02</rscale>
<asrwt>0</asrwt>
<pdfrwt beam="1">  1        2 0.62531200E-02 0.84462345E+02</pdfrwt>
<pdfrwt beam="2">  1       -1 0.11068763E-01 0.84462345E+02</pdfrwt>
<totfact> 0.58726442E+04</totfact>
</mgrwt>
</event>
<event>
 6    2  0.1063641E+001  0.8602971E+02  0.7546771E-02  0.1312761E+00
         -1   -1    0    0    0  501 -0.00000000000E+00  0.00000000000E+00  0.66288000218E+02  0.66288000218E+02  0.00000000000E+00 0.  1.
          2   -1    0    0  502    0  0.00000000000E+00 -0.00000000000E+00 -0.56290020581E+02  0.56290020581E+02  0.00000000000E+00 0. -1.
         24    2    1    2    0    0  0.30267867544E+02 -0.25645980275E+00  0.23872789271E+02  0.89280574656E+02  0.80528885290E+02 0.  0.
        -13    1    3    3    0    0 -0.91671996199E+00 -0.12664397927E+02  0.46893268998E+02  0.48581951666E+02  0.00000000000E+00 0.  1.
         14    1    3    3    0    0  0.31184587506E+02  0.12407938124E+02 -0.23020479727E+02  0.40698622990E+02  0.00000000000E+00 0. -1.
         21    1    1    2  502  501 -0.30267867544E+02  0.25645980275E+00 -0.13874809634E+02  0.33297446143E+02  0.00000000000E+00 0. -1.
<mgrwt>
<rscale>  1 0.86029710E+02</rscale>
<asrwt>0</asrwt>
<pdfrwt beam="1">  1        2 0.86600032E-02 0.86029710E+02</pdfrwt>
<pdfrwt beam="2">  1       -1 0.10198154E-01 0.86029710E+02</pdfrwt>
<totfact> 0.44405802E+04</totfact>
</mgrwt>
</event>
<event>
 6    2  0.1063641E+001  0.8166662E+02  0.7546771E-02  0.1324387E+00
          2   -1    0    0  502    0  0.00000000000E+00  0.00000000000E+00  0.19145787979E+04  0.19145787979E+04  0.00000000000E+00 0. -1.
         -1   -1    0    0    0  501 -0.00000000000E+00 -0.00000000000E+00 -0.14482651633E+01  0.14482651633E+01  0.00000000000E+00 0.  1.
         24    2    1    2    0    0  0.17404786819E+01  0.19951838080E+02  0.12952413752E+04  0.12978134138E+04  0.79172798064E+02 0.  0.
        -13    1    3    3    0    0  0.20856638185E+02 -0.14155596045E+02  0.16670536000E+03  0.16860028858E+03  0.00000000000E+00 0.  1.
         14    1    3    3    0    0 -0.19116159503E+02  0.34107434125E+02  0.11285360152E+04  0.11292131252E+04  0.00000000000E+00 0. -1.
         21    1    1    2  502  501 -0.17404786819E+01 -0.19951838080E+02  0.61788915758E+03  0.61821364928E+03  0.00000000000E+00 0. -1.
<mgrwt>
<rscale>  1 0.81666621E+02</rscale>
<asrwt>0</asrwt>
<pdfrwt beam="1">  1        2 0.29454856E+00 0.81666621E+02</pdfrwt>
<pdfrwt beam="2">  1       -1 0.22281156E-03 0.81666621E+02</pdfrwt>
<totfact> 0.13555161E+05</totfact>
</mgrwt>
</event>
<event>
 6    2  0.1063641E+001  0.8283336E+02  0.7546771E-02  0.1321198E+00
          2   -1    0    0  502    0  0.00000000000E+00  0.00000000000E+00  0.10590716730E+04  0.10590716730E+04  0.00000000000E+00 0. -1.
         -1   -1    0    0    0  501 -0.00000000000E+00 -0.00000000000E+00 -0.25196764722E+01  0.25196764722E+01  0.00000000000E+00 0.  1.
         24    2    1    2    0    0 -0.17870485796E+02 -0.94344792909E+01  0.81691738509E+03  0.82110619263E+03  0.80330578562E+02 0.  0.
        -11    1    3    3    0    0 -0.72787979407E+00 -0.20818499587E+02  0.53513916219E+02  0.57425420879E+02  0.00000000000E+00 0.  1.
         12    1    3    3    0    0 -0.17142606002E+02  0.11384020296E+02  0.76340346887E+03  0.76368077175E+03  0.00000000000E+00 0. -1.
         21    1    1    2  502  501  0.17870485796E+02  0.94344792909E+01  0.23963461141E+03  0.24048515682E+03  0.00000000000E+00 0. -1.
<mgrwt>
<rscale>  1 0.82833360E+02</rscale>
<asrwt>0</asrwt>
<pdfrwt beam="1">  1        2 0.16293375E+00 0.82833360E+02</pdfrwt>
<pdfrwt beam="2">  1       -1 0.38764338E-03 0.82833360E+02</pdfrwt>
<totfact> 0.17446976E+05</totfact>
</mgrwt>
</event>
<event>
 6    2  0.1063641E+001  0.8330329E+02  0.7546771E-02  0.1319930E+00
         -1   -1    0    0    0  501 -0.00000000000E+00  0.00000000000E+00  0.43098375209E+01  0.43098375209E+01  0.00000000000E+00 0.  1.
          2   -1    0    0  502    0  0.00000000000E+00 -0.00000000000E+00 -0.66870052825E+03  0.66870052825E+03  0.00000000000E+00 0. -1.
         24    2    1    2    0    0  0.13627250530E+02  0.19733142530E+02 -0.52667530363E+03  0.53322257405E+03  0.79776808340E+02 0.  0.
        -11    1    3    3    0    0  0.47115680026E+02  0.14894448772E+02 -0.30319025099E+03  0.30719059264E+03  0.00000000000E+00 0.  1.
         12    1    3    3    0    0 -0.33488429496E+02  0.48386937578E+01 -0.22348505264E+03  0.22603198141E+03  0.00000000000E+00 0. -1.
         21    1    1    2  502  501 -0.13627250530E+02 -0.19733142530E+02 -0.13771538710E+03  0.13978779173E+03  0.00000000000E+00 0. -1.
<mgrwt>
<rscale>  1 0.83303289E+02</rscale>
<asrwt>0</asrwt>
<pdfrwt beam="1">  1        2 0.10287695E+00 0.83303289E+02</pdfrwt>
<pdfrwt beam="2">  1       -1 0.66305226E-03 0.83303289E+02</pdfrwt>
<totfact> 0.14662980E+05</totfact>
</mgrwt>
</event>
<event>
 6    2  0.1063641E+001  0.8372767E+02  0.7546771E-02  0.1318794E+00
          4   -1    0    0  502    0  0.00000000000E+00  0.00000000000E+00  0.97411796490E+02  0.97411796490E+02  0.00000000000E+00 0. -1.
         -3   -1    0    0    0  501 -0.00000000000E+00 -0.00000000000E+00 -0.35939650450E+02  0.35939650450E+02  0.00000000000E+00 0.  1.
         24    2    1    2    0    0 -0.65273356591E+01 -0.26203808437E+02  0.23882404860E+02  0.87067169594E+02  0.79253246443E+02 0.  0.
        -13    1    3    3    0    0 -0.93914244827E+01 -0.18356785182E+02 -0.27856826025E+02  0.34657945298E+02  0.00000000000E+00 0.  1.
         14    1    3    3    0    0  0.28640888236E+01 -0.78470232550E+01  0.51739230885E+02  0.52409224296E+02  0.00000000000E+00 0. -1.
         21    1    1    2  502  501  0.65273356591E+01  0.26203808437E+02  0.37589741181E+02  0.46284277346E+02  0.00000000000E+00 0.  1.
<mgrwt>
<rscale>  1 0.83727670E+02</rscale>
<asrwt>0</asrwt>
<pdfrwt beam="1">  1        4 0.14986430E-01 0.83727670E+02</pdfrwt>
<pdfrwt beam="2">  1       -3 0.55291770E-02 0.83727670E+02</pdfrwt>
<totfact> 0.12327344E+04</totfact>
</mgrwt>
</event>
<event>
 6    2  0.1063641E+001  0.8699662E+02  0.7546771E-02  0.1310292E+00
         -1   -1    0    0    0  501 -0.00000000000E+00  0.00000000000E+00  0.12703379830E+02  0.12703379830E+02  0.00000000000E+00 0.  1.
          2   -1    0    0  502    0  0.00000000000E+00 -0.00000000000E+00 -0.33828078232E+03  0.33828078232E+03  0.00000000000E+00 0. -1.
         24    2    1    2    0    0 -0.23448034112E+02  0.19356636167E+02 -0.15524309397E+03  0.17795738293E+03  0.81510258538E+02 0.  0.
        -13    1    3    3    0    0 -0.24512700378E+02  0.12514883330E+02 -0.55155742821E+01  0.28069847599E+02  0.00000000000E+00 0.  1.
         14    1    3    3    0    0  0.10646662663E+01  0.68417528372E+01 -0.14972751968E+03  0.14988753533E+03  0.00000000000E+00 0. -1.
         21    1    1    2  502  501  0.23448034112E+02 -0.19356636167E+02 -0.17033430852E+03  0.17302677922E+03  0.00000000000E+00 0. -1.
<mgrwt>
<rscale>  1 0.86996620E+02</rscale>
<asrwt>0</asrwt>
<pdfrwt beam="1">  1        2 0.52043191E-01 0.86996620E+02</pdfrwt>
<pdfrwt beam="2">  1       -1 0.19543663E-02 0.86996620E+02</pdfrwt>
<totfact> 0.66933278E+04</totfact>
</mgrwt>
</event>
<event>
 6    2  0.1063641E+001  0.9313124E+02  0.7546771E-02  0.1295441E+00
         -1   -1    0    0    0  501 -0.00000000000E+00  0.00000000000E+00  0.17237888282E+01  0.17237888282E+01  0.00000000000E+00 0.  1.
          2   -1    0    0  502    0  0.00000000000E+00 -0.00000000000E+00 -0.28663181511E+04  0.28663181511E+04  0.00000000000E+00 0. -1.
         24    2    1    2    0    0  0.86125592316E+00 -0.45811749647E+02 -0.17035333943E+04  0.17060772117E+04  0.81080014874E+02 0.  0.
        -13    1    3    3    0    0  0.27239466341E+02 -0.57996355509E+02 -0.11706571503E+04  0.11724093693E+04  0.00000000000E+00 0.  1.
         14    1    3    3    0    0 -0.26378210418E+02  0.12184605862E+02 -0.53287624401E+03  0.53366784242E+03  0.00000000000E+00 0. -1.
         21    1    1    2  502  501 -0.86125592316E+00  0.45811749647E+02 -0.11610609680E+04  0.11619647282E+04  0.00000000000E+00 0. -1.
<mgrwt>
<rscale>  1 0.93131235E+02</rscale>
<asrwt>0</asrwt>
<pdfrwt beam="1">  1        2 0.44096549E+00 0.93131235E+02</pdfrwt>
<pdfrwt beam="2">  1       -1 0.26520221E-03 0.93131235E+02</pdfrwt>
<totfact> 0.34417385E+04</totfact>
</mgrwt>
</event>
<event>
 6    2  0.1063641E+001  0.9241030E+02  0.7546771E-02  0.1297118E+00
          2   -1    0    0  502    0  0.00000000000E+00  0.00000000000E+00  0.28636662649E+03  0.28636662649E+03  0.00000000000E+00 0. -1.
         -1   -1    0    0    0  501 -0.00000000000E+00 -0.00000000000E+00 -0.17514136201E+02  0.17514136201E+02  0.00000000000E+00 0.  1.
         24    2    1    2    0    0 -0.27769949945E+02 -0.35539817192E+02  0.14369713084E+03  0.17084650874E+03  0.80656155442E+02 0.  0.
        -11    1    3    3    0    0  0.19822973599E+02 -0.35546105472E+01  0.49816700084E+01  0.20746146017E+02  0.00000000000E+00 0.  1.
         12    1    3    3    0    0 -0.47592923544E+02 -0.31985206645E+02  0.13871546083E+03  0.15010036272E+03  0.00000000000E+00 0. -1.
         21    1    1    2  502  501  0.27769949945E+02  0.35539817192E+02  0.12515535945E+03  0.13303425395E+03  0.00000000000E+00 0.  1.
<mgrwt>
<rscale>  1 0.92410303E+02</rscale>
<asrwt>0</asrwt>
<pdfrwt beam="1">  1        2 0.44056401E-01 0.92410303E+02</pdfrwt>
<pdfrwt beam="2">  1       -1 0.26944827E-02 0.92410303E+02</pdfrwt>
<totfact> 0.50726548E+04</totfact>
</mgrwt>
</event>
<event>
 6    2  0.1063641E+001  0.8704817E+02  0.7546771E-02  0.1310162E+00
         -1   -1    0    0    0  501 -0.00000000000E+00  0.00000000000E+00  0.57752930624E+01  0.57752930624E+01  0.00000000000E+00 0.  1.
          2   -1    0    0  502    0  0.00000000000E+00 -0.00000000000E+00 -0.63728107644E+03  0.63728107644E+03  0.00000000000E+00 0. -1.
         24    2    1    2    0    0  0.27553116921E+02  0.15133337034E+02 -0.39549995816E+03  0.40496617298E+03  0.81173839470E+02 0.  0.
        -11    1    3    3    0    0  0.26010601606E+02  0.17891976960E+02 -0.47997889181E+02  0.57449731081E+02  0.00000000000E+00 0.  1.
         12    1    3    3    0    0  0.15425153151E+01 -0.27586399258E+01 -0.34750206898E+03  0.34751644190E+03  0.00000000000E+00 0. -1.
         21    1    1    2  502  501 -0.27553116921E+02 -0.15133337034E+02 -0.23600582522E+03  0.23809019652E+03  0.00000000000E+00 0.  1.
<mgrwt>
<rscale>  1 0.87048173E+02</rscale>
<asrwt>0</asrwt>
<pdfrwt beam="1">  1        2 0.98043179E-01 0.87048173E+02</pdfrwt>
<pdfrwt beam="2">  1       -1 0.88850720E-03 0.87048173E+02</pdfrwt>
<totfact> 0.10339953E+05</totfact>
</mgrwt>
</event>
<event>
 6    2  0.1063641E+001  0.8716959E+02  0.7546771E-02  0.1309854E+00
         -1   -1    0    0    0  501 -0.00000000000E+00  0.00000000000E+00  0.35797598647E+02  0.35797598647E+02  0.00000000000E+00 0.  1.
          2   -1    0    0  502    0  0.00000000000E+00 -0.00000000000E+00 -0.15363521372E+03  0.15363521372E+03  0.00000000000E+00 0. -1.
         24    2    1    2    0    0  0.31935934293E+02 -0.15960939020E+02 -0.26100568593E+02  0.90993281840E+02  0.79522840653E+02 0.  0.
        -11    1    3    3    0    0  0.47362938417E+02 -0.97876133849E+01  0.11650472243E+02  0.49747148811E+02  0.00000000000E+00 0.  1.
         12    1    3    3    0    0 -0.15427004124E+02 -0.61733256349E+01 -0.37751040836E+02  0.41246133029E+02  0.00000000000E+00 0. -1.
         21    1    1    2  502  501 -0.31935934293E+02  0.15960939020E+02 -0.91737046478E+02  0.98439530526E+02  0.00000000000E+00 0. -1.
<mgrwt>
<rscale>  1 0.87169591E+02</rscale>
<asrwt>0</asrwt>
<pdfrwt beam="1">  1        2 0.23636187E-01 0.87169591E+02</pdfrwt>
<pdfrwt beam="2">  1       -1 0.55073228E-02 0.87169591E+02</pdfrwt>
<totfact> 0.34643629E+04</totfact>
</mgrwt>
</event>
<event>
 6    2  0.1063641E+001  0.8492177E+02  0.7546771E-02  0.1315637E+00
          2   -1    0    0  502    0  0.00000000000E+00  0.00000000000E+00  0.13633590746E+04  0.13633590746E+04  0.00000000000E+00 0. -1.
         -1   -1    0    0    0  501 -0.00000000000E+00 -0.00000000000E+00 -0.23000121833E+01  0.23000121833E+01  0.00000000000E+00 0.  1.
         24    2    1    2    0    0 -0.15370800959E+02  0.16563043052E+02  0.88529665515E+03  0.88936037370E+03  0.81860312543E+02 0.  0.
        -11    1    3    3    0    0 -0.37772282204E+02 -0.42698799375E+01  0.21281426402E+03  0.21618253432E+03  0.00000000000E+00 0.  1.
         12    1    3    3    0    0  0.22401481245E+02  0.20832922990E+02  0.67248239113E+03  0.67317783938E+03  0.00000000000E+00 0. -1.
         21    1    1    2  502  501  0.15370800959E+02 -0.16563043052E+02  0.47576240731E+03  0.47629871312E+03  0.00000000000E+00 0. -1.
<mgrwt>
<rscale>  1 0.84921768E+02</rscale>
<asrwt>0</asrwt>
<pdfrwt beam="1">  1        2 0.20974690E+00 0.84921768E+02</pdfrwt>
<pdfrwt beam="2">  1       -1 0.35384912E-03 0.84921768E+02</pdfrwt>
<totfact> 0.13607982E+05</totfact>
</mgrwt>
</event>
<event>
 6    2  0.1063641E+001  0.8425041E+02  0.7546771E-02  0.1317405E+00
          2   -1    0    0  502    0  0.00000000000E+00  0.00000000000E+00  0.50896226884E+03  0.50896226884E+03  0.00000000000E+00 0. -1.
         -1   -1    0    0    0  501 -0.00000000000E+00 -0.00000000000E+00 -0.11706721069E+02  0.11706721069E+02  0.00000000000E+00 0.  1.
         24    2    1    2    0    0 -0.35960744548E+02 -0.31038197082E+01  0.15415889150E+03  0.17567895471E+03  0.76127015264E+02 0.  0.
        -11    1    3    3    0    0  0.14320743270E+02  0.23381428807E+02  0.49684085843E+02  0.56747539919E+02  0.00000000000E+00 0.  1.
         12    1    3    3    0    0 -0.50281487818E+02 -0.26485248515E+02  0.10447480566E+03  0.11893141479E+03  0.00000000000E+00 0. -1.
         21    1    1    2  502  501  0.35960744548E+02  0.31038197082E+01  0.34309665627E+03  0.34499003521E+03  0.00000000000E+00 0. -1.
<mgrwt>
<rscale>  1 0.84250408E+02</rscale>
<asrwt>0</asrwt>
<pdfrwt beam="1">  1        2 0.78301870E-01 0.84250408E+02</pdfrwt>
<pdfrwt beam="2">  1       -1 0.18010344E-02 0.84250408E+02</pdfrwt>
<totfact> 0.48617480E+04</totfact>
</mgrwt>
</event>
<event>
 6    2  0.1063641E+001  0.9147238E+02  0.7546771E-02  0.1299325E+00
         -1   -1    0    0    0  501 -0.00000000000E+00  0.00000000000E+00  0.61730283233E+01  0.61730283233E+01  0.00000000000E+00 0.  1.
          2   -1    0    0  502    0  0.00000000000E+00 -0.00000000000E+00 -0.88267230153E+03  0.88267230153E+03  0.00000000000E+00 0. -1.
         24    2    1    2    0    0  0.11963660836E+02 -0.41775737385E+02 -0.39797066970E+03  0.40834770677E+03  0.80491330391E+02 0.  0.
        -11    1    3    3    0    0  0.29318706437E+02 -0.59704646690E+02 -0.28755785774E+03  0.29515039037E+03  0.00000000000E+00 0.  1.
         12    1    3    3    0    0 -0.17355045602E+02  0.17928909305E+02 -0.11041281195E+03  0.11319731640E+03  0.00000000000E+00 0. -1.
         21    1    1    2  502  501 -0.11963660836E+02  0.41775737385E+02 -0.47852860352E+03  0.48049762309E+03  0.00000000000E+00 0.  1.
<mgrwt>
<rscale>  1 0.91472377E+02</rscale>
<asrwt>0</asrwt>
<pdfrwt beam="1">  1        2 0.13579572E+00 0.91472377E+02</pdfrwt>
<pdfrwt beam="2">  1       -1 0.94969678E-03 0.91472377E+02</pdfrwt>
<totfact> 0.64189610E+04</totfact>
</mgrwt>
</event>
<event>
 6    2  0.1063641E+001  0.8142173E+02  0.7546771E-02  0.1325065E+00
          4   -1    0    0  502    0  0.00000000000E+00  0.00000000000E+00  0.11063882960E+03  0.11063882960E+03  0.00000000000E+00 0. -1.
         -3   -1    0    0    0  501 -0.00000000000E+00 -0.00000000000E+00 -0.24985954773E+02  0.24985954773E+02  0.00000000000E+00 0.  1.
         24    2    1    2    0    0 -0.22586785748E+02  0.70529838531E+01  0.68421201297E+02  0.10635298832E+03  0.77907572582E+02 0.  0.
        -13    1    3    3    0    0 -0.19380341413E+02 -0.28767430524E+02  0.73156055719E+01  0.35449693611E+02  0.00000000000E+00 0.  1.
         14    1    3    3    0    0 -0.32064443347E+01  0.35820414377E+02  0.61105595725E+02  0.70903294707E+02  0.00000000000E+00 0. -1.
         21    1    1    2  502  501  0.22586785748E+02 -0.70529838531E+01  0.17231673530E+02  0.29271796056E+02  0.00000000000E+00 0. -1.
<mgrwt>
<rscale>  1 0.81421725E+02</rscale>
<asrwt>0</asrwt>
<pdfrwt beam="1">  1        4 0.17021358E-01 0.81421725E+02</pdfrwt>
<pdfrwt beam="2">  1       -3 0.38439931E-02 0.81421725E+02</pdfrwt>
<totfact> 0.17264329E+04</totfact>
</mgrwt>
</event>
<event>
 6    2  0.1063641E+001  0.8925728E+02  0.7546771E-02  0.1304660E+00
         -1   -1    0    0    0  501 -0.00000000000E+00  0.00000000000E+00  0.55669482192E+03  0.55669482192E+03  0.00000000000E+00 0.  1.
          2   -1    0    0  502    0  0.00000000000E+00 -0.00000000000E+00 -0.76780122857E+01  0.76780122857E+01  0.00000000000E+00 0. -1.
         24    2    1    2    0    0 -0.30618654083E+02  0.15255985851E+01  0.48791030215E+03  0.49600738471E+03  0.83827401879E+02 0.  0.
        -11    1    3    3    0    0  0.13329595196E+01 -0.11296103197E+02  0.41725970417E+03  0.41741470920E+03  0.00000000000E+00 0.  1.
         12    1    3    3    0    0 -0.31951613602E+02  0.12821701782E+02  0.70650597982E+02  0.78592675509E+02  0.00000000000E+00 0. -1.
         21    1    1    2  502  501  0.30618654083E+02 -0.15255985851E+01  0.61106507478E+02  0.68365449498E+02  0.00000000000E+00 0.  1.
<mgrwt>
<rscale>  1 0.89257284E+02</rscale>
<asrwt>0</asrwt>
<pdfrwt beam="1">  1        2 0.11812331E-02 0.89257284E+02</pdfrwt>
<pdfrwt beam="2">  1       -1 0.85645325E-01 0.89257284E+02</pdfrwt>
<totfact> 0.16448357E+04</totfact>
</mgrwt>
</event>
<event>
 6    2  0.1063641E+001  0.8809844E+02  0.7546771E-02  0.1307523E+00
          2   -1    0    0  502    0  0.00000000000E+00  0.00000000000E+00  0.23980122948E+02  0.23980122948E+02  0.00000000000E+00 0. -1.
         -1   -1    0    0    0  501 -0.00000000000E+00 -0.00000000000E+00 -0.16508478439E+03  0.16508478439E+03  0.00000000000E+00 0.  1.
         24    2    1    2    0    0  0.12270948228E+02 -0.34055784212E+02 -0.85863777921E+02  0.12302001487E+03  0.80317887741E+02 0.  0.
        -11    1    3    3    0    0 -0.13895880667E+02 -0.44299270484E+02 -0.82569474945E+02  0.94727182253E+02  0.00000000000E+00 0.  1.
         12    1    3    3    0    0  0.26166828895E+02  0.10243486272E+02 -0.32943029766E+01  0.28292832618E+02  0.00000000000E+00 0. -1.
         21    1    1    2  502  501 -0.12270948228E+02  0.34055784212E+02 -0.55240883519E+02  0.66044892465E+02  0.00000000000E+00 0. -1.
<mgrwt>
<rscale>  1 0.88098443E+02</rscale>
<asrwt>0</asrwt>
<pdfrwt beam="1">  1        2 0.36892496E-02 0.88098443E+02</pdfrwt>
<pdfrwt beam="2">  1       -1 0.25397659E-01 0.88098443E+02</pdfrwt>
<totfact> 0.31817363E+04</totfact>
</mgrwt>
</event>
<event>
 6    2  0.1063641E+001  0.8908675E+02  0.7546771E-02  0.1305078E+00
         -1   -1    0    0    0  501 -0.00000000000E+00  0.00000000000E+00  0.14411094395E+04  0.14411094395E+04  0.00000000000E+00 0.  1.
          2   -1    0    0  502    0  0.00000000000E+00 -0.00000000000E+00 -0.75948486869E+01  0.75948486869E+01  0.00000000000E+00 0. -1.
         24    2    1    2    0    0 -0.30364222894E+02  0.16813835896E+02  0.13908702143E+04  0.13937203455E+04  0.82047286600E+02 0.  0.
        -13    1    3    3    0    0 -0.54383691363E+02 -0.61205997545E+01  0.96951094097E+03  0.97105433024E+03  0.00000000000E+00 0.  1.
         14    1    3    3    0    0  0.24019468468E+02  0.22934435650E+02  0.42135927332E+03  0.42266601521E+03  0.00000000000E+00 0. -1.
         21    1    1    2  502  501  0.30364222894E+02 -0.16813835896E+02  0.42644376551E+02  0.54983942755E+02  0.00000000000E+00 0. -1.
<mgrwt>
<rscale>  1 0.89086746E+02</rscale>
<asrwt>0</asrwt>
<pdfrwt beam="1">  1        2 0.11684394E-02 0.89086746E+02</pdfrwt>
<pdfrwt beam="2">  1       -1 0.22170893E+00 0.89086746E+02</pdfrwt>
<totfact> 0.15187350E+03</totfact>
</mgrwt>
</event>
<event>
 6    2  0.1063641E+001  0.8449121E+02  0.7546771E-02  0.1316768E+00
         -1   -1    0    0    0  501 -0.00000000000E+00  0.00000000000E+00  0.77625153365E+01  0.77625153365E+01  0.00000000000E+00 0.  1.
          2   -1    0    0  502    0  0.00000000000E+00 -0.00000000000E+00 -0.53849459976E+03  0.53849459976E+03  0.00000000000E+00 0. -1.
         24    2    1    2    0    0  0.19100964575E+02 -0.13861380191E+02 -0.23758305770E+03  0.25215962008E+03  0.81128170091E+02 0.  0.
        -13    1    3    3    0    0  0.13842558756E+02 -0.34627381320E+02 -0.45246154418E+02  0.58633492644E+02  0.00000000000E+00 0.  1.
         14    1    3    3    0    0  0.52584058196E+01  0.20766001129E+02 -0.19233690329E+03  0.19352612744E+03  0.00000000000E+00 0. -1.
         21    1    1    2  502  501 -0.19100964575E+02  0.13861380191E+02 -0.29314902672E+03  0.29409749501E+03  0.00000000000E+00 0. -1.
<mgrwt>
<rscale>  1 0.84491211E+02</rscale>
<asrwt>0</asrwt>
<pdfrwt beam="1">  1        2 0.82845345E-01 0.84491211E+02</pdfrwt>
<pdfrwt beam="2">  1       -1 0.11942328E-02 0.84491211E+02</pdfrwt>
<totfact> 0.81844000E+04</totfact>
</mgrwt>
</event>
<event>
 6    2  0.1063641E+001  0.8518510E+02  0.7546771E-02  0.1314949E+00
         -1   -1    0    0    0  501 -0.00000000000E+00  0.00000000000E+00  0.11808088887E+03  0.11808088887E+03  0.00000000000E+00 0.  1.
          2   -1    0    0  502    0  0.00000000000E+00 -0.00000000000E+00 -0.25293249790E+02  0.25293249790E+02  0.00000000000E+00 0. -1.
         24    2    1    2    0    0  0.12633680997E+02  0.17428983099E+02  0.60165870556E+02  0.10429013772E+03  0.82420394924E+02 0.  0.
        -13    1    3    3    0    0  0.66674665407E+00  0.48297034279E+02  0.50319743997E+02  0.69750445928E+02  0.00000000000E+00 0.  1.
         14    1    3    3    0    0  0.11966934343E+02 -0.30868051180E+02  0.98461265593E+01  0.34539691797E+02  0.00000000000E+00 0. -1.
         21    1    1    2  502  501 -0.12633680997E+02 -0.17428983099E+02  0.32621768520E+02  0.39084000931E+02  0.00000000000E+00 0.  1.
<mgrwt>
<rscale>  1 0.85185098E+02</rscale>
<asrwt>0</asrwt>
<pdfrwt beam="1">  1        2 0.38912693E-02 0.85185098E+02</pdfrwt>
<pdfrwt beam="2">  1       -1 0.18166290E-01 0.85185098E+02</pdfrwt>
<totfact> 0.50447074E+04</totfact>
</mgrwt>
</event>
<event>
 6    2  0.1063641E+001  0.8322340E+02  0.7546771E-02  0.1320145E+00
          2   -1    0    0  502    0  0.00000000000E+00  0.00000000000E+00  0.15744446888E+03  0.15744446888E+03  0.00000000000E+00 0. -1.
         -1   -1    0    0    0  501 -0.00000000000E+00 -0.00000000000E+00 -0.21278782195E+02  0.21278782195E+02  0.00000000000E+00 0.  1.
         24    2    1    2    0    0  0.77614320792E+01 -0.19183316378E+02  0.67956614532E+02  0.10744410280E+03  0.80609517503E+02 0.  0.
        -13    1    3    3    0    0  0.26529058248E+02  0.55298248212E+01 -0.55446279079E+01  0.27660672311E+02  0.00000000000E+00 0.  1.
         14    1    3    3    0    0 -0.18767626169E+02 -0.24713141199E+02  0.73501242440E+02  0.79783430487E+02  0.00000000000E+00 0. -1.
         21    1    1    2  502  501 -0.77614320792E+01  0.19183316378E+02  0.68209072153E+02  0.71279148277E+02  0.00000000000E+00 0.  1.
<mgrwt>
<rscale>  1 0.83223397E+02</rscale>
<asrwt>0</asrwt>
<pdfrwt beam="1">  1        2 0.24222225E-01 0.83223397E+02</pdfrwt>
<pdfrwt beam="2">  1       -1 0.32736589E-02 0.83223397E+02</pdfrwt>
<totfact> 0.71357272E+04</totfact>
</mgrwt>
</event>
<event>
 6    2  0.1063641E+001  0.9515877E+02  0.7546771E-02  0.1290819E+00
         -1   -1    0    0    0  501 -0.00000000000E+00  0.00000000000E+00  0.96538315395E+01  0.96538315395E+01  0.00000000000E+00 0.  1.
          2   -1    0    0  502    0  0.00000000000E+00 -0.00000000000E+00 -0.41949909274E+03  0.41949909274E+03  0.00000000000E+00 0. -1.
         24    2    1    2    0    0 -0.65330981345E+01 -0.30733104087E+02 -0.28757277732E+03  0.30290806152E+03  0.89821970709E+02 0.  0.
        -13    1    3    3    0    0 -0.47786151135E+02 -0.93660131580E+01 -0.14558701090E+03  0.15351487284E+03  0.00000000000E+00 0.  1.
         14    1    3    3    0    0  0.41253053000E+02 -0.21367090929E+02 -0.14198576642E+03  0.14939318867E+03  0.00000000000E+00 0. -1.
         21    1    1    2  502  501  0.65330981345E+01  0.30733104087E+02 -0.12227248389E+03  0.12624486277E+03  0.00000000000E+00 0. -1.
<mgrwt>
<rscale>  1 0.95158770E+02</rscale>
<asrwt>0</asrwt>
<pdfrwt beam="1">  1        2 0.64538326E-01 0.95158770E+02</pdfrwt>
<pdfrwt beam="2">  1       -1 0.14852048E-02 0.95158770E+02</pdfrwt>
<totfact> 0.79885165E+04</totfact>
</mgrwt>
</event>
<event>
 6    2  0.1063641E+001  0.8718976E+02  0.7546771E-02  0.1309803E+00
          2   -1    0    0  502    0  0.00000000000E+00  0.00000000000E+00  0.17726582623E+03  0.17726582623E+03  0.00000000000E+00 0. -1.
         -1   -1    0    0    0  501 -0.00000000000E+00 -0.00000000000E+00 -0.19845058577E+02  0.19845058577E+02  0.00000000000E+00 0.  1.
         24    2    1    2    0    0 -0.24673659872E+01  0.24759529406E+02  0.14525478087E+03  0.16941371120E+03  0.83563939509E+02 0.  0.
        -13    1    3    3    0    0 -0.24781489648E+02  0.19832941462E+02  0.14296690916E+03  0.14644795973E+03  0.00000000000E+00 0.  1.
         14    1    3    3    0    0  0.22314123661E+02  0.49265879443E+01  0.22878717124E+01  0.22965751468E+02  0.00000000000E+00 0. -1.
         21    1    1    2  502  501  0.24673659872E+01 -0.24759529406E+02  0.12165986784E+02  0.27697173606E+02  0.00000000000E+00 0. -1.
<mgrwt>
<rscale>  1 0.87189760E+02</rscale>
<asrwt>0</asrwt>
<pdfrwt beam="1">  1        2 0.27271665E-01 0.87189760E+02</pdfrwt>
<pdfrwt beam="2">  1       -1 0.30530860E-02 0.87189760E+02</pdfrwt>
<totfact> 0.69855452E+04</totfact>
</mgrwt>
</event>
<event>
 6    2  0.1063641E+001  0.9375449E+02  0.7546771E-02  0.1294006E+00
         -1   -1    0    0    0  501 -0.00000000000E+00  0.00000000000E+00  0.31830032428E+01  0.31830032428E+01  0.00000000000E+00 0.  1.
          2   -1    0    0  502    0  0.00000000000E+00 -0.00000000000E+00 -0.18211041107E+04  0.18211041107E+04  0.00000000000E+00 0. -1.
         24    2    1    2    0    0 -0.38871635414E+02 -0.19710375153E+02 -0.80714469173E+03  0.81257150889E+03  0.83008437729E+02 0.  0.
        -11    1    3    3    0    0 -0.42343430226E+01 -0.24007818962E+02 -0.68769560455E+03  0.68812756779E+03  0.00000000000E+00 0.  1.
         12    1    3    3    0    0 -0.34637292391E+02  0.42974438091E+01 -0.11944908718E+03  0.12444394110E+03  0.00000000000E+00 0. -1.
         21    1    1    2  502  501  0.38871635414E+02  0.19710375153E+02 -0.10107764157E+04  0.10117156051E+04  0.00000000000E+00 0. -1.
<mgrwt>
<rscale>  1 0.93754486E+02</rscale>
<asrwt>0</asrwt>
<pdfrwt beam="1">  1        2 0.28017072E+00 0.93754486E+02</pdfrwt>
<pdfrwt beam="2">  1       -1 0.48969130E-03 0.93754486E+02</pdfrwt>
<totfact> 0.51200533E+04</totfact>
</mgrwt>
</event>
<event>
 6    2  0.1063641E+001  0.8314731E+02  0.7546771E-02  0.1320350E+00
         -1   -1    0    0    0  501 -0.00000000000E+00  0.00000000000E+00  0.11907625510E+02  0.11907625510E+02  0.00000000000E+00 0.  1.
          2   -1    0    0  502    0  0.00000000000E+00 -0.00000000000E+00 -0.25144765420E+03  0.25144765420E+03  0.00000000000E+00 0. -1.
         24    2    1    2    0    0  0.44785871177E+00  0.23626219572E+02 -0.15910883261E+03  0.17952464014E+03  0.79718736647E+02 0.  0.
        -13    1    3    3    0    0 -0.26560117457E+02  0.28432682460E+02 -0.34721452738E+02  0.52148217146E+02  0.00000000000E+00 0.  1.
         14    1    3    3    0    0  0.27007976169E+02 -0.48064628885E+01 -0.12438737987E+03  0.12737642299E+03  0.00000000000E+00 0. -1.
         21    1    1    2  502  501 -0.44785871177E+00 -0.23626219572E+02 -0.80431196077E+02  0.83830639572E+02  0.00000000000E+00 0. -1.
<mgrwt>
<rscale>  1 0.83147314E+02</rscale>
<asrwt>0</asrwt>
<pdfrwt beam="1">  1        2 0.38684252E-01 0.83147314E+02</pdfrwt>
<pdfrwt beam="2">  1       -1 0.18319425E-02 0.83147314E+02</pdfrwt>
<totfact> 0.99343375E+04</totfact>
</mgrwt>
</event>
<event>
 6    2  0.1063641E+001  0.8520940E+02  0.7546771E-02  0.1314886E+00
         -1   -1    0    0    0  501 -0.00000000000E+00  0.00000000000E+00  0.14291433718E+03  0.14291433718E+03  0.00000000000E+00 0.  1.
          2   -1    0    0  502    0  0.00000000000E+00 -0.00000000000E+00 -0.22907043205E+02  0.22907043205E+02  0.00000000000E+00 0. -1.
         24    2    1    2    0    0  0.25504614318E+01 -0.20919133373E+02  0.11668756788E+03  0.14448747366E+03  0.82562258650E+02 0.  0.
        -11    1    3    3    0    0 -0.21440216159E+02  0.19362769918E+02  0.79684153884E+02  0.84759448488E+02  0.00000000000E+00 0.  1.
         12    1    3    3    0    0  0.23990677591E+02 -0.40281903291E+02  0.37003413994E+02  0.59728025174E+02  0.00000000000E+00 0. -1.
         21    1    1    2  502  501 -0.25504614318E+01  0.20919133373E+02  0.33197260948E+01  0.21333906720E+02  0.00000000000E+00 0. -1.
<mgrwt>
<rscale>  1 0.85209398E+02</rscale>
<asrwt>0</asrwt>
<pdfrwt beam="1">  1        2 0.35241606E-02 0.85209398E+02</pdfrwt>
<pdfrwt beam="2">  1       -1 0.21986821E-01 0.85209398E+02</pdfrwt>
<totfact> 0.42445822E+04</totfact>
</mgrwt>
</event>
<event>
 6    2  0.1063641E+001  0.8280238E+02  0.7546771E-02  0.1321282E+00
         -1   -1    0    0    0  501 -0.00000000000E+00  0.00000000000E+00  0.13044709495E+03  0.13044709495E+03  0.00000000000E+00 0.  1.
          2   -1    0    0  502    0  0.00000000000E+00 -0.00000000000E+00 -0.21903061535E+02  0.21903061535E+02  0.00000000000E+00 0. -1.
         24    2    1    2    0    0 -0.72548419235E+01 -0.22983922694E+02  0.84383454568E+02  0.11822352460E+03  0.79217049490E+02 0.  0.
        -11    1    3    3    0    0  0.15668200680E+02  0.20838118010E+02  0.54566658627E+02  0.60475118093E+02  0.00000000000E+00 0.  1.
         12    1    3    3    0    0 -0.22923042603E+02 -0.43822040704E+02  0.29816795941E+02  0.57748406505E+02  0.00000000000E+00 0. -1.
         21    1    1    2  502  501  0.72548419235E+01  0.22983922694E+02  0.24160578847E+02  0.34126631887E+02  0.00000000000E+00 0.  1.
<mgrwt>
<rscale>  1 0.82802381E+02</rscale>
<asrwt>0</asrwt>
<pdfrwt beam="1">  1        2 0.33697019E-02 0.82802381E+02</pdfrwt>
<pdfrwt beam="2">  1       -1 0.20068783E-01 0.82802381E+02</pdfrwt>
<totfact> 0.51852154E+04</totfact>
</mgrwt>
</event>
<event>
 6    2  0.1063641E+001  0.9256141E+02  0.7546771E-02  0.1296765E+00
         -1   -1    0    0    0  501 -0.00000000000E+00  0.00000000000E+00  0.21352347489E+02  0.21352347489E+02  0.00000000000E+00 0.  1.
          2   -1    0    0  502    0  0.00000000000E+00 -0.00000000000E+00 -0.22435505547E+03  0.22435505547E+03  0.00000000000E+00 0. -1.
         24    2    1    2    0    0 -0.24996602036E+02  0.38228480839E+02 -0.12977712479E+03  0.15940425763E+03  0.80506946097E+02 0.  0.
        -13    1    3    3    0    0 -0.41196694618E+02  0.14336061795E+02 -0.24056998454E+02  0.49813948748E+02  0.00000000000E+00 0.  1.
         14    1    3    3    0    0  0.16200092583E+02  0.23892419044E+02 -0.10572012634E+03  0.10959030888E+03  0.00000000000E+00 0. -1.
         21    1    1    2  502  501  0.24996602036E+02 -0.38228480839E+02 -0.73225583187E+02  0.86303145329E+02  0.00000000000E+00 0. -1.
<mgrwt>
<rscale>  1 0.92561413E+02</rscale>
<asrwt>0</asrwt>
<pdfrwt beam="1">  1        2 0.34516160E-01 0.92561413E+02</pdfrwt>
<pdfrwt beam="2">  1       -1 0.32849767E-02 0.92561413E+02</pdfrwt>
<totfact> 0.49290282E+04</totfact>
</mgrwt>
</event>
<event>
 6    2  0.1063641E+001  0.8692324E+02  0.7546771E-02  0.1310478E+00
          2   -1    0    0  502    0  0.00000000000E+00  0.00000000000E+00  0.17271441101E+03  0.17271441101E+03  0.00000000000E+00 0. -1.
         -1   -1    0    0    0  501 -0.00000000000E+00 -0.00000000000E+00 -0.71435713084E+02  0.71435713084E+02  0.00000000000E+00 0.  1.
         24    2    1    2    0    0 -0.29536330967E+02 -0.23945936971E+02 -0.41552388710E+02  0.96344433898E+02  0.78165505123E+02 0.  0.
        -13    1    3    3    0    0 -0.46650253018E+02 -0.24630574228E+02 -0.53753769848E+02  0.75315198110E+02  0.00000000000E+00 0.  1.
         14    1    3    3    0    0  0.17113922052E+02  0.68463725699E+00  0.12201381137E+02  0.21029235788E+02  0.00000000000E+00 0. -1.
         21    1    1    2  502  501  0.29536330967E+02  0.23945936971E+02  0.14283108664E+03  0.14780569020E+03  0.00000000000E+00 0. -1.
<mgrwt>
<rscale>  1 0.86923236E+02</rscale>
<asrwt>0</asrwt>
<pdfrwt beam="1">  1        2 0.26571448E-01 0.86923236E+02</pdfrwt>
<pdfrwt beam="2">  1       -1 0.10990110E-01 0.86923236E+02</pdfrwt>
<totfact> 0.10895729E+04</totfact>
</mgrwt>
</event>
<event>
 6    2  0.1063641E+001  0.7917969E+02  0.7546771E-02  0.1331396E+00
          2   -1    0    0  502    0  0.00000000000E+00  0.00000000000E+00  0.70772078425E+03  0.70772078425E+03  0.00000000000E+00 0. -1.
         -1   -1    0    0    0  501 -0.00000000000E+00 -0.00000000000E+00 -0.37578125962E+01  0.37578125962E+01  0.00000000000E+00 0.  1.
         24    2    1    2    0    0 -0.12700263390E+02  0.17404745063E+02  0.48059531337E+03  0.48707420160E+03  0.76191868237E+02 0.  0.
        -11    1    3    3    0    0 -0.17578367700E+02  0.26715750329E+02  0.77462227980E+02  0.83804099484E+02  0.00000000000E+00 0.  1.
         12    1    3    3    0    0  0.48781043097E+01 -0.93110052666E+01  0.40313308539E+03  0.40327010212E+03  0.00000000000E+00 0. -1.
         21    1    1    2  502  501  0.12700263390E+02 -0.17404745063E+02  0.22336765828E+03  0.22440439525E+03  0.00000000000E+00 0.  1.
<mgrwt>
<rscale>  1 0.79179686E+02</rscale>
<asrwt>0</asrwt>
<pdfrwt beam="1">  1        2 0.10888002E+00 0.79179686E+02</pdfrwt>
<pdfrwt beam="2">  1       -1 0.57812558E-03 0.79179686E+02</pdfrwt>
<totfact> 0.16502521E+05</totfact>
</mgrwt>
</event>
<event>
 6    2  0.1063641E+001  0.8058637E+02  0.7546771E-02  0.1327396E+00
         -1   -1    0    0    0  501 -0.00000000000E+00  0.00000000000E+00  0.36881017236E+01  0.36881017236E+01  0.00000000000E+00 0.  1.
          2   -1    0    0  502    0  0.00000000000E+00 -0.00000000000E+00 -0.11326641513E+04  0.11326641513E+04  0.00000000000E+00 0. -1.
         24    2    1    2    0    0 -0.53661771038E+01  0.25210820301E+02 -0.46899966222E+03  0.47587272027E+03  0.76353005303E+02 0.  0.
        -11    1    3    3    0    0  0.13366755991E+02  0.41351401944E+02 -0.15727113459E+03  0.16316500355E+03  0.00000000000E+00 0.  1.
         12    1    3    3    0    0 -0.18732933095E+02 -0.16140581644E+02 -0.31172852762E+03  0.31270771671E+03  0.00000000000E+00 0. -1.
         21    1    1    2  502  501  0.53661771038E+01 -0.25210820301E+02 -0.65997638738E+03  0.66047953277E+03  0.00000000000E+00 0.  1.
<mgrwt>
<rscale>  1 0.80586368E+02</rscale>
<asrwt>0</asrwt>
<pdfrwt beam="1">  1        2 0.17425588E+00 0.80586368E+02</pdfrwt>
<pdfrwt beam="2">  1       -1 0.56740074E-03 0.80586368E+02</pdfrwt>
<totfact> 0.92954913E+04</totfact>
</mgrwt>
</event>
<event>
 6    2  0.1063641E+001  0.8069531E+02  0.7546771E-02  0.1327090E+00
         -1   -1    0    0    0  501 -0.00000000000E+00  0.00000000000E+00  0.60762140731E+02  0.60762140731E+02  0.00000000000E+00 0.  1.
          2   -1    0    0  502    0  0.00000000000E+00 -0.00000000000E+00 -0.67434541110E+02  0.67434541110E+02  0.00000000000E+00 0. -1.
         24    2    1    2    0    0  0.20440823000E+02 -0.29822156944E+02  0.20156599909E+02  0.83174647834E+02  0.72142534144E+02 0.  0.
        -13    1    3    3    0    0  0.26371360968E+02 -0.37452275043E+02  0.40186705687E+02  0.60935153230E+02  0.00000000000E+00 0.  1.
         14    1    3    3    0    0 -0.59305379682E+01  0.76301180986E+01 -0.20030105778E+02  0.22239494604E+02  0.00000000000E+00 0. -1.
         21    1    1    2  502  501 -0.20440823000E+02  0.29822156944E+02 -0.26829000288E+02  0.45022034007E+02  0.00000000000E+00 0. -1.
<mgrwt>
<rscale>  1 0.80695313E+02</rscale>
<asrwt>0</asrwt>
<pdfrwt beam="1">  1        2 0.10374545E-01 0.80695313E+02</pdfrwt>
<pdfrwt beam="2">  1       -1 0.93480217E-02 0.80695313E+02</pdfrwt>
<totfact> 0.40285562E+04</totfact>
</mgrwt>
</event>
<event>
 6    2  0.1063641E+001  0.8927668E+02  0.7546771E-02  0.1304613E+00
         -1   -1    0    0    0  501 -0.00000000000E+00  0.00000000000E+00  0.11533418384E+02  0.11533418384E+02  0.00000000000E+00 0.  1.
          2   -1    0    0  502    0  0.00000000000E+00 -0.00000000000E+00 -0.87618439349E+03  0.87618439349E+03  0.00000000000E+00 0. -1.
         24    2    1    2    0    0 -0.25442315379E+02  0.17630770004E+02 -0.16687298738E+03  0.18925358543E+03  0.83738702040E+02 0.  0.
        -13    1    3    3    0    0 -0.45785808410E+02  0.18115575426E+02 -0.48394120569E+02  0.69039881449E+02  0.00000000000E+00 0.  1.
         14    1    3    3    0    0  0.20343493031E+02 -0.48480542181E+00 -0.11847886681E+03  0.12021370398E+03  0.00000000000E+00 0. -1.
         21    1    1    2  502  501  0.25442315379E+02 -0.17630770004E+02 -0.69777798773E+03  0.69846422645E+03  0.00000000000E+00 0. -1.
<mgrwt>
<rscale>  1 0.89276681E+02</rscale>
<asrwt>0</asrwt>
<pdfrwt beam="1">  1        2 0.13479757E+00 0.89276681E+02</pdfrwt>
<pdfrwt beam="2">  1       -1 0.17743725E-02 0.89276681E+02</pdfrwt>
<totfact> 0.26670497E+04</totfact>
</mgrwt>
</event>
<event>
 6    2  0.1063641E+001  0.9115457E+02  0.7546771E-02  0.1300080E+00
         -1   -1    0    0    0  501 -0.00000000000E+00  0.00000000000E+00  0.27149768689E+01  0.27149768689E+01  0.00000000000E+00 0.  1.
          2   -1    0    0  502    0  0.00000000000E+00 -0.00000000000E+00 -0.13886503498E+04  0.13886503498E+04  0.00000000000E+00 0. -1.
         24    2    1    2    0    0  0.10653140864E+02 -0.20561498475E+02 -0.83846882604E+03  0.84340922934E+03  0.88164002138E+02 0.  0.
        -13    1    3    3    0    0 -0.18866986463E+02 -0.40346551808E+02 -0.25510813804E+03  0.25896712053E+03  0.00000000000E+00 0.  1.
         14    1    3    3    0    0  0.29520127327E+02  0.19785053333E+02 -0.58336068800E+03  0.58444210881E+03  0.00000000000E+00 0. -1.
         21    1    1    2  502  501 -0.10653140864E+02  0.20561498475E+02 -0.54746654685E+03  0.54795609728E+03  0.00000000000E+00 0. -1.
<mgrwt>
<rscale>  1 0.91154571E+02</rscale>
<asrwt>0</asrwt>
<pdfrwt beam="1">  1        2 0.21363856E+00 0.91154571E+02</pdfrwt>
<pdfrwt beam="2">  1       -1 0.41768866E-03 0.91154571E+02</pdfrwt>
<totfact> 0.10570625E+05</totfact>
</mgrwt>
</event>
<event>
 6    2  0.1063641E+001  0.8210034E+02  0.7546771E-02  0.1323194E+00
         -1   -1    0    0    0  501 -0.00000000000E+00  0.00000000000E+00  0.21976332795E+01  0.21976332795E+01  0.00000000000E+00 0.  1.
          2   -1    0    0  502    0  0.00000000000E+00 -0.00000000000E+00 -0.21187228385E+04  0.21187228385E+04  0.00000000000E+00 0. -1.
         24    2    1    2    0    0 -0.42968205999E+01  0.19541810543E+02 -0.79196662997E+03  0.79621078121E+03  0.79624871103E+02 0.  0.
        -11    1    3    3    0    0 -0.68103409926E+01  0.25652859011E+02 -0.81489181508E+02  0.85702605694E+02  0.00000000000E+00 0.  1.
         12    1    3    3    0    0  0.25135203928E+01 -0.61110484686E+01 -0.71047744847E+03  0.71050817552E+03  0.00000000000E+00 0. -1.
         21    1    1    2  502  501  0.42968205999E+01 -0.19541810543E+02 -0.13245585753E+04  0.13247096906E+04  0.00000000000E+00 0. -1.
<mgrwt>
<rscale>  1 0.82100336E+02</rscale>
<asrwt>0</asrwt>
<pdfrwt beam="1">  1        2 0.32595764E+00 0.82100336E+02</pdfrwt>
<pdfrwt beam="2">  1       -1 0.33809713E-03 0.82100336E+02</pdfrwt>
<totfact> 0.60136102E+04</totfact>
</mgrwt>
</event>
<event>
 6    2  0.1063641E+001  0.8456982E+02  0.7546771E-02  0.1316561E+00
         -1   -1    0    0    0  501 -0.00000000000E+00  0.00000000000E+00  0.17066706045E+02  0.17066706045E+02  0.00000000000E+00 0.  1.
          2   -1    0    0  502    0  0.00000000000E+00 -0.00000000000E+00 -0.53777848328E+03  0.53777848328E+03  0.00000000000E+00 0. -1.
         24    2    1    2    0    0  0.91289695927E+01  0.29975489399E+02 -0.91902082482E+02  0.12489214263E+03  0.78550534531E+02 0.  0.
        -11    1    3    3    0    0 -0.93230783566E+01  0.59998667661E+01  0.12198743910E+02  0.16484160405E+02  0.00000000000E+00 0.  1.
         12    1    3    3    0    0  0.18452047949E+02  0.23975622633E+02 -0.10410082639E+03  0.10840798222E+03  0.00000000000E+00 0. -1.
         21    1    1    2  502  501 -0.91289695927E+01 -0.29975489399E+02 -0.42880969476E+03  0.42995304670E+03  0.00000000000E+00 0. -1.
<mgrwt>
<rscale>  1 0.84569820E+02</rscale>
<asrwt>0</asrwt>
<pdfrwt beam="1">  1        2 0.82735146E-01 0.84569820E+02</pdfrwt>
<pdfrwt beam="2">  1       -1 0.26256473E-02 0.84569820E+02</pdfrwt>
<totfact> 0.26760514E+04</totfact>
</mgrwt>
</event>
<event>
 6    2  0.1063641E+001  0.8939634E+02  0.7546771E-02  0.1304320E+00
         -3   -1    0    0    0  501 -0.00000000000E+00  0.00000000000E+00  0.48981194596E+02  0.48981194596E+02  0.00000000000E+00 0.  1.
          4   -1    0    0  502    0  0.00000000000E+00 -0.00000000000E+00 -0.19827549431E+03  0.19827549431E+03  0.00000000000E+00 0. -1.
         24    2    1    2    0    0  0.32703980375E+02 -0.22153028709E+02  0.34744072290E+01  0.89463834714E+02  0.80196004905E+02 0.  0.
        -13    1    3    3    0    0  0.54550481731E+02 -0.30737645952E+02  0.13310694136E+02  0.64013533835E+02  0.00000000000E+00 0.  1.
         14    1    3    3    0    0 -0.21846501356E+02  0.85846172430E+01 -0.98362869070E+01  0.25450300879E+02  0.00000000000E+00 0. -1.
         21    1    1    2  502  501 -0.32703980375E+02  0.22153028709E+02 -0.15276870694E+03  0.15779285419E+03  0.00000000000E+00 0. -1.
<mgrwt>
<rscale>  1 0.89396343E+02</rscale>
<asrwt>0</asrwt>
<pdfrwt beam="1">  1        4 0.30503921E-01 0.89396343E+02</pdfrwt>
<pdfrwt beam="2">  1       -3 0.75355686E-02 0.89396343E+02</pdfrwt>
<totfact> 0.21392547E+03</totfact>
</mgrwt>
</event>
<event>
 6    2  0.1063641E+001  0.8924297E+02  0.7546771E-02  0.1304695E+00
         -1   -1    0    0    0  501 -0.00000000000E+00  0.00000000000E+00  0.57146425744E+03  0.57146425744E+03  0.00000000000E+00 0.  1.
          2   -1    0    0  502    0  0.00000000000E+00 -0.00000000000E+00 -0.84571040266E+01  0.84571040266E+01  0.00000000000E+00 0. -1.
         24    2    1    2    0    0 -0.45833233285E+02 -0.74421842755E+01  0.42638238291E+03  0.43562167576E+03  0.76211787506E+02 0.  0.
        -13    1    3    3    0    0 -0.55161938783E+02  0.13042904382E+02  0.37840042492E+03  0.38262231825E+03  0.00000000000E+00 0.  1.
         14    1    3    3    0    0  0.93287054977E+01 -0.20485088658E+02  0.47981957989E+02  0.52999357506E+02  0.00000000000E+00 0. -1.
         21    1    1    2  502  501  0.45833233285E+02  0.74421842755E+01  0.13662477050E+03  0.14429968571E+03  0.00000000000E+00 0. -1.
<mgrwt>
<rscale>  1 0.89242971E+02</rscale>
<asrwt>0</asrwt>
<pdfrwt beam="1">  1        2 0.13010934E-02 0.89242971E+02</pdfrwt>
<pdfrwt beam="2">  1       -1 0.87917548E-01 0.89242971E+02</pdfrwt>
<totfact> 0.13654859E+04</totfact>
</mgrwt>
</event>
<event>
 6    2  0.1063641E+001  0.8480818E+02  0.7546771E-02  0.1315935E+00
          2   -1    0    0  502    0  0.00000000000E+00  0.00000000000E+00  0.13750915792E+03  0.13750915792E+03  0.00000000000E+00 0. -1.
         -1   -1    0    0    0  501 -0.00000000000E+00 -0.00000000000E+00 -0.22648443267E+02  0.22648443267E+02  0.00000000000E+00 0.  1.
         24    2    1    2    0    0 -0.10906051552E+02 -0.19787880800E+02  0.70145799464E+02  0.11005844124E+03  0.81743043245E+02 0.  0.
        -11    1    3    3    0    0 -0.23585965775E+02 -0.43656197800E+02  0.20815413936E+02  0.53809319316E+02  0.00000000000E+00 0.  1.
         12    1    3    3    0    0  0.12679914223E+02  0.23868316999E+02  0.49330385527E+02  0.56249121925E+02  0.00000000000E+00 0. -1.
         21    1    1    2  502  501  0.10906051552E+02  0.19787880800E+02  0.44714915192E+02  0.50099159950E+02  0.00000000000E+00 0.  1.
<mgrwt>
<rscale>  1 0.84808179E+02</rscale>
<asrwt>0</asrwt>
<pdfrwt beam="1">  1        2 0.21155255E-01 0.84808179E+02</pdfrwt>
<pdfrwt beam="2">  1       -1 0.34843760E-02 0.84808179E+02</pdfrwt>
<totfact> 0.75887010E+04</totfact>
</mgrwt>
</event>
<event>
 6    2  0.1063641E+001  0.8655281E+02  0.7546771E-02  0.1311421E+00
          2   -1    0    0  502    0  0.00000000000E+00  0.00000000000E+00  0.20019750090E+04  0.20019750090E+04  0.00000000000E+00 0. -1.
         -1   -1    0    0    0  501 -0.00000000000E+00 -0.00000000000E+00 -0.18098644648E+01  0.18098644648E+01  0.00000000000E+00 0.  1.
         24    2    1    2    0    0 -0.25021219438E+01 -0.33296461891E+02  0.15172660361E+04  0.15197327441E+04  0.79852828888E+02 0.  0.
        -13    1    3    3    0    0  0.17624219160E+02 -0.44453736391E+02  0.51820949934E+03  0.52041121527E+03  0.00000000000E+00 0.  1.
         14    1    3    3    0    0 -0.20126341104E+02  0.11157274500E+02  0.99905653673E+03  0.99932152882E+03  0.00000000000E+00 0. -1.
         21    1    1    2  502  501  0.25021219438E+01  0.33296461891E+02  0.48289910847E+03  0.48405212937E+03  0.00000000000E+00 0. -1.
<mgrwt>
<rscale>  1 0.86552812E+02</rscale>
<asrwt>0</asrwt>
<pdfrwt beam="1">  1        2 0.30799438E+00 0.86552812E+02</pdfrwt>
<pdfrwt beam="2">  1       -1 0.27844229E-03 0.86552812E+02</pdfrwt>
<totfact> 0.90586941E+04</totfact>
</mgrwt>
</event>
<event>
 6    2  0.1063641E+001  0.8594808E+02  0.7546771E-02  0.1312972E+00
         -1   -1    0    0    0  501 -0.00000000000E+00  0.00000000000E+00  0.22063727117E+01  0.22063727117E+01  0.00000000000E+00 0.  1.
          2   -1    0    0  502    0  0.00000000000E+00 -0.00000000000E+00 -0.23809078703E+04  0.23809078703E+04  0.00000000000E+00 0. -1.
         24    2    1    2    0    0  0.22308910750E+02  0.20998336233E+02 -0.89981800314E+03  0.90391344265E+03  0.80302275278E+02 0.  0.
        -11    1    3    3    0    0 -0.21913141264E+02 -0.15973018047E+02 -0.22226635685E+03  0.22391439537E+03  0.00000000000E+00 0.  1.
         12    1    3    3    0    0  0.44222052014E+02  0.36971354280E+02 -0.67755164628E+03  0.67999904728E+03  0.00000000000E+00 0. -1.
         21    1    1    2  502  501 -0.22308910750E+02 -0.20998336233E+02 -0.14788834944E+04  0.14792008003E+04  0.00000000000E+00 0.  1.
<mgrwt>
<rscale>  1 0.85948083E+02</rscale>
<asrwt>0</asrwt>
<pdfrwt beam="1">  1        2 0.36629410E+00 0.85948083E+02</pdfrwt>
<pdfrwt beam="2">  1       -1 0.33944142E-03 0.85948083E+02</pdfrwt>
<totfact> 0.44143040E+04</totfact>
</mgrwt>
</event>
<event>
 6    2  0.1063641E+001  0.8302347E+02  0.7546771E-02  0.1320684E+00
          2   -1    0    0  502    0  0.00000000000E+00  0.00000000000E+00  0.58773279995E+03  0.58773279995E+03  0.00000000000E+00 0. -1.
         -1   -1    0    0    0  501 -0.00000000000E+00 -0.00000000000E+00 -0.87617641294E+01  0.87617641294E+01  0.00000000000E+00 0.  1.
         24    2    1    2    0    0  0.31517240916E+02  0.54132413140E+01  0.20521834216E+03  0.22137629516E+03  0.76617598792E+02 0.  0.
        -11    1    3    3    0    0  0.48351018345E+02  0.28670610706E+01  0.70196707096E+02  0.85285512846E+02  0.00000000000E+00 0.  1.
         12    1    3    3    0    0 -0.16833777429E+02  0.25461802434E+01  0.13502163506E+03  0.13609078232E+03  0.00000000000E+00 0. -1.
         21    1    1    2  502  501 -0.31517240916E+02 -0.54132413140E+01  0.37375269366E+03  0.37511826892E+03  0.00000000000E+00 0. -1.
<mgrwt>
<rscale>  1 0.83023467E+02</rscale>
<asrwt>0</asrwt>
<pdfrwt beam="1">  1        2 0.90420400E-01 0.83023467E+02</pdfrwt>
<pdfrwt beam="2">  1       -1 0.13479642E-02 0.83023467E+02</pdfrwt>
<totfact> 0.62505588E+04</totfact>
</mgrwt>
</event>
<event>
 6    2  0.1063641E+001  0.8402153E+02  0.7546771E-02  0.1318011E+00
          2   -1    0    0  502    0  0.00000000000E+00  0.00000000000E+00  0.18698773714E+03  0.18698773714E+03  0.00000000000E+00 0. -1.
         -1   -1    0    0    0  501 -0.00000000000E+00 -0.00000000000E+00 -0.35375246102E+02  0.35375246102E+02  0.00000000000E+00 0.  1.
         24    2    1    2    0    0  0.17050302199E+02  0.15824518248E+02  0.16960300856E+02  0.85716210489E+02  0.80737158438E+02 0.  0.
        -11    1    3    3    0    0 -0.25585652167E+02 -0.99583422832E+01 -0.98090119243E+01  0.29154946283E+02  0.00000000000E+00 0.  1.
         12    1    3    3    0    0  0.42635954366E+02  0.25782860532E+02  0.26769312780E+02  0.56561264206E+02  0.00000000000E+00 0. -1.
         21    1    1    2  502  501 -0.17050302199E+02 -0.15824518248E+02  0.13465219018E+03  0.13664677275E+03  0.00000000000E+00 0. -1.
<mgrwt>
<rscale>  1 0.84021527E+02</rscale>
<asrwt>0</asrwt>
<pdfrwt beam="1">  1        2 0.28767344E-01 0.84021527E+02</pdfrwt>
<pdfrwt beam="2">  1       -1 0.54423457E-02 0.84021527E+02</pdfrwt>
<totfact> 0.28370608E+04</totfact>
</mgrwt>
</event>
<event>
 6    2  0.1063641E+001  0.8453222E+02  0.7546771E-02  0.1316660E+00
          2   -1    0    0  502    0  0.00000000000E+00  0.00000000000E+00  0.35976934588E+03  0.35976934588E+03  0.00000000000E+00 0. -1.
         -1   -1    0    0    0  501 -0.00000000000E+00 -0.00000000000E+00 -0.13203370630E+02  0.13203370630E+02  0.00000000000E+00 0.  1.
         24    2    1    2    0    0 -0.13559405123E+01 -0.26332775301E+02  0.13169849223E+03  0.15649341291E+03  0.80314642485E+02 0.  0.
        -11    1    3    3    0    0 -0.14467281634E+02 -0.22834637956E+02  0.31319588999E+01  0.27212719360E+02  0.00000000000E+00 0.  1.
         12    1    3    3    0    0  0.13111341121E+02 -0.34981373451E+01  0.12856653333E+03  0.12928069355E+03  0.00000000000E+00 0. -1.
         21    1    1    2  502  501  0.13559405123E+01  0.26332775301E+02  0.21486748302E+03  0.21647930360E+03  0.00000000000E+00 0. -1.
<mgrwt>
<rscale>  1 0.84532215E+02</rscale>
<asrwt>0</asrwt>
<pdfrwt beam="1">  1        2 0.55349123E-01 0.84532215E+02</pdfrwt>
<pdfrwt beam="2">  1       -1 0.20312881E-02 0.84532215E+02</pdfrwt>
<totfact> 0.59168716E+04</totfact>
</mgrwt>
</event>
<event>
 6    2  0.1063641E+001  0.8484334E+02  0.7546771E-02  0.1315843E+00
         -1   -1    0    0    0  501 -0.00000000000E+00  0.00000000000E+00  0.47322103825E+01  0.47322103825E+01  0.00000000000E+00 0.  1.
          2   -1    0    0  502    0  0.00000000000E+00 -0.00000000000E+00 -0.68722601569E+03  0.68722601569E+03  0.00000000000E+00 0. -1.
         24    2    1    2    0    0  0.21840141396E+02 -0.13798289262E+02 -0.44105843213E+03  0.44914466800E+03  0.80814650135E+02 0.  0.
        -13    1    3    3    0    0 -0.22177948424E+01 -0.44830208051E+02 -0.20643544825E+03  0.21125875239E+03  0.00000000000E+00 0.  1.
         14    1    3    3    0    0  0.24057936238E+02  0.31031918789E+02 -0.23462298388E+03  0.23788591561E+03  0.00000000000E+00 0. -1.
         21    1    1    2  502  501 -0.21840141396E+02  0.13798289262E+02 -0.24143537318E+03  0.24281355808E+03  0.00000000000E+00 0. -1.
<mgrwt>
<rscale>  1 0.84843339E+02</rscale>
<asrwt>0</asrwt>
<pdfrwt beam="1">  1        2 0.10572706E+00 0.84843339E+02</pdfrwt>
<pdfrwt beam="2">  1       -1 0.72803249E-03 0.84843339E+02</pdfrwt>
<totfact> 0.12498872E+05</totfact>
</mgrwt>
</event>
<event>
 6    2  0.1063641E+001  0.1039059E+03  0.7546771E-02  0.1272290E+00
         -1   -1    0    0    0  501 -0.00000000000E+00  0.00000000000E+00  0.11341378564E+02  0.11341378564E+02  0.00000000000E+00 0.  1.
          2   -1    0    0  502    0  0.00000000000E+00 -0.00000000000E+00 -0.67507292429E+03  0.67507292429E+03  0.00000000000E+00 0. -1.
         24    2    1    2    0    0 -0.57227810943E+02 -0.37724016659E+01 -0.28470453241E+03  0.30307277081E+03  0.86643985814E+02 0.  0.
        -11    1    3    3    0    0 -0.72744518168E+02 -0.18039787825E+02 -0.26005373795E+03  0.27063840357E+03  0.00000000000E+00 0.  1.
         12    1    3    3    0    0  0.15516707226E+02  0.14267386159E+02 -0.24650794457E+02  0.32434367241E+02  0.00000000000E+00 0. -1.
         21    1    1    2  502  501  0.57227810943E+02  0.37724016659E+01 -0.37902701332E+03  0.38334153204E+03  0.00000000000E+00 0. -1.
<mgrwt>
<rscale>  1 0.10390589E+03</rscale>
<asrwt>0</asrwt>
<pdfrwt beam="1">  1        2 0.10385735E+00 0.10390589E+03</pdfrwt>
<pdfrwt beam="2">  1       -1 0.17448278E-02 0.10390589E+03</pdfrwt>
<totfact> 0.38024000E+04</totfact>
</mgrwt>
</event>
<event>
 6    2  0.1063641E+001  0.8635920E+02  0.7546771E-02  0.1311916E+00
         -1   -1    0    0    0  501 -0.00000000000E+00  0.00000000000E+00  0.38099542741E+02  0.38099542741E+02  0.00000000000E+00 0.  1.
          2   -1    0    0  502    0  0.00000000000E+00 -0.00000000000E+00 -0.10988193904E+03  0.10988193904E+03  0.00000000000E+00 0. -1.
         24    2    1    2    0    0 -0.53665748241E+01 -0.27915753843E+02 -0.19595402339E+02  0.88554452775E+02  0.81546439992E+02 0.  0.
        -11    1    3    3    0    0 -0.23795566501E+02 -0.31520140260E+02  0.20340573069E+02  0.44423947820E+02  0.00000000000E+00 0.  1.
         12    1    3    3    0    0  0.18428991677E+02  0.36043864173E+01 -0.39935975409E+02  0.44130504954E+02  0.00000000000E+00 0. -1.
         21    1    1    2  502  501  0.53665748241E+01  0.27915753843E+02 -0.52186993958E+02  0.59427029005E+02  0.00000000000E+00 0. -1.
<mgrwt>
<rscale>  1 0.86359199E+02</rscale>
<asrwt>0</asrwt>
<pdfrwt beam="1">  1        2 0.16904914E-01 0.86359199E+02</pdfrwt>
<pdfrwt beam="2">  1       -1 0.58614681E-02 0.86359199E+02</pdfrwt>
<totfact> 0.45891088E+04</totfact>
</mgrwt>
</event>
<event>
 6    2  0.1063641E+001  0.1199914E+03  0.7546771E-02  0.1243111E+00
          2   -1    0    0  502    0  0.00000000000E+00  0.00000000000E+00  0.82727400488E+02  0.82727400488E+02  0.00000000000E+00 0. -1.
         -1   -1    0    0    0  501 -0.00000000000E+00 -0.00000000000E+00 -0.17596074733E+03  0.17596074733E+03  0.00000000000E+00 0.  1.
         24    2    1    2    0    0  0.79751072212E+02  0.37387328560E+02 -0.11686076417E+03  0.16749439416E+03  0.81485508014E+02 0.  0.
        -13    1    3    3    0    0  0.79560904442E+02  0.40643731476E+02 -0.12788294049E+03  0.15599966952E+03  0.00000000000E+00 0.  1.
         14    1    3    3    0    0  0.19016776994E+00 -0.32564029156E+01  0.11022176315E+02  0.11494724636E+02  0.00000000000E+00 0. -1.
         21    1    1    2  502  501 -0.79751072212E+02 -0.37387328560E+02  0.23627417333E+02  0.91193753655E+02  0.00000000000E+00 0. -1.
<mgrwt>
<rscale>  1 0.11999139E+03</rscale>
<asrwt>0</asrwt>
<pdfrwt beam="1">  1        2 0.12727293E-01 0.11999139E+03</pdfrwt>
<pdfrwt beam="2">  1       -1 0.27070884E-01 0.11999139E+03</pdfrwt>
<totfact> 0.62177102E+03</totfact>
</mgrwt>
</event>
<event>
 6    2  0.1063641E+001  0.9558758E+02  0.7546771E-02  0.1289858E+00
         -1   -1    0    0    0  501 -0.00000000000E+00  0.00000000000E+00  0.17534728436E+01  0.17534728436E+01  0.00000000000E+00 0.  1.
          2   -1    0    0  502    0  0.00000000000E+00 -0.00000000000E+00 -0.30698508152E+04  0.30698508152E+04  0.00000000000E+00 0. -1.
         24    2    1    2    0    0  0.44714436515E+02  0.23534524955E+02 -0.18689860127E+04  0.18714287861E+04  0.81140192604E+02 0.  0.
        -11    1    3    3    0    0  0.57547055951E+02 -0.11108632348E+02 -0.11217028587E+04  0.11232329983E+04  0.00000000000E+00 0.  1.
         12    1    3    3    0    0 -0.12832619436E+02  0.34643157302E+02 -0.74728315406E+03  0.74819578775E+03  0.00000000000E+00 0. -1.
         21    1    1    2  502  501 -0.44714436515E+02 -0.23534524955E+02 -0.11991113296E+04  0.12001755020E+04  0.00000000000E+00 0. -1.
<mgrwt>
<rscale>  1 0.95587581E+02</rscale>
<asrwt>0</asrwt>
<pdfrwt beam="1">  1        2 0.47228185E+00 0.95587581E+02</pdfrwt>
<pdfrwt beam="2">  1       -1 0.26976671E-03 0.95587581E+02</pdfrwt>
<totfact> 0.25802459E+04</totfact>
</mgrwt>
</event>
<event>
 6    2  0.1063641E+001  0.8547033E+02  0.7546771E-02  0.1314207E+00
          2   -1    0    0  502    0  0.00000000000E+00  0.00000000000E+00  0.17930960686E+03  0.17930960686E+03  0.00000000000E+00 0. -1.
         -1   -1    0    0    0  501 -0.00000000000E+00 -0.00000000000E+00 -0.18678190022E+02  0.18678190022E+02  0.00000000000E+00 0.  1.
         24    2    1    2    0    0  0.27589455045E+02  0.10690225013E+02  0.12828546520E+03  0.15415037533E+03  0.80185526707E+02 0.  0.
        -11    1    3    3    0    0  0.24194050636E+02  0.37019631528E+02  0.32846861729E+02  0.55088306655E+02  0.00000000000E+00 0.  1.
         12    1    3    3    0    0  0.33954044093E+01 -0.26329406515E+02  0.95438603469E+02  0.99062068677E+02  0.00000000000E+00 0. -1.
         21    1    1    2  502  501 -0.27589455045E+02 -0.10690225013E+02  0.32345951637E+02  0.43837421547E+02  0.00000000000E+00 0. -1.
<mgrwt>
<rscale>  1 0.85470332E+02</rscale>
<asrwt>0</asrwt>
<pdfrwt beam="1">  1        2 0.27586092E-01 0.85470332E+02</pdfrwt>
<pdfrwt beam="2">  1       -1 0.28735678E-02 0.85470332E+02</pdfrwt>
<totfact> 0.75060509E+04</totfact>
</mgrwt>
</event>
<event>
 6    2  0.1063641E+001  0.7111791E+02  0.7546771E-02  0.1356332E+00
         -3   -1    0    0    0  501 -0.00000000000E+00  0.00000000000E+00  0.15769569501E+04  0.15769569501E+04  0.00000000000E+00 0.  1.
          4   -1    0    0  502    0  0.00000000000E+00 -0.00000000000E+00 -0.19044763657E+01  0.19044763657E+01  0.00000000000E+00 0. -1.
         24    2    1    2    0    0  0.13456596143E+01  0.26285222788E+02  0.14035999651E+04  0.14054005189E+04  0.66068394539E+02 0.  0.
        -13    1    3    3    0    0 -0.79513150750E+01  0.12920539607E+02  0.13271310538E+04  0.13272177657E+04  0.00000000000E+00 0.  1.
         14    1    3    3    0    0  0.92969746893E+01  0.13364683181E+02  0.76468911268E+02  0.78182753120E+02  0.00000000000E+00 0. -1.
         21    1    1    2  502  501 -0.13456596143E+01 -0.26285222788E+02  0.17145250866E+03  0.17346090759E+03  0.00000000000E+00 0. -1.
<mgrwt>
<rscale>  1 0.71117906E+02</rscale>
<asrwt>0</asrwt>
<pdfrwt beam="1">  1        4 0.29299762E-03 0.71117906E+02</pdfrwt>
<pdfrwt beam="2">  1       -3 0.24260772E+00 0.71117906E+02</pdfrwt>
<totfact> 0.28730433E+03</totfact>
</mgrwt>
</event>
<event>
 6    2  0.1063641E+001  0.8838817E+02  0.7546771E-02  0.1306803E+00
          2   -1    0    0  502    0  0.00000000000E+00  0.00000000000E+00  0.11791055227E+04  0.11791055227E+04  0.00000000000E+00 0. -1.
         -1   -1    0    0    0  501 -0.00000000000E+00 -0.00000000000E+00 -0.32470007011E+01  0.32470007011E+01  0.00000000000E+00 0.  1.
         24    2    1    2    0    0  0.46615016261E+01 -0.34360808961E+02  0.78565884767E+03  0.79061513606E+03  0.81302359526E+02 0.  0.
        -11    1    3    3    0    0  0.76935206248E+01 -0.22795725489E+01  0.53566039955E+01  0.96477933733E+01  0.00000000000E+00 0.  1.
         12    1    3    3    0    0 -0.30320189987E+01 -0.32081236412E+02  0.78030224367E+03  0.78096734269E+03  0.00000000000E+00 0. -1.
         21    1    1    2  502  501 -0.46615016261E+01  0.34360808961E+02  0.39019967431E+03  0.39173738732E+03  0.00000000000E+00 0.  1.
<mgrwt>
<rscale>  1 0.88388169E+02</rscale>
<asrwt>0</asrwt>
<pdfrwt beam="1">  1        2 0.18140051E+00 0.88388169E+02</pdfrwt>
<pdfrwt beam="2">  1       -1 0.49953951E-03 0.88388169E+02</pdfrwt>
<totfact> 0.10597717E+05</totfact>
</mgrwt>
</event>
<event>
 6    2  0.1063641E+001  0.8871468E+02  0.7546771E-02  0.1305994E+00
         -1   -1    0    0    0  501 -0.00000000000E+00  0.00000000000E+00  0.19563301120E+02  0.19563301120E+02  0.00000000000E+00 0.  1.
          2   -1    0    0  502    0  0.00000000000E+00 -0.00000000000E+00 -0.24233684399E+03  0.24233684399E+03  0.00000000000E+00 0. -1.
         24    2    1    2    0    0  0.30907702018E+02 -0.27265824137E+02 -0.10691202559E+03  0.13892615438E+03  0.78559429383E+02 0.  0.
        -13    1    3    3    0    0  0.49402632351E+02 -0.18816694881E+02 -0.33117570800E+02  0.62381580496E+02  0.00000000000E+00 0.  1.
         14    1    3    3    0    0 -0.18494930334E+02 -0.84491292552E+01 -0.73794454790E+02  0.76544573883E+02  0.00000000000E+00 0. -1.
         21    1    1    2  502  501 -0.30907702018E+02  0.27265824137E+02 -0.11586151728E+03  0.12297399073E+03  0.00000000000E+00 0. -1.
<mgrwt>
<rscale>  1 0.88714684E+02</rscale>
<asrwt>0</asrwt>
<pdfrwt beam="1">  1        2 0.37282591E-01 0.88714684E+02</pdfrwt>
<pdfrwt beam="2">  1       -1 0.30097386E-02 0.88714684E+02</pdfrwt>
<totfact> 0.51261206E+04</totfact>
</mgrwt>
</event>
<event>
 6    2  0.1063641E+001  0.1084476E+03  0.7546771E-02  0.1263472E+00
         -1   -1    0    0    0  501 -0.00000000000E+00  0.00000000000E+00  0.52903005905E+01  0.52903005905E+01  0.00000000000E+00 0.  1.
          2   -1    0    0  502    0  0.00000000000E+00 -0.00000000000E+00 -0.16102992777E+04  0.16102992777E+04  0.00000000000E+00 0. -1.
         24    2    1    2    0    0  0.71627236840E+02 -0.21814039607E+02 -0.85430136174E+03  0.86115718426E+03  0.78451041799E+02 0.  0.
        -11    1    3    3    0    0  0.10671423771E+02  0.27112394849E+02 -0.18035883850E+03  0.18269721362E+03  0.00000000000E+00 0.  1.
         12    1    3    3    0    0  0.60955813069E+02 -0.48926434456E+02 -0.67394252324E+03  0.67845997065E+03  0.00000000000E+00 0. -1.
         21    1    1    2  502  501 -0.71627236840E+02  0.21814039607E+02 -0.75070761541E+03  0.75443239407E+03  0.00000000000E+00 0.  1.
<mgrwt>
<rscale>  1 0.10844759E+03</rscale>
<asrwt>0</asrwt>
<pdfrwt beam="1">  1        2 0.24773835E+00 0.10844759E+03</pdfrwt>
<pdfrwt beam="2">  1       -1 0.81389239E-03 0.10844759E+03</pdfrwt>
<totfact> 0.32407107E+04</totfact>
</mgrwt>
</event>
<event>
 6    2  0.1063641E+001  0.8531803E+02  0.7546771E-02  0.1314603E+00
         -1   -1    0    0    0  501 -0.00000000000E+00  0.00000000000E+00  0.77335439614E+01  0.77335439614E+01  0.00000000000E+00 0.  1.
          2   -1    0    0  502    0  0.00000000000E+00 -0.00000000000E+00 -0.61298715662E+03  0.61298715662E+03  0.00000000000E+00 0. -1.
         24    2    1    2    0    0  0.26880282373E+01 -0.23381394015E+02 -0.24007681538E+03  0.25478626881E+03  0.82007624106E+02 0.  0.
        -13    1    3    3    0    0  0.39186337779E+02 -0.20262904788E+02 -0.89021555285E+02  0.99352864500E+02  0.00000000000E+00 0.  1.
         14    1    3    3    0    0 -0.36498309542E+02 -0.31184892276E+01 -0.15105526009E+03  0.15543340431E+03  0.00000000000E+00 0. -1.
         21    1    1    2  502  501 -0.26880282373E+01  0.23381394015E+02 -0.36517679728E+03  0.36593443177E+03  0.00000000000E+00 0. -1.
<mgrwt>
<rscale>  1 0.85318026E+02</rscale>
<asrwt>0</asrwt>
<pdfrwt beam="1">  1        2 0.94305732E-01 0.85318026E+02</pdfrwt>
<pdfrwt beam="2">  1       -1 0.11897758E-02 0.85318026E+02</pdfrwt>
<totfact> 0.71396484E+04</totfact>
</mgrwt>
</event>
<event>
 6    2  0.1063641E+001  0.7898175E+02  0.7546771E-02  0.1331966E+00
          2   -1    0    0  502    0  0.00000000000E+00  0.00000000000E+00  0.57098727596E+02  0.57098727596E+02  0.00000000000E+00 0. -1.
         -1   -1    0    0    0  501 -0.00000000000E+00 -0.00000000000E+00 -0.49559805713E+02  0.49559805713E+02  0.00000000000E+00 0.  1.
         24    2    1    2    0    0 -0.20352904635E+01  0.27290918985E+02  0.69278252021E+01  0.79285004025E+02  0.74089003468E+02 0.  0.
        -13    1    3    3    0    0  0.12921756105E+02  0.25258200643E+02 -0.28843964950E+02  0.40458902539E+02  0.00000000000E+00 0.  1.
         14    1    3    3    0    0 -0.14957046568E+02  0.20327183421E+01  0.35771790152E+02  0.38826101486E+02  0.00000000000E+00 0. -1.
         21    1    1    2  502  501  0.20352904635E+01 -0.27290918985E+02  0.61109668066E+00  0.27373529285E+02  0.00000000000E+00 0. -1.
<mgrwt>
<rscale>  1 0.78981752E+02</rscale>
<asrwt>0</asrwt>
<pdfrwt beam="1">  1        2 0.87844196E-02 0.78981752E+02</pdfrwt>
<pdfrwt beam="2">  1       -1 0.76245855E-02 0.78981752E+02</pdfrwt>
<totfact> 0.66585865E+04</totfact>
</mgrwt>
</event>
<event>
 6    2  0.1063641E+001  0.8497549E+02  0.7546771E-02  0.1315497E+00
         -1   -1    0    0    0  501 -0.00000000000E+00  0.00000000000E+00  0.77287365243E+01  0.77287365243E+01  0.00000000000E+00 0.  1.
          2   -1    0    0  502    0  0.00000000000E+00 -0.00000000000E+00 -0.39783569120E+03  0.39783569120E+03  0.00000000000E+00 0. -1.
         24    2    1    2    0    0  0.17626181224E+02 -0.18950695316E+02 -0.30383373547E+03  0.31549290353E+03  0.80938385544E+02 0.  0.
        -13    1    3    3    0    0  0.23713504116E+02  0.19482155360E+02 -0.49807044151E+02  0.58503216168E+02  0.00000000000E+00 0.  1.
         14    1    3    3    0    0 -0.60873228915E+01 -0.38432850676E+02 -0.25402669132E+03  0.25698968737E+03  0.00000000000E+00 0. -1.
         21    1    1    2  502  501 -0.17626181224E+02  0.18950695316E+02 -0.86273219211E+02  0.90071524194E+02  0.00000000000E+00 0.  1.
<mgrwt>
<rscale>  1 0.84975487E+02</rscale>
<asrwt>0</asrwt>
<pdfrwt beam="1">  1        2 0.61205500E-01 0.84975487E+02</pdfrwt>
<pdfrwt beam="2">  1       -1 0.11890362E-02 0.84975487E+02</pdfrwt>
<totfact> 0.11385624E+05</totfact>
</mgrwt>
</event>
<event>
 6    2  0.1063641E+001  0.8482972E+02  0.7546771E-02  0.1315878E+00
         -1   -1    0    0    0  501 -0.00000000000E+00  0.00000000000E+00  0.12191085899E+03  0.12191085899E+03  0.00000000000E+00 0.  1.
          2   -1    0    0  502    0  0.00000000000E+00 -0.00000000000E+00 -0.30968606065E+02  0.30968606065E+02  0.00000000000E+00 0. -1.
         24    2    1    2    0    0  0.22673989344E+01 -0.21560993916E+02  0.98432212554E+02  0.12994222346E+03  0.82012580827E+02 0.  0.
        -13    1    3    3    0    0  0.29620332822E+02 -0.19250552540E+02  0.96106668034E+02  0.10239355219E+03  0.00000000000E+00 0.  1.
         14    1    3    3    0    0 -0.27352933888E+02 -0.23104413760E+01  0.23255445200E+01  0.27548671274E+02  0.00000000000E+00 0. -1.
         21    1    1    2  502  501 -0.22673989344E+01  0.21560993916E+02 -0.74899596293E+01  0.22937241591E+02  0.00000000000E+00 0. -1.
<mgrwt>
<rscale>  1 0.84829717E+02</rscale>
<asrwt>0</asrwt>
<pdfrwt beam="1">  1        2 0.47644010E-02 0.84829717E+02</pdfrwt>
<pdfrwt beam="2">  1       -1 0.18755517E-01 0.84829717E+02</pdfrwt>
<totfact> 0.36856810E+04</totfact>
</mgrwt>
</event>
<event>
 6    2  0.1063641E+001  0.9110244E+02  0.7546771E-02  0.1300204E+00
          2   -1    0    0  502    0  0.00000000000E+00  0.00000000000E+00  0.23950375851E+03  0.23950375851E+03  0.00000000000E+00 0. -1.
         -1   -1    0    0    0  501 -0.00000000000E+00 -0.00000000000E+00 -0.24860994291E+02  0.24860994291E+02  0.00000000000E+00 0.  1.
         24    2    1    2    0    0  0.37553186171E+02 -0.33126507580E+02  0.81950373702E+02  0.12253782377E+03  0.76105500521E+02 0.  0.
        -11    1    3    3    0    0  0.37966939777E+02 -0.11097281665E+02  0.90607207432E+02  0.98865080868E+02  0.00000000000E+00 0.  1.
         12    1    3    3    0    0 -0.41375360651E+00 -0.22029225915E+02 -0.86568337309E+01  0.23672742906E+02  0.00000000000E+00 0. -1.
         21    1    1    2  502  501 -0.37553186171E+02  0.33126507580E+02  0.13269239052E+03  0.14182692903E+03  0.00000000000E+00 0. -1.
<mgrwt>
<rscale>  1 0.91102440E+02</rscale>
<asrwt>0</asrwt>
<pdfrwt beam="1">  1        2 0.36846730E-01 0.91102440E+02</pdfrwt>
<pdfrwt beam="2">  1       -1 0.38247685E-02 0.91102440E+02</pdfrwt>
<totfact> 0.36837481E+04</totfact>
</mgrwt>
</event>
<event>
 6    2  0.1063641E+001  0.7732407E+02  0.7546771E-02  0.1336822E+00
          2   -1    0    0  502    0  0.00000000000E+00  0.00000000000E+00  0.75694689089E+02  0.75694689089E+02  0.00000000000E+00 0. -1.
         -1   -1    0    0    0  501 -0.00000000000E+00 -0.00000000000E+00 -0.32901943135E+02  0.32901943135E+02  0.00000000000E+00 0.  1.
         24    2    1    2    0    0 -0.17016635295E+01 -0.22296861573E+02  0.30904634573E+02  0.83271291417E+02  0.74020036756E+02 0.  0.
        -13    1    3    3    0    0  0.80851069876E+01 -0.60382886506E+01 -0.23541316926E+02  0.25612955460E+02  0.00000000000E+00 0.  1.
         14    1    3    3    0    0 -0.97867705171E+01 -0.16258572923E+02  0.54445951499E+02  0.57658335956E+02  0.00000000000E+00 0. -1.
         21    1    1    2  502  501  0.17016635295E+01  0.22296861573E+02  0.11888111381E+02  0.25325340807E+02  0.00000000000E+00 0. -1.
<mgrwt>
<rscale>  1 0.77324068E+02</rscale>
<asrwt>0</asrwt>
<pdfrwt beam="1">  1        2 0.11645337E-01 0.77324068E+02</pdfrwt>
<pdfrwt beam="2">  1       -1 0.50618374E-02 0.77324068E+02</pdfrwt>
<totfact> 0.86284447E+04</totfact>
</mgrwt>
</event>
<event>
 6    2  0.1063641E+001  0.8358626E+02  0.7546771E-02  0.1319172E+00
         -1   -1    0    0    0  501 -0.00000000000E+00  0.00000000000E+00  0.14582573826E+02  0.14582573826E+02  0.00000000000E+00 0.  1.
          2   -1    0    0  502    0  0.00000000000E+00 -0.00000000000E+00 -0.10841976258E+04  0.10841976258E+04  0.00000000000E+00 0. -1.
         24    2    1    2    0    0 -0.96221894774E+01 -0.20984744719E+02 -0.10648032793E+03  0.13536884268E+03  0.80335031527E+02 0.  0.
        -13    1    3    3    0    0 -0.12003305932E+02 -0.16989674169E+02  0.68821433947E+01  0.21911008178E+02  0.00000000000E+00 0.  1.
         14    1    3    3    0    0  0.23811164547E+01 -0.39950705499E+01 -0.11336247133E+03  0.11345783450E+03  0.00000000000E+00 0. -1.
         21    1    1    2  502  501  0.96221894774E+01  0.20984744719E+02 -0.96313472405E+03  0.96341135695E+03  0.00000000000E+00 0. -1.
<mgrwt>
<rscale>  1 0.83586263E+02</rscale>
<asrwt>0</asrwt>
<pdfrwt beam="1">  1        2 0.16679967E+00 0.83586263E+02</pdfrwt>
<pdfrwt beam="2">  1       -1 0.22434724E-02 0.83586263E+02</pdfrwt>
<totfact> 0.14297327E+04</totfact>
</mgrwt>
</event>
<event>
 6    2  0.1063641E+001  0.7893188E+02  0.7546771E-02  0.1332110E+00
          4   -1    0    0  502    0  0.00000000000E+00  0.00000000000E+00  0.15054717816E+02  0.15054717816E+02  0.00000000000E+00 0. -1.
         -3   -1    0    0    0  501 -0.00000000000E+00 -0.00000000000E+00 -0.19408014298E+03  0.19408014298E+03  0.00000000000E+00 0.  1.
         24    2    1    2    0    0  0.12289415911E+02 -0.16589055171E+02 -0.16825430819E+03  0.18584873927E+03  0.76184087376E+02 0.  0.
        -13    1    3    3    0    0 -0.11349215920E+02  0.21751585903E+01 -0.15027461793E+03  0.15071826966E+03  0.00000000000E+00 0.  1.
         14    1    3    3    0    0  0.23638631831E+02 -0.18764213761E+02 -0.17979690261E+02  0.35130469607E+02  0.00000000000E+00 0. -1.
         21    1    1    2  502  501 -0.12289415911E+02  0.16589055171E+02 -0.10771116978E+02  0.23286121529E+02  0.00000000000E+00 0. -1.
<mgrwt>
<rscale>  1 0.78931880E+02</rscale>
<asrwt>0</asrwt>
<pdfrwt beam="1">  1        4 0.23161106E-02 0.78931880E+02</pdfrwt>
<pdfrwt beam="2">  1       -3 0.29858481E-01 0.78931880E+02</pdfrwt>
<totfact> 0.14565704E+04</totfact>
</mgrwt>
</event>
<event>
 6    2  0.1063641E+001  0.9295151E+02  0.7546771E-02  0.1295858E+00
          2   -1    0    0  502    0  0.00000000000E+00  0.00000000000E+00  0.11693266084E+03  0.11693266084E+03  0.00000000000E+00 0. -1.
         -1   -1    0    0    0  501 -0.00000000000E+00 -0.00000000000E+00 -0.41975918742E+02  0.41975918742E+02  0.00000000000E+00 0.  1.
         24    2    1    2    0    0  0.11783468891E+02  0.39499449798E+02  0.29441824793E+02  0.97502843932E+02  0.83312225118E+02 0.  0.
        -11    1    3    3    0    0  0.86644332751E+01 -0.22337999675E+02 -0.78632359396E+01  0.25216841851E+02  0.00000000000E+00 0.  1.
         12    1    3    3    0    0  0.31190356162E+01  0.61837449473E+02  0.37305060733E+02  0.72286002081E+02  0.00000000000E+00 0. -1.
         21    1    1    2  502  501 -0.11783468891E+02 -0.39499449798E+02  0.45514917303E+02  0.61405735648E+02  0.00000000000E+00 0.  1.
<mgrwt>
<rscale>  1 0.92951512E+02</rscale>
<asrwt>0</asrwt>
<pdfrwt beam="1">  1        2 0.17989640E-01 0.92951512E+02</pdfrwt>
<pdfrwt beam="2">  1       -1 0.64578337E-02 0.92951512E+02</pdfrwt>
<totfact> 0.37429147E+04</totfact>
</mgrwt>
</event>
<event>
 6    2  0.1063641E+001  0.8621808E+02  0.7546771E-02  0.1312278E+00
          2   -1    0    0  502    0  0.00000000000E+00  0.00000000000E+00  0.25280660237E+02  0.25280660237E+02  0.00000000000E+00 0. -1.
         -1   -1    0    0    0  501 -0.00000000000E+00 -0.00000000000E+00 -0.16478772268E+03  0.16478772268E+03  0.00000000000E+00 0.  1.
         24    2    1    2    0    0  0.28501804707E+02  0.90541883355E+01 -0.13447785257E+03  0.15974307748E+03  0.80865485673E+02 0.  0.
        -11    1    3    3    0    0  0.31407458039E+02  0.54163513575E+01 -0.14488127112E+03  0.14834536732E+03  0.00000000000E+00 0.  1.
         12    1    3    3    0    0 -0.29056533320E+01  0.36378369780E+01  0.10403418558E+02  0.11397710158E+02  0.00000000000E+00 0. -1.
         21    1    1    2  502  501 -0.28501804707E+02 -0.90541883355E+01 -0.50292098755E+01  0.30325305438E+02  0.00000000000E+00 0. -1.
<mgrwt>
<rscale>  1 0.86218084E+02</rscale>
<asrwt>0</asrwt>
<pdfrwt beam="1">  1        2 0.38893325E-02 0.86218084E+02</pdfrwt>
<pdfrwt beam="2">  1       -1 0.25351956E-01 0.86218084E+02</pdfrwt>
<totfact> 0.29692115E+04</totfact>
</mgrwt>
</event>
<event>
 6    2  0.1063641E+001  0.9389909E+02  0.7546771E-02  0.1293675E+00
          4   -1    0    0  502    0  0.00000000000E+00  0.00000000000E+00  0.64747221158E+02  0.64747221158E+02  0.00000000000E+00 0. -1.
         -3   -1    0    0    0  501 -0.00000000000E+00 -0.00000000000E+00 -0.89721237539E+02  0.89721237539E+02  0.00000000000E+00 0.  1.
         24    2    1    2    0    0 -0.37487278059E+02 -0.26805323358E+02 -0.45114579697E+02  0.10417468505E+03  0.81812091578E+02 0.  0.
        -13    1    3    3    0    0 -0.25240233608E+02 -0.21088142128E+01 -0.65278998260E+02  0.70020454896E+02  0.00000000000E+00 0.  1.
         14    1    3    3    0    0 -0.12247044451E+02 -0.24696509145E+02  0.20164418563E+02  0.34154230159E+02  0.00000000000E+00 0. -1.
         21    1    1    2  502  501  0.37487278059E+02  0.26805323358E+02  0.20140563316E+02  0.50293773643E+02  0.00000000000E+00 0. -1.
<mgrwt>
<rscale>  1 0.93899093E+02</rscale>
<asrwt>0</asrwt>
<pdfrwt beam="1">  1        4 0.99611110E-02 0.93899093E+02</pdfrwt>
<pdfrwt beam="2">  1       -3 0.13803267E-01 0.93899093E+02</pdfrwt>
<totfact> 0.57660396E+03</totfact>
</mgrwt>
</event>
<event>
 6    2  0.1063641E+001  0.8529032E+02  0.7546771E-02  0.1314675E+00
         -1   -1    0    0    0  501 -0.00000000000E+00  0.00000000000E+00  0.15440738152E+01  0.15440738152E+01  0.00000000000E+00 0.  1.
          2   -1    0    0  502    0  0.00000000000E+00 -0.00000000000E+00 -0.21794890753E+04  0.21794890753E+04  0.00000000000E+00 0. -1.
         24    2    1    2    0    0 -0.21401613216E+02  0.18827331186E+02 -0.14262719594E+04  0.14288198419E+04  0.80386197895E+02 0.  0.
        -13    1    3    3    0    0 -0.30210670345E+02  0.21431446886E+02 -0.27190418648E+03  0.27441552096E+03  0.00000000000E+00 0.  1.
         14    1    3    3    0    0  0.88090571288E+01 -0.26041157007E+01 -0.11543677730E+04  0.11544043209E+04  0.00000000000E+00 0. -1.
         21    1    1    2  502  501  0.21401613216E+02 -0.18827331186E+02 -0.75167304203E+03  0.75221330722E+03  0.00000000000E+00 0. -1.
<mgrwt>
<rscale>  1 0.85290318E+02</rscale>
<asrwt>0</asrwt>
<pdfrwt beam="1">  1        2 0.33530583E+00 0.85290318E+02</pdfrwt>
<pdfrwt beam="2">  1       -1 0.23754994E-03 0.85290318E+02</pdfrwt>
<totfact> 0.91762553E+04</totfact>
</mgrwt>
</event>
<event>
 6    2  0.1063641E+001  0.8098458E+02  0.7546771E-02  0.1326280E+00
         -1   -1    0    0    0  501 -0.00000000000E+00  0.00000000000E+00  0.28489064428E+02  0.28489064428E+02  0.00000000000E+00 0.  1.
          2   -1    0    0  502    0  0.00000000000E+00 -0.00000000000E+00 -0.26391006598E+03  0.26391006598E+03  0.00000000000E+00 0. -1.
         24    2    1    2    0    0  0.22549909247E+02  0.23853130116E+01 -0.30985476788E+02  0.86709869845E+02  0.77745183976E+02 0.  0.
        -11    1    3    3    0    0  0.70743041388E+01  0.25437559524E+02  0.16906224066E+02  0.31351804187E+02  0.00000000000E+00 0.  1.
         12    1    3    3    0    0  0.15475605109E+02 -0.23052246512E+02 -0.47891700854E+02  0.55358065658E+02  0.00000000000E+00 0. -1.
         21    1    1    2  502  501 -0.22549909247E+02 -0.23853130116E+01 -0.20443552477E+03  0.20568926057E+03  0.00000000000E+00 0. -1.
<mgrwt>
<rscale>  1 0.80984577E+02</rscale>
<asrwt>0</asrwt>
<pdfrwt beam="1">  1        2 0.40601547E-01 0.80984577E+02</pdfrwt>
<pdfrwt beam="2">  1       -1 0.43829331E-02 0.80984577E+02</pdfrwt>
<totfact> 0.26919741E+04</totfact>
</mgrwt>
</event>
<event>
 6    2  0.1063641E+001  0.1232165E+03  0.7546771E-02  0.1237883E+00
          2   -1    0    0  502    0  0.00000000000E+00  0.00000000000E+00  0.61229550982E+03  0.61229550982E+03  0.00000000000E+00 0. -1.
         -1   -1    0    0    0  501 -0.00000000000E+00 -0.00000000000E+00 -0.19175074671E+02  0.19175074671E+02  0.00000000000E+00 0.  1.
         24    2    1    2    0    0 -0.87696352231E+02 -0.23083182845E+02  0.29039663309E+03  0.31545605340E+03  0.83419623555E+02 0.  0.
        -11    1    3    3    0    0 -0.80949301028E+02 -0.10344103595E+02  0.28975331339E+03  0.30102619893E+03  0.00000000000E+00 0.  1.
         12    1    3    3    0    0 -0.67470512034E+01 -0.12739079250E+02  0.64331969671E+00  0.14429854480E+02  0.00000000000E+00 0. -1.
         21    1    1    2  502  501  0.87696352231E+02  0.23083182845E+02  0.30272380206E+03  0.31601453109E+03  0.00000000000E+00 0. -1.
<mgrwt>
<rscale>  1 0.12321655E+03</rscale>
<asrwt>0</asrwt>
<pdfrwt beam="1">  1        2 0.94199294E-01 0.12321655E+03</pdfrwt>
<pdfrwt beam="2">  1       -1 0.29500120E-02 0.12321655E+03</pdfrwt>
<totfact> 0.20302888E+04</totfact>
</mgrwt>
</event>
<event>
 6    2  0.1063641E+001  0.8869425E+02  0.7546771E-02  0.1306045E+00
         -1   -1    0    0    0  501 -0.00000000000E+00  0.00000000000E+00  0.42310562814E+03  0.42310562814E+03  0.00000000000E+00 0.  1.
          2   -1    0    0  502    0  0.00000000000E+00 -0.00000000000E+00 -0.10780624681E+02  0.10780624681E+02  0.00000000000E+00 0. -1.
         24    2    1    2    0    0 -0.12703109379E+02 -0.18037482431E+02  0.39757438354E+03  0.40734759143E+03  0.85906635589E+02 0.  0.
        -11    1    3    3    0    0  0.14778652373E+02 -0.22271730655E+02  0.35791475941E+03  0.35891142857E+03  0.00000000000E+00 0.  1.
         12    1    3    3    0    0 -0.27481761752E+02  0.42342482236E+01  0.39659624128E+02  0.48436162864E+02  0.00000000000E+00 0. -1.
         21    1    1    2  502  501  0.12703109379E+02  0.18037482431E+02  0.14750619921E+02  0.26538661390E+02  0.00000000000E+00 0. -1.
<mgrwt>
<rscale>  1 0.88694249E+02</rscale>
<asrwt>0</asrwt>
<pdfrwt beam="1">  1        2 0.16585580E-02 0.88694249E+02</pdfrwt>
<pdfrwt beam="2">  1       -1 0.65093161E-01 0.88694249E+02</pdfrwt>
<totfact> 0.17872950E+04</totfact>
</mgrwt>
</event>
<event>
 6    2  0.1063641E+001  0.8225596E+02  0.7546771E-02  0.1322769E+00
         -1   -1    0    0    0  501 -0.00000000000E+00  0.00000000000E+00  0.66678817381E+01  0.66678817381E+01  0.00000000000E+00 0.  1.
          2   -1    0    0  502    0  0.00000000000E+00 -0.00000000000E+00 -0.53482789721E+03  0.53482789721E+03  0.00000000000E+00 0. -1.
         24    2    1    2    0    0 -0.22258487022E+02 -0.62846734514E+01 -0.26873725196E+03  0.28104404140E+03  0.78937350153E+02 0.  0.
        -13    1    3    3    0    0 -0.45864133254E+02  0.15384555093E+02 -0.13150925241E+03  0.14012454005E+03  0.00000000000E+00 0.  1.
         14    1    3    3    0    0  0.23605646233E+02 -0.21669228544E+02 -0.13722799955E+03  0.14091950135E+03  0.00000000000E+00 0. -1.
         21    1    1    2  502  501  0.22258487022E+02  0.62846734514E+01 -0.25942276351E+03  0.26045173755E+03  0.00000000000E+00 0. -1.
<mgrwt>
<rscale>  1 0.82255958E+02</rscale>
<asrwt>0</asrwt>
<pdfrwt beam="1">  1        2 0.82281225E-01 0.82255958E+02</pdfrwt>
<pdfrwt beam="2">  1       -1 0.10258278E-02 0.82255958E+02</pdfrwt>
<totfact> 0.10175678E+05</totfact>
</mgrwt>
</event>
<event>
 6    2  0.1063641E+001  0.8386938E+02  0.7546771E-02  0.1318416E+00
          2   -1    0    0  502    0  0.00000000000E+00  0.00000000000E+00  0.98471358575E+03  0.98471358575E+03  0.00000000000E+00 0. -1.
         -1   -1    0    0    0  501 -0.00000000000E+00 -0.00000000000E+00 -0.53542190003E+01  0.53542190003E+01  0.00000000000E+00 0.  1.
         24    2    1    2    0    0 -0.23473187231E+02 -0.92577271651E+01  0.33932227144E+03  0.34953351262E+03  0.79983601529E+02 0.  0.
        -11    1    3    3    0    0  0.37968030078E+01 -0.40196819262E+02  0.20818081733E+03  0.21206002145E+03  0.00000000000E+00 0.  1.
         12    1    3    3    0    0 -0.27269990239E+02  0.30939092097E+02  0.13114145411E+03  0.13747349117E+03  0.00000000000E+00 0. -1.
         21    1    1    2  502  501  0.23473187231E+02  0.92577271651E+01  0.64003709531E+03  0.64053429214E+03  0.00000000000E+00 0.  1.
<mgrwt>
<rscale>  1 0.83869378E+02</rscale>
<asrwt>0</asrwt>
<pdfrwt beam="1">  1        2 0.15149425E+00 0.83869378E+02</pdfrwt>
<pdfrwt beam="2">  1       -1 0.82372678E-03 0.83869378E+02</pdfrwt>
<totfact> 0.67292216E+04</totfact>
</mgrwt>
</event>
<event>
 6    2  0.1063641E+001  0.8276712E+02  0.7546771E-02  0.1321377E+00
          2   -1    0    0  502    0  0.00000000000E+00  0.00000000000E+00  0.57145817695E+02  0.57145817695E+02  0.00000000000E+00 0. -1.
         -1   -1    0    0    0  501 -0.00000000000E+00 -0.00000000000E+00 -0.50675128888E+02  0.50675128888E+02  0.00000000000E+00 0.  1.
         24    2    1    2    0    0  0.21476188899E+02 -0.11069522079E+02 -0.15697997835E+00  0.82767264175E+02  0.79162076574E+02 0.  0.
        -11    1    3    3    0    0  0.37672790834E+02 -0.34364946344E+02 -0.11395554141E+02  0.52249855125E+02  0.00000000000E+00 0.  1.
         12    1    3    3    0    0 -0.16196601935E+02  0.23295424264E+02  0.11238574162E+02  0.30517409050E+02  0.00000000000E+00 0. -1.
         21    1    1    2  502  501 -0.21476188899E+02  0.11069522079E+02  0.66276687852E+01  0.25053682408E+02  0.00000000000E+00 0.  1.
<mgrwt>
<rscale>  1 0.82767115E+02</rscale>
<asrwt>0</asrwt>
<pdfrwt beam="1">  1        2 0.87916643E-02 0.82767115E+02</pdfrwt>
<pdfrwt beam="2">  1       -1 0.77961736E-02 0.82767115E+02</pdfrwt>
<totfact> 0.64811331E+04</totfact>
</mgrwt>
</event>
<event>
 6    2  0.1063641E+001  0.8363974E+02  0.7546771E-02  0.1319029E+00
          2   -1    0    0  502    0  0.00000000000E+00  0.00000000000E+00  0.79225750399E+02  0.79225750399E+02  0.00000000000E+00 0. -1.
         -1   -1    0    0    0  501 -0.00000000000E+00 -0.00000000000E+00 -0.35414839036E+02  0.35414839036E+02  0.00000000000E+00 0.  1.
         24    2    1    2    0    0  0.15682669609E+02  0.13506524133E+02  0.42711604871E+02  0.93914258478E+02  0.81038475026E+02 0.  0.
        -11    1    3    3    0    0 -0.58596626417E+01 -0.30172192470E+02  0.26460664207E+01  0.30849611217E+02  0.00000000000E+00 0.  1.
         12    1    3    3    0    0  0.21542332250E+02  0.43678716602E+02  0.40065538451E+02  0.63064647261E+02  0.00000000000E+00 0. -1.
         21    1    1    2  502  501 -0.15682669609E+02 -0.13506524133E+02  0.10993064911E+01  0.20726330957E+02  0.00000000000E+00 0.  1.
<mgrwt>
<rscale>  1 0.83639744E+02</rscale>
<asrwt>0</asrwt>
<pdfrwt beam="1">  1        2 0.12188577E-01 0.83639744E+02</pdfrwt>
<pdfrwt beam="2">  1       -1 0.54484368E-02 0.83639744E+02</pdfrwt>
<totfact> 0.74315411E+04</totfact>
</mgrwt>
</event>
<event>
 6    2  0.1063641E+001  0.1450848E+03  0.7546771E-02  0.1206646E+00
         -1   -1    0    0    0  501 -0.00000000000E+00  0.00000000000E+00  0.17118892475E+03  0.17118892475E+03  0.00000000000E+00 0.  1.
          2   -1    0    0  502    0  0.00000000000E+00 -0.00000000000E+00 -0.12966014708E+03  0.12966014708E+03  0.00000000000E+00 0. -1.
         24    2    1    2    0    0  0.11814216496E+03  0.22154593179E+02  0.90564047873E+02  0.17103052592E+03  0.81247750049E+02 0.  0.
        -13    1    3    3    0    0  0.33736680890E+02  0.45836775230E+02  0.28743039801E+02  0.63759986966E+02  0.00000000000E+00 0.  1.
         14    1    3    3    0    0  0.84405484068E+02 -0.23682182051E+02  0.61821008072E+02  0.10727053895E+03  0.00000000000E+00 0. -1.
         21    1    1    2  502  501 -0.11814216496E+03 -0.22154593179E+02 -0.49035270197E+02  0.12981854591E+03  0.00000000000E+00 0. -1.
<mgrwt>
<rscale>  1 0.14508478E+03</rscale>
<asrwt>0</asrwt>
<pdfrwt beam="1">  1        2 0.19947715E-01 0.14508478E+03</pdfrwt>
<pdfrwt beam="2">  1       -1 0.26336758E-01 0.14508478E+03</pdfrwt>
<totfact> 0.39064162E+03</totfact>
</mgrwt>
</event>
<event>
 6    2  0.1063641E+001  0.8586218E+02  0.7546771E-02  0.1313193E+00
          2   -1    0    0  502    0  0.00000000000E+00  0.00000000000E+00  0.17623494302E+04  0.17623494302E+04  0.00000000000E+00 0. -1.
         -1   -1    0    0    0  501 -0.00000000000E+00 -0.00000000000E+00 -0.24283320865E+01  0.24283320865E+01  0.00000000000E+00 0.  1.
         24    2    1    2    0    0 -0.22094598726E+02 -0.34050310316E+01  0.79965444183E+03  0.80425091899E+03  0.82900837292E+02 0.  0.
        -11    1    3    3    0    0 -0.21926430380E+02 -0.34567586052E+02  0.22107987463E+03  0.22483771330E+03  0.00000000000E+00 0.  1.
         12    1    3    3    0    0 -0.16816834657E+00  0.31162555021E+02  0.57857456720E+03  0.57941320569E+03  0.00000000000E+00 0. -1.
         21    1    1    2  502  501  0.22094598726E+02  0.34050310316E+01  0.96026665625E+03  0.96052684327E+03  0.00000000000E+00 0. -1.
<mgrwt>
<rscale>  1 0.85862182E+02</rscale>
<asrwt>0</asrwt>
<pdfrwt beam="1">  1        2 0.27112966E+00 0.85862182E+02</pdfrwt>
<pdfrwt beam="2">  1       -1 0.37359096E-03 0.85862182E+02</pdfrwt>
<totfact> 0.79269672E+04</totfact>
</mgrwt>
</event>
<event>
 6    2  0.1063641E+001  0.8888557E+02  0.7546771E-02  0.1305573E+00
          2   -1    0    0  502    0  0.00000000000E+00  0.00000000000E+00  0.30648937235E+03  0.30648937235E+03  0.00000000000E+00 0. -1.
         -1   -1    0    0    0  501 -0.00000000000E+00 -0.00000000000E+00 -0.17714259279E+02  0.17714259279E+02  0.00000000000E+00 0.  1.
         24    2    1    2    0    0 -0.27139041892E+02  0.29777132914E+02  0.11246749141E+03  0.14335125344E+03  0.79230297238E+02 0.  0.
        -11    1    3    3    0    0  0.26670906953E+02 -0.11089451960E+01  0.37694899338E+02  0.46189527744E+02  0.00000000000E+00 0.  1.
         12    1    3    3    0    0 -0.53809948845E+02  0.30886078110E+02  0.74772592068E+02  0.97161725696E+02  0.00000000000E+00 0. -1.
         21    1    1    2  502  501  0.27139041892E+02 -0.29777132914E+02  0.17630762166E+03  0.18085237819E+03  0.00000000000E+00 0.  1.
<mgrwt>
<rscale>  1 0.88885574E+02</rscale>
<asrwt>0</asrwt>
<pdfrwt beam="1">  1        2 0.47152207E-01 0.88885574E+02</pdfrwt>
<pdfrwt beam="2">  1       -1 0.27252709E-02 0.88885574E+02</pdfrwt>
<totfact> 0.46254380E+04</totfact>
</mgrwt>
</event>
<event>
 6    2  0.1063641E+001  0.8771794E+02  0.7546771E-02  0.1308474E+00
         -1   -1    0    0    0  501 -0.00000000000E+00  0.00000000000E+00  0.61109696461E+02  0.61109696461E+02  0.00000000000E+00 0.  1.
          2   -1    0    0  502    0  0.00000000000E+00 -0.00000000000E+00 -0.56418844752E+02  0.56418844752E+02  0.00000000000E+00 0. -1.
         24    2    1    2    0    0 -0.20427416510E+02  0.11809203865E+02  0.19246840405E+02  0.89804662551E+02  0.84484909358E+02 0.  0.
        -11    1    3    3    0    0 -0.28164420686E+02 -0.17055975597E+02  0.41187590680E+02  0.52731001528E+02  0.00000000000E+00 0.  1.
         12    1    3    3    0    0  0.77370041759E+01  0.28865179462E+02 -0.21940750276E+02  0.37073661023E+02  0.00000000000E+00 0. -1.
         21    1    1    2  502  501  0.20427416510E+02 -0.11809203865E+02 -0.14555988696E+02  0.27723878663E+02  0.00000000000E+00 0. -1.
<mgrwt>
<rscale>  1 0.87717937E+02</rscale>
<asrwt>0</asrwt>
<pdfrwt beam="1">  1        2 0.86798223E-02 0.87717937E+02</pdfrwt>
<pdfrwt beam="2">  1       -1 0.94014917E-02 0.87717937E+02</pdfrwt>
<totfact> 0.50188696E+04</totfact>
</mgrwt>
</event>
<event>
 6    2  0.1063641E+001  0.8473013E+02  0.7546771E-02  0.1316140E+00
          2   -1    0    0  502    0  0.00000000000E+00  0.00000000000E+00  0.42880691153E+03  0.42880691153E+03  0.00000000000E+00 0. -1.
         -1   -1    0    0    0  501 -0.00000000000E+00 -0.00000000000E+00 -0.97150860281E+01  0.97150860281E+01  0.00000000000E+00 0.  1.
         24    2    1    2    0    0  0.43229099118E+00 -0.25986055888E+02  0.19094911594E+03  0.20890371017E+03  0.80645726911E+02 0.  0.
        -13    1    3    3    0    0 -0.39514250939E+02 -0.87549953065E+01  0.78201445217E+02  0.88053915325E+02  0.00000000000E+00 0.  1.
         14    1    3    3    0    0  0.39946541930E+02 -0.17231060581E+02  0.11274767072E+03  0.12084979484E+03  0.00000000000E+00 0. -1.
         21    1    1    2  502  501 -0.43229099118E+00  0.25986055888E+02  0.22814270956E+03  0.22961828738E+03  0.00000000000E+00 0. -1.
<mgrwt>
<rscale>  1 0.84730132E+02</rscale>
<asrwt>0</asrwt>
<pdfrwt beam="1">  1        2 0.65970279E-01 0.84730132E+02</pdfrwt>
<pdfrwt beam="2">  1       -1 0.14946290E-02 0.84730132E+02</pdfrwt>
<totfact> 0.76112041E+04</totfact>
</mgrwt>
</event>
<event>
 6    2  0.1063641E+001  0.9294232E+02  0.7546771E-02  0.1295879E+00
          2   -1    0    0  502    0  0.00000000000E+00  0.00000000000E+00  0.90216352133E+03  0.90216352133E+03  0.00000000000E+00 0. -1.
         -1   -1    0    0    0  501 -0.00000000000E+00 -0.00000000000E+00 -0.83420963256E+01  0.83420963256E+01  0.00000000000E+00 0.  1.
         24    2    1    2    0    0  0.20015019807E+01  0.46214463836E+02  0.28164906765E+03  0.29658805171E+03  0.80613227366E+02 0.  0.
        -11    1    3    3    0    0  0.27880554951E+02  0.39225711233E+01  0.34576904271E+02  0.44590068597E+02  0.00000000000E+00 0.  1.
         12    1    3    3    0    0 -0.25879052970E+02  0.42291892713E+02  0.24707216338E+03  0.25199798311E+03  0.00000000000E+00 0. -1.
         21    1    1    2  502  501 -0.20015019807E+01 -0.46214463836E+02  0.61217235735E+03  0.61391756595E+03  0.00000000000E+00 0. -1.
<mgrwt>
<rscale>  1 0.92942321E+02</rscale>
<asrwt>0</asrwt>
<pdfrwt beam="1">  1        2 0.13879431E+00 0.92942321E+02</pdfrwt>
<pdfrwt beam="2">  1       -1 0.12834002E-02 0.92942321E+02</pdfrwt>
<totfact> 0.40861378E+04</totfact>
</mgrwt>
</event>
<event>
 6    2  0.1063641E+001  0.8521478E+02  0.7546771E-02  0.1314872E+00
         -1   -1    0    0    0  501 -0.00000000000E+00  0.00000000000E+00  0.39114409612E+03  0.39114409612E+03  0.00000000000E+00 0.  1.
          2   -1    0    0  502    0  0.00000000000E+00 -0.00000000000E+00 -0.79329655516E+01  0.79329655516E+01  0.00000000000E+00 0. -1.
         24    2    1    2    0    0  0.24824246107E+02 -0.77115314487E+01  0.30336480997E+03  0.31510596054E+03  0.81153234857E+02 0.  0.
        -13    1    3    3    0    0 -0.15369597007E+02 -0.30610015459E+02  0.18259696778E+03  0.18578172731E+03  0.00000000000E+00 0.  1.
         14    1    3    3    0    0  0.40193843114E+02  0.22898484010E+02  0.12076784219E+03  0.12932423323E+03  0.00000000000E+00 0. -1.
         21    1    1    2  502  501 -0.24824246107E+02  0.77115314487E+01  0.79846320593E+02  0.83971101126E+02  0.00000000000E+00 0.  1.
<mgrwt>
<rscale>  1 0.85214778E+02</rscale>
<asrwt>0</asrwt>
<pdfrwt beam="1">  1        2 0.12204565E-02 0.85214778E+02</pdfrwt>
<pdfrwt beam="2">  1       -1 0.60176000E-01 0.85214778E+02</pdfrwt>
<totfact> 0.31304332E+04</totfact>
</mgrwt>
</event>
<event>
 6    2  0.1063641E+001  0.8441322E+02  0.7546771E-02  0.1316974E+00
          2   -1    0    0  502    0  0.00000000000E+00  0.00000000000E+00  0.80322800411E+03  0.80322800411E+03  0.00000000000E+00 0. -1.
         -1   -1    0    0    0  501 -0.00000000000E+00 -0.00000000000E+00 -0.16403240285E+02  0.16403240285E+02  0.00000000000E+00 0.  1.
         24    2    1    2    0    0 -0.66352807355E+01 -0.27155548079E+02  0.94378978321E+02  0.12662142008E+03  0.79650120723E+02 0.  0.
        -11    1    3    3    0    0 -0.12180967901E+02 -0.35932822276E+02  0.69432125667E+01  0.38571387018E+02  0.00000000000E+00 0.  1.
         12    1    3    3    0    0  0.55456871651E+01  0.87772741968E+01  0.87435765754E+02  0.88050033058E+02  0.00000000000E+00 0. -1.
         21    1    1    2  502  501  0.66352807355E+01  0.27155548079E+02  0.69244578550E+03  0.69300982432E+03  0.00000000000E+00 0. -1.
<mgrwt>
<rscale>  1 0.84413225E+02</rscale>
<asrwt>0</asrwt>
<pdfrwt beam="1">  1        2 0.12357351E+00 0.84413225E+02</pdfrwt>
<pdfrwt beam="2">  1       -1 0.25235761E-02 0.84413225E+02</pdfrwt>
<totfact> 0.17882115E+04</totfact>
</mgrwt>
</event>
<event>
 6    2  0.1063641E+001  0.8228603E+02  0.7546771E-02  0.1322686E+00
         -1   -1    0    0    0  501 -0.00000000000E+00  0.00000000000E+00  0.16903264681E+02  0.16903264681E+02  0.00000000000E+00 0.  1.
          2   -1    0    0  502    0  0.00000000000E+00 -0.00000000000E+00 -0.18070132899E+03  0.18070132899E+03  0.00000000000E+00 0. -1.
         24    2    1    2    0    0  0.81524647813E+01 -0.21419939292E+02 -0.98200034880E+02  0.12811806299E+03  0.79029834443E+02 0.  0.
        -13    1    3    3    0    0  0.18959126704E+02 -0.43539387067E+02 -0.31411543903E+02  0.56936910716E+02  0.00000000000E+00 0.  1.
         14    1    3    3    0    0 -0.10806661923E+02  0.22119447774E+02 -0.66788490977E+02  0.71181152272E+02  0.00000000000E+00 0. -1.
         21    1    1    2  502  501 -0.81524647813E+01  0.21419939292E+02 -0.65598029426E+02  0.69486530680E+02  0.00000000000E+00 0. -1.
<mgrwt>
<rscale>  1 0.82286033E+02</rscale>
<asrwt>0</asrwt>
<pdfrwt beam="1">  1        2 0.27800204E-01 0.82286033E+02</pdfrwt>
<pdfrwt beam="2">  1       -1 0.26005023E-02 0.82286033E+02</pdfrwt>
<totfact> 0.85406353E+04</totfact>
</mgrwt>
</event>
<event>
 6    2  0.1063641E+001  0.1201980E+03  0.7546771E-02  0.1242771E+00
          2   -1    0    0  502    0  0.00000000000E+00  0.00000000000E+00  0.56153664653E+02  0.56153664653E+02  0.00000000000E+00 0. -1.
         -1   -1    0    0    0  501 -0.00000000000E+00 -0.00000000000E+00 -0.20288112407E+03  0.20288112407E+03  0.00000000000E+00 0.  1.
         24    2    1    2    0    0 -0.82390242629E+02  0.28217290523E+02 -0.11498978981E+03  0.16634364979E+03  0.82844375183E+02 0.  0.
        -13    1    3    3    0    0 -0.79111475876E+02  0.11635872411E+02 -0.12372637382E+03  0.14731678357E+03  0.00000000000E+00 0.  1.
         14    1    3    3    0    0 -0.32787667526E+01  0.16581418112E+02  0.87365840095E+01  0.19026866221E+02  0.00000000000E+00 0. -1.
         21    1    1    2  502  501  0.82390242629E+02 -0.28217290523E+02 -0.31737669605E+02  0.92691138934E+02  0.00000000000E+00 0. -1.
<mgrwt>
<rscale>  1 0.12019800E+03</rscale>
<asrwt>0</asrwt>
<pdfrwt beam="1">  1        2 0.86390253E-02 0.12019800E+03</pdfrwt>
<pdfrwt beam="2">  1       -1 0.31212481E-01 0.12019800E+03</pdfrwt>
<totfact> 0.78552590E+03</totfact>
</mgrwt>
</event>
<event>
 6    2  0.1063641E+001  0.8139550E+02  0.7546771E-02  0.1325137E+00
          2   -1    0    0  502    0  0.00000000000E+00  0.00000000000E+00  0.24361050997E+04  0.24361050997E+04  0.00000000000E+00 0. -1.
         -1   -1    0    0    0  501 -0.00000000000E+00 -0.00000000000E+00 -0.14978955013E+01  0.14978955013E+01  0.00000000000E+00 0.  1.
         24    2    1    2    0    0 -0.19804844379E+02 -0.18095987514E+02  0.12264657564E+04  0.12291637313E+04  0.76847447069E+02 0.  0.
        -13    1    3    3    0    0 -0.45205543628E+02 -0.84963690475E+01  0.47862089749E+03  0.48082605272E+03  0.00000000000E+00 0.  1.
         14    1    3    3    0    0  0.25400699249E+02 -0.95996184665E+01  0.74784485890E+03  0.74833767857E+03  0.00000000000E+00 0. -1.
         21    1    1    2  502  501  0.19804844379E+02  0.18095987514E+02  0.12081414478E+04  0.12084392639E+04  0.00000000000E+00 0. -1.
<mgrwt>
<rscale>  1 0.81395496E+02</rscale>
<asrwt>0</asrwt>
<pdfrwt beam="1">  1        2 0.37478223E+00 0.81395496E+02</pdfrwt>
<pdfrwt beam="2">  1       -1 0.23044741E-03 0.81395496E+02</pdfrwt>
<totfact> 0.70417681E+04</totfact>
</mgrwt>
</event>
<event>
 6    2  0.1063641E+001  0.9452870E+02  0.7546771E-02  0.1292241E+00
          2   -1    0    0  502    0  0.00000000000E+00  0.00000000000E+00  0.14701557921E+04  0.14701557921E+04  0.00000000000E+00 0. -1.
         -1   -1    0    0    0  501 -0.00000000000E+00 -0.00000000000E+00 -0.67485738456E+01  0.67485738456E+01  0.00000000000E+00 0.  1.
         24    2    1    2    0    0 -0.49454093995E+02 -0.38723939612E+01  0.13477128416E+04  0.13510239003E+04  0.80467215985E+02 0.  0.
        -13    1    3    3    0    0  0.13658988611E+02 -0.19985025661E+02  0.19919872758E+03  0.20066415298E+03  0.00000000000E+00 0.  1.
         14    1    3    3    0    0 -0.63113082605E+02  0.16112631700E+02  0.11485141140E+04  0.11503597473E+04  0.00000000000E+00 0. -1.
         21    1    1    2  502  501  0.49454093995E+02  0.38723939612E+01  0.11569437662E+03  0.12588046564E+03  0.00000000000E+00 0.  1.
<mgrwt>
<rscale>  1 0.94528703E+02</rscale>
<asrwt>0</asrwt>
<pdfrwt beam="1">  1        2 0.22617756E+00 0.94528703E+02</pdfrwt>
<pdfrwt beam="2">  1       -1 0.10382433E-02 0.94528703E+02</pdfrwt>
<totfact> 0.26809941E+04</totfact>
</mgrwt>
</event>
<event>
 6    2  0.1063641E+001  0.8938503E+02  0.7546771E-02  0.1304348E+00
         -1   -1    0    0    0  501 -0.00000000000E+00  0.00000000000E+00  0.12708809041E+03  0.12708809041E+03  0.00000000000E+00 0.  1.
          2   -1    0    0  502    0  0.00000000000E+00 -0.00000000000E+00 -0.35562303670E+02  0.35562303670E+02  0.00000000000E+00 0. -1.
         24    2    1    2    0    0  0.14491781750E+02  0.21289309107E+02  0.10130611975E+03  0.13510223018E+03  0.85594604266E+02 0.  0.
        -11    1    3    3    0    0 -0.12594099511E+02 -0.29271947821E+02  0.32366199342E+02  0.45420580485E+02  0.00000000000E+00 0.  1.
         12    1    3    3    0    0  0.27085881261E+02  0.50561256927E+02  0.68939920406E+02  0.89681649691E+02  0.00000000000E+00 0. -1.
         21    1    1    2  502  501 -0.14491781750E+02 -0.21289309107E+02 -0.97803330112E+01  0.27548163901E+02  0.00000000000E+00 0.  1.
<mgrwt>
<rscale>  1 0.89385025E+02</rscale>
<asrwt>0</asrwt>
<pdfrwt beam="1">  1        2 0.54711237E-02 0.89385025E+02</pdfrwt>
<pdfrwt beam="2">  1       -1 0.19552014E-01 0.89385025E+02</pdfrwt>
<totfact> 0.29089742E+04</totfact>
</mgrwt>
</event>
<event>
 6    2  0.1063641E+001  0.8505420E+02  0.7546771E-02  0.1315291E+00
          2   -1    0    0  502    0  0.00000000000E+00  0.00000000000E+00  0.10564634916E+02  0.10564634916E+02  0.00000000000E+00 0. -1.
         -1   -1    0    0    0  501 -0.00000000000E+00 -0.00000000000E+00 -0.51800875685E+03  0.51800875685E+03  0.00000000000E+00 0.  1.
         24    2    1    2    0    0 -0.57616609683E+01  0.26427428903E+02 -0.48776166551E+03  0.49512186226E+03  0.80638764928E+02 0.  0.
        -11    1    3    3    0    0  0.78256768412E+01  0.53868211406E+02 -0.31187767962E+03  0.31659234429E+03  0.00000000000E+00 0.  1.
         12    1    3    3    0    0 -0.13587337809E+02 -0.27440782504E+02 -0.17588398589E+03  0.17852951797E+03  0.00000000000E+00 0. -1.
         21    1    1    2  502  501  0.57616609683E+01 -0.26427428903E+02 -0.19682456425E+02  0.33451529508E+02  0.00000000000E+00 0. -1.
<mgrwt>
<rscale>  1 0.85054195E+02</rscale>
<asrwt>0</asrwt>
<pdfrwt beam="1">  1        2 0.16253287E-02 0.85054195E+02</pdfrwt>
<pdfrwt beam="2">  1       -1 0.79693641E-01 0.85054195E+02</pdfrwt>
<totfact> 0.12279908E+04</totfact>
</mgrwt>
</event>
<event>
 6    2  0.1063641E+001  0.8457707E+02  0.7546771E-02  0.1316542E+00
         -1   -1    0    0    0  501 -0.00000000000E+00  0.00000000000E+00  0.12908787636E+03  0.12908787636E+03  0.00000000000E+00 0.  1.
          2   -1    0    0  502    0  0.00000000000E+00 -0.00000000000E+00 -0.22778197846E+02  0.22778197846E+02  0.00000000000E+00 0. -1.
         24    2    1    2    0    0 -0.20427317058E+02  0.10430792990E+02  0.74909663351E+02  0.11298114555E+03  0.81407646208E+02 0.  0.
        -13    1    3    3    0    0  0.42270484641E+01 -0.31733748341E+02  0.14092584747E+02  0.34978560110E+02  0.00000000000E+00 0.  1.
         14    1    3    3    0    0 -0.24654365522E+02  0.42164541331E+02  0.60817078604E+02  0.78002585437E+02  0.00000000000E+00 0. -1.
         21    1    1    2  502  501  0.20427317058E+02 -0.10430792990E+02  0.31400015162E+02  0.38884928658E+02  0.00000000000E+00 0.  1.
<mgrwt>
<rscale>  1 0.84577075E+02</rscale>
<asrwt>0</asrwt>
<pdfrwt beam="1">  1        2 0.35043382E-02 0.84577075E+02</pdfrwt>
<pdfrwt beam="2">  1       -1 0.19859673E-01 0.84577075E+02</pdfrwt>
<totfact> 0.50228189E+04</totfact>
</mgrwt>
</event>
<event>
 6    2  0.1063641E+001  0.8364714E+02  0.7546771E-02  0.1319009E+00
          2   -1    0    0  502    0  0.00000000000E+00  0.00000000000E+00  0.75273274456E+03  0.75273274456E+03  0.00000000000E+00 0. -1.
         -1   -1    0    0    0  501 -0.00000000000E+00 -0.00000000000E+00 -0.80405093977E+01  0.80405093977E+01  0.00000000000E+00 0.  1.
         24    2    1    2    0    0  0.12040518385E+02 -0.20894027334E+02  0.21750723613E+03  0.23303699628E+03  0.80095626634E+02 0.  0.
        -13    1    3    3    0    0  0.44684332041E+02  0.37407626310E+00  0.11653472041E+03  0.12480853546E+03  0.00000000000E+00 0.  1.
         14    1    3    3    0    0 -0.32643813657E+02 -0.21268103597E+02  0.10097251573E+03  0.10822846083E+03  0.00000000000E+00 0. -1.
         21    1    1    2  502  501 -0.12040518385E+02  0.20894027334E+02  0.52718499903E+03  0.52773625767E+03  0.00000000000E+00 0. -1.
<mgrwt>
<rscale>  1 0.83647139E+02</rscale>
<asrwt>0</asrwt>
<pdfrwt beam="1">  1        2 0.11580498E+00 0.83647139E+02</pdfrwt>
<pdfrwt beam="2">  1       -1 0.12370020E-02 0.83647139E+02</pdfrwt>
<totfact> 0.53190421E+04</totfact>
</mgrwt>
</event>
<event>
 6    2  0.1063641E+001  0.9686255E+02  0.7546771E-02  0.1287035E+00
          2   -1    0    0  502    0  0.00000000000E+00  0.00000000000E+00  0.12889550350E+04  0.12889550350E+04  0.00000000000E+00 0. -1.
         -1   -1    0    0    0  501 -0.00000000000E+00 -0.00000000000E+00 -0.53567978807E+02  0.53567978807E+02  0.00000000000E+00 0.  1.
         24    2    1    2    0    0 -0.30346202082E+02 -0.43718332359E+02 -0.87420196485E+01  0.97256238406E+02  0.80933110877E+02 0.  0.
        -13    1    3    3    0    0  0.67516931789E+01 -0.44205331696E+02 -0.30609044789E+02  0.54190500404E+02  0.00000000000E+00 0.  1.
         14    1    3    3    0    0 -0.37097895261E+02  0.48699933714E+00  0.21867025141E+02  0.43065738002E+02  0.00000000000E+00 0. -1.
         21    1    1    2  502  501  0.30346202082E+02  0.43718332359E+02  0.12441290758E+04  0.12452667754E+04  0.00000000000E+00 0. -1.
<mgrwt>
<rscale>  1 0.96862547E+02</rscale>
<asrwt>0</asrwt>
<pdfrwt beam="1">  1        2 0.19830075E+00 0.96862547E+02</pdfrwt>
<pdfrwt beam="2">  1       -1 0.82412285E-02 0.96862547E+02</pdfrwt>
<totfact> 0.16690354E+03</totfact>
</mgrwt>
</event>
<event>
 6    2  0.1063641E+001  0.9210460E+02  0.7546771E-02  0.1297834E+00
          2   -1    0    0  502    0  0.00000000000E+00  0.00000000000E+00  0.46778804519E+03  0.46778804519E+03  0.00000000000E+00 0. -1.
         -1   -1    0    0    0  501 -0.00000000000E+00 -0.00000000000E+00 -0.13600661560E+02  0.13600661560E+02  0.00000000000E+00 0.  1.
         24    2    1    2    0    0  0.32297114209E+02  0.27627254415E+02  0.16390074762E+03  0.18800721480E+03  0.81712232708E+02 0.  0.
        -11    1    3    3    0    0 -0.14035026115E+02 -0.56133329975E+01  0.70094775877E+00  0.15132177409E+02  0.00000000000E+00 0.  1.
         12    1    3    3    0    0  0.46332140324E+02  0.33240587413E+02  0.16319979986E+03  0.17287503739E+03  0.00000000000E+00 0. -1.
         21    1    1    2  502  501 -0.32297114209E+02 -0.27627254415E+02  0.29028663601E+03  0.29338149195E+03  0.00000000000E+00 0. -1.
<mgrwt>
<rscale>  1 0.92104602E+02</rscale>
<asrwt>0</asrwt>
<pdfrwt beam="1">  1        2 0.71967379E-01 0.92104602E+02</pdfrwt>
<pdfrwt beam="2">  1       -1 0.20924098E-02 0.92104602E+02</pdfrwt>
<totfact> 0.43472102E+04</totfact>
</mgrwt>
</event>
<event>
 6    2  0.1063641E+001  0.1028434E+03  0.7546771E-02  0.1274428E+00
         -3   -1    0    0    0  501 -0.00000000000E+00  0.00000000000E+00  0.14666447899E+02  0.14666447899E+02  0.00000000000E+00 0.  1.
          4   -1    0    0  502    0  0.00000000000E+00 -0.00000000000E+00 -0.55653844236E+03  0.55653844236E+03  0.00000000000E+00 0. -1.
         24    2    1    2    0    0 -0.15921176315E+02 -0.63307741281E+02 -0.42571774169E+03  0.43796388906E+03  0.79469607878E+02 0.  0.
        -13    1    3    3    0    0 -0.11413145163E+02 -0.19809252230E+02 -0.21486919566E+02  0.31374417426E+02  0.00000000000E+00 0.  1.
         14    1    3    3    0    0 -0.45080311523E+01 -0.43498489052E+02 -0.40423082212E+03  0.40658947164E+03  0.00000000000E+00 0. -1.
         21    1    1    2  502  501  0.15921176315E+02  0.63307741281E+02 -0.11615425277E+03  0.13324100119E+03  0.00000000000E+00 0.  1.
<mgrwt>
<rscale>  1 0.10284344E+03</rscale>
<asrwt>0</asrwt>
<pdfrwt beam="1">  1        4 0.85621298E-01 0.10284344E+03</pdfrwt>
<pdfrwt beam="2">  1       -3 0.22563766E-02 0.10284344E+03</pdfrwt>
<totfact> 0.17662159E+03</totfact>
</mgrwt>
</event>
<event>
 6    2  0.1063641E+001  0.8978986E+02  0.7546771E-02  0.1303361E+00
          2   -1    0    0  502    0  0.00000000000E+00  0.00000000000E+00  0.10352578159E+04  0.10352578159E+04  0.00000000000E+00 0. -1.
         -1   -1    0    0    0  501 -0.00000000000E+00 -0.00000000000E+00 -0.24707744418E+02  0.24707744418E+02  0.00000000000E+00 0.  1.
         24    2    1    2    0    0 -0.29173061861E+01 -0.40737231448E+02  0.58778024022E+02  0.10731763846E+03  0.79963658711E+02 0.  0.
        -13    1    3    3    0    0  0.14183785676E+02 -0.60650793952E+02  0.49204745832E+02  0.79377613944E+02  0.00000000000E+00 0.  1.
         14    1    3    3    0    0 -0.17101091862E+02  0.19913562503E+02  0.95732781902E+01  0.27940024512E+02  0.00000000000E+00 0. -1.
         21    1    1    2  502  501  0.29173061861E+01  0.40737231448E+02  0.95177204750E+03  0.95264792190E+03  0.00000000000E+00 0. -1.
<mgrwt>
<rscale>  1 0.89789863E+02</rscale>
<asrwt>0</asrwt>
<pdfrwt beam="1">  1        2 0.15927040E+00 0.89789863E+02</pdfrwt>
<pdfrwt beam="2">  1       -1 0.38011923E-02 0.89789863E+02</pdfrwt>
<totfact> 0.71767814E+03</totfact>
</mgrwt>
</event>
<event>
 6    2  0.1063641E+001  0.8324295E+02  0.7546771E-02  0.1320092E+00
         -1   -1    0    0    0  501 -0.00000000000E+00  0.00000000000E+00  0.22628438471E+01  0.22628438471E+01  0.00000000000E+00 0.  1.
          2   -1    0    0  502    0  0.00000000000E+00 -0.00000000000E+00 -0.12301978962E+04  0.12301978962E+04  0.00000000000E+00 0. -1.
         24    2    1    2    0    0 -0.18743837694E+02 -0.10437399718E+02 -0.90830168725E+03  0.91210818606E+03  0.80430822679E+02 0.  0.
        -13    1    3    3    0    0  0.18337744162E+02 -0.15991032215E+02 -0.70234161593E+03  0.70276292691E+03  0.00000000000E+00 0.  1.
         14    1    3    3    0    0 -0.37081581856E+02  0.55536324965E+01 -0.20596007132E+03  0.20934525915E+03  0.00000000000E+00 0. -1.
         21    1    1    2  502  501  0.18743837694E+02  0.10437399718E+02 -0.31963336506E+03  0.32035255395E+03  0.00000000000E+00 0.  1.
<mgrwt>
<rscale>  1 0.83242946E+02</rscale>
<asrwt>0</asrwt>
<pdfrwt beam="1">  1        2 0.18926185E+00 0.83242946E+02</pdfrwt>
<pdfrwt beam="2">  1       -1 0.34812866E-03 0.83242946E+02</pdfrwt>
<totfact> 0.16319366E+05</totfact>
</mgrwt>
</event>
<event>
 6    2  0.1063641E+001  0.8334967E+02  0.7546771E-02  0.1319806E+00
         -1   -1    0    0    0  501 -0.00000000000E+00  0.00000000000E+00  0.10399589554E+03  0.10399589554E+03  0.00000000000E+00 0.  1.
          2   -1    0    0  502    0  0.00000000000E+00 -0.00000000000E+00 -0.34050895620E+02  0.34050895620E+02  0.00000000000E+00 0. -1.
         24    2    1    2    0    0  0.62416387483E+01  0.21806194876E+02  0.77825432500E+02  0.11403493145E+03  0.80204111221E+02 0.  0.
        -11    1    3    3    0    0  0.10495269964E+02  0.14516845154E+02  0.94053104749E+02  0.95743803966E+02  0.00000000000E+00 0.  1.
         12    1    3    3    0    0 -0.42536312159E+01  0.72893497223E+01 -0.16227672249E+02  0.18291127480E+02  0.00000000000E+00 0. -1.
         21    1    1    2  502  501 -0.62416387483E+01 -0.21806194876E+02 -0.78804325804E+01  0.24011859713E+02  0.00000000000E+00 0. -1.
<mgrwt>
<rscale>  1 0.83349671E+02</rscale>
<asrwt>0</asrwt>
<pdfrwt beam="1">  1        2 0.52385994E-02 0.83349671E+02</pdfrwt>
<pdfrwt beam="2">  1       -1 0.15999368E-01 0.83349671E+02</pdfrwt>
<totfact> 0.41731529E+04</totfact>
</mgrwt>
</event>
<event>
 6    2  0.1063641E+001  0.8555259E+02  0.7546771E-02  0.1313994E+00
         -1   -1    0    0    0  501 -0.00000000000E+00  0.00000000000E+00  0.34570424736E+01  0.34570424736E+01  0.00000000000E+00 0.  1.
          2   -1    0    0  502    0  0.00000000000E+00 -0.00000000000E+00 -0.20689222931E+04  0.20689222931E+04  0.00000000000E+00 0. -1.
         24    2    1    2    0    0  0.21774995865E+02  0.22055217599E+02 -0.55145152719E+03  0.55804841473E+03  0.79741226944E+02 0.  0.
        -11    1    3    3    0    0  0.15856291896E+02 -0.21621396022E+00 -0.17563047591E+02  0.23662827004E+02  0.00000000000E+00 0.  1.
         12    1    3    3    0    0  0.59187039691E+01  0.22271431560E+02 -0.53388847960E+03  0.53438558773E+03  0.00000000000E+00 0. -1.
         21    1    1    2  502  501 -0.21774995865E+02 -0.22055217599E+02 -0.15140137235E+04  0.15143309209E+04  0.00000000000E+00 0. -1.
<mgrwt>
<rscale>  1 0.85552594E+02</rscale>
<asrwt>0</asrwt>
<pdfrwt beam="1">  1        2 0.31829640E+00 0.85552594E+02</pdfrwt>
<pdfrwt beam="2">  1       -1 0.53185158E-03 0.85552594E+02</pdfrwt>
<totfact> 0.34004599E+04</totfact>
</mgrwt>
</event>
<event>
 6    2  0.1063641E+001  0.8557895E+02  0.7546771E-02  0.1313925E+00
         -1   -1    0    0    0  501 -0.00000000000E+00  0.00000000000E+00  0.51620286372E+01  0.51620286372E+01  0.00000000000E+00 0.  1.
          2   -1    0    0  502    0  0.00000000000E+00 -0.00000000000E+00 -0.64354209869E+03  0.64354209869E+03  0.00000000000E+00 0. -1.
         24    2    1    2    0    0 -0.19588177556E+02  0.21021690788E+02 -0.43892409452E+03  0.44718912948E+03  0.80611094690E+02 0.  0.
        -13    1    3    3    0    0 -0.11460660355E+02 -0.28517151771E+02 -0.10149917914E+03  0.10605026189E+03  0.00000000000E+00 0.  1.
         14    1    3    3    0    0 -0.81275172005E+01  0.49538842559E+02 -0.33742491538E+03  0.34113886758E+03  0.00000000000E+00 0. -1.
         21    1    1    2  502  501  0.19588177556E+02 -0.21021690788E+02 -0.19945597553E+03  0.20151499785E+03  0.00000000000E+00 0.  1.
<mgrwt>
<rscale>  1 0.85578951E+02</rscale>
<asrwt>0</asrwt>
<pdfrwt beam="1">  1        2 0.99006534E-01 0.85578951E+02</pdfrwt>
<pdfrwt beam="2">  1       -1 0.79415779E-03 0.85578951E+02</pdfrwt>
<totfact> 0.11943626E+05</totfact>
</mgrwt>
</event>
<event>
 6    2  0.1063641E+001  0.9835472E+02  0.7546771E-02  0.1283794E+00
          2   -1    0    0  502    0  0.00000000000E+00  0.00000000000E+00  0.14930329597E+04  0.14930329597E+04  0.00000000000E+00 0. -1.
         -1   -1    0    0    0  501 -0.00000000000E+00 -0.00000000000E+00 -0.51600774788E+01  0.51600774788E+01  0.00000000000E+00 0.  1.
         24    2    1    2    0    0 -0.44867053924E+01  0.53054419089E+02  0.54400832123E+03  0.55282791650E+03  0.82696733785E+02 0.  0.
        -13    1    3    3    0    0  0.88833937598E+01  0.31983575675E+02  0.63328739816E+02  0.71501000583E+02  0.00000000000E+00 0.  1.
         14    1    3    3    0    0 -0.13370099152E+02  0.21070843414E+02  0.48067958142E+03  0.48132691592E+03  0.00000000000E+00 0. -1.
         21    1    1    2  502  501  0.44867053924E+01 -0.53054419089E+02  0.94386456096E+03  0.94536512065E+03  0.00000000000E+00 0. -1.
<mgrwt>
<rscale>  1 0.98354724E+02</rscale>
<asrwt>0</asrwt>
<pdfrwt beam="1">  1        2 0.22969703E+00 0.98354724E+02</pdfrwt>
<pdfrwt beam="2">  1       -1 0.79385926E-03 0.98354724E+02</pdfrwt>
<totfact> 0.38232882E+04</totfact>
</mgrwt>
</event>
<event>
 6    2  0.1063641E+001  0.9107692E+02  0.7546771E-02  0.1300265E+00
          2   -1    0    0  502    0  0.00000000000E+00  0.00000000000E+00  0.11174794673E+04  0.11174794673E+04  0.00000000000E+00 0. -1.
         -1   -1    0    0    0  501 -0.00000000000E+00 -0.00000000000E+00 -0.52361414676E+01  0.52361414676E+01  0.00000000000E+00 0.  1.
         24    2    1    2    0    0 -0.29110719719E+02  0.30247220515E+02  0.44894689339E+03  0.45809204189E+03  0.80824980121E+02 0.  0.
        -11    1    3    3    0    0 -0.33535712990E+02  0.27597339882E+02  0.99005673666E+02  0.10811281438E+03  0.00000000000E+00 0.  1.
         12    1    3    3    0    0  0.44249932703E+01  0.26498806330E+01  0.34994121972E+03  0.34997922752E+03  0.00000000000E+00 0. -1.
         21    1    1    2  502  501  0.29110719719E+02 -0.30247220515E+02  0.66329643245E+03  0.66462356688E+03  0.00000000000E+00 0. -1.
<mgrwt>
<rscale>  1 0.91076922E+02</rscale>
<asrwt>0</asrwt>
<pdfrwt beam="1">  1        2 0.17191973E+00 0.91076922E+02</pdfrwt>
<pdfrwt beam="2">  1       -1 0.80556111E-03 0.91076922E+02</pdfrwt>
<totfact> 0.58855522E+04</totfact>
</mgrwt>
</event>
<event>
 6    2  0.1063641E+001  0.8350194E+02  0.7546771E-02  0.1319397E+00
          2   -1    0    0  502    0  0.00000000000E+00  0.00000000000E+00  0.70273510292E+03  0.70273510292E+03  0.00000000000E+00 0. -1.
         -1   -1    0    0    0  501 -0.00000000000E+00 -0.00000000000E+00 -0.50667808727E+01  0.50667808727E+01  0.00000000000E+00 0.  1.
         24    2    1    2    0    0 -0.15882942288E+02 -0.20760955391E+02  0.38032031830E+03  0.38937914496E+03  0.79305036990E+02 0.  0.
        -13    1    3    3    0    0  0.15708289940E+02  0.57588961752E+01  0.17459647966E+02  0.24181698971E+02  0.00000000000E+00 0.  1.
         14    1    3    3    0    0 -0.31591232228E+02 -0.26519851567E+02  0.36286067033E+03  0.36519744599E+03  0.00000000000E+00 0. -1.
         21    1    1    2  502  501  0.15882942288E+02  0.20760955391E+02  0.31734800375E+03  0.31842273884E+03  0.00000000000E+00 0.  1.
<mgrwt>
<rscale>  1 0.83501940E+02</rscale>
<asrwt>0</asrwt>
<pdfrwt beam="1">  1        2 0.10811302E+00 0.83501940E+02</pdfrwt>
<pdfrwt beam="2">  1       -1 0.77950531E-03 0.83501940E+02</pdfrwt>
<totfact> 0.11041012E+05</totfact>
</mgrwt>
</event>
<event>
 6    2  0.1063641E+001  0.9661011E+02  0.7546771E-02  0.1287590E+00
          2   -1    0    0  502    0  0.00000000000E+00  0.00000000000E+00  0.24528460153E+04  0.24528460153E+04  0.00000000000E+00 0. -1.
         -1   -1    0    0    0  501 -0.00000000000E+00 -0.00000000000E+00 -0.23235527452E+01  0.23235527452E+01  0.00000000000E+00 0.  1.
         24    2    1    2    0    0 -0.49858998242E+02  0.18895265523E+02  0.17130948671E+04  0.17158168719E+04  0.80564033125E+02 0.  0.
        -11    1    3    3    0    0 -0.54344270750E+02  0.13790444849E+02  0.58042514021E+03  0.58312676111E+03  0.00000000000E+00 0.  1.
         12    1    3    3    0    0  0.44852725075E+01  0.51048206742E+01  0.11326697269E+04  0.11326901108E+04  0.00000000000E+00 0. -1.
         21    1    1    2  502  501  0.49858998242E+02 -0.18895265523E+02  0.73742759540E+03  0.73935269609E+03  0.00000000000E+00 0.  1.
<mgrwt>
<rscale>  1 0.96610114E+02</rscale>
<asrwt>0</asrwt>
<pdfrwt beam="1">  1        2 0.37735885E+00 0.96610114E+02</pdfrwt>
<pdfrwt beam="2">  1       -1 0.35747162E-03 0.96610114E+02</pdfrwt>
<totfact> 0.37993815E+04</totfact>
</mgrwt>
</event>
<event>
 6    2  0.1063641E+001  0.8842922E+02  0.7546771E-02  0.1306701E+00
         -1   -1    0    0    0  501 -0.00000000000E+00  0.00000000000E+00  0.72900717559E+01  0.72900717559E+01  0.00000000000E+00 0.  1.
          2   -1    0    0  502    0  0.00000000000E+00 -0.00000000000E+00 -0.83580052980E+03  0.83580052980E+03  0.00000000000E+00 0. -1.
         24    2    1    2    0    0  0.27477513785E+02  0.40484816287E+02 -0.31265233973E+03  0.32491724027E+03  0.73659306091E+02 0.  0.
        -13    1    3    3    0    0 -0.19392612708E+02  0.11530288349E+02 -0.33556636910E+02  0.40435984689E+02  0.00000000000E+00 0.  1.
         14    1    3    3    0    0  0.46870126493E+02  0.28954527939E+02 -0.27909570282E+03  0.28448125558E+03  0.00000000000E+00 0. -1.
         21    1    1    2  502  501 -0.27477513785E+02 -0.40484816287E+02 -0.51585811832E+03  0.51817336128E+03  0.00000000000E+00 0.  1.
<mgrwt>
<rscale>  1 0.88429223E+02</rscale>
<asrwt>0</asrwt>
<pdfrwt beam="1">  1        2 0.12858470E+00 0.88429223E+02</pdfrwt>
<pdfrwt beam="2">  1       -1 0.11215495E-02 0.88429223E+02</pdfrwt>
<totfact> 0.54147475E+04</totfact>
</mgrwt>
</event>
<event>
 6    2  0.1063641E+001  0.9886554E+02  0.7546771E-02  0.1282700E+00
          4   -1    0    0  502    0  0.00000000000E+00  0.00000000000E+00  0.21567206685E+03  0.21567206685E+03  0.00000000000E+00 0. -1.
         -3   -1    0    0    0  501 -0.00000000000E+00 -0.00000000000E+00 -0.17227442636E+02  0.17227442636E+02  0.00000000000E+00 0.  1.
         24    2    1    2    0    0 -0.85776163748E+01  0.20701724783E+02  0.15187740156E+03  0.18122124386E+03  0.96292560523E+02 0.  0.
        -13    1    3    3    0    0 -0.49539858603E+02  0.28510392081E+02  0.86699943333E+02  0.10384565576E+03  0.00000000000E+00 0.  1.
         14    1    3    3    0    0  0.40962242228E+02 -0.78086672972E+01  0.65177458225E+02  0.77375588101E+02  0.00000000000E+00 0. -1.
         21    1    1    2  502  501  0.85776163748E+01 -0.20701724783E+02  0.46567222654E+02  0.51678265619E+02  0.00000000000E+00 0. -1.
<mgrwt>
<rscale>  1 0.98865536E+02</rscale>
<asrwt>0</asrwt>
<pdfrwt beam="1">  1        4 0.33180316E-01 0.98865536E+02</pdfrwt>
<pdfrwt beam="2">  1       -3 0.26503759E-02 0.98865536E+02</pdfrwt>
<totfact> 0.95691570E+03</totfact>
</mgrwt>
</event>
<event>
 6    2  0.1063641E+001  0.8223752E+02  0.7546771E-02  0.1322819E+00
         -1   -1    0    0    0  501 -0.00000000000E+00  0.00000000000E+00  0.41127411918E+01  0.41127411918E+01  0.00000000000E+00 0.  1.
          2   -1    0    0  502    0  0.00000000000E+00 -0.00000000000E+00 -0.70854984869E+03  0.70854984869E+03  0.00000000000E+00 0. -1.
         24    2    1    2    0    0 -0.23247698501E+02 -0.19763048953E+01 -0.47757209135E+03  0.48460098237E+03  0.78858407388E+02 0.  0.
        -13    1    3    3    0    0 -0.19131412185E+02  0.44030299250E+01 -0.24182757754E+02  0.31148087859E+02  0.00000000000E+00 0.  1.
         14    1    3    3    0    0 -0.41162863162E+01 -0.63793348203E+01 -0.45338933359E+03  0.45345289451E+03  0.00000000000E+00 0. -1.
         21    1    1    2  502  501  0.23247698501E+02  0.19763048953E+01 -0.22686501615E+03  0.22806160751E+03  0.00000000000E+00 0. -1.
<mgrwt>
<rscale>  1 0.82237520E+02</rscale>
<asrwt>0</asrwt>
<pdfrwt beam="1">  1        2 0.10900760E+00 0.82237520E+02</pdfrwt>
<pdfrwt beam="2">  1       -1 0.63272979E-03 0.82237520E+02</pdfrwt>
<totfact> 0.14613475E+05</totfact>
</mgrwt>
</event>
<event>
 6    2  0.1063641E+001  0.8301917E+02  0.7546771E-02  0.1320695E+00
         -1   -1    0    0    0  501 -0.00000000000E+00  0.00000000000E+00  0.26814700767E+01  0.26814700767E+01  0.00000000000E+00 0.  1.
          2   -1    0    0  502    0  0.00000000000E+00 -0.00000000000E+00 -0.10620471621E+04  0.10620471621E+04  0.00000000000E+00 0. -1.
         24    2    1    2    0    0  0.17662408901E+02 -0.12699751872E+02 -0.74505642313E+03  0.74966743035E+03  0.80118275635E+02 0.  0.
        -11    1    3    3    0    0  0.12764276603E+02 -0.19004801390E+02 -0.55125133148E+02  0.59689945030E+02  0.00000000000E+00 0.  1.
         12    1    3    3    0    0  0.48981322980E+01  0.63050495177E+01 -0.68993128998E+03  0.68997748532E+03  0.00000000000E+00 0. -1.
         21    1    1    2  502  501 -0.17662408901E+02  0.12699751872E+02 -0.31430926889E+03  0.31506120183E+03  0.00000000000E+00 0. -1.
<mgrwt>
<rscale>  1 0.83019169E+02</rscale>
<asrwt>0</asrwt>
<pdfrwt beam="1">  1        2 0.16339181E+00 0.83019169E+02</pdfrwt>
<pdfrwt beam="2">  1       -1 0.41253401E-03 0.83019169E+02</pdfrwt>
<totfact> 0.15942279E+05</totfact>
</mgrwt>
</event>
<event>
 6    2  0.1063641E+001  0.8422815E+02  0.7546771E-02  0.1317463E+00
         -1   -1    0    0    0  501 -0.00000000000E+00  0.00000000000E+00  0.47928173025E+01  0.47928173025E+01  0.00000000000E+00 0.  1.
          2   -1    0    0  502    0  0.00000000000E+00 -0.00000000000E+00 -0.13485888850E+04  0.13485888850E+04  0.00000000000E+00 0. -1.
         24    2    1    2    0    0 -0.20500649582E+02 -0.54967969240E+01 -0.37456962177E+03  0.38392288684E+03  0.81510061160E+02 0.  0.
        -11    1    3    3    0    0 -0.29768021255E+02 -0.17650915803E+02 -0.62199994854E+02  0.71179556602E+02  0.00000000000E+00 0.  1.
         12    1    3    3    0    0  0.92673716738E+01  0.12154118879E+02 -0.31236962692E+03  0.31274333023E+03  0.00000000000E+00 0. -1.
         21    1    1    2  502  501  0.20500649582E+02  0.54967969240E+01 -0.96922644593E+03  0.96945881547E+03  0.00000000000E+00 0.  1.
<mgrwt>
<rscale>  1 0.84228151E+02</rscale>
<asrwt>0</asrwt>
<pdfrwt beam="1">  1        2 0.20747543E+00 0.84228151E+02</pdfrwt>
<pdfrwt beam="2">  1       -1 0.73735573E-03 0.84228151E+02</pdfrwt>
<totfact> 0.49635905E+04</totfact>
</mgrwt>
</event>
<event>
 6    2  0.1063641E+001  0.1068057E+03  0.7546771E-02  0.1266602E+00
         -3   -1    0    0    0  501 -0.00000000000E+00  0.00000000000E+00  0.60981259199E+02  0.60981259199E+02  0.00000000000E+00 0.  1.
          4   -1    0    0  502    0  0.00000000000E+00 -0.00000000000E+00 -0.13018184436E+03  0.13018184436E+03  0.00000000000E+00 0. -1.
         24    2    1    2    0    0 -0.29010581015E+02 -0.64394034740E+02 -0.50259177963E+02  0.11804003997E+03  0.80120287985E+02 0.  0.
        -13    1    3    3    0    0 -0.84652456134E-01 -0.44248268968E+02  0.12568931540E+02  0.45998853385E+02  0.00000000000E+00 0.  1.
         14    1    3    3    0    0 -0.28925928559E+02 -0.20145765773E+02 -0.62828109503E+02  0.72041186590E+02  0.00000000000E+00 0. -1.
         21    1    1    2  502  501  0.29010581015E+02  0.64394034740E+02 -0.18941407194E+02  0.73123063581E+02  0.00000000000E+00 0.  1.
<mgrwt>
<rscale>  1 0.10680574E+03</rscale>
<asrwt>0</asrwt>
<pdfrwt beam="1">  1        4 0.20027976E-01 0.10680574E+03</pdfrwt>
<pdfrwt beam="2">  1       -3 0.93817323E-02 0.10680574E+03</pdfrwt>
<totfact> 0.33794601E+03</totfact>
</mgrwt>
</event>
<event>
 6    2  0.1063641E+001  0.7460545E+02  0.7546771E-02  0.1345097E+00
         -1   -1    0    0    0  501 -0.00000000000E+00  0.00000000000E+00  0.23866206456E+01  0.23866206456E+01  0.00000000000E+00 0.  1.
          2   -1    0    0  502    0  0.00000000000E+00 -0.00000000000E+00 -0.11820173727E+04  0.11820173727E+04  0.00000000000E+00 0. -1.
         24    2    1    2    0    0  0.31325153479E+02 -0.42051189469E+01 -0.83765909454E+03  0.84097486994E+03  0.67579767128E+02 0.  0.
        -11    1    3    3    0    0 -0.21661822062E+01 -0.30797109210E+02 -0.28629444157E+03  0.28795426990E+03  0.00000000000E+00 0.  1.
         12    1    3    3    0    0  0.33491335685E+02  0.26591990263E+02 -0.55136465297E+03  0.55302060003E+03  0.00000000000E+00 0. -1.
         21    1    1    2  502  501 -0.31325153479E+02  0.42051189469E+01 -0.34197165752E+03  0.34342912342E+03  0.00000000000E+00 0.  1.
<mgrwt>
<rscale>  1 0.74605450E+02</rscale>
<asrwt>0</asrwt>
<pdfrwt beam="1">  1        2 0.18184858E+00 0.74605450E+02</pdfrwt>
<pdfrwt beam="2">  1       -1 0.36717290E-03 0.74605450E+02</pdfrwt>
<totfact> 0.15838065E+05</totfact>
</mgrwt>
</event>
<event>
 6    2  0.1063641E+001  0.7819877E+02  0.7546771E-02  0.1334242E+00
          2   -1    0    0  502    0  0.00000000000E+00  0.00000000000E+00  0.13521769900E+02  0.13521769900E+02  0.00000000000E+00 0. -1.
         -1   -1    0    0    0  501 -0.00000000000E+00 -0.00000000000E+00 -0.19958189681E+03  0.19958189681E+03  0.00000000000E+00 0.  1.
         24    2    1    2    0    0 -0.75512891003E+01  0.22751700897E+02 -0.15728066878E+03  0.17564810543E+03  0.74433771281E+02 0.  0.
        -13    1    3    3    0    0  0.24490208481E+02  0.60989060458E+01 -0.12399322417E+03  0.12653571277E+03  0.00000000000E+00 0.  1.
         14    1    3    3    0    0 -0.32041497581E+02  0.16652794851E+02 -0.33287444610E+02  0.49112392655E+02  0.00000000000E+00 0. -1.
         21    1    1    2  502  501  0.75512891003E+01 -0.22751700897E+02 -0.28779458122E+02  0.37455561277E+02  0.00000000000E+00 0. -1.
<mgrwt>
<rscale>  1 0.78198773E+02</rscale>
<asrwt>0</asrwt>
<pdfrwt beam="1">  1        2 0.20802723E-02 0.78198773E+02</pdfrwt>
<pdfrwt beam="2">  1       -1 0.30704907E-01 0.78198773E+02</pdfrwt>
<totfact> 0.49018683E+04</totfact>
</mgrwt>
</event>
<event>
 6    2  0.1063641E+001  0.8169740E+02  0.7546771E-02  0.1324302E+00
          2   -1    0    0  502    0  0.00000000000E+00  0.00000000000E+00  0.10128081623E+04  0.10128081623E+04  0.00000000000E+00 0. -1.
         -1   -1    0    0    0  501 -0.00000000000E+00 -0.00000000000E+00 -0.27069099177E+01  0.27069099177E+01  0.00000000000E+00 0.  1.
         24    2    1    2    0    0 -0.14831073717E+02 -0.15724380109E+02  0.72296619850E+03  0.72756758387E+03  0.78786090451E+02 0.  0.
        -13    1    3    3    0    0 -0.19139232608E+02 -0.39821249665E+02  0.24342763949E+03  0.24740464389E+03  0.00000000000E+00 0.  1.
         14    1    3    3    0    0  0.43081588909E+01  0.24096869556E+02  0.47953855901E+03  0.48016293998E+03  0.00000000000E+00 0. -1.
         21    1    1    2  502  501  0.14831073717E+02  0.15724380109E+02  0.28713505390E+03  0.28794748836E+03  0.00000000000E+00 0. -1.
<mgrwt>
<rscale>  1 0.81697399E+02</rscale>
<asrwt>0</asrwt>
<pdfrwt beam="1">  1        2 0.15581634E+00 0.81697399E+02</pdfrwt>
<pdfrwt beam="2">  1       -1 0.41644848E-03 0.81697399E+02</pdfrwt>
<totfact> 0.16751689E+05</totfact>
</mgrwt>
</event>
<event>
 6    2  0.1063641E+001  0.8711217E+02  0.7546771E-02  0.1310000E+00
         -1   -1    0    0    0  501 -0.00000000000E+00  0.00000000000E+00  0.47539161433E+02  0.47539161433E+02  0.00000000000E+00 0.  1.
          2   -1    0    0  502    0  0.00000000000E+00 -0.00000000000E+00 -0.76211448701E+02  0.76211448701E+02  0.00000000000E+00 0. -1.
         24    2    1    2    0    0  0.30134194806E+02 -0.13495975296E+02 -0.17184943694E+02  0.88791060535E+02  0.80612152281E+02 0.  0.
        -13    1    3    3    0    0  0.29082796262E+02 -0.22735572166E+02  0.25654411424E+02  0.44954022130E+02  0.00000000000E+00 0.  1.
         14    1    3    3    0    0  0.10513985440E+01  0.92395968697E+01 -0.42839355118E+02  0.43837038405E+02  0.00000000000E+00 0. -1.
         21    1    1    2  502  501 -0.30134194806E+02  0.13495975296E+02 -0.11487343574E+02  0.34959549599E+02  0.00000000000E+00 0. -1.
<mgrwt>
<rscale>  1 0.87112170E+02</rscale>
<asrwt>0</asrwt>
<pdfrwt beam="1">  1        2 0.11724838E-01 0.87112170E+02</pdfrwt>
<pdfrwt beam="2">  1       -1 0.73137173E-02 0.87112170E+02</pdfrwt>
<totfact> 0.50716706E+04</totfact>
</mgrwt>
</event>
<event>
 6    2  0.1180638E+001  0.8559934E+02  0.7546771E-02  0.1313873E+00
          2   -1    0    0  502    0  0.00000000000E+00  0.00000000000E+00  0.23219056650E+04  0.23219056650E+04  0.00000000000E+00 0. -1.
         -1   -1    0    0    0  501 -0.00000000000E+00 -0.00000000000E+00 -0.49673512086E+01  0.49673512086E+01  0.00000000000E+00 0.  1.
         24    2    1    2    0    0  0.26977684678E+02 -0.10211458280E+02  0.22711080168E+04  0.22727205881E+04  0.80592667913E+02 0.  0.
        -13    1    3    3    0    0 -0.28075825028E+02 -0.11934702903E+02  0.79163562139E+03  0.79222322999E+03  0.00000000000E+00 0.  1.
         14    1    3    3    0    0  0.55053509706E+02  0.17232446226E+01  0.14794723955E+04  0.14804973581E+04  0.00000000000E+00 0. -1.
         21    1    1    2  502  501 -0.26977684678E+02  0.10211458280E+02  0.45830296990E+02  0.54152428136E+02  0.00000000000E+00 0.  1.
<mgrwt>
<rscale>  1 0.85599343E+02</rscale>
<asrwt>0</asrwt>
<pdfrwt beam="1">  1        2 0.35721539E+00 0.85599343E+02</pdfrwt>
<pdfrwt beam="2">  1       -1 0.76420973E-03 0.85599343E+02</pdfrwt>
<totfact> 0.15232182E+04</totfact>
</mgrwt>
</event>
<event>
 6    2  0.1063641E+001  0.8808135E+02  0.7546771E-02  0.1307566E+00
          2   -1    0    0  502    0  0.00000000000E+00  0.00000000000E+00  0.59071906076E+03  0.59071906076E+03  0.00000000000E+00 0. -1.
         -1   -1    0    0    0  501 -0.00000000000E+00 -0.00000000000E+00 -0.72105275820E+01  0.72105275820E+01  0.00000000000E+00 0.  1.
         24    2    1    2    0    0 -0.29238013615E+02 -0.83273811237E+01  0.29625262915E+03  0.30906948186E+03  0.82668722161E+02 0.  0.
        -11    1    3    3    0    0 -0.24255907565E+02 -0.39254686414E+02  0.97557353110E+02  0.10791995461E+03  0.00000000000E+00 0.  1.
         12    1    3    3    0    0 -0.49821060501E+01  0.30927305290E+02  0.19869527604E+03  0.20114952725E+03  0.00000000000E+00 0. -1.
         21    1    1    2  502  501  0.29238013615E+02  0.83273811237E+01  0.28725590403E+03  0.28886010648E+03  0.00000000000E+00 0. -1.
<mgrwt>
<rscale>  1 0.88081351E+02</rscale>
<asrwt>0</asrwt>
<pdfrwt beam="1">  1        2 0.90879818E-01 0.88081351E+02</pdfrwt>
<pdfrwt beam="2">  1       -1 0.11093124E-02 0.88081351E+02</pdfrwt>
<totfact> 0.82497305E+04</totfact>
</mgrwt>
</event>
<event>
 6    2  0.1063641E+001  0.9093775E+02  0.7546771E-02  0.1300597E+00
         -1   -1    0    0    0  501 -0.00000000000E+00  0.00000000000E+00  0.17395413726E+02  0.17395413726E+02  0.00000000000E+00 0.  1.
          2   -1    0    0  502    0  0.00000000000E+00 -0.00000000000E+00 -0.19619889791E+03  0.19619889791E+03  0.00000000000E+00 0. -1.
         24    2    1    2    0    0 -0.22229503988E+02 -0.85974394741E+01 -0.12345635712E+03  0.15333345131E+03  0.87758807899E+02 0.  0.
        -13    1    3    3    0    0 -0.24312187999E+02  0.32544053802E+01  0.43927653350E+01  0.24919270193E+02  0.00000000000E+00 0.  1.
         14    1    3    3    0    0  0.20826840107E+01 -0.11851844854E+02 -0.12784912245E+03  0.12841418111E+03  0.00000000000E+00 0. -1.
         21    1    1    2  502  501  0.22229503988E+02  0.85974394741E+01 -0.55347127069E+02  0.60260860332E+02  0.00000000000E+00 0. -1.
<mgrwt>
<rscale>  1 0.90937754E+02</rscale>
<asrwt>0</asrwt>
<pdfrwt beam="1">  1        2 0.30184444E-01 0.90937754E+02</pdfrwt>
<pdfrwt beam="2">  1       -1 0.26762177E-02 0.90937754E+02</pdfrwt>
<totfact> 0.76182771E+04</totfact>
</mgrwt>
</event>
<event>
 6    2  0.1063641E+001  0.8962288E+02  0.7546771E-02  0.1303768E+00
          2   -1    0    0  502    0  0.00000000000E+00  0.00000000000E+00  0.13830042049E+03  0.13830042049E+03  0.00000000000E+00 0. -1.
         -1   -1    0    0    0  501 -0.00000000000E+00 -0.00000000000E+00 -0.42639896669E+02  0.42639896669E+02  0.00000000000E+00 0.  1.
         24    2    1    2    0    0 -0.33738467265E+02 -0.19692713549E+02  0.10765235530E+03  0.14007601534E+03  0.80660853776E+02 0.  0.
        -11    1    3    3    0    0 -0.10380841523E+02 -0.29230773931E+02  0.11042036165E+03  0.11469462186E+03  0.00000000000E+00 0.  1.
         12    1    3    3    0    0 -0.23357625741E+02  0.95380603822E+01 -0.27680063507E+01  0.25381393486E+02  0.00000000000E+00 0. -1.
         21    1    1    2  502  501  0.33738467265E+02  0.19692713549E+02 -0.11991831485E+02  0.40864301813E+02  0.00000000000E+00 0.  1.
<mgrwt>
<rscale>  1 0.89622879E+02</rscale>
<asrwt>0</asrwt>
<pdfrwt beam="1">  1        2 0.21276988E-01 0.89622879E+02</pdfrwt>
<pdfrwt beam="2">  1       -1 0.65599841E-02 0.89622879E+02</pdfrwt>
<totfact> 0.30168877E+04</totfact>
</mgrwt>
</event>
<event>
 6    2  0.1063641E+001  0.7579801E+02  0.7546771E-02  0.1341418E+00
         -1   -1    0    0    0  501 -0.00000000000E+00  0.00000000000E+00  0.50639495476E+01  0.50639495476E+01  0.00000000000E+00 0.  1.
          2   -1    0    0  502    0  0.00000000000E+00 -0.00000000000E+00 -0.10138498538E+04  0.10138498538E+04  0.00000000000E+00 0. -1.
         24    2    1    2    0    0  0.11201859973E+02  0.34463741433E+02 -0.30793479772E+03  0.31712643906E+03  0.66574075781E+02 0.  0.
        -13    1    3    3    0    0  0.37796332053E+02  0.13494416859E+02 -0.13218058261E+03  0.13813894608E+03  0.00000000000E+00 0.  1.
         14    1    3    3    0    0 -0.26594472080E+02  0.20969324575E+02 -0.17575421511E+03  0.17898749299E+03  0.00000000000E+00 0. -1.
         21    1    1    2  502  501 -0.11201859973E+02 -0.34463741433E+02 -0.70085110653E+03  0.70178736428E+03  0.00000000000E+00 0. -1.
<mgrwt>
<rscale>  1 0.75798013E+02</rscale>
<asrwt>0</asrwt>
<pdfrwt beam="1">  1        2 0.15597689E+00 0.75798013E+02</pdfrwt>
<pdfrwt beam="2">  1       -1 0.77906924E-03 0.75798013E+02</pdfrwt>
<totfact> 0.69096662E+04</totfact>
</mgrwt>
</event>
<event>
 6    2  0.1063641E+001  0.1088509E+03  0.7546771E-02  0.1262713E+00
         -1   -1    0    0    0  501 -0.00000000000E+00  0.00000000000E+00  0.50649091634E+02  0.50649091634E+02  0.00000000000E+00 0.  1.
          2   -1    0    0  502    0  0.00000000000E+00 -0.00000000000E+00 -0.95902738602E+03  0.95902738602E+03  0.00000000000E+00 0. -1.
         24    2    1    2    0    0 -0.50801190600E+02 -0.52572456591E+02 -0.11089431658E+02  0.10941433398E+03  0.80646740959E+02 0.  0.
        -11    1    3    3    0    0 -0.60146542225E+02 -0.26550357602E+02  0.19112392625E+02  0.68467595125E+02  0.00000000000E+00 0.  1.
         12    1    3    3    0    0  0.93453516249E+01 -0.26022098989E+02 -0.30201824283E+02  0.40946738855E+02  0.00000000000E+00 0. -1.
         21    1    1    2  502  501  0.50801190600E+02  0.52572456591E+02 -0.89728886272E+03  0.90026214367E+03  0.00000000000E+00 0. -1.
<mgrwt>
<rscale>  1 0.10885091E+03</rscale>
<asrwt>0</asrwt>
<pdfrwt beam="1">  1        2 0.14754266E+00 0.10885091E+03</pdfrwt>
<pdfrwt beam="2">  1       -1 0.77921688E-02 0.10885091E+03</pdfrwt>
<totfact> 0.27880470E+03</totfact>
</mgrwt>
</event>
<event>
 6    2  0.1063641E+001  0.8622221E+02  0.7546771E-02  0.1312267E+00
          2   -1    0    0  502    0  0.00000000000E+00  0.00000000000E+00  0.33812175894E+03  0.33812175894E+03  0.00000000000E+00 0. -1.
         -1   -1    0    0    0  501 -0.00000000000E+00 -0.00000000000E+00 -0.97164111846E+01  0.97164111846E+01  0.00000000000E+00 0.  1.
         24    2    1    2    0    0  0.19763972991E+02  0.20370773578E+02  0.24356014832E+03  0.25837146731E+03  0.81416744148E+02 0.  0.
        -13    1    3    3    0    0 -0.13804777503E+02  0.43358064607E+02  0.13222703565E+03  0.13983734339E+03  0.00000000000E+00 0.  1.
         14    1    3    3    0    0  0.33568750495E+02 -0.22987291029E+02  0.11133311266E+03  0.11853412392E+03  0.00000000000E+00 0. -1.
         21    1    1    2  502  501 -0.19763972991E+02 -0.20370773578E+02  0.84845199438E+02  0.89466702813E+02  0.00000000000E+00 0. -1.
<mgrwt>
<rscale>  1 0.86222209E+02</rscale>
<asrwt>0</asrwt>
<pdfrwt beam="1">  1        2 0.52018723E-01 0.86222209E+02</pdfrwt>
<pdfrwt beam="2">  1       -1 0.14948327E-02 0.86222209E+02</pdfrwt>
<totfact> 0.97873995E+04</totfact>
</mgrwt>
</event>
<event>
 6    2  0.1063641E+001  0.8325587E+02  0.7546771E-02  0.1320058E+00
         -1   -1    0    0    0  501 -0.00000000000E+00  0.00000000000E+00  0.23410298976E+01  0.23410298976E+01  0.00000000000E+00 0.  1.
          2   -1    0    0  502    0  0.00000000000E+00 -0.00000000000E+00 -0.26202823034E+04  0.26202823034E+04  0.00000000000E+00 0. -1.
         24    2    1    2    0    0 -0.62296578669E+01  0.29469565306E+02 -0.77917573203E+03  0.78361110375E+03  0.77616213644E+02 0.  0.
        -11    1    3    3    0    0 -0.30741031551E+02  0.38865658230E+02 -0.33332860299E+03  0.33699185151E+03  0.00000000000E+00 0.  1.
         12    1    3    3    0    0  0.24511373684E+02 -0.93960929242E+01 -0.44584712904E+03  0.44661925224E+03  0.00000000000E+00 0. -1.
         21    1    1    2  502  501  0.62296578669E+01 -0.29469565306E+02 -0.18387655415E+04  0.18390122295E+04  0.00000000000E+00 0.  1.
<mgrwt>
<rscale>  1 0.83255874E+02</rscale>
<asrwt>0</asrwt>
<pdfrwt beam="1">  1        2 0.40312052E+00 0.83255874E+02</pdfrwt>
<pdfrwt beam="2">  1       -1 0.36015830E-03 0.83255874E+02</pdfrwt>
<totfact> 0.30397698E+04</totfact>
</mgrwt>
</event>
<event>
 6    2  0.1063641E+001  0.9461482E+02  0.7546771E-02  0.1292046E+00
         -1   -1    0    0    0  501 -0.00000000000E+00  0.00000000000E+00  0.41075842020E+03  0.41075842020E+03  0.00000000000E+00 0.  1.
          2   -1    0    0  502    0  0.00000000000E+00 -0.00000000000E+00 -0.14077353656E+02  0.14077353656E+02  0.00000000000E+00 0. -1.
         24    2    1    2    0    0  0.43753573117E+02  0.22411572178E+02  0.32047035772E+03  0.33414549947E+03  0.80841269865E+02 0.  0.
        -11    1    3    3    0    0  0.60025278236E+02  0.39020686168E+01  0.28282274176E+03  0.28914868740E+03  0.00000000000E+00 0.  1.
         12    1    3    3    0    0 -0.16271705119E+02  0.18509503561E+02  0.37647615959E+02  0.44996812075E+02  0.00000000000E+00 0. -1.
         21    1    1    2  502  501 -0.43753573117E+02 -0.22411572178E+02  0.76210708826E+02  0.90690274383E+02  0.00000000000E+00 0. -1.
<mgrwt>
<rscale>  1 0.94614823E+02</rscale>
<asrwt>0</asrwt>
<pdfrwt beam="1">  1        2 0.21657470E-02 0.94614823E+02</pdfrwt>
<pdfrwt beam="2">  1       -1 0.63193594E-01 0.94614823E+02</pdfrwt>
<totfact> 0.13286838E+04</totfact>
</mgrwt>
</event>
<event>
 6    2  0.1063641E+001  0.8452061E+02  0.7546771E-02  0.1316691E+00
          2   -1    0    0  502    0  0.00000000000E+00  0.00000000000E+00  0.50812610092E+03  0.50812610092E+03  0.00000000000E+00 0. -1.
         -1   -1    0    0    0  501 -0.00000000000E+00 -0.00000000000E+00 -0.38485189545E+02  0.38485189545E+02  0.00000000000E+00 0.  1.
         24    2    1    2    0    0 -0.87808876103E+01  0.28095829319E+02  0.89636978759E+01  0.84994593790E+02  0.79229120162E+02 0.  0.
        -13    1    3    3    0    0  0.22671278173E+02  0.43777022797E+02  0.34456811752E+01  0.49419503212E+02  0.00000000000E+00 0.  1.
         14    1    3    3    0    0 -0.31452165783E+02 -0.15681193478E+02  0.55180167007E+01  0.35575090578E+02  0.00000000000E+00 0. -1.
         21    1    1    2  502  501  0.87808876103E+01 -0.28095829319E+02  0.46067721350E+03  0.46161669667E+03  0.00000000000E+00 0. -1.
<mgrwt>
<rscale>  1 0.84520608E+02</rscale>
<asrwt>0</asrwt>
<pdfrwt beam="1">  1        2 0.78173241E-01 0.84520608E+02</pdfrwt>
<pdfrwt beam="2">  1       -1 0.59207988E-02 0.84520608E+02</pdfrwt>
<totfact> 0.87566621E+03</totfact>
</mgrwt>
</event>
<event>
 6    2  0.1063641E+001  0.7926141E+02  0.7546771E-02  0.1331161E+00
          4   -1    0    0  502    0  0.00000000000E+00  0.00000000000E+00  0.21948504298E+03  0.21948504298E+03  0.00000000000E+00 0. -1.
         -3   -1    0    0    0  501 -0.00000000000E+00 -0.00000000000E+00 -0.16026149838E+02  0.16026149838E+02  0.00000000000E+00 0.  1.
         24    2    1    2    0    0  0.11320737185E+02  0.28366176517E+02  0.99795213359E+02  0.12744196701E+03  0.73140763499E+02 0.  0.
        -13    1    3    3    0    0  0.32747383694E+02  0.33607041413E+02  0.33722264318E+02  0.57784214818E+02  0.00000000000E+00 0.  1.
         14    1    3    3    0    0 -0.21426646508E+02 -0.52408648964E+01  0.66072949041E+02  0.69657752192E+02  0.00000000000E+00 0. -1.
         21    1    1    2  502  501 -0.11320737185E+02 -0.28366176517E+02  0.10366367978E+03  0.10806922581E+03  0.00000000000E+00 0. -1.
<mgrwt>
<rscale>  1 0.79261405E+02</rscale>
<asrwt>0</asrwt>
<pdfrwt beam="1">  1        4 0.33766928E-01 0.79261405E+02</pdfrwt>
<pdfrwt beam="2">  1       -3 0.24655617E-02 0.79261405E+02</pdfrwt>
<totfact> 0.97223166E+03</totfact>
</mgrwt>
</event>
<event>
 6    2  0.1063641E+001  0.7955408E+02  0.7546771E-02  0.1330322E+00
         -1   -1    0    0    0  501 -0.00000000000E+00  0.00000000000E+00  0.19005197015E+01  0.19005197015E+01  0.00000000000E+00 0.  1.
          2   -1    0    0  502    0  0.00000000000E+00 -0.00000000000E+00 -0.14362878352E+04  0.14362878352E+04  0.00000000000E+00 0. -1.
         24    2    1    2    0    0 -0.21456762214E+02  0.25240824329E+01 -0.95229059031E+03  0.95560777502E+03  0.76564271418E+02 0.  0.
        -11    1    3    3    0    0  0.20622237001E+02 -0.94660352906E+01 -0.11747621043E+03  0.11964757624E+03  0.00000000000E+00 0.  1.
         12    1    3    3    0    0 -0.42078999215E+02  0.11990117724E+02 -0.83481437988E+03  0.83596019878E+03  0.00000000000E+00 0. -1.
         21    1    1    2  502  501  0.21456762214E+02 -0.25240824329E+01 -0.48209672518E+03  0.48258057987E+03  0.00000000000E+00 0.  1.
<mgrwt>
<rscale>  1 0.79554078E+02</rscale>
<asrwt>0</asrwt>
<pdfrwt beam="1">  1        2 0.22096782E+00 0.79554078E+02</pdfrwt>
<pdfrwt beam="2">  1       -1 0.29238704E-03 0.79554078E+02</pdfrwt>
<totfact> 0.16121718E+05</totfact>
</mgrwt>
</event>
<event>
 6    2  0.1063641E+001  0.8445981E+02  0.7546771E-02  0.1316851E+00
         -1   -1    0    0    0  501 -0.00000000000E+00  0.00000000000E+00  0.14653348966E+02  0.14653348966E+02  0.00000000000E+00 0.  1.
          2   -1    0    0  502    0  0.00000000000E+00 -0.00000000000E+00 -0.20688837863E+03  0.20688837863E+03  0.00000000000E+00 0. -1.
         24    2    1    2    0    0  0.24121843137E+02  0.86562936265E+01 -0.14971962580E+03  0.17189946434E+03  0.80477728310E+02 0.  0.
        -11    1    3    3    0    0  0.31712818561E+02  0.16679903125E+02 -0.18705409996E+02  0.40420469968E+02  0.00000000000E+00 0.  1.
         12    1    3    3    0    0 -0.75909754247E+01 -0.80236094985E+01 -0.13101421580E+03  0.13147899437E+03  0.00000000000E+00 0. -1.
         21    1    1    2  502  501 -0.24121843137E+02 -0.86562936265E+01 -0.42515403862E+02  0.49642263256E+02  0.00000000000E+00 0. -1.
<mgrwt>
<rscale>  1 0.84459810E+02</rscale>
<asrwt>0</asrwt>
<pdfrwt beam="1">  1        2 0.31828982E-01 0.84459810E+02</pdfrwt>
<pdfrwt beam="2">  1       -1 0.22543613E-02 0.84459810E+02</pdfrwt>
<totfact> 0.91027160E+04</totfact>
</mgrwt>
</event>
<event>
 6    2  0.1063641E+001  0.9207800E+02  0.7546771E-02  0.1297896E+00
         -1   -1    0    0    0  501 -0.00000000000E+00  0.00000000000E+00  0.21386037849E+03  0.21386037849E+03  0.00000000000E+00 0.  1.
          2   -1    0    0  502    0  0.00000000000E+00 -0.00000000000E+00 -0.16293049402E+02  0.16293049402E+02  0.00000000000E+00 0. -1.
         24    2    1    2    0    0 -0.79096889359E+01  0.24122939994E+02  0.14479556298E+03  0.17159287196E+03  0.88509204242E+02 0.  0.
        -13    1    3    3    0    0  0.26361403312E+00  0.31281169732E+00  0.14636926279E+03  0.14636983443E+03  0.00000000000E+00 0.  1.
         14    1    3    3    0    0 -0.81733029691E+01  0.23810128297E+02 -0.15736998064E+01  0.25223037525E+02  0.00000000000E+00 0. -1.
         21    1    1    2  502  501  0.79096889359E+01 -0.24122939994E+02  0.52771766102E+02  0.58560555927E+02  0.00000000000E+00 0. -1.
<mgrwt>
<rscale>  1 0.92078003E+02</rscale>
<asrwt>0</asrwt>
<pdfrwt beam="1">  1        2 0.25066231E-02 0.92078003E+02</pdfrwt>
<pdfrwt beam="2">  1       -1 0.32901595E-01 0.92078003E+02</pdfrwt>
<totfact> 0.34824789E+04</totfact>
</mgrwt>
</event>
<event>
 6    2  0.1063641E+001  0.8573026E+02  0.7546771E-02  0.1313534E+00
         -1   -1    0    0    0  501 -0.00000000000E+00  0.00000000000E+00  0.39795647773E+01  0.39795647773E+01  0.00000000000E+00 0.  1.
          2   -1    0    0  502    0  0.00000000000E+00 -0.00000000000E+00 -0.17528984416E+04  0.17528984416E+04  0.00000000000E+00 0. -1.
         24    2    1    2    0    0  0.97094149673E+01 -0.24184830151E+02 -0.47385034809E+03  0.48154317516E+03  0.81673119267E+02 0.  0.
        -11    1    3    3    0    0 -0.33192287703E+02  0.32335030151E+01 -0.14581594355E+03  0.14958099110E+03  0.00000000000E+00 0.  1.
         12    1    3    3    0    0  0.42901702670E+02 -0.27418333166E+02 -0.32803440454E+03  0.33196218406E+03  0.00000000000E+00 0. -1.
         21    1    1    2  502  501 -0.97094149673E+01  0.24184830151E+02 -0.12750685288E+04  0.12753348313E+04  0.00000000000E+00 0.  1.
<mgrwt>
<rscale>  1 0.85730258E+02</rscale>
<asrwt>0</asrwt>
<pdfrwt beam="1">  1        2 0.26967689E+00 0.85730258E+02</pdfrwt>
<pdfrwt beam="2">  1       -1 0.61224027E-03 0.85730258E+02</pdfrwt>
<totfact> 0.40206531E+04</totfact>
</mgrwt>
</event>
<event>
 6    2  0.1063641E+001  0.1461347E+03  0.7546771E-02  0.1205305E+00
         -1   -1    0    0    0  501 -0.00000000000E+00  0.00000000000E+00  0.30276149505E+02  0.30276149505E+02  0.00000000000E+00 0.  1.
          2   -1    0    0  502    0  0.00000000000E+00 -0.00000000000E+00 -0.65220764480E+03  0.65220764480E+03  0.00000000000E+00 0. -1.
         24    2    1    2    0    0  0.58259879254E+02 -0.10726882012E+03 -0.43796765630E+03  0.46170447608E+03  0.80340164086E+02 0.  0.
        -11    1    3    3    0    0 -0.11396696053E+01  0.11509665317E+02 -0.59480483510E+02  0.60594547288E+02  0.00000000000E+00 0.  1.
         12    1    3    3    0    0  0.59399548859E+02 -0.11877848543E+03 -0.37848717279E+03  0.40110992879E+03  0.00000000000E+00 0. -1.
         21    1    1    2  502  501 -0.58259879254E+02  0.10726882012E+03 -0.18396383899E+03  0.22077931823E+03  0.00000000000E+00 0.  1.
<mgrwt>
<rscale>  1 0.14613472E+03</rscale>
<asrwt>0</asrwt>
<pdfrwt beam="1">  1        2 0.10033964E+00 0.14613472E+03</pdfrwt>
<pdfrwt beam="2">  1       -1 0.46578690E-02 0.14613472E+03</pdfrwt>
<totfact> 0.97912814E+03</totfact>
</mgrwt>
</event>
<event>
 6    2  0.1063641E+001  0.6686667E+02  0.7546771E-02  0.1371084E+00
          2   -1    0    0  502    0  0.00000000000E+00  0.00000000000E+00  0.42508470341E+03  0.42508470341E+03  0.00000000000E+00 0. -1.
         -1   -1    0    0    0  501 -0.00000000000E+00 -0.00000000000E+00 -0.17029740412E+02  0.17029740412E+02  0.00000000000E+00 0.  1.
         24    2    1    2    0    0 -0.23341757542E+02 -0.98667487115E+00  0.50491813939E+02  0.83788870164E+02  0.62652536390E+02 0.  0.
        -13    1    3    3    0    0 -0.25050227351E+02 -0.92828229470E+01 -0.54031194716E+01  0.27255795571E+02  0.00000000000E+00 0.  1.
         14    1    3    3    0    0  0.17084698082E+01  0.82961480759E+01  0.55894933411E+02  0.56533074593E+02  0.00000000000E+00 0. -1.
         21    1    1    2  502  501  0.23341757542E+02  0.98667487115E+00  0.35756314906E+03  0.35832557366E+03  0.00000000000E+00 0. -1.
<mgrwt>
<rscale>  1 0.66866669E+02</rscale>
<asrwt>0</asrwt>
<pdfrwt beam="1">  1        2 0.65397639E-01 0.66866669E+02</pdfrwt>
<pdfrwt beam="2">  1       -1 0.26199604E-02 0.66866669E+02</pdfrwt>
<totfact> 0.33553074E+04</totfact>
</mgrwt>
</event>
<event>
 6    2  0.1063641E+001  0.8000045E+02  0.7546771E-02  0.1329050E+00
         -1   -1    0    0    0  501 -0.00000000000E+00  0.00000000000E+00  0.20613694448E+02  0.20613694448E+02  0.00000000000E+00 0.  1.
          2   -1    0    0  502    0  0.00000000000E+00 -0.00000000000E+00 -0.13476468557E+03  0.13476468557E+03  0.00000000000E+00 0. -1.
         24    2    1    2    0    0 -0.15866882110E+02  0.19825983576E+02 -0.87915847432E+02  0.11886659648E+03  0.75863324184E+02 0.  0.
        -13    1    3    3    0    0 -0.32655335944E+02  0.49330596585E+01 -0.55385584063E+01  0.33487037379E+02  0.00000000000E+00 0.  1.
         14    1    3    3    0    0  0.16788453834E+02  0.14892923918E+02 -0.82377289026E+02  0.85379559100E+02  0.00000000000E+00 0. -1.
         21    1    1    2  502  501  0.15866882110E+02 -0.19825983576E+02 -0.26235143690E+02  0.36511783538E+02  0.00000000000E+00 0.  1.
<mgrwt>
<rscale>  1 0.80000447E+02</rscale>
<asrwt>0</asrwt>
<pdfrwt beam="1">  1        2 0.20733029E-01 0.80000447E+02</pdfrwt>
<pdfrwt beam="2">  1       -1 0.31713375E-02 0.80000447E+02</pdfrwt>
<totfact> 0.88079941E+04</totfact>
</mgrwt>
</event>
<event>
 6    2  0.1063641E+001  0.8576487E+02  0.7546771E-02  0.1313444E+00
         -1   -1    0    0    0  501 -0.00000000000E+00  0.00000000000E+00  0.11229895018E+02  0.11229895018E+02  0.00000000000E+00 0.  1.
          2   -1    0    0  502    0  0.00000000000E+00 -0.00000000000E+00 -0.26482892553E+03  0.26482892553E+03  0.00000000000E+00 0. -1.
         24    2    1    2    0    0  0.13878328661E+02  0.14820783707E+02 -0.17509385431E+03  0.19497043466E+03  0.83326760027E+02 0.  0.
        -13    1    3    3    0    0 -0.13428048065E+02  0.97946100448E+01  0.10480276776E+01  0.16653684961E+02  0.00000000000E+00 0.  1.
         14    1    3    3    0    0  0.27306376726E+02  0.50261736620E+01 -0.17614188199E+03  0.17831674970E+03  0.00000000000E+00 0. -1.
         21    1    1    2  502  501 -0.13878328661E+02 -0.14820783707E+02 -0.78505176199E+02  0.81088385890E+02  0.00000000000E+00 0. -1.
<mgrwt>
<rscale>  1 0.85764868E+02</rscale>
<asrwt>0</asrwt>
<pdfrwt beam="1">  1        2 0.40742906E-01 0.85764868E+02</pdfrwt>
<pdfrwt beam="2">  1       -1 0.17276764E-02 0.85764868E+02</pdfrwt>
<totfact> 0.10275740E+05</totfact>
</mgrwt>
</event>
<event>
 6    2  0.1063641E+001  0.8161245E+02  0.7546771E-02  0.1324537E+00
         -1   -1    0    0    0  501 -0.00000000000E+00  0.00000000000E+00  0.93301466204E+01  0.93301466204E+01  0.00000000000E+00 0.  1.
          2   -1    0    0  502    0  0.00000000000E+00 -0.00000000000E+00 -0.16432402612E+04  0.16432402612E+04  0.00000000000E+00 0. -1.
         24    2    1    2    0    0  0.21118080751E+02  0.99569773108E+01 -0.17103246163E+03  0.18950645084E+03  0.78201516897E+02 0.  0.
        -11    1    3    3    0    0  0.42027196745E+02  0.80722944009E+01 -0.46415841218E+02  0.63133806468E+02  0.00000000000E+00 0.  1.
         12    1    3    3    0    0 -0.20909115995E+02  0.18846829098E+01 -0.12461662041E+03  0.12637264437E+03  0.00000000000E+00 0. -1.
         21    1    1    2  502  501 -0.21118080751E+02 -0.99569773108E+01 -0.14628776530E+04  0.14630639570E+04  0.00000000000E+00 0.  1.
<mgrwt>
<rscale>  1 0.81612450E+02</rscale>
<asrwt>0</asrwt>
<pdfrwt beam="1">  1        2 0.25280592E+00 0.81612450E+02</pdfrwt>
<pdfrwt beam="2">  1       -1 0.14354087E-02 0.81612450E+02</pdfrwt>
<totfact> 0.13717080E+04</totfact>
</mgrwt>
</event>
<event>
 6    2  0.1063641E+001  0.8611757E+02  0.7546771E-02  0.1312536E+00
          2   -1    0    0  502    0  0.00000000000E+00  0.00000000000E+00  0.19568602280E+03  0.19568602280E+03  0.00000000000E+00 0. -1.
         -1   -1    0    0    0  501 -0.00000000000E+00 -0.00000000000E+00 -0.80947344988E+02  0.80947344988E+02  0.00000000000E+00 0.  1.
         24    2    1    2    0    0  0.21307002526E+02 -0.18300841828E+02 -0.56570938266E+02  0.10303643887E+03  0.81408399509E+02 0.  0.
        -11    1    3    3    0    0  0.49775974796E+02 -0.21662933186E+02 -0.49603000431E+02  0.73534944026E+02  0.00000000000E+00 0.  1.
         12    1    3    3    0    0 -0.28468972271E+02  0.33620913582E+01 -0.69679378360E+01  0.29501494846E+02  0.00000000000E+00 0. -1.
         21    1    1    2  502  501 -0.21307002526E+02  0.18300841828E+02  0.17130961608E+03  0.17359692892E+03  0.00000000000E+00 0. -1.
<mgrwt>
<rscale>  1 0.86117575E+02</rscale>
<asrwt>0</asrwt>
<pdfrwt beam="1">  1        2 0.30105542E-01 0.86117575E+02</pdfrwt>
<pdfrwt beam="2">  1       -1 0.12453438E-01 0.86117575E+02</pdfrwt>
<totfact> 0.78718546E+03</totfact>
</mgrwt>
</event>
<event>
 6    2  0.1063641E+001  0.8364286E+02  0.7546771E-02  0.1319020E+00
         -1   -1    0    0    0  501 -0.00000000000E+00  0.00000000000E+00  0.69284034287E+03  0.69284034287E+03  0.00000000000E+00 0.  1.
          2   -1    0    0  502    0  0.00000000000E+00 -0.00000000000E+00 -0.45881194400E+01  0.45881194400E+01  0.00000000000E+00 0. -1.
         24    2    1    2    0    0  0.24995843982E+01 -0.21803152787E+02  0.62287963593E+03  0.62847049983E+03  0.80712470539E+02 0.  0.
        -13    1    3    3    0    0  0.13023574775E+02 -0.49721094682E+02  0.46175419127E+03  0.46460599857E+03  0.00000000000E+00 0.  1.
         14    1    3    3    0    0 -0.10523990377E+02  0.27917941895E+02  0.16112544466E+03  0.16386450125E+03  0.00000000000E+00 0. -1.
         21    1    1    2  502  501 -0.24995843982E+01  0.21803152787E+02  0.65372587500E+02  0.68957962485E+02  0.00000000000E+00 0. -1.
<mgrwt>
<rscale>  1 0.83642862E+02</rscale>
<asrwt>0</asrwt>
<pdfrwt beam="1">  1        2 0.70586508E-03 0.83642862E+02</pdfrwt>
<pdfrwt beam="2">  1       -1 0.10659074E+00 0.83642862E+02</pdfrwt>
<totfact> 0.20657566E+04</totfact>
</mgrwt>
</event>
<event>
 6    2  0.1063641E+001  0.8643010E+02  0.7546771E-02  0.1311734E+00
         -1   -1    0    0    0  501 -0.00000000000E+00  0.00000000000E+00  0.72309250807E+01  0.72309250807E+01  0.00000000000E+00 0.  1.
          2   -1    0    0  502    0  0.00000000000E+00 -0.00000000000E+00 -0.61940964753E+03  0.61940964753E+03  0.00000000000E+00 0. -1.
         24    2    1    2    0    0 -0.12307567951E+02 -0.25120991499E+02 -0.27403845142E+03  0.28734515069E+03  0.81777884095E+02 0.  0.
        -13    1    3    3    0    0 -0.11035749400E+02 -0.13358940247E+02 -0.49833226565E+01  0.18030045869E+02  0.00000000000E+00 0.  1.
         14    1    3    3    0    0 -0.12718185509E+01 -0.11762051251E+02 -0.26905512876E+03  0.26931510482E+03  0.00000000000E+00 0. -1.
         21    1    1    2  502  501  0.12307567951E+02  0.25120991499E+02 -0.33814027103E+03  0.33929542192E+03  0.00000000000E+00 0. -1.
<mgrwt>
<rscale>  1 0.86430103E+02</rscale>
<asrwt>0</asrwt>
<pdfrwt beam="1">  1        2 0.95293778E-01 0.86430103E+02</pdfrwt>
<pdfrwt beam="2">  1       -1 0.11124502E-02 0.86430103E+02</pdfrwt>
<totfact> 0.77719912E+04</totfact>
</mgrwt>
</event>
<event>
 6    2  0.1063641E+001  0.1121655E+03  0.7546771E-02  0.1256611E+00
         -3   -1    0    0    0  501 -0.00000000000E+00  0.00000000000E+00  0.20942304097E+04  0.20942304097E+04  0.00000000000E+00 0.  1.
          4   -1    0    0  502    0  0.00000000000E+00 -0.00000000000E+00 -0.61532022949E+01  0.61532022949E+01  0.00000000000E+00 0. -1.
         24    2    1    2    0    0  0.42346679549E+02  0.68432568964E+02  0.17179968154E+04  0.17216544815E+04  0.78133463173E+02 0.  0.
        -11    1    3    3    0    0  0.20466251917E+02  0.71756029060E+02  0.15906266331E+04  0.15923758605E+04  0.00000000000E+00 0.  1.
         12    1    3    3    0    0  0.21880427632E+02 -0.33234600957E+01  0.12737018235E+03  0.12927862102E+03  0.00000000000E+00 0. -1.
         21    1    1    2  502  501 -0.42346679549E+02 -0.68432568964E+02  0.37008039202E+03  0.37872913054E+03  0.00000000000E+00 0. -1.
<mgrwt>
<rscale>  1 0.11216548E+03</rscale>
<asrwt>0</asrwt>
<pdfrwt beam="1">  1        4 0.94664817E-03 0.11216548E+03</pdfrwt>
<pdfrwt beam="2">  1       -3 0.32218873E+00 0.11216548E+03</pdfrwt>
<totfact> 0.21429168E+02</totfact>
</mgrwt>
</event>
<event>
 6    2  0.1063641E+001  0.1116704E+03  0.7546771E-02  0.1257507E+00
         -1   -1    0    0    0  501 -0.00000000000E+00  0.00000000000E+00  0.14649682875E+03  0.14649682875E+03  0.00000000000E+00 0.  1.
          2   -1    0    0  502    0  0.00000000000E+00 -0.00000000000E+00 -0.71861884259E+02  0.71861884259E+02  0.00000000000E+00 0. -1.
         24    2    1    2    0    0 -0.65949668859E+02 -0.42196271717E+02  0.83680041789E+02  0.13954438718E+03  0.79626643978E+02 0.  0.
        -11    1    3    3    0    0 -0.70051728573E+02 -0.21441130918E+02  0.91299114472E+02  0.11705765705E+03  0.00000000000E+00 0.  1.
         12    1    3    3    0    0  0.41020597140E+01 -0.20755140799E+02 -0.76190726830E+01  0.22486730132E+02  0.00000000000E+00 0. -1.
         21    1    1    2  502  501  0.65949668859E+02  0.42196271717E+02 -0.90450973021E+01  0.78814325821E+02  0.00000000000E+00 0.  1.
<mgrwt>
<rscale>  1 0.11167044E+03</rscale>
<asrwt>0</asrwt>
<pdfrwt beam="1">  1        2 0.11055675E-01 0.11167044E+03</pdfrwt>
<pdfrwt beam="2">  1       -1 0.22537974E-01 0.11167044E+03</pdfrwt>
<totfact> 0.98749915E+03</totfact>
</mgrwt>
</event>
<event>
 6    2  0.1063641E+001  0.9344408E+02  0.7546771E-02  0.1294719E+00
         -1   -1    0    0    0  501 -0.00000000000E+00  0.00000000000E+00  0.32902917019E+01  0.32902917019E+01  0.00000000000E+00 0.  1.
          2   -1    0    0  502    0  0.00000000000E+00 -0.00000000000E+00 -0.12541235202E+04  0.12541235202E+04  0.00000000000E+00 0. -1.
         24    2    1    2    0    0  0.15185460832E+02  0.30203822754E+02 -0.83627651082E+03  0.84148095518E+03  0.87114443407E+02 0.  0.
        -13    1    3    3    0    0 -0.17168695621E+02  0.35302374909E+02 -0.17307150721E+03  0.17746765449E+03  0.00000000000E+00 0.  1.
         14    1    3    3    0    0  0.32354156452E+02 -0.50985521544E+01 -0.66320500361E+03  0.66401330069E+03  0.00000000000E+00 0. -1.
         21    1    1    2  502  501 -0.15185460832E+02 -0.30203822754E+02 -0.41455671771E+03  0.41593285676E+03  0.00000000000E+00 0. -1.
<mgrwt>
<rscale>  1 0.93444076E+02</rscale>
<asrwt>0</asrwt>
<pdfrwt beam="1">  1        2 0.19294196E+00 0.93444076E+02</pdfrwt>
<pdfrwt beam="2">  1       -1 0.50619904E-03 0.93444076E+02</pdfrwt>
<totfact> 0.95411883E+04</totfact>
</mgrwt>
</event>
<event>
 6    2  0.1063641E+001  0.8512778E+02  0.7546771E-02  0.1315099E+00
          2   -1    0    0  502    0  0.00000000000E+00  0.00000000000E+00  0.85404992535E+03  0.85404992535E+03  0.00000000000E+00 0. -1.
         -1   -1    0    0    0  501 -0.00000000000E+00 -0.00000000000E+00 -0.37591499294E+01  0.37591499294E+01  0.00000000000E+00 0.  1.
         24    2    1    2    0    0 -0.11054397517E+02  0.25756186950E+02  0.61896708394E+03  0.62479355839E+03  0.80381333248E+02 0.  0.
        -13    1    3    3    0    0 -0.32862954363E+02 -0.99957870265E+01  0.14645409488E+03  0.15042835981E+03  0.00000000000E+00 0.  1.
         14    1    3    3    0    0  0.21808556847E+02  0.35751973977E+02  0.47251298906E+03  0.47436519858E+03  0.00000000000E+00 0. -1.
         21    1    1    2  502  501  0.11054397517E+02 -0.25756186950E+02  0.23132369147E+03  0.23301551688E+03  0.00000000000E+00 0.  1.
<mgrwt>
<rscale>  1 0.85127784E+02</rscale>
<asrwt>0</asrwt>
<pdfrwt beam="1">  1        2 0.13139214E+00 0.85127784E+02</pdfrwt>
<pdfrwt beam="2">  1       -1 0.57833144E-03 0.85127784E+02</pdfrwt>
<totfact> 0.13298985E+05</totfact>
</mgrwt>
</event>
<event>
 6    2  0.1063641E+001  0.1054761E+03  0.7546771E-02  0.1269184E+00
         -1   -1    0    0    0  501 -0.00000000000E+00  0.00000000000E+00  0.24150171863E+02  0.24150171863E+02  0.00000000000E+00 0.  1.
          2   -1    0    0  502    0  0.00000000000E+00 -0.00000000000E+00 -0.27648830984E+03  0.27648830984E+03  0.00000000000E+00 0. -1.
         24    2    1    2    0    0  0.30485400924E+02  0.43180996144E+02 -0.13026704960E+03  0.16761476684E+03  0.91275669021E+02 0.  0.
        -13    1    3    3    0    0  0.10525009110E+02 -0.18969381444E+02  0.23779097685E+00  0.21694925529E+02  0.00000000000E+00 0.  1.
         14    1    3    3    0    0  0.19960391814E+02  0.62150377587E+02 -0.13050484057E+03  0.14591984131E+03  0.00000000000E+00 0. -1.
         21    1    1    2  502  501 -0.30485400924E+02 -0.43180996144E+02 -0.12207108838E+03  0.13302371486E+03  0.00000000000E+00 0.  1.
<mgrwt>
<rscale>  1 0.10547609E+03</rscale>
<asrwt>0</asrwt>
<pdfrwt beam="1">  1        2 0.42536662E-01 0.10547609E+03</pdfrwt>
<pdfrwt beam="2">  1       -1 0.37154112E-02 0.10547609E+03</pdfrwt>
<totfact> 0.33607602E+04</totfact>
</mgrwt>
</event>
<event>
 6    2  0.1063641E+001  0.8307662E+02  0.7546771E-02  0.1320540E+00
          2   -1    0    0  502    0  0.00000000000E+00  0.00000000000E+00  0.28788382643E+03  0.28788382643E+03  0.00000000000E+00 0. -1.
         -1   -1    0    0    0  501 -0.00000000000E+00 -0.00000000000E+00 -0.93254781314E+01  0.93254781314E+01  0.00000000000E+00 0.  1.
         24    2    1    2    0    0 -0.27088925857E+01 -0.20183478091E+02  0.21632600422E+03  0.23172972350E+03  0.80541999996E+02 0.  0.
        -13    1    3    3    0    0 -0.18004961329E+02 -0.47841004074E+02  0.12306938431E+03  0.13326294931E+03  0.00000000000E+00 0.  1.
         14    1    3    3    0    0  0.15296068743E+02  0.27657525984E+02  0.93256619911E+02  0.98466774192E+02  0.00000000000E+00 0. -1.
         21    1    1    2  502  501  0.27088925857E+01  0.20183478091E+02  0.62232344079E+02  0.65479581065E+02  0.00000000000E+00 0. -1.
<mgrwt>
<rscale>  1 0.83076619E+02</rscale>
<asrwt>0</asrwt>
<pdfrwt beam="1">  1        2 0.44289813E-01 0.83076619E+02</pdfrwt>
<pdfrwt beam="2">  1       -1 0.14346892E-02 0.83076619E+02</pdfrwt>
<totfact> 0.12196061E+05</totfact>
</mgrwt>
</event>
<event>
 6    2  0.1063641E+001  0.1358823E+03  0.7546771E-02  0.1218980E+00
          2   -1    0    0  502    0  0.00000000000E+00  0.00000000000E+00  0.96151735659E+03  0.96151735659E+03  0.00000000000E+00 0. -1.
         -1   -1    0    0    0  501 -0.00000000000E+00 -0.00000000000E+00 -0.22901586108E+02  0.22901586108E+02  0.00000000000E+00 0.  1.
         24    2    1    2    0    0  0.10725103542E+03  0.15721197906E+02  0.22674905053E+03  0.26434660769E+03  0.81939345989E+02 0.  0.
        -11    1    3    3    0    0  0.10345183162E+02  0.27054516549E+02  0.18482832609E+02  0.34359638845E+02  0.00000000000E+00 0.  1.
         12    1    3    3    0    0  0.96905852257E+02 -0.11333318642E+02  0.20826621792E+03  0.22998696885E+03  0.00000000000E+00 0. -1.
         21    1    1    2  502  501 -0.10725103542E+03 -0.15721197906E+02  0.71186671995E+03  0.72007233500E+03  0.00000000000E+00 0.  1.
<mgrwt>
<rscale>  1 0.13588229E+03</rscale>
<asrwt>0</asrwt>
<pdfrwt beam="1">  1        2 0.14792572E+00 0.13588229E+03</pdfrwt>
<pdfrwt beam="2">  1       -1 0.35233217E-02 0.13588229E+03</pdfrwt>
<totfact> 0.90618417E+03</totfact>
</mgrwt>
</event>
<event>
 6    2  0.1063641E+001  0.9692914E+02  0.7546771E-02  0.1286889E+00
          2   -1    0    0  502    0  0.00000000000E+00  0.00000000000E+00  0.96267452272E+03  0.96267452272E+03  0.00000000000E+00 0. -1.
         -1   -1    0    0    0  501 -0.00000000000E+00 -0.00000000000E+00 -0.71643571464E+01  0.71643571464E+01  0.00000000000E+00 0.  1.
         24    2    1    2    0    0 -0.23072945079E+01 -0.45623855150E+02  0.36786280808E+03  0.38041859134E+03  0.85489176485E+02 0.  0.
        -11    1    3    3    0    0 -0.22255181307E+01 -0.49035591358E+02  0.89842401840E+02  0.10237724024E+03  0.00000000000E+00 0.  1.
         12    1    3    3    0    0 -0.81776377198E-01  0.34117362082E+01  0.27802040624E+03  0.27804135110E+03  0.00000000000E+00 0. -1.
         21    1    1    2  502  501  0.23072945079E+01  0.45623855150E+02  0.58764735749E+03  0.58942028853E+03  0.00000000000E+00 0. -1.
<mgrwt>
<rscale>  1 0.96929145E+02</rscale>
<asrwt>0</asrwt>
<pdfrwt beam="1">  1        2 0.14810367E+00 0.96929145E+02</pdfrwt>
<pdfrwt beam="2">  1       -1 0.11022096E-02 0.96929145E+02</pdfrwt>
<totfact> 0.46772126E+04</totfact>
</mgrwt>
</event>
<event>
 6    2  0.1063641E+001  0.9637984E+02  0.7546771E-02  0.1288098E+00
          2   -1    0    0  502    0  0.00000000000E+00  0.00000000000E+00  0.13503403637E+04  0.13503403637E+04  0.00000000000E+00 0. -1.
         -1   -1    0    0    0  501 -0.00000000000E+00 -0.00000000000E+00 -0.49853943633E+01  0.49853943633E+01  0.00000000000E+00 0.  1.
         24    2    1    2    0    0  0.52801939611E+02  0.29961411228E+01  0.56339742712E+03  0.57158178232E+03  0.80573266681E+02 0.  0.
        -11    1    3    3    0    0  0.60962701321E+02  0.13763499805E+02  0.24327763791E+03  0.25117701723E+03  0.00000000000E+00 0.  1.
         12    1    3    3    0    0 -0.81607617101E+01 -0.10767358682E+02  0.32011978922E+03  0.32040476509E+03  0.00000000000E+00 0. -1.
         21    1    1    2  502  501 -0.52801939611E+02 -0.29961411228E+01  0.78195754226E+03  0.78374397578E+03  0.00000000000E+00 0. -1.
<mgrwt>
<rscale>  1 0.96379837E+02</rscale>
<asrwt>0</asrwt>
<pdfrwt beam="1">  1        2 0.20774438E+00 0.96379837E+02</pdfrwt>
<pdfrwt beam="2">  1       -1 0.76698482E-03 0.96379837E+02</pdfrwt>
<totfact> 0.47500831E+04</totfact>
</mgrwt>
</event>
<event>
 6    2  0.1063641E+001  0.8718016E+02  0.7546771E-02  0.1309828E+00
         -1   -1    0    0    0  501 -0.00000000000E+00  0.00000000000E+00  0.25220973101E+01  0.25220973101E+01  0.00000000000E+00 0.  1.
          2   -1    0    0  502    0  0.00000000000E+00 -0.00000000000E+00 -0.14964463795E+04  0.14964463795E+04  0.00000000000E+00 0. -1.
         24    2    1    2    0    0 -0.27027953099E+02 -0.21621532808E+02 -0.97426696456E+03  0.97815975118E+03  0.80014871490E+02 0.  0.
        -11    1    3    3    0    0  0.16944642562E+02  0.19404540202E+02 -0.37457775125E+03  0.37546257979E+03  0.00000000000E+00 0.  1.
         12    1    3    3    0    0 -0.43972595660E+02 -0.41026073010E+02 -0.59968921332E+03  0.60269717139E+03  0.00000000000E+00 0. -1.
         21    1    1    2  502  501  0.27027953099E+02  0.21621532808E+02 -0.51965731763E+03  0.52080872563E+03  0.00000000000E+00 0.  1.
<mgrwt>
<rscale>  1 0.87180162E+02</rscale>
<asrwt>0</asrwt>
<pdfrwt beam="1">  1        2 0.23022230E+00 0.87180162E+02</pdfrwt>
<pdfrwt beam="2">  1       -1 0.38801535E-03 0.87180162E+02</pdfrwt>
<totfact> 0.10255738E+05</totfact>
</mgrwt>
</event>
<event>
 6    2  0.1063641E+001  0.8400130E+02  0.7546771E-02  0.1318065E+00
          2   -1    0    0  502    0  0.00000000000E+00  0.00000000000E+00  0.55799978015E+01  0.55799978015E+01  0.00000000000E+00 0. -1.
         -1   -1    0    0    0  501 -0.00000000000E+00 -0.00000000000E+00 -0.56258725251E+03  0.56258725251E+03  0.00000000000E+00 0.  1.
         24    2    1    2    0    0 -0.19534539045E+02 -0.11359881470E+02 -0.49694658740E+03  0.50399615962E+03  0.80904715949E+02 0.  0.
        -13    1    3    3    0    0  0.16299132309E+02  0.96273230217E+01 -0.36887020485E+03  0.36935562144E+03  0.00000000000E+00 0.  1.
         14    1    3    3    0    0 -0.35833671355E+02 -0.20987204492E+02 -0.12807638255E+03  0.13464053818E+03  0.00000000000E+00 0. -1.
         21    1    1    2  502  501  0.19534539045E+02  0.11359881470E+02 -0.60060667315E+02  0.64171090695E+02  0.00000000000E+00 0.  1.
<mgrwt>
<rscale>  1 0.84001299E+02</rscale>
<asrwt>0</asrwt>
<pdfrwt beam="1">  1        2 0.85846155E-03 0.84001299E+02</pdfrwt>
<pdfrwt beam="2">  1       -1 0.86551849E-01 0.84001299E+02</pdfrwt>
<totfact> 0.24703883E+04</totfact>
</mgrwt>
</event>
<event>
 6    2  0.1063641E+001  0.8651027E+02  0.7546771E-02  0.1311530E+00
         -1   -1    0    0    0  501 -0.00000000000E+00  0.00000000000E+00  0.37898816291E+01  0.37898816291E+01  0.00000000000E+00 0.  1.
          2   -1    0    0  502    0  0.00000000000E+00 -0.00000000000E+00 -0.17994297130E+04  0.17994297130E+04  0.00000000000E+00 0. -1.
         24    2    1    2    0    0  0.29087192499E+02 -0.66926068132E+00 -0.51251904006E+03  0.51976898094E+03  0.81470942359E+02 0.  0.
        -13    1    3    3    0    0  0.75842166225E+01  0.30391629663E+02 -0.85066653751E+02  0.90650466495E+02  0.00000000000E+00 0.  1.
         14    1    3    3    0    0  0.21502975877E+02 -0.31060890345E+02 -0.42745238631E+03  0.42911851445E+03  0.00000000000E+00 0. -1.
         21    1    1    2  502  501 -0.29087192499E+02  0.66926068132E+00 -0.12831207913E+04  0.12834506137E+04  0.00000000000E+00 0. -1.
<mgrwt>
<rscale>  1 0.86510272E+02</rscale>
<asrwt>0</asrwt>
<pdfrwt beam="1">  1        2 0.27683608E+00 0.86510272E+02</pdfrwt>
<pdfrwt beam="2">  1       -1 0.58305715E-03 0.86510272E+02</pdfrwt>
<totfact> 0.40835694E+04</totfact>
</mgrwt>
</event>
<event>
 6    2  0.1063641E+001  0.9758692E+02  0.7546771E-02  0.1285454E+00
          2   -1    0    0  502    0  0.00000000000E+00  0.00000000000E+00  0.17458702148E+03  0.17458702148E+03  0.00000000000E+00 0. -1.
         -1   -1    0    0    0  501 -0.00000000000E+00 -0.00000000000E+00 -0.33631118273E+02  0.33631118273E+02  0.00000000000E+00 0.  1.
         24    2    1    2    0    0  0.48891914231E+02  0.22451936635E+02  0.74853555958E+02  0.12298886633E+03  0.81416814398E+02 0.  0.
        -11    1    3    3    0    0  0.46095660735E+02  0.26154510928E+02  0.52803910628E+01  0.53261157612E+02  0.00000000000E+00 0.  1.
         12    1    3    3    0    0  0.27962534960E+01 -0.37025742921E+01  0.69573164895E+02  0.69727708722E+02  0.00000000000E+00 0. -1.
         21    1    1    2  502  501 -0.48891914231E+02 -0.22451936635E+02  0.66102347252E+02  0.85229273422E+02  0.00000000000E+00 0. -1.
<mgrwt>
<rscale>  1 0.97586917E+02</rscale>
<asrwt>0</asrwt>
<pdfrwt beam="1">  1        2 0.26859541E-01 0.97586917E+02</pdfrwt>
<pdfrwt beam="2">  1       -1 0.51740183E-02 0.97586917E+02</pdfrwt>
<totfact> 0.33489578E+04</totfact>
</mgrwt>
</event>
<event>
 6    2  0.1063641E+001  0.8689620E+02  0.7546771E-02  0.1310547E+00
         -1   -1    0    0    0  501 -0.00000000000E+00  0.00000000000E+00  0.12482890201E+04  0.12482890201E+04  0.00000000000E+00 0.  1.
          2   -1    0    0  502    0  0.00000000000E+00 -0.00000000000E+00 -0.28737653300E+01  0.28737653300E+01  0.00000000000E+00 0. -1.
         24    2    1    2    0    0  0.28313887844E+02 -0.15661039365E+02  0.95755516400E+03  0.96148990742E+03  0.80647415087E+02 0.  0.
        -13    1    3    3    0    0  0.41498373770E+02 -0.17368722652E+02  0.92791356809E+03  0.92900343239E+03  0.00000000000E+00 0.  1.
         14    1    3    3    0    0 -0.13184485926E+02  0.17076832865E+01  0.29641595916E+02  0.32486475029E+02  0.00000000000E+00 0. -1.
         21    1    1    2  502  501 -0.28313887844E+02  0.15661039365E+02  0.28786009073E+03  0.28967287797E+03  0.00000000000E+00 0. -1.
<mgrwt>
<rscale>  1 0.86896202E+02</rscale>
<asrwt>0</asrwt>
<pdfrwt beam="1">  1        2 0.44211874E-03 0.86896202E+02</pdfrwt>
<pdfrwt beam="2">  1       -1 0.19204403E+00 0.86896202E+02</pdfrwt>
<totfact> 0.89236316E+03</totfact>
</mgrwt>
</event>
<event>
 6    2  0.1063641E+001  0.9364031E+02  0.7546771E-02  0.1294268E+00
          2   -1    0    0  502    0  0.00000000000E+00  0.00000000000E+00  0.14526787434E+04  0.14526787434E+04  0.00000000000E+00 0. -1.
         -1   -1    0    0    0  501 -0.00000000000E+00 -0.00000000000E+00 -0.35000097027E+01  0.35000097027E+01  0.00000000000E+00 0.  1.
         24    2    1    2    0    0 -0.16870034374E+02 -0.37322236812E+02  0.75364477123E+03  0.75943989214E+03  0.84207845010E+02 0.  0.
        -13    1    3    3    0    0 -0.10014988098E+02  0.22186794165E+02  0.94721793348E+02  0.97799652131E+02  0.00000000000E+00 0.  1.
         14    1    3    3    0    0 -0.68550462758E+01 -0.59509030977E+02  0.65892297788E+03  0.66164024001E+03  0.00000000000E+00 0. -1.
         21    1    1    2  502  501  0.16870034374E+02  0.37322236812E+02  0.69553396244E+03  0.69673886093E+03  0.00000000000E+00 0.  1.
<mgrwt>
<rscale>  1 0.93640315E+02</rscale>
<asrwt>0</asrwt>
<pdfrwt beam="1">  1        2 0.22348856E+00 0.93640315E+02</pdfrwt>
<pdfrwt beam="2">  1       -1 0.53846419E-03 0.93640315E+02</pdfrwt>
<totfact> 0.68869954E+04</totfact>
</mgrwt>
</event>
<event>
 6    2  0.1063641E+001  0.8540709E+02  0.7546771E-02  0.1314371E+00
         -1   -1    0    0    0  501 -0.00000000000E+00  0.00000000000E+00  0.33925197182E+01  0.33925197182E+01  0.00000000000E+00 0.  1.
          2   -1    0    0  502    0  0.00000000000E+00 -0.00000000000E+00 -0.12835379116E+04  0.12835379116E+04  0.00000000000E+00 0. -1.
         24    2    1    2    0    0 -0.10180292074E+02 -0.26276414304E+02 -0.58371313039E+03  0.58992829134E+03  0.80624326550E+02 0.  0.
        -11    1    3    3    0    0 -0.39067939754E+02 -0.35255041941E+02 -0.29722984342E+03  0.30185228460E+03  0.00000000000E+00 0.  1.
         12    1    3    3    0    0  0.28887647681E+02  0.89786276367E+01 -0.28648328697E+03  0.28807600674E+03  0.00000000000E+00 0. -1.
         21    1    1    2  502  501  0.10180292074E+02  0.26276414304E+02 -0.69643226146E+03  0.69700213995E+03  0.00000000000E+00 0. -1.
<mgrwt>
<rscale>  1 0.85407086E+02</rscale>
<asrwt>0</asrwt>
<pdfrwt beam="1">  1        2 0.19746782E+00 0.85407086E+02</pdfrwt>
<pdfrwt beam="2">  1       -1 0.52192492E-03 0.85407086E+02</pdfrwt>
<totfact> 0.87230370E+04</totfact>
</mgrwt>
</event>
<event>
 6    2  0.1063641E+001  0.8455497E+02  0.7546771E-02  0.1316600E+00
          2   -1    0    0  502    0  0.00000000000E+00  0.00000000000E+00  0.36578756358E+02  0.36578756358E+02  0.00000000000E+00 0. -1.
         -1   -1    0    0    0  501 -0.00000000000E+00 -0.00000000000E+00 -0.92258645100E+02  0.92258645100E+02  0.00000000000E+00 0.  1.
         24    2    1    2    0    0  0.12667122550E+02 -0.21642217004E+02 -0.59609708014E+02  0.10345463112E+03  0.80750862905E+02 0.  0.
        -13    1    3    3    0    0  0.29978011031E+02  0.20241951575E+02 -0.40411077926E+02  0.54235347958E+02  0.00000000000E+00 0.  1.
         14    1    3    3    0    0 -0.17310888481E+02 -0.41884168580E+02 -0.19198630087E+02  0.49219283161E+02  0.00000000000E+00 0. -1.
         21    1    1    2  502  501 -0.12667122550E+02  0.21642217004E+02  0.39298192723E+01  0.25382770339E+02  0.00000000000E+00 0.  1.
<mgrwt>
<rscale>  1 0.84554973E+02</rscale>
<asrwt>0</asrwt>
<pdfrwt beam="1">  1        2 0.56275009E-02 0.84554973E+02</pdfrwt>
<pdfrwt beam="2">  1       -1 0.14193638E-01 0.84554973E+02</pdfrwt>
<totfact> 0.45925835E+04</totfact>
</mgrwt>
</event>
<event>
 6    2  0.1063641E+001  0.8451531E+02  0.7546771E-02  0.1316705E+00
         -1   -1    0    0    0  501 -0.00000000000E+00  0.00000000000E+00  0.11155873635E+03  0.11155873635E+03  0.00000000000E+00 0.  1.
          2   -1    0    0  502    0  0.00000000000E+00 -0.00000000000E+00 -0.14197547145E+03  0.14197547145E+03  0.00000000000E+00 0. -1.
         24    2    1    2    0    0 -0.23450225389E+02 -0.14806004431E+02  0.93800248969E+02  0.12625895502E+03  0.79835494482E+02 0.  0.
        -13    1    3    3    0    0  0.16076423935E+02  0.20717769902E+02  0.53436331479E+02  0.59524103674E+02  0.00000000000E+00 0.  1.
         14    1    3    3    0    0 -0.39526649324E+02 -0.35523774333E+02  0.40363917490E+02  0.66734851351E+02  0.00000000000E+00 0. -1.
         21    1    1    2  502  501  0.23450225389E+02  0.14806004431E+02 -0.12421698407E+03  0.12727525278E+03  0.00000000000E+00 0. -1.
<mgrwt>
<rscale>  1 0.84515306E+02</rscale>
<asrwt>0</asrwt>
<pdfrwt beam="1">  1        2 0.21842380E-01 0.84515306E+02</pdfrwt>
<pdfrwt beam="2">  1       -1 0.17162883E-01 0.84515306E+02</pdfrwt>
<totfact> 0.67807696E+03</totfact>
</mgrwt>
</event>
<event>
 6    2  0.1063641E+001  0.8649439E+02  0.7546771E-02  0.1311570E+00
          2   -1    0    0  502    0  0.00000000000E+00  0.00000000000E+00  0.28012460465E+02  0.28012460465E+02  0.00000000000E+00 0. -1.
         -1   -1    0    0    0  501 -0.00000000000E+00 -0.00000000000E+00 -0.12157838596E+03  0.12157838596E+03  0.00000000000E+00 0.  1.
         24    2    1    2    0    0 -0.16396543012E+02 -0.12936226847E+02 -0.95220854564E+02  0.12864015722E+03  0.83935012471E+02 0.  0.
        -13    1    3    3    0    0  0.43043883803E+01  0.44234267026E+01 -0.10085403204E+03  0.10104271494E+03  0.00000000000E+00 0.  1.
         14    1    3    3    0    0 -0.20700931392E+02 -0.17359653550E+02  0.56331774811E+01  0.27597442280E+02  0.00000000000E+00 0. -1.
         21    1    1    2  502  501  0.16396543012E+02  0.12936226847E+02  0.16549290700E+01  0.20950689201E+02  0.00000000000E+00 0. -1.
<mgrwt>
<rscale>  1 0.86494387E+02</rscale>
<asrwt>0</asrwt>
<pdfrwt beam="1">  1        2 0.43096093E-02 0.86494387E+02</pdfrwt>
<pdfrwt beam="2">  1       -1 0.18704367E-01 0.86494387E+02</pdfrwt>
<totfact> 0.42267748E+04</totfact>
</mgrwt>
</event>
<event>
 6    2  0.1063641E+001  0.8598962E+02  0.7546771E-02  0.1312865E+00
          4   -1    0    0  502    0  0.00000000000E+00  0.00000000000E+00  0.28082165731E+03  0.28082165731E+03  0.00000000000E+00 0. -1.
         -3   -1    0    0    0  501 -0.00000000000E+00 -0.00000000000E+00 -0.12641398337E+02  0.12641398337E+02  0.00000000000E+00 0.  1.
         24    2    1    2    0    0 -0.22895870668E+02 -0.22531641493E+02  0.17682775395E+03  0.19662723616E+03  0.79764150285E+02 0.  0.
        -11    1    3    3    0    0 -0.32453760173E+02  0.83331083621E+01  0.26091974857E+02  0.42467380379E+02  0.00000000000E+00 0.  1.
         12    1    3    3    0    0  0.95578895053E+01 -0.30864749855E+02  0.15073577909E+03  0.15415985578E+03  0.00000000000E+00 0. -1.
         21    1    1    2  502  501  0.22895870668E+02  0.22531641493E+02  0.91352505027E+02  0.96835819492E+02  0.00000000000E+00 0. -1.
<mgrwt>
<rscale>  1 0.85989624E+02</rscale>
<asrwt>0</asrwt>
<pdfrwt beam="1">  1        4 0.43203327E-01 0.85989624E+02</pdfrwt>
<pdfrwt beam="2">  1       -3 0.19448307E-02 0.85989624E+02</pdfrwt>
<totfact> 0.88401989E+03</totfact>
</mgrwt>
</event>
<event>
 6    2  0.1063641E+001  0.8261517E+02  0.7546771E-02  0.1321790E+00
          2   -1    0    0  502    0  0.00000000000E+00  0.00000000000E+00  0.28372078697E+02  0.28372078697E+02  0.00000000000E+00 0. -1.
         -1   -1    0    0    0  501 -0.00000000000E+00 -0.00000000000E+00 -0.12262739955E+03  0.12262739955E+03  0.00000000000E+00 0.  1.
         24    2    1    2    0    0  0.24922534771E+02  0.21017714287E+02 -0.51956761068E+02  0.97594935245E+02  0.75910403184E+02 0.  0.
        -11    1    3    3    0    0  0.46338939044E+01  0.43901774929E+02 -0.50360782505E+02  0.66970495214E+02  0.00000000000E+00 0.  1.
         12    1    3    3    0    0  0.20288640867E+02 -0.22884060642E+02 -0.15959785628E+01  0.30624440032E+02  0.00000000000E+00 0. -1.
         21    1    1    2  502  501 -0.24922534771E+02 -0.21017714287E+02 -0.42298559784E+02  0.53404543000E+02  0.00000000000E+00 0.  1.
<mgrwt>
<rscale>  1 0.82615170E+02</rscale>
<asrwt>0</asrwt>
<pdfrwt beam="1">  1        2 0.43649351E-02 0.82615170E+02</pdfrwt>
<pdfrwt beam="2">  1       -1 0.18865754E-01 0.82615170E+02</pdfrwt>
<totfact> 0.40751060E+04</totfact>
</mgrwt>
</event>
<event>
 6    2  0.1063641E+001  0.8622768E+02  0.7546771E-02  0.1312253E+00
         -1   -1    0    0    0  501 -0.00000000000E+00  0.00000000000E+00  0.20578260601E+03  0.20578260601E+03  0.00000000000E+00 0.  1.
          2   -1    0    0  502    0  0.00000000000E+00 -0.00000000000E+00 -0.21241063799E+02  0.21241063799E+02  0.00000000000E+00 0. -1.
         24    2    1    2    0    0 -0.12326219147E+02 -0.21695975342E+02  0.18267210111E+03  0.20200076361E+03  0.82538239325E+02 0.  0.
        -11    1    3    3    0    0 -0.31703531999E+02  0.17847860377E+02  0.12007543070E+03  0.12546620708E+03  0.00000000000E+00 0.  1.
         12    1    3    3    0    0  0.19377312853E+02 -0.39543835720E+02  0.62596670404E+02  0.76534556525E+02  0.00000000000E+00 0. -1.
         21    1    1    2  502  501  0.12326219147E+02  0.21695975342E+02  0.18694411006E+01  0.25022906197E+02  0.00000000000E+00 0. -1.
<mgrwt>
<rscale>  1 0.86227675E+02</rscale>
<asrwt>0</asrwt>
<pdfrwt beam="1">  1        2 0.32678561E-02 0.86227675E+02</pdfrwt>
<pdfrwt beam="2">  1       -1 0.31658861E-01 0.86227675E+02</pdfrwt>
<totfact> 0.25884893E+04</totfact>
</mgrwt>
</event>
<event>
 6    2  0.1063641E+001  0.9594150E+02  0.7546771E-02  0.1289070E+00
          2   -1    0    0  502    0  0.00000000000E+00  0.00000000000E+00  0.66799158583E+03  0.66799158583E+03  0.00000000000E+00 0. -1.
         -1   -1    0    0    0  501 -0.00000000000E+00 -0.00000000000E+00 -0.23877711954E+02  0.23877711954E+02  0.00000000000E+00 0.  1.
         24    2    1    2    0    0 -0.49978336268E+02 -0.14418315371E+02  0.78762977022E+02  0.12413048593E+03  0.80616679869E+02 0.  0.
        -13    1    3    3    0    0 -0.11062013495E+02  0.31516748904E+02  0.15577531614E+02  0.36855570749E+02  0.00000000000E+00 0.  1.
         14    1    3    3    0    0 -0.38916322772E+02 -0.45935064275E+02  0.63185445408E+02  0.87274915179E+02  0.00000000000E+00 0. -1.
         21    1    1    2  502  501  0.49978336268E+02  0.14418315371E+02  0.56535089686E+03  0.56773881186E+03  0.00000000000E+00 0. -1.
<mgrwt>
<rscale>  1 0.95941498E+02</rscale>
<asrwt>0</asrwt>
<pdfrwt beam="1">  1        2 0.10276792E+00 0.95941498E+02</pdfrwt>
<pdfrwt beam="2">  1       -1 0.36734947E-02 0.95941498E+02</pdfrwt>
<totfact> 0.13092100E+04</totfact>
</mgrwt>
</event>
<event>
 6    2  0.1063641E+001  0.8752207E+02  0.7546771E-02  0.1308966E+00
          2   -1    0    0  502    0  0.00000000000E+00  0.00000000000E+00  0.83432874536E+02  0.83432874536E+02  0.00000000000E+00 0. -1.
         -1   -1    0    0    0  501 -0.00000000000E+00 -0.00000000000E+00 -0.50459565716E+02  0.50459565716E+02  0.00000000000E+00 0.  1.
         24    2    1    2    0    0  0.24025503535E+02 -0.21812151854E+02 -0.15077048502E+00  0.87522197440E+02  0.81284177577E+02 0.  0.
        -11    1    3    3    0    0  0.48228760400E+02 -0.76055344242E+01 -0.20399820601E+02  0.52915122263E+02  0.00000000000E+00 0.  1.
         12    1    3    3    0    0 -0.24203256865E+02 -0.14206617430E+02  0.20249050116E+02  0.34607075177E+02  0.00000000000E+00 0. -1.
         21    1    1    2  502  501 -0.24025503535E+02  0.21812151854E+02  0.33124079305E+02  0.46370242811E+02  0.00000000000E+00 0. -1.
<mgrwt>
<rscale>  1 0.87522068E+02</rscale>
<asrwt>0</asrwt>
<pdfrwt beam="1">  1        2 0.12835827E-01 0.87522068E+02</pdfrwt>
<pdfrwt beam="2">  1       -1 0.77630101E-02 0.87522068E+02</pdfrwt>
<totfact> 0.41728555E+04</totfact>
</mgrwt>
</event>
<event>
 6    2  0.1063641E+001  0.8252168E+02  0.7546771E-02  0.1322044E+00
          2   -1    0    0  502    0  0.00000000000E+00  0.00000000000E+00  0.57041888343E+03  0.57041888343E+03  0.00000000000E+00 0. -1.
         -1   -1    0    0    0  501 -0.00000000000E+00 -0.00000000000E+00 -0.46538403175E+01  0.46538403175E+01  0.00000000000E+00 0.  1.
         24    2    1    2    0    0  0.16337870957E+02 -0.12342191709E+02  0.44605478276E+03  0.45362396024E+03  0.79941055523E+02 0.  0.
        -13    1    3    3    0    0  0.97253342391E+01  0.10741188280E+02  0.11748189944E+02  0.18654093886E+02  0.00000000000E+00 0.  1.
         14    1    3    3    0    0  0.66125367181E+01 -0.23083379989E+02  0.43430659282E+03  0.43496986636E+03  0.00000000000E+00 0. -1.
         21    1    1    2  502  501 -0.16337870957E+02  0.12342191709E+02  0.11971026035E+03  0.12144876350E+03  0.00000000000E+00 0. -1.
<mgrwt>
<rscale>  1 0.82521682E+02</rscale>
<asrwt>0</asrwt>
<pdfrwt beam="1">  1        2 0.87756696E-01 0.82521682E+02</pdfrwt>
<pdfrwt beam="2">  1       -1 0.71597588E-03 0.82521682E+02</pdfrwt>
<totfact> 0.15717972E+05</totfact>
</mgrwt>
</event>
<event>
 6    2  0.1063641E+001  0.1256019E+03  0.7546771E-02  0.1234132E+00
          2   -1    0    0  502    0  0.00000000000E+00  0.00000000000E+00  0.17409841436E+03  0.17409841436E+03  0.00000000000E+00 0. -1.
         -1   -1    0    0    0  501 -0.00000000000E+00 -0.00000000000E+00 -0.90649704422E+02  0.90649704422E+02  0.00000000000E+00 0.  1.
         24    2    1    2    0    0 -0.94645165694E+02 -0.46413933182E+02  0.96687813403E+02  0.15850672175E+03  0.68292656974E+02 0.  0.
        -11    1    3    3    0    0 -0.10435873150E+02  0.10678091114E+02 -0.39067026832E+01  0.15433450816E+02  0.00000000000E+00 0.  1.
         12    1    3    3    0    0 -0.84209292545E+02 -0.57092024296E+02  0.10059451609E+03  0.14307327093E+03  0.00000000000E+00 0. -1.
         21    1    1    2  502  501  0.94645165694E+02  0.46413933182E+02 -0.13239103466E+02  0.10624139703E+03  0.00000000000E+00 0.  1.
<mgrwt>
<rscale>  1 0.12560194E+03</rscale>
<asrwt>0</asrwt>
<pdfrwt beam="1">  1        2 0.26784371E-01 0.12560194E+03</pdfrwt>
<pdfrwt beam="2">  1       -1 0.13946108E-01 0.12560194E+03</pdfrwt>
<totfact> 0.77200773E+03</totfact>
</mgrwt>
</event>
<event>
 6    2  0.1063641E+001  0.8613278E+02  0.7546771E-02  0.1312496E+00
         -1   -1    0    0    0  501 -0.00000000000E+00  0.00000000000E+00  0.40608576607E+03  0.40608576607E+03  0.00000000000E+00 0.  1.
          2   -1    0    0  502    0  0.00000000000E+00 -0.00000000000E+00 -0.10002871822E+02  0.10002871822E+02  0.00000000000E+00 0. -1.
         24    2    1    2    0    0  0.50210982472E+01 -0.32503729814E+02  0.34294436268E+03  0.35359537893E+03  0.79606232299E+02 0.  0.
        -11    1    3    3    0    0  0.23636932718E+02 -0.52822685151E+02  0.25245958003E+03  0.25900729759E+03  0.00000000000E+00 0.  1.
         12    1    3    3    0    0 -0.18615834471E+02  0.20318955337E+02  0.90484782657E+02  0.94588081339E+02  0.00000000000E+00 0. -1.
         21    1    1    2  502  501 -0.50210982472E+01  0.32503729814E+02  0.53138531561E+02  0.62493258964E+02  0.00000000000E+00 0. -1.
<mgrwt>
<rscale>  1 0.86132782E+02</rscale>
<asrwt>0</asrwt>
<pdfrwt beam="1">  1        2 0.15389037E-02 0.86132782E+02</pdfrwt>
<pdfrwt beam="2">  1       -1 0.62474721E-01 0.86132782E+02</pdfrwt>
<totfact> 0.21314215E+04</totfact>
</mgrwt>
</event>
<event>
 6    2  0.1063641E+001  0.9079851E+02  0.7546771E-02  0.1300929E+00
         -1   -1    0    0    0  501 -0.00000000000E+00  0.00000000000E+00  0.41075565466E+02  0.41075565466E+02  0.00000000000E+00 0.  1.
          2   -1    0    0  502    0  0.00000000000E+00 -0.00000000000E+00 -0.11206950567E+03  0.11206950567E+03  0.00000000000E+00 0. -1.
         24    2    1    2    0    0  0.29191457445E+02 -0.31975472945E+02 -0.58761246286E+02  0.10815384023E+03  0.79811008227E+02 0.  0.
        -11    1    3    3    0    0 -0.73793222788E+01 -0.80085530516E+01  0.17287333753E+02  0.20431427448E+02  0.00000000000E+00 0.  1.
         12    1    3    3    0    0  0.36570779723E+02 -0.23966919893E+02 -0.76048580039E+02  0.87722412784E+02  0.00000000000E+00 0. -1.
         21    1    1    2  502  501 -0.29191457445E+02  0.31975472945E+02 -0.12232693918E+02  0.44991230904E+02  0.00000000000E+00 0.  1.
<mgrwt>
<rscale>  1 0.90798508E+02</rscale>
<asrwt>0</asrwt>
<pdfrwt beam="1">  1        2 0.17241462E-01 0.90798508E+02</pdfrwt>
<pdfrwt beam="2">  1       -1 0.63193178E-02 0.90798508E+02</pdfrwt>
<totfact> 0.40437255E+04</totfact>
</mgrwt>
</event>
<event>
 6    2  0.1063641E+001  0.8338369E+02  0.7546771E-02  0.1319714E+00
          2   -1    0    0  502    0  0.00000000000E+00  0.00000000000E+00  0.80330159095E+02  0.80330159095E+02  0.00000000000E+00 0. -1.
         -1   -1    0    0    0  501 -0.00000000000E+00 -0.00000000000E+00 -0.68272285218E+02  0.68272285218E+02  0.00000000000E+00 0.  1.
         24    2    1    2    0    0  0.12531109741E+02 -0.22784894043E+02 -0.38428568735E+02  0.91812823823E+02  0.79225372296E+02 0.  0.
        -13    1    3    3    0    0 -0.11400304858E+02 -0.32769292782E+02 -0.52025472545E+02  0.62533537353E+02  0.00000000000E+00 0.  1.
         14    1    3    3    0    0  0.23931414599E+02  0.99843987398E+01  0.13596903811E+02  0.29279286469E+02  0.00000000000E+00 0. -1.
         21    1    1    2  502  501 -0.12531109741E+02  0.22784894043E+02  0.50486442612E+02  0.56789620491E+02  0.00000000000E+00 0. -1.
<mgrwt>
<rscale>  1 0.83383690E+02</rscale>
<asrwt>0</asrwt>
<pdfrwt beam="1">  1        2 0.12358486E-01 0.83383690E+02</pdfrwt>
<pdfrwt beam="2">  1       -1 0.10503428E-01 0.83383690E+02</pdfrwt>
<totfact> 0.27560947E+04</totfact>
</mgrwt>
</event>
<event>
 6    2  0.1063641E+001  0.9029461E+02  0.7546771E-02  0.1302140E+00
          2   -1    0    0  502    0  0.00000000000E+00  0.00000000000E+00  0.40209113264E+03  0.40209113264E+03  0.00000000000E+00 0. -1.
         -1   -1    0    0    0  501 -0.00000000000E+00 -0.00000000000E+00 -0.66553012923E+02  0.66553012923E+02  0.00000000000E+00 0.  1.
         24    2    1    2    0    0 -0.18510534095E+02  0.96565016122E+01 -0.35497506160E+02  0.97021590319E+02  0.87847755512E+02 0.  0.
        -11    1    3    3    0    0 -0.64329828850E+01  0.18055669951E+02 -0.62989428987E+02  0.65841162279E+02  0.00000000000E+00 0.  1.
         12    1    3    3    0    0 -0.12077551210E+02 -0.83991683387E+01  0.27491922827E+02  0.31180428040E+02  0.00000000000E+00 0. -1.
         21    1    1    2  502  501  0.18510534095E+02 -0.96565016122E+01  0.37103562588E+03  0.37162255525E+03  0.00000000000E+00 0. -1.
<mgrwt>
<rscale>  1 0.90294607E+02</rscale>
<asrwt>0</asrwt>
<pdfrwt beam="1">  1        2 0.61860173E-01 0.90294607E+02</pdfrwt>
<pdfrwt beam="2">  1       -1 0.10238925E-01 0.90294607E+02</pdfrwt>
<totfact> 0.49925086E+03</totfact>
</mgrwt>
</event>
<event>
 6    2  0.1063641E+001  0.8103031E+02  0.7546771E-02  0.1326153E+00
         -1   -1    0    0    0  501 -0.00000000000E+00  0.00000000000E+00  0.11337770236E+03  0.11337770236E+03  0.00000000000E+00 0.  1.
          2   -1    0    0  502    0  0.00000000000E+00 -0.00000000000E+00 -0.22595880879E+02  0.22595880879E+02  0.00000000000E+00 0. -1.
         24    2    1    2    0    0  0.43462699852E+01 -0.19723417135E+02  0.73078597576E+02  0.10911641692E+03  0.78472974780E+02 0.  0.
        -11    1    3    3    0    0  0.28665655209E+02 -0.38887396466E+02  0.33156039882E+02  0.58594132583E+02  0.00000000000E+00 0.  1.
         12    1    3    3    0    0 -0.24319385224E+02  0.19163979331E+02  0.39922557694E+02  0.50522284334E+02  0.00000000000E+00 0. -1.
         21    1    1    2  502  501 -0.43462699852E+01  0.19723417135E+02  0.17703223908E+02  0.26857166325E+02  0.00000000000E+00 0. -1.
<mgrwt>
<rscale>  1 0.81030309E+02</rscale>
<asrwt>0</asrwt>
<pdfrwt beam="1">  1        2 0.34762894E-02 0.81030309E+02</pdfrwt>
<pdfrwt beam="2">  1       -1 0.17442723E-01 0.81030309E+02</pdfrwt>
<totfact> 0.61864486E+04</totfact>
</mgrwt>
</event>
<event>
 6    2  0.1063641E+001  0.1421519E+03  0.7546771E-02  0.1210462E+00
         -1   -1    0    0    0  501 -0.00000000000E+00  0.00000000000E+00  0.38240507446E+02  0.38240507446E+02  0.00000000000E+00 0.  1.
          2   -1    0    0  502    0  0.00000000000E+00 -0.00000000000E+00 -0.44157930147E+03  0.44157930147E+03  0.00000000000E+00 0. -1.
         24    2    1    2    0    0 -0.11307661120E+03  0.32483917036E+02 -0.21432081221E+03  0.25717811850E+03  0.79785018762E+02 0.  0.
        -11    1    3    3    0    0 -0.10419107800E+03  0.66909373031E+01 -0.12034112786E+03  0.15931897700E+03  0.00000000000E+00 0.  1.
         12    1    3    3    0    0 -0.88855331983E+01  0.25792979733E+02 -0.93979684350E+02  0.97859141495E+02  0.00000000000E+00 0. -1.
         21    1    1    2  502  501  0.11307661120E+03 -0.32483917036E+02 -0.18901798181E+03  0.22264169042E+03  0.00000000000E+00 0. -1.
<mgrwt>
<rscale>  1 0.14215194E+03</rscale>
<asrwt>0</asrwt>
<pdfrwt beam="1">  1        2 0.67935281E-01 0.14215194E+03</pdfrwt>
<pdfrwt beam="2">  1       -1 0.58831547E-02 0.14215194E+03</pdfrwt>
<totfact> 0.10684571E+04</totfact>
</mgrwt>
</event>
<event>
 6    2  0.1063641E+001  0.8264611E+02  0.7546771E-02  0.1321706E+00
          2   -1    0    0  502    0  0.00000000000E+00  0.00000000000E+00  0.11021586027E+04  0.11021586027E+04  0.00000000000E+00 0. -1.
         -1   -1    0    0    0  501 -0.00000000000E+00 -0.00000000000E+00 -0.31695939586E+01  0.31695939586E+01  0.00000000000E+00 0.  1.
         24    2    1    2    0    0  0.94461724671E+01  0.18433962691E+02  0.57278971595E+03  0.57872138234E+03  0.80008365326E+02 0.  0.
        -11    1    3    3    0    0 -0.96748861387E+01 -0.16600759786E+02  0.39349697860E+02  0.43790265687E+02  0.00000000000E+00 0.  1.
         12    1    3    3    0    0  0.19121058606E+02  0.35034722478E+02  0.53344001809E+03  0.53493111665E+03  0.00000000000E+00 0. -1.
         21    1    1    2  502  501 -0.94461724671E+01 -0.18433962691E+02  0.52619929277E+03  0.52660681430E+03  0.00000000000E+00 0. -1.
<mgrwt>
<rscale>  1 0.82646111E+02</rscale>
<asrwt>0</asrwt>
<pdfrwt beam="1">  1        2 0.16956256E+00 0.82646111E+02</pdfrwt>
<pdfrwt beam="2">  1       -1 0.48763072E-03 0.82646111E+02</pdfrwt>
<totfact> 0.11980465E+05</totfact>
</mgrwt>
</event>
<event>
 6    2  0.1063641E+001  0.9756173E+02  0.7546771E-02  0.1285508E+00
          2   -1    0    0  502    0  0.00000000000E+00  0.00000000000E+00  0.13698249639E+03  0.13698249639E+03  0.00000000000E+00 0. -1.
         -1   -1    0    0    0  501 -0.00000000000E+00 -0.00000000000E+00 -0.35672686037E+02  0.35672686037E+02  0.00000000000E+00 0.  1.
         24    2    1    2    0    0 -0.22767576933E+02  0.35771005699E+01  0.37003050735E+02  0.10434326882E+03  0.94800494601E+02 0.  0.
        -11    1    3    3    0    0 -0.23619152263E+02 -0.31978236602E+02 -0.14013996346E+02  0.42152865423E+02  0.00000000000E+00 0.  1.
         12    1    3    3    0    0  0.85157533017E+00  0.35555337172E+02  0.51017047081E+02  0.62190403398E+02  0.00000000000E+00 0. -1.
         21    1    1    2  502  501  0.22767576933E+02 -0.35771005699E+01  0.64306759614E+02  0.68311913601E+02  0.00000000000E+00 0.  1.
<mgrwt>
<rscale>  1 0.97561734E+02</rscale>
<asrwt>0</asrwt>
<pdfrwt beam="1">  1        2 0.21074230E-01 0.97561734E+02</pdfrwt>
<pdfrwt beam="2">  1       -1 0.54881056E-02 0.97561734E+02</pdfrwt>
<totfact> 0.40080235E+04</totfact>
</mgrwt>
</event>
<event>
 6    2  0.1063641E+001  0.8574563E+02  0.7546771E-02  0.1313494E+00
          2   -1    0    0  502    0  0.00000000000E+00  0.00000000000E+00  0.22219754835E+03  0.22219754835E+03  0.00000000000E+00 0. -1.
         -1   -1    0    0    0  501 -0.00000000000E+00 -0.00000000000E+00 -0.31932800574E+02  0.31932800574E+02  0.00000000000E+00 0.  1.
         24    2    1    2    0    0 -0.18413018451E+02  0.22703033329E+02  0.29422065188E+02  0.90653024768E+02  0.80609217890E+02 0.  0.
        -11    1    3    3    0    0 -0.26507326647E+02 -0.29149502799E+01 -0.20717555104E+02  0.33769104084E+02  0.00000000000E+00 0.  1.
         12    1    3    3    0    0  0.80943081963E+01  0.25617983609E+02  0.50139620292E+02  0.56883920684E+02  0.00000000000E+00 0. -1.
         21    1    1    2  502  501  0.18413018451E+02 -0.22703033329E+02  0.16084268259E+03  0.16347732416E+03  0.00000000000E+00 0. -1.
<mgrwt>
<rscale>  1 0.85745630E+02</rscale>
<asrwt>0</asrwt>
<pdfrwt beam="1">  1        2 0.34184237E-01 0.85745630E+02</pdfrwt>
<pdfrwt beam="2">  1       -1 0.49127387E-02 0.85745630E+02</pdfrwt>
<totfact> 0.27496898E+04</totfact>
</mgrwt>
</event>
<event>
 6    2  0.1063641E+001  0.1096719E+03  0.7546771E-02  0.1261179E+00
          2   -1    0    0  502    0  0.00000000000E+00  0.00000000000E+00  0.35871443426E+02  0.35871443426E+02  0.00000000000E+00 0. -1.
         -1   -1    0    0    0  501 -0.00000000000E+00 -0.00000000000E+00 -0.14517937490E+03  0.14517937490E+03  0.00000000000E+00 0.  1.
         24    2    1    2    0    0 -0.85231509556E+00  0.21082371274E+02 -0.11528789154E+03  0.15912018355E+03  0.10762314833E+03 0.  0.
        -11    1    3    3    0    0 -0.13855850556E+02 -0.42332271132E+02 -0.53705519317E+02  0.69773122182E+02  0.00000000000E+00 0.  1.
         12    1    3    3    0    0  0.13003535460E+02  0.63414642406E+02 -0.61582372225E+02  0.89347061366E+02  0.00000000000E+00 0. -1.
         21    1    1    2  502  501  0.85231509556E+00 -0.21082371274E+02  0.59799600639E+01  0.21930634781E+02  0.00000000000E+00 0.  1.
<mgrwt>
<rscale>  1 0.10967194E+03</rscale>
<asrwt>0</asrwt>
<pdfrwt beam="1">  1        2 0.55186835E-02 0.10967194E+03</pdfrwt>
<pdfrwt beam="2">  1       -1 0.22335289E-01 0.10967194E+03</pdfrwt>
<totfact> 0.23828276E+04</totfact>
</mgrwt>
</event>
<event>
 6    2  0.1063641E+001  0.8550300E+02  0.7546771E-02  0.1314122E+00
          2   -1    0    0  502    0  0.00000000000E+00  0.00000000000E+00  0.16774611901E+04  0.16774611901E+04  0.00000000000E+00 0. -1.
         -1   -1    0    0    0  501 -0.00000000000E+00 -0.00000000000E+00 -0.35639785915E+01  0.35639785915E+01  0.00000000000E+00 0.  1.
         24    2    1    2    0    0  0.42998096485E+01 -0.23457031179E+02  0.52787669001E+03  0.53475654557E+03  0.82109941488E+02 0.  0.
        -11    1    3    3    0    0 -0.20390751864E+02  0.20271666461E+02  0.30195979023E+03  0.30332563053E+03  0.00000000000E+00 0.  1.
         12    1    3    3    0    0  0.24690561513E+02 -0.43728697639E+02  0.22591689978E+03  0.23143091503E+03  0.00000000000E+00 0. -1.
         21    1    1    2  502  501 -0.42998096485E+01  0.23457031179E+02  0.11460205215E+04  0.11462686231E+04  0.00000000000E+00 0.  1.
<mgrwt>
<rscale>  1 0.85503001E+02</rscale>
<asrwt>0</asrwt>
<pdfrwt beam="1">  1        2 0.25807032E+00 0.85503001E+02</pdfrwt>
<pdfrwt beam="2">  1       -1 0.54830574E-03 0.85503001E+02</pdfrwt>
<totfact> 0.51167154E+04</totfact>
</mgrwt>
</event>
<event>
 6    2  0.1063641E+001  0.8777695E+02  0.7546771E-02  0.1308326E+00
         -1   -1    0    0    0  501 -0.00000000000E+00  0.00000000000E+00  0.49532812624E+01  0.49532812624E+01  0.00000000000E+00 0.  1.
          2   -1    0    0  502    0  0.00000000000E+00 -0.00000000000E+00 -0.80510463680E+03  0.80510463680E+03  0.00000000000E+00 0. -1.
         24    2    1    2    0    0  0.13109102494E+02 -0.30386743369E+02 -0.45995524124E+03  0.46825593017E+03  0.81299381664E+02 0.  0.
        -13    1    3    3    0    0  0.33536100751E+02  0.12390078277E+02 -0.12675190486E+03  0.13169749230E+03  0.00000000000E+00 0.  1.
         14    1    3    3    0    0 -0.20426998257E+02 -0.42776821646E+02 -0.33320333638E+03  0.33655843787E+03  0.00000000000E+00 0. -1.
         21    1    1    2  502  501 -0.13109102494E+02  0.30386743369E+02 -0.34019611430E+03  0.34180198789E+03  0.00000000000E+00 0.  1.
<mgrwt>
<rscale>  1 0.87776946E+02</rscale>
<asrwt>0</asrwt>
<pdfrwt beam="1">  1        2 0.12386215E+00 0.87776946E+02</pdfrwt>
<pdfrwt beam="2">  1       -1 0.76204390E-03 0.87776946E+02</pdfrwt>
<totfact> 0.97606507E+04</totfact>
</mgrwt>
</event>
<event>
 6    2  0.1063641E+001  0.8588055E+02  0.7546771E-02  0.1313146E+00
          2   -1    0    0  502    0  0.00000000000E+00  0.00000000000E+00  0.97000914380E+01  0.97000914380E+01  0.00000000000E+00 0. -1.
         -1   -1    0    0    0  501 -0.00000000000E+00 -0.00000000000E+00 -0.66863581505E+03  0.66863581505E+03  0.00000000000E+00 0.  1.
         24    2    1    2    0    0 -0.95879906071E+01  0.32756826260E+02 -0.62255669841E+03  0.62845231494E+03  0.78806917171E+02 0.  0.
        -11    1    3    3    0    0 -0.76092071886E+01  0.49678486163E+02 -0.58565629053E+03  0.58780876368E+03  0.00000000000E+00 0.  1.
         12    1    3    3    0    0 -0.19787834185E+01 -0.16921659903E+02 -0.36900407874E+02  0.40643551259E+02  0.00000000000E+00 0. -1.
         21    1    1    2  502  501  0.95879906071E+01 -0.32756826260E+02 -0.36379025198E+02  0.49883591539E+02  0.00000000000E+00 0. -1.
<mgrwt>
<rscale>  1 0.85880553E+02</rscale>
<asrwt>0</asrwt>
<pdfrwt beam="1">  1        2 0.14923221E-02 0.85880553E+02</pdfrwt>
<pdfrwt beam="2">  1       -1 0.10286702E+00 0.85880553E+02</pdfrwt>
<totfact> 0.80672430E+03</totfact>
</mgrwt>
</event>
<event>
 6    2  0.1063641E+001  0.8873621E+02  0.7546771E-02  0.1305941E+00
         -1   -1    0    0    0  501 -0.00000000000E+00  0.00000000000E+00  0.16811174429E+02  0.16811174429E+02  0.00000000000E+00 0.  1.
          2   -1    0    0  502    0  0.00000000000E+00 -0.00000000000E+00 -0.43339216016E+03  0.43339216016E+03  0.00000000000E+00 0. -1.
         24    2    1    2    0    0  0.30879384166E+02  0.77384679371E+01 -0.10707877362E+03  0.13906825210E+03  0.82829310815E+02 0.  0.
        -11    1    3    3    0    0 -0.21297677015E+02  0.19227274186E+01 -0.18428629214E+01  0.21463552145E+02  0.00000000000E+00 0.  1.
         12    1    3    3    0    0  0.52177061181E+02  0.58157405185E+01 -0.10523591070E+03  0.11760469996E+03  0.00000000000E+00 0. -1.
         21    1    1    2  502  501 -0.30879384166E+02 -0.77384679371E+01 -0.30950221211E+03  0.31113508249E+03  0.00000000000E+00 0. -1.
<mgrwt>
<rscale>  1 0.88736210E+02</rscale>
<asrwt>0</asrwt>
<pdfrwt beam="1">  1        2 0.66675708E-01 0.88736210E+02</pdfrwt>
<pdfrwt beam="2">  1       -1 0.25863349E-02 0.88736210E+02</pdfrwt>
<totfact> 0.34664031E+04</totfact>
</mgrwt>
</event>
<event>
 6    2  0.1063641E+001  0.8563901E+02  0.7546771E-02  0.1313770E+00
         -1   -1    0    0    0  501 -0.00000000000E+00  0.00000000000E+00  0.59913805637E+01  0.59913805637E+01  0.00000000000E+00 0.  1.
          2   -1    0    0  502    0  0.00000000000E+00 -0.00000000000E+00 -0.83510731791E+03  0.83510731791E+03  0.00000000000E+00 0. -1.
         24    2    1    2    0    0 -0.70300863946E+01 -0.24448328125E+02 -0.31738607767E+03  0.32873691990E+03  0.81773451323E+02 0.  0.
        -11    1    3    3    0    0 -0.39791068718E+02  0.63403798446E+01 -0.16569139119E+03  0.17052028232E+03  0.00000000000E+00 0.  1.
         12    1    3    3    0    0  0.32760982324E+02 -0.30788707969E+02 -0.15169468648E+03  0.15821663758E+03  0.00000000000E+00 0. -1.
         21    1    1    2  502  501  0.70300863946E+01  0.24448328125E+02 -0.51172985968E+03  0.51236177858E+03  0.00000000000E+00 0.  1.
<mgrwt>
<rscale>  1 0.85639011E+02</rscale>
<asrwt>0</asrwt>
<pdfrwt beam="1">  1        2 0.12847800E+00 0.85639011E+02</pdfrwt>
<pdfrwt beam="2">  1       -1 0.92175124E-03 0.85639011E+02</pdfrwt>
<totfact> 0.71183478E+04</totfact>
</mgrwt>
</event>
<event>
 6    2  0.1063641E+001  0.7981127E+02  0.7546771E-02  0.1329588E+00
          2   -1    0    0  502    0  0.00000000000E+00  0.00000000000E+00  0.13250668122E+04  0.13250668122E+04  0.00000000000E+00 0. -1.
         -1   -1    0    0    0  501 -0.00000000000E+00 -0.00000000000E+00 -0.86411189549E+01  0.86411189549E+01  0.00000000000E+00 0.  1.
         24    2    1    2    0    0  0.20947199914E+02 -0.19925993798E+01  0.17784140446E+03  0.19492922644E+03  0.76987547985E+02 0.  0.
        -13    1    3    3    0    0  0.26615223113E+02 -0.83098758682E+01  0.14611622393E+02  0.31478939741E+02  0.00000000000E+00 0.  1.
         14    1    3    3    0    0 -0.56680231989E+01  0.63172764884E+01  0.16322978206E+03  0.16345028670E+03  0.00000000000E+00 0. -1.
         21    1    1    2  502  501 -0.20947199914E+02  0.19925993798E+01  0.11385842887E+04  0.11387787047E+04  0.00000000000E+00 0. -1.
<mgrwt>
<rscale>  1 0.79811266E+02</rscale>
<asrwt>0</asrwt>
<pdfrwt beam="1">  1        2 0.20385627E+00 0.79811266E+02</pdfrwt>
<pdfrwt beam="2">  1       -1 0.13294040E-02 0.79811266E+02</pdfrwt>
<totfact> 0.22177027E+04</totfact>
</mgrwt>
</event>
<event>
 6    2  0.1063641E+001  0.7803515E+02  0.7546771E-02  0.1334722E+00
         -3   -1    0    0    0  501 -0.00000000000E+00  0.00000000000E+00  0.16200451164E+03  0.16200451164E+03  0.00000000000E+00 0.  1.
          4   -1    0    0  502    0  0.00000000000E+00 -0.00000000000E+00 -0.15497952683E+02  0.15497952683E+02  0.00000000000E+00 0. -1.
         24    2    1    2    0    0  0.21791001414E+02 -0.85263744586E+00  0.12052277983E+03  0.14358003058E+03  0.74926030126E+02 0.  0.
        -11    1    3    3    0    0 -0.17126538983E+02  0.99382567939E+01  0.92076454471E+02  0.94181530851E+02  0.00000000000E+00 0.  1.
         12    1    3    3    0    0  0.38917540397E+02 -0.10790894240E+02  0.28446325359E+02  0.49398499729E+02  0.00000000000E+00 0. -1.
         21    1    1    2  502  501 -0.21791001414E+02  0.85263744586E+00  0.25983779125E+02  0.33922433740E+02  0.00000000000E+00 0. -1.
<mgrwt>
<rscale>  1 0.78035151E+02</rscale>
<asrwt>0</asrwt>
<pdfrwt beam="1">  1        4 0.23843005E-02 0.78035151E+02</pdfrwt>
<pdfrwt beam="2">  1       -3 0.24923770E-01 0.78035151E+02</pdfrwt>
<totfact> 0.19232887E+04</totfact>
</mgrwt>
</event>
<event>
 6    2  0.1063641E+001  0.9200405E+02  0.7546771E-02  0.1298070E+00
          2   -1    0    0  502    0  0.00000000000E+00  0.00000000000E+00  0.21494384443E+03  0.21494384443E+03  0.00000000000E+00 0. -1.
         -1   -1    0    0    0  501 -0.00000000000E+00 -0.00000000000E+00 -0.30247108121E+02  0.30247108121E+02  0.00000000000E+00 0.  1.
         24    2    1    2    0    0  0.49542525030E+02  0.11530160724E+02  0.58242571690E+02  0.10888958740E+03  0.76663803026E+02 0.  0.
        -13    1    3    3    0    0  0.59105463114E+02 -0.16572679896E+02  0.31789586854E+02  0.69128050176E+02  0.00000000000E+00 0.  1.
         14    1    3    3    0    0 -0.95629380838E+01  0.28102840619E+02  0.26452984836E+02  0.39761537224E+02  0.00000000000E+00 0. -1.
         21    1    1    2  502  501 -0.49542525030E+02 -0.11530160724E+02  0.12645416462E+03  0.13630136515E+03  0.00000000000E+00 0. -1.
<mgrwt>
<rscale>  1 0.92004049E+02</rscale>
<asrwt>0</asrwt>
<pdfrwt beam="1">  1        2 0.33068283E-01 0.92004049E+02</pdfrwt>
<pdfrwt beam="2">  1       -1 0.46534014E-02 0.92004049E+02</pdfrwt>
<totfact> 0.31085903E+04</totfact>
</mgrwt>
</event>
<event>
 6    2  0.1063641E+001  0.9048873E+02  0.7546771E-02  0.1301672E+00
         -1   -1    0    0    0  501 -0.00000000000E+00  0.00000000000E+00  0.14792728979E+01  0.14792728979E+01  0.00000000000E+00 0.  1.
          2   -1    0    0  502    0  0.00000000000E+00 -0.00000000000E+00 -0.28904249653E+04  0.28904249653E+04  0.00000000000E+00 0. -1.
         24    2    1    2    0    0 -0.12576435934E+02 -0.34736938830E+02 -0.17242665228E+04  0.17266392942E+04  0.82603806727E+02 0.  0.
        -11    1    3    3    0    0  0.21646233024E+02  0.71834807282E+01 -0.18197264000E+03  0.18339630178E+03  0.00000000000E+00 0.  1.
         12    1    3    3    0    0 -0.34222668958E+02 -0.41920419558E+02 -0.15422938828E+04  0.15432429924E+04  0.00000000000E+00 0. -1.
         21    1    1    2  502  501  0.12576435934E+02  0.34736938830E+02 -0.11646791696E+04  0.11652649440E+04  0.00000000000E+00 0.  1.
<mgrwt>
<rscale>  1 0.90488732E+02</rscale>
<asrwt>0</asrwt>
<pdfrwt beam="1">  1        2 0.44468564E+00 0.90488732E+02</pdfrwt>
<pdfrwt beam="2">  1       -1 0.22757795E-03 0.90488732E+02</pdfrwt>
<totfact> 0.41193082E+04</totfact>
</mgrwt>
</event>
<event>
 6    2  0.1063641E+001  0.8192486E+02  0.7546771E-02  0.1323676E+00
          2   -1    0    0  502    0  0.00000000000E+00  0.00000000000E+00  0.91878902239E+03  0.91878902239E+03  0.00000000000E+00 0. -1.
         -1   -1    0    0    0  501 -0.00000000000E+00 -0.00000000000E+00 -0.19214779571E+02  0.19214779571E+02  0.00000000000E+00 0.  1.
         24    2    1    2    0    0  0.17938747390E+02 -0.23289026526E+02  0.69568714555E+02  0.10747785152E+03  0.76468981340E+02 0.  0.
        -13    1    3    3    0    0 -0.17120475897E+02 -0.35451395994E+02  0.54940661077E+02  0.67589854360E+02  0.00000000000E+00 0.  1.
         14    1    3    3    0    0  0.35059223287E+02  0.12162369468E+02  0.14628053478E+02  0.39887997156E+02  0.00000000000E+00 0. -1.
         21    1    1    2  502  501 -0.17938747390E+02  0.23289026526E+02  0.83000552827E+03  0.83052595045E+03  0.00000000000E+00 0. -1.
<mgrwt>
<rscale>  1 0.81924859E+02</rscale>
<asrwt>0</asrwt>
<pdfrwt beam="1">  1        2 0.14135212E+00 0.81924859E+02</pdfrwt>
<pdfrwt beam="2">  1       -1 0.29561206E-02 0.81924859E+02</pdfrwt>
<totfact> 0.12016457E+04</totfact>
</mgrwt>
</event>
<event>
 6    2  0.1063641E+001  0.8342155E+02  0.7546771E-02  0.1319613E+00
          2   -1    0    0  502    0  0.00000000000E+00  0.00000000000E+00  0.12972133400E+03  0.12972133400E+03  0.00000000000E+00 0. -1.
         -1   -1    0    0    0  501 -0.00000000000E+00 -0.00000000000E+00 -0.21864494810E+02  0.21864494810E+02  0.00000000000E+00 0.  1.
         24    2    1    2    0    0  0.15688191380E+02 -0.16906517405E+02  0.83045215423E+02  0.11771008006E+03  0.80169853829E+02 0.  0.
        -11    1    3    3    0    0  0.35548194814E+02  0.12592619620E+02  0.14339828182E+02  0.40346981247E+02  0.00000000000E+00 0.  1.
         12    1    3    3    0    0 -0.19860003434E+02 -0.29499137025E+02  0.68705387241E+02  0.77363098811E+02  0.00000000000E+00 0. -1.
         21    1    1    2  502  501 -0.15688191380E+02  0.16906517405E+02  0.24811623764E+02  0.33875748749E+02  0.00000000000E+00 0.  1.
<mgrwt>
<rscale>  1 0.83421551E+02</rscale>
<asrwt>0</asrwt>
<pdfrwt beam="1">  1        2 0.19957128E-01 0.83421551E+02</pdfrwt>
<pdfrwt beam="2">  1       -1 0.33637685E-02 0.83421551E+02</pdfrwt>
<totfact> 0.84968977E+04</totfact>
</mgrwt>
</event>
<event>
 6    2  0.1063641E+001  0.8260856E+02  0.7546771E-02  0.1321808E+00
         -1   -1    0    0    0  501 -0.00000000000E+00  0.00000000000E+00  0.42440674730E+01  0.42440674730E+01  0.00000000000E+00 0.  1.
          2   -1    0    0  502    0  0.00000000000E+00 -0.00000000000E+00 -0.64466181120E+03  0.64466181120E+03  0.00000000000E+00 0. -1.
         24    2    1    2    0    0 -0.81562960113E+01  0.19586437336E+02 -0.53888953613E+03  0.54518446993E+03  0.79837462503E+02 0.  0.
        -13    1    3    3    0    0 -0.38365652410E+02  0.26223111894E+02 -0.22338875650E+03  0.22817123266E+03  0.00000000000E+00 0.  1.
         14    1    3    3    0    0  0.30209356399E+02 -0.66366745580E+01 -0.31550077963E+03  0.31701323728E+03  0.00000000000E+00 0. -1.
         21    1    1    2  502  501  0.81562960113E+01 -0.19586437336E+02 -0.10152820760E+03  0.10372140874E+03  0.00000000000E+00 0.  1.
<mgrwt>
<rscale>  1 0.82608560E+02</rscale>
<asrwt>0</asrwt>
<pdfrwt beam="1">  1        2 0.99178787E-01 0.82608560E+02</pdfrwt>
<pdfrwt beam="2">  1       -1 0.65293315E-03 0.82608560E+02</pdfrwt>
<totfact> 0.15600463E+05</totfact>
</mgrwt>
</event>
<event>
 6    2  0.1063641E+001  0.9111825E+02  0.7546771E-02  0.1300166E+00
          2   -1    0    0  502    0  0.00000000000E+00  0.00000000000E+00  0.26615668434E+03  0.26615668434E+03  0.00000000000E+00 0. -1.
         -1   -1    0    0    0  501 -0.00000000000E+00 -0.00000000000E+00 -0.60641196111E+02  0.60641196111E+02  0.00000000000E+00 0.  1.
         24    2    1    2    0    0 -0.28962700969E+02  0.34804798674E+02  0.24830708893E+03  0.26449753416E+03  0.79071632751E+02 0.  0.
        -13    1    3    3    0    0 -0.51502281519E+02  0.42742643738E+02  0.19194392768E+03  0.20327786394E+03  0.00000000000E+00 0.  1.
         14    1    3    3    0    0  0.22539580550E+02 -0.79378450635E+01  0.56363161243E+02  0.61219670213E+02  0.00000000000E+00 0. -1.
         21    1    1    2  502  501  0.28962700969E+02 -0.34804798674E+02 -0.42791600697E+02  0.62300346294E+02  0.00000000000E+00 0.  1.
<mgrwt>
<rscale>  1 0.91118248E+02</rscale>
<asrwt>0</asrwt>
<pdfrwt beam="1">  1        2 0.40947181E-01 0.91118248E+02</pdfrwt>
<pdfrwt beam="2">  1       -1 0.93294150E-02 0.91118248E+02</pdfrwt>
<totfact> 0.88531383E+03</totfact>
</mgrwt>
</event>
<event>
 6    2  0.1063641E+001  0.8928597E+02  0.7546771E-02  0.1304590E+00
         -1   -1    0    0    0  501 -0.00000000000E+00  0.00000000000E+00  0.10211536428E+02  0.10211536428E+02  0.00000000000E+00 0.  1.
          2   -1    0    0  502    0  0.00000000000E+00 -0.00000000000E+00 -0.54703972713E+03  0.54703972713E+03  0.00000000000E+00 0. -1.
         24    2    1    2    0    0 -0.38685932168E+02 -0.17670482141E+01 -0.21077453374E+03  0.22890584936E+03  0.80450357304E+02 0.  0.
        -11    1    3    3    0    0 -0.63799322788E+02 -0.30912595462E+01 -0.14304447608E+03  0.15665768928E+03  0.00000000000E+00 0.  1.
         12    1    3    3    0    0  0.25113390620E+02  0.13242113321E+01 -0.67730057661E+02  0.72248160079E+02  0.00000000000E+00 0. -1.
         21    1    1    2  502  501  0.38685932168E+02  0.17670482141E+01 -0.32605365696E+03  0.32834541420E+03  0.00000000000E+00 0. -1.
<mgrwt>
<rscale>  1 0.89285966E+02</rscale>
<asrwt>0</asrwt>
<pdfrwt beam="1">  1        2 0.84159971E-01 0.89285966E+02</pdfrwt>
<pdfrwt beam="2">  1       -1 0.15710054E-02 0.89285966E+02</pdfrwt>
<totfact> 0.54976222E+04</totfact>
</mgrwt>
</event>
<event>
 6    2  0.1063641E+001  0.9660824E+02  0.7546771E-02  0.1287594E+00
         -1   -1    0    0    0  501 -0.00000000000E+00  0.00000000000E+00  0.23001145290E+03  0.23001145290E+03  0.00000000000E+00 0.  1.
          2   -1    0    0  502    0  0.00000000000E+00 -0.00000000000E+00 -0.16050948923E+02  0.16050948923E+02  0.00000000000E+00 0. -1.
         24    2    1    2    0    0  0.10163575853E+02 -0.21736724398E+02  0.18252599100E+03  0.20651607370E+03  0.93580809178E+02 0.  0.
        -11    1    3    3    0    0 -0.16631363561E+02  0.29400945101E+02  0.10189150218E+03  0.10734475322E+03  0.00000000000E+00 0.  1.
         12    1    3    3    0    0  0.26794939414E+02 -0.51137669499E+02  0.80634488815E+02  0.99171320483E+02  0.00000000000E+00 0. -1.
         21    1    1    2  502  501 -0.10163575853E+02  0.21736724398E+02  0.31434512983E+02  0.39546328125E+02  0.00000000000E+00 0.  1.
<mgrwt>
<rscale>  1 0.96608236E+02</rscale>
<asrwt>0</asrwt>
<pdfrwt beam="1">  1        2 0.24693769E-02 0.96608236E+02</pdfrwt>
<pdfrwt beam="2">  1       -1 0.35386375E-01 0.96608236E+02</pdfrwt>
<totfact> 0.31606283E+04</totfact>
</mgrwt>
</event>
<event>
 6    2  0.1063641E+001  0.9093262E+02  0.7546771E-02  0.1300609E+00
         -1   -1    0    0    0  501 -0.00000000000E+00  0.00000000000E+00  0.26514705895E+01  0.26514705895E+01  0.00000000000E+00 0.  1.
          2   -1    0    0  502    0  0.00000000000E+00 -0.00000000000E+00 -0.29243845102E+04  0.29243845102E+04  0.00000000000E+00 0. -1.
         24    2    1    2    0    0  0.39460322420E+02 -0.19178040846E+02 -0.85215279361E+03  0.85699073758E+03  0.79648140878E+02 0.  0.
        -13    1    3    3    0    0  0.17095287901E+01  0.68188719265E+01 -0.50668555292E+01  0.86655944971E+01  0.00000000000E+00 0.  1.
         14    1    3    3    0    0  0.37750793630E+02 -0.25996912773E+02 -0.84708593808E+03  0.84832514308E+03  0.00000000000E+00 0. -1.
         21    1    1    2  502  501 -0.39460322420E+02  0.19178040846E+02 -0.20695802460E+04  0.20700452432E+04  0.00000000000E+00 0. -1.
<mgrwt>
<rscale>  1 0.90932616E+02</rscale>
<asrwt>0</asrwt>
<pdfrwt beam="1">  1        2 0.44990581E+00 0.90932616E+02</pdfrwt>
<pdfrwt beam="2">  1       -1 0.40791810E-03 0.90932616E+02</pdfrwt>
<totfact> 0.17511465E+04</totfact>
</mgrwt>
</event>
<event>
 6    2  0.1063641E+001  0.8570628E+02  0.7546771E-02  0.1313596E+00
         -1   -1    0    0    0  501 -0.00000000000E+00  0.00000000000E+00  0.46206394501E+02  0.46206394501E+02  0.00000000000E+00 0.  1.
          2   -1    0    0  502    0  0.00000000000E+00 -0.00000000000E+00 -0.77980259001E+02  0.77980259001E+02  0.00000000000E+00 0. -1.
         24    2    1    2    0    0 -0.21719624448E+02  0.25503824453E+02 -0.29380033521E+02  0.90602169366E+02  0.78888399504E+02 0.  0.
        -11    1    3    3    0    0  0.25972342965E+02  0.20966053214E+02 -0.26480790507E+02  0.42607161984E+02  0.00000000000E+00 0.  1.
         12    1    3    3    0    0 -0.47691967413E+02  0.45377712387E+01 -0.28992430146E+01  0.47995007382E+02  0.00000000000E+00 0. -1.
         21    1    1    2  502  501  0.21719624448E+02 -0.25503824453E+02 -0.23938309793E+01  0.33584484136E+02  0.00000000000E+00 0. -1.
<mgrwt>
<rscale>  1 0.85706282E+02</rscale>
<asrwt>0</asrwt>
<pdfrwt beam="1">  1        2 0.11996963E-01 0.85706282E+02</pdfrwt>
<pdfrwt beam="2">  1       -1 0.71086762E-02 0.85706282E+02</pdfrwt>
<totfact> 0.51361868E+04</totfact>
</mgrwt>
</event>
<event>
 6    2  0.1063641E+001  0.9222831E+02  0.7546771E-02  0.1297544E+00
         -1   -1    0    0    0  501 -0.00000000000E+00  0.00000000000E+00  0.13699826871E+02  0.13699826871E+02  0.00000000000E+00 0.  1.
          2   -1    0    0  502    0  0.00000000000E+00 -0.00000000000E+00 -0.68526069196E+03  0.68526069196E+03  0.00000000000E+00 0. -1.
         24    2    1    2    0    0 -0.34431925722E+02  0.32760705947E+02 -0.15607518642E+03  0.18128851237E+03  0.79039480877E+02 0.  0.
        -13    1    3    3    0    0  0.65834285141E+01  0.47831566368E+02 -0.75256280810E+02  0.89413131438E+02  0.00000000000E+00 0.  1.
         14    1    3    3    0    0 -0.41015354236E+02 -0.15070860421E+02 -0.80818905609E+02  0.91875380928E+02  0.00000000000E+00 0. -1.
         21    1    1    2  502  501  0.34431925722E+02 -0.32760705947E+02 -0.51548567867E+03  0.51767200646E+03  0.00000000000E+00 0. -1.
<mgrwt>
<rscale>  1 0.92228309E+02</rscale>
<asrwt>0</asrwt>
<pdfrwt beam="1">  1        2 0.10542470E+00 0.92228309E+02</pdfrwt>
<pdfrwt beam="2">  1       -1 0.21076661E-02 0.92228309E+02</pdfrwt>
<totfact> 0.28177884E+04</totfact>
</mgrwt>
</event>
<event>
 6    2  0.1063641E+001  0.8631540E+02  0.7546771E-02  0.1312028E+00
          2   -1    0    0  502    0  0.00000000000E+00  0.00000000000E+00  0.13800569839E+04  0.13800569839E+04  0.00000000000E+00 0. -1.
         -1   -1    0    0    0  501 -0.00000000000E+00 -0.00000000000E+00 -0.24472832120E+01  0.24472832120E+01  0.00000000000E+00 0.  1.
         24    2    1    2    0    0 -0.15834146135E+02  0.24968426333E+02  0.97736578010E+03  0.98116981997E+03  0.81093803752E+02 0.  0.
        -13    1    3    3    0    0 -0.40093182911E+02  0.35279173808E+01  0.26215323824E+03  0.26522486655E+03  0.00000000000E+00 0.  1.
         14    1    3    3    0    0  0.24259036776E+02  0.21440508952E+02  0.71521254186E+03  0.71594495342E+03  0.00000000000E+00 0. -1.
         21    1    1    2  502  501  0.15834146135E+02 -0.24968426333E+02  0.40024392061E+03  0.40133444717E+03  0.00000000000E+00 0.  1.
<mgrwt>
<rscale>  1 0.86315396E+02</rscale>
<asrwt>0</asrwt>
<pdfrwt beam="1">  1        2 0.21231584E+00 0.86315396E+02</pdfrwt>
<pdfrwt beam="2">  1       -1 0.37650621E-03 0.86315396E+02</pdfrwt>
<totfact> 0.12260586E+05</totfact>
</mgrwt>
</event>
<event>
 6    2  0.1063641E+001  0.8362483E+02  0.7546771E-02  0.1319068E+00
         -1   -1    0    0    0  501 -0.00000000000E+00  0.00000000000E+00  0.49306214062E+01  0.49306214062E+01  0.00000000000E+00 0.  1.
          2   -1    0    0  502    0  0.00000000000E+00 -0.00000000000E+00 -0.74930437190E+03  0.74930437190E+03  0.00000000000E+00 0. -1.
         24    2    1    2    0    0  0.20085977579E+02  0.10039247678E+02 -0.37643875047E+03  0.38561540995E+03  0.80553575639E+02 0.  0.
        -11    1    3    3    0    0 -0.18252434556E+02  0.24163081377E+02 -0.67433977083E+02  0.73921222488E+02  0.00000000000E+00 0.  1.
         12    1    3    3    0    0  0.38338412135E+02 -0.14123833699E+02 -0.30900477338E+03  0.31169418746E+03  0.00000000000E+00 0. -1.
         21    1    1    2  502  501 -0.20085977579E+02 -0.10039247678E+02 -0.36793500003E+03  0.36861958336E+03  0.00000000000E+00 0. -1.
<mgrwt>
<rscale>  1 0.83624826E+02</rscale>
<asrwt>0</asrwt>
<pdfrwt beam="1">  1        2 0.11527759E+00 0.83624826E+02</pdfrwt>
<pdfrwt beam="2">  1       -1 0.75855720E-03 0.83624826E+02</pdfrwt>
<totfact> 0.10639777E+05</totfact>
</mgrwt>
</event>
<event>
 6    2  0.1063641E+001  0.9829664E+02  0.7546771E-02  0.1283919E+00
          2   -1    0    0  502    0  0.00000000000E+00  0.00000000000E+00  0.41285455401E+03  0.41285455401E+03  0.00000000000E+00 0. -1.
         -1   -1    0    0    0  501 -0.00000000000E+00 -0.00000000000E+00 -0.88442541313E+01  0.88442541313E+01  0.00000000000E+00 0.  1.
         24    2    1    2    0    0  0.12415833949E+02 -0.17342644816E+02  0.30623408922E+03  0.32162329848E+03  0.95954720921E+02 0.  0.
        -11    1    3    3    0    0 -0.36600832169E+02  0.97160973270E+01  0.79204817955E+02  0.87791950941E+02  0.00000000000E+00 0.  1.
         12    1    3    3    0    0  0.49016666119E+02 -0.27058742143E+02  0.22702927126E+03  0.23383134754E+03  0.00000000000E+00 0. -1.
         21    1    1    2  502  501 -0.12415833949E+02  0.17342644816E+02  0.97776210658E+02  0.10007550965E+03  0.00000000000E+00 0. -1.
<mgrwt>
<rscale>  1 0.98296636E+02</rscale>
<asrwt>0</asrwt>
<pdfrwt beam="1">  1        2 0.63516070E-01 0.98296636E+02</pdfrwt>
<pdfrwt beam="2">  1       -1 0.13606548E-02 0.98296636E+02</pdfrwt>
<totfact> 0.92425807E+04</totfact>
</mgrwt>
</event>
<event>
 6    2  0.1063641E+001  0.1022393E+03  0.7546771E-02  0.1275656E+00
         -1   -1    0    0    0  501 -0.00000000000E+00  0.00000000000E+00  0.60125324758E+02  0.60125324758E+02  0.00000000000E+00 0.  1.
          2   -1    0    0  502    0  0.00000000000E+00 -0.00000000000E+00 -0.20333961628E+04  0.20333961628E+04  0.00000000000E+00 0. -1.
         24    2    1    2    0    0  0.56347091345E+02 -0.33303007342E+02  0.15731515786E+02  0.10344248196E+03  0.78541590788E+02 0.  0.
        -11    1    3    3    0    0  0.51734351600E+02 -0.47469143737E+02  0.35509652683E+02  0.78680989930E+02  0.00000000000E+00 0.  1.
         12    1    3    3    0    0  0.46127397446E+01  0.14166136395E+02 -0.19778136897E+02  0.24761492028E+02  0.00000000000E+00 0. -1.
         21    1    1    2  502  501 -0.56347091345E+02  0.33303007342E+02 -0.19890023538E+04  0.19900790056E+04  0.00000000000E+00 0. -1.
<mgrwt>
<rscale>  1 0.10223926E+03</rscale>
<asrwt>0</asrwt>
<pdfrwt beam="1">  1        2 0.31283018E+00 0.10223926E+03</pdfrwt>
<pdfrwt beam="2">  1       -1 0.92500501E-02 0.10223926E+03</pdfrwt>
<totfact> 0.58454923E+02</totfact>
</mgrwt>
</event>
<event>
 6    2  0.1063641E+001  0.7421879E+02  0.7546771E-02  0.1346307E+00
         -1   -1    0    0    0  501 -0.00000000000E+00  0.00000000000E+00  0.28970782510E+01  0.28970782510E+01  0.00000000000E+00 0.  1.
          2   -1    0    0  502    0  0.00000000000E+00 -0.00000000000E+00 -0.83564449037E+03  0.83564449037E+03  0.00000000000E+00 0. -1.
         24    2    1    2    0    0  0.91797201350E+01 -0.18411382519E+02 -0.54063983488E+03  0.54571041770E+03  0.71310466704E+02 0.  0.
        -13    1    3    3    0    0  0.13114821477E+02 -0.41087946110E+02 -0.45473741654E+03  0.45677821299E+03  0.00000000000E+00 0.  1.
         14    1    3    3    0    0 -0.39351013418E+01  0.22676563591E+02 -0.85902418338E+02  0.88932204714E+02  0.00000000000E+00 0. -1.
         21    1    1    2  502  501 -0.91797201350E+01  0.18411382519E+02 -0.29210757724E+03  0.29283115092E+03  0.00000000000E+00 0. -1.
<mgrwt>
<rscale>  1 0.74218791E+02</rscale>
<asrwt>0</asrwt>
<pdfrwt beam="1">  1        2 0.12856064E+00 0.74218791E+02</pdfrwt>
<pdfrwt beam="2">  1       -1 0.44570453E-03 0.74218791E+02</pdfrwt>
<totfact> 0.19236282E+05</totfact>
</mgrwt>
</event>
<event>
 6    2  0.1063641E+001  0.8021700E+02  0.7546771E-02  0.1328437E+00
         -1   -1    0    0    0  501 -0.00000000000E+00  0.00000000000E+00  0.24009791834E+03  0.24009791834E+03  0.00000000000E+00 0.  1.
          2   -1    0    0  502    0  0.00000000000E+00 -0.00000000000E+00 -0.11214611865E+02  0.11214611865E+02  0.00000000000E+00 0. -1.
         24    2    1    2    0    0  0.32845881778E+01 -0.19867482706E+02  0.20461638999E+03  0.21977860206E+03  0.77648319249E+02 0.  0.
        -11    1    3    3    0    0  0.41341825928E+01  0.36288475039E+01  0.19383465395E+03  0.19391269446E+03  0.00000000000E+00 0.  1.
         12    1    3    3    0    0 -0.84959441501E+00 -0.23496330210E+02  0.10781736038E+02  0.25865907601E+02  0.00000000000E+00 0. -1.
         21    1    1    2  502  501 -0.32845881778E+01  0.19867482706E+02  0.24266916487E+02  0.31533928147E+02  0.00000000000E+00 0. -1.
<mgrwt>
<rscale>  1 0.80216999E+02</rscale>
<asrwt>0</asrwt>
<pdfrwt beam="1">  1        2 0.17253251E-02 0.80216999E+02</pdfrwt>
<pdfrwt beam="2">  1       -1 0.36938138E-01 0.80216999E+02</pdfrwt>
<totfact> 0.46370952E+04</totfact>
</mgrwt>
</event>
<event>
 6    2  0.1063641E+001  0.8293099E+02  0.7546771E-02  0.1320934E+00
          2   -1    0    0  502    0  0.00000000000E+00  0.00000000000E+00  0.22397230459E+04  0.22397230459E+04  0.00000000000E+00 0. -1.
         -1   -1    0    0    0  501 -0.00000000000E+00 -0.00000000000E+00 -0.15982233794E+01  0.15982233794E+01  0.00000000000E+00 0.  1.
         24    2    1    2    0    0  0.26262268936E+02  0.18816556879E+01  0.11998182388E+04  0.12026809036E+04  0.78640335426E+02 0.  0.
        -11    1    3    3    0    0 -0.11694871177E+02  0.29517280962E+02  0.68192471561E+03  0.68266342926E+03  0.00000000000E+00 0.  1.
         12    1    3    3    0    0  0.37957140114E+02 -0.27635625274E+02  0.51789352317E+03  0.52001747433E+03  0.00000000000E+00 0. -1.
         21    1    1    2  502  501 -0.26262268936E+02 -0.18816556879E+01  0.10383065837E+04  0.10386403657E+04  0.00000000000E+00 0. -1.
<mgrwt>
<rscale>  1 0.82930994E+02</rscale>
<asrwt>0</asrwt>
<pdfrwt beam="1">  1        2 0.34457026E+00 0.82930994E+02</pdfrwt>
<pdfrwt beam="2">  1       -1 0.24588231E-03 0.82930994E+02</pdfrwt>
<totfact> 0.81319850E+04</totfact>
</mgrwt>
</event>
<event>
 6    2  0.1063641E+001  0.8654155E+02  0.7546771E-02  0.1311450E+00
         -1   -1    0    0    0  501 -0.00000000000E+00  0.00000000000E+00  0.71685108224E+03  0.71685108224E+03  0.00000000000E+00 0.  1.
          2   -1    0    0  502    0  0.00000000000E+00 -0.00000000000E+00 -0.17197734805E+02  0.17197734805E+02  0.00000000000E+00 0. -1.
         24    2    1    2    0    0 -0.19682130043E+02  0.25176497560E+02  0.69659027210E+03  0.70194547293E+03  0.80425105037E+02 0.  0.
        -13    1    3    3    0    0  0.31321032325E+02  0.14082204375E+02  0.27996001059E+03  0.28205836821E+03  0.00000000000E+00 0.  1.
         14    1    3    3    0    0 -0.51003162369E+02  0.11094293185E+02  0.41663026151E+03  0.41988710473E+03  0.00000000000E+00 0. -1.
         21    1    1    2  502  501  0.19682130043E+02 -0.25176497560E+02  0.30630753350E+01  0.32103344108E+02  0.00000000000E+00 0. -1.
<mgrwt>
<rscale>  1 0.86541550E+02</rscale>
<asrwt>0</asrwt>
<pdfrwt beam="1">  1        2 0.26458059E-02 0.86541550E+02</pdfrwt>
<pdfrwt beam="2">  1       -1 0.11028476E+00 0.86541550E+02</pdfrwt>
<totfact> 0.31992355E+03</totfact>
</mgrwt>
</event>
<event>
 6    2  0.1063641E+001  0.9660807E+02  0.7546771E-02  0.1287595E+00
         -1   -1    0    0    0  501 -0.00000000000E+00  0.00000000000E+00  0.88518464856E+02  0.88518464856E+02  0.00000000000E+00 0.  1.
          2   -1    0    0  502    0  0.00000000000E+00 -0.00000000000E+00 -0.13897024517E+03  0.13897024517E+03  0.00000000000E+00 0. -1.
         24    2    1    2    0    0  0.83716212523E+01  0.55198308070E+02  0.52810536206E+02  0.11010028100E+03  0.78842766858E+02 0.  0.
        -11    1    3    3    0    0  0.33092547170E+02  0.27623763727E+02  0.58464102545E+02  0.72637733218E+02  0.00000000000E+00 0.  1.
         12    1    3    3    0    0 -0.24720925918E+02  0.27574544343E+02 -0.56535663398E+01  0.37462547782E+02  0.00000000000E+00 0. -1.
         21    1    1    2  502  501 -0.83716212523E+01 -0.55198308070E+02 -0.10326231652E+03  0.11738842903E+03  0.00000000000E+00 0. -1.
<mgrwt>
<rscale>  1 0.96608070E+02</rscale>
<asrwt>0</asrwt>
<pdfrwt beam="1">  1        2 0.21380038E-01 0.96608070E+02</pdfrwt>
<pdfrwt beam="2">  1       -1 0.13618225E-01 0.96608070E+02</pdfrwt>
<totfact> 0.10055324E+04</totfact>
</mgrwt>
</event>
<event>
 6    2  0.1063641E+001  0.8063947E+02  0.7546771E-02  0.1327246E+00
         -1   -1    0    0    0  501 -0.00000000000E+00  0.00000000000E+00  0.32272719482E+03  0.32272719482E+03  0.00000000000E+00 0.  1.
          2   -1    0    0  502    0  0.00000000000E+00 -0.00000000000E+00 -0.85673443593E+01  0.85673443593E+01  0.00000000000E+00 0. -1.
         24    2    1    2    0    0 -0.19168885299E+02 -0.10343912787E+02  0.27385160802E+03  0.28547754338E+03  0.77642010951E+02 0.  0.
        -11    1    3    3    0    0 -0.43458464955E+02  0.14443193940E+02  0.14741227261E+03  0.15436198413E+03  0.00000000000E+00 0.  1.
         12    1    3    3    0    0  0.24289579656E+02 -0.24787106728E+02  0.12643933541E+03  0.13111555925E+03  0.00000000000E+00 0. -1.
         21    1    1    2  502  501  0.19168885299E+02  0.10343912787E+02  0.40308242446E+02  0.45816995804E+02  0.00000000000E+00 0. -1.
<mgrwt>
<rscale>  1 0.80639473E+02</rscale>
<asrwt>0</asrwt>
<pdfrwt beam="1">  1        2 0.13180532E-02 0.80639473E+02</pdfrwt>
<pdfrwt beam="2">  1       -1 0.49650328E-01 0.80639473E+02</pdfrwt>
<totfact> 0.39818416E+04</totfact>
</mgrwt>
</event>
<event>
 6    2  0.1063641E+001  0.7890878E+02  0.7546771E-02  0.1332177E+00
          2   -1    0    0  502    0  0.00000000000E+00  0.00000000000E+00  0.47024569943E+02  0.47024569943E+02  0.00000000000E+00 0. -1.
         -1   -1    0    0    0  501 -0.00000000000E+00 -0.00000000000E+00 -0.73739648256E+02  0.73739648256E+02  0.00000000000E+00 0.  1.
         24    2    1    2    0    0 -0.15892690633E+02  0.16190294102E+02 -0.45695205123E+02  0.91184690610E+02  0.75577065250E+02 0.  0.
        -11    1    3    3    0    0  0.17581542235E+02  0.34023666542E+02 -0.34738000596E+02  0.51705407819E+02  0.00000000000E+00 0.  1.
         12    1    3    3    0    0 -0.33474232868E+02 -0.17833372440E+02 -0.10957204527E+02  0.39479282791E+02  0.00000000000E+00 0. -1.
         21    1    1    2  502  501  0.15892690633E+02 -0.16190294102E+02  0.18980126810E+02  0.29579527589E+02  0.00000000000E+00 0.  1.
<mgrwt>
<rscale>  1 0.78908783E+02</rscale>
<asrwt>0</asrwt>
<pdfrwt beam="1">  1        2 0.72345493E-02 0.78908783E+02</pdfrwt>
<pdfrwt beam="2">  1       -1 0.11344561E-01 0.78908783E+02</pdfrwt>
<totfact> 0.46651766E+04</totfact>
</mgrwt>
</event>
<event>
 6    2  0.3080631E+001  0.8871186E+02  0.7546771E-02  0.1306001E+00
         -1   -1    0    0    0  501 -0.00000000000E+00  0.00000000000E+00  0.88477153748E+02  0.88477153748E+02  0.00000000000E+00 0.  1.
          2   -1    0    0  502    0  0.00000000000E+00 -0.00000000000E+00 -0.28612453458E+03  0.28612453458E+03  0.00000000000E+00 0. -1.
         24    2    1    2    0    0  0.36538399670E+02  0.16586347487E+01 -0.27504462964E+03  0.28899713328E+03  0.80820721544E+02 0.  0.
        -13    1    3    3    0    0 -0.17556587643E+02  0.12407120744E+02 -0.15975003332E+03  0.16119008518E+03  0.00000000000E+00 0.  1.
         14    1    3    3    0    0  0.54094987312E+02 -0.10748485995E+02 -0.11529459633E+03  0.12780704811E+03  0.00000000000E+00 0. -1.
         21    1    1    2  502  501 -0.36538399670E+02 -0.16586347487E+01  0.77397248815E+02  0.85604555041E+02  0.00000000000E+00 0.  1.
<mgrwt>
<rscale>  1 0.88711864E+02</rscale>
<asrwt>0</asrwt>
<pdfrwt beam="1">  1        2 0.44019160E-01 0.88711864E+02</pdfrwt>
<pdfrwt beam="2">  1       -1 0.13611870E-01 0.88711864E+02</pdfrwt>
<totfact> 0.46126325E+03</totfact>
</mgrwt>
</event>
<event>
 6    2  0.1063641E+001  0.8630743E+02  0.7546771E-02  0.1312048E+00
          2   -1    0    0  502    0  0.00000000000E+00  0.00000000000E+00  0.11698136916E+02  0.11698136916E+02  0.00000000000E+00 0. -1.
         -1   -1    0    0    0  501 -0.00000000000E+00 -0.00000000000E+00 -0.29363209634E+03  0.29363209634E+03  0.00000000000E+00 0.  1.
         24    2    1    2    0    0 -0.87541611889E+01  0.29436153524E+02 -0.19988461926E+03  0.21772191918E+03  0.80658853238E+02 0.  0.
        -11    1    3    3    0    0 -0.42847808267E+02  0.29510652648E+02 -0.11366425070E+03  0.12500550060E+03  0.00000000000E+00 0.  1.
         12    1    3    3    0    0  0.34093647078E+02 -0.74499124446E-01 -0.86220368552E+02  0.92716418581E+02  0.00000000000E+00 0. -1.
         21    1    1    2  502  501  0.87541611889E+01 -0.29436153524E+02 -0.82049340167E+02  0.87608314070E+02  0.00000000000E+00 0. -1.
<mgrwt>
<rscale>  1 0.86307434E+02</rscale>
<asrwt>0</asrwt>
<pdfrwt beam="1">  1        2 0.17997132E-02 0.86307434E+02</pdfrwt>
<pdfrwt beam="2">  1       -1 0.45174172E-01 0.86307434E+02</pdfrwt>
<totfact> 0.31205564E+04</totfact>
</mgrwt>
</event>
<event>
 6    2  0.1063641E+001  0.8410380E+02  0.7546771E-02  0.1317793E+00
          2   -1    0    0  502    0  0.00000000000E+00  0.00000000000E+00  0.60807916457E+02  0.60807916457E+02  0.00000000000E+00 0. -1.
         -1   -1    0    0    0  501 -0.00000000000E+00 -0.00000000000E+00 -0.51562104606E+02  0.51562104606E+02  0.00000000000E+00 0.  1.
         24    2    1    2    0    0  0.11691523965E+02  0.23240565562E+02 -0.17597870180E+01  0.84122210056E+02  0.79978958196E+02 0.  0.
        -13    1    3    3    0    0 -0.23267214943E+02  0.13466510845E+02 -0.28392609357E+02  0.39100517537E+02  0.00000000000E+00 0.  1.
         14    1    3    3    0    0  0.34958738907E+02  0.97740547162E+01  0.26632822339E+02  0.45021692519E+02  0.00000000000E+00 0. -1.
         21    1    1    2  502  501 -0.11691523965E+02 -0.23240565562E+02  0.11005598868E+02  0.28247811007E+02  0.00000000000E+00 0. -1.
<mgrwt>
<rscale>  1 0.84103801E+02</rscale>
<asrwt>0</asrwt>
<pdfrwt beam="1">  1        2 0.93550640E-02 0.84103801E+02</pdfrwt>
<pdfrwt beam="2">  1       -1 0.79326316E-02 0.84103801E+02</pdfrwt>
<totfact> 0.58685775E+04</totfact>
</mgrwt>
</event>
<event>
 6    2  0.1063641E+001  0.8491101E+02  0.7546771E-02  0.1315665E+00
         -1   -1    0    0    0  501 -0.00000000000E+00  0.00000000000E+00  0.32380831847E+01  0.32380831847E+01  0.00000000000E+00 0.  1.
          2   -1    0    0  502    0  0.00000000000E+00 -0.00000000000E+00 -0.11438992975E+04  0.11438992975E+04  0.00000000000E+00 0. -1.
         24    2    1    2    0    0 -0.86661437906E+01  0.27302396993E+02 -0.63313017472E+03  0.63879863626E+03  0.79933451183E+02 0.  0.
        -11    1    3    3    0    0  0.34721414052E+02  0.10271509419E+02 -0.20881397353E+03  0.21193007347E+03  0.00000000000E+00 0.  1.
         12    1    3    3    0    0 -0.43387557842E+02  0.17030887574E+02 -0.42431620118E+03  0.42686856279E+03  0.00000000000E+00 0. -1.
         21    1    1    2  502  501  0.86661437906E+01 -0.27302396993E+02 -0.50753103962E+03  0.50833874444E+03  0.00000000000E+00 0.  1.
<mgrwt>
<rscale>  1 0.84911010E+02</rscale>
<asrwt>0</asrwt>
<pdfrwt beam="1">  1        2 0.17598440E+00 0.84911010E+02</pdfrwt>
<pdfrwt beam="2">  1       -1 0.49816695E-03 0.84911010E+02</pdfrwt>
<totfact> 0.11064514E+05</totfact>
</mgrwt>
</event>
<event>
 6    2  0.1063641E+001  0.8678224E+02  0.7546771E-02  0.1310836E+00
         -1   -1    0    0    0  501 -0.00000000000E+00  0.00000000000E+00  0.51779939928E+02  0.51779939928E+02  0.00000000000E+00 0.  1.
          2   -1    0    0  502    0  0.00000000000E+00 -0.00000000000E+00 -0.21277128579E+03  0.21277128579E+03  0.00000000000E+00 0. -1.
         24    2    1    2    0    0 -0.12970476936E+02 -0.26502416858E+02  0.13286338104E+02  0.87793418253E+02  0.81612169050E+02 0.  0.
        -11    1    3    3    0    0 -0.46667431910E+02 -0.54250332605E+01  0.87480082541E+01  0.47789202079E+02  0.00000000000E+00 0.  1.
         12    1    3    3    0    0  0.33696954974E+02 -0.21077383597E+02  0.45383298500E+01  0.40004216173E+02  0.00000000000E+00 0. -1.
         21    1    1    2  502  501  0.12970476936E+02  0.26502416858E+02 -0.17427768397E+03  0.17675780747E+03  0.00000000000E+00 0. -1.
<mgrwt>
<rscale>  1 0.86782242E+02</rscale>
<asrwt>0</asrwt>
<pdfrwt beam="1">  1        2 0.32734044E-01 0.86782242E+02</pdfrwt>
<pdfrwt beam="2">  1       -1 0.79661446E-02 0.86782242E+02</pdfrwt>
<totfact> 0.14135204E+04</totfact>
</mgrwt>
</event>
<event>
 6    2  0.1063641E+001  0.8742914E+02  0.7546771E-02  0.1309200E+00
         -1   -1    0    0    0  501 -0.00000000000E+00  0.00000000000E+00  0.48903570457E+02  0.48903570457E+02  0.00000000000E+00 0.  1.
          2   -1    0    0  502    0  0.00000000000E+00 -0.00000000000E+00 -0.13737237729E+03  0.13737237729E+03  0.00000000000E+00 0. -1.
         24    2    1    2    0    0 -0.80609246505E+01  0.29332783517E+02 -0.11599273308E+03  0.14525208626E+03  0.81966235370E+02 0.  0.
        -13    1    3    3    0    0  0.29730445140E+02 -0.10526152800E+02 -0.32291136764E+02  0.45137753317E+02  0.00000000000E+00 0.  1.
         14    1    3    3    0    0 -0.37791369790E+02  0.39858936317E+02 -0.83701596320E+02  0.10011433295E+03  0.00000000000E+00 0. -1.
         21    1    1    2  502  501  0.80609246505E+01 -0.29332783517E+02  0.27523926248E+02  0.41023861486E+02  0.00000000000E+00 0.  1.
<mgrwt>
<rscale>  1 0.87429140E+02</rscale>
<asrwt>0</asrwt>
<pdfrwt beam="1">  1        2 0.21134212E-01 0.87429140E+02</pdfrwt>
<pdfrwt beam="2">  1       -1 0.75236262E-02 0.87429140E+02</pdfrwt>
<totfact> 0.24732897E+04</totfact>
</mgrwt>
</event>
<event>
 6    2  0.1063641E+001  0.8191403E+02  0.7546771E-02  0.1323706E+00
          2   -1    0    0  502    0  0.00000000000E+00  0.00000000000E+00  0.23307507205E+04  0.23307507205E+04  0.00000000000E+00 0. -1.
         -1   -1    0    0    0  501 -0.00000000000E+00 -0.00000000000E+00 -0.15617702380E+01  0.15617702380E+01  0.00000000000E+00 0.  1.
         24    2    1    2    0    0  0.16021608396E+02  0.15140835029E+02  0.11483657818E+04  0.11512835783E+04  0.78892154549E+02 0.  0.
        -11    1    3    3    0    0  0.16978214490E+01 -0.12331987085E+02  0.29887730656E+02  0.32376487563E+02  0.00000000000E+00 0.  1.
         12    1    3    3    0    0  0.14323786947E+02  0.27472822113E+02  0.11184780511E+04  0.11189070907E+04  0.00000000000E+00 0. -1.
         21    1    1    2  502  501 -0.16021608396E+02 -0.15140835029E+02  0.11808231685E+04  0.11810289124E+04  0.00000000000E+00 0. -1.
<mgrwt>
<rscale>  1 0.81914033E+02</rscale>
<asrwt>0</asrwt>
<pdfrwt beam="1">  1        2 0.35857425E+00 0.81914033E+02</pdfrwt>
<pdfrwt beam="2">  1       -1 0.24027421E-03 0.81914033E+02</pdfrwt>
<totfact> 0.75356340E+04</totfact>
</mgrwt>
</event>
<event>
 6    2  0.1063641E+001  0.1152242E+03  0.7546771E-02  0.1251190E+00
         -1   -1    0    0    0  501 -0.00000000000E+00  0.00000000000E+00  0.61493612033E+02  0.61493612033E+02  0.00000000000E+00 0.  1.
          2   -1    0    0  502    0  0.00000000000E+00 -0.00000000000E+00 -0.26820645089E+03  0.26820645089E+03  0.00000000000E+00 0. -1.
         24    2    1    2    0    0  0.64107971498E+01  0.81961668684E+02 -0.89991678067E+01  0.11557507799E+03  0.80732894022E+02 0.  0.
        -11    1    3    3    0    0  0.16695515121E+02 -0.67578916587E+01  0.14612042019E+02  0.23193126068E+02  0.00000000000E+00 0.  1.
         12    1    3    3    0    0 -0.10284717971E+02  0.88719560343E+02 -0.23611209826E+02  0.92381951920E+02  0.00000000000E+00 0. -1.
         21    1    1    2  502  501 -0.64107971498E+01 -0.81961668684E+02 -0.19771367105E+03  0.21412498494E+03  0.00000000000E+00 0. -1.
<mgrwt>
<rscale>  1 0.11522419E+03</rscale>
<asrwt>0</asrwt>
<pdfrwt beam="1">  1        2 0.41262531E-01 0.11522419E+03</pdfrwt>
<pdfrwt beam="2">  1       -1 0.94605556E-02 0.11522419E+03</pdfrwt>
<totfact> 0.87568486E+03</totfact>
</mgrwt>
</event>
<event>
 6    2  0.1063641E+001  0.8750601E+02  0.7546771E-02  0.1309006E+00
         -1   -1    0    0    0  501 -0.00000000000E+00  0.00000000000E+00  0.55242909527E+02  0.55242909527E+02  0.00000000000E+00 0.  1.
          2   -1    0    0  502    0  0.00000000000E+00 -0.00000000000E+00 -0.64047323846E+02  0.64047323846E+02  0.00000000000E+00 0. -1.
         24    2    1    2    0    0  0.40054391309E+01  0.26264382988E+02  0.79725830087E+01  0.87868441639E+02  0.83375293702E+02 0.  0.
        -11    1    3    3    0    0  0.16611794420E+02 -0.11124099244E+02  0.34815014271E+02  0.40147011303E+02  0.00000000000E+00 0.  1.
         12    1    3    3    0    0 -0.12606355289E+02  0.37388482232E+02 -0.26842431262E+02  0.47721430337E+02  0.00000000000E+00 0. -1.
         21    1    1    2  502  501 -0.40054391309E+01 -0.26264382988E+02 -0.16776997328E+02  0.31421791733E+02  0.00000000000E+00 0.  1.
<mgrwt>
<rscale>  1 0.87506005E+02</rscale>
<asrwt>0</asrwt>
<pdfrwt beam="1">  1        2 0.98534344E-02 0.87506005E+02</pdfrwt>
<pdfrwt beam="2">  1       -1 0.84989092E-02 0.87506005E+02</pdfrwt>
<totfact> 0.49997628E+04</totfact>
</mgrwt>
</event>
<event>
 6    2  0.1063641E+001  0.8476722E+02  0.7546771E-02  0.1316042E+00
          2   -1    0    0  502    0  0.00000000000E+00  0.00000000000E+00  0.25422186678E+02  0.25422186678E+02  0.00000000000E+00 0. -1.
         -1   -1    0    0    0  501 -0.00000000000E+00 -0.00000000000E+00 -0.11531671501E+03  0.11531671501E+03  0.00000000000E+00 0.  1.
         24    2    1    2    0    0  0.17592423182E+02  0.15250901071E+02 -0.74255050922E+02  0.11269114615E+03  0.81507045688E+02 0.  0.
        -13    1    3    3    0    0  0.13010736262E+02  0.48196565054E+02 -0.54913819101E+02  0.74213985672E+02  0.00000000000E+00 0.  1.
         14    1    3    3    0    0  0.45816869206E+01 -0.32945663982E+02 -0.19341231821E+02  0.38477160481E+02  0.00000000000E+00 0. -1.
         21    1    1    2  502  501 -0.17592423182E+02 -0.15250901071E+02 -0.15639477409E+02  0.28047755535E+02  0.00000000000E+00 0. -1.
<mgrwt>
<rscale>  1 0.84767221E+02</rscale>
<asrwt>0</asrwt>
<pdfrwt beam="1">  1        2 0.39111056E-02 0.84767221E+02</pdfrwt>
<pdfrwt beam="2">  1       -1 0.17741033E-01 0.84767221E+02</pdfrwt>
<totfact> 0.51973944E+04</totfact>
</mgrwt>
</event>
<event>
 6    2  0.1063641E+001  0.8650807E+02  0.7546771E-02  0.1311535E+00
         -1   -1    0    0    0  501 -0.00000000000E+00  0.00000000000E+00  0.38362550945E+01  0.38362550945E+01  0.00000000000E+00 0.  1.
          2   -1    0    0  502    0  0.00000000000E+00 -0.00000000000E+00 -0.11181787515E+04  0.11181787515E+04  0.00000000000E+00 0. -1.
         24    2    1    2    0    0  0.67645076227E+01 -0.19780451667E+02 -0.50806728968E+03  0.51537948907E+03  0.83944160489E+02 0.  0.
        -11    1    3    3    0    0  0.44105216986E+02 -0.21339875204E+02 -0.27367886105E+03  0.27803017718E+03  0.00000000000E+00 0.  1.
         12    1    3    3    0    0 -0.37340709363E+02  0.15594235370E+01 -0.23438842863E+03  0.23734931188E+03  0.00000000000E+00 0. -1.
         21    1    1    2  502  501 -0.67645076227E+01  0.19780451667E+02 -0.60627520669E+03  0.60663551749E+03  0.00000000000E+00 0. -1.
<mgrwt>
<rscale>  1 0.86508074E+02</rscale>
<asrwt>0</asrwt>
<pdfrwt beam="1">  1        2 0.17202733E+00 0.86508074E+02</pdfrwt>
<pdfrwt beam="2">  1       -1 0.59019368E-03 0.86508074E+02</pdfrwt>
<totfact> 0.90428101E+04</totfact>
</mgrwt>
</event>
<event>
 6    2  0.1063641E+001  0.9773571E+02  0.7546771E-02  0.1285131E+00
         -1   -1    0    0    0  501 -0.00000000000E+00  0.00000000000E+00  0.23718507896E+02  0.23718507896E+02  0.00000000000E+00 0.  1.
          2   -1    0    0  502    0  0.00000000000E+00 -0.00000000000E+00 -0.46591991267E+03  0.46591991267E+03  0.00000000000E+00 0. -1.
         24    2    1    2    0    0  0.49454680917E+02 -0.26313835059E+02 -0.89524700417E+02  0.13254033715E+03  0.80087986667E+02 0.  0.
        -11    1    3    3    0    0  0.43767605398E+02  0.13910914824E+02 -0.16171998174E+02  0.48689324892E+02  0.00000000000E+00 0.  1.
         12    1    3    3    0    0  0.56870755187E+01 -0.40224749884E+02 -0.73352702243E+02  0.83851012263E+02  0.00000000000E+00 0. -1.
         21    1    1    2  502  501 -0.49454680917E+02  0.26313835059E+02 -0.35267670436E+03  0.35709808341E+03  0.00000000000E+00 0. -1.
<mgrwt>
<rscale>  1 0.97735710E+02</rscale>
<asrwt>0</asrwt>
<pdfrwt beam="1">  1        2 0.71679984E-01 0.97735710E+02</pdfrwt>
<pdfrwt beam="2">  1       -1 0.36490013E-02 0.97735710E+02</pdfrwt>
<totfact> 0.19733072E+04</totfact>
</mgrwt>
</event>
<event>
 6    2  0.1063641E+001  0.8406588E+02  0.7546771E-02  0.1317894E+00
         -1   -1    0    0    0  501 -0.00000000000E+00  0.00000000000E+00  0.95579513405E+00  0.95579513405E+00  0.00000000000E+00 0.  1.
          2   -1    0    0  502    0  0.00000000000E+00 -0.00000000000E+00 -0.33724158712E+04  0.33724158712E+04  0.00000000000E+00 0. -1.
         24    2    1    2    0    0  0.17366661218E+02 -0.23429753021E+02 -0.26090552384E+04  0.26104092225E+04  0.78844895160E+02 0.  0.
        -13    1    3    3    0    0  0.32997138094E+02 -0.34996977098E+02 -0.93130263378E+03  0.93254393742E+03  0.00000000000E+00 0.  1.
         14    1    3    3    0    0 -0.15630476876E+02  0.11567224077E+02 -0.16777526046E+04  0.16778652850E+04  0.00000000000E+00 0. -1.
         21    1    1    2  502  501 -0.17366661218E+02  0.23429753021E+02 -0.76240483771E+03  0.76296244391E+03  0.00000000000E+00 0. -1.
<mgrwt>
<rscale>  1 0.84065877E+02</rscale>
<asrwt>0</asrwt>
<pdfrwt beam="1">  1        2 0.51884509E+00 0.84065877E+02</pdfrwt>
<pdfrwt beam="2">  1       -1 0.14704204E-03 0.84065877E+02</pdfrwt>
<totfact> 0.39206302E+04</totfact>
</mgrwt>
</event>
<event>
 6    2  0.1063641E+001  0.8154889E+02  0.7546771E-02  0.1324713E+00
          2   -1    0    0  502    0  0.00000000000E+00  0.00000000000E+00  0.38314899545E+03  0.38314899545E+03  0.00000000000E+00 0. -1.
         -1   -1    0    0    0  501 -0.00000000000E+00 -0.00000000000E+00 -0.69283485166E+01  0.69283485166E+01  0.00000000000E+00 0.  1.
         24    2    1    2    0    0 -0.58941684026E+01  0.19752603362E+02  0.27784611205E+03  0.28956637107E+03  0.78900663546E+02 0.  0.
        -13    1    3    3    0    0 -0.66569898040E+01  0.43949700228E+02  0.92282476930E+02  0.10243020654E+03  0.00000000000E+00 0.  1.
         14    1    3    3    0    0  0.76282140140E+00 -0.24197096866E+02  0.18556363512E+03  0.18713616453E+03  0.00000000000E+00 0. -1.
         21    1    1    2  502  501  0.58941684026E+01 -0.19752603362E+02  0.98374534881E+02  0.10051097290E+03  0.00000000000E+00 0.  1.
<mgrwt>
<rscale>  1 0.81548889E+02</rscale>
<asrwt>0</asrwt>
<pdfrwt beam="1">  1        2 0.58945983E-01 0.81548889E+02</pdfrwt>
<pdfrwt beam="2">  1       -1 0.10659001E-02 0.81548889E+02</pdfrwt>
<totfact> 0.13726747E+05</totfact>
</mgrwt>
</event>
<event>
 6    2  0.1063641E+001  0.2773824E+03  0.7546771E-02  0.1097127E+00
          2   -1    0    0  502    0  0.00000000000E+00  0.00000000000E+00  0.52957069424E+03  0.52957069424E+03  0.00000000000E+00 0. -1.
         -1   -1    0    0    0  501 -0.00000000000E+00 -0.00000000000E+00 -0.35878652060E+03  0.35878652060E+03  0.00000000000E+00 0.  1.
         24    2    1    2    0    0  0.25478620874E+03 -0.80680447161E+02 -0.26079490235E+03  0.38072955055E+03  0.74267508766E+02 0.  0.
        -11    1    3    3    0    0  0.18303648687E+03 -0.28866645956E+02 -0.14674000377E+03  0.23636469170E+03  0.00000000000E+00 0.  1.
         12    1    3    3    0    0  0.71749721864E+02 -0.51813801206E+02 -0.11405489858E+03  0.14436485886E+03  0.00000000000E+00 0. -1.
         21    1    1    2  502  501 -0.25478620874E+03  0.80680447161E+02  0.43157907599E+03  0.50762766428E+03  0.00000000000E+00 0. -1.
<mgrwt>
<rscale>  1 0.27738242E+03</rscale>
<asrwt>0</asrwt>
<pdfrwt beam="1">  1        2 0.81472415E-01 0.27738242E+03</pdfrwt>
<pdfrwt beam="2">  1       -1 0.55197926E-01 0.27738242E+03</pdfrwt>
<totfact> 0.22836569E+02</totfact>
</mgrwt>
</event>
<event>
 6    2  0.1063641E+001  0.8241507E+02  0.7546771E-02  0.1322334E+00
         -1   -1    0    0    0  501 -0.00000000000E+00  0.00000000000E+00  0.19019168776E+02  0.19019168776E+02  0.00000000000E+00 0.  1.
          2   -1    0    0  502    0  0.00000000000E+00 -0.00000000000E+00 -0.20366634650E+03  0.20366634650E+03  0.00000000000E+00 0. -1.
         24    2    1    2    0    0  0.21613412459E+01 -0.21088983749E+02 -0.76392507757E+02  0.11237463548E+03  0.79641866041E+02 0.  0.
        -13    1    3    3    0    0 -0.33826358693E+02 -0.27560796686E+02 -0.28485936742E+02  0.52108239737E+02  0.00000000000E+00 0.  1.
         14    1    3    3    0    0  0.35987699939E+02  0.64718129362E+01 -0.47906571015E+02  0.60266395744E+02  0.00000000000E+00 0. -1.
         21    1    1    2  502  501 -0.21613412459E+01  0.21088983749E+02 -0.10825466997E+03  0.11031087980E+03  0.00000000000E+00 0. -1.
<mgrwt>
<rscale>  1 0.82415068E+02</rscale>
<asrwt>0</asrwt>
<pdfrwt beam="1">  1        2 0.31333284E-01 0.82415068E+02</pdfrwt>
<pdfrwt beam="2">  1       -1 0.29260260E-02 0.82415068E+02</pdfrwt>
<totfact> 0.63494827E+04</totfact>
</mgrwt>
</event>
<event>
 6    2  0.1063641E+001  0.9372930E+02  0.7546771E-02  0.1294064E+00
          2   -1    0    0  502    0  0.00000000000E+00  0.00000000000E+00  0.12823505584E+04  0.12823505584E+04  0.00000000000E+00 0. -1.
         -1   -1    0    0    0  501 -0.00000000000E+00 -0.00000000000E+00 -0.47179168223E+01  0.47179168223E+01  0.00000000000E+00 0.  1.
         24    2    1    2    0    0  0.43981678436E+02 -0.17576532854E+02  0.55278058046E+03  0.56067062758E+03  0.80881765299E+02 0.  0.
        -13    1    3    3    0    0  0.39543516356E+02 -0.41073032477E+02  0.22835486690E+03  0.23536488464E+03  0.00000000000E+00 0.  1.
         14    1    3    3    0    0  0.44381620808E+01  0.23496499622E+02  0.32442571356E+03  0.32530574295E+03  0.00000000000E+00 0. -1.
         21    1    1    2  502  501 -0.43981678436E+02  0.17576532854E+02  0.72485206115E+03  0.72639784767E+03  0.00000000000E+00 0. -1.
<mgrwt>
<rscale>  1 0.93729304E+02</rscale>
<asrwt>0</asrwt>
<pdfrwt beam="1">  1        2 0.19728442E+00 0.93729304E+02</pdfrwt>
<pdfrwt beam="2">  1       -1 0.72583438E-03 0.93729304E+02</pdfrwt>
<totfact> 0.55602521E+04</totfact>
</mgrwt>
</event>
<event>
 6    2  0.1063641E+001  0.8275543E+02  0.7546771E-02  0.1321409E+00
         -1   -1    0    0    0  501 -0.00000000000E+00  0.00000000000E+00  0.73600946754E+01  0.73600946754E+01  0.00000000000E+00 0.  1.
          2   -1    0    0  502    0  0.00000000000E+00 -0.00000000000E+00 -0.48856256685E+03  0.48856256685E+03  0.00000000000E+00 0. -1.
         24    2    1    2    0    0 -0.19616397384E+01  0.22938548576E+02 -0.24496169380E+03  0.25856274408E+03  0.79488591365E+02 0.  0.
        -11    1    3    3    0    0  0.17180393059E+02  0.24820561770E+02 -0.29376823050E+02  0.42121537541E+02  0.00000000000E+00 0.  1.
         12    1    3    3    0    0 -0.19142032798E+02 -0.18820131942E+01 -0.21558487075E+03  0.21644120654E+03  0.00000000000E+00 0. -1.
         21    1    1    2  502  501  0.19616397384E+01 -0.22938548576E+02 -0.23624077837E+03  0.23735991744E+03  0.00000000000E+00 0. -1.
<mgrwt>
<rscale>  1 0.82755430E+02</rscale>
<asrwt>0</asrwt>
<pdfrwt beam="1">  1        2 0.75163505E-01 0.82755430E+02</pdfrwt>
<pdfrwt beam="2">  1       -1 0.11323218E-02 0.82755430E+02</pdfrwt>
<totfact> 0.97723884E+04</totfact>
</mgrwt>
</event>
<event>
 6    2  0.1063641E+001  0.8698800E+02  0.7546771E-02  0.1310314E+00
         -3   -1    0    0    0  501 -0.00000000000E+00  0.00000000000E+00  0.50307115631E+03  0.50307115631E+03  0.00000000000E+00 0.  1.
          4   -1    0    0  502    0  0.00000000000E+00 -0.00000000000E+00 -0.63865267485E+01  0.63865267485E+01  0.00000000000E+00 0. -1.
         24    2    1    2    0    0  0.15874741332E+02  0.14081118768E+02  0.44772770321E+03  0.45609977871E+03  0.84360100786E+02 0.  0.
        -11    1    3    3    0    0 -0.30101891358E+01  0.25660589030E+01  0.42262134866E+03  0.42263985879E+03  0.00000000000E+00 0.  1.
         12    1    3    3    0    0  0.18884930468E+02  0.11515059865E+02  0.25106354549E+02  0.33459919922E+02  0.00000000000E+00 0. -1.
         21    1    1    2  502  501 -0.15874741332E+02 -0.14081118768E+02  0.48956926354E+02  0.53357904346E+02  0.00000000000E+00 0.  1.
<mgrwt>
<rscale>  1 0.86987999E+02</rscale>
<asrwt>0</asrwt>
<pdfrwt beam="1">  1        4 0.98254297E-03 0.86987999E+02</pdfrwt>
<pdfrwt beam="2">  1       -3 0.77395531E-01 0.86987999E+02</pdfrwt>
<totfact> 0.83870800E+03</totfact>
</mgrwt>
</event>
<event>
 6    2  0.1063641E+001  0.8626272E+02  0.7546771E-02  0.1312163E+00
          2   -1    0    0  502    0  0.00000000000E+00  0.00000000000E+00  0.55807411900E+02  0.55807411900E+02  0.00000000000E+00 0. -1.
         -1   -1    0    0    0  501 -0.00000000000E+00 -0.00000000000E+00 -0.14746854372E+03  0.14746854372E+03  0.00000000000E+00 0.  1.
         24    2    1    2    0    0  0.58146398234E+01  0.27899247431E+02 -0.12968692350E+03  0.15575607688E+03  0.81419158158E+02 0.  0.
        -13    1    3    3    0    0  0.17954992177E+02 -0.15755983217E+02 -0.96965426999E+02  0.99864542178E+02  0.00000000000E+00 0.  1.
         14    1    3    3    0    0 -0.12140352353E+02  0.43655230648E+02 -0.32721496496E+02  0.55891534700E+02  0.00000000000E+00 0. -1.
         21    1    1    2  502  501 -0.58146398234E+01 -0.27899247431E+02  0.38025791673E+02  0.47519878744E+02  0.00000000000E+00 0. -1.
<mgrwt>
<rscale>  1 0.86262723E+02</rscale>
<asrwt>0</asrwt>
<pdfrwt beam="1">  1        2 0.85857557E-02 0.86262723E+02</pdfrwt>
<pdfrwt beam="2">  1       -1 0.22687468E-01 0.86262723E+02</pdfrwt>
<totfact> 0.12976144E+04</totfact>
</mgrwt>
</event>
<event>
 6    2  0.1063641E+001  0.8558676E+02  0.7546771E-02  0.1313905E+00
         -1   -1    0    0    0  501 -0.00000000000E+00  0.00000000000E+00  0.41918076414E+01  0.41918076414E+01  0.00000000000E+00 0.  1.
          2   -1    0    0  502    0  0.00000000000E+00 -0.00000000000E+00 -0.75835886310E+03  0.75835886310E+03  0.00000000000E+00 0. -1.
         24    2    1    2    0    0  0.52712214811E+00  0.23728612489E+02 -0.49943823102E+03  0.50671850133E+03  0.82229970646E+02 0.  0.
        -13    1    3    3    0    0 -0.35968477923E+02 -0.13259825234E+01 -0.13951056774E+03  0.14407875675E+03  0.00000000000E+00 0.  1.
         14    1    3    3    0    0  0.36495600071E+02  0.25054595012E+02 -0.35992766328E+03  0.36263974458E+03  0.00000000000E+00 0. -1.
         21    1    1    2  502  501 -0.52712214811E+00 -0.23728612489E+02 -0.25472882444E+03  0.25583216942E+03  0.00000000000E+00 0. -1.
<mgrwt>
<rscale>  1 0.85586757E+02</rscale>
<asrwt>0</asrwt>
<pdfrwt beam="1">  1        2 0.11667055E+00 0.85586757E+02</pdfrwt>
<pdfrwt beam="2">  1       -1 0.64489374E-03 0.85586757E+02</pdfrwt>
<totfact> 0.13212113E+05</totfact>
</mgrwt>
</event>
<event>
 6    2  0.1063641E+001  0.8255181E+02  0.7546771E-02  0.1321962E+00
          4   -1    0    0  502    0  0.00000000000E+00  0.00000000000E+00  0.80968197410E+03  0.80968197410E+03  0.00000000000E+00 0. -1.
         -3   -1    0    0    0  501 -0.00000000000E+00 -0.00000000000E+00 -0.36456093667E+01  0.36456093667E+01  0.00000000000E+00 0.  1.
         24    2    1    2    0    0 -0.77898950943E+01 -0.19420790929E+02  0.51846752241E+03  0.52499845094E+03  0.79855820790E+02 0.  0.
        -13    1    3    3    0    0 -0.25412961255E+02 -0.12432992303E+02  0.62138993917E+02  0.68276295025E+02  0.00000000000E+00 0.  1.
         14    1    3    3    0    0  0.17623066161E+02 -0.69877986257E+01  0.45632852849E+03  0.45672215592E+03  0.00000000000E+00 0. -1.
         21    1    1    2  502  501  0.77898950943E+01  0.19420790929E+02  0.28756884233E+03  0.28832913253E+03  0.00000000000E+00 0.  1.
<mgrwt>
<rscale>  1 0.82551812E+02</rscale>
<asrwt>0</asrwt>
<pdfrwt beam="1">  1        4 0.12456631E+00 0.82551812E+02</pdfrwt>
<pdfrwt beam="2">  1       -3 0.56086362E-03 0.82551812E+02</pdfrwt>
<totfact> 0.55882077E+03</totfact>
</mgrwt>
</event>
<event>
 6    2  0.1063641E+001  0.8894360E+02  0.7546771E-02  0.1305430E+00
         -1   -1    0    0    0  501 -0.00000000000E+00  0.00000000000E+00  0.92086554203E+01  0.92086554203E+01  0.00000000000E+00 0.  1.
          2   -1    0    0  502    0  0.00000000000E+00 -0.00000000000E+00 -0.95121763971E+03  0.95121763971E+03  0.00000000000E+00 0. -1.
         24    2    1    2    0    0 -0.18206273564E+02 -0.31242878329E+02 -0.21706277923E+03  0.23457880008E+03  0.81261168312E+02 0.  0.
        -11    1    3    3    0    0 -0.87854372992E+01 -0.52747897572E+02 -0.84829709076E+02  0.10027763534E+03  0.00000000000E+00 0.  1.
         12    1    3    3    0    0 -0.94208362644E+01  0.21505019242E+02 -0.13223307015E+03  0.13430116474E+03  0.00000000000E+00 0. -1.
         21    1    1    2  502  501  0.18206273564E+02  0.31242878329E+02 -0.72494620506E+03  0.72584749505E+03  0.00000000000E+00 0. -1.
<mgrwt>
<rscale>  1 0.88943596E+02</rscale>
<asrwt>0</asrwt>
<pdfrwt beam="1">  1        2 0.14634111E+00 0.88943596E+02</pdfrwt>
<pdfrwt beam="2">  1       -1 0.14167168E-02 0.88943596E+02</pdfrwt>
<totfact> 0.33009187E+04</totfact>
</mgrwt>
</event>
<event>
 6    2  0.1063641E+001  0.8450894E+02  0.7546771E-02  0.1316722E+00
          4   -1    0    0  502    0  0.00000000000E+00  0.00000000000E+00  0.50009773795E+03  0.50009773795E+03  0.00000000000E+00 0. -1.
         -3   -1    0    0    0  501 -0.00000000000E+00 -0.00000000000E+00 -0.57994099419E+01  0.57994099419E+01  0.00000000000E+00 0.  1.
         24    2    1    2    0    0 -0.15956046615E+02  0.16813755712E+02  0.38387144311E+03  0.39306366565E+03  0.81267844936E+02 0.  0.
        -11    1    3    3    0    0  0.15720038067E+02  0.24034405838E+02  0.50358021458E+02  0.57971567048E+02  0.00000000000E+00 0.  1.
         12    1    3    3    0    0 -0.31676084682E+02 -0.72206501264E+01  0.33351342165E+03  0.33509209861E+03  0.00000000000E+00 0. -1.
         21    1    1    2  502  501  0.15956046615E+02 -0.16813755712E+02  0.11042688490E+03  0.11283348224E+03  0.00000000000E+00 0.  1.
<mgrwt>
<rscale>  1 0.84508937E+02</rscale>
<asrwt>0</asrwt>
<pdfrwt beam="1">  1        4 0.76938079E-01 0.84508937E+02</pdfrwt>
<pdfrwt beam="2">  1       -3 0.89221731E-03 0.84508937E+02</pdfrwt>
<totfact> 0.85199796E+03</totfact>
</mgrwt>
</event>
<event>
 6    2  0.1063641E+001  0.1054553E+03  0.7546771E-02  0.1269225E+00
          2   -1    0    0  502    0  0.00000000000E+00  0.00000000000E+00  0.47405415183E+03  0.47405415183E+03  0.00000000000E+00 0. -1.
         -1   -1    0    0    0  501 -0.00000000000E+00 -0.00000000000E+00 -0.17137952151E+02  0.17137952151E+02  0.00000000000E+00 0.  1.
         24    2    1    2    0    0  0.34234615004E+02 -0.60166977857E+02  0.33239678267E+03  0.34872400474E+03  0.79553354826E+02 0.  0.
        -13    1    3    3    0    0 -0.12630502908E+02  0.13257113789E+02  0.61395653974E+02  0.64067987300E+02  0.00000000000E+00 0.  1.
         14    1    3    3    0    0  0.46865117912E+02 -0.73424091646E+02  0.27100112870E+03  0.28465601744E+03  0.00000000000E+00 0. -1.
         21    1    1    2  502  501 -0.34234615004E+02  0.60166977857E+02  0.12451941701E+03  0.14246809924E+03  0.00000000000E+00 0.  1.
<mgrwt>
<rscale>  1 0.10545525E+03</rscale>
<asrwt>0</asrwt>
<pdfrwt beam="1">  1        2 0.72931398E-01 0.10545525E+03</pdfrwt>
<pdfrwt beam="2">  1       -1 0.26366084E-02 0.10545525E+03</pdfrwt>
<totfact> 0.31228977E+04</totfact>
</mgrwt>
</event>
<event>
 6    2  0.1063641E+001  0.8325084E+02  0.7546771E-02  0.1320071E+00
         -1   -1    0    0    0  501 -0.00000000000E+00  0.00000000000E+00  0.15422095829E+02  0.15422095829E+02  0.00000000000E+00 0.  1.
          2   -1    0    0  502    0  0.00000000000E+00 -0.00000000000E+00 -0.21003943726E+03  0.21003943726E+03  0.00000000000E+00 0. -1.
         24    2    1    2    0    0 -0.71190359911E+01  0.23748436558E+02 -0.11429738792E+03  0.14140224541E+03  0.79473474885E+02 0.  0.
        -11    1    3    3    0    0 -0.90254931573E+00 -0.17979361549E+02  0.15923225820E+01  0.18072286192E+02  0.00000000000E+00 0.  1.
         12    1    3    3    0    0 -0.62164866753E+01  0.41727798108E+02 -0.11588971050E+03  0.12332995922E+03  0.00000000000E+00 0. -1.
         21    1    1    2  502  501  0.71190359911E+01 -0.23748436558E+02 -0.80319953510E+02  0.84059287674E+02  0.00000000000E+00 0. -1.
<mgrwt>
<rscale>  1 0.83250839E+02</rscale>
<asrwt>0</asrwt>
<pdfrwt beam="1">  1        2 0.32313760E-01 0.83250839E+02</pdfrwt>
<pdfrwt beam="2">  1       -1 0.23726301E-02 0.83250839E+02</pdfrwt>
<totfact> 0.83089734E+04</totfact>
</mgrwt>
</event>
<event>
 6    2  0.1063641E+001  0.8506305E+02  0.7546771E-02  0.1315268E+00
          2   -1    0    0  502    0  0.00000000000E+00  0.00000000000E+00  0.15266975236E+03  0.15266975236E+03  0.00000000000E+00 0. -1.
         -1   -1    0    0    0  501 -0.00000000000E+00 -0.00000000000E+00 -0.21824096355E+02  0.21824096355E+02  0.00000000000E+00 0.  1.
         24    2    1    2    0    0 -0.22036288263E+02 -0.13474830776E+02  0.76844916897E+02  0.11463360407E+03  0.81046609208E+02 0.  0.
        -13    1    3    3    0    0 -0.36587629195E+02  0.20659943147E+02  0.19480836692E+02  0.46314046025E+02  0.00000000000E+00 0.  1.
         14    1    3    3    0    0  0.14551340932E+02 -0.34134773923E+02  0.57364080204E+02  0.68319558044E+02  0.00000000000E+00 0. -1.
         21    1    1    2  502  501  0.22036288263E+02  0.13474830776E+02  0.54000739107E+02  0.59860244644E+02  0.00000000000E+00 0. -1.
<mgrwt>
<rscale>  1 0.85063047E+02</rscale>
<asrwt>0</asrwt>
<pdfrwt beam="1">  1        2 0.23487653E-01 0.85063047E+02</pdfrwt>
<pdfrwt beam="2">  1       -1 0.33575534E-02 0.85063047E+02</pdfrwt>
<totfact> 0.71385138E+04</totfact>
</mgrwt>
</event>
<event>
 6    2  0.1063641E+001  0.9942776E+02  0.7546771E-02  0.1281504E+00
          2   -1    0    0  502    0  0.00000000000E+00  0.00000000000E+00  0.56106255383E+03  0.56106255383E+03  0.00000000000E+00 0. -1.
         -1   -1    0    0    0  501 -0.00000000000E+00 -0.00000000000E+00 -0.17841322072E+02  0.17841322072E+02  0.00000000000E+00 0.  1.
         24    2    1    2    0    0  0.43370481089E+02 -0.41508497837E+02  0.14278508313E+03  0.17399269657E+03  0.79258592415E+02 0.  0.
        -11    1    3    3    0    0 -0.14417347256E+01  0.20171446056E+02  0.14948599418E+02  0.25148090575E+02  0.00000000000E+00 0.  1.
         12    1    3    3    0    0  0.44812215815E+02 -0.61679943893E+02  0.12783648371E+03  0.14884460599E+03  0.00000000000E+00 0. -1.
         21    1    1    2  502  501 -0.43370481089E+02  0.41508497837E+02  0.40043614863E+03  0.40491117934E+03  0.00000000000E+00 0.  1.
<mgrwt>
<rscale>  1 0.99427755E+02</rscale>
<asrwt>0</asrwt>
<pdfrwt beam="1">  1        2 0.86317302E-01 0.99427755E+02</pdfrwt>
<pdfrwt beam="2">  1       -1 0.27448192E-02 0.99427755E+02</pdfrwt>
<totfact> 0.24369579E+04</totfact>
</mgrwt>
</event>
<event>
 6    2  0.1063641E+001  0.8218020E+02  0.7546771E-02  0.1322976E+00
          2   -1    0    0  502    0  0.00000000000E+00  0.00000000000E+00  0.16406165598E+04  0.16406165598E+04  0.00000000000E+00 0. -1.
         -1   -1    0    0    0  501 -0.00000000000E+00 -0.00000000000E+00 -0.16630903752E+01  0.16630903752E+01  0.00000000000E+00 0.  1.
         24    2    1    2    0    0  0.20729418942E+02  0.72443266438E+01  0.12369976171E+04  0.12397244411E+04  0.79192147640E+02 0.  0.
        -13    1    3    3    0    0 -0.95226450935E+01  0.36006346192E+02  0.41510101015E+03  0.41676850452E+03  0.00000000000E+00 0.  1.
         14    1    3    3    0    0  0.30252064035E+02 -0.28762019548E+02  0.82189660692E+03  0.82295593662E+03  0.00000000000E+00 0. -1.
         21    1    1    2  502  501 -0.20729418942E+02 -0.72443266438E+01  0.40195585235E+03  0.40255520903E+03  0.00000000000E+00 0.  1.
<mgrwt>
<rscale>  1 0.82180200E+02</rscale>
<asrwt>0</asrwt>
<pdfrwt beam="1">  1        2 0.25240125E+00 0.82180200E+02</pdfrwt>
<pdfrwt beam="2">  1       -1 0.25586137E-03 0.82180200E+02</pdfrwt>
<totfact> 0.15351235E+05</totfact>
</mgrwt>
</event>
<event>
 6    2  0.1063641E+001  0.8561621E+02  0.7546771E-02  0.1313829E+00
          2   -1    0    0  502    0  0.00000000000E+00  0.00000000000E+00  0.10708867518E+03  0.10708867518E+03  0.00000000000E+00 0. -1.
         -1   -1    0    0    0  501 -0.00000000000E+00 -0.00000000000E+00 -0.34417828385E+02  0.34417828385E+02  0.00000000000E+00 0.  1.
         24    2    1    2    0    0 -0.24161757593E+02  0.49203479575E+01  0.27291600448E+02  0.89860822690E+02  0.81988631197E+02 0.  0.
        -13    1    3    3    0    0  0.12476921182E+02 -0.16393364858E+02 -0.18338453081E+02  0.27581059352E+02  0.00000000000E+00 0.  1.
         14    1    3    3    0    0 -0.36638678775E+02  0.21313712816E+02  0.45630053529E+02  0.62279763338E+02  0.00000000000E+00 0. -1.
         21    1    1    2  502  501  0.24161757593E+02 -0.49203479575E+01  0.45379246344E+02  0.51645680872E+02  0.00000000000E+00 0. -1.
<mgrwt>
<rscale>  1 0.85616213E+02</rscale>
<asrwt>0</asrwt>
<pdfrwt beam="1">  1        2 0.16475181E-01 0.85616213E+02</pdfrwt>
<pdfrwt beam="2">  1       -1 0.52950506E-02 0.85616213E+02</pdfrwt>
<totfact> 0.54789017E+04</totfact>
</mgrwt>
</event>
<event>
 6    2  0.1063641E+001  0.8608020E+02  0.7546771E-02  0.1312632E+00
         -1   -1    0    0    0  501 -0.00000000000E+00  0.00000000000E+00  0.41078063831E+01  0.41078063831E+01  0.00000000000E+00 0.  1.
          2   -1    0    0  502    0  0.00000000000E+00 -0.00000000000E+00 -0.78170454798E+03  0.78170454798E+03  0.00000000000E+00 0. -1.
         24    2    1    2    0    0 -0.10601093064E+02 -0.25104576336E+02 -0.59243557071E+03  0.59865658466E+03  0.81652789254E+02 0.  0.
        -13    1    3    3    0    0 -0.33258221864E+02 -0.44980163788E+02 -0.38411295014E+03  0.38816502022E+03  0.00000000000E+00 0.  1.
         14    1    3    3    0    0  0.22657128799E+02  0.19875587452E+02 -0.20832262056E+03  0.21049156444E+03  0.00000000000E+00 0. -1.
         21    1    1    2  502  501  0.10601093064E+02  0.25104576336E+02 -0.18516117090E+03  0.18715576971E+03  0.00000000000E+00 0.  1.
<mgrwt>
<rscale>  1 0.86080201E+02</rscale>
<asrwt>0</asrwt>
<pdfrwt beam="1">  1        2 0.12026238E+00 0.86080201E+02</pdfrwt>
<pdfrwt beam="2">  1       -1 0.63196947E-03 0.86080201E+02</pdfrwt>
<totfact> 0.13116967E+05</totfact>
</mgrwt>
</event>
<event>
 6    2  0.1063641E+001  0.8456264E+02  0.7546771E-02  0.1316580E+00
          2   -1    0    0  502    0  0.00000000000E+00  0.00000000000E+00  0.51949609352E+03  0.51949609352E+03  0.00000000000E+00 0. -1.
         -1   -1    0    0    0  501 -0.00000000000E+00 -0.00000000000E+00 -0.65612059680E+01  0.65612059680E+01  0.00000000000E+00 0.  1.
         24    2    1    2    0    0  0.53761051347E+00 -0.26775575556E+02  0.30865083410E+03  0.32002527536E+03  0.80209843581E+02 0.  0.
        -11    1    3    3    0    0  0.32250834938E+02  0.82340232472E+01  0.17827428323E+03  0.18135499870E+03  0.00000000000E+00 0.  1.
         12    1    3    3    0    0 -0.31713224424E+02 -0.35009598803E+02  0.13037655087E+03  0.13867027666E+03  0.00000000000E+00 0. -1.
         21    1    1    2  502  501 -0.53761051347E+00  0.26775575556E+02  0.20428405346E+03  0.20603202413E+03  0.00000000000E+00 0.  1.
<mgrwt>
<rscale>  1 0.84562636E+02</rscale>
<asrwt>0</asrwt>
<pdfrwt beam="1">  1        2 0.79922443E-01 0.84562636E+02</pdfrwt>
<pdfrwt beam="2">  1       -1 0.10094167E-02 0.84562636E+02</pdfrwt>
<totfact> 0.10787624E+05</totfact>
</mgrwt>
</event>
<event>
 6    2  0.1063641E+001  0.9570163E+02  0.7546771E-02  0.1289604E+00
         -1   -1    0    0    0  501 -0.00000000000E+00  0.00000000000E+00  0.21867079045E+02  0.21867079045E+02  0.00000000000E+00 0.  1.
          2   -1    0    0  502    0  0.00000000000E+00 -0.00000000000E+00 -0.99237705494E+03  0.99237705494E+03  0.00000000000E+00 0. -1.
         24    2    1    2    0    0  0.42425221684E+02  0.49131241865E+01 -0.85884505470E+02  0.12858829725E+03  0.85643234905E+02 0.  0.
        -11    1    3    3    0    0  0.65373471902E+02 -0.10659588703E+02 -0.71052885161E+02  0.97138201289E+02  0.00000000000E+00 0.  1.
         12    1    3    3    0    0 -0.22948250219E+02  0.15572712889E+02 -0.14831620309E+02  0.31450095959E+02  0.00000000000E+00 0. -1.
         21    1    1    2  502  501 -0.42425221684E+02 -0.49131241865E+01 -0.88462547042E+03  0.88565583674E+03  0.00000000000E+00 0. -1.
<mgrwt>
<rscale>  1 0.95701630E+02</rscale>
<asrwt>0</asrwt>
<pdfrwt beam="1">  1        2 0.15267340E+00 0.95701630E+02</pdfrwt>
<pdfrwt beam="2">  1       -1 0.33641660E-02 0.95701630E+02</pdfrwt>
<totfact> 0.91060119E+03</totfact>
</mgrwt>
</event>
<event>
 6    2  0.1063641E+001  0.8428560E+02  0.7546771E-02  0.1317311E+00
          4   -1    0    0  502    0  0.00000000000E+00  0.00000000000E+00  0.91288247210E+03  0.91288247210E+03  0.00000000000E+00 0. -1.
         -3   -1    0    0    0  501 -0.00000000000E+00 -0.00000000000E+00 -0.32087105761E+01  0.32087105761E+01  0.00000000000E+00 0.  1.
         24    2    1    2    0    0 -0.78823627338E+01 -0.22469570988E+02  0.68887214098E+03  0.69400928585E+03  0.80852018938E+02 0.  0.
        -11    1    3    3    0    0 -0.26356641987E+02 -0.38899516199E+02  0.24598128395E+03  0.25042890606E+03  0.00000000000E+00 0.  1.
         12    1    3    3    0    0  0.18474279253E+02  0.16429945211E+02  0.44289085703E+03  0.44358037979E+03  0.00000000000E+00 0. -1.
         21    1    1    2  502  501  0.78823627338E+01  0.22469570988E+02  0.22080162055E+03  0.22208189683E+03  0.00000000000E+00 0. -1.
<mgrwt>
<rscale>  1 0.84285599E+02</rscale>
<asrwt>0</asrwt>
<pdfrwt beam="1">  1        4 0.14044325E+00 0.84285599E+02</pdfrwt>
<pdfrwt beam="2">  1       -3 0.49364851E-03 0.84285599E+02</pdfrwt>
<totfact> 0.50595366E+03</totfact>
</mgrwt>
</event>
<event>
 6    2  0.1063641E+001  0.8572994E+02  0.7546771E-02  0.1313535E+00
         -1   -1    0    0    0  501 -0.00000000000E+00  0.00000000000E+00  0.10586151809E+02  0.10586151809E+02  0.00000000000E+00 0.  1.
          2   -1    0    0  502    0  0.00000000000E+00 -0.00000000000E+00 -0.39345166369E+03  0.39345166369E+03  0.00000000000E+00 0. -1.
         24    2    1    2    0    0 -0.15550610762E+02  0.28217155530E+02 -0.18928131778E+03  0.20779085484E+03  0.79445533130E+02 0.  0.
        -13    1    3    3    0    0 -0.78297006297E+01 -0.60712567498E+01  0.44757372284E+01  0.10871825707E+02  0.00000000000E+00 0.  1.
         14    1    3    3    0    0 -0.77209101323E+01  0.34288412280E+02 -0.19375705501E+03  0.19691902913E+03  0.00000000000E+00 0. -1.
         21    1    1    2  502  501  0.15550610762E+02 -0.28217155530E+02 -0.19358419411E+03  0.19624696066E+03  0.00000000000E+00 0. -1.
<mgrwt>
<rscale>  1 0.85729937E+02</rscale>
<asrwt>0</asrwt>
<pdfrwt beam="1">  1        2 0.60531028E-01 0.85729937E+02</pdfrwt>
<pdfrwt beam="2">  1       -1 0.16286387E-02 0.85729937E+02</pdfrwt>
<totfact> 0.73899837E+04</totfact>
</mgrwt>
</event>
<event>
 6    2  0.1063641E+001  0.8990828E+02  0.7546771E-02  0.1303074E+00
         -1   -1    0    0    0  501 -0.00000000000E+00  0.00000000000E+00  0.40451852780E+02  0.40451852780E+02  0.00000000000E+00 0.  1.
          2   -1    0    0  502    0  0.00000000000E+00 -0.00000000000E+00 -0.13648282087E+03  0.13648282087E+03  0.00000000000E+00 0. -1.
         24    2    1    2    0    0  0.30887979245E+02  0.11352661132E+02 -0.17238287168E+02  0.91545934677E+02  0.83669286090E+02 0.  0.
        -13    1    3    3    0    0  0.58249895234E+02  0.16846876263E+02 -0.43139005374E+01  0.60790437343E+02  0.00000000000E+00 0.  1.
         14    1    3    3    0    0 -0.27361915989E+02 -0.54942151306E+01 -0.12924386631E+02  0.30755497334E+02  0.00000000000E+00 0. -1.
         21    1    1    2  502  501 -0.30887979245E+02 -0.11352661132E+02 -0.78792680921E+02  0.85388738973E+02  0.00000000000E+00 0. -1.
<mgrwt>
<rscale>  1 0.89908284E+02</rscale>
<asrwt>0</asrwt>
<pdfrwt beam="1">  1        2 0.20997357E-01 0.89908284E+02</pdfrwt>
<pdfrwt beam="2">  1       -1 0.62233620E-02 0.89908284E+02</pdfrwt>
<totfact> 0.33104691E+04</totfact>
</mgrwt>
</event>
<event>
 6    2  0.1063641E+001  0.8333723E+02  0.7546771E-02  0.1319839E+00
         -1   -1    0    0    0  501 -0.00000000000E+00  0.00000000000E+00  0.41125538027E+01  0.41125538027E+01  0.00000000000E+00 0.  1.
          2   -1    0    0  502    0  0.00000000000E+00 -0.00000000000E+00 -0.11144839553E+04  0.11144839553E+04  0.00000000000E+00 0. -1.
         24    2    1    2    0    0  0.76302635633E+01 -0.21044853208E+02 -0.43830111531E+03  0.44615351795E+03  0.80274448814E+02 0.  0.
        -11    1    3    3    0    0 -0.11726999410E+02 -0.26473420669E+02 -0.53542714201E+02  0.60870245285E+02  0.00000000000E+00 0.  1.
         12    1    3    3    0    0  0.19357262973E+02  0.54285674610E+01 -0.38475840111E+03  0.38528327267E+03  0.00000000000E+00 0. -1.
         21    1    1    2  502  501 -0.76302635633E+01  0.21044853208E+02 -0.67207028615E+03  0.67244299111E+03  0.00000000000E+00 0. -1.
<mgrwt>
<rscale>  1 0.83337230E+02</rscale>
<asrwt>0</asrwt>
<pdfrwt beam="1">  1        2 0.17145899E+00 0.83337230E+02</pdfrwt>
<pdfrwt beam="2">  1       -1 0.63270087E-03 0.83337230E+02</pdfrwt>
<totfact> 0.82048117E+04</totfact>
</mgrwt>
</event>
<event>
 6    2  0.1063641E+001  0.8982063E+02  0.7546771E-02  0.1303287E+00
          2   -1    0    0  502    0  0.00000000000E+00  0.00000000000E+00  0.17431346117E+04  0.17431346117E+04  0.00000000000E+00 0. -1.
         -1   -1    0    0    0  501 -0.00000000000E+00 -0.00000000000E+00 -0.43459272898E+01  0.43459272898E+01  0.00000000000E+00 0.  1.
         24    2    1    2    0    0 -0.21957995188E+02 -0.32972880548E+02  0.49642473195E+03  0.50448514287E+03  0.80612533020E+02 0.  0.
        -13    1    3    3    0    0 -0.10919334860E+02 -0.53976637105E+02  0.21073420453E+03  0.21781095975E+03  0.00000000000E+00 0.  1.
         14    1    3    3    0    0 -0.11038660328E+02  0.21003756558E+02  0.28569052741E+03  0.28667418312E+03  0.00000000000E+00 0. -1.
         21    1    1    2  502  501  0.21957995188E+02  0.32972880548E+02  0.12423639525E+04  0.12429953962E+04  0.00000000000E+00 0. -1.
<mgrwt>
<rscale>  1 0.89820626E+02</rscale>
<asrwt>0</asrwt>
<pdfrwt beam="1">  1        2 0.26817400E+00 0.89820626E+02</pdfrwt>
<pdfrwt beam="2">  1       -1 0.66860559E-03 0.89820626E+02</pdfrwt>
<totfact> 0.36081686E+04</totfact>
</mgrwt>
</event>
<event>
 6    2  0.1063641E+001  0.8313767E+02  0.7546771E-02  0.1320376E+00
          2   -1    0    0  502    0  0.00000000000E+00  0.00000000000E+00  0.21969879697E+02  0.21969879697E+02  0.00000000000E+00 0. -1.
         -1   -1    0    0    0  501 -0.00000000000E+00 -0.00000000000E+00 -0.41707546070E+03  0.41707546070E+03  0.00000000000E+00 0.  1.
         24    2    1    2    0    0 -0.23690142499E+02 -0.89702558464E+00 -0.40493485814E+03  0.41338131507E+03  0.79685913489E+02 0.  0.
        -11    1    3    3    0    0 -0.33597367753E+02 -0.30390569840E+02 -0.31445237087E+03  0.31769901384E+03  0.00000000000E+00 0.  1.
         12    1    3    3    0    0  0.99072252541E+01  0.29493544256E+02 -0.90482487274E+02  0.95682301228E+02  0.00000000000E+00 0. -1.
         21    1    1    2  502  501  0.23690142499E+02  0.89702558464E+00  0.98292771411E+01  0.25664025320E+02  0.00000000000E+00 0. -1.
<mgrwt>
<rscale>  1 0.83137671E+02</rscale>
<asrwt>0</asrwt>
<pdfrwt beam="1">  1        2 0.33799818E-02 0.83137671E+02</pdfrwt>
<pdfrwt beam="2">  1       -1 0.64165449E-01 0.83137671E+02</pdfrwt>
<totfact> 0.70405558E+03</totfact>
</mgrwt>
</event>
<event>
 6    2  0.1063641E+001  0.8435684E+02  0.7546771E-02  0.1317123E+00
          2   -1    0    0  502    0  0.00000000000E+00  0.00000000000E+00  0.33559780044E+03  0.33559780044E+03  0.00000000000E+00 0. -1.
         -1   -1    0    0    0  501 -0.00000000000E+00 -0.00000000000E+00 -0.10238854837E+02  0.10238854837E+02  0.00000000000E+00 0.  1.
         24    2    1    2    0    0  0.17209265092E+02 -0.16992914097E+02  0.18389416288E+03  0.20231939957E+03  0.80815582451E+02 0.  0.
        -13    1    3    3    0    0  0.45458554994E+02 -0.27801375070E+02  0.10324226022E+03  0.11618244692E+03  0.00000000000E+00 0.  1.
         14    1    3    3    0    0 -0.28249289902E+02  0.10808460973E+02  0.80651902660E+02  0.86136952647E+02  0.00000000000E+00 0. -1.
         21    1    1    2  502  501 -0.17209265092E+02  0.16992914097E+02  0.14146478272E+03  0.14351725571E+03  0.00000000000E+00 0. -1.
<mgrwt>
<rscale>  1 0.84356839E+02</rscale>
<asrwt>0</asrwt>
<pdfrwt beam="1">  1        2 0.51630422E-01 0.84356839E+02</pdfrwt>
<pdfrwt beam="2">  1       -1 0.15752087E-02 0.84356839E+02</pdfrwt>
<totfact> 0.91285073E+04</totfact>
</mgrwt>
</event>
<event>
 6    2  0.1063641E+001  0.1028079E+03  0.7546771E-02  0.1274500E+00
         -1   -1    0    0    0  501 -0.00000000000E+00  0.00000000000E+00  0.70012127627E+02  0.70012127627E+02  0.00000000000E+00 0.  1.
          2   -1    0    0  502    0  0.00000000000E+00 -0.00000000000E+00 -0.10027644287E+03  0.10027644287E+03  0.00000000000E+00 0. -1.
         24    2    1    2    0    0  0.24228663594E+02 -0.59924880303E+02 -0.21867773200E+02  0.10510788826E+03  0.79946539954E+02 0.  0.
        -13    1    3    3    0    0  0.42758559714E+02 -0.48420111619E+02 -0.40651055537E+02  0.76323718163E+02  0.00000000000E+00 0.  1.
         14    1    3    3    0    0 -0.18529896120E+02 -0.11504768684E+02  0.18783282338E+02  0.28784170095E+02  0.00000000000E+00 0. -1.
         21    1    1    2  502  501 -0.24228663594E+02  0.59924880303E+02 -0.83965420427E+01  0.65180682239E+02  0.00000000000E+00 0.  1.
<mgrwt>
<rscale>  1 0.10280792E+03</rscale>
<asrwt>0</asrwt>
<pdfrwt beam="1">  1        2 0.15427145E-01 0.10280792E+03</pdfrwt>
<pdfrwt beam="2">  1       -1 0.10771097E-01 0.10280792E+03</pdfrwt>
<totfact> 0.20970925E+04</totfact>
</mgrwt>
</event>
<event>
 6    2  0.1063641E+001  0.8515475E+02  0.7546771E-02  0.1315028E+00
          2   -1    0    0  502    0  0.00000000000E+00  0.00000000000E+00  0.14019466760E+04  0.14019466760E+04  0.00000000000E+00 0. -1.
         -1   -1    0    0    0  501 -0.00000000000E+00 -0.00000000000E+00 -0.30850729147E+01  0.30850729147E+01  0.00000000000E+00 0.  1.
         24    2    1    2    0    0 -0.89828598114E+01  0.24995577906E+02  0.12960569396E+04  0.12988513857E+04  0.80906494941E+02 0.  0.
        -11    1    3    3    0    0 -0.20450345135E+02  0.33993172545E+02  0.29131357281E+03  0.29400229608E+03  0.00000000000E+00 0.  1.
         12    1    3    3    0    0  0.11467485324E+02 -0.89975946393E+01  0.10047433668E+04  0.10048490896E+04  0.00000000000E+00 0. -1.
         21    1    1    2  502  501  0.89828598114E+01 -0.24995577906E+02  0.10280466352E+03  0.10618036319E+03  0.00000000000E+00 0.  1.
<mgrwt>
<rscale>  1 0.85154751E+02</rscale>
<asrwt>0</asrwt>
<pdfrwt beam="1">  1        2 0.21568360E+00 0.85154751E+02</pdfrwt>
<pdfrwt beam="2">  1       -1 0.47462772E-03 0.85154751E+02</pdfrwt>
<totfact> 0.86346456E+04</totfact>
</mgrwt>
</event>
<event>
 6    2  0.1063641E+001  0.9993644E+02  0.7546771E-02  0.1280430E+00
         -1   -1    0    0    0  501 -0.00000000000E+00  0.00000000000E+00  0.57424027143E+02  0.57424027143E+02  0.00000000000E+00 0.  1.
          2   -1    0    0  502    0  0.00000000000E+00 -0.00000000000E+00 -0.85521769307E+02  0.85521769307E+02  0.00000000000E+00 0. -1.
         24    2    1    2    0    0 -0.38609815516E+02 -0.10415421750E+02 -0.23753030800E+02  0.10272048873E+03  0.91586535409E+02 0.  0.
        -11    1    3    3    0    0 -0.34190201076E+02  0.22661724015E+02 -0.46749158740E+02  0.62193306938E+02  0.00000000000E+00 0.  1.
         12    1    3    3    0    0 -0.44196144396E+01 -0.33077145764E+02  0.22996127940E+02  0.40527181791E+02  0.00000000000E+00 0. -1.
         21    1    1    2  502  501  0.38609815516E+02  0.10415421750E+02 -0.43447113643E+01  0.40225307721E+02  0.00000000000E+00 0. -1.
<mgrwt>
<rscale>  1 0.99936441E+02</rscale>
<asrwt>0</asrwt>
<pdfrwt beam="1">  1        2 0.13157195E-01 0.99936441E+02</pdfrwt>
<pdfrwt beam="2">  1       -1 0.88344658E-02 0.99936441E+02</pdfrwt>
<totfact> 0.33970125E+04</totfact>
</mgrwt>
</event>
<event>
 6    2  0.1063641E+001  0.9353690E+02  0.7546771E-02  0.1294506E+00
          2   -1    0    0  502    0  0.00000000000E+00  0.00000000000E+00  0.12192578289E+02  0.12192578289E+02  0.00000000000E+00 0. -1.
         -1   -1    0    0    0  501 -0.00000000000E+00 -0.00000000000E+00 -0.44549324173E+03  0.44549324173E+03  0.00000000000E+00 0.  1.
         24    2    1    2    0    0 -0.33114566945E+02  0.35806550479E+02 -0.22336225435E+03  0.24215665909E+03  0.79815207007E+02 0.  0.
        -13    1    3    3    0    0 -0.22926761019E+02 -0.23777536033E+02 -0.83030225227E+02  0.89358972084E+02  0.00000000000E+00 0.  1.
         14    1    3    3    0    0 -0.10187805925E+02  0.59584086512E+02 -0.14033202912E+03  0.15279768700E+03  0.00000000000E+00 0. -1.
         21    1    1    2  502  501  0.33114566945E+02 -0.35806550479E+02 -0.20993840909E+03  0.21552916093E+03  0.00000000000E+00 0.  1.
<mgrwt>
<rscale>  1 0.93536896E+02</rscale>
<asrwt>0</asrwt>
<pdfrwt beam="1">  1        2 0.18757814E-02 0.93536896E+02</pdfrwt>
<pdfrwt beam="2">  1       -1 0.68537418E-01 0.93536896E+02</pdfrwt>
<totfact> 0.13781392E+04</totfact>
</mgrwt>
</event>
<event>
 6    2  0.1063641E+001  0.1083581E+03  0.7546771E-02  0.1263641E+00
          2   -1    0    0  502    0  0.00000000000E+00  0.00000000000E+00  0.86278423383E+02  0.86278423383E+02  0.00000000000E+00 0. -1.
         -1   -1    0    0    0  501 -0.00000000000E+00 -0.00000000000E+00 -0.99063957188E+02  0.99063957188E+02  0.00000000000E+00 0.  1.
         24    2    1    2    0    0 -0.60690692927E+02  0.40897531100E+02 -0.24847667202E+02  0.11117053065E+03  0.79909399088E+02 0.  0.
        -11    1    3    3    0    0 -0.35474822506E+02 -0.52234800627E+01 -0.42606821067E+02  0.55687422074E+02  0.00000000000E+00 0.  1.
         12    1    3    3    0    0 -0.25215870421E+02  0.46121011163E+02  0.17759153865E+02  0.55483108581E+02  0.00000000000E+00 0. -1.
         21    1    1    2  502  501  0.60690692927E+02 -0.40897531100E+02  0.12062133397E+02  0.74171849917E+02  0.00000000000E+00 0.  1.
<mgrwt>
<rscale>  1 0.10835811E+03</rscale>
<asrwt>0</asrwt>
<pdfrwt beam="1">  1        2 0.13273604E-01 0.10835811E+03</pdfrwt>
<pdfrwt beam="2">  1       -1 0.15240609E-01 0.10835811E+03</pdfrwt>
<totfact> 0.14728340E+04</totfact>
</mgrwt>
</event>
<event>
 6    2  0.1063641E+001  0.1147415E+03  0.7546771E-02  0.1252033E+00
         -1   -1    0    0    0  501 -0.00000000000E+00  0.00000000000E+00  0.19775599570E+02  0.19775599570E+02  0.00000000000E+00 0.  1.
          2   -1    0    0  502    0  0.00000000000E+00 -0.00000000000E+00 -0.14359012482E+04  0.14359012482E+04  0.00000000000E+00 0. -1.
         24    2    1    2    0    0  0.71827476697E+02 -0.42762333183E+02 -0.16063399832E+03  0.19740537963E+03  0.78598975447E+02 0.  0.
        -11    1    3    3    0    0  0.85914112247E+02 -0.24580701338E+02 -0.10949014556E+03  0.14132776633E+03  0.00000000000E+00 0.  1.
         12    1    3    3    0    0 -0.14086635550E+02 -0.18181631846E+02 -0.51143852764E+02  0.56077613298E+02  0.00000000000E+00 0. -1.
         21    1    1    2  502  501 -0.71827476697E+02  0.42762333183E+02 -0.12554916503E+04  0.12582714681E+04  0.00000000000E+00 0. -1.
<mgrwt>
<rscale>  1 0.11474146E+03</rscale>
<asrwt>0</asrwt>
<pdfrwt beam="1">  1        2 0.22090788E+00 0.11474146E+03</pdfrwt>
<pdfrwt beam="2">  1       -1 0.30423999E-02 0.11474146E+03</pdfrwt>
<totfact> 0.60693365E+03</totfact>
</mgrwt>
</event>
<event>
 6    2  0.1063641E+001  0.9716600E+02  0.7546771E-02  0.1286371E+00
          2   -1    0    0  502    0  0.00000000000E+00  0.00000000000E+00  0.17061512894E+02  0.17061512894E+02  0.00000000000E+00 0. -1.
         -1   -1    0    0    0  501 -0.00000000000E+00 -0.00000000000E+00 -0.54050922471E+03  0.54050922471E+03  0.00000000000E+00 0.  1.
         24    2    1    2    0    0 -0.38324659411E+02 -0.36229726074E+02 -0.47853278772E+03  0.48829792203E+03  0.81607960214E+02 0.  0.
        -11    1    3    3    0    0 -0.38829750029E+02 -0.41690749741E+02 -0.47937556720E+03  0.48274921288E+03  0.00000000000E+00 0.  1.
         12    1    3    3    0    0  0.50509061802E+00  0.54610236671E+01  0.84277948687E+00  0.55487091551E+01  0.00000000000E+00 0. -1.
         21    1    1    2  502  501  0.38324659411E+02  0.36229726074E+02 -0.44914924101E+02  0.69272815573E+02  0.00000000000E+00 0. -1.
<mgrwt>
<rscale>  1 0.97166001E+02</rscale>
<asrwt>0</asrwt>
<pdfrwt beam="1">  1        2 0.26248486E-02 0.97166001E+02</pdfrwt>
<pdfrwt beam="2">  1       -1 0.83155251E-01 0.97166001E+02</pdfrwt>
<totfact> 0.59829962E+03</totfact>
</mgrwt>
</event>
<event>
 6    2  0.1063641E+001  0.8216255E+02  0.7546771E-02  0.1323024E+00
         -1   -1    0    0    0  501 -0.00000000000E+00  0.00000000000E+00  0.89517042294E+01  0.89517042294E+01  0.00000000000E+00 0.  1.
          2   -1    0    0  502    0  0.00000000000E+00 -0.00000000000E+00 -0.29383873595E+03  0.29383873595E+03  0.00000000000E+00 0. -1.
         24    2    1    2    0    0  0.62003620003E+01  0.19387706178E+02 -0.23223515224E+03  0.24634092245E+03  0.79601234253E+02 0.  0.
        -13    1    3    3    0    0  0.18403747577E+02 -0.20643698272E+02 -0.34455036870E+02  0.44181554623E+02  0.00000000000E+00 0.  1.
         14    1    3    3    0    0 -0.12203385576E+02  0.40031404450E+02 -0.19778011537E+03  0.20215936782E+03  0.00000000000E+00 0. -1.
         21    1    1    2  502  501 -0.62003620003E+01 -0.19387706178E+02 -0.52651879481E+02  0.56449517736E+02  0.00000000000E+00 0.  1.
<mgrwt>
<rscale>  1 0.82162547E+02</rscale>
<asrwt>0</asrwt>
<pdfrwt beam="1">  1        2 0.45205959E-01 0.82162547E+02</pdfrwt>
<pdfrwt beam="2">  1       -1 0.13771853E-02 0.82162547E+02</pdfrwt>
<totfact> 0.12627261E+05</totfact>
</mgrwt>
</event>
<event>
 6    2  0.1063641E+001  0.1754605E+03  0.7546771E-02  0.1172270E+00
         -1   -1    0    0    0  501 -0.00000000000E+00  0.00000000000E+00  0.28195974278E+02  0.28195974278E+02  0.00000000000E+00 0.  1.
          2   -1    0    0  502    0  0.00000000000E+00 -0.00000000000E+00 -0.13267325613E+04  0.13267325613E+04  0.00000000000E+00 0. -1.
         24    2    1    2    0    0  0.29280978971E+02 -0.15252129550E+03 -0.32740831681E+03  0.37146006200E+03  0.81647109160E+02 0.  0.
        -11    1    3    3    0    0  0.11642563255E+02 -0.27602413291E+02 -0.12945855876E+02  0.32634915091E+02  0.00000000000E+00 0.  1.
         12    1    3    3    0    0  0.17638415716E+02 -0.12491888221E+03 -0.31446246093E+03  0.33882514691E+03  0.00000000000E+00 0. -1.
         21    1    1    2  502  501 -0.29280978971E+02  0.15252129550E+03 -0.97112827017E+03  0.98346847353E+03  0.00000000000E+00 0.  1.
<mgrwt>
<rscale>  1 0.17546046E+03</rscale>
<asrwt>0</asrwt>
<pdfrwt beam="1">  1        2 0.20411265E+00 0.17546046E+03</pdfrwt>
<pdfrwt beam="2">  1       -1 0.43378432E-02 0.17546046E+03</pdfrwt>
<totfact> 0.41702799E+03</totfact>
</mgrwt>
</event>
<event>
 6    2  0.1063641E+001  0.6981497E+02  0.7546771E-02  0.1360723E+00
          2   -1    0    0  502    0  0.00000000000E+00  0.00000000000E+00  0.65252807410E+02  0.65252807410E+02  0.00000000000E+00 0. -1.
         -1   -1    0    0    0  501 -0.00000000000E+00 -0.00000000000E+00 -0.45354850842E+02  0.45354850842E+02  0.00000000000E+00 0.  1.
         24    2    1    2    0    0  0.18198405891E+02 -0.11559893983E+02 -0.13253990318E+02  0.71061928922E+02  0.66402683356E+02 0.  0.
        -13    1    3    3    0    0  0.65736190508E+01 -0.38112083656E+02 -0.16192787572E+02  0.41927911436E+02  0.00000000000E+00 0.  1.
         14    1    3    3    0    0  0.11624786840E+02  0.26552189674E+02  0.29387972542E+01  0.29134017485E+02  0.00000000000E+00 0. -1.
         21    1    1    2  502  501 -0.18198405891E+02  0.11559893983E+02  0.33151946886E+02  0.39545729329E+02  0.00000000000E+00 0. -1.
<mgrwt>
<rscale>  1 0.69814966E+02</rscale>
<asrwt>0</asrwt>
<pdfrwt beam="1">  1        2 0.10038893E-01 0.69814966E+02</pdfrwt>
<pdfrwt beam="2">  1       -1 0.69776694E-02 0.69814966E+02</pdfrwt>
<totfact> 0.63344868E+04</totfact>
</mgrwt>
</event>
<event>
 6    2  0.1063641E+001  0.9431038E+02  0.7546771E-02  0.1292737E+00
          2   -1    0    0  502    0  0.00000000000E+00  0.00000000000E+00  0.23926814206E+03  0.23926814206E+03  0.00000000000E+00 0. -1.
         -1   -1    0    0    0  501 -0.00000000000E+00 -0.00000000000E+00 -0.21143150761E+02  0.21143150761E+02  0.00000000000E+00 0.  1.
         24    2    1    2    0    0 -0.10506745909E+02  0.45857737583E+02  0.13131481477E+03  0.16167259446E+03  0.81738139289E+02 0.  0.
        -13    1    3    3    0    0 -0.19454182502E+02  0.33330549438E+02  0.10657456487E+02  0.40037134280E+02  0.00000000000E+00 0.  1.
         14    1    3    3    0    0  0.89474365934E+01  0.12527188145E+02  0.12065735828E+03  0.12163546018E+03  0.00000000000E+00 0. -1.
         21    1    1    2  502  501  0.10506745909E+02 -0.45857737583E+02  0.86810176528E+02  0.98738698364E+02  0.00000000000E+00 0.  1.
<mgrwt>
<rscale>  1 0.94310377E+02</rscale>
<asrwt>0</asrwt>
<pdfrwt beam="1">  1        2 0.36810482E-01 0.94310377E+02</pdfrwt>
<pdfrwt beam="2">  1       -1 0.32527926E-02 0.94310377E+02</pdfrwt>
<totfact> 0.46820355E+04</totfact>
</mgrwt>
</event>
<event>
 6    2  0.1063641E+001  0.8478420E+02  0.7546771E-02  0.1315998E+00
         -1   -1    0    0    0  501 -0.00000000000E+00  0.00000000000E+00  0.38301810497E+01  0.38301810497E+01  0.00000000000E+00 0.  1.
          2   -1    0    0  502    0  0.00000000000E+00 -0.00000000000E+00 -0.76834104535E+03  0.76834104535E+03  0.00000000000E+00 0. -1.
         24    2    1    2    0    0  0.20217757787E+02  0.12049531346E+02 -0.57952790743E+03  0.58569698349E+03  0.81451900196E+02 0.  0.
        -13    1    3    3    0    0 -0.59274744284E+01  0.14449836961E+02 -0.19181687186E+02  0.24736003408E+02  0.00000000000E+00 0.  1.
         14    1    3    3    0    0  0.26145232215E+02 -0.24003056149E+01 -0.56034622024E+03  0.56096098008E+03  0.00000000000E+00 0. -1.
         21    1    1    2  502  501 -0.20217757787E+02 -0.12049531346E+02 -0.18498295687E+03  0.18647424290E+03  0.00000000000E+00 0. -1.
<mgrwt>
<rscale>  1 0.84784202E+02</rscale>
<asrwt>0</asrwt>
<pdfrwt beam="1">  1        2 0.11820619E+00 0.84784202E+02</pdfrwt>
<pdfrwt beam="2">  1       -1 0.58925927E-03 0.84784202E+02</pdfrwt>
<totfact> 0.14736842E+05</totfact>
</mgrwt>
</event>
<event>
 6    2  0.1063641E+001  0.8348187E+02  0.7546771E-02  0.1319451E+00
          4   -1    0    0  502    0  0.00000000000E+00  0.00000000000E+00  0.10114516815E+02  0.10114516815E+02  0.00000000000E+00 0. -1.
         -3   -1    0    0    0  501 -0.00000000000E+00 -0.00000000000E+00 -0.29644554822E+03  0.29644554822E+03  0.00000000000E+00 0.  1.
         24    2    1    2    0    0 -0.17674895049E+01 -0.23264133072E+02 -0.24813718041E+03  0.26180390166E+03  0.80155341138E+02 0.  0.
        -13    1    3    3    0    0  0.20375378452E+02 -0.31036051775E+02 -0.22763342064E+03  0.23064120783E+03  0.00000000000E+00 0.  1.
         14    1    3    3    0    0 -0.22142867957E+02  0.77719187026E+01 -0.20503759768E+02  0.31162693823E+02  0.00000000000E+00 0. -1.
         21    1    1    2  502  501  0.17674895049E+01  0.23264133072E+02 -0.38193850990E+02  0.44756163377E+02  0.00000000000E+00 0. -1.
<mgrwt>
<rscale>  1 0.83481870E+02</rscale>
<asrwt>0</asrwt>
<pdfrwt beam="1">  1        4 0.15560799E-02 0.83481870E+02</pdfrwt>
<pdfrwt beam="2">  1       -3 0.45606996E-01 0.83481870E+02</pdfrwt>
<totfact> 0.12208999E+04</totfact>
</mgrwt>
</event>
<event>
 6    2  0.1063641E+001  0.9742034E+02  0.7546771E-02  0.1285816E+00
          2   -1    0    0  502    0  0.00000000000E+00  0.00000000000E+00  0.14732039709E+04  0.14732039709E+04  0.00000000000E+00 0. -1.
         -1   -1    0    0    0  501 -0.00000000000E+00 -0.00000000000E+00 -0.39819241076E+01  0.39819241076E+01  0.00000000000E+00 0.  1.
         24    2    1    2    0    0 -0.40443021316E+02  0.36358920554E+02  0.10340024912E+04  0.10385816649E+04  0.80827679861E+02 0.  0.
        -11    1    3    3    0    0 -0.30055223867E+02  0.84088525921E+01  0.11689396157E+03  0.12098852646E+03  0.00000000000E+00 0.  1.
         12    1    3    3    0    0 -0.10387797449E+02  0.27950067962E+02  0.91710852959E+03  0.91759313842E+03  0.00000000000E+00 0. -1.
         21    1    1    2  502  501  0.40443021316E+02 -0.36358920554E+02  0.43521955562E+03  0.43860423011E+03  0.00000000000E+00 0.  1.
<mgrwt>
<rscale>  1 0.97420341E+02</rscale>
<asrwt>0</asrwt>
<pdfrwt beam="1">  1        2 0.22664633E+00 0.97420341E+02</pdfrwt>
<pdfrwt beam="2">  1       -1 0.61260488E-03 0.97420341E+02</pdfrwt>
<totfact> 0.56314834E+04</totfact>
</mgrwt>
</event>
<event>
 6    2  0.1063641E+001  0.8427528E+02  0.7546771E-02  0.1317339E+00
         -3   -1    0    0    0  501 -0.00000000000E+00  0.00000000000E+00  0.11235085678E+02  0.11235085678E+02  0.00000000000E+00 0.  1.
          4   -1    0    0  502    0  0.00000000000E+00 -0.00000000000E+00 -0.46375374729E+03  0.46375374729E+03  0.00000000000E+00 0. -1.
         24    2    1    2    0    0  0.12187508813E+02 -0.16585533572E+02 -0.15227234864E+03  0.17403790051E+03  0.81723358707E+02 0.  0.
        -13    1    3    3    0    0  0.47150372622E+02 -0.82250417239E+01 -0.95870380849E+02  0.10715380942E+03  0.00000000000E+00 0.  1.
         14    1    3    3    0    0 -0.34962863809E+02 -0.83604918483E+01 -0.56401967790E+02  0.66884091085E+02  0.00000000000E+00 0. -1.
         21    1    1    2  502  501 -0.12187508813E+02  0.16585533572E+02 -0.30024631298E+03  0.30095093246E+03  0.00000000000E+00 0. -1.
<mgrwt>
<rscale>  1 0.84275279E+02</rscale>
<asrwt>0</asrwt>
<pdfrwt beam="1">  1        4 0.71346734E-01 0.84275279E+02</pdfrwt>
<pdfrwt beam="2">  1       -3 0.17284746E-02 0.84275279E+02</pdfrwt>
<totfact> 0.37489718E+03</totfact>
</mgrwt>
</event>
<event>
 6    2  0.1063641E+001  0.8754936E+02  0.7546771E-02  0.1308897E+00
          2   -1    0    0  502    0  0.00000000000E+00  0.00000000000E+00  0.30770844752E+04  0.30770844752E+04  0.00000000000E+00 0. -1.
         -1   -1    0    0    0  501 -0.00000000000E+00 -0.00000000000E+00 -0.24547181921E+01  0.24547181921E+01  0.00000000000E+00 0.  1.
         24    2    1    2    0    0  0.66918481493E+01 -0.34727394858E+02  0.82516936523E+03  0.82980080260E+03  0.80088188339E+02 0.  0.
        -13    1    3    3    0    0 -0.11623927241E+02 -0.99640914719E+00  0.16428075178E+02  0.20149197744E+02  0.00000000000E+00 0.  1.
         14    1    3    3    0    0  0.18315775390E+02 -0.33730985711E+02  0.80874129005E+03  0.80965160486E+03  0.00000000000E+00 0. -1.
         21    1    1    2  502  501 -0.66918481493E+01  0.34727394858E+02  0.22494603918E+04  0.22497383908E+04  0.00000000000E+00 0. -1.
<mgrwt>
<rscale>  1 0.87549361E+02</rscale>
<asrwt>0</asrwt>
<pdfrwt beam="1">  1        2 0.47339453E+00 0.87549361E+02</pdfrwt>
<pdfrwt beam="2">  1       -1 0.37765141E-03 0.87549361E+02</pdfrwt>
<totfact> 0.15943969E+04</totfact>
</mgrwt>
</event>
<event>
 6    2  0.1063641E+001  0.8797486E+02  0.7546771E-02  0.1307831E+00
         -1   -1    0    0    0  501 -0.00000000000E+00  0.00000000000E+00  0.26505697133E+03  0.26505697133E+03  0.00000000000E+00 0.  1.
          2   -1    0    0  502    0  0.00000000000E+00 -0.00000000000E+00 -0.14012805958E+02  0.14012805958E+02  0.00000000000E+00 0. -1.
         24    2    1    2    0    0 -0.29982431917E+02  0.15128502923E+02  0.17219439725E+03  0.19336619652E+03  0.81312715404E+02 0.  0.
        -11    1    3    3    0    0  0.17738374229E+02  0.23642032614E+02  0.11328258164E+03  0.11707492870E+03  0.00000000000E+00 0.  1.
         12    1    3    3    0    0 -0.47720806145E+02 -0.85135296908E+01  0.58911815612E+02  0.76291267821E+02  0.00000000000E+00 0. -1.
         21    1    1    2  502  501  0.29982431917E+02 -0.15128502923E+02  0.78849768115E+02  0.85703580766E+02  0.00000000000E+00 0. -1.
<mgrwt>
<rscale>  1 0.87974857E+02</rscale>
<asrwt>0</asrwt>
<pdfrwt beam="1">  1        2 0.21558165E-02 0.87974857E+02</pdfrwt>
<pdfrwt beam="2">  1       -1 0.40777992E-01 0.87974857E+02</pdfrwt>
<totfact> 0.29356243E+04</totfact>
</mgrwt>
</event>
<event>
 6    2  0.1063641E+001  0.8467375E+02  0.7546771E-02  0.1316288E+00
          2   -1    0    0  502    0  0.00000000000E+00  0.00000000000E+00  0.52786030979E+02  0.52786030979E+02  0.00000000000E+00 0. -1.
         -1   -1    0    0    0  501 -0.00000000000E+00 -0.00000000000E+00 -0.79032783848E+02  0.79032783848E+02  0.00000000000E+00 0.  1.
         24    2    1    2    0    0  0.28253018873E+02 -0.48493016206E+01 -0.46611373462E+02  0.96655388180E+02  0.79673679008E+02 0.  0.
        -11    1    3    3    0    0  0.50276870019E+02 -0.22392771757E+02 -0.39101743206E+02  0.67514044521E+02  0.00000000000E+00 0.  1.
         12    1    3    3    0    0 -0.22023851146E+02  0.17543470136E+02 -0.75096302559E+01  0.29141343660E+02  0.00000000000E+00 0. -1.
         21    1    1    2  502  501 -0.28253018873E+02  0.48493016206E+01  0.20364620592E+02  0.35163426646E+02  0.00000000000E+00 0. -1.
<mgrwt>
<rscale>  1 0.84673750E+02</rscale>
<asrwt>0</asrwt>
<pdfrwt beam="1">  1        2 0.81209278E-02 0.84673750E+02</pdfrwt>
<pdfrwt beam="2">  1       -1 0.12158890E-01 0.84673750E+02</pdfrwt>
<totfact> 0.36732662E+04</totfact>
</mgrwt>
</event>
<event>
 6    2  0.1063641E+001  0.9139663E+02  0.7546771E-02  0.1299504E+00
          2   -1    0    0  502    0  0.00000000000E+00  0.00000000000E+00  0.28603280821E+02  0.28603280821E+02  0.00000000000E+00 0. -1.
         -1   -1    0    0    0  501 -0.00000000000E+00 -0.00000000000E+00 -0.16076076578E+03  0.16076076578E+03  0.00000000000E+00 0.  1.
         24    2    1    2    0    0 -0.42661441241E+02 -0.13850306478E+01 -0.10282517282E+03  0.13757310710E+03  0.80817242921E+02 0.  0.
        -13    1    3    3    0    0 -0.57517802356E+02  0.20074770003E+02 -0.89504912626E+02  0.10827014068E+03  0.00000000000E+00 0.  1.
         14    1    3    3    0    0  0.14856361115E+02 -0.21459800650E+02 -0.13320260199E+02  0.29302966425E+02  0.00000000000E+00 0. -1.
         21    1    1    2  502  501  0.42661441241E+02  0.13850306478E+01 -0.29332312129E+02  0.51790939492E+02  0.00000000000E+00 0. -1.
<mgrwt>
<rscale>  1 0.91396628E+02</rscale>
<asrwt>0</asrwt>
<pdfrwt beam="1">  1        2 0.44005047E-02 0.91396628E+02</pdfrwt>
<pdfrwt beam="2">  1       -1 0.24732426E-01 0.91396628E+02</pdfrwt>
<totfact> 0.26508652E+04</totfact>
</mgrwt>
</event>
<event>
 6    2  0.1063641E+001  0.9630668E+02  0.7546771E-02  0.1288260E+00
         -1   -1    0    0    0  501 -0.00000000000E+00  0.00000000000E+00  0.14979078439E+03  0.14979078439E+03  0.00000000000E+00 0.  1.
          2   -1    0    0  502    0  0.00000000000E+00 -0.00000000000E+00 -0.53488473675E+02  0.53488473675E+02  0.00000000000E+00 0. -1.
         24    2    1    2    0    0 -0.14111503029E+02  0.61802005538E+02  0.10119571801E+03  0.13969806712E+03  0.72500718666E+02 0.  0.
        -13    1    3    3    0    0 -0.12788847029E+02  0.54446784304E+02  0.11279509585E+03  0.12589972430E+03  0.00000000000E+00 0.  1.
         14    1    3    3    0    0 -0.13226559998E+01  0.73552212343E+01 -0.11599377843E+02  0.13798342823E+02  0.00000000000E+00 0. -1.
         21    1    1    2  502  501  0.14111503029E+02 -0.61802005538E+02 -0.48934073012E+01  0.63581190939E+02  0.00000000000E+00 0. -1.
<mgrwt>
<rscale>  1 0.96306680E+02</rscale>
<asrwt>0</asrwt>
<pdfrwt beam="1">  1        2 0.82289960E-02 0.96306680E+02</pdfrwt>
<pdfrwt beam="2">  1       -1 0.23044736E-01 0.96306680E+02</pdfrwt>
<totfact> 0.13483504E+04</totfact>
</mgrwt>
</event>
<event>
 6    2  0.1063641E+001  0.8110518E+02  0.7546771E-02  0.1325944E+00
         -1   -1    0    0    0  501 -0.00000000000E+00  0.00000000000E+00  0.30932748075E+01  0.30932748075E+01  0.00000000000E+00 0.  1.
          2   -1    0    0  502    0  0.00000000000E+00 -0.00000000000E+00 -0.12801200415E+04  0.12801200415E+04  0.00000000000E+00 0. -1.
         24    2    1    2    0    0  0.18064845547E+02 -0.15437876140E+02 -0.56515230637E+03  0.57094236089E+03  0.77546008311E+02 0.  0.
        -11    1    3    3    0    0  0.41529103497E+02 -0.22541872461E+02 -0.22502840752E+03  0.22993604903E+03  0.00000000000E+00 0.  1.
         12    1    3    3    0    0 -0.23464257950E+02  0.71039963210E+01 -0.34012389885E+03  0.34100631186E+03  0.00000000000E+00 0. -1.
         21    1    1    2  502  501 -0.18064845547E+02  0.15437876140E+02 -0.71187446032E+03  0.71227095541E+03  0.00000000000E+00 0.  1.
<mgrwt>
<rscale>  1 0.81105179E+02</rscale>
<asrwt>0</asrwt>
<pdfrwt beam="1">  1        2 0.19694144E+00 0.81105179E+02</pdfrwt>
<pdfrwt beam="2">  1       -1 0.47588870E-03 0.81105179E+02</pdfrwt>
<totfact> 0.99007882E+04</totfact>
</mgrwt>
</event>
<event>
 6    2  0.1063641E+001  0.8852799E+02  0.7546771E-02  0.1306456E+00
         -1   -1    0    0    0  501 -0.00000000000E+00  0.00000000000E+00  0.28500808892E+02  0.28500808892E+02  0.00000000000E+00 0.  1.
          2   -1    0    0  502    0  0.00000000000E+00 -0.00000000000E+00 -0.58175292981E+03  0.58175292981E+03  0.00000000000E+00 0. -1.
         24    2    1    2    0    0  0.33590347975E+02  0.65204837237E+01 -0.42225102800E+02  0.98082437836E+02  0.81647884971E+02 0.  0.
        -11    1    3    3    0    0  0.50336380497E+02 -0.70070579743E+01 -0.15222231301E+00  0.50821975903E+02  0.00000000000E+00 0.  1.
         12    1    3    3    0    0 -0.16746032523E+02  0.13527541698E+02 -0.42072880487E+02  0.47260461933E+02  0.00000000000E+00 0. -1.
         21    1    1    2  502  501 -0.33590347975E+02 -0.65204837237E+01 -0.51102701811E+03  0.51217130086E+03  0.00000000000E+00 0. -1.
<mgrwt>
<rscale>  1 0.88527992E+02</rscale>
<asrwt>0</asrwt>
<pdfrwt beam="1">  1        2 0.89500454E-01 0.88527992E+02</pdfrwt>
<pdfrwt beam="2">  1       -1 0.43847397E-02 0.88527992E+02</pdfrwt>
<totfact> 0.11759597E+04</totfact>
</mgrwt>
</event>
<event>
 6    2  0.1063641E+001  0.1317715E+03  0.7546771E-02  0.1224851E+00
          2   -1    0    0  502    0  0.00000000000E+00  0.00000000000E+00  0.74182521182E+03  0.74182521182E+03  0.00000000000E+00 0. -1.
         -1   -1    0    0    0  501 -0.00000000000E+00 -0.00000000000E+00 -0.28752844329E+02  0.28752844329E+02  0.00000000000E+00 0.  1.
         24    2    1    2    0    0  0.15897470040E+02  0.96019364613E+02  0.15217025019E+03  0.20129461784E+03  0.88832934184E+02 0.  0.
        -13    1    3    3    0    0 -0.15327269877E+02  0.65782687712E+02  0.34483861283E+02  0.75838142735E+02  0.00000000000E+00 0.  1.
         14    1    3    3    0    0  0.31224739916E+02  0.30236676900E+02  0.11768638890E+03  0.12545647511E+03  0.00000000000E+00 0. -1.
         21    1    1    2  502  501 -0.15897470040E+02 -0.96019364613E+02  0.56090211730E+03  0.56928343830E+03  0.00000000000E+00 0. -1.
<mgrwt>
<rscale>  1 0.13177154E+03</rscale>
<asrwt>0</asrwt>
<pdfrwt beam="1">  1        2 0.11412694E+00 0.13177154E+03</pdfrwt>
<pdfrwt beam="2">  1       -1 0.44235151E-02 0.13177154E+03</pdfrwt>
<totfact> 0.90137550E+03</totfact>
</mgrwt>
</event>
<event>
 6    2  0.1063641E+001  0.8360986E+02  0.7546771E-02  0.1319108E+00
          2   -1    0    0  502    0  0.00000000000E+00  0.00000000000E+00  0.25287268261E+04  0.25287268261E+04  0.00000000000E+00 0. -1.
         -1   -1    0    0    0  501 -0.00000000000E+00 -0.00000000000E+00 -0.19660413233E+01  0.19660413233E+01  0.00000000000E+00 0.  1.
         24    2    1    2    0    0 -0.10639390952E+02 -0.30100228942E+02  0.96770233796E+03  0.97130758437E+03  0.77274757415E+02 0.  0.
        -13    1    3    3    0    0  0.28177888819E+02  0.44506813945E+01  0.22718196723E+03  0.22896604163E+03  0.00000000000E+00 0.  1.
         14    1    3    3    0    0 -0.38817279770E+02 -0.34550910336E+02  0.74052037073E+03  0.74234154274E+03  0.00000000000E+00 0. -1.
         21    1    1    2  502  501  0.10639390952E+02  0.30100228942E+02  0.15590584468E+04  0.15593852830E+04  0.00000000000E+00 0. -1.
<mgrwt>
<rscale>  1 0.83609859E+02</rscale>
<asrwt>0</asrwt>
<pdfrwt beam="1">  1        2 0.38903229E+00 0.83609859E+02</pdfrwt>
<pdfrwt beam="2">  1       -1 0.30246992E-03 0.83609859E+02</pdfrwt>
<totfact> 0.43317394E+04</totfact>
</mgrwt>
</event>
<event>
 6    2  0.1063641E+001  0.8639492E+02  0.7546771E-02  0.1311824E+00
         -1   -1    0    0    0  501 -0.00000000000E+00  0.00000000000E+00  0.14515397479E+02  0.14515397479E+02  0.00000000000E+00 0.  1.
          2   -1    0    0  502    0  0.00000000000E+00 -0.00000000000E+00 -0.24671446290E+03  0.24671446290E+03  0.00000000000E+00 0. -1.
         24    2    1    2    0    0 -0.24912687792E+02  0.10384186747E+02 -0.13438618338E+03  0.15976147495E+03  0.82070757573E+02 0.  0.
        -11    1    3    3    0    0 -0.37116736498E+02  0.36163835682E+01 -0.16040578112E+02  0.40595941972E+02  0.00000000000E+00 0.  1.
         12    1    3    3    0    0  0.12204048706E+02  0.67678031788E+01 -0.11834560527E+03  0.11916553298E+03  0.00000000000E+00 0. -1.
         21    1    1    2  502  501  0.24912687792E+02 -0.10384186747E+02 -0.97812882043E+02  0.10146838543E+03  0.00000000000E+00 0. -1.
<mgrwt>
<rscale>  1 0.86394922E+02</rscale>
<asrwt>0</asrwt>
<pdfrwt beam="1">  1        2 0.37956069E-01 0.86394922E+02</pdfrwt>
<pdfrwt beam="2">  1       -1 0.22331382E-02 0.86394922E+02</pdfrwt>
<totfact> 0.76878678E+04</totfact>
</mgrwt>
</event>
<event>
 6    2  0.1063641E+001  0.8576590E+02  0.7546771E-02  0.1313442E+00
         -1   -1    0    0    0  501 -0.00000000000E+00  0.00000000000E+00  0.25416682595E+03  0.25416682595E+03  0.00000000000E+00 0.  1.
          2   -1    0    0  502    0  0.00000000000E+00 -0.00000000000E+00 -0.29629636111E+02  0.29629636111E+02  0.00000000000E+00 0. -1.
         24    2    1    2    0    0  0.21426752950E+02 -0.48956469475E+01  0.24134255617E+03  0.25612890997E+03  0.82901845583E+02 0.  0.
        -11    1    3    3    0    0 -0.23988082979E+02  0.15069891517E+02  0.14524040102E+03  0.14797737613E+03  0.00000000000E+00 0.  1.
         12    1    3    3    0    0  0.45414835929E+02 -0.19965538464E+02  0.96102155150E+02  0.10815153385E+03  0.00000000000E+00 0. -1.
         21    1    1    2  502  501 -0.21426752950E+02  0.48956469475E+01 -0.16805366336E+02  0.27667552090E+02  0.00000000000E+00 0. -1.
<mgrwt>
<rscale>  1 0.85765897E+02</rscale>
<asrwt>0</asrwt>
<pdfrwt beam="1">  1        2 0.45584057E-02 0.85765897E+02</pdfrwt>
<pdfrwt beam="2">  1       -1 0.39102587E-01 0.85765897E+02</pdfrwt>
<totfact> 0.11695779E+04</totfact>
</mgrwt>
</event>
<event>
 6    2  0.1063641E+001  0.8785781E+02  0.7546771E-02  0.1308124E+00
          4   -1    0    0  502    0  0.00000000000E+00  0.00000000000E+00  0.10968287531E+03  0.10968287531E+03  0.00000000000E+00 0. -1.
         -3   -1    0    0    0  501 -0.00000000000E+00 -0.00000000000E+00 -0.42293194704E+02  0.42293194704E+02  0.00000000000E+00 0.  1.
         24    2    1    2    0    0  0.25219823249E+02 -0.22492170846E+02  0.14256105851E+02  0.89006918834E+02  0.81099061722E+02 0.  0.
        -11    1    3    3    0    0  0.14512203683E+02 -0.47752435584E+02 -0.11674355064E+02  0.51256118914E+02  0.00000000000E+00 0.  1.
         12    1    3    3    0    0  0.10707619566E+02  0.25260264738E+02  0.25930460915E+02  0.37750799921E+02  0.00000000000E+00 0. -1.
         21    1    1    2  502  501 -0.25219823249E+02  0.22492170846E+02  0.53133574760E+02  0.62969151184E+02  0.00000000000E+00 0. -1.
<mgrwt>
<rscale>  1 0.87857812E+02</rscale>
<asrwt>0</asrwt>
<pdfrwt beam="1">  1        4 0.16874288E-01 0.87857812E+02</pdfrwt>
<pdfrwt beam="2">  1       -3 0.65066454E-02 0.87857812E+02</pdfrwt>
<totfact> 0.78598271E+03</totfact>
</mgrwt>
</event>
<event>
 6    2  0.1063641E+001  0.8213571E+02  0.7546771E-02  0.1323098E+00
         -1   -1    0    0    0  501 -0.00000000000E+00  0.00000000000E+00  0.42781986738E+03  0.42781986738E+03  0.00000000000E+00 0.  1.
          2   -1    0    0  502    0  0.00000000000E+00 -0.00000000000E+00 -0.71854902116E+01  0.71854902116E+01  0.00000000000E+00 0. -1.
         24    2    1    2    0    0 -0.35801319424E+01  0.21491555800E+02  0.38123897199E+03  0.38998644751E+03  0.79193252020E+02 0.  0.
        -11    1    3    3    0    0  0.35262368109E+02  0.80040223256E+01  0.24574416411E+03  0.24839020345E+03  0.00000000000E+00 0.  1.
         12    1    3    3    0    0 -0.38842500051E+02  0.13487533475E+02  0.13549480788E+03  0.14159624406E+03  0.00000000000E+00 0. -1.
         21    1    1    2  502  501  0.35801319424E+01 -0.21491555800E+02  0.39395405186E+02  0.45018910085E+02  0.00000000000E+00 0. -1.
<mgrwt>
<rscale>  1 0.82135714E+02</rscale>
<asrwt>0</asrwt>
<pdfrwt beam="1">  1        2 0.11054604E-02 0.82135714E+02</pdfrwt>
<pdfrwt beam="2">  1       -1 0.65818421E-01 0.82135714E+02</pdfrwt>
<totfact> 0.30066776E+04</totfact>
</mgrwt>
</event>
<event>
 6    2  0.1063641E+001  0.6595320E+02  0.7546771E-02  0.1374421E+00
         -1   -1    0    0    0  501 -0.00000000000E+00  0.00000000000E+00  0.89966258630E+02  0.89966258630E+02  0.00000000000E+00 0.  1.
          2   -1    0    0  502    0  0.00000000000E+00 -0.00000000000E+00 -0.28466182801E+02  0.28466182801E+02  0.00000000000E+00 0. -1.
         24    2    1    2    0    0 -0.18222699276E+02 -0.16995939729E+02  0.65779542365E+02  0.93149194605E+02  0.61064683130E+02 0.  0.
        -11    1    3    3    0    0 -0.94459110632E+01 -0.26806129600E+02  0.72856597545E+02  0.78204076785E+02  0.00000000000E+00 0.  1.
         12    1    3    3    0    0 -0.87767882123E+01  0.98101898707E+01 -0.70770551810E+01  0.14945117820E+02  0.00000000000E+00 0. -1.
         21    1    1    2  502  501  0.18222699276E+02  0.16995939729E+02 -0.42794665354E+01  0.25283246825E+02  0.00000000000E+00 0. -1.
<mgrwt>
<rscale>  1 0.65953198E+02</rscale>
<asrwt>0</asrwt>
<pdfrwt beam="1">  1        2 0.43794128E-02 0.65953198E+02</pdfrwt>
<pdfrwt beam="2">  1       -1 0.13840963E-01 0.65953198E+02</pdfrwt>
<totfact> 0.63383275E+04</totfact>
</mgrwt>
</event>
<event>
 6    2  0.1063641E+001  0.8937973E+02  0.7546771E-02  0.1304361E+00
          2   -1    0    0  502    0  0.00000000000E+00  0.00000000000E+00  0.63563910280E+03  0.63563910280E+03  0.00000000000E+00 0. -1.
         -1   -1    0    0    0  501 -0.00000000000E+00 -0.00000000000E+00 -0.63216351360E+01  0.63216351360E+01  0.00000000000E+00 0.  1.
         24    2    1    2    0    0  0.89045927142E+00  0.37368092275E+02  0.43832772693E+03  0.44734766462E+03  0.81188482013E+02 0.  0.
        -13    1    3    3    0    0 -0.29196478711E+02 -0.11944768847E+02  0.14659426616E+03  0.14994996080E+03  0.00000000000E+00 0.  1.
         14    1    3    3    0    0  0.30086937983E+02  0.49312861123E+02  0.29173346076E+03  0.29739770382E+03  0.00000000000E+00 0. -1.
         21    1    1    2  502  501 -0.89045927142E+00 -0.37368092275E+02  0.19098974074E+03  0.19461307332E+03  0.00000000000E+00 0.  1.
<mgrwt>
<rscale>  1 0.89379734E+02</rscale>
<asrwt>0</asrwt>
<pdfrwt beam="1">  1        2 0.97790581E-01 0.89379734E+02</pdfrwt>
<pdfrwt beam="2">  1       -1 0.97255975E-03 0.89379734E+02</pdfrwt>
<totfact> 0.91651719E+04</totfact>
</mgrwt>
</event>
<event>
 6    2  0.1063641E+001  0.8421567E+02  0.7546771E-02  0.1317496E+00
          2   -1    0    0  502    0  0.00000000000E+00  0.00000000000E+00  0.28388929313E+03  0.28388929313E+03  0.00000000000E+00 0. -1.
         -1   -1    0    0    0  501 -0.00000000000E+00 -0.00000000000E+00 -0.13719463543E+02  0.13719463543E+02  0.00000000000E+00 0.  1.
         24    2    1    2    0    0 -0.26391941286E+02  0.18517518914E+02  0.13888585352E+03  0.16242401107E+03  0.77800038515E+02 0.  0.
        -11    1    3    3    0    0 -0.42053483753E+02  0.21380590954E+02  0.38807649566E+02  0.61087304984E+02  0.00000000000E+00 0.  1.
         12    1    3    3    0    0  0.15661542468E+02 -0.28630720404E+01  0.10007820395E+03  0.10133670609E+03  0.00000000000E+00 0. -1.
         21    1    1    2  502  501  0.26391941286E+02 -0.18517518914E+02  0.13128397606E+03  0.13518474560E+03  0.00000000000E+00 0. -1.
<mgrwt>
<rscale>  1 0.84215670E+02</rscale>
<asrwt>0</asrwt>
<pdfrwt beam="1">  1        2 0.43675271E-01 0.84215670E+02</pdfrwt>
<pdfrwt beam="2">  1       -1 0.21106869E-02 0.84215670E+02</pdfrwt>
<totfact> 0.71680846E+04</totfact>
</mgrwt>
</event>
<event>
 6    2  0.1063641E+001  0.8514766E+02  0.7546771E-02  0.1315047E+00
          2   -1    0    0  502    0  0.00000000000E+00  0.00000000000E+00  0.58667309477E+02  0.58667309477E+02  0.00000000000E+00 0. -1.
         -1   -1    0    0    0  501 -0.00000000000E+00 -0.00000000000E+00 -0.52250771315E+02  0.52250771315E+02  0.00000000000E+00 0.  1.
         24    2    1    2    0    0  0.15714313648E+01 -0.20732725278E+02 -0.81414414882E+01  0.85535999209E+02  0.82570023599E+02 0.  0.
        -13    1    3    3    0    0 -0.26444460207E+02  0.95048696480E+01 -0.28097454936E+02  0.39738130260E+02  0.00000000000E+00 0.  1.
         14    1    3    3    0    0  0.28015891572E+02 -0.30237594926E+02  0.19956013448E+02  0.45797868949E+02  0.00000000000E+00 0. -1.
         21    1    1    2  502  501 -0.15714313648E+01  0.20732725278E+02  0.14557979650E+02  0.25382081583E+02  0.00000000000E+00 0.  1.
<mgrwt>
<rscale>  1 0.85147661E+02</rscale>
<asrwt>0</asrwt>
<pdfrwt beam="1">  1        2 0.90257399E-02 0.85147661E+02</pdfrwt>
<pdfrwt beam="2">  1       -1 0.80385802E-02 0.85147661E+02</pdfrwt>
<totfact> 0.60217720E+04</totfact>
</mgrwt>
</event>
<event>
 6    2  0.1063641E+001  0.1265171E+03  0.7546771E-02  0.1232717E+00
         -1   -1    0    0    0  501 -0.00000000000E+00  0.00000000000E+00  0.23425711108E+02  0.23425711108E+02  0.00000000000E+00 0.  1.
          2   -1    0    0  502    0  0.00000000000E+00 -0.00000000000E+00 -0.11932726368E+04  0.11932726368E+04  0.00000000000E+00 0. -1.
         24    2    1    2    0    0  0.85569132378E+02 -0.14581339712E+02 -0.16408048787E+03  0.20719311299E+03  0.92042857877E+02 0.  0.
        -13    1    3    3    0    0  0.57399337815E+02 -0.39194092670E+02 -0.46047018346E+02  0.83373789529E+02  0.00000000000E+00 0.  1.
         14    1    3    3    0    0  0.28169794563E+02  0.24612752958E+02 -0.11803346953E+03  0.12381932346E+03  0.00000000000E+00 0. -1.
         21    1    1    2  502  501 -0.85569132378E+02  0.14581339712E+02 -0.10057664378E+04  0.10095052349E+04  0.00000000000E+00 0. -1.
<mgrwt>
<rscale>  1 0.12651711E+03</rscale>
<asrwt>0</asrwt>
<pdfrwt beam="1">  1        2 0.18358043E+00 0.12651711E+03</pdfrwt>
<pdfrwt beam="2">  1       -1 0.36039550E-02 0.12651711E+03</pdfrwt>
<totfact> 0.64192548E+03</totfact>
</mgrwt>
</event>
<event>
 6    2  0.1063641E+001  0.8573142E+02  0.7546771E-02  0.1313531E+00
         -1   -1    0    0    0  501 -0.00000000000E+00  0.00000000000E+00  0.31936679621E+01  0.31936679621E+01  0.00000000000E+00 0.  1.
          2   -1    0    0  502    0  0.00000000000E+00 -0.00000000000E+00 -0.11218712898E+04  0.11218712898E+04  0.00000000000E+00 0. -1.
         24    2    1    2    0    0 -0.76487431125E+01 -0.29744562493E+02 -0.69339506210E+03  0.69867488062E+03  0.80041454222E+02 0.  0.
        -13    1    3    3    0    0  0.66584087425E+01  0.10609634063E+02 -0.18030082147E+02  0.21954102217E+02  0.00000000000E+00 0.  1.
         14    1    3    3    0    0 -0.14307151855E+02 -0.40354196555E+02 -0.67536497996E+03  0.67672077841E+03  0.00000000000E+00 0. -1.
         21    1    1    2  502  501  0.76487431125E+01  0.29744562493E+02 -0.42528255977E+03  0.42639007717E+03  0.00000000000E+00 0.  1.
<mgrwt>
<rscale>  1 0.85731422E+02</rscale>
<asrwt>0</asrwt>
<pdfrwt beam="1">  1        2 0.17259564E+00 0.85731422E+02</pdfrwt>
<pdfrwt beam="2">  1       -1 0.49133337E-03 0.85731422E+02</pdfrwt>
<totfact> 0.11615650E+05</totfact>
</mgrwt>
</event>
<event>
 6    2  0.1063641E+001  0.9613929E+02  0.7546771E-02  0.1288631E+00
         -1   -1    0    0    0  501 -0.00000000000E+00  0.00000000000E+00  0.36888853827E+03  0.36888853827E+03  0.00000000000E+00 0.  1.
          2   -1    0    0  502    0  0.00000000000E+00 -0.00000000000E+00 -0.15392446649E+02  0.15392446649E+02  0.00000000000E+00 0. -1.
         24    2    1    2    0    0 -0.54346827896E+02  0.32199388644E+01  0.23312495703E+03  0.25217059262E+03  0.79238983385E+02 0.  0.
        -13    1    3    3    0    0 -0.63824731675E+02  0.24692419849E+02  0.20138384450E+03  0.21269406385E+03  0.00000000000E+00 0.  1.
         14    1    3    3    0    0  0.94779037797E+01 -0.21472480985E+02  0.31741112522E+02  0.39476528771E+02  0.00000000000E+00 0. -1.
         21    1    1    2  502  501  0.54346827896E+02 -0.32199388644E+01  0.12037113460E+03  0.13211039230E+03  0.00000000000E+00 0. -1.
<mgrwt>
<rscale>  1 0.96139285E+02</rscale>
<asrwt>0</asrwt>
<pdfrwt beam="1">  1        2 0.23680690E-02 0.96139285E+02</pdfrwt>
<pdfrwt beam="2">  1       -1 0.56752076E-01 0.96139285E+02</pdfrwt>
<totfact> 0.14449826E+04</totfact>
</mgrwt>
</event>
<event>
 6    2  0.1063641E+001  0.8434282E+02  0.7546771E-02  0.1317160E+00
          2   -1    0    0  502    0  0.00000000000E+00  0.00000000000E+00  0.89219809610E+03  0.89219809610E+03  0.00000000000E+00 0. -1.
         -1   -1    0    0    0  501 -0.00000000000E+00 -0.00000000000E+00 -0.11463185339E+02  0.11463185339E+02  0.00000000000E+00 0.  1.
         24    2    1    2    0    0 -0.19532683224E+02 -0.96063046716E+01  0.14605326363E+03  0.16865724783E+03  0.81485609912E+02 0.  0.
        -13    1    3    3    0    0 -0.45284357148E+02 -0.23504343440E+02  0.65987188771E+02  0.83411247712E+02  0.00000000000E+00 0.  1.
         14    1    3    3    0    0  0.25751673925E+02  0.13898038769E+02  0.80066074864E+02  0.85246000115E+02  0.00000000000E+00 0. -1.
         21    1    1    2  502  501  0.19532683224E+02  0.96063046716E+01  0.73468164713E+03  0.73500403362E+03  0.00000000000E+00 0. -1.
<mgrwt>
<rscale>  1 0.84342821E+02</rscale>
<asrwt>0</asrwt>
<pdfrwt beam="1">  1        2 0.13726119E+00 0.84342821E+02</pdfrwt>
<pdfrwt beam="2">  1       -1 0.17635677E-02 0.84342821E+02</pdfrwt>
<totfact> 0.26146288E+04</totfact>
</mgrwt>
</event>
<event>
 6    2  0.1063641E+001  0.8749362E+02  0.7546771E-02  0.1309037E+00
         -1   -1    0    0    0  501 -0.00000000000E+00  0.00000000000E+00  0.84556601688E+02  0.84556601688E+02  0.00000000000E+00 0.  1.
          2   -1    0    0  502    0  0.00000000000E+00 -0.00000000000E+00 -0.64982051082E+02  0.64982051082E+02  0.00000000000E+00 0. -1.
         24    2    1    2    0    0 -0.24756894260E+02  0.99660616578E+01  0.56372682775E+02  0.10408176408E+03  0.83324114470E+02 0.  0.
        -11    1    3    3    0    0 -0.29754602165E+01 -0.83630065606E+01  0.71360207489E+02  0.71910169344E+02  0.00000000000E+00 0.  1.
         12    1    3    3    0    0 -0.21781434043E+02  0.18329068218E+02 -0.14987524714E+02  0.32171594735E+02  0.00000000000E+00 0. -1.
         21    1    1    2  502  501  0.24756894260E+02 -0.99660616578E+01 -0.36798132168E+02  0.45456888691E+02  0.00000000000E+00 0. -1.
<mgrwt>
<rscale>  1 0.87493624E+02</rscale>
<asrwt>0</asrwt>
<pdfrwt beam="1">  1        2 0.99972387E-02 0.87493624E+02</pdfrwt>
<pdfrwt beam="2">  1       -1 0.13008708E-01 0.87493624E+02</pdfrwt>
<totfact> 0.25799294E+04</totfact>
</mgrwt>
</event>
<event>
 6    2  0.1063641E+001  0.8227989E+02  0.7546771E-02  0.1322703E+00
          2   -1    0    0  502    0  0.00000000000E+00  0.00000000000E+00  0.40040938142E+03  0.40040938142E+03  0.00000000000E+00 0. -1.
         -1   -1    0    0    0  501 -0.00000000000E+00 -0.00000000000E+00 -0.11309218918E+02  0.11309218918E+02  0.00000000000E+00 0.  1.
         24    2    1    2    0    0  0.23307417806E+02 -0.95702211908E+01  0.14823617681E+03  0.16954039227E+03  0.78327234335E+02 0.  0.
        -13    1    3    3    0    0  0.14549502597E+02  0.34445462234E+02  0.66115848695E+02  0.75957115157E+02  0.00000000000E+00 0.  1.
         14    1    3    3    0    0  0.87579152093E+01 -0.44015683424E+02  0.82120328115E+02  0.93583277117E+02  0.00000000000E+00 0. -1.
         21    1    1    2  502  501 -0.23307417806E+02  0.95702211908E+01  0.24086398569E+03  0.24217820806E+03  0.00000000000E+00 0. -1.
<mgrwt>
<rscale>  1 0.82279891E+02</rscale>
<asrwt>0</asrwt>
<pdfrwt beam="1">  1        2 0.61601432E-01 0.82279891E+02</pdfrwt>
<pdfrwt beam="2">  1       -1 0.17398801E-02 0.82279891E+02</pdfrwt>
<totfact> 0.65681596E+04</totfact>
</mgrwt>
</event>
<event>
 6    2  0.1063641E+001  0.8620792E+02  0.7546771E-02  0.1312304E+00
          2   -1    0    0  502    0  0.00000000000E+00  0.00000000000E+00  0.10279890467E+03  0.10279890467E+03  0.00000000000E+00 0. -1.
         -1   -1    0    0    0  501 -0.00000000000E+00 -0.00000000000E+00 -0.32027307978E+02  0.32027307978E+02  0.00000000000E+00 0.  1.
         24    2    1    2    0    0  0.21334113601E+02 -0.15753970530E+02  0.42682867096E+02  0.96195800782E+02  0.82027269575E+02 0.  0.
        -13    1    3    3    0    0 -0.20644452979E+02 -0.16449491314E+02 -0.10525867614E+02  0.28417830535E+02  0.00000000000E+00 0.  1.
         14    1    3    3    0    0  0.41978566580E+02  0.69552078381E+00  0.53208734710E+02  0.67777970247E+02  0.00000000000E+00 0. -1.
         21    1    1    2  502  501 -0.21334113601E+02  0.15753970530E+02  0.28088729592E+02  0.38630411863E+02  0.00000000000E+00 0.  1.
<mgrwt>
<rscale>  1 0.86207917E+02</rscale>
<asrwt>0</asrwt>
<pdfrwt beam="1">  1        2 0.15815216E-01 0.86207917E+02</pdfrwt>
<pdfrwt beam="2">  1       -1 0.49272782E-02 0.86207917E+02</pdfrwt>
<totfact> 0.63848064E+04</totfact>
</mgrwt>
</event>
<event>
 6    2  0.1063641E+001  0.8638771E+02  0.7546771E-02  0.1311843E+00
          2   -1    0    0  502    0  0.00000000000E+00  0.00000000000E+00  0.13003811830E+04  0.13003811830E+04  0.00000000000E+00 0. -1.
         -1   -1    0    0    0  501 -0.00000000000E+00 -0.00000000000E+00 -0.43711524370E+01  0.43711524370E+01  0.00000000000E+00 0.  1.
         24    2    1    2    0    0  0.28165243083E+02  0.85935701533E+01  0.44925341597E+03  0.45748384510E+03  0.81213954455E+02 0.  0.
        -11    1    3    3    0    0  0.33715655720E+02  0.40647866285E+02  0.24223202791E+03  0.24792206400E+03  0.00000000000E+00 0.  1.
         12    1    3    3    0    0 -0.55504126372E+01 -0.32054296132E+02  0.20702138806E+03  0.20956178110E+03  0.00000000000E+00 0. -1.
         21    1    1    2  502  501 -0.28165243083E+02 -0.85935701533E+01  0.84675661454E+03  0.84726849029E+03  0.00000000000E+00 0. -1.
<mgrwt>
<rscale>  1 0.86387712E+02</rscale>
<asrwt>0</asrwt>
<pdfrwt beam="1">  1        2 0.20005834E+00 0.86387712E+02</pdfrwt>
<pdfrwt beam="2">  1       -1 0.67248603E-03 0.86387712E+02</pdfrwt>
<totfact> 0.60022093E+04</totfact>
</mgrwt>
</event>
<event>
 6    2  0.1063641E+001  0.9202479E+02  0.7546771E-02  0.1298021E+00
          4   -1    0    0  502    0  0.00000000000E+00  0.00000000000E+00  0.11661344024E+02  0.11661344024E+02  0.00000000000E+00 0. -1.
         -3   -1    0    0    0  501 -0.00000000000E+00 -0.00000000000E+00 -0.39683766738E+03  0.39683766738E+03  0.00000000000E+00 0.  1.
         24    2    1    2    0    0 -0.40477023257E+02  0.85665237162E+01 -0.30015723936E+03  0.31394733567E+03  0.82199674542E+02 0.  0.
        -11    1    3    3    0    0 -0.47220131211E+02  0.69970671326E+01 -0.30279785855E+03  0.30653750648E+03  0.00000000000E+00 0.  1.
         12    1    3    3    0    0  0.67431079540E+01  0.15694565837E+01  0.26406191907E+01  0.74098291855E+01  0.00000000000E+00 0. -1.
         21    1    1    2  502  501  0.40477023257E+02 -0.85665237162E+01 -0.85019084005E+02  0.94551675740E+02  0.00000000000E+00 0.  1.
<mgrwt>
<rscale>  1 0.92024786E+02</rscale>
<asrwt>0</asrwt>
<pdfrwt beam="1">  1        4 0.17940528E-02 0.92024786E+02</pdfrwt>
<pdfrwt beam="2">  1       -3 0.61051954E-01 0.92024786E+02</pdfrwt>
<totfact> 0.56451282E+03</totfact>
</mgrwt>
</event>
<event>
 6    2  0.1063641E+001  0.8292561E+02  0.7546771E-02  0.1320948E+00
         -1   -1    0    0    0  501 -0.00000000000E+00  0.00000000000E+00  0.52294044986E+01  0.52294044986E+01  0.00000000000E+00 0.  1.
          2   -1    0    0  502    0  0.00000000000E+00 -0.00000000000E+00 -0.12126573617E+04  0.12126573617E+04  0.00000000000E+00 0. -1.
         24    2    1    2    0    0 -0.23119261880E+02 -0.43235987247E+01 -0.33394072660E+03  0.34408293479E+03  0.79520207180E+02 0.  0.
        -11    1    3    3    0    0 -0.38699748177E+02  0.22185112163E+02 -0.12152750139E+03  0.12945571947E+03  0.00000000000E+00 0.  1.
         12    1    3    3    0    0  0.15580486297E+02 -0.26508710887E+02 -0.21241322522E+03  0.21462721531E+03  0.00000000000E+00 0. -1.
         21    1    1    2  502  501  0.23119261880E+02  0.43235987247E+01 -0.87348723063E+03  0.87380383144E+03  0.00000000000E+00 0. -1.
<mgrwt>
<rscale>  1 0.82925612E+02</rscale>
<asrwt>0</asrwt>
<pdfrwt beam="1">  1        2 0.18656296E+00 0.82925612E+02</pdfrwt>
<pdfrwt beam="2">  1       -1 0.80452254E-03 0.82925612E+02</pdfrwt>
<totfact> 0.51753583E+04</totfact>
</mgrwt>
</event>
<event>
 6    2  0.1063641E+001  0.9580164E+02  0.7546771E-02  0.1289381E+00
          2   -1    0    0  502    0  0.00000000000E+00  0.00000000000E+00  0.10566547122E+04  0.10566547122E+04  0.00000000000E+00 0. -1.
         -1   -1    0    0    0  501 -0.00000000000E+00 -0.00000000000E+00 -0.49371930775E+01  0.49371930775E+01  0.00000000000E+00 0.  1.
         24    2    1    2    0    0 -0.29985471003E+01 -0.48049192378E+02  0.65658349843E+03  0.66353586591E+03  0.82826558287E+02 0.  0.
        -11    1    3    3    0    0 -0.19867694789E+02  0.18014140265E+02  0.14913561423E+03  0.15152777295E+03  0.00000000000E+00 0.  1.
         12    1    3    3    0    0  0.16869147689E+02 -0.66063332643E+02  0.50744788421E+03  0.51200809295E+03  0.00000000000E+00 0. -1.
         21    1    1    2  502  501  0.29985471003E+01  0.48049192378E+02  0.39513402067E+03  0.39805603935E+03  0.00000000000E+00 0.  1.
<mgrwt>
<rscale>  1 0.95801644E+02</rscale>
<asrwt>0</asrwt>
<pdfrwt beam="1">  1        2 0.16256208E+00 0.95801644E+02</pdfrwt>
<pdfrwt beam="2">  1       -1 0.75956901E-03 0.95801644E+02</pdfrwt>
<totfact> 0.69595821E+04</totfact>
</mgrwt>
</event>
<event>
 6    2  0.1063641E+001  0.8432024E+02  0.7546771E-02  0.1317220E+00
         -3   -1    0    0    0  501 -0.00000000000E+00  0.00000000000E+00  0.54131298610E+03  0.54131298610E+03  0.00000000000E+00 0.  1.
          4   -1    0    0  502    0  0.00000000000E+00 -0.00000000000E+00 -0.74288463347E+01  0.74288463347E+01  0.00000000000E+00 0. -1.
         24    2    1    2    0    0 -0.35359890624E+01  0.25452512906E+02  0.49502257286E+03  0.50215261679E+03  0.80309210424E+02 0.  0.
        -11    1    3    3    0    0 -0.13260986809E+02  0.50483601890E+02  0.40058327906E+03  0.40396956729E+03  0.00000000000E+00 0.  1.
         12    1    3    3    0    0  0.97249977464E+01 -0.25031088984E+02  0.94439293794E+02  0.98183049501E+02  0.00000000000E+00 0. -1.
         21    1    1    2  502  501  0.35359890624E+01 -0.25452512906E+02  0.38861566909E+02  0.46589215646E+02  0.00000000000E+00 0. -1.
<mgrwt>
<rscale>  1 0.84320240E+02</rscale>
<asrwt>0</asrwt>
<pdfrwt beam="1">  1        4 0.11428999E-02 0.84320240E+02</pdfrwt>
<pdfrwt beam="2">  1       -3 0.83278890E-01 0.84320240E+02</pdfrwt>
<totfact> 0.56697717E+03</totfact>
</mgrwt>
</event>
<event>
 6    2  0.1063641E+001  0.1054309E+03  0.7546771E-02  0.1269273E+00
          4   -1    0    0  502    0  0.00000000000E+00  0.00000000000E+00  0.28629475930E+02  0.28629475930E+02  0.00000000000E+00 0. -1.
         -3   -1    0    0    0  501 -0.00000000000E+00 -0.00000000000E+00 -0.26175380815E+03  0.26175380815E+03  0.00000000000E+00 0.  1.
         24    2    1    2    0    0 -0.32326267838E+02 -0.59449518316E+02 -0.13919731556E+03  0.17461836159E+03  0.80848294511E+02 0.  0.
        -11    1    3    3    0    0 -0.33198403226E+02 -0.44578222379E+02 -0.14745719059E+03  0.15758481826E+03  0.00000000000E+00 0.  1.
         12    1    3    3    0    0  0.87213538739E+00 -0.14871295937E+02  0.82598750332E+01  0.17033543335E+02  0.00000000000E+00 0. -1.
         21    1    1    2  502  501  0.32326267838E+02  0.59449518316E+02 -0.93927016663E+02  0.11576492249E+03  0.00000000000E+00 0. -1.
<mgrwt>
<rscale>  1 0.10543092E+03</rscale>
<asrwt>0</asrwt>
<pdfrwt beam="1">  1        4 0.44045348E-02 0.10543092E+03</pdfrwt>
<pdfrwt beam="2">  1       -3 0.40269816E-01 0.10543092E+03</pdfrwt>
<totfact> 0.32971227E+03</totfact>
</mgrwt>
</event>
<event>
 6    2  0.1063641E+001  0.8871948E+02  0.7546771E-02  0.1305983E+00
          2   -1    0    0  502    0  0.00000000000E+00  0.00000000000E+00  0.35555117976E+03  0.35555117976E+03  0.00000000000E+00 0. -1.
         -1   -1    0    0    0  501 -0.00000000000E+00 -0.00000000000E+00 -0.23460813755E+03  0.23460813755E+03  0.00000000000E+00 0.  1.
         24    2    1    2    0    0 -0.13826826488E+02 -0.21745487134E+02 -0.22572524158E+03  0.24253459676E+03  0.84894632326E+02 0.  0.
        -13    1    3    3    0    0  0.46398269638E+01 -0.40802301700E+02 -0.20441970713E+03  0.20850365100E+03  0.00000000000E+00 0.  1.
         14    1    3    3    0    0 -0.18466653452E+02  0.19056814566E+02 -0.21305534458E+02  0.34030945765E+02  0.00000000000E+00 0. -1.
         21    1    1    2  502  501  0.13826826488E+02  0.21745487134E+02  0.34666828380E+03  0.34762472055E+03  0.00000000000E+00 0. -1.
<mgrwt>
<rscale>  1 0.88719479E+02</rscale>
<asrwt>0</asrwt>
<pdfrwt beam="1">  1        2 0.54700182E-01 0.88719479E+02</pdfrwt>
<pdfrwt beam="2">  1       -1 0.36093560E-01 0.88719479E+02</pdfrwt>
<totfact> 0.76524607E+02</totfact>
</mgrwt>
</event>
<event>
 6    2  0.1063641E+001  0.8289360E+02  0.7546771E-02  0.1321035E+00
         -1   -1    0    0    0  501 -0.00000000000E+00  0.00000000000E+00  0.85504793451E+01  0.85504793451E+01  0.00000000000E+00 0.  1.
          2   -1    0    0  502    0  0.00000000000E+00 -0.00000000000E+00 -0.90365597720E+03  0.90365597720E+03  0.00000000000E+00 0. -1.
         24    2    1    2    0    0 -0.59157177627E+01  0.21980951032E+02 -0.19699584592E+03  0.21372578820E+03  0.79706908782E+02 0.  0.
        -11    1    3    3    0    0  0.24592713585E+02  0.10285913283E+02 -0.18948753370E+02  0.32705608507E+02  0.00000000000E+00 0.  1.
         12    1    3    3    0    0 -0.30508431347E+02  0.11695037749E+02 -0.17804709255E+03  0.18102017969E+03  0.00000000000E+00 0. -1.
         21    1    1    2  502  501  0.59157177627E+01 -0.21980951032E+02 -0.69810965194E+03  0.69848066835E+03  0.00000000000E+00 0. -1.
<mgrwt>
<rscale>  1 0.82893602E+02</rscale>
<asrwt>0</asrwt>
<pdfrwt beam="1">  1        2 0.13902403E+00 0.82893602E+02</pdfrwt>
<pdfrwt beam="2">  1       -1 0.13154580E-02 0.82893602E+02</pdfrwt>
<totfact> 0.38893262E+04</totfact>
</mgrwt>
</event>
<event>
 6    2  0.1063641E+001  0.8369802E+02  0.7546771E-02  0.1318873E+00
         -1   -1    0    0    0  501 -0.00000000000E+00  0.00000000000E+00  0.52828507915E+02  0.52828507915E+02  0.00000000000E+00 0.  1.
          2   -1    0    0  502    0  0.00000000000E+00 -0.00000000000E+00 -0.85460812757E+02  0.85460812757E+02  0.00000000000E+00 0. -1.
         24    2    1    2    0    0 -0.18275934807E+02  0.26851423779E+02  0.10435805326E+02  0.84346101770E+02  0.77138512424E+02 0.  0.
        -11    1    3    3    0    0 -0.25981287997E+02  0.21230774920E+01  0.38282991836E+02  0.46315464458E+02  0.00000000000E+00 0.  1.
         12    1    3    3    0    0  0.77053531895E+01  0.24728346287E+02 -0.27847186510E+02  0.38030637313E+02  0.00000000000E+00 0. -1.
         21    1    1    2  502  501  0.18275934807E+02 -0.26851423779E+02 -0.43068110168E+02  0.53943218902E+02  0.00000000000E+00 0.  1.
<mgrwt>
<rscale>  1 0.83698022E+02</rscale>
<asrwt>0</asrwt>
<pdfrwt beam="1">  1        2 0.13147817E-01 0.83698022E+02</pdfrwt>
<pdfrwt beam="2">  1       -1 0.81274628E-02 0.83698022E+02</pdfrwt>
<totfact> 0.37664358E+04</totfact>
</mgrwt>
</event>
<event>
 6    2  0.1063641E+001  0.8446015E+02  0.7546771E-02  0.1316850E+00
         -3   -1    0    0    0  501 -0.00000000000E+00  0.00000000000E+00  0.19421916399E+02  0.19421916399E+02  0.00000000000E+00 0.  1.
          4   -1    0    0  502    0  0.00000000000E+00 -0.00000000000E+00 -0.15419488487E+03  0.15419488487E+03  0.00000000000E+00 0. -1.
         24    2    1    2    0    0 -0.13913829882E+02  0.19679766745E+02 -0.95046630502E+02  0.12715100945E+03  0.80948312847E+02 0.  0.
        -13    1    3    3    0    0 -0.28606107048E+02  0.53577613432E+00  0.48834920682E+00  0.28615291393E+02  0.00000000000E+00 0.  1.
         14    1    3    3    0    0  0.14692277166E+02  0.19143990611E+02 -0.95534979708E+02  0.98535718056E+02  0.00000000000E+00 0. -1.
         21    1    1    2  502  501  0.13913829882E+02 -0.19679766745E+02 -0.39726337970E+02  0.46465791822E+02  0.00000000000E+00 0. -1.
<mgrwt>
<rscale>  1 0.84460152E+02</rscale>
<asrwt>0</asrwt>
<pdfrwt beam="1">  1        4 0.23722290E-01 0.84460152E+02</pdfrwt>
<pdfrwt beam="2">  1       -3 0.29879872E-02 0.84460152E+02</pdfrwt>
<totfact> 0.14227753E+04</totfact>
</mgrwt>
</event>
<event>
 6    2  0.1063641E+001  0.1008488E+03  0.7546771E-02  0.1278521E+00
          2   -1    0    0  502    0  0.00000000000E+00  0.00000000000E+00  0.13056739664E+03  0.13056739664E+03  0.00000000000E+00 0. -1.
         -1   -1    0    0    0  501 -0.00000000000E+00 -0.00000000000E+00 -0.51938958168E+02  0.51938958168E+02  0.00000000000E+00 0.  1.
         24    2    1    2    0    0  0.93864443672E+01 -0.59622372178E+02  0.30650201066E+02  0.10540354120E+03  0.80793187024E+02 0.  0.
        -13    1    3    3    0    0  0.19771891010E+02 -0.33109128845E+02 -0.22830443299E+02  0.44814854995E+02  0.00000000000E+00 0.  1.
         14    1    3    3    0    0 -0.10385446643E+02 -0.26513243333E+02  0.53480644365E+02  0.60588686202E+02  0.00000000000E+00 0. -1.
         21    1    1    2  502  501 -0.93864443672E+01  0.59622372178E+02  0.47978237404E+02  0.77102813609E+02  0.00000000000E+00 0.  1.
<mgrwt>
<rscale>  1 0.10084876E+03</rscale>
<asrwt>0</asrwt>
<pdfrwt beam="1">  1        2 0.20087292E-01 0.10084876E+03</pdfrwt>
<pdfrwt beam="2">  1       -1 0.79906090E-02 0.10084876E+03</pdfrwt>
<totfact> 0.24313009E+04</totfact>
</mgrwt>
</event>
<event>
 6    2  0.1063641E+001  0.8228573E+02  0.7546771E-02  0.1322687E+00
          2   -1    0    0  502    0  0.00000000000E+00  0.00000000000E+00  0.23062511895E+02  0.23062511895E+02  0.00000000000E+00 0. -1.
         -1   -1    0    0    0  501 -0.00000000000E+00 -0.00000000000E+00 -0.61818633681E+03  0.61818633681E+03  0.00000000000E+00 0.  1.
         24    2    1    2    0    0  0.23495880271E+02  0.63379533599E+01 -0.60811895217E+03  0.61366081915E+03  0.78604802237E+02 0.  0.
        -11    1    3    3    0    0  0.32499183797E+02  0.88599312845E+01 -0.60091285429E+03  0.60185625674E+03  0.00000000000E+00 0.  1.
         12    1    3    3    0    0 -0.90033035262E+01 -0.25219779246E+01 -0.72060978760E+01  0.11804562408E+02  0.00000000000E+00 0. -1.
         21    1    1    2  502  501 -0.23495880271E+02 -0.63379533599E+01  0.12995127250E+02  0.27588029555E+02  0.00000000000E+00 0. -1.
<mgrwt>
<rscale>  1 0.82285728E+02</rscale>
<asrwt>0</asrwt>
<pdfrwt beam="1">  1        2 0.35480790E-02 0.82285728E+02</pdfrwt>
<pdfrwt beam="2">  1       -1 0.95105585E-01 0.82285728E+02</pdfrwt>
<totfact> 0.29910760E+03</totfact>
</mgrwt>
</event>
<event>
 6    2  0.1063641E+001  0.8351819E+02  0.7546771E-02  0.1319354E+00
          4   -1    0    0  502    0  0.00000000000E+00  0.00000000000E+00  0.25326924361E+03  0.25326924361E+03  0.00000000000E+00 0. -1.
         -3   -1    0    0    0  501 -0.00000000000E+00 -0.00000000000E+00 -0.15930658696E+02  0.15930658696E+02  0.00000000000E+00 0.  1.
         24    2    1    2    0    0 -0.20057682031E+02 -0.42704830809E+00  0.99486260587E+02  0.12989535715E+03  0.81072774623E+02 0.  0.
        -11    1    3    3    0    0 -0.42674864039E+02  0.24284530334E+02  0.68368332975E+02  0.84173103709E+02  0.00000000000E+00 0.  1.
         12    1    3    3    0    0  0.22617182008E+02 -0.24711578642E+02  0.31117927612E+02  0.45722253442E+02  0.00000000000E+00 0. -1.
         21    1    1    2  502  501  0.20057682031E+02  0.42704830809E+00  0.13785232433E+03  0.13930454516E+03  0.00000000000E+00 0. -1.
<mgrwt>
<rscale>  1 0.83518188E+02</rscale>
<asrwt>0</asrwt>
<pdfrwt beam="1">  1        4 0.38964496E-01 0.83518188E+02</pdfrwt>
<pdfrwt beam="2">  1       -3 0.24508708E-02 0.83518188E+02</pdfrwt>
<totfact> 0.75651275E+03</totfact>
</mgrwt>
</event>
<event>
 6    2  0.1063641E+001  0.8935755E+02  0.7546771E-02  0.1304415E+00
          2   -1    0    0  502    0  0.00000000000E+00  0.00000000000E+00  0.32066854120E+03  0.32066854120E+03  0.00000000000E+00 0. -1.
         -1   -1    0    0    0  501 -0.00000000000E+00 -0.00000000000E+00 -0.12983934144E+02  0.12983934144E+02  0.00000000000E+00 0.  1.
         24    2    1    2    0    0  0.15260927754E+02 -0.36315809817E+02  0.20276124932E+03  0.22157819214E+03  0.80206215749E+02 0.  0.
        -11    1    3    3    0    0  0.22969382972E+01 -0.53556994159E+01 -0.70229378142E+01  0.91258477588E+01  0.00000000000E+00 0.  1.
         12    1    3    3    0    0  0.12963989457E+02 -0.30960110401E+02  0.20978418714E+03  0.21245234438E+03  0.00000000000E+00 0. -1.
         21    1    1    2  502  501 -0.15260927754E+02  0.36315809817E+02  0.10492335774E+03  0.11207428321E+03  0.00000000000E+00 0. -1.
<mgrwt>
<rscale>  1 0.89357546E+02</rscale>
<asrwt>0</asrwt>
<pdfrwt beam="1">  1        2 0.49333616E-01 0.89357546E+02</pdfrwt>
<pdfrwt beam="2">  1       -1 0.19975286E-02 0.89357546E+02</pdfrwt>
<totfact> 0.68865501E+04</totfact>
</mgrwt>
</event>
<event>
 6    2  0.1063641E+001  0.8502627E+02  0.7546771E-02  0.1315364E+00
         -1   -1    0    0    0  501 -0.00000000000E+00  0.00000000000E+00  0.55025442473E+01  0.55025442473E+01  0.00000000000E+00 0.  1.
          2   -1    0    0  502    0  0.00000000000E+00 -0.00000000000E+00 -0.59576880674E+03  0.59576880674E+03  0.00000000000E+00 0. -1.
         24    2    1    2    0    0  0.27600647677E+02  0.78471984449E+01 -0.40860051055E+03  0.41735338095E+03  0.80038072746E+02 0.  0.
        -11    1    3    3    0    0  0.21232567688E+02 -0.28648809263E+02 -0.93273648895E+02  0.99857647583E+02  0.00000000000E+00 0.  1.
         12    1    3    3    0    0  0.63680799895E+01  0.36496007708E+02 -0.31532686166E+03  0.31749573336E+03  0.00000000000E+00 0. -1.
         21    1    1    2  502  501 -0.27600647677E+02 -0.78471984449E+01 -0.18166575194E+03  0.18391797004E+03  0.00000000000E+00 0. -1.
<mgrwt>
<rscale>  1 0.85026275E+02</rscale>
<asrwt>0</asrwt>
<pdfrwt beam="1">  1        2 0.91656751E-01 0.85026275E+02</pdfrwt>
<pdfrwt beam="2">  1       -1 0.84654516E-03 0.85026275E+02</pdfrwt>
<totfact> 0.11896722E+05</totfact>
</mgrwt>
</event>
<event>
 6    2  0.1063641E+001  0.8882906E+02  0.7546771E-02  0.1305712E+00
          2   -1    0    0  502    0  0.00000000000E+00  0.00000000000E+00  0.25560337052E+04  0.25560337052E+04  0.00000000000E+00 0. -1.
         -1   -1    0    0    0  501 -0.00000000000E+00 -0.00000000000E+00 -0.17073410904E+01  0.17073410904E+01  0.00000000000E+00 0.  1.
         24    2    1    2    0    0 -0.40701154638E+02  0.13897252056E+02  0.16405248285E+04  0.16429279703E+04  0.77723129868E+02 0.  0.
        -11    1    3    3    0    0 -0.56415800743E+02 -0.10438474670E+02  0.89232306621E+03  0.89416562158E+03  0.00000000000E+00 0.  1.
         12    1    3    3    0    0  0.15714646105E+02  0.24335726725E+02  0.74820176229E+03  0.74876234868E+03  0.00000000000E+00 0. -1.
         21    1    1    2  502  501  0.40701154638E+02 -0.13897252056E+02  0.91380153557E+03  0.91481307599E+03  0.00000000000E+00 0. -1.
<mgrwt>
<rscale>  1 0.88829063E+02</rscale>
<asrwt>0</asrwt>
<pdfrwt beam="1">  1        2 0.39323289E+00 0.88829063E+02</pdfrwt>
<pdfrwt beam="2">  1       -1 0.26266991E-03 0.88829063E+02</pdfrwt>
<totfact> 0.51194875E+04</totfact>
</mgrwt>
</event>
<event>
 6    2  0.1063641E+001  0.8618980E+02  0.7546771E-02  0.1312350E+00
         -1   -1    0    0    0  501 -0.00000000000E+00  0.00000000000E+00  0.28345509819E+03  0.28345509819E+03  0.00000000000E+00 0.  1.
          2   -1    0    0  502    0  0.00000000000E+00 -0.00000000000E+00 -0.47719253461E+02  0.47719253461E+02  0.00000000000E+00 0. -1.
         24    2    1    2    0    0  0.27693150645E+01  0.29532468889E+02  0.27141744265E+03  0.28477378857E+03  0.80924944587E+02 0.  0.
        -13    1    3    3    0    0  0.30581132398E+02  0.37041592391E+02  0.99831106157E+02  0.11078598730E+03  0.00000000000E+00 0.  1.
         14    1    3    3    0    0 -0.27811817333E+02 -0.75091235013E+01  0.17158633649E+03  0.17398780127E+03  0.00000000000E+00 0. -1.
         21    1    1    2  502  501 -0.27693150645E+01 -0.29532468889E+02 -0.35681597918E+02  0.46400563085E+02  0.00000000000E+00 0. -1.
<mgrwt>
<rscale>  1 0.86189805E+02</rscale>
<asrwt>0</asrwt>
<pdfrwt beam="1">  1        2 0.73414237E-02 0.86189805E+02</pdfrwt>
<pdfrwt beam="2">  1       -1 0.43608476E-01 0.86189805E+02</pdfrwt>
<totfact> 0.52762075E+03</totfact>
</mgrwt>
</event>
<event>
 6    2  0.1063641E+001  0.9376188E+02  0.7546771E-02  0.1293989E+00
          2   -1    0    0  502    0  0.00000000000E+00  0.00000000000E+00  0.38553364264E+03  0.38553364264E+03  0.00000000000E+00 0. -1.
         -1   -1    0    0    0  501 -0.00000000000E+00 -0.00000000000E+00 -0.14004073303E+02  0.14004073303E+02  0.00000000000E+00 0.  1.
         24    2    1    2    0    0  0.22676405179E+02 -0.45046465079E+02  0.20267057595E+03  0.22330842491E+03  0.79043576051E+02 0.  0.
        -13    1    3    3    0    0 -0.20381018084E+02 -0.43931121224E+02  0.13131957102E+03  0.13996484931E+03  0.00000000000E+00 0.  1.
         14    1    3    3    0    0  0.43057423263E+02 -0.11153438547E+01  0.71351004925E+02  0.83343575600E+02  0.00000000000E+00 0. -1.
         21    1    1    2  502  501 -0.22676405179E+02  0.45046465079E+02  0.16885899339E+03  0.17622929103E+03  0.00000000000E+00 0. -1.
<mgrwt>
<rscale>  1 0.93761881E+02</rscale>
<asrwt>0</asrwt>
<pdfrwt beam="1">  1        2 0.59312860E-01 0.93761881E+02</pdfrwt>
<pdfrwt beam="2">  1       -1 0.21544731E-02 0.93761881E+02</pdfrwt>
<totfact> 0.51290001E+04</totfact>
</mgrwt>
</event>
<event>
 6    2  0.1063641E+001  0.1008704E+03  0.7546771E-02  0.1278476E+00
          4   -1    0    0  502    0  0.00000000000E+00  0.00000000000E+00  0.55201533009E+02  0.55201533009E+02  0.00000000000E+00 0. -1.
         -3   -1    0    0    0  501 -0.00000000000E+00 -0.00000000000E+00 -0.13043787360E+03  0.13043787360E+03  0.00000000000E+00 0.  1.
         24    2    1    2    0    0 -0.51968161321E+02  0.38452544841E+02 -0.25418336760E+02  0.10402371264E+03  0.77430956036E+02 0.  0.
        -13    1    3    3    0    0  0.27615144994E+00  0.41193574633E+02  0.79737616555E+01  0.41959119695E+02  0.00000000000E+00 0.  1.
         14    1    3    3    0    0 -0.52244312771E+02 -0.27410297922E+01 -0.33392098415E+02  0.62064592948E+02  0.00000000000E+00 0. -1.
         21    1    1    2  502  501  0.51968161321E+02 -0.38452544841E+02 -0.49818003829E+02  0.81615693965E+02  0.00000000000E+00 0. -1.
<mgrwt>
<rscale>  1 0.10087042E+03</rscale>
<asrwt>0</asrwt>
<pdfrwt beam="1">  1        4 0.84925436E-02 0.10087042E+03</pdfrwt>
<pdfrwt beam="2">  1       -3 0.20067365E-01 0.10087042E+03</pdfrwt>
<totfact> 0.40266877E+03</totfact>
</mgrwt>
</event>
<event>
 6    2  0.1063641E+001  0.1181897E+03  0.7546771E-02  0.1246114E+00
          2   -1    0    0  502    0  0.00000000000E+00  0.00000000000E+00  0.46130951698E+02  0.46130951698E+02  0.00000000000E+00 0. -1.
         -1   -1    0    0    0  501 -0.00000000000E+00 -0.00000000000E+00 -0.25005165674E+03  0.25005165674E+03  0.00000000000E+00 0.  1.
         24    2    1    2    0    0  0.84475196232E+02 -0.99511231766E+01 -0.16418263414E+03  0.20229864863E+03  0.82059260617E+02 0.  0.
        -13    1    3    3    0    0  0.85378836638E+01 -0.35671087439E+02 -0.38118760768E+02  0.52899544979E+02  0.00000000000E+00 0.  1.
         14    1    3    3    0    0  0.75937312568E+02  0.25719964262E+02 -0.12606387337E+03  0.14939910365E+03  0.00000000000E+00 0. -1.
         21    1    1    2  502  501 -0.84475196232E+02  0.99511231766E+01 -0.39738070906E+02  0.93883959813E+02  0.00000000000E+00 0.  1.
<mgrwt>
<rscale>  1 0.11818970E+03</rscale>
<asrwt>0</asrwt>
<pdfrwt beam="1">  1        2 0.70970695E-02 0.11818970E+03</pdfrwt>
<pdfrwt beam="2">  1       -1 0.38469485E-01 0.11818970E+03</pdfrwt>
<totfact> 0.70225850E+03</totfact>
</mgrwt>
</event>
<event>
 6    2  0.1063641E+001  0.8996943E+02  0.7546771E-02  0.1302926E+00
         -1   -1    0    0    0  501 -0.00000000000E+00  0.00000000000E+00  0.23332917485E+02  0.23332917485E+02  0.00000000000E+00 0.  1.
          2   -1    0    0  502    0  0.00000000000E+00 -0.00000000000E+00 -0.31099543846E+03  0.31099543846E+03  0.00000000000E+00 0. -1.
         24    2    1    2    0    0 -0.10615017910E+02  0.37743594482E+02 -0.72283552121E+02  0.11540974606E+03  0.80976787098E+02 0.  0.
        -11    1    3    3    0    0  0.70412169180E+00  0.33019055056E+02  0.81736605336E+01  0.34022970339E+02  0.00000000000E+00 0.  1.
         12    1    3    3    0    0 -0.11319139602E+02  0.47245394261E+01 -0.80457212654E+02  0.81386775721E+02  0.00000000000E+00 0. -1.
         21    1    1    2  502  501  0.10615017910E+02 -0.37743594482E+02 -0.21537896885E+03  0.21891860988E+03  0.00000000000E+00 0. -1.
<mgrwt>
<rscale>  1 0.89969426E+02</rscale>
<asrwt>0</asrwt>
<pdfrwt beam="1">  1        2 0.47845449E-01 0.89969426E+02</pdfrwt>
<pdfrwt beam="2">  1       -1 0.35896798E-02 0.89969426E+02</pdfrwt>
<totfact> 0.30671373E+04</totfact>
</mgrwt>
</event>
<event>
 6    2  0.1063641E+001  0.1010990E+03  0.7546771E-02  0.1278002E+00
         -1   -1    0    0    0  501 -0.00000000000E+00  0.00000000000E+00  0.46934001281E+02  0.46934001281E+02  0.00000000000E+00 0.  1.
          2   -1    0    0  502    0  0.00000000000E+00 -0.00000000000E+00 -0.22231947699E+03  0.22231947699E+03  0.00000000000E+00 0. -1.
         24    2    1    2    0    0 -0.61502371233E+02 -0.56652996071E+01 -0.21394097654E+02  0.10333789190E+03  0.80039835083E+02 0.  0.
        -13    1    3    3    0    0 -0.65794395591E+02 -0.14695909808E+02  0.12003269607E+02  0.68475913558E+02  0.00000000000E+00 0.  1.
         14    1    3    3    0    0  0.42920243583E+01  0.90306102008E+01 -0.33397367261E+02  0.34861978339E+02  0.00000000000E+00 0. -1.
         21    1    1    2  502  501  0.61502371233E+02  0.56652996071E+01 -0.15399137805E+03  0.16591558637E+03  0.00000000000E+00 0. -1.
<mgrwt>
<rscale>  1 0.10109902E+03</rscale>
<asrwt>0</asrwt>
<pdfrwt beam="1">  1        2 0.34202997E-01 0.10109902E+03</pdfrwt>
<pdfrwt beam="2">  1       -1 0.72206155E-02 0.10109902E+03</pdfrwt>
<totfact> 0.15850610E+04</totfact>
</mgrwt>
</event>
<event>
 6    2  0.1063641E+001  0.8904526E+02  0.7546771E-02  0.1305180E+00
         -1   -1    0    0    0  501 -0.00000000000E+00  0.00000000000E+00  0.37773116671E+02  0.37773116671E+02  0.00000000000E+00 0.  1.
          2   -1    0    0  502    0  0.00000000000E+00 -0.00000000000E+00 -0.10714932881E+03  0.10714932881E+03  0.00000000000E+00 0. -1.
         24    2    1    2    0    0 -0.22035311709E+02 -0.29777662487E+02 -0.57602388990E+02  0.10605231483E+03  0.80974033603E+02 0.  0.
        -11    1    3    3    0    0  0.91536068978E+01 -0.35177728226E+01  0.17805826277E+02  0.20327584566E+02  0.00000000000E+00 0.  1.
         12    1    3    3    0    0 -0.31188918607E+02 -0.26259889664E+02 -0.75408215267E+02  0.85724730264E+02  0.00000000000E+00 0. -1.
         21    1    1    2  502  501  0.22035311709E+02  0.29777662487E+02 -0.11773823149E+02  0.38870130651E+02  0.00000000000E+00 0. -1.
<mgrwt>
<rscale>  1 0.89045260E+02</rscale>
<asrwt>0</asrwt>
<pdfrwt beam="1">  1        2 0.16484512E-01 0.89045260E+02</pdfrwt>
<pdfrwt beam="2">  1       -1 0.58112488E-02 0.89045260E+02</pdfrwt>
<totfact> 0.48029857E+04</totfact>
</mgrwt>
</event>
<event>
 6    2  0.1063641E+001  0.9735174E+02  0.7546771E-02  0.1285966E+00
         -1   -1    0    0    0  501 -0.00000000000E+00  0.00000000000E+00  0.33306218963E+02  0.33306218963E+02  0.00000000000E+00 0.  1.
          2   -1    0    0  502    0  0.00000000000E+00 -0.00000000000E+00 -0.29023801412E+03  0.29023801412E+03  0.00000000000E+00 0. -1.
         24    2    1    2    0    0 -0.59610783957E+01 -0.47431252349E+02 -0.46750777997E+02  0.10799535666E+03  0.84806271353E+02 0.  0.
        -13    1    3    3    0    0 -0.25758251347E+02 -0.46913760038E+02  0.38489305296E+01  0.53658202165E+02  0.00000000000E+00 0.  1.
         14    1    3    3    0    0  0.19797172951E+02 -0.51749231170E+00 -0.50599708527E+02  0.54337154491E+02  0.00000000000E+00 0. -1.
         21    1    1    2  502  501  0.59610783957E+01  0.47431252349E+02 -0.21018101716E+03  0.21554887642E+03  0.00000000000E+00 0. -1.
<mgrwt>
<rscale>  1 0.97351743E+02</rscale>
<asrwt>0</asrwt>
<pdfrwt beam="1">  1        2 0.44652003E-01 0.97351743E+02</pdfrwt>
<pdfrwt beam="2">  1       -1 0.51240336E-02 0.97351743E+02</pdfrwt>
<totfact> 0.19797527E+04</totfact>
</mgrwt>
</event>
<event>
 6    2  0.1063641E+001  0.1436236E+03  0.7546771E-02  0.1208535E+00
          4   -1    0    0  502    0  0.00000000000E+00  0.00000000000E+00  0.25201976360E+03  0.25201976360E+03  0.00000000000E+00 0. -1.
         -3   -1    0    0    0  501 -0.00000000000E+00 -0.00000000000E+00 -0.17966540076E+03  0.17966540076E+03  0.00000000000E+00 0.  1.
         24    2    1    2    0    0 -0.11258584211E+03 -0.39286535414E+02 -0.13201057075E+03  0.19507571867E+03  0.80054615816E+02 0.  0.
        -11    1    3    3    0    0 -0.76947450430E+02 -0.15756328725E+02 -0.13053635253E+03  0.15234471226E+03  0.00000000000E+00 0.  1.
         12    1    3    3    0    0 -0.35638391685E+02 -0.23530206688E+02 -0.14742182185E+01  0.42731006401E+02  0.00000000000E+00 0. -1.
         21    1    1    2  502  501  0.11258584211E+03  0.39286535414E+02  0.20436493360E+03  0.23660944570E+03  0.00000000000E+00 0. -1.
<mgrwt>
<rscale>  1 0.14362362E+03</rscale>
<asrwt>0</asrwt>
<pdfrwt beam="1">  1        4 0.38772272E-01 0.14362362E+03</pdfrwt>
<pdfrwt beam="2">  1       -3 0.27640831E-01 0.14362362E+03</pdfrwt>
<totfact> 0.16118685E+02</totfact>
</mgrwt>
</event>
<event>
 6    2  0.1063641E+001  0.8496964E+02  0.7546771E-02  0.1315512E+00
         -1   -1    0    0    0  501 -0.00000000000E+00  0.00000000000E+00  0.13727782024E+02  0.13727782024E+02  0.00000000000E+00 0.  1.
          2   -1    0    0  502    0  0.00000000000E+00 -0.00000000000E+00 -0.23560868201E+03  0.23560868201E+03  0.00000000000E+00 0. -1.
         24    2    1    2    0    0 -0.26053011923E+02  0.99552416108E+01 -0.15276736015E+03  0.17480762629E+03  0.80261906396E+02 0.  0.
        -13    1    3    3    0    0 -0.10002347116E+02 -0.12543408833E+02  0.32434522577E+01  0.16367774300E+02  0.00000000000E+00 0.  1.
         14    1    3    3    0    0 -0.16050664807E+02  0.22498650444E+02 -0.15601081241E+03  0.15843985199E+03  0.00000000000E+00 0. -1.
         21    1    1    2  502  501  0.26053011923E+02 -0.99552416108E+01 -0.69113539843E+02  0.74528837743E+02  0.00000000000E+00 0. -1.
<mgrwt>
<rscale>  1 0.84969641E+02</rscale>
<asrwt>0</asrwt>
<pdfrwt beam="1">  1        2 0.36247487E-01 0.84969641E+02</pdfrwt>
<pdfrwt beam="2">  1       -1 0.21119666E-02 0.84969641E+02</pdfrwt>
<totfact> 0.87163952E+04</totfact>
</mgrwt>
</event>
<event>
 6    2  0.1063641E+001  0.8191081E+02  0.7546771E-02  0.1323715E+00
         -1   -1    0    0    0  501 -0.00000000000E+00  0.00000000000E+00  0.32547996283E+03  0.32547996283E+03  0.00000000000E+00 0.  1.
          2   -1    0    0  502    0  0.00000000000E+00 -0.00000000000E+00 -0.81834351785E+01  0.81834351785E+01  0.00000000000E+00 0. -1.
         24    2    1    2    0    0 -0.15809304386E+02  0.12642730816E+02  0.27162622356E+03  0.28370792360E+03  0.79370068919E+02 0.  0.
        -11    1    3    3    0    0 -0.18901863540E+02  0.13840448514E+02  0.27667623853E+03  0.27766630949E+03  0.00000000000E+00 0.  1.
         12    1    3    3    0    0  0.30925591538E+01 -0.11977176984E+01 -0.50500149707E+01  0.60416141062E+01  0.00000000000E+00 0. -1.
         21    1    1    2  502  501  0.15809304386E+02 -0.12642730816E+02  0.45670304099E+02  0.49955474416E+02  0.00000000000E+00 0. -1.
<mgrwt>
<rscale>  1 0.81910809E+02</rscale>
<asrwt>0</asrwt>
<pdfrwt beam="1">  1        2 0.12589903E-02 0.81910809E+02</pdfrwt>
<pdfrwt beam="2">  1       -1 0.50073830E-01 0.81910809E+02</pdfrwt>
<totfact> 0.41830339E+04</totfact>
</mgrwt>
</event>
<event>
 6    2  0.1063641E+001  0.9636745E+02  0.7546771E-02  0.1288126E+00
         -1   -1    0    0    0  501 -0.00000000000E+00  0.00000000000E+00  0.12307056954E+02  0.12307056954E+02  0.00000000000E+00 0.  1.
          2   -1    0    0  502    0  0.00000000000E+00 -0.00000000000E+00 -0.74087983729E+03  0.74087983729E+03  0.00000000000E+00 0. -1.
         24    2    1    2    0    0 -0.48631221016E+01  0.51188953987E+02 -0.19881068513E+03  0.22093522775E+03  0.81502928617E+02 0.  0.
        -11    1    3    3    0    0 -0.29281415319E+02 -0.64130208985E+01 -0.38114833526E+02  0.48489881984E+02  0.00000000000E+00 0.  1.
         12    1    3    3    0    0  0.24418293217E+02  0.57601974885E+02 -0.16069585161E+03  0.17244534577E+03  0.00000000000E+00 0. -1.
         21    1    1    2  502  501  0.48631221016E+01 -0.51188953987E+02 -0.52976209520E+03  0.53225166649E+03  0.00000000000E+00 0.  1.
<mgrwt>
<rscale>  1 0.96367455E+02</rscale>
<asrwt>0</asrwt>
<pdfrwt beam="1">  1        2 0.11398151E+00 0.96367455E+02</pdfrwt>
<pdfrwt beam="2">  1       -1 0.18933935E-02 0.96367455E+02</pdfrwt>
<totfact> 0.30095167E+04</totfact>
</mgrwt>
</event>
<event>
 6    2  0.1063641E+001  0.8316930E+02  0.7546771E-02  0.1320291E+00
         -1   -1    0    0    0  501 -0.00000000000E+00  0.00000000000E+00  0.38917092011E+01  0.38917092011E+01  0.00000000000E+00 0.  1.
          2   -1    0    0  502    0  0.00000000000E+00 -0.00000000000E+00 -0.71301404608E+03  0.71301404608E+03  0.00000000000E+00 0. -1.
         24    2    1    2    0    0 -0.11614987966E+02  0.18846042698E+02 -0.55119040774E+03  0.55742981505E+03  0.80168895789E+02 0.  0.
        -13    1    3    3    0    0 -0.87991088966E+01 -0.19192443329E+02 -0.43960544986E+02  0.48767855333E+02  0.00000000000E+00 0.  1.
         14    1    3    3    0    0 -0.28158790692E+01  0.38038486028E+02 -0.50722986275E+03  0.50866195971E+03  0.00000000000E+00 0. -1.
         21    1    1    2  502  501  0.11614987966E+02 -0.18846042698E+02 -0.15793192914E+03  0.15947594023E+03  0.00000000000E+00 0.  1.
<mgrwt>
<rscale>  1 0.83169304E+02</rscale>
<asrwt>0</asrwt>
<pdfrwt beam="1">  1        2 0.10969438E+00 0.83169304E+02</pdfrwt>
<pdfrwt beam="2">  1       -1 0.59872497E-03 0.83169304E+02</pdfrwt>
<totfact> 0.15698938E+05</totfact>
</mgrwt>
</event>
<event>
 6    2  0.1063641E+001  0.7839255E+02  0.7546771E-02  0.1333676E+00
         -1   -1    0    0    0  501 -0.00000000000E+00  0.00000000000E+00  0.62830848566E+02  0.62830848566E+02  0.00000000000E+00 0.  1.
          2   -1    0    0  502    0  0.00000000000E+00 -0.00000000000E+00 -0.18075838638E+03  0.18075838638E+03  0.00000000000E+00 0. -1.
         24    2    1    2    0    0 -0.97413109479E+01  0.20431449843E+02  0.37233772071E+02  0.86785633689E+02  0.75053681791E+02 0.  0.
        -11    1    3    3    0    0 -0.13959897815E+02  0.63530153332E+01  0.58755566688E+02  0.60724428096E+02  0.00000000000E+00 0.  1.
         12    1    3    3    0    0  0.42185868670E+01  0.14078434510E+02 -0.21521794617E+02  0.26061205592E+02  0.00000000000E+00 0. -1.
         21    1    1    2  502  501  0.97413109479E+01 -0.20431449843E+02 -0.15516130988E+03  0.15680360125E+03  0.00000000000E+00 0. -1.
<mgrwt>
<rscale>  1 0.78392553E+02</rscale>
<asrwt>0</asrwt>
<pdfrwt beam="1">  1        2 0.27808982E-01 0.78392553E+02</pdfrwt>
<pdfrwt beam="2">  1       -1 0.96662844E-02 0.78392553E+02</pdfrwt>
<totfact> 0.12468095E+04</totfact>
</mgrwt>
</event>
<event>
 6    2  0.1063641E+001  0.7854343E+02  0.7546771E-02  0.1333237E+00
         -1   -1    0    0    0  501 -0.00000000000E+00  0.00000000000E+00  0.10079640246E+03  0.10079640246E+03  0.00000000000E+00 0.  1.
          2   -1    0    0  502    0  0.00000000000E+00 -0.00000000000E+00 -0.27912971812E+02  0.27912971812E+02  0.00000000000E+00 0. -1.
         24    2    1    2    0    0  0.26236491877E+02  0.45657658402E+01  0.61461098247E+02  0.99732324709E+02  0.73890934968E+02 0.  0.
        -11    1    3    3    0    0  0.38650822276E+02  0.23957734899E+01  0.73006206303E+02  0.82640982278E+02  0.00000000000E+00 0.  1.
         12    1    3    3    0    0 -0.12414330399E+02  0.21699923503E+01 -0.11545108056E+02  0.17091342430E+02  0.00000000000E+00 0. -1.
         21    1    1    2  502  501 -0.26236491877E+02 -0.45657658402E+01  0.11422332397E+02  0.28977049559E+02  0.00000000000E+00 0.  1.
<mgrwt>
<rscale>  1 0.78543427E+02</rscale>
<asrwt>0</asrwt>
<pdfrwt beam="1">  1        2 0.42943034E-02 0.78543427E+02</pdfrwt>
<pdfrwt beam="2">  1       -1 0.15507139E-01 0.78543427E+02</pdfrwt>
<totfact> 0.56114328E+04</totfact>
</mgrwt>
</event>
<event>
 6    2  0.1063641E+001  0.8543676E+02  0.7546771E-02  0.1314294E+00
         -1   -1    0    0    0  501 -0.00000000000E+00  0.00000000000E+00  0.20775752725E+01  0.20775752725E+01  0.00000000000E+00 0.  1.
          2   -1    0    0  502    0  0.00000000000E+00 -0.00000000000E+00 -0.14644761073E+04  0.14644761073E+04  0.00000000000E+00 0. -1.
         24    2    1    2    0    0  0.17900445288E+02 -0.14502162335E+02 -0.12479787091E+04  0.12508997953E+04  0.82272113931E+02 0.  0.
        -13    1    3    3    0    0 -0.20983570796E+01  0.32692212128E+02 -0.60202193049E+03  0.60291258789E+03  0.00000000000E+00 0.  1.
         14    1    3    3    0    0  0.19998802368E+02 -0.47194374464E+02 -0.64595677863E+03  0.64798720738E+03  0.00000000000E+00 0. -1.
         21    1    1    2  502  501 -0.17900445288E+02  0.14502162335E+02 -0.21441982293E+03  0.21565388733E+03  0.00000000000E+00 0.  1.
<mgrwt>
<rscale>  1 0.85436757E+02</rscale>
<asrwt>0</asrwt>
<pdfrwt beam="1">  1        2 0.22530375E+00 0.85436757E+02</pdfrwt>
<pdfrwt beam="2">  1       -1 0.31962735E-03 0.85436757E+02</pdfrwt>
<totfact> 0.13912470E+05</totfact>
</mgrwt>
</event>
<event>
 6    2  0.1063641E+001  0.8443811E+02  0.7546771E-02  0.1316909E+00
          2   -1    0    0  502    0  0.00000000000E+00  0.00000000000E+00  0.68918194684E+02  0.68918194684E+02  0.00000000000E+00 0. -1.
         -1   -1    0    0    0  501 -0.00000000000E+00 -0.00000000000E+00 -0.43954491603E+02  0.43954491603E+02  0.00000000000E+00 0.  1.
         24    2    1    2    0    0 -0.18666072031E+02 -0.16598736812E+02  0.13988059335E+02  0.85588898711E+02  0.80658870993E+02 0.  0.
        -13    1    3    3    0    0  0.19049234128E+02  0.20297273238E+02 -0.71676251152E+01  0.28744172828E+02  0.00000000000E+00 0.  1.
         14    1    3    3    0    0 -0.37715306159E+02 -0.36896010050E+02  0.21155684450E+02  0.56844725884E+02  0.00000000000E+00 0. -1.
         21    1    1    2  502  501  0.18666072031E+02  0.16598736812E+02  0.10975643746E+02  0.27283787575E+02  0.00000000000E+00 0.  1.
<mgrwt>
<rscale>  1 0.84438106E+02</rscale>
<asrwt>0</asrwt>
<pdfrwt beam="1">  1        2 0.10602799E-01 0.84438106E+02</pdfrwt>
<pdfrwt beam="2">  1       -1 0.67622295E-02 0.84438106E+02</pdfrwt>
<totfact> 0.63949837E+04</totfact>
</mgrwt>
</event>
<event>
 6    2  0.1063641E+001  0.8841061E+02  0.7546771E-02  0.1306747E+00
         -1   -1    0    0    0  501 -0.00000000000E+00  0.00000000000E+00  0.38524248343E+01  0.38524248343E+01  0.00000000000E+00 0.  1.
          2   -1    0    0  502    0  0.00000000000E+00 -0.00000000000E+00 -0.13501359345E+04  0.13501359345E+04  0.00000000000E+00 0. -1.
         24    2    1    2    0    0  0.24781992313E+02 -0.21658891454E+02 -0.55302861085E+03  0.56005096305E+03  0.82055969153E+02 0.  0.
        -11    1    3    3    0    0  0.29026966387E+02 -0.11882935428E+02 -0.67779977699E+02  0.74685301826E+02  0.00000000000E+00 0.  1.
         12    1    3    3    0    0 -0.42449740739E+01 -0.97759560254E+01 -0.48524863315E+03  0.48536566123E+03  0.00000000000E+00 0. -1.
         21    1    1    2  502  501 -0.24781992313E+02  0.21658891454E+02 -0.79325489878E+03  0.79393739625E+03  0.00000000000E+00 0. -1.
<mgrwt>
<rscale>  1 0.88410615E+02</rscale>
<asrwt>0</asrwt>
<pdfrwt beam="1">  1        2 0.20771321E+00 0.88410615E+02</pdfrwt>
<pdfrwt beam="2">  1       -1 0.59268076E-03 0.88410615E+02</pdfrwt>
<totfact> 0.67631413E+04</totfact>
</mgrwt>
</event>
<event>
 6    2  0.1063641E+001  0.9308368E+02  0.7546771E-02  0.1295551E+00
          2   -1    0    0  502    0  0.00000000000E+00  0.00000000000E+00  0.32238776611E+03  0.32238776611E+03  0.00000000000E+00 0. -1.
         -1   -1    0    0    0  501 -0.00000000000E+00 -0.00000000000E+00 -0.15308690213E+02  0.15308690213E+02  0.00000000000E+00 0.  1.
         24    2    1    2    0    0 -0.36852119968E+02 -0.28096653432E+02  0.18453019485E+03  0.20667840823E+03  0.80728377520E+02 0.  0.
        -13    1    3    3    0    0 -0.57614294918E+02 -0.11819976294E+02  0.82666116049E+02  0.10145346500E+03  0.00000000000E+00 0.  1.
         14    1    3    3    0    0  0.20762174950E+02 -0.16276677138E+02  0.10186407880E+03  0.10522494323E+03  0.00000000000E+00 0. -1.
         21    1    1    2  502  501  0.36852119968E+02  0.28096653432E+02  0.12254888105E+03  0.13101804809E+03  0.00000000000E+00 0. -1.
<mgrwt>
<rscale>  1 0.93083681E+02</rscale>
<asrwt>0</asrwt>
<pdfrwt beam="1">  1        2 0.49598113E-01 0.93083681E+02</pdfrwt>
<pdfrwt beam="2">  1       -1 0.23551833E-02 0.93083681E+02</pdfrwt>
<totfact> 0.54413780E+04</totfact>
</mgrwt>
</event>
<event>
 6    2  0.1063641E+001  0.8251357E+02  0.7546771E-02  0.1322066E+00
          2   -1    0    0  502    0  0.00000000000E+00  0.00000000000E+00  0.20591967810E+03  0.20591967810E+03  0.00000000000E+00 0. -1.
         -1   -1    0    0    0  501 -0.00000000000E+00 -0.00000000000E+00 -0.15970015405E+02  0.15970015405E+02  0.00000000000E+00 0.  1.
         24    2    1    2    0    0 -0.52164133662E+01 -0.22106250128E+02  0.10274937885E+03  0.13177983408E+03  0.79325863076E+02 0.  0.
        -13    1    3    3    0    0  0.27305013767E+02  0.16028139451E+02  0.31442752357E+02  0.44621874757E+02  0.00000000000E+00 0.  1.
         14    1    3    3    0    0 -0.32521427133E+02 -0.38134389579E+02  0.71306626490E+02  0.87157959320E+02  0.00000000000E+00 0. -1.
         21    1    1    2  502  501  0.52164133662E+01  0.22106250128E+02  0.87200283847E+02  0.90109859428E+02  0.00000000000E+00 0.  1.
<mgrwt>
<rscale>  1 0.82513574E+02</rscale>
<asrwt>0</asrwt>
<pdfrwt beam="1">  1        2 0.31679949E-01 0.82513574E+02</pdfrwt>
<pdfrwt beam="2">  1       -1 0.24569256E-02 0.82513574E+02</pdfrwt>
<totfact> 0.80616526E+04</totfact>
</mgrwt>
</event>
<event>
 6    2  0.1063641E+001  0.9290912E+02  0.7546771E-02  0.1295956E+00
         -1   -1    0    0    0  501 -0.00000000000E+00  0.00000000000E+00  0.20735024208E+02  0.20735024208E+02  0.00000000000E+00 0.  1.
          2   -1    0    0  502    0  0.00000000000E+00 -0.00000000000E+00 -0.24548333253E+03  0.24548333253E+03  0.00000000000E+00 0. -1.
         24    2    1    2    0    0 -0.18866483367E+02 -0.43810764681E+02 -0.12597849642E+03  0.15653333935E+03  0.79729401546E+02 0.  0.
        -11    1    3    3    0    0  0.18993748259E+02  0.21282443383E+01 -0.22701256759E+01  0.19246957356E+02  0.00000000000E+00 0.  1.
         12    1    3    3    0    0 -0.37860231626E+02 -0.45939009019E+02 -0.12370837074E+03  0.13728638199E+03  0.00000000000E+00 0. -1.
         21    1    1    2  502  501  0.18866483367E+02  0.43810764681E+02 -0.98769811902E+02  0.10968501739E+03  0.00000000000E+00 0. -1.
<mgrwt>
<rscale>  1 0.92909121E+02</rscale>
<asrwt>0</asrwt>
<pdfrwt beam="1">  1        2 0.37766668E-01 0.92909121E+02</pdfrwt>
<pdfrwt beam="2">  1       -1 0.31900036E-02 0.92909121E+02</pdfrwt>
<totfact> 0.46783825E+04</totfact>
</mgrwt>
</event>
<event>
 6    2  0.1063641E+001  0.8436834E+02  0.7546771E-02  0.1317093E+00
         -3   -1    0    0    0  501 -0.00000000000E+00  0.00000000000E+00  0.55941133710E+03  0.55941133710E+03  0.00000000000E+00 0.  1.
          4   -1    0    0  502    0  0.00000000000E+00 -0.00000000000E+00 -0.69906162722E+01  0.69906162722E+01  0.00000000000E+00 0. -1.
         24    2    1    2    0    0  0.14869827399E+02 -0.25693484072E+02  0.49085450118E+03  0.49805236455E+03  0.78973094237E+02 0.  0.
        -13    1    3    3    0    0 -0.14215011762E+02 -0.45725661246E+02  0.32231738722E+03  0.32585487684E+03  0.00000000000E+00 0.  1.
         14    1    3    3    0    0  0.29084839161E+02  0.20032177175E+02  0.16853711396E+03  0.17219748771E+03  0.00000000000E+00 0. -1.
         21    1    1    2  502  501 -0.14869827399E+02  0.25693484072E+02  0.61566219650E+02  0.68349588826E+02  0.00000000000E+00 0. -1.
<mgrwt>
<rscale>  1 0.84368338E+02</rscale>
<asrwt>0</asrwt>
<pdfrwt beam="1">  1        4 0.10754799E-02 0.84368338E+02</pdfrwt>
<pdfrwt beam="2">  1       -3 0.86063248E-01 0.84368338E+02</pdfrwt>
<totfact> 0.57827123E+03</totfact>
</mgrwt>
</event>
<event>
 6    2  0.1063641E+001  0.8773266E+02  0.7546771E-02  0.1308437E+00
          2   -1    0    0  502    0  0.00000000000E+00  0.00000000000E+00  0.79479815686E+02  0.79479815686E+02  0.00000000000E+00 0. -1.
         -1   -1    0    0    0  501 -0.00000000000E+00 -0.00000000000E+00 -0.63440543636E+02  0.63440543636E+02  0.00000000000E+00 0.  1.
         24    2    1    2    0    0 -0.35194671256E+02  0.41231649587E+02  0.76561387839E+01  0.88066091157E+02  0.68980476500E+02 0.  0.
        -13    1    3    3    0    0 -0.18812188725E+02  0.50930528010E+02 -0.17020309455E+02  0.56899104228E+02  0.00000000000E+00 0.  1.
         14    1    3    3    0    0 -0.16382482531E+02 -0.96988784236E+01  0.24676448238E+02  0.31166986929E+02  0.00000000000E+00 0. -1.
         21    1    1    2  502  501  0.35194671256E+02 -0.41231649587E+02  0.83831332665E+01  0.54854268164E+02  0.00000000000E+00 0. -1.
<mgrwt>
<rscale>  1 0.87732662E+02</rscale>
<asrwt>0</asrwt>
<pdfrwt beam="1">  1        2 0.12227664E-01 0.87732662E+02</pdfrwt>
<pdfrwt beam="2">  1       -1 0.97600836E-02 0.87732662E+02</pdfrwt>
<totfact> 0.31375947E+04</totfact>
</mgrwt>
</event>
<event>
 6    2  0.1063641E+001  0.8870844E+02  0.7546771E-02  0.1306010E+00
          2   -1    0    0  502    0  0.00000000000E+00  0.00000000000E+00  0.11765110374E+03  0.11765110374E+03  0.00000000000E+00 0. -1.
         -1   -1    0    0    0  501 -0.00000000000E+00 -0.00000000000E+00 -0.36018371763E+02  0.36018371763E+02  0.00000000000E+00 0.  1.
         24    2    1    2    0    0 -0.18809180833E+02  0.34586235938E+02  0.68798197614E+02  0.11226031864E+03  0.79493359129E+02 0.  0.
        -13    1    3    3    0    0 -0.19842912655E+02  0.53116339365E+02  0.20122271467E+02  0.60166373492E+02  0.00000000000E+00 0.  1.
         14    1    3    3    0    0  0.10337318220E+01 -0.18530103427E+02  0.48675926147E+02  0.52093945145E+02  0.00000000000E+00 0. -1.
         21    1    1    2  502  501  0.18809180833E+02 -0.34586235938E+02  0.12834534361E+02  0.41409156864E+02  0.00000000000E+00 0.  1.
<mgrwt>
<rscale>  1 0.88708439E+02</rscale>
<asrwt>0</asrwt>
<pdfrwt beam="1">  1        2 0.18100170E-01 0.88708439E+02</pdfrwt>
<pdfrwt beam="2">  1       -1 0.55412880E-02 0.88708439E+02</pdfrwt>
<totfact> 0.46291608E+04</totfact>
</mgrwt>
</event>
<event>
 6    2  0.1063641E+001  0.6584745E+02  0.7546771E-02  0.1374812E+00
         -1   -1    0    0    0  501 -0.00000000000E+00  0.00000000000E+00  0.21012816704E+01  0.21012816704E+01  0.00000000000E+00 0.  1.
          2   -1    0    0  502    0  0.00000000000E+00 -0.00000000000E+00 -0.10616711769E+04  0.10616711769E+04  0.00000000000E+00 0. -1.
         24    2    1    2    0    0 -0.99570530610E+00  0.20947352424E+02 -0.57663748904E+03  0.58038494120E+03  0.62418772828E+02 0.  0.
        -11    1    3    3    0    0  0.21973341447E+02  0.27029534224E+02 -0.20095400927E+03  0.20395082078E+03  0.00000000000E+00 0.  1.
         12    1    3    3    0    0 -0.22969046753E+02 -0.60821818001E+01 -0.37568347977E+03  0.37643412042E+03  0.00000000000E+00 0. -1.
         21    1    1    2  502  501  0.99570530610E+00 -0.20947352424E+02 -0.48293240620E+03  0.48338751738E+03  0.00000000000E+00 0. -1.
<mgrwt>
<rscale>  1 0.65847446E+02</rscale>
<asrwt>0</asrwt>
<pdfrwt beam="1">  1        2 0.16333438E+00 0.65847446E+02</pdfrwt>
<pdfrwt beam="2">  1       -1 0.32327341E-03 0.65847446E+02</pdfrwt>
<totfact> 0.21575402E+05</totfact>
</mgrwt>
</event>
<event>
 6    2  0.1063641E+001  0.8909888E+02  0.7546771E-02  0.1305049E+00
         -1   -1    0    0    0  501 -0.00000000000E+00  0.00000000000E+00  0.10180188066E+02  0.10180188066E+02  0.00000000000E+00 0.  1.
          2   -1    0    0  502    0  0.00000000000E+00 -0.00000000000E+00 -0.71334242679E+03  0.71334242679E+03  0.00000000000E+00 0. -1.
         24    2    1    2    0    0 -0.31224026086E+02 -0.13322389310E+02 -0.19686960744E+03  0.21609315734E+03  0.82378300866E+02 0.  0.
        -11    1    3    3    0    0  0.19892347941E+02  0.12221090532E+01 -0.10977135544E+02  0.22752946224E+02  0.00000000000E+00 0.  1.
         12    1    3    3    0    0 -0.51116374027E+02 -0.14544498363E+02 -0.18589247190E+03  0.19334021112E+03  0.00000000000E+00 0. -1.
         21    1    1    2  502  501  0.31224026086E+02  0.13322389310E+02 -0.50629263128E+03  0.50742945751E+03  0.00000000000E+00 0. -1.
<mgrwt>
<rscale>  1 0.89098879E+02</rscale>
<asrwt>0</asrwt>
<pdfrwt beam="1">  1        2 0.10974501E+00 0.89098879E+02</pdfrwt>
<pdfrwt beam="2">  1       -1 0.15661825E-02 0.89098879E+02</pdfrwt>
<totfact> 0.40888424E+04</totfact>
</mgrwt>
</event>
<event>
 6    2  0.1063641E+001  0.8854552E+02  0.7546771E-02  0.1306413E+00
         -3   -1    0    0    0  501 -0.00000000000E+00  0.00000000000E+00  0.13626516625E+03  0.13626516625E+03  0.00000000000E+00 0.  1.
          4   -1    0    0  502    0  0.00000000000E+00 -0.00000000000E+00 -0.26771298789E+02  0.26771298789E+02  0.00000000000E+00 0. -1.
         24    2    1    2    0    0  0.28173027491E+02 -0.12802931177E+02  0.70061300311E+02  0.11291100368E+03  0.82961885374E+02 0.  0.
        -13    1    3    3    0    0  0.10901808193E+02  0.22195368394E+02  0.69619404141E+02  0.73880614730E+02  0.00000000000E+00 0.  1.
         14    1    3    3    0    0  0.17271219298E+02 -0.34998299572E+02  0.44189617093E+00  0.39030388945E+02  0.00000000000E+00 0. -1.
         21    1    1    2  502  501 -0.28173027491E+02  0.12802931177E+02  0.39432567145E+02  0.50125461359E+02  0.00000000000E+00 0. -1.
<mgrwt>
<rscale>  1 0.88545519E+02</rscale>
<asrwt>0</asrwt>
<pdfrwt beam="1">  1        4 0.41186614E-02 0.88545519E+02</pdfrwt>
<pdfrwt beam="2">  1       -3 0.20963871E-01 0.88545519E+02</pdfrwt>
<totfact> 0.11585273E+04</totfact>
</mgrwt>
</event>
<event>
 6    2  0.1063641E+001  0.9100937E+02  0.7546771E-02  0.1300426E+00
         -1   -1    0    0    0  501 -0.00000000000E+00  0.00000000000E+00  0.56572449109E+03  0.56572449109E+03  0.00000000000E+00 0.  1.
          2   -1    0    0  502    0  0.00000000000E+00 -0.00000000000E+00 -0.95796382327E+01  0.95796382327E+01  0.00000000000E+00 0. -1.
         24    2    1    2    0    0  0.42476856796E+02 -0.38760397679E+01  0.47491598565E+03  0.48355754402E+03  0.80395260449E+02 0.  0.
        -13    1    3    3    0    0  0.35186330582E+02  0.24983577272E+02  0.40853927807E+03  0.41081212095E+03  0.00000000000E+00 0.  1.
         14    1    3    3    0    0  0.72905262138E+01 -0.28859617040E+02  0.66376707579E+02  0.72745423067E+02  0.00000000000E+00 0. -1.
         21    1    1    2  502  501 -0.42476856796E+02  0.38760397679E+01  0.81228867212E+02  0.91746585310E+02  0.00000000000E+00 0.  1.
<mgrwt>
<rscale>  1 0.91009367E+02</rscale>
<asrwt>0</asrwt>
<pdfrwt beam="1">  1        2 0.14737909E-02 0.91009367E+02</pdfrwt>
<pdfrwt beam="2">  1       -1 0.87034511E-01 0.91009367E+02</pdfrwt>
<totfact> 0.11795176E+04</totfact>
</mgrwt>
</event>
<event>
 6    2  0.1063641E+001  0.9003916E+02  0.7546771E-02  0.1302757E+00
          2   -1    0    0  502    0  0.00000000000E+00  0.00000000000E+00  0.83718789897E+03  0.83718789897E+03  0.00000000000E+00 0. -1.
         -1   -1    0    0    0  501 -0.00000000000E+00 -0.00000000000E+00 -0.61480779529E+01  0.61480779529E+01  0.00000000000E+00 0.  1.
         24    2    1    2    0    0  0.36312269723E+02  0.21836615088E+02  0.38968375270E+03  0.39995059406E+03  0.79445779524E+02 0.  0.
        -13    1    3    3    0    0  0.44997583396E+02  0.46553674762E+01  0.10150253961E+03  0.11112704669E+03  0.00000000000E+00 0.  1.
         14    1    3    3    0    0 -0.86853136733E+01  0.17181247612E+02  0.28818121309E+03  0.28882354738E+03  0.00000000000E+00 0. -1.
         21    1    1    2  502  501 -0.36312269723E+02 -0.21836615088E+02  0.44135606832E+03  0.44338538286E+03  0.00000000000E+00 0. -1.
<mgrwt>
<rscale>  1 0.90039161E+02</rscale>
<asrwt>0</asrwt>
<pdfrwt beam="1">  1        2 0.12879805E+00 0.90039161E+02</pdfrwt>
<pdfrwt beam="2">  1       -1 0.94585881E-03 0.90039161E+02</pdfrwt>
<totfact> 0.68864583E+04</totfact>
</mgrwt>
</event>
<event>
 6    2  0.1063641E+001  0.8213307E+02  0.7546771E-02  0.1323105E+00
         -1   -1    0    0    0  501 -0.00000000000E+00  0.00000000000E+00  0.30241226681E+01  0.30241226681E+01  0.00000000000E+00 0.  1.
          2   -1    0    0  502    0  0.00000000000E+00 -0.00000000000E+00 -0.15998235052E+04  0.15998235052E+04  0.00000000000E+00 0. -1.
         24    2    1    2    0    0  0.13346239120E+02 -0.41166245645E+02 -0.66639675196E+03  0.67143910479E+03  0.69807295788E+02 0.  0.
        -13    1    3    3    0    0  0.37884234990E+02 -0.13200620556E+02 -0.23119394410E+03  0.23464891100E+03  0.00000000000E+00 0.  1.
         14    1    3    3    0    0 -0.24537995870E+02 -0.27965625089E+02 -0.43520280785E+03  0.43679019379E+03  0.00000000000E+00 0. -1.
         21    1    1    2  502  501 -0.13346239120E+02  0.41166245645E+02 -0.93040263062E+03  0.93140852312E+03  0.00000000000E+00 0. -1.
<mgrwt>
<rscale>  1 0.82133065E+02</rscale>
<asrwt>0</asrwt>
<pdfrwt beam="1">  1        2 0.24612649E+00 0.82133065E+02</pdfrwt>
<pdfrwt beam="2">  1       -1 0.46525002E-03 0.82133065E+02</pdfrwt>
<totfact> 0.70114886E+04</totfact>
</mgrwt>
</event>
<event>
 6    2  0.1063641E+001  0.8247711E+02  0.7546771E-02  0.1322165E+00
         -1   -1    0    0    0  501 -0.00000000000E+00  0.00000000000E+00  0.41264602685E+01  0.41264602685E+01  0.00000000000E+00 0.  1.
          2   -1    0    0  502    0  0.00000000000E+00 -0.00000000000E+00 -0.10169426155E+04  0.10169426155E+04  0.00000000000E+00 0. -1.
         24    2    1    2    0    0  0.15324273570E+02 -0.13999692020E+02 -0.42740915372E+03  0.43529421957E+03  0.79822604375E+02 0.  0.
        -13    1    3    3    0    0  0.29845956093E+02 -0.32653476175E+02 -0.13791318501E+03  0.14483465470E+03  0.00000000000E+00 0.  1.
         14    1    3    3    0    0 -0.14521682523E+02  0.18653784155E+02 -0.28949596870E+03  0.29045956487E+03  0.00000000000E+00 0. -1.
         21    1    1    2  502  501 -0.15324273570E+02  0.13999692020E+02 -0.58540700149E+03  0.58577485618E+03  0.00000000000E+00 0. -1.
<mgrwt>
<rscale>  1 0.82477105E+02</rscale>
<asrwt>0</asrwt>
<pdfrwt beam="1">  1        2 0.15645280E+00 0.82477105E+02</pdfrwt>
<pdfrwt beam="2">  1       -1 0.63483968E-03 0.82477105E+02</pdfrwt>
<totfact> 0.92629004E+04</totfact>
</mgrwt>
</event>
<event>
 6    2  0.1063641E+001  0.8357523E+02  0.7546771E-02  0.1319201E+00
          2   -1    0    0  502    0  0.00000000000E+00  0.00000000000E+00  0.54156522627E+01  0.54156522627E+01  0.00000000000E+00 0. -1.
         -1   -1    0    0    0  501 -0.00000000000E+00 -0.00000000000E+00 -0.58223933720E+03  0.58223933720E+03  0.00000000000E+00 0.  1.
         24    2    1    2    0    0  0.19486084142E+02 -0.81778036198E+01 -0.34960943902E+03  0.35946012209E+03  0.80859356752E+02 0.  0.
        -11    1    3    3    0    0  0.50751259201E+02 -0.11787505742E+02 -0.21833777262E+03  0.22446830190E+03  0.00000000000E+00 0.  1.
         12    1    3    3    0    0 -0.31265175059E+02  0.36097021218E+01 -0.13127166640E+03  0.13499182020E+03  0.00000000000E+00 0. -1.
         21    1    1    2  502  501 -0.19486084142E+02  0.81778036198E+01 -0.22721424592E+03  0.22819486737E+03  0.00000000000E+00 0.  1.
<mgrwt>
<rscale>  1 0.83575233E+02</rscale>
<asrwt>0</asrwt>
<pdfrwt beam="1">  1        2 0.83317729E-03 0.83575233E+02</pdfrwt>
<pdfrwt beam="2">  1       -1 0.89575281E-01 0.83575233E+02</pdfrwt>
<totfact> 0.23944238E+04</totfact>
</mgrwt>
</event>
<event>
 6    2  0.1063641E+001  0.8149753E+02  0.7546771E-02  0.1324855E+00
         -1   -1    0    0    0  501 -0.00000000000E+00  0.00000000000E+00  0.90545422473E+02  0.90545422473E+02  0.00000000000E+00 0.  1.
          2   -1    0    0  502    0  0.00000000000E+00 -0.00000000000E+00 -0.37867948809E+02  0.37867948809E+02  0.00000000000E+00 0. -1.
         24    2    1    2    0    0  0.58251963445E+01  0.21842734137E+02  0.63533069908E+02  0.10333585313E+03  0.78299486730E+02 0.  0.
        -13    1    3    3    0    0  0.15313556259E+02  0.94288492025E+01  0.79195959594E+02  0.81212118668E+02  0.00000000000E+00 0.  1.
         14    1    3    3    0    0 -0.94883599141E+01  0.12413884935E+02 -0.15662889686E+02  0.22123734457E+02  0.00000000000E+00 0. -1.
         21    1    1    2  502  501 -0.58251963445E+01 -0.21842734137E+02 -0.10855596244E+02  0.25077518156E+02  0.00000000000E+00 0. -1.
<mgrwt>
<rscale>  1 0.81497531E+02</rscale>
<asrwt>0</asrwt>
<pdfrwt beam="1">  1        2 0.58258383E-02 0.81497531E+02</pdfrwt>
<pdfrwt beam="2">  1       -1 0.13930065E-01 0.81497531E+02</pdfrwt>
<totfact> 0.44995875E+04</totfact>
</mgrwt>
</event>
<event>
 6    2  0.1063641E+001  0.9610167E+02  0.7546771E-02  0.1288714E+00
          2   -1    0    0  502    0  0.00000000000E+00  0.00000000000E+00  0.10201436127E+04  0.10201436127E+04  0.00000000000E+00 0. -1.
         -1   -1    0    0    0  501 -0.00000000000E+00 -0.00000000000E+00 -0.15271878633E+02  0.15271878633E+02  0.00000000000E+00 0.  1.
         24    2    1    2    0    0  0.31628821932E+02  0.16310037773E+02  0.13999052442E+03  0.16980246780E+03  0.89269991792E+02 0.  0.
        -13    1    3    3    0    0 -0.27688534670E+02 -0.35303155220E+01  0.72984964887E+02  0.78140406829E+02  0.00000000000E+00 0.  1.
         14    1    3    3    0    0  0.59317356602E+02  0.19840353295E+02  0.67005559534E+02  0.91662060972E+02  0.00000000000E+00 0. -1.
         21    1    1    2  502  501 -0.31628821932E+02 -0.16310037773E+02  0.86488120968E+03  0.86561302356E+03  0.00000000000E+00 0. -1.
<mgrwt>
<rscale>  1 0.96101671E+02</rscale>
<asrwt>0</asrwt>
<pdfrwt beam="1">  1        2 0.15694512E+00 0.96101671E+02</pdfrwt>
<pdfrwt beam="2">  1       -1 0.23495206E-02 0.96101671E+02</pdfrwt>
<totfact> 0.14713134E+04</totfact>
</mgrwt>
</event>
<event>
 6    2  0.1063641E+001  0.8777200E+02  0.7546771E-02  0.1308339E+00
         -1   -1    0    0    0  501 -0.00000000000E+00  0.00000000000E+00  0.42635578989E+01  0.42635578989E+01  0.00000000000E+00 0.  1.
          2   -1    0    0  502    0  0.00000000000E+00 -0.00000000000E+00 -0.89963486652E+03  0.89963486652E+03  0.00000000000E+00 0. -1.
         24    2    1    2    0    0 -0.79191074234E+01 -0.25676289963E+02 -0.50239431243E+03  0.51000389073E+03  0.83557999478E+02 0.  0.
        -13    1    3    3    0    0  0.25977098020E+02  0.26008888351E+01 -0.60269841926E+02  0.65681261331E+02  0.00000000000E+00 0.  1.
         14    1    3    3    0    0 -0.33896205443E+02 -0.28277178798E+02 -0.44212447050E+03  0.44432262940E+03  0.00000000000E+00 0. -1.
         21    1    1    2  502  501  0.79191074234E+01  0.25676289963E+02 -0.39297699620E+03  0.39389453369E+03  0.00000000000E+00 0. -1.
<mgrwt>
<rscale>  1 0.87771997E+02</rscale>
<asrwt>0</asrwt>
<pdfrwt beam="1">  1        2 0.13840530E+00 0.87771997E+02</pdfrwt>
<pdfrwt beam="2">  1       -1 0.65593227E-03 0.87771997E+02</pdfrwt>
<totfact> 0.10484529E+05</totfact>
</mgrwt>
</event>
<event>
 6    2  0.1063641E+001  0.8337969E+02  0.7546771E-02  0.1319725E+00
          2   -1    0    0  502    0  0.00000000000E+00  0.00000000000E+00  0.70248515280E+03  0.70248515280E+03  0.00000000000E+00 0. -1.
         -1   -1    0    0    0  501 -0.00000000000E+00 -0.00000000000E+00 -0.19099624319E+02  0.19099624319E+02  0.00000000000E+00 0.  1.
         24    2    1    2    0    0 -0.12560936624E+02  0.17731169095E+02  0.73023088683E+02  0.11083566381E+03  0.80498455922E+02 0.  0.
        -13    1    3    3    0    0  0.27031870190E+02  0.17944934624E+02  0.60069331010E+01  0.32997362469E+02  0.00000000000E+00 0.  1.
         14    1    3    3    0    0 -0.39592806814E+02 -0.21376552872E+00  0.67016155582E+02  0.77838301344E+02  0.00000000000E+00 0. -1.
         21    1    1    2  502  501  0.12560936624E+02 -0.17731169095E+02  0.61036243980E+03  0.61074911331E+03  0.00000000000E+00 0. -1.
<mgrwt>
<rscale>  1 0.83379691E+02</rscale>
<asrwt>0</asrwt>
<pdfrwt beam="1">  1        2 0.10807462E+00 0.83379691E+02</pdfrwt>
<pdfrwt beam="2">  1       -1 0.29384043E-02 0.83379691E+02</pdfrwt>
<totfact> 0.16844486E+04</totfact>
</mgrwt>
</event>
<event>
 6    2  0.1063641E+001  0.8593471E+02  0.7546771E-02  0.1313006E+00
          2   -1    0    0  502    0  0.00000000000E+00  0.00000000000E+00  0.72440220889E+02  0.72440220889E+02  0.00000000000E+00 0. -1.
         -1   -1    0    0    0  501 -0.00000000000E+00 -0.00000000000E+00 -0.53600709752E+02  0.53600709752E+02  0.00000000000E+00 0.  1.
         24    2    1    2    0    0  0.24783639592E+02  0.77014665102E+01 -0.10839040975E+02  0.86615585578E+02  0.81922118369E+02 0.  0.
        -11    1    3    3    0    0 -0.30381669792E+02  0.22417898035E+01 -0.26522882997E+01  0.30579504805E+02  0.00000000000E+00 0.  1.
         12    1    3    3    0    0  0.55165309384E+02  0.54596767067E+01 -0.81867526758E+01  0.56036080774E+02  0.00000000000E+00 0. -1.
         21    1    1    2  502  501 -0.24783639592E+02 -0.77014665102E+01  0.29678552112E+02  0.39425345062E+02  0.00000000000E+00 0.  1.
<mgrwt>
<rscale>  1 0.85934713E+02</rscale>
<asrwt>0</asrwt>
<pdfrwt beam="1">  1        2 0.11144649E-01 0.85934713E+02</pdfrwt>
<pdfrwt beam="2">  1       -1 0.82462630E-02 0.85934713E+02</pdfrwt>
<totfact> 0.44982878E+04</totfact>
</mgrwt>
</event>
<event>
 6    2  0.1063641E+001  0.8230329E+02  0.7546771E-02  0.1322639E+00
          2   -1    0    0  502    0  0.00000000000E+00  0.00000000000E+00  0.21182447340E+03  0.21182447340E+03  0.00000000000E+00 0. -1.
         -1   -1    0    0    0  501 -0.00000000000E+00 -0.00000000000E+00 -0.15605262193E+02  0.15605262193E+02  0.00000000000E+00 0.  1.
         24    2    1    2    0    0  0.20749931802E+02  0.13897115504E+02  0.10825375465E+03  0.13598789049E+03  0.78422837706E+02 0.  0.
        -13    1    3    3    0    0  0.63767993251E+01 -0.34401562036E+01 -0.11796286749E+02  0.13843793750E+02  0.00000000000E+00 0.  1.
         14    1    3    3    0    0  0.14373132477E+02  0.17337271707E+02  0.12005004140E+03  0.12214409673E+03  0.00000000000E+00 0. -1.
         21    1    1    2  502  501 -0.20749931802E+02 -0.13897115504E+02  0.87965456557E+02  0.91441845106E+02  0.00000000000E+00 0. -1.
<mgrwt>
<rscale>  1 0.82303286E+02</rscale>
<asrwt>0</asrwt>
<pdfrwt beam="1">  1        2 0.32588378E-01 0.82303286E+02</pdfrwt>
<pdfrwt beam="2">  1       -1 0.24008097E-02 0.82303286E+02</pdfrwt>
<totfact> 0.80831886E+04</totfact>
</mgrwt>
</event>
<event>
 6    2  0.1063641E+001  0.9392201E+02  0.7546771E-02  0.1293623E+00
          2   -1    0    0  502    0  0.00000000000E+00  0.00000000000E+00  0.14946861484E+04  0.14946861484E+04  0.00000000000E+00 0. -1.
         -1   -1    0    0    0  501 -0.00000000000E+00 -0.00000000000E+00 -0.36407587043E+01  0.36407587043E+01  0.00000000000E+00 0.  1.
         24    2    1    2    0    0 -0.42910262499E+02 -0.25018137787E+02  0.79900817974E+03  0.80450942548E+03  0.79712900754E+02 0.  0.
        -11    1    3    3    0    0 -0.63527706007E+01  0.21870925406E+02  0.83975923001E+02  0.87009486358E+02  0.00000000000E+00 0.  1.
         12    1    3    3    0    0 -0.36557491898E+02 -0.46889063193E+02  0.71503225674E+03  0.71749993912E+03  0.00000000000E+00 0. -1.
         21    1    1    2  502  501  0.42910262499E+02  0.25018137787E+02  0.69203720995E+03  0.69381748162E+03  0.00000000000E+00 0. -1.
<mgrwt>
<rscale>  1 0.93922012E+02</rscale>
<asrwt>0</asrwt>
<pdfrwt beam="1">  1        2 0.22995123E+00 0.93922012E+02</pdfrwt>
<pdfrwt beam="2">  1       -1 0.56011792E-03 0.93922012E+02</pdfrwt>
<totfact> 0.62029067E+04</totfact>
</mgrwt>
</event>
<event>
 6    2  0.1063641E+001  0.8741929E+02  0.7546771E-02  0.1309224E+00
         -1   -1    0    0    0  501 -0.00000000000E+00  0.00000000000E+00  0.77026222348E+01  0.77026222348E+01  0.00000000000E+00 0.  1.
          2   -1    0    0  502    0  0.00000000000E+00 -0.00000000000E+00 -0.42635483739E+03  0.42635483739E+03  0.00000000000E+00 0. -1.
         24    2    1    2    0    0 -0.51764375871E+01  0.25489389377E+02 -0.34659845287E+03  0.35745296148E+03  0.83460335851E+02 0.  0.
        -11    1    3    3    0    0  0.11412094249E+02 -0.21489503652E+02 -0.39896581916E+02  0.46730845391E+02  0.00000000000E+00 0.  1.
         12    1    3    3    0    0 -0.16588531837E+02  0.46978893029E+02 -0.30670187095E+03  0.31072211609E+03  0.00000000000E+00 0. -1.
         21    1    1    2  502  501  0.51764375871E+01 -0.25489389377E+02 -0.72053762284E+02  0.76604498146E+02  0.00000000000E+00 0.  1.
<mgrwt>
<rscale>  1 0.87419289E+02</rscale>
<asrwt>0</asrwt>
<pdfrwt beam="1">  1        2 0.65593070E-01 0.87419289E+02</pdfrwt>
<pdfrwt beam="2">  1       -1 0.11850185E-02 0.87419289E+02</pdfrwt>
<totfact> 0.10681621E+05</totfact>
</mgrwt>
</event>
<event>
 6    2  0.1063641E+001  0.8582592E+02  0.7546771E-02  0.1313287E+00
          2   -1    0    0  502    0  0.00000000000E+00  0.00000000000E+00  0.34134942390E+04  0.34134942390E+04  0.00000000000E+00 0. -1.
         -1   -1    0    0    0  501 -0.00000000000E+00 -0.00000000000E+00 -0.87200306235E+00  0.87200306235E+00  0.00000000000E+00 0.  1.
         24    2    1    2    0    0 -0.45481722925E+01  0.20143360283E+02  0.30001829911E+04  0.30014103467E+04  0.83304551734E+02 0.  0.
        -13    1    3    3    0    0 -0.37290440583E+01 -0.27791016749E+02  0.51330363386E+03  0.51406893207E+03  0.00000000000E+00 0.  1.
         14    1    3    3    0    0 -0.81912823423E+00  0.47934377032E+02  0.24868793573E+04  0.24873414147E+04  0.00000000000E+00 0. -1.
         21    1    1    2  502  501  0.45481722925E+01 -0.20143360283E+02  0.41243924480E+03  0.41295589533E+03  0.00000000000E+00 0.  1.
<mgrwt>
<rscale>  1 0.85825924E+02</rscale>
<asrwt>0</asrwt>
<pdfrwt beam="1">  1        2 0.52514226E+00 0.85825924E+02</pdfrwt>
<pdfrwt beam="2">  1       -1 0.13415705E-03 0.85825924E+02</pdfrwt>
<totfact> 0.42007722E+04</totfact>
</mgrwt>
</event>
<event>
 6    2  0.1063641E+001  0.8321870E+02  0.7546771E-02  0.1320158E+00
          4   -1    0    0  502    0  0.00000000000E+00  0.00000000000E+00  0.17853885336E+03  0.17853885336E+03  0.00000000000E+00 0. -1.
         -3   -1    0    0    0  501 -0.00000000000E+00 -0.00000000000E+00 -0.16395945021E+02  0.16395945021E+02  0.00000000000E+00 0.  1.
         24    2    1    2    0    0 -0.10804059379E+01  0.22819235950E+02  0.10937879484E+03  0.13743752471E+03  0.80021669762E+02 0.  0.
        -11    1    3    3    0    0  0.19292646467E+02  0.11242919103E+02 -0.31001327299E+01  0.22543741051E+02  0.00000000000E+00 0.  1.
         12    1    3    3    0    0 -0.20373052405E+02  0.11576316847E+02  0.11247892757E+03  0.11489378366E+03  0.00000000000E+00 0. -1.
         21    1    1    2  502  501  0.10804059379E+01 -0.22819235950E+02  0.52764113495E+02  0.57497273668E+02  0.00000000000E+00 0. -1.
<mgrwt>
<rscale>  1 0.83218702E+02</rscale>
<asrwt>0</asrwt>
<pdfrwt beam="1">  1        4 0.27467515E-01 0.83218702E+02</pdfrwt>
<pdfrwt beam="2">  1       -3 0.25224532E-02 0.83218702E+02</pdfrwt>
<totfact> 0.14019412E+04</totfact>
</mgrwt>
</event>
<event>
 6    2  0.1063641E+001  0.8337814E+02  0.7546771E-02  0.1319729E+00
         -1   -1    0    0    0  501 -0.00000000000E+00  0.00000000000E+00  0.20690972946E+01  0.20690972946E+01  0.00000000000E+00 0.  1.
          2   -1    0    0  502    0  0.00000000000E+00 -0.00000000000E+00 -0.17267700841E+04  0.17267700841E+04  0.00000000000E+00 0. -1.
         24    2    1    2    0    0 -0.11380782401E+02 -0.28224545467E+02 -0.98876264515E+03  0.99227187972E+03  0.77625818309E+02 0.  0.
        -13    1    3    3    0    0 -0.18322398189E+02 -0.45378338518E+02 -0.36875144053E+03  0.37198458137E+03  0.00000000000E+00 0.  1.
         14    1    3    3    0    0  0.69416157886E+01  0.17153793052E+02 -0.62001120462E+03  0.62028729835E+03  0.00000000000E+00 0. -1.
         21    1    1    2  502  501  0.11380782401E+02  0.28224545467E+02 -0.73593834170E+03  0.73656730172E+03  0.00000000000E+00 0. -1.
<mgrwt>
<rscale>  1 0.83378144E+02</rscale>
<asrwt>0</asrwt>
<pdfrwt beam="1">  1        2 0.26565799E+00 0.83378144E+02</pdfrwt>
<pdfrwt beam="2">  1       -1 0.31832139E-03 0.83378144E+02</pdfrwt>
<totfact> 0.10284578E+05</totfact>
</mgrwt>
</event>
<event>
 6    2  0.1063641E+001  0.8668305E+02  0.7546771E-02  0.1311089E+00
          2   -1    0    0  502    0  0.00000000000E+00  0.00000000000E+00  0.78188237292E+02  0.78188237292E+02  0.00000000000E+00 0. -1.
         -1   -1    0    0    0  501 -0.00000000000E+00 -0.00000000000E+00 -0.53596340945E+02  0.53596340945E+02  0.00000000000E+00 0.  1.
         24    2    1    2    0    0 -0.19364147036E+02  0.22590923282E+02 -0.87183260450E+01  0.87120376453E+02  0.81416403624E+02 0.  0.
        -13    1    3    3    0    0 -0.58837816866E+00 -0.25073876152E+02 -0.22901709276E+02  0.33963712134E+02  0.00000000000E+00 0.  1.
         14    1    3    3    0    0 -0.18775768868E+02  0.47664799434E+02  0.14183383231E+02  0.53156664319E+02  0.00000000000E+00 0. -1.
         21    1    1    2  502  501  0.19364147036E+02 -0.22590923282E+02  0.33310222392E+02  0.44664201784E+02  0.00000000000E+00 0.  1.
<mgrwt>
<rscale>  1 0.86683048E+02</rscale>
<asrwt>0</asrwt>
<pdfrwt beam="1">  1        2 0.12028960E-01 0.86683048E+02</pdfrwt>
<pdfrwt beam="2">  1       -1 0.82455909E-02 0.86683048E+02</pdfrwt>
<totfact> 0.41127857E+04</totfact>
</mgrwt>
</event>
<event>
 6    2  0.1063641E+001  0.1067385E+03  0.7546771E-02  0.1266732E+00
         -1   -1    0    0    0  501 -0.00000000000E+00  0.00000000000E+00  0.77497855746E+03  0.77497855746E+03  0.00000000000E+00 0.  1.
          2   -1    0    0  502    0  0.00000000000E+00 -0.00000000000E+00 -0.21877390511E+02  0.21877390511E+02  0.00000000000E+00 0. -1.
         24    2    1    2    0    0  0.84513185720E+01 -0.66709392818E+02  0.70773996608E+03  0.71574364052E+03  0.82894701169E+02 0.  0.
        -13    1    3    3    0    0 -0.25962942589E+02 -0.19853544196E+02  0.46466883020E+03  0.46581687321E+03  0.00000000000E+00 0.  1.
         14    1    3    3    0    0  0.34414261161E+02 -0.46855848621E+02  0.24307113588E+03  0.24992676731E+03  0.00000000000E+00 0. -1.
         21    1    1    2  502  501 -0.84513185720E+01  0.66709392818E+02  0.45361200866E+02  0.81112307449E+02  0.00000000000E+00 0. -1.
<mgrwt>
<rscale>  1 0.10673846E+03</rscale>
<asrwt>0</asrwt>
<pdfrwt beam="1">  1        2 0.33657530E-02 0.10673846E+03</pdfrwt>
<pdfrwt beam="2">  1       -1 0.11922745E+00 0.10673846E+03</pdfrwt>
<totfact> 0.19685507E+03</totfact>
</mgrwt>
</event>
<event>
 6    2  0.1063641E+001  0.8625752E+02  0.7546771E-02  0.1312176E+00
          2   -1    0    0  502    0  0.00000000000E+00  0.00000000000E+00  0.97343630984E+03  0.97343630984E+03  0.00000000000E+00 0. -1.
         -1   -1    0    0    0  501 -0.00000000000E+00 -0.00000000000E+00 -0.54878554881E+01  0.54878554881E+01  0.00000000000E+00 0.  1.
         24    2    1    2    0    0 -0.25135240413E+01 -0.34210271067E+02  0.36711941146E+03  0.37711672167E+03  0.79143534475E+02 0.  0.
        -13    1    3    3    0    0 -0.14895865995E+02 -0.58764879289E+01  0.10476241563E+02  0.19135610035E+02  0.00000000000E+00 0.  1.
         14    1    3    3    0    0  0.12382341954E+02 -0.28333783138E+02  0.35664316989E+03  0.35798111164E+03  0.00000000000E+00 0. -1.
         21    1    1    2  502  501  0.25135240413E+01  0.34210271067E+02  0.60082904289E+03  0.60180744365E+03  0.00000000000E+00 0. -1.
<mgrwt>
<rscale>  1 0.86257519E+02</rscale>
<asrwt>0</asrwt>
<pdfrwt beam="1">  1        2 0.14975929E+00 0.86257519E+02</pdfrwt>
<pdfrwt beam="2">  1       -1 0.84428623E-03 0.86257519E+02</pdfrwt>
<totfact> 0.66232115E+04</totfact>
</mgrwt>
</event>
<event>
 6    2  0.1063641E+001  0.8486777E+02  0.7546771E-02  0.1315779E+00
          2   -1    0    0  502    0  0.00000000000E+00  0.00000000000E+00  0.86763080932E+03  0.86763080932E+03  0.00000000000E+00 0. -1.
         -1   -1    0    0    0  501 -0.00000000000E+00 -0.00000000000E+00 -0.39666586654E+01  0.39666586654E+01  0.00000000000E+00 0.  1.
         24    2    1    2    0    0  0.18510104202E+02  0.22258668823E+02  0.53842795792E+03  0.54507541152E+03  0.79777603850E+02 0.  0.
        -11    1    3    3    0    0  0.12429521404E+02  0.46082955290E+02  0.19454253325E+03  0.20031207905E+03  0.00000000000E+00 0.  1.
         12    1    3    3    0    0  0.60805827981E+01 -0.23824286467E+02  0.34388542467E+03  0.34476333247E+03  0.00000000000E+00 0. -1.
         21    1    1    2  502  501 -0.18510104202E+02 -0.22258668823E+02  0.32523619273E+03  0.32652205647E+03  0.00000000000E+00 0. -1.
<mgrwt>
<rscale>  1 0.84867770E+02</rscale>
<asrwt>0</asrwt>
<pdfrwt beam="1">  1        2 0.13348151E+00 0.84867770E+02</pdfrwt>
<pdfrwt beam="2">  1       -1 0.61025587E-03 0.84867770E+02</pdfrwt>
<totfact> 0.12089049E+05</totfact>
</mgrwt>
</event>
<event>
 6    2  0.1063641E+001  0.8561443E+02  0.7546771E-02  0.1313834E+00
          2   -1    0    0  502    0  0.00000000000E+00  0.00000000000E+00  0.10992645557E+04  0.10992645557E+04  0.00000000000E+00 0. -1.
         -1   -1    0    0    0  501 -0.00000000000E+00 -0.00000000000E+00 -0.27229435981E+01  0.27229435981E+01  0.00000000000E+00 0.  1.
         24    2    1    2    0    0 -0.19888487162E+02 -0.12247965325E+02  0.81792450816E+03  0.82239305160E+03  0.82366653997E+02 0.  0.
        -11    1    3    3    0    0  0.27847392449E+02  0.12051226742E+02  0.22161847333E+03  0.22368606808E+03  0.00000000000E+00 0.  1.
         12    1    3    3    0    0 -0.47735879610E+02 -0.24299192067E+02  0.59630603483E+03  0.59870698352E+03  0.00000000000E+00 0. -1.
         21    1    1    2  502  501  0.19888487162E+02  0.12247965325E+02  0.27861710397E+03  0.27959444773E+03  0.00000000000E+00 0. -1.
<mgrwt>
<rscale>  1 0.85614428E+02</rscale>
<asrwt>0</asrwt>
<pdfrwt beam="1">  1        2 0.16911727E+00 0.85614428E+02</pdfrwt>
<pdfrwt beam="2">  1       -1 0.41891528E-03 0.85614428E+02</pdfrwt>
<totfact> 0.14934313E+05</totfact>
</mgrwt>
</event>
<event>
 6    2  0.1063641E+001  0.8283494E+02  0.7546771E-02  0.1321193E+00
         -1   -1    0    0    0  501 -0.00000000000E+00  0.00000000000E+00  0.67854281223E+01  0.67854281223E+01  0.00000000000E+00 0.  1.
          2   -1    0    0  502    0  0.00000000000E+00 -0.00000000000E+00 -0.69748992156E+03  0.69748992156E+03  0.00000000000E+00 0. -1.
         24    2    1    2    0    0 -0.18322152646E+02  0.11362233471E+02 -0.25666716825E+03  0.26970291466E+03  0.79980155604E+02 0.  0.
        -13    1    3    3    0    0 -0.45213879167E+02 -0.12388182965E+02 -0.13962329002E+03  0.14728348537E+03  0.00000000000E+00 0.  1.
         14    1    3    3    0    0  0.26891726521E+02  0.23750416437E+02 -0.11704387823E+03  0.12241942929E+03  0.00000000000E+00 0. -1.
         21    1    1    2  502  501  0.18322152646E+02 -0.11362233471E+02 -0.43403732519E+03  0.43457243502E+03  0.00000000000E+00 0. -1.
<mgrwt>
<rscale>  1 0.82834938E+02</rscale>
<asrwt>0</asrwt>
<pdfrwt beam="1">  1        2 0.10730615E+00 0.82834938E+02</pdfrwt>
<pdfrwt beam="2">  1       -1 0.10439119E-02 0.82834938E+02</pdfrwt>
<totfact> 0.73803430E+04</totfact>
</mgrwt>
</event>
<event>
 6    2  0.1063641E+001  0.8938447E+02  0.7546771E-02  0.1304349E+00
         -3   -1    0    0    0  501 -0.00000000000E+00  0.00000000000E+00  0.38997472762E+03  0.38997472762E+03  0.00000000000E+00 0.  1.
          4   -1    0    0  502    0  0.00000000000E+00 -0.00000000000E+00 -0.11426661500E+02  0.11426661500E+02  0.00000000000E+00 0. -1.
         24    2    1    2    0    0  0.33729323266E+02  0.22185215948E+02  0.21285758583E+03  0.23086345694E+03  0.79747933196E+02 0.  0.
        -13    1    3    3    0    0  0.44993396907E+02  0.19268853882E+02  0.21366545727E+03  0.21919995922E+03  0.00000000000E+00 0.  1.
         14    1    3    3    0    0 -0.11264073641E+02  0.29163620661E+01 -0.80787143412E+00  0.11663497715E+02  0.00000000000E+00 0. -1.
         21    1    1    2  502  501 -0.33729323266E+02 -0.22185215948E+02  0.16569048028E+03  0.17053793218E+03  0.00000000000E+00 0.  1.
<mgrwt>
<rscale>  1 0.89384472E+02</rscale>
<asrwt>0</asrwt>
<pdfrwt beam="1">  1        4 0.17579482E-02 0.89384472E+02</pdfrwt>
<pdfrwt beam="2">  1       -3 0.59996102E-01 0.89384472E+02</pdfrwt>
<totfact> 0.59889672E+03</totfact>
</mgrwt>
</event>
<event>
 6    2  0.1063641E+001  0.1650314E+03  0.7546771E-02  0.1183131E+00
         -1   -1    0    0    0  501 -0.00000000000E+00  0.00000000000E+00  0.25328448234E+02  0.25328448234E+02  0.00000000000E+00 0.  1.
          2   -1    0    0  502    0  0.00000000000E+00 -0.00000000000E+00 -0.10511010667E+04  0.10511010667E+04  0.00000000000E+00 0. -1.
         24    2    1    2    0    0  0.19199800515E+02  0.14307858010E+03 -0.71448441616E+03  0.73329622112E+03  0.79970335502E+02 0.  0.
        -13    1    3    3    0    0 -0.18766555314E+02  0.21145044060E+01 -0.92624505925E+02  0.94530174151E+02  0.00000000000E+00 0.  1.
         14    1    3    3    0    0  0.37966355829E+02  0.14096407570E+03 -0.62185991023E+03  0.63876604697E+03  0.00000000000E+00 0. -1.
         21    1    1    2  502  501 -0.19199800515E+02 -0.14307858010E+03 -0.31128820231E+03  0.34313329381E+03  0.00000000000E+00 0.  1.
<mgrwt>
<rscale>  1 0.16503141E+03</rscale>
<asrwt>0</asrwt>
<pdfrwt beam="1">  1        2 0.16170789E+00 0.16503141E+03</pdfrwt>
<pdfrwt beam="2">  1       -1 0.38966834E-02 0.16503141E+03</pdfrwt>
<totfact> 0.69702170E+03</totfact>
</mgrwt>
</event>
<event>
 6    2  0.1063641E+001  0.8428995E+02  0.7546771E-02  0.1317300E+00
         -1   -1    0    0    0  501 -0.00000000000E+00  0.00000000000E+00  0.53909586200E+02  0.53909586200E+02  0.00000000000E+00 0.  1.
          2   -1    0    0  502    0  0.00000000000E+00 -0.00000000000E+00 -0.14782182242E+03  0.14782182242E+03  0.00000000000E+00 0. -1.
         24    2    1    2    0    0  0.20664286003E+02 -0.13186739075E+02  0.18819447876E+02  0.86365315670E+02  0.80646719269E+02 0.  0.
        -11    1    3    3    0    0  0.26625060663E+02  0.28327664375E+02  0.21342731465E+02  0.44349324805E+02  0.00000000000E+00 0.  1.
         12    1    3    3    0    0 -0.59607746603E+01 -0.41514403449E+02 -0.25232835893E+01  0.42015990865E+02  0.00000000000E+00 0. -1.
         21    1    1    2  502  501 -0.20664286003E+02  0.13186739075E+02 -0.11273168410E+03  0.11536609295E+03  0.00000000000E+00 0.  1.
<mgrwt>
<rscale>  1 0.84289953E+02</rscale>
<asrwt>0</asrwt>
<pdfrwt beam="1">  1        2 0.22741819E-01 0.84289953E+02</pdfrwt>
<pdfrwt beam="2">  1       -1 0.82937826E-02 0.84289953E+02</pdfrwt>
<totfact> 0.19648480E+04</totfact>
</mgrwt>
</event>
<event>
 6    2  0.1063641E+001  0.7460972E+02  0.7546771E-02  0.1345084E+00
         -1   -1    0    0    0  501 -0.00000000000E+00  0.00000000000E+00  0.27754510083E+02  0.27754510083E+02  0.00000000000E+00 0.  1.
          2   -1    0    0  502    0  0.00000000000E+00 -0.00000000000E+00 -0.12650406780E+03  0.12650406780E+03  0.00000000000E+00 0. -1.
         24    2    1    2    0    0 -0.19094865460E+02  0.16087892947E+02 -0.28781152173E+02  0.79968524978E+02  0.70307724187E+02 0.  0.
        -13    1    3    3    0    0 -0.33125907510E+02  0.26822105577E+01  0.11572326422E+02  0.35191458348E+02  0.00000000000E+00 0.  1.
         14    1    3    3    0    0  0.14031042050E+02  0.13405682389E+02 -0.40353478595E+02  0.44777066631E+02  0.00000000000E+00 0. -1.
         21    1    1    2  502  501  0.19094865460E+02 -0.16087892947E+02 -0.69968405545E+02  0.74290052907E+02  0.00000000000E+00 0. -1.
<mgrwt>
<rscale>  1 0.74609720E+02</rscale>
<asrwt>0</asrwt>
<pdfrwt beam="1">  1        2 0.19462164E-01 0.74609720E+02</pdfrwt>
<pdfrwt beam="2">  1       -1 0.42699246E-02 0.74609720E+02</pdfrwt>
<totfact> 0.60886485E+04</totfact>
</mgrwt>
</event>
<event>
 6    2  0.1063641E+001  0.1316353E+03  0.7546771E-02  0.1225049E+00
          2   -1    0    0  502    0  0.00000000000E+00  0.00000000000E+00  0.10838803662E+04  0.10838803662E+04  0.00000000000E+00 0. -1.
         -1   -1    0    0    0  501 -0.00000000000E+00 -0.00000000000E+00 -0.24815945591E+02  0.24815945591E+02  0.00000000000E+00 0.  1.
         24    2    1    2    0    0  0.93560551066E+02  0.34838777955E+02  0.17484004444E+03  0.21885359278E+03  0.85793570667E+02 0.  0.
        -13    1    3    3    0    0  0.17659429625E+02  0.20470735252E+02 -0.72508341634E+00  0.27045003279E+02  0.00000000000E+00 0.  1.
         14    1    3    3    0    0  0.75901121442E+02  0.14368042704E+02  0.17556512785E+03  0.19180858950E+03  0.00000000000E+00 0. -1.
         21    1    1    2  502  501 -0.93560551066E+02 -0.34838777955E+02  0.88422437618E+03  0.88984271903E+03  0.00000000000E+00 0. -1.
<mgrwt>
<rscale>  1 0.13163531E+03</rscale>
<asrwt>0</asrwt>
<pdfrwt beam="1">  1        2 0.16675079E+00 0.13163531E+03</pdfrwt>
<pdfrwt beam="2">  1       -1 0.38178386E-02 0.13163531E+03</pdfrwt>
<totfact> 0.68108197E+03</totfact>
</mgrwt>
</event>
<event>
 6    2  0.1063641E+001  0.8510704E+02  0.7546771E-02  0.1315153E+00
         -1   -1    0    0    0  501 -0.00000000000E+00  0.00000000000E+00  0.26889440972E+02  0.26889440972E+02  0.00000000000E+00 0.  1.
          2   -1    0    0  502    0  0.00000000000E+00 -0.00000000000E+00 -0.11742843376E+03  0.11742843376E+03  0.00000000000E+00 0. -1.
         24    2    1    2    0    0 -0.13493804679E+02 -0.21077558834E+02 -0.81129252875E+02  0.11758045795E+03  0.81344097314E+02 0.  0.
        -11    1    3    3    0    0  0.68964016113E+01  0.26309784827E+02 -0.85028996094E+01  0.28496744281E+02  0.00000000000E+00 0.  1.
         12    1    3    3    0    0 -0.20390206290E+02 -0.47387343661E+02 -0.72626353265E+02  0.89083713666E+02  0.00000000000E+00 0. -1.
         21    1    1    2  502  501  0.13493804679E+02  0.21077558834E+02 -0.94097399139E+01  0.26737416786E+02  0.00000000000E+00 0.  1.
<mgrwt>
<rscale>  1 0.85107041E+02</rscale>
<asrwt>0</asrwt>
<pdfrwt beam="1">  1        2 0.18065913E-01 0.85107041E+02</pdfrwt>
<pdfrwt beam="2">  1       -1 0.41368370E-02 0.85107041E+02</pdfrwt>
<totfact> 0.70651820E+04</totfact>
</mgrwt>
</event>
<event>
 6    2  0.1063641E+001  0.1141570E+03  0.7546771E-02  0.1253060E+00
         -1   -1    0    0    0  501 -0.00000000000E+00  0.00000000000E+00  0.42933255262E+01  0.42933255262E+01  0.00000000000E+00 0.  1.
          2   -1    0    0  502    0  0.00000000000E+00 -0.00000000000E+00 -0.21848587892E+04  0.21848587892E+04  0.00000000000E+00 0. -1.
         24    2    1    2    0    0 -0.72253538279E+02 -0.32663728920E+02 -0.12312194623E+04  0.12365003822E+04  0.82123919092E+02 0.  0.
        -13    1    3    3    0    0  0.41138391331E+01  0.16538253837E+02 -0.39364004953E+03  0.39400878938E+03  0.00000000000E+00 0.  1.
         14    1    3    3    0    0 -0.76367377412E+02 -0.49201982758E+02 -0.83757941272E+03  0.84249159287E+03  0.00000000000E+00 0. -1.
         21    1    1    2  502  501  0.72253538279E+02  0.32663728920E+02 -0.94934600141E+03  0.95265173247E+03  0.00000000000E+00 0.  1.
<mgrwt>
<rscale>  1 0.11415705E+03</rscale>
<asrwt>0</asrwt>
<pdfrwt beam="1">  1        2 0.33613261E+00 0.11415705E+03</pdfrwt>
<pdfrwt beam="2">  1       -1 0.66051066E-03 0.11415705E+03</pdfrwt>
<totfact> 0.22302414E+04</totfact>
</mgrwt>
</event>
<event>
 6    2  0.1063641E+001  0.8211129E+02  0.7546771E-02  0.1323164E+00
         -1   -1    0    0    0  501 -0.00000000000E+00  0.00000000000E+00  0.28644437480E+02  0.28644437480E+02  0.00000000000E+00 0.  1.
          2   -1    0    0  502    0  0.00000000000E+00 -0.00000000000E+00 -0.11482543156E+03  0.11482543156E+03  0.00000000000E+00 0. -1.
         24    2    1    2    0    0 -0.18947565144E+02  0.67176373567E+01 -0.36466653798E+02  0.89844758260E+02  0.79612353759E+02 0.  0.
        -11    1    3    3    0    0  0.28543219145E+01  0.29269842373E+02  0.12286768876E+02  0.31872174628E+02  0.00000000000E+00 0.  1.
         12    1    3    3    0    0 -0.21801887059E+02 -0.22552205016E+02 -0.48753422675E+02  0.57972583632E+02  0.00000000000E+00 0. -1.
         21    1    1    2  502  501  0.18947565144E+02 -0.67176373567E+01 -0.49714340278E+02  0.53625110777E+02  0.00000000000E+00 0.  1.
<mgrwt>
<rscale>  1 0.82111289E+02</rscale>
<asrwt>0</asrwt>
<pdfrwt beam="1">  1        2 0.17665451E-01 0.82111289E+02</pdfrwt>
<pdfrwt beam="2">  1       -1 0.44068365E-02 0.82111289E+02</pdfrwt>
<totfact> 0.65758464E+04</totfact>
</mgrwt>
</event>
<event>
 6    2  0.1063641E+001  0.8217889E+02  0.7546771E-02  0.1322979E+00
         -3   -1    0    0    0  501 -0.00000000000E+00  0.00000000000E+00  0.65749074322E+01  0.65749074322E+01  0.00000000000E+00 0.  1.
          4   -1    0    0  502    0  0.00000000000E+00 -0.00000000000E+00 -0.42900623640E+03  0.42900623640E+03  0.00000000000E+00 0. -1.
         24    2    1    2    0    0 -0.34019453841E+01  0.22893106901E+02 -0.30413662609E+03  0.31504357996E+03  0.78852408757E+02 0.  0.
        -11    1    3    3    0    0 -0.38782328825E+02  0.91185262731E+01 -0.10466914241E+03  0.11199484776E+03  0.00000000000E+00 0.  1.
         12    1    3    3    0    0  0.35380383441E+02  0.13774580628E+02 -0.19946748368E+03  0.20304873220E+03  0.00000000000E+00 0. -1.
         21    1    1    2  502  501  0.34019453841E+01 -0.22893106901E+02 -0.11829470288E+03  0.12053756387E+03  0.00000000000E+00 0. -1.
<mgrwt>
<rscale>  1 0.82178890E+02</rscale>
<asrwt>0</asrwt>
<pdfrwt beam="1">  1        4 0.66000962E-01 0.82178890E+02</pdfrwt>
<pdfrwt beam="2">  1       -3 0.10115242E-02 0.82178890E+02</pdfrwt>
<totfact> 0.97531457E+03</totfact>
</mgrwt>
</event>
<event>
 6    2  0.1063641E+001  0.8492049E+02  0.7546771E-02  0.1315641E+00
         -1   -1    0    0    0  501 -0.00000000000E+00  0.00000000000E+00  0.41778477595E+01  0.41778477595E+01  0.00000000000E+00 0.  1.
          2   -1    0    0  502    0  0.00000000000E+00 -0.00000000000E+00 -0.78697022791E+03  0.78697022791E+03  0.00000000000E+00 0. -1.
         24    2    1    2    0    0 -0.17193652807E+02 -0.19727496099E+02 -0.66997587353E+03  0.67533633203E+03  0.80787959781E+02 0.  0.
        -11    1    3    3    0    0  0.81521176346E+01  0.22111074241E+02 -0.81719524412E+02  0.85049616673E+02  0.00000000000E+00 0.  1.
         12    1    3    3    0    0 -0.25345770442E+02 -0.41838570341E+02 -0.58825634912E+03  0.59028671536E+03  0.00000000000E+00 0. -1.
         21    1    1    2  502  501  0.17193652807E+02  0.19727496099E+02 -0.11281650662E+03  0.11581174364E+03  0.00000000000E+00 0.  1.
<mgrwt>
<rscale>  1 0.84920494E+02</rscale>
<asrwt>0</asrwt>
<pdfrwt beam="1">  1        2 0.12107229E+00 0.84920494E+02</pdfrwt>
<pdfrwt beam="2">  1       -1 0.64274611E-03 0.84920494E+02</pdfrwt>
<totfact> 0.12681442E+05</totfact>
</mgrwt>
</event>
<event>
 6    2  0.1063641E+001  0.8705407E+02  0.7546771E-02  0.1310147E+00
          2   -1    0    0  502    0  0.00000000000E+00  0.00000000000E+00  0.16361380659E+04  0.16361380659E+04  0.00000000000E+00 0. -1.
         -1   -1    0    0    0  501 -0.00000000000E+00 -0.00000000000E+00 -0.81317674558E+01  0.81317674558E+01  0.00000000000E+00 0.  1.
         24    2    1    2    0    0  0.30715512690E+02 -0.69645969175E+01  0.23022936783E+03  0.24613811706E+03  0.81157023927E+02 0.  0.
        -13    1    3    3    0    0 -0.12161153646E+02  0.13872085251E+02  0.10355581009E+02  0.21155766714E+02  0.00000000000E+00 0.  1.
         14    1    3    3    0    0  0.42876666336E+02 -0.20836682169E+02  0.21987378682E+03  0.22498235035E+03  0.00000000000E+00 0. -1.
         21    1    1    2  502  501 -0.30715512690E+02  0.69645969175E+01  0.13977769306E+04  0.13981317163E+04  0.00000000000E+00 0. -1.
<mgrwt>
<rscale>  1 0.87054069E+02</rscale>
<asrwt>0</asrwt>
<pdfrwt beam="1">  1        2 0.25171329E+00 0.87054069E+02</pdfrwt>
<pdfrwt beam="2">  1       -1 0.12510424E-02 0.87054069E+02</pdfrwt>
<totfact> 0.16864141E+04</totfact>
</mgrwt>
</event>
<event>
 6    2  0.1063641E+001  0.8921529E+02  0.7546771E-02  0.1304763E+00
         -1   -1    0    0    0  501 -0.00000000000E+00  0.00000000000E+00  0.89498418640E+01  0.89498418640E+01  0.00000000000E+00 0.  1.
          2   -1    0    0  502    0  0.00000000000E+00 -0.00000000000E+00 -0.45933988436E+03  0.45933988436E+03  0.00000000000E+00 0. -1.
         24    2    1    2    0    0  0.21497554104E+02 -0.28658901004E+02 -0.26940431780E+03  0.28379227372E+03  0.81706124195E+02 0.  0.
        -13    1    3    3    0    0  0.38817714422E+02 -0.22237953447E+02 -0.67096695381E+02  0.80643090575E+02  0.00000000000E+00 0.  1.
         14    1    3    3    0    0 -0.17320160318E+02 -0.64209475575E+01 -0.20230762242E+03  0.20314918314E+03  0.00000000000E+00 0. -1.
         21    1    1    2  502  501 -0.21497554104E+02  0.28658901004E+02 -0.18098572470E+03  0.18449745251E+03  0.00000000000E+00 0. -1.
<mgrwt>
<rscale>  1 0.89215291E+02</rscale>
<asrwt>0</asrwt>
<pdfrwt beam="1">  1        2 0.70667693E-01 0.89215291E+02</pdfrwt>
<pdfrwt beam="2">  1       -1 0.13768984E-02 0.89215291E+02</pdfrwt>
<totfact> 0.80051979E+04</totfact>
</mgrwt>
</event>
<event>
 6    2  0.1063641E+001  0.8483213E+02  0.7546771E-02  0.1315872E+00
          4   -1    0    0  502    0  0.00000000000E+00  0.00000000000E+00  0.54671876809E+02  0.54671876809E+02  0.00000000000E+00 0. -1.
         -3   -1    0    0    0  501 -0.00000000000E+00 -0.00000000000E+00 -0.25391799460E+03  0.25391799460E+03  0.00000000000E+00 0.  1.
         24    2    1    2    0    0 -0.22757890841E+02  0.12593257990E+02 -0.24317008055E+03  0.25754257719E+03  0.80746388434E+02 0.  0.
        -11    1    3    3    0    0 -0.48227185628E+02  0.24505408264E+02 -0.12744585078E+03  0.13845151263E+03  0.00000000000E+00 0.  1.
         12    1    3    3    0    0  0.25469294787E+02 -0.11912150274E+02 -0.11572422977E+03  0.11909106456E+03  0.00000000000E+00 0. -1.
         21    1    1    2  502  501  0.22757890841E+02 -0.12593257990E+02  0.43923962764E+02  0.51047294220E+02  0.00000000000E+00 0.  1.
<mgrwt>
<rscale>  1 0.84832134E+02</rscale>
<asrwt>0</asrwt>
<pdfrwt beam="1">  1        4 0.84110578E-02 0.84832134E+02</pdfrwt>
<pdfrwt beam="2">  1       -3 0.39064308E-01 0.84832134E+02</pdfrwt>
<totfact> 0.11701252E+03</totfact>
</mgrwt>
</event>
<event>
 6    2  0.1063641E+001  0.8594002E+02  0.7546771E-02  0.1312992E+00
          2   -1    0    0  502    0  0.00000000000E+00  0.00000000000E+00  0.49522043542E+02  0.49522043542E+02  0.00000000000E+00 0. -1.
         -1   -1    0    0    0  501 -0.00000000000E+00 -0.00000000000E+00 -0.59559353448E+02  0.59559353448E+02  0.00000000000E+00 0.  1.
         24    2    1    2    0    0  0.16152238854E+02  0.15725515800E+02 -0.10156415638E+02  0.86538086378E+02  0.82930699673E+02 0.  0.
        -11    1    3    3    0    0  0.99226464110E+01  0.40145409179E+02 -0.32703537808E+02  0.52722236060E+02  0.00000000000E+00 0.  1.
         12    1    3    3    0    0  0.62295924427E+01 -0.24419893379E+02  0.22547122169E+02  0.33815850319E+02  0.00000000000E+00 0. -1.
         21    1    1    2  502  501 -0.16152238854E+02 -0.15725515800E+02  0.11910573247E+00  0.22543310612E+02  0.00000000000E+00 0. -1.
<mgrwt>
<rscale>  1 0.85940023E+02</rscale>
<asrwt>0</asrwt>
<pdfrwt beam="1">  1        2 0.76187760E-02 0.85940023E+02</pdfrwt>
<pdfrwt beam="2">  1       -1 0.91629774E-02 0.85940023E+02</pdfrwt>
<totfact> 0.61104986E+04</totfact>
</mgrwt>
</event>
<event>
 6    2  0.1063641E+001  0.8676847E+02  0.7546771E-02  0.1310872E+00
          2   -1    0    0  502    0  0.00000000000E+00  0.00000000000E+00  0.91859024226E+03  0.91859024226E+03  0.00000000000E+00 0. -1.
         -1   -1    0    0    0  501 -0.00000000000E+00 -0.00000000000E+00 -0.15678237841E+02  0.15678237841E+02  0.00000000000E+00 0.  1.
         24    2    1    2    0    0  0.11003494784E+02 -0.36735848291E+02  0.10848473951E+03  0.13891618163E+03  0.77834230039E+02 0.  0.
        -13    1    3    3    0    0 -0.26033923602E+01 -0.10132925943E+02 -0.11335939267E+02  0.15425866556E+02  0.00000000000E+00 0.  1.
         14    1    3    3    0    0  0.13606887145E+02 -0.26602922348E+02  0.11982067878E+03  0.12349031508E+03  0.00000000000E+00 0. -1.
         21    1    1    2  502  501 -0.11003494784E+02  0.36735848291E+02  0.79442726491E+03  0.79535229847E+03  0.00000000000E+00 0. -1.
<mgrwt>
<rscale>  1 0.86768467E+02</rscale>
<asrwt>0</asrwt>
<pdfrwt beam="1">  1        2 0.14132153E+00 0.86768467E+02</pdfrwt>
<pdfrwt beam="2">  1       -1 0.24120373E-02 0.86768467E+02</pdfrwt>
<totfact> 0.16160065E+04</totfact>
</mgrwt>
</event>
<event>
 6    2  0.1063641E+001  0.8189722E+02  0.7546771E-02  0.1323752E+00
          2   -1    0    0  502    0  0.00000000000E+00  0.00000000000E+00  0.13070808290E+03  0.13070808290E+03  0.00000000000E+00 0. -1.
         -1   -1    0    0    0  501 -0.00000000000E+00 -0.00000000000E+00 -0.33383837547E+02  0.33383837547E+02  0.00000000000E+00 0.  1.
         24    2    1    2    0    0  0.21172779487E+02 -0.12526162426E+01  0.20542089690E+02  0.84434183429E+02  0.79103086184E+02 0.  0.
        -13    1    3    3    0    0  0.78303971271E+01 -0.15725687259E+02 -0.27434064839E+02  0.32576682958E+02  0.00000000000E+00 0.  1.
         14    1    3    3    0    0  0.13342382360E+02  0.14473071016E+02  0.47976154530E+02  0.51857500471E+02  0.00000000000E+00 0. -1.
         21    1    1    2  502  501 -0.21172779487E+02  0.12526162426E+01  0.76782155659E+02  0.79657737015E+02  0.00000000000E+00 0. -1.
<mgrwt>
<rscale>  1 0.81897215E+02</rscale>
<asrwt>0</asrwt>
<pdfrwt beam="1">  1        2 0.20108936E-01 0.81897215E+02</pdfrwt>
<pdfrwt beam="2">  1       -1 0.51359751E-02 0.81897215E+02</pdfrwt>
<totfact> 0.45484689E+04</totfact>
</mgrwt>
</event>
<event>
 6    2  0.1063641E+001  0.8347152E+02  0.7546771E-02  0.1319479E+00
         -1   -1    0    0    0  501 -0.00000000000E+00  0.00000000000E+00  0.55879524437E+02  0.55879524437E+02  0.00000000000E+00 0.  1.
          2   -1    0    0  502    0  0.00000000000E+00 -0.00000000000E+00 -0.81777672457E+02  0.81777672457E+02  0.00000000000E+00 0. -1.
         24    2    1    2    0    0 -0.45076471840E+01  0.21863357106E+02  0.20689517687E+02  0.85997387921E+02  0.80431146455E+02 0.  0.
        -11    1    3    3    0    0  0.30204188026E+02  0.32986695043E+02  0.21306344919E+02  0.49541652758E+02  0.00000000000E+00 0.  1.
         12    1    3    3    0    0 -0.34711835210E+02 -0.11123337937E+02 -0.61682723248E+00  0.36455735163E+02  0.00000000000E+00 0. -1.
         21    1    1    2  502  501  0.45076471840E+01 -0.21863357106E+02 -0.46587665706E+02  0.51659808972E+02  0.00000000000E+00 0. -1.
<mgrwt>
<rscale>  1 0.83471520E+02</rscale>
<asrwt>0</asrwt>
<pdfrwt beam="1">  1        2 0.12581180E-01 0.83471520E+02</pdfrwt>
<pdfrwt beam="2">  1       -1 0.85968499E-02 0.83471520E+02</pdfrwt>
<totfact> 0.36464523E+04</totfact>
</mgrwt>
</event>
<event>
 6    2  0.1063641E+001  0.8807810E+02  0.7546771E-02  0.1307574E+00
         -1   -1    0    0    0  501 -0.00000000000E+00  0.00000000000E+00  0.25730533393E+01  0.25730533393E+01  0.00000000000E+00 0.  1.
          2   -1    0    0  502    0  0.00000000000E+00 -0.00000000000E+00 -0.17612368511E+04  0.17612368511E+04  0.00000000000E+00 0. -1.
         24    2    1    2    0    0 -0.31454569980E+02 -0.25168301439E+02 -0.92818209099E+03  0.93235172831E+03  0.78325716593E+02 0.  0.
        -13    1    3    3    0    0 -0.52863681313E+02  0.20794885559E+01 -0.51015924401E+03  0.51289506463E+03  0.00000000000E+00 0.  1.
         14    1    3    3    0    0  0.21409111333E+02 -0.27247789995E+02 -0.41802284697E+03  0.41945666367E+03  0.00000000000E+00 0. -1.
         21    1    1    2  502  501  0.31454569980E+02  0.25168301439E+02 -0.83048170676E+03  0.83145817612E+03  0.00000000000E+00 0.  1.
<mgrwt>
<rscale>  1 0.88078097E+02</rscale>
<asrwt>0</asrwt>
<pdfrwt beam="1">  1        2 0.27096028E+00 0.88078097E+02</pdfrwt>
<pdfrwt beam="2">  1       -1 0.39585324E-03 0.88078097E+02</pdfrwt>
<totfact> 0.73413211E+04</totfact>
</mgrwt>
</event>
<event>
 6    2  0.1063641E+001  0.8173910E+02  0.7546771E-02  0.1324187E+00
         -1   -1    0    0    0  501 -0.00000000000E+00  0.00000000000E+00  0.26979224839E+01  0.26979224839E+01  0.00000000000E+00 0.  1.
          2   -1    0    0  502    0  0.00000000000E+00 -0.00000000000E+00 -0.10813274559E+04  0.10813274559E+04  0.00000000000E+00 0. -1.
         24    2    1    2    0    0 -0.25358600065E+02  0.45190153993E+01 -0.86319252285E+03  0.86705398484E+03  0.77574486880E+02 0.  0.
        -11    1    3    3    0    0 -0.41041623140E+02  0.14935201754E+02 -0.26575381044E+03  0.26931870125E+03  0.00000000000E+00 0.  1.
         12    1    3    3    0    0  0.15683023074E+02 -0.10416186355E+02 -0.59743871241E+03  0.59773528358E+03  0.00000000000E+00 0. -1.
         21    1    1    2  502  501  0.25358600065E+02 -0.45190153993E+01 -0.21543701060E+03  0.21697139358E+03  0.00000000000E+00 0. -1.
<mgrwt>
<rscale>  1 0.81739104E+02</rscale>
<asrwt>0</asrwt>
<pdfrwt beam="1">  1        2 0.16635815E+00 0.81739104E+02</pdfrwt>
<pdfrwt beam="2">  1       -1 0.41506480E-03 0.81739104E+02</pdfrwt>
<totfact> 0.15380909E+05</totfact>
</mgrwt>
</event>
<event>
 6    2  0.1063641E+001  0.8805377E+02  0.7546771E-02  0.1307634E+00
         -1   -1    0    0    0  501 -0.00000000000E+00  0.00000000000E+00  0.35758478248E+02  0.35758478248E+02  0.00000000000E+00 0.  1.
          2   -1    0    0  502    0  0.00000000000E+00 -0.00000000000E+00 -0.41665470445E+03  0.41665470445E+03  0.00000000000E+00 0. -1.
         24    2    1    2    0    0  0.11189364755E+02  0.34502208436E+02 -0.20776836185E+02  0.90471779516E+02  0.80236286657E+02 0.  0.
        -11    1    3    3    0    0  0.15637169848E+01 -0.24382638437E+02  0.58661880239E+01  0.25127085583E+02  0.00000000000E+00 0.  1.
         12    1    3    3    0    0  0.96256477704E+01  0.58884846873E+02 -0.26643024208E+02  0.65344693933E+02  0.00000000000E+00 0. -1.
         21    1    1    2  502  501 -0.11189364755E+02 -0.34502208436E+02 -0.36011939001E+03  0.36194140318E+03  0.00000000000E+00 0. -1.
<mgrwt>
<rscale>  1 0.88053767E+02</rscale>
<asrwt>0</asrwt>
<pdfrwt beam="1">  1        2 0.64100726E-01 0.88053767E+02</pdfrwt>
<pdfrwt beam="2">  1       -1 0.55013041E-02 0.88053767E+02</pdfrwt>
<totfact> 0.12094635E+04</totfact>
</mgrwt>
</event>
<event>
 6    2  0.1063641E+001  0.8275039E+02  0.7546771E-02  0.1321423E+00
         -1   -1    0    0    0  501 -0.00000000000E+00  0.00000000000E+00  0.66927064003E+02  0.66927064003E+02  0.00000000000E+00 0.  1.
          2   -1    0    0  502    0  0.00000000000E+00 -0.00000000000E+00 -0.60210214211E+02  0.60210214211E+02  0.00000000000E+00 0. -1.
         24    2    1    2    0    0 -0.18253875521E+02 -0.92015468625E+01  0.36963459637E+02  0.90630705610E+02  0.80185753191E+02 0.  0.
        -13    1    3    3    0    0 -0.16804830856E+02  0.33250313767E+02  0.52555263095E+01  0.37624543352E+02  0.00000000000E+00 0.  1.
         14    1    3    3    0    0 -0.14490446643E+01 -0.42451860629E+02  0.31707933328E+02  0.53006162257E+02  0.00000000000E+00 0. -1.
         21    1    1    2  502  501  0.18253875521E+02  0.92015468625E+01 -0.30246609845E+02  0.36506572605E+02  0.00000000000E+00 0.  1.
<mgrwt>
<rscale>  1 0.82750392E+02</rscale>
<asrwt>0</asrwt>
<pdfrwt beam="1">  1        2 0.92631099E-02 0.82750392E+02</pdfrwt>
<pdfrwt beam="2">  1       -1 0.10296471E-01 0.82750392E+02</pdfrwt>
<totfact> 0.40094075E+04</totfact>
</mgrwt>
</event>
<event>
 6    2  0.1063641E+001  0.8846426E+02  0.7546771E-02  0.1306614E+00
          2   -1    0    0  502    0  0.00000000000E+00  0.00000000000E+00  0.86135142196E+02  0.86135142196E+02  0.00000000000E+00 0. -1.
         -1   -1    0    0    0  501 -0.00000000000E+00 -0.00000000000E+00 -0.69728893831E+02  0.69728893831E+02  0.00000000000E+00 0.  1.
         24    2    1    2    0    0  0.35928830073E+02 -0.17923990407E+02 -0.31000496467E+02  0.93738761637E+02  0.78827497673E+02 0.  0.
        -13    1    3    3    0    0  0.50649455176E+02 -0.34737752467E+02 -0.35505918973E+02  0.70941870840E+02  0.00000000000E+00 0.  1.
         14    1    3    3    0    0 -0.14720625103E+02  0.16813762060E+02  0.45054225065E+01  0.22796890797E+02  0.00000000000E+00 0. -1.
         21    1    1    2  502  501 -0.35928830073E+02  0.17923990407E+02  0.47406744831E+02  0.62125274390E+02  0.00000000000E+00 0. -1.
<mgrwt>
<rscale>  1 0.88464256E+02</rscale>
<asrwt>0</asrwt>
<pdfrwt beam="1">  1        2 0.13251560E-01 0.88464256E+02</pdfrwt>
<pdfrwt beam="2">  1       -1 0.10727522E-01 0.88464256E+02</pdfrwt>
<totfact> 0.24768289E+04</totfact>
</mgrwt>
</event>
<event>
 6    2  0.1063641E+001  0.9230306E+02  0.7546771E-02  0.1297368E+00
         -1   -1    0    0    0  501 -0.00000000000E+00  0.00000000000E+00  0.12404070924E+02  0.12404070924E+02  0.00000000000E+00 0.  1.
          2   -1    0    0  502    0  0.00000000000E+00 -0.00000000000E+00 -0.56752924250E+03  0.56752924250E+03  0.00000000000E+00 0. -1.
         24    2    1    2    0    0 -0.30266062197E+01  0.43211841399E+02 -0.17972235950E+03  0.20203955204E+03  0.81507242011E+02 0.  0.
        -11    1    3    3    0    0  0.37804582042E+02  0.11409074737E+02 -0.62931612650E+02  0.74294961340E+02  0.00000000000E+00 0.  1.
         12    1    3    3    0    0 -0.40831188262E+02  0.31802766663E+02 -0.11679074685E+03  0.12774459070E+03  0.00000000000E+00 0. -1.
         21    1    1    2  502  501  0.30266062197E+01 -0.43211841399E+02 -0.37540281207E+03  0.37789376139E+03  0.00000000000E+00 0. -1.
<mgrwt>
<rscale>  1 0.92303056E+02</rscale>
<asrwt>0</asrwt>
<pdfrwt beam="1">  1        2 0.87312167E-01 0.92303056E+02</pdfrwt>
<pdfrwt beam="2">  1       -1 0.19083191E-02 0.92303056E+02</pdfrwt>
<totfact> 0.40193204E+04</totfact>
</mgrwt>
</event>
<event>
 6    2  0.1063641E+001  0.8065755E+02  0.7546771E-02  0.1327196E+00
         -1   -1    0    0    0  501 -0.00000000000E+00  0.00000000000E+00  0.41406170351E+01  0.41406170351E+01  0.00000000000E+00 0.  1.
          2   -1    0    0  502    0  0.00000000000E+00 -0.00000000000E+00 -0.15856698656E+04  0.15856698656E+04  0.00000000000E+00 0. -1.
         24    2    1    2    0    0  0.10169332507E+01  0.35850331730E+02 -0.41698941654E+03  0.42471851167E+03  0.72245139692E+02 0.  0.
        -11    1    3    3    0    0  0.25652548910E+01  0.36819096264E+02 -0.84318436304E+02  0.92042517800E+02  0.00000000000E+00 0.  1.
         12    1    3    3    0    0 -0.15483216403E+01 -0.96876453437E+00 -0.33267098024E+03  0.33267599387E+03  0.00000000000E+00 0. -1.
         21    1    1    2  502  501 -0.10169332507E+01 -0.35850331730E+02 -0.11645398321E+04  0.11650919710E+04  0.00000000000E+00 0. -1.
<mgrwt>
<rscale>  1 0.80657552E+02</rscale>
<asrwt>0</asrwt>
<pdfrwt beam="1">  1        2 0.24394946E+00 0.80657552E+02</pdfrwt>
<pdfrwt beam="2">  1       -1 0.63701735E-03 0.80657552E+02</pdfrwt>
<totfact> 0.45881937E+04</totfact>
</mgrwt>
</event>
<event>
 6    2  0.1063641E+001  0.8321594E+02  0.7546771E-02  0.1320165E+00
          2   -1    0    0  502    0  0.00000000000E+00  0.00000000000E+00  0.60279124194E+02  0.60279124194E+02  0.00000000000E+00 0. -1.
         -1   -1    0    0    0  501 -0.00000000000E+00 -0.00000000000E+00 -0.46429343463E+02  0.46429343463E+02  0.00000000000E+00 0.  1.
         24    2    1    2    0    0 -0.22017544627E+02  0.23935363730E+01  0.14886371676E+02  0.84536958720E+02  0.80214662252E+02 0.  0.
        -11    1    3    3    0    0  0.75240178917E+01  0.30559836706E+02 -0.14087720700E+02  0.34481565209E+02  0.00000000000E+00 0.  1.
         12    1    3    3    0    0 -0.29541562519E+02 -0.28166300333E+02  0.28974092376E+02  0.50055393511E+02  0.00000000000E+00 0. -1.
         21    1    1    2  502  501  0.22017544627E+02 -0.23935363730E+01 -0.10365909451E+01  0.22171508938E+02  0.00000000000E+00 0. -1.
<mgrwt>
<rscale>  1 0.83215944E+02</rscale>
<asrwt>0</asrwt>
<pdfrwt beam="1">  1        2 0.92737114E-02 0.83215944E+02</pdfrwt>
<pdfrwt beam="2">  1       -1 0.71429759E-02 0.83215944E+02</pdfrwt>
<totfact> 0.69194152E+04</totfact>
</mgrwt>
</event>
<event>
 6    2  0.1063641E+001  0.9254032E+02  0.7546771E-02  0.1296814E+00
          2   -1    0    0  502    0  0.00000000000E+00  0.00000000000E+00  0.14710080264E+03  0.14710080264E+03  0.00000000000E+00 0. -1.
         -1   -1    0    0    0  501 -0.00000000000E+00 -0.00000000000E+00 -0.19185945931E+03  0.19185945931E+03  0.00000000000E+00 0.  1.
         24    2    1    2    0    0 -0.45942718855E+02 -0.12169376725E+02 -0.17629161147E+03  0.19910410247E+03  0.79403300938E+02 0.  0.
        -13    1    3    3    0    0 -0.26457527074E+02 -0.10876798962E+02 -0.17725876322E+03  0.17955215018E+03  0.00000000000E+00 0.  1.
         14    1    3    3    0    0 -0.19485191780E+02 -0.12925777624E+01  0.96715174964E+00  0.19551952293E+02  0.00000000000E+00 0. -1.
         21    1    1    2  502  501  0.45942718855E+02  0.12169376725E+02  0.13153295480E+03  0.13985615948E+03  0.00000000000E+00 0. -1.
<mgrwt>
<rscale>  1 0.92540323E+02</rscale>
<asrwt>0</asrwt>
<pdfrwt beam="1">  1        2 0.22630893E-01 0.92540323E+02</pdfrwt>
<pdfrwt beam="2">  1       -1 0.29516840E-01 0.92540323E+02</pdfrwt>
<totfact> 0.27438368E+03</totfact>
</mgrwt>
</event>
<event>
 6    2  0.1063641E+001  0.1001601E+03  0.7546771E-02  0.1279960E+00
          2   -1    0    0  502    0  0.00000000000E+00  0.00000000000E+00  0.98053578482E+03  0.98053578482E+03  0.00000000000E+00 0. -1.
         -1   -1    0    0    0  501 -0.00000000000E+00 -0.00000000000E+00 -0.60106090310E+01  0.60106090310E+01  0.00000000000E+00 0.  1.
         24    2    1    2    0    0  0.30506874342E+02 -0.43711154159E+02  0.62115438371E+03  0.62917788506E+03  0.84798044010E+02 0.  0.
        -11    1    3    3    0    0  0.89191915952E+01 -0.30179061210E+01  0.38750475633E+01  0.10182127955E+02  0.00000000000E+00 0.  1.
         12    1    3    3    0    0  0.21587682747E+02 -0.40693248038E+02  0.61727933614E+03  0.61899575710E+03  0.00000000000E+00 0. -1.
         21    1    1    2  502  501 -0.30506874342E+02  0.43711154159E+02  0.35337079208E+03  0.35736850880E+03  0.00000000000E+00 0.  1.
<mgrwt>
<rscale>  1 0.10016009E+03</rscale>
<asrwt>0</asrwt>
<pdfrwt beam="1">  1        2 0.15085153E+00 0.10016009E+03</pdfrwt>
<pdfrwt beam="2">  1       -1 0.92470986E-03 0.10016009E+03</pdfrwt>
<totfact> 0.58708310E+04</totfact>
</mgrwt>
</event>
<event>
 6    2  0.1063641E+001  0.8499815E+02  0.7546771E-02  0.1315437E+00
          4   -1    0    0  502    0  0.00000000000E+00  0.00000000000E+00  0.41872077133E+02  0.41872077133E+02  0.00000000000E+00 0. -1.
         -3   -1    0    0    0  501 -0.00000000000E+00 -0.00000000000E+00 -0.76994119529E+02  0.76994119529E+02  0.00000000000E+00 0.  1.
         24    2    1    2    0    0  0.19043630013E+01 -0.27584256062E+02 -0.19874441104E+02  0.87290777012E+02  0.80375173787E+02 0.  0.
        -13    1    3    3    0    0  0.31991178446E+02 -0.55076502757E+01  0.15409603579E+02  0.35933627599E+02  0.00000000000E+00 0.  1.
         14    1    3    3    0    0 -0.30086815445E+02 -0.22076605787E+02 -0.35284044683E+02  0.51357149413E+02  0.00000000000E+00 0. -1.
         21    1    1    2  502  501 -0.19043630013E+01  0.27584256062E+02 -0.15247601292E+02  0.31575419651E+02  0.00000000000E+00 0.  1.
<mgrwt>
<rscale>  1 0.84998155E+02</rscale>
<asrwt>0</asrwt>
<pdfrwt beam="1">  1        4 0.64418580E-02 0.84998155E+02</pdfrwt>
<pdfrwt beam="2">  1       -3 0.11845249E-01 0.84998155E+02</pdfrwt>
<totfact> 0.14821689E+04</totfact>
</mgrwt>
</event>
<event>
 6    2  0.1063641E+001  0.9446889E+02  0.7546771E-02  0.1292377E+00
          2   -1    0    0  502    0  0.00000000000E+00  0.00000000000E+00  0.16442943589E+03  0.16442943589E+03  0.00000000000E+00 0. -1.
         -1   -1    0    0    0  501 -0.00000000000E+00 -0.00000000000E+00 -0.43755512716E+02  0.43755512716E+02  0.00000000000E+00 0.  1.
         24    2    1    2    0    0 -0.21025220853E+02 -0.43902726634E+02  0.20292806669E+02  0.96623853826E+02  0.80962101059E+02 0.  0.
        -13    1    3    3    0    0  0.45575519687E+00  0.20334452771E+02 -0.97150939274E+01  0.22540646227E+02  0.00000000000E+00 0.  1.
         14    1    3    3    0    0 -0.21480976050E+02 -0.64237179405E+02  0.30007900597E+02  0.74083207599E+02  0.00000000000E+00 0. -1.
         21    1    1    2  502  501  0.21025220853E+02  0.43902726634E+02  0.10038111651E+03  0.11156109478E+03  0.00000000000E+00 0.  1.
<mgrwt>
<rscale>  1 0.94468890E+02</rscale>
<asrwt>0</asrwt>
<pdfrwt beam="1">  1        2 0.25296836E-01 0.94468890E+02</pdfrwt>
<pdfrwt beam="2">  1       -1 0.67316174E-02 0.94468890E+02</pdfrwt>
<totfact> 0.24155841E+04</totfact>
</mgrwt>
</event>
<event>
 6    2  0.1063641E+001  0.8482351E+02  0.7546771E-02  0.1315895E+00
         -1   -1    0    0    0  501 -0.00000000000E+00  0.00000000000E+00  0.76006643138E+01  0.76006643138E+01  0.00000000000E+00 0.  1.
          2   -1    0    0  502    0  0.00000000000E+00 -0.00000000000E+00 -0.39416795427E+03  0.39416795427E+03  0.00000000000E+00 0. -1.
         24    2    1    2    0    0  0.19747337005E+02  0.10491686563E+02 -0.33479993151E+03  0.34537808564E+03  0.81822949666E+02 0.  0.
        -11    1    3    3    0    0  0.44339031616E+02  0.37953518405E+01 -0.10327855173E+03  0.11245805293E+03  0.00000000000E+00 0.  1.
         12    1    3    3    0    0 -0.24591694611E+02  0.66963347220E+01 -0.23152137978E+03  0.23292003271E+03  0.00000000000E+00 0. -1.
         21    1    1    2  502  501 -0.19747337005E+02 -0.10491686563E+02 -0.51767358440E+02  0.56390532943E+02  0.00000000000E+00 0. -1.
<mgrwt>
<rscale>  1 0.84823510E+02</rscale>
<asrwt>0</asrwt>
<pdfrwt beam="1">  1        2 0.60641246E-01 0.84823510E+02</pdfrwt>
<pdfrwt beam="2">  1       -1 0.11693325E-02 0.84823510E+02</pdfrwt>
<totfact> 0.11767857E+05</totfact>
</mgrwt>
</event>
<event>
 6    2  0.1063641E+001  0.8290529E+02  0.7546771E-02  0.1321003E+00
          2   -1    0    0  502    0  0.00000000000E+00  0.00000000000E+00  0.11221622394E+04  0.11221622394E+04  0.00000000000E+00 0. -1.
         -1   -1    0    0    0  501 -0.00000000000E+00 -0.00000000000E+00 -0.31384169632E+01  0.31384169632E+01  0.00000000000E+00 0.  1.
         24    2    1    2    0    0  0.19205763907E+02 -0.91840660535E+01  0.58420243978E+03  0.59005574066E+03  0.80125389280E+02 0.  0.
        -11    1    3    3    0    0  0.37615337741E+02  0.18966103500E+02  0.43861582153E+03  0.44063416301E+03  0.00000000000E+00 0.  1.
         12    1    3    3    0    0 -0.18409573833E+02 -0.28150169554E+02  0.14558661825E+03  0.14942157765E+03  0.00000000000E+00 0. -1.
         21    1    1    2  502  501 -0.19205763907E+02  0.91840660535E+01  0.53482138270E+03  0.53524491574E+03  0.00000000000E+00 0. -1.
<mgrwt>
<rscale>  1 0.82905286E+02</rscale>
<asrwt>0</asrwt>
<pdfrwt beam="1">  1        2 0.17264002E+00 0.82905286E+02</pdfrwt>
<pdfrwt beam="2">  1       -1 0.48283427E-03 0.82905286E+02</pdfrwt>
<totfact> 0.11844405E+05</totfact>
</mgrwt>
</event>
<event>
 6    2  0.1063641E+001  0.8307353E+02  0.7546771E-02  0.1320549E+00
          2   -1    0    0  502    0  0.00000000000E+00  0.00000000000E+00  0.15301197068E+04  0.15301197068E+04  0.00000000000E+00 0. -1.
         -1   -1    0    0    0  501 -0.00000000000E+00 -0.00000000000E+00 -0.22080949659E+01  0.22080949659E+01  0.00000000000E+00 0.  1.
         24    2    1    2    0    0  0.16947629225E+02 -0.12038621812E+02  0.83902599099E+03  0.84312859315E+03  0.80430469837E+02 0.  0.
        -13    1    3    3    0    0  0.12651144413E+02  0.75947248509E+01  0.26319409283E+02  0.30173541482E+02  0.00000000000E+00 0.  1.
         14    1    3    3    0    0  0.42964848114E+01 -0.19633346663E+02  0.81270658171E+03  0.81295505167E+03  0.00000000000E+00 0. -1.
         21    1    1    2  502  501 -0.16947629225E+02  0.12038621812E+02  0.68888562081E+03  0.68919920858E+03  0.00000000000E+00 0. -1.
<mgrwt>
<rscale>  1 0.83073528E+02</rscale>
<asrwt>0</asrwt>
<pdfrwt beam="1">  1        2 0.23540219E+00 0.83073528E+02</pdfrwt>
<pdfrwt beam="2">  1       -1 0.33970814E-03 0.83073528E+02</pdfrwt>
<totfact> 0.11794236E+05</totfact>
</mgrwt>
</event>
<event>
 6    2  0.1063641E+001  0.7885872E+02  0.7546771E-02  0.1332322E+00
         -1   -1    0    0    0  501 -0.00000000000E+00  0.00000000000E+00  0.44326784989E+01  0.44326784989E+01  0.00000000000E+00 0.  1.
          2   -1    0    0  502    0  0.00000000000E+00 -0.00000000000E+00 -0.61812420850E+03  0.61812420850E+03  0.00000000000E+00 0. -1.
         24    2    1    2    0    0 -0.15710211755E+02  0.16191471164E+02 -0.40162562746E+03  0.40929432228E+03  0.75562709868E+02 0.  0.
        -11    1    3    3    0    0 -0.29585777438E+02  0.24705902684E+02 -0.99116314255E+02  0.10634727832E+03  0.00000000000E+00 0.  1.
         12    1    3    3    0    0  0.13875565683E+02 -0.85144315203E+01 -0.30250931321E+03  0.30294704396E+03  0.00000000000E+00 0. -1.
         21    1    1    2  502  501  0.15710211755E+02 -0.16191471164E+02 -0.21206590254E+03  0.21326256472E+03  0.00000000000E+00 0.  1.
<mgrwt>
<rscale>  1 0.78858719E+02</rscale>
<asrwt>0</asrwt>
<pdfrwt beam="1">  1        2 0.95096025E-01 0.78858719E+02</pdfrwt>
<pdfrwt beam="2">  1       -1 0.68195059E-03 0.78858719E+02</pdfrwt>
<totfact> 0.15280009E+05</totfact>
</mgrwt>
</event>
<event>
 6    2  0.1063641E+001  0.8480345E+02  0.7546771E-02  0.1315947E+00
         -1   -1    0    0    0  501 -0.00000000000E+00  0.00000000000E+00  0.15327993087E+02  0.15327993087E+02  0.00000000000E+00 0.  1.
          2   -1    0    0  502    0  0.00000000000E+00 -0.00000000000E+00 -0.28465330256E+03  0.28465330256E+03  0.00000000000E+00 0. -1.
         24    2    1    2    0    0 -0.20108737656E+02 -0.12515995457E+02 -0.10994560172E+03  0.13885121554E+03  0.81428577580E+02 0.  0.
        -13    1    3    3    0    0  0.17638561247E+01  0.60544190790E+00  0.13078510178E+02  0.13210797736E+02  0.00000000000E+00 0.  1.
         14    1    3    3    0    0 -0.21872593781E+02 -0.13121437365E+02 -0.12302411190E+03  0.12564041781E+03  0.00000000000E+00 0. -1.
         21    1    1    2  502  501  0.20108737656E+02  0.12515995457E+02 -0.15937970775E+03  0.16113008010E+03  0.00000000000E+00 0. -1.
<mgrwt>
<rscale>  1 0.84803448E+02</rscale>
<asrwt>0</asrwt>
<pdfrwt beam="1">  1        2 0.43792813E-01 0.84803448E+02</pdfrwt>
<pdfrwt beam="2">  1       -1 0.23581529E-02 0.84803448E+02</pdfrwt>
<totfact> 0.61079721E+04</totfact>
</mgrwt>
</event>
<event>
 6    2  0.1063641E+001  0.8647466E+02  0.7546771E-02  0.1311621E+00
         -1   -1    0    0    0  501 -0.00000000000E+00  0.00000000000E+00  0.14825907398E+03  0.14825907398E+03  0.00000000000E+00 0.  1.
          2   -1    0    0  502    0  0.00000000000E+00 -0.00000000000E+00 -0.36031783448E+02  0.36031783448E+02  0.00000000000E+00 0. -1.
         24    2    1    2    0    0  0.23371774211E+02  0.67886857968E+01  0.12859136453E+03  0.15496324241E+03  0.82979162345E+02 0.  0.
        -13    1    3    3    0    0  0.23363691976E+02 -0.25344138741E+02  0.11503391224E+03  0.12008741998E+03  0.00000000000E+00 0.  1.
         14    1    3    3    0    0  0.80822351629E-02  0.32132824538E+02  0.13557452287E+02  0.34875822436E+02  0.00000000000E+00 0. -1.
         21    1    1    2  502  501 -0.23371774211E+02 -0.67886857968E+01 -0.16364073997E+02  0.29327615014E+02  0.00000000000E+00 0. -1.
<mgrwt>
<rscale>  1 0.86474664E+02</rscale>
<asrwt>0</asrwt>
<pdfrwt beam="1">  1        2 0.55433514E-02 0.86474664E+02</pdfrwt>
<pdfrwt beam="2">  1       -1 0.22809088E-01 0.86474664E+02</pdfrwt>
<totfact> 0.22279261E+04</totfact>
</mgrwt>
</event>
<event>
 6    2  0.1063641E+001  0.9597809E+02  0.7546771E-02  0.1288988E+00
          2   -1    0    0  502    0  0.00000000000E+00  0.00000000000E+00  0.15264205957E+03  0.15264205957E+03  0.00000000000E+00 0. -1.
         -1   -1    0    0    0  501 -0.00000000000E+00 -0.00000000000E+00 -0.37722608209E+02  0.37722608209E+02  0.00000000000E+00 0.  1.
         24    2    1    2    0    0  0.38366705772E+02 -0.22862834733E+02  0.41802963158E+02  0.10468658324E+03  0.84953396972E+02 0.  0.
        -13    1    3    3    0    0  0.47334001127E+02 -0.12288556632E+02 -0.10973629361E+02  0.50119226133E+02  0.00000000000E+00 0.  1.
         14    1    3    3    0    0 -0.89672953552E+01 -0.10574278102E+02  0.52776592518E+02  0.54567357103E+02  0.00000000000E+00 0. -1.
         21    1    1    2  502  501 -0.38366705772E+02  0.22862834733E+02  0.73116488201E+02  0.85678084541E+02  0.00000000000E+00 0. -1.
<mgrwt>
<rscale>  1 0.95978086E+02</rscale>
<asrwt>0</asrwt>
<pdfrwt beam="1">  1        2 0.23483394E-01 0.95978086E+02</pdfrwt>
<pdfrwt beam="2">  1       -1 0.58034783E-02 0.95978086E+02</pdfrwt>
<totfact> 0.32686828E+04</totfact>
</mgrwt>
</event>
<event>
 6    2  0.1063641E+001  0.9564960E+02  0.7546771E-02  0.1289720E+00
         -1   -1    0    0    0  501 -0.00000000000E+00  0.00000000000E+00  0.16740426118E+02  0.16740426118E+02  0.00000000000E+00 0.  1.
          2   -1    0    0  502    0  0.00000000000E+00 -0.00000000000E+00 -0.55027994284E+03  0.55027994284E+03  0.00000000000E+00 0. -1.
         24    2    1    2    0    0  0.50816405896E+02 -0.87689265094E+01 -0.13667705391E+03  0.16682164886E+03  0.80558328444E+02 0.  0.
        -11    1    3    3    0    0 -0.92388783690E+00 -0.12349900422E+02  0.68912250778E+01  0.14172600052E+02  0.00000000000E+00 0.  1.
         12    1    3    3    0    0  0.51740293733E+02  0.35809739122E+01 -0.14356827899E+03  0.15264904880E+03  0.00000000000E+00 0. -1.
         21    1    1    2  502  501 -0.50816405896E+02  0.87689265094E+01 -0.39686246282E+03  0.40019872010E+03  0.00000000000E+00 0. -1.
<mgrwt>
<rscale>  1 0.95649597E+02</rscale>
<asrwt>0</asrwt>
<pdfrwt beam="1">  1        2 0.84658442E-01 0.95649597E+02</pdfrwt>
<pdfrwt beam="2">  1       -1 0.25754505E-02 0.95649597E+02</pdfrwt>
<totfact> 0.27179956E+04</totfact>
</mgrwt>
</event>
<event>
 6    2  0.1063641E+001  0.1233230E+03  0.7546771E-02  0.1237714E+00
         -1   -1    0    0    0  501 -0.00000000000E+00  0.00000000000E+00  0.24545026564E+02  0.24545026564E+02  0.00000000000E+00 0.  1.
          2   -1    0    0  502    0  0.00000000000E+00 -0.00000000000E+00 -0.54927484562E+03  0.54927484562E+03  0.00000000000E+00 0. -1.
         24    2    1    2    0    0  0.37460719362E+02 -0.86428767231E+02 -0.19351333255E+03  0.22946889102E+03  0.79594753396E+02 0.  0.
        -11    1    3    3    0    0  0.64148857785E+01 -0.75398445733E+02 -0.75310612996E+02  0.10676031476E+03  0.00000000000E+00 0.  1.
         12    1    3    3    0    0  0.31045833583E+02 -0.11030321497E+02 -0.11820271956E+03  0.12270857625E+03  0.00000000000E+00 0. -1.
         21    1    1    2  502  501 -0.37460719362E+02  0.86428767231E+02 -0.33121648650E+03  0.34435098116E+03  0.00000000000E+00 0. -1.
<mgrwt>
<rscale>  1 0.12332300E+03</rscale>
<asrwt>0</asrwt>
<pdfrwt beam="1">  1        2 0.84503813E-01 0.12332300E+03</pdfrwt>
<pdfrwt beam="2">  1       -1 0.37761584E-02 0.12332300E+03</pdfrwt>
<totfact> 0.16011840E+04</totfact>
</mgrwt>
</event>
<event>
 6    2  0.1063641E+001  0.8300541E+02  0.7546771E-02  0.1320733E+00
          2   -1    0    0  502    0  0.00000000000E+00  0.00000000000E+00  0.16089558016E+04  0.16089558016E+04  0.00000000000E+00 0. -1.
         -1   -1    0    0    0  501 -0.00000000000E+00 -0.00000000000E+00 -0.31251403453E+01  0.31251403453E+01  0.00000000000E+00 0.  1.
         24    2    1    2    0    0  0.20087796518E+02 -0.14461088045E+02  0.57571902550E+03  0.58167198199E+03  0.79229134001E+02 0.  0.
        -13    1    3    3    0    0 -0.19334576879E+02 -0.30603871514E+02  0.35792579360E+03  0.35975171513E+03  0.00000000000E+00 0.  1.
         14    1    3    3    0    0  0.39422373397E+02  0.16142783469E+02  0.21779323190E+03  0.22192026686E+03  0.00000000000E+00 0. -1.
         21    1    1    2  502  501 -0.20087796518E+02  0.14461088045E+02  0.10301116358E+04  0.10304089600E+04  0.00000000000E+00 0. -1.
<mgrwt>
<rscale>  1 0.83005411E+02</rscale>
<asrwt>0</asrwt>
<pdfrwt beam="1">  1        2 0.24753100E+00 0.83005411E+02</pdfrwt>
<pdfrwt beam="2">  1       -1 0.48079211E-03 0.83005411E+02</pdfrwt>
<totfact> 0.66344603E+04</totfact>
</mgrwt>
</event>
<event>
 6    2  0.1063641E+001  0.9070004E+02  0.7546771E-02  0.1301165E+00
         -1   -1    0    0    0  501 -0.00000000000E+00  0.00000000000E+00  0.20469836496E+02  0.20469836496E+02  0.00000000000E+00 0.  1.
          2   -1    0    0  502    0  0.00000000000E+00 -0.00000000000E+00 -0.21524793038E+03  0.21524793038E+03  0.00000000000E+00 0. -1.
         24    2    1    2    0    0 -0.30323241902E+02 -0.28531128482E+02 -0.14198393869E+03  0.16848126552E+03  0.80578990399E+02 0.  0.
        -11    1    3    3    0    0 -0.30734059522E+02  0.36049714350E+01 -0.98195828063E+01  0.32465403744E+02  0.00000000000E+00 0.  1.
         12    1    3    3    0    0  0.41081762043E+00 -0.32136099917E+02 -0.13216435588E+03  0.13601586177E+03  0.00000000000E+00 0. -1.
         21    1    1    2  502  501  0.30323241902E+02  0.28531128482E+02 -0.52794155200E+02  0.67236501360E+02  0.00000000000E+00 0.  1.
<mgrwt>
<rscale>  1 0.90700044E+02</rscale>
<asrwt>0</asrwt>
<pdfrwt beam="1">  1        2 0.33115066E-01 0.90700044E+02</pdfrwt>
<pdfrwt beam="2">  1       -1 0.31492056E-02 0.90700044E+02</pdfrwt>
<totfact> 0.54592977E+04</totfact>
</mgrwt>
</event>
<event>
 6    2  0.1063641E+001  0.8538582E+02  0.7546771E-02  0.1314427E+00
          4   -1    0    0  502    0  0.00000000000E+00  0.00000000000E+00  0.33476151166E+02  0.33476151166E+02  0.00000000000E+00 0. -1.
         -3   -1    0    0    0  501 -0.00000000000E+00 -0.00000000000E+00 -0.10841715320E+03  0.10841715320E+03  0.00000000000E+00 0.  1.
         24    2    1    2    0    0  0.68824061966E+01 -0.21650235381E+02 -0.81715416720E+02  0.11818691490E+03  0.82308184997E+02 0.  0.
        -13    1    3    3    0    0 -0.30212176098E+02 -0.14899495439E+02 -0.71632740128E+02  0.79158196084E+02  0.00000000000E+00 0.  1.
         14    1    3    3    0    0  0.37094582295E+02 -0.67507399422E+01 -0.10082676591E+02  0.39028718819E+02  0.00000000000E+00 0. -1.
         21    1    1    2  502  501 -0.68824061966E+01  0.21650235381E+02  0.67744146847E+01  0.23706389464E+02  0.00000000000E+00 0.  1.
<mgrwt>
<rscale>  1 0.85385816E+02</rscale>
<asrwt>0</asrwt>
<pdfrwt beam="1">  1        4 0.51501772E-02 0.85385816E+02</pdfrwt>
<pdfrwt beam="2">  1       -3 0.16679562E-01 0.85385816E+02</pdfrwt>
<totfact> 0.11951692E+04</totfact>
</mgrwt>
</event>
<event>
 6    2  0.1063641E+001  0.8358835E+02  0.7546771E-02  0.1319166E+00
         -1   -1    0    0    0  501 -0.00000000000E+00  0.00000000000E+00  0.42028729289E+01  0.42028729289E+01  0.00000000000E+00 0.  1.
          2   -1    0    0  502    0  0.00000000000E+00 -0.00000000000E+00 -0.75846826927E+03  0.75846826927E+03  0.00000000000E+00 0. -1.
         24    2    1    2    0    0 -0.13123916623E+02 -0.16257219829E+02 -0.45057333924E+03  0.45826122131E+03  0.80935026696E+02 0.  0.
        -13    1    3    3    0    0  0.15231247069E+02  0.24720630567E+02 -0.24592692008E+03  0.24763511561E+03  0.00000000000E+00 0.  1.
         14    1    3    3    0    0 -0.28355163692E+02 -0.40977850396E+02 -0.20464641915E+03  0.21062610570E+03  0.00000000000E+00 0. -1.
         21    1    1    2  502  501  0.13123916623E+02  0.16257219829E+02 -0.30369205711E+03  0.30440992089E+03  0.00000000000E+00 0.  1.
<mgrwt>
<rscale>  1 0.83588354E+02</rscale>
<asrwt>0</asrwt>
<pdfrwt beam="1">  1        2 0.11668735E+00 0.83588354E+02</pdfrwt>
<pdfrwt beam="2">  1       -1 0.64659625E-03 0.83588354E+02</pdfrwt>
<totfact> 0.13115414E+05</totfact>
</mgrwt>
</event>
<event>
 6    2  0.1063641E+001  0.1002771E+03  0.7546771E-02  0.1279714E+00
          2   -1    0    0  502    0  0.00000000000E+00  0.00000000000E+00  0.10767045519E+04  0.10767045519E+04  0.00000000000E+00 0. -1.
         -1   -1    0    0    0  501 -0.00000000000E+00 -0.00000000000E+00 -0.74775494481E+01  0.74775494481E+01  0.00000000000E+00 0.  1.
         24    2    1    2    0    0  0.59400461112E+02 -0.12491503911E+02  0.40668482849E+03  0.41886519586E+03  0.79818858226E+02 0.  0.
        -11    1    3    3    0    0  0.47332228679E+02 -0.72766548972E+01  0.90343948738E+02  0.10225125257E+03  0.00000000000E+00 0.  1.
         12    1    3    3    0    0  0.12068232433E+02 -0.52148490141E+01  0.31634087976E+03  0.31661394330E+03  0.00000000000E+00 0. -1.
         21    1    1    2  502  501 -0.59400461112E+02  0.12491503911E+02  0.66254217393E+03  0.66531690546E+03  0.00000000000E+00 0. -1.
<mgrwt>
<rscale>  1 0.10027713E+03</rscale>
<asrwt>0</asrwt>
<pdfrwt beam="1">  1        2 0.16564673E+00 0.10027713E+03</pdfrwt>
<pdfrwt beam="2">  1       -1 0.11503931E-02 0.10027713E+03</pdfrwt>
<totfact> 0.37899205E+04</totfact>
</mgrwt>
</event>
<event>
 6    2  0.1063641E+001  0.8138272E+02  0.7546771E-02  0.1325173E+00
          2   -1    0    0  502    0  0.00000000000E+00  0.00000000000E+00  0.41222928734E+01  0.41222928734E+01  0.00000000000E+00 0. -1.
         -1   -1    0    0    0  501 -0.00000000000E+00 -0.00000000000E+00 -0.92533983585E+03  0.92533983585E+03  0.00000000000E+00 0.  1.
         24    2    1    2    0    0  0.20955426756E+02 -0.22627390113E+01 -0.42060146874E+03  0.42840254775E+03  0.78605963619E+02 0.  0.
        -11    1    3    3    0    0  0.35889981989E+01  0.27800576345E+02 -0.33291287600E+03  0.33409090973E+03  0.00000000000E+00 0.  1.
         12    1    3    3    0    0  0.17366428557E+02 -0.30063315356E+02 -0.87688592737E+02  0.94311638027E+02  0.00000000000E+00 0. -1.
         21    1    1    2  502  501 -0.20955426756E+02  0.22627390113E+01 -0.50061607424E+03  0.50105958097E+03  0.00000000000E+00 0. -1.
<mgrwt>
<rscale>  1 0.81382722E+02</rscale>
<asrwt>0</asrwt>
<pdfrwt beam="1">  1        2 0.63419845E-03 0.81382722E+02</pdfrwt>
<pdfrwt beam="2">  1       -1 0.14236008E+00 0.81382722E+02</pdfrwt>
<totfact> 0.12080709E+04</totfact>
</mgrwt>
</event>
<event>
 6    2  0.1063641E+001  0.9404034E+02  0.7546771E-02  0.1293352E+00
         -1   -1    0    0    0  501 -0.00000000000E+00  0.00000000000E+00  0.31701372929E+01  0.31701372929E+01  0.00000000000E+00 0.  1.
          2   -1    0    0  502    0  0.00000000000E+00 -0.00000000000E+00 -0.13780715840E+04  0.13780715840E+04  0.00000000000E+00 0. -1.
         24    2    1    2    0    0 -0.12324608851E+02  0.32660776579E+02 -0.85144170276E+03  0.85661926100E+03  0.87321033024E+02 0.  0.
        -13    1    3    3    0    0 -0.38437671872E+02  0.47830098670E+02 -0.47087583114E+03  0.47485705355E+03  0.00000000000E+00 0.  1.
         14    1    3    3    0    0  0.26113063020E+02 -0.15169322092E+02 -0.38056587162E+03  0.38176220745E+03  0.00000000000E+00 0. -1.
         21    1    1    2  502  501  0.12324608851E+02 -0.32660776579E+02 -0.52345974397E+03  0.52462246031E+03  0.00000000000E+00 0. -1.
<mgrwt>
<rscale>  1 0.94040338E+02</rscale>
<asrwt>0</asrwt>
<pdfrwt beam="1">  1        2 0.21201083E+00 0.94040338E+02</pdfrwt>
<pdfrwt beam="2">  1       -1 0.48771385E-03 0.94040338E+02</pdfrwt>
<totfact> 0.86514916E+04</totfact>
</mgrwt>
</event>
<event>
 6    2  0.1063641E+001  0.8625484E+02  0.7546771E-02  0.1312183E+00
         -1   -1    0    0    0  501 -0.00000000000E+00  0.00000000000E+00  0.68039947610E+01  0.68039947610E+01  0.00000000000E+00 0.  1.
          2   -1    0    0  502    0  0.00000000000E+00 -0.00000000000E+00 -0.55693083829E+03  0.55693083829E+03  0.00000000000E+00 0. -1.
         24    2    1    2    0    0  0.12171973617E+02 -0.27826551100E+02 -0.31287682273E+03  0.32454861636E+03  0.80730566014E+02 0.  0.
        -11    1    3    3    0    0  0.20391883742E+02  0.36784823353E+01 -0.16769726028E+02  0.26656778985E+02  0.00000000000E+00 0.  1.
         12    1    3    3    0    0 -0.82199101255E+01 -0.31505033435E+02 -0.29610709670E+03  0.29789183737E+03  0.00000000000E+00 0. -1.
         21    1    1    2  502  501 -0.12171973617E+02  0.27826551100E+02 -0.23725002079E+03  0.23918621669E+03  0.00000000000E+00 0.  1.
<mgrwt>
<rscale>  1 0.86254844E+02</rscale>
<asrwt>0</asrwt>
<pdfrwt beam="1">  1        2 0.85681690E-01 0.86254844E+02</pdfrwt>
<pdfrwt beam="2">  1       -1 0.10467682E-02 0.86254844E+02</pdfrwt>
<totfact> 0.95276399E+04</totfact>
</mgrwt>
</event>
<event>
 6    2  0.1063641E+001  0.8287774E+02  0.7546771E-02  0.1321078E+00
         -3   -1    0    0    0  501 -0.00000000000E+00  0.00000000000E+00  0.10408442183E+03  0.10408442183E+03  0.00000000000E+00 0.  1.
          4   -1    0    0  502    0  0.00000000000E+00 -0.00000000000E+00 -0.30557216970E+02  0.30557216970E+02  0.00000000000E+00 0. -1.
         24    2    1    2    0    0 -0.31928204627E+01  0.20497653826E+02  0.77559480032E+02  0.11350855672E+03  0.80239464051E+02 0.  0.
        -11    1    3    3    0    0  0.54697452436E+01 -0.17185542534E+02  0.72265271470E+02  0.74481745722E+02  0.00000000000E+00 0.  1.
         12    1    3    3    0    0 -0.86625657064E+01  0.37683196359E+02  0.52942085625E+01  0.39026810999E+02  0.00000000000E+00 0. -1.
         21    1    1    2  502  501  0.31928204627E+01 -0.20497653826E+02 -0.40322751765E+01  0.21133082074E+02  0.00000000000E+00 0.  1.
<mgrwt>
<rscale>  1 0.82877738E+02</rscale>
<asrwt>0</asrwt>
<pdfrwt beam="1">  1        4 0.47011104E-02 0.82877738E+02</pdfrwt>
<pdfrwt beam="2">  1       -3 0.16012988E-01 0.82877738E+02</pdfrwt>
<totfact> 0.14686035E+04</totfact>
</mgrwt>
</event>
<event>
 6    2  0.1063641E+001  0.1009575E+03  0.7546771E-02  0.1278295E+00
         -1   -1    0    0    0  501 -0.00000000000E+00  0.00000000000E+00  0.12011519485E+03  0.12011519485E+03  0.00000000000E+00 0.  1.
          2   -1    0    0  502    0  0.00000000000E+00 -0.00000000000E+00 -0.34752106687E+02  0.34752106687E+02  0.00000000000E+00 0. -1.
         24    2    1    2    0    0 -0.18499581614E+02  0.13265141362E+02  0.49624223240E+02  0.11249437432E+03  0.98357624135E+02 0.  0.
        -11    1    3    3    0    0 -0.42849414874E+02 -0.46307983771E+01  0.65462591241E+02  0.78376447359E+02  0.00000000000E+00 0.  1.
         12    1    3    3    0    0  0.24349833260E+02  0.17895939739E+02 -0.15838368002E+02  0.34117926958E+02  0.00000000000E+00 0. -1.
         21    1    1    2  502  501  0.18499581614E+02 -0.13265141362E+02  0.35738864922E+02  0.42372927220E+02  0.00000000000E+00 0. -1.
<mgrwt>
<rscale>  1 0.10095752E+03</rscale>
<asrwt>0</asrwt>
<pdfrwt beam="1">  1        2 0.53464780E-02 0.10095752E+03</pdfrwt>
<pdfrwt beam="2">  1       -1 0.18479261E-01 0.10095752E+03</pdfrwt>
<totfact> 0.33264763E+04</totfact>
</mgrwt>
</event>
<event>
 6    2  0.1063641E+001  0.8555175E+02  0.7546771E-02  0.1313996E+00
          4   -1    0    0  502    0  0.00000000000E+00  0.00000000000E+00  0.31785140491E+02  0.31785140491E+02  0.00000000000E+00 0. -1.
         -3   -1    0    0    0  501 -0.00000000000E+00 -0.00000000000E+00 -0.13622303812E+03  0.13622303812E+03  0.00000000000E+00 0.  1.
         24    2    1    2    0    0  0.15700389094E+02  0.25439496645E+02 -0.10813620226E+03  0.13788596647E+03  0.80158788051E+02 0.  0.
        -11    1    3    3    0    0  0.31481763966E+02 -0.16400165861E+02 -0.72435502911E+02  0.80665785713E+02  0.00000000000E+00 0.  1.
         12    1    3    3    0    0 -0.15781374872E+02  0.41839662506E+02 -0.35700699350E+02  0.57220180754E+02  0.00000000000E+00 0. -1.
         21    1    1    2  502  501 -0.15700389094E+02 -0.25439496645E+02  0.36983046334E+01  0.30122212143E+02  0.00000000000E+00 0. -1.
<mgrwt>
<rscale>  1 0.85551748E+02</rscale>
<asrwt>0</asrwt>
<pdfrwt beam="1">  1        4 0.48900215E-02 0.85551748E+02</pdfrwt>
<pdfrwt beam="2">  1       -3 0.20957391E-01 0.85551748E+02</pdfrwt>
<totfact> 0.87503380E+03</totfact>
</mgrwt>
</event>
<event>
 6    2  0.1063641E+001  0.8543344E+02  0.7546771E-02  0.1314303E+00
          2   -1    0    0  502    0  0.00000000000E+00  0.00000000000E+00  0.47906741975E+03  0.47906741975E+03  0.00000000000E+00 0. -1.
         -1   -1    0    0    0  501 -0.00000000000E+00 -0.00000000000E+00 -0.11315117308E+02  0.11315117308E+02  0.00000000000E+00 0.  1.
         24    2    1    2    0    0 -0.27061010273E+02 -0.11861886694E+02  0.16147109077E+03  0.18267946061E+03  0.80161521574E+02 0.  0.
        -11    1    3    3    0    0  0.17389917498E+02 -0.96937105164E+01  0.57487620312E+01  0.20722584758E+02  0.00000000000E+00 0.  1.
         12    1    3    3    0    0 -0.44450927771E+02 -0.21681761780E+01  0.15572232874E+03  0.16195687585E+03  0.00000000000E+00 0. -1.
         21    1    1    2  502  501  0.27061010273E+02  0.11861886694E+02  0.30628121167E+03  0.30770307645E+03  0.00000000000E+00 0. -1.
<mgrwt>
<rscale>  1 0.85433437E+02</rscale>
<asrwt>0</asrwt>
<pdfrwt beam="1">  1        2 0.73702664E-01 0.85433437E+02</pdfrwt>
<pdfrwt beam="2">  1       -1 0.17407877E-02 0.85433437E+02</pdfrwt>
<totfact> 0.54555624E+04</totfact>
</mgrwt>
</event>
<event>
 6    2  0.1063641E+001  0.8865508E+02  0.7546771E-02  0.1306142E+00
          2   -1    0    0  502    0  0.00000000000E+00  0.00000000000E+00  0.41500564962E+03  0.41500564962E+03  0.00000000000E+00 0. -1.
         -1   -1    0    0    0  501 -0.00000000000E+00 -0.00000000000E+00 -0.95603828645E+01  0.95603828645E+01  0.00000000000E+00 0.  1.
         24    2    1    2    0    0 -0.17261432027E+02 -0.15485848875E+02  0.21278334287E+03  0.23051349974E+03  0.85568417108E+02 0.  0.
        -11    1    3    3    0    0  0.24805649575E+02 -0.30104684972E+02  0.61642948084E+02  0.72948374598E+02  0.00000000000E+00 0.  1.
         12    1    3    3    0    0 -0.42067081602E+02  0.14618836097E+02  0.15114039479E+03  0.15756512514E+03  0.00000000000E+00 0. -1.
         21    1    1    2  502  501  0.17261432027E+02  0.15485848875E+02  0.19266192388E+03  0.19405253274E+03  0.00000000000E+00 0.  1.
<mgrwt>
<rscale>  1 0.88655076E+02</rscale>
<asrwt>0</asrwt>
<pdfrwt beam="1">  1        2 0.63847009E-01 0.88655076E+02</pdfrwt>
<pdfrwt beam="2">  1       -1 0.14708284E-02 0.88655076E+02</pdfrwt>
<totfact> 0.81119594E+04</totfact>
</mgrwt>
</event>
<event>
 6    2  0.1063641E+001  0.1945526E+03  0.7546771E-02  0.1154418E+00
          2   -1    0    0  502    0  0.00000000000E+00  0.00000000000E+00  0.13251744139E+04  0.13251744139E+04  0.00000000000E+00 0. -1.
         -1   -1    0    0    0  501 -0.00000000000E+00 -0.00000000000E+00 -0.26186495000E+02  0.26186495000E+02  0.00000000000E+00 0.  1.
         24    2    1    2    0    0 -0.13213111784E+03 -0.11820839624E+03  0.72160793049E+03  0.74737456116E+03  0.80117863629E+02 0.  0.
        -13    1    3    3    0    0 -0.11078112302E+03 -0.12739039312E+03  0.58779717937E+03  0.61156053956E+03  0.00000000000E+00 0.  1.
         14    1    3    3    0    0 -0.21349994817E+02  0.91819968770E+01  0.13381075113E+03  0.13581402160E+03  0.00000000000E+00 0. -1.
         21    1    1    2  502  501  0.13213111784E+03  0.11820839624E+03  0.57737998836E+03  0.60398634769E+03  0.00000000000E+00 0. -1.
<mgrwt>
<rscale>  1 0.19455264E+03</rscale>
<asrwt>0</asrwt>
<pdfrwt beam="1">  1        2 0.20387293E+00 0.19455264E+03</pdfrwt>
<pdfrwt beam="2">  1       -1 0.40286926E-02 0.19455264E+03</pdfrwt>
<totfact> 0.46716572E+03</totfact>
</mgrwt>
</event>
<event>
 6    2  0.1063641E+001  0.9372218E+02  0.7546771E-02  0.1294080E+00
          2   -1    0    0  502    0  0.00000000000E+00  0.00000000000E+00  0.10231234619E+02  0.10231234619E+02  0.00000000000E+00 0. -1.
         -1   -1    0    0    0  501 -0.00000000000E+00 -0.00000000000E+00 -0.53223480136E+03  0.53223480136E+03  0.00000000000E+00 0.  1.
         24    2    1    2    0    0 -0.40488790044E+02  0.25711264352E+02 -0.41088065271E+03  0.42143416721E+03  0.80519781977E+02 0.  0.
        -11    1    3    3    0    0  0.44574542261E+01 -0.12774089369E+01 -0.28545243975E+03  0.28549009795E+03  0.00000000000E+00 0.  1.
         12    1    3    3    0    0 -0.44946244271E+02  0.26988673289E+02 -0.12542821296E+03  0.13594406926E+03  0.00000000000E+00 0. -1.
         21    1    1    2  502  501  0.40488790044E+02 -0.25711264352E+02 -0.11112291403E+03  0.12103186876E+03  0.00000000000E+00 0.  1.
<mgrwt>
<rscale>  1 0.93722177E+02</rscale>
<asrwt>0</asrwt>
<pdfrwt beam="1">  1        2 0.15740357E-02 0.93722177E+02</pdfrwt>
<pdfrwt beam="2">  1       -1 0.81882296E-01 0.93722177E+02</pdfrwt>
<totfact> 0.12269099E+04</totfact>
</mgrwt>
</event>
<event>
 6    2  0.1063641E+001  0.8323833E+02  0.7546771E-02  0.1320105E+00
          2   -1    0    0  502    0  0.00000000000E+00  0.00000000000E+00  0.17246115728E+03  0.17246115728E+03  0.00000000000E+00 0. -1.
         -1   -1    0    0    0  501 -0.00000000000E+00 -0.00000000000E+00 -0.15949464025E+02  0.15949464025E+02  0.00000000000E+00 0.  1.
         24    2    1    2    0    0 -0.91469129180E+01  0.19424806242E+02  0.11974205466E+03  0.14583133719E+03  0.80421577568E+02 0.  0.
        -11    1    3    3    0    0 -0.30234989508E+02 -0.34741659569E+00  0.92497452785E+01  0.31620137200E+02  0.00000000000E+00 0.  1.
         12    1    3    3    0    0  0.21088076590E+02  0.19772222838E+02  0.11049230939E+03  0.11421119999E+03  0.00000000000E+00 0. -1.
         21    1    1    2  502  501  0.91469129180E+01 -0.19424806242E+02  0.36769638585E+02  0.42579284108E+02  0.00000000000E+00 0. -1.
<mgrwt>
<rscale>  1 0.83238328E+02</rscale>
<asrwt>0</asrwt>
<pdfrwt beam="1">  1        2 0.26532484E-01 0.83238328E+02</pdfrwt>
<pdfrwt beam="2">  1       -1 0.24537638E-02 0.83238328E+02</pdfrwt>
<totfact> 0.97758884E+04</totfact>
</mgrwt>
</event>
<event>
 6    2  0.1063641E+001  0.1085838E+03  0.7546771E-02  0.1263215E+00
         -1   -1    0    0    0  501 -0.00000000000E+00  0.00000000000E+00  0.58006122137E+01  0.58006122137E+01  0.00000000000E+00 0.  1.
          2   -1    0    0  502    0  0.00000000000E+00 -0.00000000000E+00 -0.14519657300E+04  0.14519657300E+04  0.00000000000E+00 0. -1.
         24    2    1    2    0    0  0.29294468847E+02 -0.64681828032E+02 -0.72060575028E+03  0.72874075929E+03  0.82149510832E+02 0.  0.
        -13    1    3    3    0    0 -0.21412799746E+02 -0.70851349319E+01 -0.68091660154E+02  0.71729919228E+02  0.00000000000E+00 0.  1.
         14    1    3    3    0    0  0.50707268593E+02 -0.57596693100E+02 -0.65251409013E+03  0.65701084006E+03  0.00000000000E+00 0. -1.
         21    1    1    2  502  501 -0.29294468847E+02  0.64681828032E+02 -0.72555936749E+03  0.72902558291E+03  0.00000000000E+00 0. -1.
<mgrwt>
<rscale>  1 0.10858382E+03</rscale>
<asrwt>0</asrwt>
<pdfrwt beam="1">  1        2 0.22337941E+00 0.10858382E+03</pdfrwt>
<pdfrwt beam="2">  1       -1 0.89240162E-03 0.10858382E+03</pdfrwt>
<totfact> 0.34314019E+04</totfact>
</mgrwt>
</event>
<event>
 6    2  0.1063641E+001  0.8605485E+02  0.7546771E-02  0.1312697E+00
          2   -1    0    0  502    0  0.00000000000E+00  0.00000000000E+00  0.97434778823E+02  0.97434778823E+02  0.00000000000E+00 0. -1.
         -1   -1    0    0    0  501 -0.00000000000E+00 -0.00000000000E+00 -0.47144735450E+02  0.47144735450E+02  0.00000000000E+00 0.  1.
         24    2    1    2    0    0  0.39736447944E+00 -0.30227284825E+02  0.17749059716E+00  0.86055035701E+02  0.80570410327E+02 0.  0.
        -13    1    3    3    0    0  0.20509403371E+02  0.21869635069E+02 -0.29273966229E+01  0.30124511875E+02  0.00000000000E+00 0.  1.
         14    1    3    3    0    0 -0.20112038892E+02 -0.52096919894E+02  0.31048872201E+01  0.55930523826E+02  0.00000000000E+00 0. -1.
         21    1    1    2  502  501 -0.39736447944E+00  0.30227284825E+02  0.50112552776E+02  0.58524478572E+02  0.00000000000E+00 0. -1.
<mgrwt>
<rscale>  1 0.86054853E+02</rscale>
<asrwt>0</asrwt>
<pdfrwt beam="1">  1        2 0.14989966E-01 0.86054853E+02</pdfrwt>
<pdfrwt beam="2">  1       -1 0.72530362E-02 0.86054853E+02</pdfrwt>
<totfact> 0.38439668E+04</totfact>
</mgrwt>
</event>
<event>
 6    2  0.1063641E+001  0.7878723E+02  0.7546771E-02  0.1332529E+00
         -1   -1    0    0    0  501 -0.00000000000E+00  0.00000000000E+00  0.43011159290E+01  0.43011159290E+01  0.00000000000E+00 0.  1.
          2   -1    0    0  502    0  0.00000000000E+00 -0.00000000000E+00 -0.67047101994E+03  0.67047101994E+03  0.00000000000E+00 0. -1.
         24    2    1    2    0    0 -0.10501518052E+02 -0.25618716529E+02 -0.45129286224E+03  0.45811862541E+03  0.73761961148E+02 0.  0.
        -11    1    3    3    0    0 -0.33145411527E+02 -0.11165391948E+02 -0.10270127547E+03  0.10849348490E+03  0.00000000000E+00 0.  1.
         12    1    3    3    0    0  0.22643893475E+02 -0.14453324581E+02 -0.34859158677E+03  0.34962514050E+03  0.00000000000E+00 0. -1.
         21    1    1    2  502  501  0.10501518052E+02  0.25618716529E+02 -0.21487704177E+03  0.21665351047E+03  0.00000000000E+00 0.  1.
<mgrwt>
<rscale>  1 0.78787229E+02</rscale>
<asrwt>0</asrwt>
<pdfrwt beam="1">  1        2 0.10314932E+00 0.78787229E+02</pdfrwt>
<pdfrwt beam="2">  1       -1 0.66171059E-03 0.78787229E+02</pdfrwt>
<totfact> 0.14534318E+05</totfact>
</mgrwt>
</event>
<event>
 6    2  0.1063641E+001  0.9592738E+02  0.7546771E-02  0.1289101E+00
          2   -1    0    0  502    0  0.00000000000E+00  0.00000000000E+00  0.26970128874E+02  0.26970128874E+02  0.00000000000E+00 0. -1.
         -1   -1    0    0    0  501 -0.00000000000E+00 -0.00000000000E+00 -0.27815758242E+03  0.27815758242E+03  0.00000000000E+00 0.  1.
         24    2    1    2    0    0 -0.52745916472E+02  0.87125172708E+01 -0.22702608287E+03  0.24646075727E+03  0.79649374824E+02 0.  0.
        -11    1    3    3    0    0 -0.46609304518E+02  0.16749339716E+02 -0.23050608579E+03  0.23576688325E+03  0.00000000000E+00 0.  1.
         12    1    3    3    0    0 -0.61366119534E+01 -0.80368224454E+01  0.34800029234E+01  0.10693874024E+02  0.00000000000E+00 0. -1.
         21    1    1    2  502  501  0.52745916472E+02 -0.87125172708E+01 -0.24161370682E+02  0.58666954027E+02  0.00000000000E+00 0.  1.
<mgrwt>
<rscale>  1 0.95927382E+02</rscale>
<asrwt>0</asrwt>
<pdfrwt beam="1">  1        2 0.41492505E-02 0.95927382E+02</pdfrwt>
<pdfrwt beam="2">  1       -1 0.42793475E-01 0.95927382E+02</pdfrwt>
<totfact> 0.11426275E+04</totfact>
</mgrwt>
</event>
<event>
 6    2  0.1063641E+001  0.8926700E+02  0.7546771E-02  0.1304637E+00
          2   -1    0    0  502    0  0.00000000000E+00  0.00000000000E+00  0.35004168548E+02  0.35004168548E+02  0.00000000000E+00 0. -1.
         -1   -1    0    0    0  501 -0.00000000000E+00 -0.00000000000E+00 -0.11838587902E+03  0.11838587902E+03  0.00000000000E+00 0.  1.
         24    2    1    2    0    0 -0.36559322455E+02 -0.11129108186E+01 -0.73148432632E+02  0.11540922867E+03  0.81429566105E+02 0.  0.
        -13    1    3    3    0    0  0.10125975176E+02  0.30864548767E+02 -0.30409118157E+02  0.44495732502E+02  0.00000000000E+00 0.  1.
         14    1    3    3    0    0 -0.46685297631E+02 -0.31977459585E+02 -0.42739314475E+02  0.70913496164E+02  0.00000000000E+00 0. -1.
         21    1    1    2  502  501  0.36559322455E+02  0.11129108186E+01 -0.10233277837E+02  0.37980818898E+02  0.00000000000E+00 0. -1.
<mgrwt>
<rscale>  1 0.89266998E+02</rscale>
<asrwt>0</asrwt>
<pdfrwt beam="1">  1        2 0.53852568E-02 0.89266998E+02</pdfrwt>
<pdfrwt beam="2">  1       -1 0.18213212E-01 0.89266998E+02</pdfrwt>
<totfact> 0.33198178E+04</totfact>
</mgrwt>
</event>
<event>
 6    2  0.1063641E+001  0.1112521E+03  0.7546771E-02  0.1258269E+00
         -1   -1    0    0    0  501 -0.00000000000E+00  0.00000000000E+00  0.52963137617E+01  0.52963137617E+01  0.00000000000E+00 0.  1.
          2   -1    0    0  502    0  0.00000000000E+00 -0.00000000000E+00 -0.17685793647E+04  0.17685793647E+04  0.00000000000E+00 0. -1.
         24    2    1    2    0    0 -0.74454217806E+02 -0.42084198491E+01 -0.79820821004E+03  0.80592392870E+03  0.82558409121E+02 0.  0.
        -13    1    3    3    0    0  0.13767140001E+02 -0.78117886425E+01 -0.48113859630E+02  0.50650781575E+02  0.00000000000E+00 0.  1.
         14    1    3    3    0    0 -0.88221357807E+02  0.36033687934E+01 -0.75009435041E+03  0.75527314712E+03  0.00000000000E+00 0. -1.
         21    1    1    2  502  501  0.74454217806E+02  0.42084198491E+01 -0.96507484085E+03  0.96795174972E+03  0.00000000000E+00 0. -1.
<mgrwt>
<rscale>  1 0.11125211E+03</rscale>
<asrwt>0</asrwt>
<pdfrwt beam="1">  1        2 0.27208875E+00 0.11125211E+03</pdfrwt>
<pdfrwt beam="2">  1       -1 0.81481864E-03 0.11125211E+03</pdfrwt>
<totfact> 0.26937901E+04</totfact>
</mgrwt>
</event>
