<event>
 4    1  0.5626910E-005  0.1153210E+04  0.7818608E-02  0.9154827E-01
         -2   -1    0    0    0  501 -0.00000000000E+00  0.00000000000E+00  0.11708094317E+03  0.11708094320E+03  0.25500000000E-02 0. -1.
          2   -1    0    0  501    0  0.00000000000E+00 -0.00000000000E+00 -0.28396867751E+04  0.28396867751E+04  0.25500000000E-02 0.  1.
    5000001    1    1    2    0    0  0.15028991497E+03 -0.23379165741E+03 -0.25594193295E+04  0.25816151731E+04  0.19200000000E+03 0.  0.
   -5000001    1    1    2    0    0 -0.15028991497E+03  0.23379165741E+03 -0.16318650243E+03  0.37515254523E+03  0.19200000000E+03 0.  0.
<mgrwt>
<rscale>  0 0.11532098E+04</rscale>
<asrwt>0</asrwt>
<pdfrwt beam="1">  1        2 0.40566950E+00 0.11532098E+04</pdfrwt>
<pdfrwt beam="2">  1       -2 0.16725851E-01 0.11532098E+04</pdfrwt>
<totfact> 0.84421325E+01</totfact>
</mgrwt>
</event>
<event>
 4    1  0.5626910E-005  0.4857882E+03  0.7818608E-02  0.1017556E+00
         -2   -1    0    0    0  501 -0.00000000000E+00  0.00000000000E+00  0.51437513866E+02  0.51437513929E+02  0.25500000000E-02 0. -1.
          2   -1    0    0  501    0  0.00000000000E+00 -0.00000000000E+00 -0.11469748253E+04  0.11469748253E+04  0.25500000000E-02 0.  1.
    5000001    1    1    2    0    0 -0.10387917596E+03 -0.10630880811E+03 -0.56358168078E+03  0.61366176090E+03  0.19200000000E+03 0.  0.
   -5000001    1    1    2    0    0  0.10387917596E+03  0.10630880811E+03 -0.53195563070E+03  0.58475057838E+03  0.19200000000E+03 0.  0.
<mgrwt>
<rscale>  0 0.48578816E+03</rscale>
<asrwt>0</asrwt>
<pdfrwt beam="1">  1        2 0.16385353E+00 0.48578816E+03</pdfrwt>
<pdfrwt beam="2">  1       -2 0.73482169E-02 0.48578816E+03</pdfrwt>
<totfact> 0.25947377E+03</totfact>
</mgrwt>
</event>
<event>
 4    1  0.5626910E-005  0.6618951E+03  0.7818608E-02  0.9784711E-01
          2   -1    0    0  501    0  0.00000000000E+00  0.00000000000E+00  0.62109522047E+03  0.62109522048E+03  0.25500000000E-02 0.  1.
         -2   -1    0    0    0  501 -0.00000000000E+00 -0.00000000000E+00 -0.17634378245E+03  0.17634378247E+03  0.25500000000E-02 0. -1.
    5000001    1    1    2    0    0 -0.95635011218E+01  0.23974222865E+03  0.74356728013E+02  0.31616565239E+03  0.19200000000E+03 0.  0.
   -5000001    1    1    2    0    0  0.95635011218E+01 -0.23974222865E+03  0.37039471001E+03  0.48127335056E+03  0.19200000000E+03 0.  0.
<mgrwt>
<rscale>  0 0.66189510E+03</rscale>
<asrwt>0</asrwt>
<pdfrwt beam="1">  1        2 0.88727889E-01 0.66189510E+03</pdfrwt>
<pdfrwt beam="2">  1       -2 0.25191969E-01 0.66189510E+03</pdfrwt>
<totfact> 0.73857912E+02</totfact>
</mgrwt>
</event>
<event>
 4    1  0.5626910E-005  0.9256306E+03  0.7818608E-02  0.9394097E-01
         -2   -1    0    0    0  501 -0.00000000000E+00  0.00000000000E+00  0.33130955699E+03  0.33130955700E+03  0.25500000000E-02 0. -1.
          2   -1    0    0  501    0  0.00000000000E+00 -0.00000000000E+00 -0.64651925927E+03  0.64651925927E+03  0.25500000000E-02 0.  1.
    5000001    1    1    2    0    0  0.30618409872E+03 -0.27275222681E+03 -0.56325940489E+02  0.45626646941E+03  0.19200000000E+03 0.  0.
   -5000001    1    1    2    0    0 -0.30618409872E+03  0.27275222681E+03 -0.25888376179E+03  0.52156234686E+03  0.19200000000E+03 0.  0.
<mgrwt>
<rscale>  0 0.92563062E+03</rscale>
<asrwt>0</asrwt>
<pdfrwt beam="1">  1        2 0.92359894E-01 0.92563062E+03</pdfrwt>
<pdfrwt beam="2">  1       -2 0.47329937E-01 0.92563062E+03</pdfrwt>
<totfact> 0.21017474E+02</totfact>
</mgrwt>
</event>
<event>
 4    1  0.5626910E-005  0.6019341E+03  0.7818608E-02  0.9901402E-01
         -2   -1    0    0    0  501 -0.00000000000E+00  0.00000000000E+00  0.36946664210E+02  0.36946664298E+02  0.25500000000E-02 0. -1.
          2   -1    0    0  501    0  0.00000000000E+00 -0.00000000000E+00 -0.24516735556E+04  0.24516735556E+04  0.25500000000E-02 0.  1.
    5000001    1    1    2    0    0 -0.39797430857E+02 -0.48637306321E+02 -0.28503917625E+03  0.34937194373E+03  0.19200000000E+03 0.  0.
   -5000001    1    1    2    0    0  0.39797430857E+02  0.48637306321E+02 -0.21296877151E+04  0.21392482762E+04  0.19200000000E+03 0.  0.
<mgrwt>
<rscale>  0 0.60193408E+03</rscale>
<asrwt>0</asrwt>
<pdfrwt beam="1">  1        2 0.35023898E+00 0.60193408E+03</pdfrwt>
<pdfrwt beam="2">  1       -2 0.52780964E-02 0.60193408E+03</pdfrwt>
<totfact> 0.92418934E+02</totfact>
</mgrwt>
</event>
<event>
 4    1  0.5626910E-005  0.7575386E+03  0.7818608E-02  0.9623597E-01
         -2   -1    0    0    0  501 -0.00000000000E+00  0.00000000000E+00  0.51737652915E+02  0.51737652978E+02  0.25500000000E-02 0. -1.
          2   -1    0    0  501    0  0.00000000000E+00 -0.00000000000E+00 -0.27729552987E+04  0.27729552987E+04  0.25500000000E-02 0.  1.
    5000001    1    1    2    0    0 -0.31938387104E+03 -0.19235062330E+02 -0.16030124551E+04  0.16458702792E+04  0.19200000000E+03 0.  0.
   -5000001    1    1    2    0    0  0.31938387104E+03  0.19235062330E+02 -0.11182051907E+04  0.11788226725E+04  0.19200000000E+03 0.  0.
<mgrwt>
<rscale>  0 0.75753864E+03</rscale>
<asrwt>0</asrwt>
<pdfrwt beam="1">  1        2 0.39613638E+00 0.75753864E+03</pdfrwt>
<pdfrwt beam="2">  1       -2 0.73910950E-02 0.75753864E+03</pdfrwt>
<totfact> 0.36547505E+02</totfact>
</mgrwt>
</event>
<event>
 4    1  0.5626910E-005  0.5652955E+03  0.7818608E-02  0.9980143E-01
         -2   -1    0    0    0  501 -0.00000000000E+00  0.00000000000E+00  0.10693760490E+03  0.10693760493E+03  0.25500000000E-02 0. -1.
          2   -1    0    0  501    0  0.00000000000E+00 -0.00000000000E+00 -0.74706886454E+03  0.74706886454E+03  0.25500000000E-02 0.  1.
    5000001    1    1    2    0    0 -0.18939749340E+03  0.44171900562E+02 -0.42903899687E+03  0.50868558869E+03  0.19200000000E+03 0.  0.
   -5000001    1    1    2    0    0  0.18939749340E+03 -0.44171900562E+02 -0.21109226277E+03  0.34532088079E+03  0.19200000000E+03 0.  0.
<mgrwt>
<rscale>  0 0.56529552E+03</rscale>
<asrwt>0</asrwt>
<pdfrwt beam="1">  1        2 0.10672412E+00 0.56529552E+03</pdfrwt>
<pdfrwt beam="2">  1       -2 0.15276801E-01 0.56529552E+03</pdfrwt>
<totfact> 0.14105530E+03</totfact>
</mgrwt>
</event>
<event>
 4    1  0.5626910E-005  0.6121077E+03  0.7818608E-02  0.9880600E-01
          2   -1    0    0  501    0  0.00000000000E+00  0.00000000000E+00  0.16102579468E+03  0.16102579470E+03  0.25500000000E-02 0.  1.
         -2   -1    0    0    0  501 -0.00000000000E+00 -0.00000000000E+00 -0.58170159827E+03  0.58170159827E+03  0.25500000000E-02 0. -1.
    5000001    1    1    2    0    0  0.21065704341E+03  0.17655020570E+02 -0.76771612714E+02  0.29571264803E+03  0.19200000000E+03 0.  0.
   -5000001    1    1    2    0    0 -0.21065704341E+03 -0.17655020570E+02 -0.34390419088E+03  0.44701474494E+03  0.19200000000E+03 0.  0.
<mgrwt>
<rscale>  0 0.61210771E+03</rscale>
<asrwt>0</asrwt>
<pdfrwt beam="1">  1        2 0.23003685E-01 0.61210771E+03</pdfrwt>
<pdfrwt beam="2">  1       -2 0.83100227E-01 0.61210771E+03</pdfrwt>
<totfact> 0.30924667E+02</totfact>
</mgrwt>
</event>
<event>
 4    1  0.5626910E-005  0.4525985E+03  0.7818608E-02  0.1026950E+00
          2   -1    0    0  501    0  0.00000000000E+00  0.00000000000E+00  0.11816969733E+03  0.11816969735E+03  0.25500000000E-02 0.  1.
         -2   -1    0    0    0  501 -0.00000000000E+00 -0.00000000000E+00 -0.43337135389E+03  0.43337135389E+03  0.25500000000E-02 0. -1.
    5000001    1    1    2    0    0 -0.10447918908E+03  0.33819938530E+02 -0.99315182308E+02  0.24246070739E+03  0.19200000000E+03 0.  0.
   -5000001    1    1    2    0    0  0.10447918908E+03 -0.33819938530E+02 -0.21588647425E+03  0.30908034385E+03  0.19200000000E+03 0.  0.
<mgrwt>
<rscale>  0 0.45259855E+03</rscale>
<asrwt>0</asrwt>
<pdfrwt beam="1">  1        2 0.16881386E-01 0.45259855E+03</pdfrwt>
<pdfrwt beam="2">  1       -2 0.61910193E-01 0.45259855E+03</pdfrwt>
<totfact> 0.84522606E+02</totfact>
</mgrwt>
</event>
<event>
 4    1  0.5626910E-005  0.9035277E+03  0.7818608E-02  0.9421182E-01
          2   -1    0    0  501    0  0.00000000000E+00  0.00000000000E+00  0.11399918137E+04  0.11399918137E+04  0.25500000000E-02 0.  1.
         -2   -1    0    0    0  501 -0.00000000000E+00 -0.00000000000E+00 -0.17902812459E+03  0.17902812461E+03  0.25500000000E-02 0. -1.
    5000001    1    1    2    0    0 -0.25511181360E+03  0.28039456898E+03  0.25657863100E+03  0.49638668962E+03  0.19200000000E+03 0.  0.
   -5000001    1    1    2    0    0  0.25511181360E+03 -0.28039456898E+03  0.70438505809E+03  0.82263324866E+03  0.19200000000E+03 0.  0.
<mgrwt>
<rscale>  0 0.90352774E+03</rscale>
<asrwt>0</asrwt>
<pdfrwt beam="1">  1        2 0.16285598E+00 0.90352774E+03</pdfrwt>
<pdfrwt beam="2">  1       -2 0.25575445E-01 0.90352774E+03</pdfrwt>
<totfact> 0.31823589E+02</totfact>
</mgrwt>
</event>
<event>
 4    1  0.5626910E-005  0.4953802E+03  0.7818608E-02  0.1014992E+00
         -2   -1    0    0    0  501 -0.00000000000E+00  0.00000000000E+00  0.99452848254E+02  0.99452848287E+02  0.25500000000E-02 0.  1.
          2   -1    0    0  501    0  0.00000000000E+00 -0.00000000000E+00 -0.61687915455E+03  0.61687915455E+03  0.25500000000E-02 0. -1.
    5000001    1    1    2    0    0  0.47846770333E+02 -0.13688163156E+03 -0.17364935346E+03  0.29672207947E+03  0.19200000000E+03 0.  0.
   -5000001    1    1    2    0    0 -0.47846770333E+02  0.13688163156E+03 -0.34377695284E+03  0.41960992337E+03  0.19200000000E+03 0.  0.
<mgrwt>
<rscale>  0 0.49538021E+03</rscale>
<asrwt>0</asrwt>
<pdfrwt beam="1">  1        2 0.88125592E-01 0.49538021E+03</pdfrwt>
<pdfrwt beam="2">  1       -2 0.14207550E-01 0.49538021E+03</pdfrwt>
<totfact> 0.20080390E+03</totfact>
</mgrwt>
</event>
<event>
 4    1  0.5626910E-005  0.4586085E+03  0.7818608E-02  0.1025186E+00
          2   -1    0    0  501    0  0.00000000000E+00  0.00000000000E+00  0.47276399279E+03  0.47276399279E+03  0.25500000000E-02 0.  1.
         -2   -1    0    0    0  501 -0.00000000000E+00 -0.00000000000E+00 -0.11121921914E+03  0.11121921917E+03  0.25500000000E-02 0. -1.
    5000001    1    1    2    0    0  0.92068635030E+02 -0.79965745925E+02  0.21779444968E+03  0.31491201372E+03  0.19200000000E+03 0.  0.
   -5000001    1    1    2    0    0 -0.92068635030E+02  0.79965745925E+02  0.14375032397E+03  0.26907119823E+03  0.19200000000E+03 0.  0.
<mgrwt>
<rscale>  0 0.45860851E+03</rscale>
<asrwt>0</asrwt>
<pdfrwt beam="1">  1        2 0.67537714E-01 0.45860851E+03</pdfrwt>
<pdfrwt beam="2">  1       -2 0.15888460E-01 0.45860851E+03</pdfrwt>
<totfact> 0.22566894E+03</totfact>
</mgrwt>
</event>
<event>
 4    1  0.5626910E-005  0.1252915E+04  0.7818608E-02  0.9067761E-01
          2   -1    0    0  501    0  0.00000000000E+00  0.00000000000E+00  0.13994109113E+04  0.13994109113E+04  0.25500000000E-02 0.  1.
         -2   -1    0    0    0  501 -0.00000000000E+00 -0.00000000000E+00 -0.28043862226E+03  0.28043862227E+03  0.25500000000E-02 0. -1.
    5000001    1    1    2    0    0 -0.59311158616E+02 -0.47777696968E+03  0.87746319005E+02  0.52569198471E+03  0.19200000000E+03 0.  0.
   -5000001    1    1    2    0    0  0.59311158616E+02  0.47777696968E+03  0.10312259700E+04  0.11541575488E+04  0.19200000000E+03 0.  0.
<mgrwt>
<rscale>  0 0.12529148E+04</rscale>
<asrwt>0</asrwt>
<pdfrwt beam="1">  1        2 0.19991584E+00 0.12529148E+04</pdfrwt>
<pdfrwt beam="2">  1       -2 0.40062660E-01 0.12529148E+04</pdfrwt>
<totfact> 0.95957603E+01</totfact>
</mgrwt>
</event>
<event>
 4    1  0.5626910E-005  0.4732375E+03  0.7818608E-02  0.1021010E+00
         -2   -1    0    0    0  501 -0.00000000000E+00  0.00000000000E+00  0.87187966450E+02  0.87187966487E+02  0.25500000000E-02 0. -1.
          2   -1    0    0  501    0  0.00000000000E+00 -0.00000000000E+00 -0.64215784102E+03  0.64215784103E+03  0.25500000000E-02 0.  1.
    5000001    1    1    2    0    0  0.11071897144E+03 -0.68367150571E+02 -0.34963600126E+03  0.41957370185E+03  0.19200000000E+03 0.  0.
   -5000001    1    1    2    0    0 -0.11071897144E+03  0.68367150571E+02 -0.20533387332E+03  0.30977210566E+03  0.19200000000E+03 0.  0.
<mgrwt>
<rscale>  0 0.47323751E+03</rscale>
<asrwt>0</asrwt>
<pdfrwt beam="1">  1        2 0.91736832E-01 0.47323751E+03</pdfrwt>
<pdfrwt beam="2">  1       -2 0.12455424E-01 0.47323751E+03</pdfrwt>
<totfact> 0.23804130E+03</totfact>
</mgrwt>
</event>
<event>
 4    1  0.5626910E-005  0.6100479E+03  0.7818608E-02  0.9884776E-01
          2   -1    0    0  501    0  0.00000000000E+00  0.00000000000E+00  0.25772894910E+04  0.25772894910E+04  0.25500000000E-02 0.  1.
         -2   -1    0    0    0  501 -0.00000000000E+00 -0.00000000000E+00 -0.36099785926E+02  0.36099786016E+02  0.25500000000E-02 0. -1.
    5000001    1    1    2    0    0 -0.17918612928E+03 -0.14437701650E+03  0.10273832407E+04  0.10702021842E+04  0.19200000000E+03 0.  0.
   -5000001    1    1    2    0    0  0.17918612928E+03  0.14437701650E+03  0.15138064643E+04  0.15431870928E+04  0.19200000000E+03 0.  0.
<mgrwt>
<rscale>  0 0.61004786E+03</rscale>
<asrwt>0</asrwt>
<pdfrwt beam="1">  1        2 0.36818430E+00 0.61004786E+03</pdfrwt>
<pdfrwt beam="2">  1       -2 0.51571111E-02 0.61004786E+03</pdfrwt>
<totfact> 0.82526380E+02</totfact>
</mgrwt>
</event>
<event>
 4    1  0.5626910E-005  0.6480317E+03  0.7818608E-02  0.9810480E-01
          2   -1    0    0  501    0  0.00000000000E+00  0.00000000000E+00  0.25812132975E+04  0.25812132975E+04  0.25500000000E-02 0.  1.
         -2   -1    0    0    0  501 -0.00000000000E+00 -0.00000000000E+00 -0.40673224078E+02  0.40673224158E+02  0.25500000000E-02 0. -1.
    5000001    1    1    2    0    0 -0.32021648250E+02 -0.25897748808E+03  0.12490369701E+04  0.12903689697E+04  0.19200000000E+03 0.  0.
   -5000001    1    1    2    0    0  0.32021648250E+02  0.25897748808E+03  0.12915031033E+04  0.13315175520E+04  0.19200000000E+03 0.  0.
<mgrwt>
<rscale>  0 0.64803169E+03</rscale>
<asrwt>0</asrwt>
<pdfrwt beam="1">  1        2 0.36874475E+00 0.64803169E+03</pdfrwt>
<pdfrwt beam="2">  1       -2 0.58104608E-02 0.64803169E+03</pdfrwt>
<totfact> 0.67993715E+02</totfact>
</mgrwt>
</event>
<event>
 4    1  0.5626910E-005  0.4571094E+03  0.7818608E-02  0.1025623E+00
         -2   -1    0    0    0  501 -0.00000000000E+00  0.00000000000E+00  0.21802455970E+03  0.21802455971E+03  0.25500000000E-02 0. -1.
          2   -1    0    0  501    0  0.00000000000E+00 -0.00000000000E+00 -0.23959345822E+03  0.23959345823E+03  0.25500000000E-02 0.  1.
    5000001    1    1    2    0    0  0.75440813654E+02  0.98097094840E+02 -0.31011554987E+01  0.22844687248E+03  0.19200000000E+03 0.  0.
   -5000001    1    1    2    0    0 -0.75440813654E+02 -0.98097094840E+02 -0.18467743018E+02  0.22917114546E+03  0.19200000000E+03 0.  0.
<mgrwt>
<rscale>  0 0.45710943E+03</rscale>
<asrwt>0</asrwt>
<pdfrwt beam="1">  1        2 0.34227637E-01 0.45710943E+03</pdfrwt>
<pdfrwt beam="2">  1       -2 0.31146366E-01 0.45710943E+03</pdfrwt>
<totfact> 0.14591319E+03</totfact>
</mgrwt>
</event>
<event>
 4    1  0.5626910E-005  0.4745103E+03  0.7818608E-02  0.1020655E+00
          2   -1    0    0  501    0  0.00000000000E+00  0.00000000000E+00  0.45718894477E+03  0.45718894477E+03  0.25500000000E-02 0.  1.
         -2   -1    0    0    0  501 -0.00000000000E+00 -0.00000000000E+00 -0.12312195214E+03  0.12312195217E+03  0.25500000000E-02 0. -1.
    5000001    1    1    2    0    0 -0.57043848919E+02  0.12697652453E+03  0.17559050749E+03  0.29508145452E+03  0.19200000000E+03 0.  0.
   -5000001    1    1    2    0    0  0.57043848919E+02 -0.12697652453E+03  0.15847648514E+03  0.28522944242E+03  0.19200000000E+03 0.  0.
<mgrwt>
<rscale>  0 0.47451025E+03</rscale>
<asrwt>0</asrwt>
<pdfrwt beam="1">  1        2 0.65312707E-01 0.47451025E+03</pdfrwt>
<pdfrwt beam="2">  1       -2 0.17588850E-01 0.47451025E+03</pdfrwt>
<totfact> 0.19726776E+03</totfact>
</mgrwt>
</event>
<event>
 4    1  0.5626910E-005  0.4908439E+03  0.7818608E-02  0.1016197E+00
          2   -1    0    0  501    0  0.00000000000E+00  0.00000000000E+00  0.19783757813E+04  0.19783757813E+04  0.25500000000E-02 0.  1.
         -2   -1    0    0    0  501 -0.00000000000E+00 -0.00000000000E+00 -0.30445140696E+02  0.30445140803E+02  0.25500000000E-02 0. -1.
    5000001    1    1    2    0    0  0.13954874973E+03 -0.61080239195E+02  0.92166982663E+03  0.95370011979E+03  0.19200000000E+03 0.  0.
   -5000001    1    1    2    0    0 -0.13954874973E+03  0.61080239195E+02  0.10262608139E+04  0.10551208023E+04  0.19200000000E+03 0.  0.
<mgrwt>
<rscale>  0 0.49084388E+03</rscale>
<asrwt>0</asrwt>
<pdfrwt beam="1">  1        2 0.28262521E+00 0.49084388E+03</pdfrwt>
<pdfrwt beam="2">  1       -2 0.43493043E-02 0.49084388E+03</pdfrwt>
<totfact> 0.21706282E+03</totfact>
</mgrwt>
</event>
<event>
 4    1  0.5626910E-005  0.6081995E+03  0.7818608E-02  0.9888539E-01
          2   -1    0    0  501    0  0.00000000000E+00  0.00000000000E+00  0.70987558332E+03  0.70987558332E+03  0.25500000000E-02 0.  1.
         -2   -1    0    0    0  501 -0.00000000000E+00 -0.00000000000E+00 -0.13027165365E+03  0.13027165368E+03  0.25500000000E-02 0. -1.
    5000001    1    1    2    0    0 -0.21216738763E+03 -0.10100262185E+03  0.26230836801E+03  0.40110623272E+03  0.19200000000E+03 0.  0.
   -5000001    1    1    2    0    0  0.21216738763E+03  0.10100262185E+03  0.31729556165E+03  0.43904100428E+03  0.19200000000E+03 0.  0.
<mgrwt>
<rscale>  0 0.60819953E+03</rscale>
<asrwt>0</asrwt>
<pdfrwt beam="1">  1        2 0.10141080E+00 0.60819953E+03</pdfrwt>
<pdfrwt beam="2">  1       -2 0.18610236E-01 0.60819953E+03</pdfrwt>
<totfact> 0.10727233E+03</totfact>
</mgrwt>
</event>
<event>
 4    1  0.5626910E-005  0.5474461E+03  0.7818608E-02  0.1002087E+00
         -2   -1    0    0    0  501 -0.00000000000E+00  0.00000000000E+00  0.57957389446E+02  0.57957389502E+02  0.25500000000E-02 0. -1.
          2   -1    0    0  501    0  0.00000000000E+00 -0.00000000000E+00 -0.12927483837E+04  0.12927483837E+04  0.25500000000E-02 0.  1.
    5000001    1    1    2    0    0  0.13448381093E+03 -0.55615274771E+02 -0.93796570702E+03  0.96841242337E+03  0.19200000000E+03 0.  0.
   -5000001    1    1    2    0    0 -0.13448381093E+03  0.55615274771E+02 -0.29682528726E+03  0.38229334986E+03  0.19200000000E+03 0.  0.
<mgrwt>
<rscale>  0 0.54744615E+03</rscale>
<asrwt>0</asrwt>
<pdfrwt beam="1">  1        2 0.18467832E+00 0.54744615E+03</pdfrwt>
<pdfrwt beam="2">  1       -2 0.82796279E-02 0.54744615E+03</pdfrwt>
<totfact> 0.17815311E+03</totfact>
</mgrwt>
</event>
<event>
 4    1  0.5626910E-005  0.5271955E+03  0.7818608E-02  0.1006915E+00
         -2   -1    0    0    0  501 -0.00000000000E+00  0.00000000000E+00  0.34729923940E+02  0.34729924034E+02  0.25500000000E-02 0. -1.
          2   -1    0    0  501    0  0.00000000000E+00 -0.00000000000E+00 -0.20006887487E+04  0.20006887487E+04  0.25500000000E-02 0.  1.
    5000001    1    1    2    0    0  0.11599446225E+03 -0.13827056733E+03 -0.95670777554E+03  0.99233423444E+03  0.19200000000E+03 0.  0.
   -5000001    1    1    2    0    0 -0.11599446225E+03  0.13827056733E+03 -0.10092510492E+04  0.10430844383E+04  0.19200000000E+03 0.  0.
<mgrwt>
<rscale>  0 0.52719548E+03</rscale>
<asrwt>0</asrwt>
<pdfrwt beam="1">  1        2 0.28581261E+00 0.52719548E+03</pdfrwt>
<pdfrwt beam="2">  1       -2 0.49614190E-02 0.52719548E+03</pdfrwt>
<totfact> 0.17246126E+03</totfact>
</mgrwt>
</event>
<event>
 4    1  0.5626910E-005  0.4594432E+03  0.7818608E-02  0.1024943E+00
         -2   -1    0    0    0  501 -0.00000000000E+00  0.00000000000E+00  0.78008793847E+02  0.78008793889E+02  0.25500000000E-02 0. -1.
          2   -1    0    0  501    0  0.00000000000E+00 -0.00000000000E+00 -0.67648788146E+03  0.67648788146E+03  0.25500000000E-02 0.  1.
    5000001    1    1    2    0    0 -0.85164625869E+02  0.70818771320E+02 -0.39831312227E+03  0.45583511848E+03  0.19200000000E+03 0.  0.
   -5000001    1    1    2    0    0  0.85164625869E+02 -0.70818771320E+02 -0.20016596535E+03  0.29866155687E+03  0.19200000000E+03 0.  0.
<mgrwt>
<rscale>  0 0.45944316E+03</rscale>
<asrwt>0</asrwt>
<pdfrwt beam="1">  1        2 0.96641123E-01 0.45944316E+03</pdfrwt>
<pdfrwt beam="2">  1       -2 0.11144114E-01 0.45944316E+03</pdfrwt>
<totfact> 0.26823556E+03</totfact>
</mgrwt>
</event>
<event>
 4    1  0.5626910E-005  0.1134245E+04  0.7818608E-02  0.9172442E-01
         -2   -1    0    0    0  501 -0.00000000000E+00  0.00000000000E+00  0.82122562133E+02  0.82122562173E+02  0.25500000000E-02 0. -1.
          2   -1    0    0  501    0  0.00000000000E+00 -0.00000000000E+00 -0.39164413238E+04  0.39164413238E+04  0.25500000000E-02 0.  1.
    5000001    1    1    2    0    0 -0.41633720835E+03 -0.13654565925E+03 -0.29909775350E+04  0.30289919120E+04  0.19200000000E+03 0.  0.
   -5000001    1    1    2    0    0  0.41633720835E+03  0.13654565925E+03 -0.84334122669E+03  0.96957197399E+03  0.19200000000E+03 0.  0.
<mgrwt>
<rscale>  0 0.11342455E+04</rscale>
<asrwt>0</asrwt>
<pdfrwt beam="1">  1        2 0.55949150E+00 0.11342455E+04</pdfrwt>
<pdfrwt beam="2">  1       -2 0.11731797E-01 0.11342455E+04</pdfrwt>
<totfact> 0.35302626E+01</totfact>
</mgrwt>
</event>
<event>
 4    1  0.5626910E-005  0.5422477E+03  0.7818608E-02  0.1003304E+00
         -2   -1    0    0    0  501 -0.00000000000E+00  0.00000000000E+00  0.43169944159E+02  0.43169944234E+02  0.25500000000E-02 0. -1.
          2   -1    0    0  501    0  0.00000000000E+00 -0.00000000000E+00 -0.17027620889E+04  0.17027620889E+04  0.25500000000E-02 0.  1.
    5000001    1    1    2    0    0  0.15029634349E+03 -0.10274371574E+03 -0.10202519056E+04  0.10540034217E+04  0.19200000000E+03 0.  0.
   -5000001    1    1    2    0    0 -0.15029634349E+03  0.10274371574E+03 -0.63934023912E+03  0.69192861145E+03  0.19200000000E+03 0.  0.
<mgrwt>
<rscale>  0 0.54224771E+03</rscale>
<asrwt>0</asrwt>
<pdfrwt beam="1">  1        2 0.24325168E+00 0.54224771E+03</pdfrwt>
<pdfrwt beam="2">  1       -2 0.61671360E-02 0.54224771E+03</pdfrwt>
<totfact> 0.17342835E+03</totfact>
</mgrwt>
</event>
<event>
 4    1  0.5626910E-005  0.6219027E+03  0.7818608E-02  0.9860979E-01
          2   -1    0    0  501    0  0.00000000000E+00  0.00000000000E+00  0.29879163880E+04  0.29879163880E+04  0.25500000000E-02 0.  1.
         -2   -1    0    0    0  501 -0.00000000000E+00 -0.00000000000E+00 -0.32360589964E+02  0.32360590065E+02  0.25500000000E-02 0. -1.
    5000001    1    1    2    0    0  0.18082561517E+03  0.16345297613E+03  0.13792064383E+04  0.14136793052E+04  0.19200000000E+03 0.  0.
   -5000001    1    1    2    0    0 -0.18082561517E+03 -0.16345297613E+03  0.15763493598E+04  0.16065976729E+04  0.19200000000E+03 0.  0.
<mgrwt>
<rscale>  0 0.62190268E+03</rscale>
<asrwt>0</asrwt>
<pdfrwt beam="1">  1        2 0.42684508E+00 0.62190268E+03</pdfrwt>
<pdfrwt beam="2">  1       -2 0.46229427E-02 0.62190268E+03</pdfrwt>
<totfact> 0.59216332E+02</totfact>
</mgrwt>
</event>
<event>
 4    1  0.5626910E-005  0.7964829E+03  0.7818608E-02  0.9565122E-01
          2   -1    0    0  501    0  0.00000000000E+00  0.00000000000E+00  0.29818892678E+04  0.29818892678E+04  0.25500000000E-02 0.  1.
         -2   -1    0    0    0  501 -0.00000000000E+00 -0.00000000000E+00 -0.53186493399E+02  0.53186493461E+02  0.25500000000E-02 0. -1.
    5000001    1    1    2    0    0 -0.31086826351E+03 -0.15554690552E+03  0.15785623746E+04  0.16277460144E+04  0.19200000000E+03 0.  0.
   -5000001    1    1    2    0    0  0.31086826351E+03  0.15554690552E+03  0.13501403999E+04  0.14073297469E+04  0.19200000000E+03 0.  0.
<mgrwt>
<rscale>  0 0.79648285E+03</rscale>
<asrwt>0</asrwt>
<pdfrwt beam="1">  1        2 0.42598438E+00 0.79648285E+03</pdfrwt>
<pdfrwt beam="2">  1       -2 0.75980669E-02 0.79648285E+03</pdfrwt>
<totfact> 0.26888471E+02</totfact>
</mgrwt>
</event>
<event>
 4    1  0.5626910E-005  0.5252322E+03  0.7818608E-02  0.1007395E+00
         -2   -1    0    0    0  501 -0.00000000000E+00  0.00000000000E+00  0.72125325068E+02  0.72125325113E+02  0.25500000000E-02 0. -1.
          2   -1    0    0  501    0  0.00000000000E+00 -0.00000000000E+00 -0.95621362572E+03  0.95621362572E+03  0.25500000000E-02 0.  1.
    5000001    1    1    2    0    0  0.16057660496E+03  0.97611111784E+01 -0.59649421317E+03  0.64695399504E+03  0.19200000000E+03 0.  0.
   -5000001    1    1    2    0    0 -0.16057660496E+03 -0.97611111784E+01 -0.28759408749E+03  0.38138495580E+03  0.19200000000E+03 0.  0.
<mgrwt>
<rscale>  0 0.52523221E+03</rscale>
<asrwt>0</asrwt>
<pdfrwt beam="1">  1        2 0.13660194E+00 0.52523221E+03</pdfrwt>
<pdfrwt beam="2">  1       -2 0.10303618E-01 0.52523221E+03</pdfrwt>
<totfact> 0.19601566E+03</totfact>
</mgrwt>
</event>
<event>
 4    1  0.5626910E-005  0.6134945E+03  0.7818608E-02  0.9877798E-01
          2   -1    0    0  501    0  0.00000000000E+00  0.00000000000E+00  0.83353579393E+03  0.83353579393E+03  0.25500000000E-02 0.  1.
         -2   -1    0    0    0  501 -0.00000000000E+00 -0.00000000000E+00 -0.11288521692E+03  0.11288521695E+03  0.25500000000E-02 0. -1.
    5000001    1    1    2    0    0  0.11896194738E+03  0.16177901033E+03  0.56090519009E+03  0.62594171085E+03  0.19200000000E+03 0.  0.
   -5000001    1    1    2    0    0 -0.11896194738E+03 -0.16177901033E+03  0.15974538692E+03  0.32047930003E+03  0.19200000000E+03 0.  0.
<mgrwt>
<rscale>  0 0.61349448E+03</rscale>
<asrwt>0</asrwt>
<pdfrwt beam="1">  1        2 0.11907654E+00 0.61349448E+03</pdfrwt>
<pdfrwt beam="2">  1       -2 0.16126460E-01 0.61349448E+03</pdfrwt>
<totfact> 0.11191599E+03</totfact>
</mgrwt>
</event>
<event>
 4    1  0.5626910E-005  0.1066576E+04  0.7818608E-02  0.9238395E-01
         -2   -1    0    0    0  501 -0.00000000000E+00  0.00000000000E+00  0.27278810685E+03  0.27278810686E+03  0.25500000000E-02 0. -1.
          2   -1    0    0  501    0  0.00000000000E+00 -0.00000000000E+00 -0.10425536409E+04  0.10425536409E+04  0.25500000000E-02 0.  1.
    5000001    1    1    2    0    0 -0.13120508360E+03  0.45422425800E+03 -0.57592626153E+03  0.76947352732E+03  0.19200000000E+03 0.  0.
   -5000001    1    1    2    0    0  0.13120508360E+03 -0.45422425800E+03 -0.19383927252E+03  0.54586822044E+03  0.19200000000E+03 0.  0.
<mgrwt>
<rscale>  0 0.10665763E+04</rscale>
<asrwt>0</asrwt>
<pdfrwt beam="1">  1        2 0.14893623E+00 0.10665763E+04</pdfrwt>
<pdfrwt beam="2">  1       -2 0.38969730E-01 0.10665763E+04</pdfrwt>
<totfact> 0.16351046E+02</totfact>
</mgrwt>
</event>
<event>
 4    1  0.5626910E-005  0.4689034E+03  0.7818608E-02  0.1022230E+00
         -2   -1    0    0    0  501 -0.00000000000E+00  0.00000000000E+00  0.56291226576E+02  0.56291226634E+02  0.25500000000E-02 0. -1.
          2   -1    0    0  501    0  0.00000000000E+00 -0.00000000000E+00 -0.97648612269E+03  0.97648612270E+03  0.25500000000E-02 0.  1.
    5000001    1    1    2    0    0 -0.99359749043E+02 -0.83520408544E+02 -0.38205227108E+03  0.44685115666E+03  0.19200000000E+03 0.  0.
   -5000001    1    1    2    0    0  0.99359749043E+02  0.83520408544E+02 -0.53814262504E+03  0.58592619267E+03  0.19200000000E+03 0.  0.
<mgrwt>
<rscale>  0 0.46890341E+03</rscale>
<asrwt>0</asrwt>
<pdfrwt beam="1">  1        2 0.13949801E+00 0.46890341E+03</pdfrwt>
<pdfrwt beam="2">  1       -2 0.80416044E-02 0.46890341E+03</pdfrwt>
<totfact> 0.28331431E+03</totfact>
</mgrwt>
</event>
<event>
 4    1  0.5626910E-005  0.7947364E+03  0.7818608E-02  0.9567667E-01
          2   -1    0    0  501    0  0.00000000000E+00  0.00000000000E+00  0.14406097458E+04  0.14406097458E+04  0.25500000000E-02 0.  1.
         -2   -1    0    0    0  501 -0.00000000000E+00 -0.00000000000E+00 -0.10960739539E+03  0.10960739542E+03  0.25500000000E-02 0. -1.
    5000001    1    1    2    0    0 -0.10000174211E+03 -0.30933291357E+03  0.42382846197E+03  0.56761057515E+03  0.19200000000E+03 0.  0.
   -5000001    1    1    2    0    0  0.10000174211E+03  0.30933291357E+03  0.90717388848E+03  0.98260656612E+03  0.19200000000E+03 0.  0.
<mgrwt>
<rscale>  0 0.79473639E+03</rscale>
<asrwt>0</asrwt>
<pdfrwt beam="1">  1        2 0.20580138E+00 0.79473639E+03</pdfrwt>
<pdfrwt beam="2">  1       -2 0.15658200E-01 0.79473639E+03</pdfrwt>
<totfact> 0.51575981E+02</totfact>
</mgrwt>
</event>
<event>
 4    1  0.5626910E-005  0.5702893E+03  0.7818608E-02  0.9969039E-01
          2   -1    0    0  501    0  0.00000000000E+00  0.00000000000E+00  0.62735344484E+03  0.62735344485E+03  0.25500000000E-02 0.  1.
         -2   -1    0    0    0  501 -0.00000000000E+00 -0.00000000000E+00 -0.12960394357E+03  0.12960394359E+03  0.25500000000E-02 0. -1.
    5000001    1    1    2    0    0  0.20896713651E+03  0.75295020872E+01  0.21327077425E+03  0.35506672710E+03  0.19200000000E+03 0.  0.
   -5000001    1    1    2    0    0 -0.20896713651E+03 -0.75295020872E+01  0.28447872702E+03  0.40189066134E+03  0.19200000000E+03 0.  0.
<mgrwt>
<rscale>  0 0.57028933E+03</rscale>
<asrwt>0</asrwt>
<pdfrwt beam="1">  1        2 0.89621921E-01 0.57028933E+03</pdfrwt>
<pdfrwt beam="2">  1       -2 0.18514849E-01 0.57028933E+03</pdfrwt>
<totfact> 0.12569628E+03</totfact>
</mgrwt>
</event>
<event>
 4    1  0.5626910E-005  0.1018909E+04  0.7818608E-02  0.9288045E-01
         -2   -1    0    0    0  501 -0.00000000000E+00  0.00000000000E+00  0.23016289077E+03  0.23016289078E+03  0.25500000000E-02 0. -1.
          2   -1    0    0  501    0  0.00000000000E+00 -0.00000000000E+00 -0.11276541643E+04  0.11276541643E+04  0.25500000000E-02 0.  1.
    5000001    1    1    2    0    0 -0.23485681960E+03  0.40262756940E+03 -0.35069667716E+03  0.61410002827E+03  0.19200000000E+03 0.  0.
   -5000001    1    1    2    0    0  0.23485681960E+03 -0.40262756940E+03 -0.54679459636E+03  0.74371702681E+03  0.19200000000E+03 0.  0.
<mgrwt>
<rscale>  0 0.10189095E+04</rscale>
<asrwt>0</asrwt>
<pdfrwt beam="1">  1        2 0.16109345E+00 0.10189095E+04</pdfrwt>
<pdfrwt beam="2">  1       -2 0.32880414E-01 0.10189095E+04</pdfrwt>
<totfact> 0.20205269E+02</totfact>
</mgrwt>
</event>
<event>
 4    1  0.5626910E-005  0.1017222E+04  0.7818608E-02  0.9289855E-01
          2   -1    0    0  501    0  0.00000000000E+00  0.00000000000E+00  0.97219448811E+03  0.97219448811E+03  0.25500000000E-02 0.  1.
         -2   -1    0    0    0  501 -0.00000000000E+00 -0.00000000000E+00 -0.26608384620E+03  0.26608384621E+03  0.25500000000E-02 0. -1.
    5000001    1    1    2    0    0  0.27625587575E+03 -0.34797102297E+03  0.54328410303E+03  0.72761442971E+03  0.19200000000E+03 0.  0.
   -5000001    1    1    2    0    0 -0.27625587575E+03  0.34797102297E+03  0.16282653888E+03  0.51066390461E+03  0.19200000000E+03 0.  0.
<mgrwt>
<rscale>  0 0.10172222E+04</rscale>
<asrwt>0</asrwt>
<pdfrwt beam="1">  1        2 0.13888493E+00 0.10172222E+04</pdfrwt>
<pdfrwt beam="2">  1       -2 0.38011978E-01 0.10172222E+04</pdfrwt>
<totfact> 0.19013643E+02</totfact>
</mgrwt>
</event>
<event>
 4    1  0.5626910E-005  0.9115449E+03  0.7818608E-02  0.9411264E-01
         -2   -1    0    0    0  501 -0.00000000000E+00  0.00000000000E+00  0.34588028971E+03  0.34588028972E+03  0.25500000000E-02 0. -1.
          2   -1    0    0  501    0  0.00000000000E+00 -0.00000000000E+00 -0.60057919870E+03  0.60057919871E+03  0.25500000000E-02 0.  1.
    5000001    1    1    2    0    0  0.38404123848E+03  0.61040187897E+02 -0.27290056939E+03  0.51239857354E+03  0.19200000000E+03 0.  0.
   -5000001    1    1    2    0    0 -0.38404123848E+03 -0.61040187897E+02  0.18201660392E+02  0.43406091489E+03  0.19200000000E+03 0.  0.
<mgrwt>
<rscale>  0 0.91154486E+03</rscale>
<asrwt>0</asrwt>
<pdfrwt beam="1">  1        2 0.85797028E-01 0.91154486E+03</pdfrwt>
<pdfrwt beam="2">  1       -2 0.49411470E-01 0.91154486E+03</pdfrwt>
<totfact> 0.21058644E+02</totfact>
</mgrwt>
</event>
<event>
 4    1  0.5626910E-005  0.5450387E+03  0.7818608E-02  0.1002649E+00
         -2   -1    0    0    0  501 -0.00000000000E+00  0.00000000000E+00  0.27121706556E+02  0.27121706676E+02  0.25500000000E-02 0. -1.
          2   -1    0    0  501    0  0.00000000000E+00 -0.00000000000E+00 -0.27382788824E+04  0.27382788824E+04  0.25500000000E-02 0.  1.
    5000001    1    1    2    0    0 -0.31661248307E+02 -0.18928999897E+03 -0.14766768359E+04  0.15014231969E+04  0.19200000000E+03 0.  0.
   -5000001    1    1    2    0    0  0.31661248307E+02  0.18928999897E+03 -0.12344803399E+04  0.12639773922E+04  0.19200000000E+03 0.  0.
<mgrwt>
<rscale>  0 0.54503870E+03</rscale>
<asrwt>0</asrwt>
<pdfrwt beam="1">  1        2 0.39118252E+00 0.54503870E+03</pdfrwt>
<pdfrwt beam="2">  1       -2 0.38745312E-02 0.54503870E+03</pdfrwt>
<totfact> 0.10631960E+03</totfact>
</mgrwt>
</event>
<event>
 4    1  0.5626910E-005  0.6866307E+03  0.7818608E-02  0.9740373E-01
          2   -1    0    0  501    0  0.00000000000E+00  0.00000000000E+00  0.18537721388E+04  0.18537721388E+04  0.25500000000E-02 0.  1.
         -2   -1    0    0    0  501 -0.00000000000E+00 -0.00000000000E+00 -0.63581401370E+02  0.63581401421E+02  0.25500000000E-02 0. -1.
    5000001    1    1    2    0    0  0.21916057574E+03  0.18062659388E+03  0.84329591817E+03  0.91031276492E+03  0.19200000000E+03 0.  0.
   -5000001    1    1    2    0    0 -0.21916057574E+03 -0.18062659388E+03  0.94689481922E+03  0.10070407753E+04  0.19200000000E+03 0.  0.
<mgrwt>
<rscale>  0 0.68663070E+03</rscale>
<asrwt>0</asrwt>
<pdfrwt beam="1">  1        2 0.26482459E+00 0.68663070E+03</pdfrwt>
<pdfrwt beam="2">  1       -2 0.90830573E-02 0.68663070E+03</pdfrwt>
<totfact> 0.78113844E+02</totfact>
</mgrwt>
</event>
<event>
 4    1  0.5626910E-005  0.9597856E+03  0.7818608E-02  0.9353785E-01
          2   -1    0    0  501    0  0.00000000000E+00  0.00000000000E+00  0.12884095081E+04  0.12884095081E+04  0.25500000000E-02 0.  1.
         -2   -1    0    0    0  501 -0.00000000000E+00 -0.00000000000E+00 -0.17874526647E+03  0.17874526649E+03  0.25500000000E-02 0. -1.
    5000001    1    1    2    0    0  0.33401644780E+03 -0.28451170730E+03  0.60117757595E+03  0.76863019510E+03  0.19200000000E+03 0.  0.
   -5000001    1    1    2    0    0 -0.33401644780E+03  0.28451170730E+03  0.50848666570E+03  0.69852457951E+03  0.19200000000E+03 0.  0.
<mgrwt>
<rscale>  0 0.95978560E+03</rscale>
<asrwt>0</asrwt>
<pdfrwt beam="1">  1        2 0.18405850E+00 0.95978560E+03</pdfrwt>
<pdfrwt beam="2">  1       -2 0.25535039E-01 0.95978560E+03</pdfrwt>
<totfact> 0.26225669E+02</totfact>
</mgrwt>
</event>
<event>
 4    1  0.5626910E-005  0.5171440E+03  0.7818608E-02  0.1009398E+00
          2   -1    0    0  501    0  0.00000000000E+00  0.00000000000E+00  0.27538233028E+04  0.27538233028E+04  0.25500000000E-02 0.  1.
         -2   -1    0    0    0  501 -0.00000000000E+00 -0.00000000000E+00 -0.24278781673E+02  0.24278781807E+02  0.25500000000E-02 0. -1.
    5000001    1    1    2    0    0  0.32170157930E+02  0.16878825989E+03  0.14813682688E+04  0.15036091059E+04  0.19200000000E+03 0.  0.
   -5000001    1    1    2    0    0 -0.32170157930E+02 -0.16878825989E+03  0.12481762523E+04  0.12744929787E+04  0.19200000000E+03 0.  0.
<mgrwt>
<rscale>  0 0.51714398E+03</rscale>
<asrwt>0</asrwt>
<pdfrwt beam="1">  1        2 0.39340312E+00 0.51714398E+03</pdfrwt>
<pdfrwt beam="2">  1       -2 0.34683993E-02 0.51714398E+03</pdfrwt>
<totfact> 0.12383873E+03</totfact>
</mgrwt>
</event>
<event>
 4    1  0.5626910E-005  0.4278018E+03  0.7818608E-02  0.1034557E+00
         -2   -1    0    0    0  501 -0.00000000000E+00  0.00000000000E+00  0.18013954952E+02  0.18013955133E+02  0.25500000000E-02 0. -1.
          2   -1    0    0  501    0  0.00000000000E+00 -0.00000000000E+00 -0.25398976627E+04  0.25398976627E+04  0.25500000000E-02 0.  1.
    5000001    1    1    2    0    0 -0.80159035223E+02 -0.49351729422E+02 -0.12928834102E+04  0.13104474719E+04  0.19200000000E+03 0.  0.
   -5000001    1    1    2    0    0  0.80159035223E+02  0.49351729422E+02 -0.12290002975E+04  0.12474641459E+04  0.19200000000E+03 0.  0.
<mgrwt>
<rscale>  0 0.42780183E+03</rscale>
<asrwt>0</asrwt>
<pdfrwt beam="1">  1        2 0.36284229E+00 0.42780183E+03</pdfrwt>
<pdfrwt beam="2">  1       -2 0.25734238E-02 0.42780183E+03</pdfrwt>
<totfact> 0.25229349E+03</totfact>
</mgrwt>
</event>
<event>
 4    1  0.5626910E-005  0.5575195E+03  0.7818608E-02  0.9997683E-01
          2   -1    0    0  501    0  0.00000000000E+00  0.00000000000E+00  0.56293649561E+03  0.56293649561E+03  0.25500000000E-02 0.  1.
         -2   -1    0    0    0  501 -0.00000000000E+00 -0.00000000000E+00 -0.13803866619E+03  0.13803866622E+03  0.25500000000E-02 0. -1.
    5000001    1    1    2    0    0  0.14873858599E+03 -0.13498082560E+03  0.24056359206E+03  0.36752936218E+03  0.19200000000E+03 0.  0.
   -5000001    1    1    2    0    0 -0.14873858599E+03  0.13498082560E+03  0.18433423735E+03  0.33344579965E+03  0.19200000000E+03 0.  0.
<mgrwt>
<rscale>  0 0.55751952E+03</rscale>
<asrwt>0</asrwt>
<pdfrwt beam="1">  1        2 0.80419498E-01 0.55751952E+03</pdfrwt>
<pdfrwt beam="2">  1       -2 0.19719810E-01 0.55751952E+03</pdfrwt>
<totfact> 0.12798237E+03</totfact>
</mgrwt>
</event>
<event>
 4    1  0.5626910E-005  0.7189961E+03  0.7818608E-02  0.9685287E-01
          2   -1    0    0  501    0  0.00000000000E+00  0.00000000000E+00  0.27317464553E+04  0.27317464553E+04  0.25500000000E-02 0.  1.
         -2   -1    0    0    0  501 -0.00000000000E+00 -0.00000000000E+00 -0.47309967984E+02  0.47309968053E+02  0.25500000000E-02 0. -1.
    5000001    1    1    2    0    0 -0.90179232439E+02  0.29016378361E+03  0.13688634405E+04  0.14152662060E+04  0.19200000000E+03 0.  0.
   -5000001    1    1    2    0    0  0.90179232439E+02 -0.29016378361E+03  0.13155730469E+04  0.13637902174E+04  0.19200000000E+03 0.  0.
<mgrwt>
<rscale>  0 0.71899607E+03</rscale>
<asrwt>0</asrwt>
<pdfrwt beam="1">  1        2 0.39024959E+00 0.71899607E+03</pdfrwt>
<pdfrwt beam="2">  1       -2 0.67585651E-02 0.71899607E+03</pdfrwt>
<totfact> 0.44444851E+02</totfact>
</mgrwt>
</event>
<event>
 4    1  0.5626910E-005  0.6197241E+03  0.7818608E-02  0.9865309E-01
         -2   -1    0    0    0  501 -0.00000000000E+00  0.00000000000E+00  0.34432649668E+02  0.34432649763E+02  0.25500000000E-02 0.  1.
          2   -1    0    0  501    0  0.00000000000E+00 -0.00000000000E+00 -0.27884724605E+04  0.27884724605E+04  0.25500000000E-02 0. -1.
    5000001    1    1    2    0    0  0.21003102686E+03  0.39397838623E+02 -0.84805390015E+03  0.89539077474E+03  0.19200000000E+03 0.  0.
   -5000001    1    1    2    0    0 -0.21003102686E+03 -0.39397838623E+02 -0.19059859107E+04  0.19275143355E+04  0.19200000000E+03 0.  0.
<mgrwt>
<rscale>  0 0.61972412E+03</rscale>
<asrwt>0</asrwt>
<pdfrwt beam="1">  1        2 0.39835306E+00 0.61972412E+03</pdfrwt>
<pdfrwt beam="2">  1       -2 0.49189518E-02 0.61972412E+03</pdfrwt>
<totfact> 0.68820363E+02</totfact>
</mgrwt>
</event>
<event>
 4    1  0.5626910E-005  0.8458546E+03  0.7818608E-02  0.9495918E-01
         -2   -1    0    0    0  501 -0.00000000000E+00  0.00000000000E+00  0.15397671699E+03  0.15397671701E+03  0.25500000000E-02 0. -1.
          2   -1    0    0  501    0  0.00000000000E+00 -0.00000000000E+00 -0.11616528662E+04  0.11616528662E+04  0.25500000000E-02 0.  1.
    5000001    1    1    2    0    0 -0.29071949456E+03  0.15325950945E+03 -0.79062506898E+03  0.87747267846E+03  0.19200000000E+03 0.  0.
   -5000001    1    1    2    0    0  0.29071949456E+03 -0.15325950945E+03 -0.21705108026E+03  0.43815690477E+03  0.19200000000E+03 0.  0.
<mgrwt>
<rscale>  0 0.84585458E+03</rscale>
<asrwt>0</asrwt>
<pdfrwt beam="1">  1        2 0.16595040E+00 0.84585458E+03</pdfrwt>
<pdfrwt beam="2">  1       -2 0.21996675E-01 0.84585458E+03</pdfrwt>
<totfact> 0.40628442E+02</totfact>
</mgrwt>
</event>
<event>
 4    1  0.5626910E-005  0.4755957E+03  0.7818608E-02  0.1020353E+00
         -2   -1    0    0    0  501 -0.00000000000E+00  0.00000000000E+00  0.72281633623E+03  0.72281633623E+03  0.25500000000E-02 0. -1.
          2   -1    0    0  501    0  0.00000000000E+00 -0.00000000000E+00 -0.78232626314E+02  0.78232626355E+02  0.25500000000E-02 0.  1.
    5000001    1    1    2    0    0 -0.30799860515E+02  0.86296184447E+02  0.50124225014E+03  0.54452130921E+03  0.19200000000E+03 0.  0.
   -5000001    1    1    2    0    0  0.30799860515E+02 -0.86296184447E+02  0.14334145978E+03  0.25652765338E+03  0.19200000000E+03 0.  0.
<mgrwt>
<rscale>  0 0.47559571E+03</rscale>
<asrwt>0</asrwt>
<pdfrwt beam="1">  1        2 0.11176089E-01 0.47559571E+03</pdfrwt>
<pdfrwt beam="2">  1       -2 0.10325948E+00 0.47559571E+03</pdfrwt>
<totfact> 0.44610469E+02</totfact>
</mgrwt>
</event>
<event>
 4    1  0.5626910E-005  0.6071901E+03  0.7818608E-02  0.9890600E-01
         -2   -1    0    0    0  501 -0.00000000000E+00  0.00000000000E+00  0.48908732422E+02  0.48908732488E+02  0.25500000000E-02 0. -1.
          2   -1    0    0  501    0  0.00000000000E+00 -0.00000000000E+00 -0.18845293219E+04  0.18845293219E+04  0.25500000000E-02 0.  1.
    5000001    1    1    2    0    0 -0.20272742385E+03  0.48123665438E+02 -0.12650477609E+04  0.12963888818E+04  0.19200000000E+03 0.  0.
   -5000001    1    1    2    0    0  0.20272742385E+03 -0.48123665438E+02 -0.57057282859E+03  0.63704917258E+03  0.19200000000E+03 0.  0.
<mgrwt>
<rscale>  0 0.60719005E+03</rscale>
<asrwt>0</asrwt>
<pdfrwt beam="1">  1        2 0.26921843E+00 0.60719005E+03</pdfrwt>
<pdfrwt beam="2">  1       -2 0.69869630E-02 0.60719005E+03</pdfrwt>
<totfact> 0.11505624E+03</totfact>
</mgrwt>
</event>
<event>
 4    1  0.5626910E-005  0.9992030E+03  0.7818608E-02  0.9309419E-01
         -2   -1    0    0    0  501 -0.00000000000E+00  0.00000000000E+00  0.10026482137E+03  0.10026482140E+03  0.25500000000E-02 0. -1.
          2   -1    0    0  501    0  0.00000000000E+00 -0.00000000000E+00 -0.24894241603E+04  0.24894241603E+04  0.25500000000E-02 0.  1.
    5000001    1    1    2    0    0  0.43229104137E+03  0.13842373966E+03 -0.98241970129E+03  0.10991128903E+04  0.19200000000E+03 0.  0.
   -5000001    1    1    2    0    0 -0.43229104137E+03 -0.13842373966E+03 -0.14067396376E+04  0.14905760914E+04  0.19200000000E+03 0.  0.
<mgrwt>
<rscale>  0 0.99920302E+03</rscale>
<asrwt>0</asrwt>
<pdfrwt beam="1">  1        2 0.35563199E+00 0.99920302E+03</pdfrwt>
<pdfrwt beam="2">  1       -2 0.14323547E-01 0.99920302E+03</pdfrwt>
<totfact> 0.17084964E+02</totfact>
</mgrwt>
</event>
<event>
 4    1  0.5626910E-005  0.8523759E+03  0.7818608E-02  0.9487154E-01
          2   -1    0    0  501    0  0.00000000000E+00  0.00000000000E+00  0.31408778799E+03  0.31408778800E+03  0.25500000000E-02 0.  1.
         -2   -1    0    0    0  501 -0.00000000000E+00 -0.00000000000E+00 -0.57829746534E+03  0.57829746535E+03  0.25500000000E-02 0. -1.
    5000001    1    1    2    0    0 -0.18569433845E+03  0.30152260622E+03 -0.27782839857E+03  0.48933719299E+03  0.19200000000E+03 0.  0.
   -5000001    1    1    2    0    0  0.18569433845E+03 -0.30152260622E+03  0.13618721217E+02  0.40304806036E+03  0.19200000000E+03 0.  0.
<mgrwt>
<rscale>  0 0.85237591E+03</rscale>
<asrwt>0</asrwt>
<pdfrwt beam="1">  1        2 0.44869684E-01 0.85237591E+03</pdfrwt>
<pdfrwt beam="2">  1       -2 0.82613923E-01 0.85237591E+03</pdfrwt>
<totfact> 0.14648181E+02</totfact>
</mgrwt>
</event>
<event>
 4    1  0.5626910E-005  0.6289682E+03  0.7818608E-02  0.9847064E-01
         -2   -1    0    0    0  501 -0.00000000000E+00  0.00000000000E+00  0.29756126304E+03  0.29756126305E+03  0.25500000000E-02 0. -1.
          2   -1    0    0  501    0  0.00000000000E+00 -0.00000000000E+00 -0.33236941322E+03  0.33236941323E+03  0.25500000000E-02 0.  1.
    5000001    1    1    2    0    0 -0.23307199564E+03  0.87557171111E+02 -0.24302941618E+02  0.31534654958E+03  0.19200000000E+03 0.  0.
   -5000001    1    1    2    0    0  0.23307199564E+03 -0.87557171111E+02 -0.10505208571E+02  0.31458412670E+03  0.19200000000E+03 0.  0.
<mgrwt>
<rscale>  0 0.62896824E+03</rscale>
<asrwt>0</asrwt>
<pdfrwt beam="1">  1        2 0.47481345E-01 0.62896824E+03</pdfrwt>
<pdfrwt beam="2">  1       -2 0.42508752E-01 0.62896824E+03</pdfrwt>
<totfact> 0.56194932E+02</totfact>
</mgrwt>
</event>
<event>
 4    1  0.5626910E-005  0.9586090E+03  0.7818608E-02  0.9355144E-01
          2   -1    0    0  501    0  0.00000000000E+00  0.00000000000E+00  0.64740183160E+03  0.64740183161E+03  0.25500000000E-02 0.  1.
         -2   -1    0    0    0  501 -0.00000000000E+00 -0.00000000000E+00 -0.35485353037E+03  0.35485353038E+03  0.25500000000E-02 0. -1.
    5000001    1    1    2    0    0  0.43121032275E+03 -0.10801615804E+02  0.59995309147E+02  0.47594375137E+03  0.19200000000E+03 0.  0.
   -5000001    1    1    2    0    0 -0.43121032275E+03  0.10801615804E+02  0.23255299208E+03  0.52631161062E+03  0.19200000000E+03 0.  0.
<mgrwt>
<rscale>  0 0.95860905E+03</rscale>
<asrwt>0</asrwt>
<pdfrwt beam="1">  1        2 0.92485974E-01 0.95860905E+03</pdfrwt>
<pdfrwt beam="2">  1       -2 0.50693362E-01 0.95860905E+03</pdfrwt>
<totfact> 0.18226123E+02</totfact>
</mgrwt>
</event>
<event>
 4    1  0.5626910E-005  0.9501076E+03  0.7818608E-02  0.9365025E-01
         -2   -1    0    0    0  501 -0.00000000000E+00  0.00000000000E+00  0.10285776572E+03  0.10285776575E+03  0.25500000000E-02 0. -1.
          2   -1    0    0  501    0  0.00000000000E+00 -0.00000000000E+00 -0.21940599186E+04  0.21940599186E+04  0.25500000000E-02 0.  1.
    5000001    1    1    2    0    0 -0.39530838946E+03  0.10659961482E+03 -0.13974324857E+04  0.14687796815E+04  0.19200000000E+03 0.  0.
   -5000001    1    1    2    0    0  0.39530838946E+03 -0.10659961482E+03 -0.69376966711E+03  0.82813800279E+03  0.19200000000E+03 0.  0.
<mgrwt>
<rscale>  0 0.95010758E+03</rscale>
<asrwt>0</asrwt>
<pdfrwt beam="1">  1        2 0.31343710E+00 0.95010758E+03</pdfrwt>
<pdfrwt beam="2">  1       -2 0.14693968E-01 0.95010758E+03</pdfrwt>
<totfact> 0.23314844E+02</totfact>
</mgrwt>
</event>
<event>
 4    1  0.5626910E-005  0.7208220E+03  0.7818608E-02  0.9682272E-01
          2   -1    0    0  501    0  0.00000000000E+00  0.00000000000E+00  0.24334759077E+04  0.24334759077E+04  0.25500000000E-02 0.  1.
         -2   -1    0    0    0  501 -0.00000000000E+00 -0.00000000000E+00 -0.53378826662E+02  0.53378826723E+02  0.25500000000E-02 0. -1.
    5000001    1    1    2    0    0  0.26502651889E+03  0.48270257430E+02  0.16835713150E+04  0.17157638084E+04  0.19200000000E+03 0.  0.
   -5000001    1    1    2    0    0 -0.26502651889E+03 -0.48270257430E+02  0.69652576606E+03  0.77109092606E+03  0.19200000000E+03 0.  0.
<mgrwt>
<rscale>  0 0.72082200E+03</rscale>
<asrwt>0</asrwt>
<pdfrwt beam="1">  1        2 0.34763948E+00 0.72082200E+03</pdfrwt>
<pdfrwt beam="2">  1       -2 0.76255452E-02 0.72082200E+03</pdfrwt>
<totfact> 0.52439022E+02</totfact>
</mgrwt>
</event>
<event>
 4    1  0.5626910E-005  0.1035868E+04  0.7818608E-02  0.9270057E-01
          2   -1    0    0  501    0  0.00000000000E+00  0.00000000000E+00  0.10759062092E+04  0.10759062092E+04  0.25500000000E-02 0.  1.
         -2   -1    0    0    0  501 -0.00000000000E+00 -0.00000000000E+00 -0.24933016993E+03  0.24933016995E+03  0.25500000000E-02 0. -1.
    5000001    1    1    2    0    0  0.77968624964E+02  0.27901646641E+03 -0.77992618499E+02  0.35619677644E+03  0.19200000000E+03 0.  0.
   -5000001    1    1    2    0    0 -0.77968624964E+02 -0.27901646641E+03  0.90456865778E+03  0.96903960273E+03  0.19200000000E+03 0.  0.
<mgrwt>
<rscale>  0 0.10358685E+04</rscale>
<asrwt>0</asrwt>
<pdfrwt beam="1">  1        2 0.15370089E+00 0.10358685E+04</pdfrwt>
<pdfrwt beam="2">  1       -2 0.35618596E-01 0.10358685E+04</pdfrwt>
<totfact> 0.18602396E+02</totfact>
</mgrwt>
</event>
<event>
 4    1  0.5626910E-005  0.4955808E+03  0.7818608E-02  0.1014939E+00
         -2   -1    0    0    0  501 -0.00000000000E+00  0.00000000000E+00  0.12111063614E+03  0.12111063616E+03  0.25500000000E-02 0. -1.
          2   -1    0    0  501    0  0.00000000000E+00 -0.00000000000E+00 -0.50697505225E+03  0.50697505226E+03  0.25500000000E-02 0.  1.
    5000001    1    1    2    0    0 -0.13374309737E+03  0.36568179649E+02 -0.28529947554E+03  0.37078867108E+03  0.19200000000E+03 0.  0.
   -5000001    1    1    2    0    0  0.13374309737E+03 -0.36568179649E+02 -0.10056494057E+03  0.25729701734E+03  0.19200000000E+03 0.  0.
<mgrwt>
<rscale>  0 0.49558075E+03</rscale>
<asrwt>0</asrwt>
<pdfrwt beam="1">  1        2 0.72425006E-01 0.49558075E+03</pdfrwt>
<pdfrwt beam="2">  1       -2 0.17301520E-01 0.49558075E+03</pdfrwt>
<totfact> 0.18067450E+03</totfact>
</mgrwt>
</event>
<event>
 4    1  0.5626910E-005  0.6654825E+03  0.7818608E-02  0.9778153E-01
          2   -1    0    0  501    0  0.00000000000E+00  0.00000000000E+00  0.37424764336E+03  0.37424764337E+03  0.25500000000E-02 0.  1.
         -2   -1    0    0    0  501 -0.00000000000E+00 -0.00000000000E+00 -0.29583814330E+03  0.29583814331E+03  0.25500000000E-02 0. -1.
    5000001    1    1    2    0    0  0.97617068383E+02  0.24298223174E+03  0.11239365206E+03  0.34360702846E+03  0.19200000000E+03 0.  0.
   -5000001    1    1    2    0    0 -0.97617068383E+02 -0.24298223174E+03 -0.33984152001E+02  0.32647875822E+03  0.19200000000E+03 0.  0.
<mgrwt>
<rscale>  0 0.66548247E+03</rscale>
<asrwt>0</asrwt>
<pdfrwt beam="1">  1        2 0.53463949E-01 0.66548247E+03</pdfrwt>
<pdfrwt beam="2">  1       -2 0.42262592E-01 0.66548247E+03</pdfrwt>
<totfact> 0.49798817E+02</totfact>
</mgrwt>
</event>
<event>
 4    1  0.5626910E-005  0.8285552E+03  0.7818608E-02  0.9519580E-01
         -2   -1    0    0    0  501 -0.00000000000E+00  0.00000000000E+00  0.78091825211E+02  0.78091825253E+02  0.25500000000E-02 0. -1.
          2   -1    0    0  501    0  0.00000000000E+00 -0.00000000000E+00 -0.21977452439E+04  0.21977452439E+04  0.25500000000E-02 0.  1.
    5000001    1    1    2    0    0 -0.33110384154E+02  0.35855085759E+03 -0.86353618157E+03  0.95509881787E+03  0.19200000000E+03 0.  0.
   -5000001    1    1    2    0    0  0.33110384154E+02 -0.35855085759E+03 -0.12561172371E+04  0.13207382513E+04  0.19200000000E+03 0.  0.
<mgrwt>
<rscale>  0 0.82855522E+03</rscale>
<asrwt>0</asrwt>
<pdfrwt beam="1">  1        2 0.31396357E+00 0.82855522E+03</pdfrwt>
<pdfrwt beam="2">  1       -2 0.11155976E-01 0.82855522E+03</pdfrwt>
<totfact> 0.37079229E+02</totfact>
</mgrwt>
</event>
<event>
 4    1  0.5626910E-005  0.5032482E+03  0.7818608E-02  0.1012935E+00
          2   -1    0    0  501    0  0.00000000000E+00  0.00000000000E+00  0.23784862066E+04  0.23784862066E+04  0.25500000000E-02 0.  1.
         -2   -1    0    0    0  501 -0.00000000000E+00 -0.00000000000E+00 -0.26619742751E+02  0.26619742873E+02  0.25500000000E-02 0. -1.
    5000001    1    1    2    0    0  0.55185852558E+02 -0.14624501067E+03  0.13906028296E+04  0.14124706409E+04  0.19200000000E+03 0.  0.
   -5000001    1    1    2    0    0 -0.55185852558E+02  0.14624501067E+03  0.96126363416E+03  0.99263530858E+03  0.19200000000E+03 0.  0.
<mgrwt>
<rscale>  0 0.50324821E+03</rscale>
<asrwt>0</asrwt>
<pdfrwt beam="1">  1        2 0.33978362E+00 0.50324821E+03</pdfrwt>
<pdfrwt beam="2">  1       -2 0.38028218E-02 0.50324821E+03</pdfrwt>
<totfact> 0.16795729E+03</totfact>
</mgrwt>
</event>
<event>
 4    1  0.5626910E-005  0.4991326E+03  0.7818608E-02  0.1014006E+00
          2   -1    0    0  501    0  0.00000000000E+00  0.00000000000E+00  0.70126183541E+03  0.70126183542E+03  0.25500000000E-02 0.  1.
         -2   -1    0    0    0  501 -0.00000000000E+00 -0.00000000000E+00 -0.88816081078E+02  0.88816081114E+02  0.25500000000E-02 0. -1.
    5000001    1    1    2    0    0  0.15120445571E+03 -0.50313690590E+02  0.31414895913E+03  0.40118302981E+03  0.19200000000E+03 0.  0.
   -5000001    1    1    2    0    0 -0.15120445571E+03  0.50313690590E+02  0.29829679521E+03  0.38889488672E+03  0.19200000000E+03 0.  0.
<mgrwt>
<rscale>  0 0.49913256E+03</rscale>
<asrwt>0</asrwt>
<pdfrwt beam="1">  1        2 0.10018027E+00 0.49913256E+03</pdfrwt>
<pdfrwt beam="2">  1       -2 0.12688011E-01 0.49913256E+03</pdfrwt>
<totfact> 0.20780015E+03</totfact>
</mgrwt>
</event>
<event>
 4    1  0.5626910E-005  0.6012876E+03  0.7818608E-02  0.9902738E-01
          2   -1    0    0  501    0  0.00000000000E+00  0.00000000000E+00  0.11498207244E+04  0.11498207244E+04  0.25500000000E-02 0.  1.
         -2   -1    0    0    0  501 -0.00000000000E+00 -0.00000000000E+00 -0.78609376169E+02  0.78609376210E+02  0.25500000000E-02 0. -1.
    5000001    1    1    2    0    0 -0.75459358027E+02  0.21866910503E+03  0.52841220669E+03  0.60794222784E+03  0.19200000000E+03 0.  0.
   -5000001    1    1    2    0    0  0.75459358027E+02 -0.21866910503E+03  0.54279914159E+03  0.62048787282E+03  0.19200000000E+03 0.  0.
<mgrwt>
<rscale>  0 0.60128758E+03</rscale>
<asrwt>0</asrwt>
<pdfrwt beam="1">  1        2 0.16426011E+00 0.60128758E+03</pdfrwt>
<pdfrwt beam="2">  1       -2 0.11229910E-01 0.60128758E+03</pdfrwt>
<totfact> 0.13060697E+03</totfact>
</mgrwt>
</event>
<event>
 4    1  0.5626910E-005  0.4918861E+03  0.7818608E-02  0.1015919E+00
         -2   -1    0    0    0  501 -0.00000000000E+00  0.00000000000E+00  0.55950864167E+03  0.55950864167E+03  0.25500000000E-02 0. -1.
          2   -1    0    0  501    0  0.00000000000E+00 -0.00000000000E+00 -0.10810911409E+03  0.10810911412E+03  0.25500000000E-02 0.  1.
    5000001    1    1    2    0    0  0.13964208339E+03 -0.44686516847E+01  0.13874918637E+03  0.27501857577E+03  0.19200000000E+03 0.  0.
   -5000001    1    1    2    0    0 -0.13964208339E+03  0.44686516847E+01  0.31265034120E+03  0.39259918002E+03  0.19200000000E+03 0.  0.
<mgrwt>
<rscale>  0 0.49188610E+03</rscale>
<asrwt>0</asrwt>
<pdfrwt beam="1">  1        2 0.15444159E-01 0.49188610E+03</pdfrwt>
<pdfrwt beam="2">  1       -2 0.79929806E-01 0.49188610E+03</pdfrwt>
<totfact> 0.54040428E+02</totfact>
</mgrwt>
</event>
<event>
 4    1  0.5626910E-005  0.9350760E+03  0.7818608E-02  0.9382767E-01
          2   -1    0    0  501    0  0.00000000000E+00  0.00000000000E+00  0.26123949036E+03  0.26123949037E+03  0.25500000000E-02 0.  1.
         -2   -1    0    0    0  501 -0.00000000000E+00 -0.00000000000E+00 -0.83674863912E+03  0.83674863913E+03  0.25500000000E-02 0. -1.
    5000001    1    1    2    0    0 -0.69619711875E+02  0.24279743632E+03  0.11548524246E+03  0.33763640295E+03  0.19200000000E+03 0.  0.
   -5000001    1    1    2    0    0  0.69619711875E+02 -0.24279743632E+03 -0.69099439123E+03  0.76035172655E+03  0.19200000000E+03 0.  0.
<mgrwt>
<rscale>  0 0.93507601E+03</rscale>
<asrwt>0</asrwt>
<pdfrwt beam="1">  1        2 0.37319928E-01 0.93507601E+03</pdfrwt>
<pdfrwt beam="2">  1       -2 0.11953552E+00 0.93507601E+03</pdfrwt>
<totfact> 0.74746417E+01</totfact>
</mgrwt>
</event>
<event>
 4    1  0.5626910E-005  0.1330670E+04  0.7818608E-02  0.9005591E-01
          2   -1    0    0  501    0  0.00000000000E+00  0.00000000000E+00  0.78179828645E+03  0.78179828645E+03  0.25500000000E-02 0.  1.
         -2   -1    0    0    0  501 -0.00000000000E+00 -0.00000000000E+00 -0.56622116753E+03  0.56622116754E+03  0.25500000000E-02 0. -1.
    5000001    1    1    2    0    0  0.19828907174E+03 -0.34431093673E+03  0.61221453749E+03  0.75467822086E+03  0.19200000000E+03 0.  0.
   -5000001    1    1    2    0    0 -0.19828907174E+03  0.34431093673E+03 -0.39663741857E+03  0.59334123313E+03  0.19200000000E+03 0.  0.
<mgrwt>
<rscale>  0 0.13306701E+04</rscale>
<asrwt>0</asrwt>
<pdfrwt beam="1">  1        2 0.11168547E+00 0.13306701E+04</pdfrwt>
<pdfrwt beam="2">  1       -2 0.80888739E-01 0.13306701E+04</pdfrwt>
<totfact> 0.51722715E+01</totfact>
</mgrwt>
</event>
<event>
 4    1  0.5626910E-005  0.5633530E+03  0.7818608E-02  0.9984496E-01
         -2   -1    0    0    0  501 -0.00000000000E+00  0.00000000000E+00  0.92105696089E+02  0.92105696124E+02  0.25500000000E-02 0. -1.
          2   -1    0    0  501    0  0.00000000000E+00 -0.00000000000E+00 -0.86141964838E+03  0.86141964839E+03  0.25500000000E-02 0.  1.
    5000001    1    1    2    0    0  0.16571444041E+03 -0.10452599296E+02 -0.17800072701E+03  0.31003030724E+03  0.19200000000E+03 0.  0.
   -5000001    1    1    2    0    0 -0.16571444041E+03  0.10452599296E+02 -0.59131322528E+03  0.64349503727E+03  0.19200000000E+03 0.  0.
<mgrwt>
<rscale>  0 0.56335302E+03</rscale>
<asrwt>0</asrwt>
<pdfrwt beam="1">  1        2 0.12305995E+00 0.56335302E+03</pdfrwt>
<pdfrwt beam="2">  1       -2 0.13157957E-01 0.56335302E+03</pdfrwt>
<totfact> 0.15094113E+03</totfact>
</mgrwt>
</event>
<event>
 4    1  0.5626910E-005  0.5840524E+03  0.7818608E-02  0.9939056E-01
         -2   -1    0    0    0  501 -0.00000000000E+00  0.00000000000E+00  0.13710850425E+03  0.13710850428E+03  0.25500000000E-02 0. -1.
          2   -1    0    0  501    0  0.00000000000E+00 -0.00000000000E+00 -0.62198402570E+03  0.62198402571E+03  0.25500000000E-02 0.  1.
    5000001    1    1    2    0    0 -0.17442367326E+03  0.11734715900E+03 -0.32688147985E+03  0.43348526548E+03  0.19200000000E+03 0.  0.
   -5000001    1    1    2    0    0  0.17442367326E+03 -0.11734715900E+03 -0.15799404159E+03  0.32560726450E+03  0.19200000000E+03 0.  0.
<mgrwt>
<rscale>  0 0.58405239E+03</rscale>
<asrwt>0</asrwt>
<pdfrwt beam="1">  1        2 0.88854860E-01 0.58405239E+03</pdfrwt>
<pdfrwt beam="2">  1       -2 0.19586929E-01 0.58405239E+03</pdfrwt>
<totfact> 0.11519124E+03</totfact>
</mgrwt>
</event>
<event>
 4    1  0.5626910E-005  0.8085207E+03  0.7818608E-02  0.9547765E-01
          2   -1    0    0  501    0  0.00000000000E+00  0.00000000000E+00  0.53604094927E+03  0.53604094928E+03  0.25500000000E-02 0.  1.
         -2   -1    0    0    0  501 -0.00000000000E+00 -0.00000000000E+00 -0.30487679957E+03  0.30487679958E+03  0.25500000000E-02 0. -1.
    5000001    1    1    2    0    0  0.32571120296E+03  0.11049872941E+03  0.21013515722E+03  0.44645105133E+03  0.19200000000E+03 0.  0.
   -5000001    1    1    2    0    0 -0.32571120296E+03 -0.11049872941E+03  0.21028992474E+02  0.39446669753E+03  0.19200000000E+03 0.  0.
<mgrwt>
<rscale>  0 0.80852075E+03</rscale>
<asrwt>0</asrwt>
<pdfrwt beam="1">  1        2 0.76577278E-01 0.80852075E+03</pdfrwt>
<pdfrwt beam="2">  1       -2 0.43553829E-01 0.80852075E+03</pdfrwt>
<totfact> 0.31128248E+02</totfact>
</mgrwt>
</event>
<event>
 4    1  0.5626910E-005  0.6443631E+03  0.7818608E-02  0.9817414E-01
         -2   -1    0    0    0  501 -0.00000000000E+00  0.00000000000E+00  0.36129594777E+02  0.36129594867E+02  0.25500000000E-02 0. -1.
          2   -1    0    0  501    0  0.00000000000E+00 -0.00000000000E+00 -0.28730170839E+04  0.28730170840E+04  0.25500000000E-02 0.  1.
    5000001    1    1    2    0    0  0.22122179047E+03  0.44623539581E+02 -0.19896389465E+04  0.20115808406E+04  0.19200000000E+03 0.  0.
   -5000001    1    1    2    0    0 -0.22122179047E+03 -0.44623539581E+02 -0.84724854266E+03  0.89756583820E+03  0.19200000000E+03 0.  0.
<mgrwt>
<rscale>  0 0.64436308E+03</rscale>
<asrwt>0</asrwt>
<pdfrwt beam="1">  1        2 0.41043087E+00 0.64436308E+03</pdfrwt>
<pdfrwt beam="2">  1       -2 0.51613725E-02 0.64436308E+03</pdfrwt>
<totfact> 0.57451483E+02</totfact>
</mgrwt>
</event>
<event>
 4    1  0.5626910E-005  0.7123717E+03  0.7818608E-02  0.9696306E-01
          2   -1    0    0  501    0  0.00000000000E+00  0.00000000000E+00  0.24120720787E+04  0.24120720787E+04  0.25500000000E-02 0.  1.
         -2   -1    0    0    0  501 -0.00000000000E+00 -0.00000000000E+00 -0.52597255978E+02  0.52597256040E+02  0.25500000000E-02 0. -1.
    5000001    1    1    2    0    0  0.28259652243E+03 -0.75144038901E+02  0.94772507025E+03  0.10102248412E+04  0.19200000000E+03 0.  0.
   -5000001    1    1    2    0    0 -0.28259652243E+03  0.75144038901E+02  0.14117497524E+04  0.14544444935E+04  0.19200000000E+03 0.  0.
<mgrwt>
<rscale>  0 0.71237174E+03</rscale>
<asrwt>0</asrwt>
<pdfrwt beam="1">  1        2 0.34458179E+00 0.71237174E+03</pdfrwt>
<pdfrwt beam="2">  1       -2 0.75138922E-02 0.71237174E+03</pdfrwt>
<totfact> 0.55096436E+02</totfact>
</mgrwt>
</event>
<event>
 4    1  0.5626910E-005  0.5462625E+03  0.7818608E-02  0.1002363E+00
         -2   -1    0    0    0  501 -0.00000000000E+00  0.00000000000E+00  0.30926081691E+02  0.30926081796E+02  0.25500000000E-02 0. -1.
          2   -1    0    0  501    0  0.00000000000E+00 -0.00000000000E+00 -0.24122255558E+04  0.24122255558E+04  0.25500000000E-02 0.  1.
    5000001    1    1    2    0    0 -0.19163109138E+03 -0.61519787217E+01 -0.10508988382E+04  0.10853629301E+04  0.19200000000E+03 0.  0.
   -5000001    1    1    2    0    0  0.19163109138E+03  0.61519787217E+01 -0.13304006359E+04  0.13577887075E+04  0.19200000000E+03 0.  0.
<mgrwt>
<rscale>  0 0.54626252E+03</rscale>
<asrwt>0</asrwt>
<pdfrwt beam="1">  1        2 0.34460353E+00 0.54626252E+03</pdfrwt>
<pdfrwt beam="2">  1       -2 0.44180132E-02 0.54626252E+03</pdfrwt>
<totfact> 0.12796717E+03</totfact>
</mgrwt>
</event>
<event>
 4    1  0.5626910E-005  0.5474258E+03  0.7818608E-02  0.1002092E+00
         -2   -1    0    0    0  501 -0.00000000000E+00  0.00000000000E+00  0.20759887747E+02  0.20759887904E+02  0.25500000000E-02 0. -1.
          2   -1    0    0  501    0  0.00000000000E+00 -0.00000000000E+00 -0.36088222917E+04  0.36088222917E+04  0.25500000000E-02 0.  1.
    5000001    1    1    2    0    0 -0.18382469584E+03 -0.15119306354E+02 -0.22151779450E+04  0.22311202209E+04  0.19200000000E+03 0.  0.
   -5000001    1    1    2    0    0  0.18382469584E+03  0.15119306354E+02 -0.13728844589E+04  0.13984619586E+04  0.19200000000E+03 0.  0.
<mgrwt>
<rscale>  0 0.54742578E+03</rscale>
<asrwt>0</asrwt>
<pdfrwt beam="1">  1        2 0.51554564E+00 0.54742578E+03</pdfrwt>
<pdfrwt beam="2">  1       -2 0.29657006E-02 0.54742578E+03</pdfrwt>
<totfact> 0.51990303E+02</totfact>
</mgrwt>
</event>
<event>
 4    1  0.5626910E-005  0.6237755E+03  0.7818608E-02  0.9857271E-01
          2   -1    0    0  501    0  0.00000000000E+00  0.00000000000E+00  0.18138625395E+04  0.18138625395E+04  0.25500000000E-02 0.  1.
         -2   -1    0    0    0  501 -0.00000000000E+00 -0.00000000000E+00 -0.53628090266E+02  0.53628090327E+02  0.25500000000E-02 0. -1.
    5000001    1    1    2    0    0  0.63455894624E+01 -0.15052538947E+03  0.29872548508E+03  0.38574483122E+03  0.19200000000E+03 0.  0.
   -5000001    1    1    2    0    0 -0.63455894624E+01  0.15052538947E+03  0.14615089642E+04  0.14817457986E+04  0.19200000000E+03 0.  0.
<mgrwt>
<rscale>  0 0.62377555E+03</rscale>
<asrwt>0</asrwt>
<pdfrwt beam="1">  1        2 0.25912330E+00 0.62377555E+03</pdfrwt>
<pdfrwt beam="2">  1       -2 0.76611535E-02 0.62377555E+03</pdfrwt>
<totfact> 0.10783535E+03</totfact>
</mgrwt>
</event>
<event>
 4    1  0.5626910E-005  0.7894931E+03  0.7818608E-02  0.9575351E-01
         -2   -1    0    0    0  501 -0.00000000000E+00  0.00000000000E+00  0.65719978244E+02  0.65719978294E+02  0.25500000000E-02 0. -1.
          2   -1    0    0  501    0  0.00000000000E+00 -0.00000000000E+00 -0.23710418942E+04  0.23710418942E+04  0.25500000000E-02 0.  1.
    5000001    1    1    2    0    0 -0.67472225690E+02  0.17445012648E+03 -0.25824197640E+03  0.37220728935E+03  0.19200000000E+03 0.  0.
   -5000001    1    1    2    0    0  0.67472225690E+02 -0.17445012648E+03 -0.20470799396E+04  0.20645545832E+04  0.19200000000E+03 0.  0.
<mgrwt>
<rscale>  0 0.78949306E+03</rscale>
<asrwt>0</asrwt>
<pdfrwt beam="1">  1        2 0.33872022E+00 0.78949306E+03</pdfrwt>
<pdfrwt beam="2">  1       -2 0.93885698E-02 0.78949306E+03</pdfrwt>
<totfact> 0.40200573E+02</totfact>
</mgrwt>
</event>
<event>
 4    1  0.5626910E-005  0.1124012E+04  0.7818608E-02  0.9182099E-01
         -2   -1    0    0    0  501 -0.00000000000E+00  0.00000000000E+00  0.49984180940E+03  0.49984180941E+03  0.25500000000E-02 0. -1.
          2   -1    0    0  501    0  0.00000000000E+00 -0.00000000000E+00 -0.63190183324E+03  0.63190183325E+03  0.25500000000E-02 0.  1.
    5000001    1    1    2    0    0 -0.18914570560E+03  0.23947045271E+03 -0.50011573066E+03  0.61652407879E+03  0.19200000000E+03 0.  0.
   -5000001    1    1    2    0    0  0.18914570560E+03 -0.23947045271E+03  0.36805570682E+03  0.51521956387E+03  0.19200000000E+03 0.  0.
<mgrwt>
<rscale>  0 0.11240124E+04</rscale>
<asrwt>0</asrwt>
<pdfrwt beam="1">  1        2 0.90271691E-01 0.11240124E+04</pdfrwt>
<pdfrwt beam="2">  1       -2 0.71405973E-01 0.11240124E+04</pdfrwt>
<totfact> 0.90084045E+01</totfact>
</mgrwt>
</event>
<event>
 4    1  0.5626910E-005  0.5218192E+03  0.7818608E-02  0.1008236E+00
          2   -1    0    0  501    0  0.00000000000E+00  0.00000000000E+00  0.43771229214E+04  0.43771229214E+04  0.25500000000E-02 0.  1.
         -2   -1    0    0    0  501 -0.00000000000E+00 -0.00000000000E+00 -0.15552181641E+02  0.15552181850E+02  0.25500000000E-02 0. -1.
    5000001    1    1    2    0    0  0.48978370865E+00  0.13995988644E+03  0.30882445438E+04  0.30973710421E+04  0.19200000000E+03 0.  0.
   -5000001    1    1    2    0    0 -0.48978370865E+00 -0.13995988644E+03  0.12733261960E+04  0.12953040612E+04  0.19200000000E+03 0.  0.
<mgrwt>
<rscale>  0 0.52181917E+03</rscale>
<asrwt>0</asrwt>
<pdfrwt beam="1">  1        2 0.62530404E+00 0.52181917E+03</pdfrwt>
<pdfrwt beam="2">  1       -2 0.22217375E-02 0.52181917E+03</pdfrwt>
<totfact> 0.24801211E+02</totfact>
</mgrwt>
</event>
<event>
 4    1  0.5626910E-005  0.4515911E+03  0.7818608E-02  0.1027249E+00
         -2   -1    0    0    0  501 -0.00000000000E+00  0.00000000000E+00  0.27023529000E+02  0.27023529121E+02  0.25500000000E-02 0. -1.
          2   -1    0    0  501    0  0.00000000000E+00 -0.00000000000E+00 -0.18866385398E+04  0.18866385398E+04  0.25500000000E-02 0.  1.
    5000001    1    1    2    0    0  0.46815096894E+02 -0.10046191876E+03 -0.11113519589E+04  0.11332481753E+04  0.19200000000E+03 0.  0.
   -5000001    1    1    2    0    0 -0.46815096894E+02  0.10046191876E+03 -0.74826305190E+03  0.78041389355E+03  0.19200000000E+03 0.  0.
<mgrwt>
<rscale>  0 0.45159110E+03</rscale>
<asrwt>0</asrwt>
<pdfrwt beam="1">  1        2 0.26951971E+00 0.45159110E+03</pdfrwt>
<pdfrwt beam="2">  1       -2 0.38605053E-02 0.45159110E+03</pdfrwt>
<totfact> 0.28974472E+03</totfact>
</mgrwt>
</event>
<event>
 4    1  0.5626910E-005  0.4542580E+03  0.7818608E-02  0.1026460E+00
         -2   -1    0    0    0  501 -0.00000000000E+00  0.00000000000E+00  0.19346113806E+03  0.19346113807E+03  0.25500000000E-02 0. -1.
          2   -1    0    0  501    0  0.00000000000E+00 -0.00000000000E+00 -0.26665601121E+03  0.26665601122E+03  0.25500000000E-02 0.  1.
    5000001    1    1    2    0    0 -0.90711901151E+02  0.79996796559E+02 -0.46492729571E+02  0.23163270575E+03  0.19200000000E+03 0.  0.
   -5000001    1    1    2    0    0  0.90711901151E+02 -0.79996796559E+02 -0.26702143579E+02  0.22848444354E+03  0.19200000000E+03 0.  0.
<mgrwt>
<rscale>  0 0.45425797E+03</rscale>
<asrwt>0</asrwt>
<pdfrwt beam="1">  1        2 0.38093716E-01 0.45425797E+03</pdfrwt>
<pdfrwt beam="2">  1       -2 0.27637306E-01 0.45425797E+03</pdfrwt>
<totfact> 0.16138423E+03</totfact>
</mgrwt>
</event>
<event>
 4    1  0.5626910E-005  0.4935547E+03  0.7818608E-02  0.1015475E+00
          2   -1    0    0  501    0  0.00000000000E+00  0.00000000000E+00  0.70526487055E+02  0.70526487101E+02  0.25500000000E-02 0.  1.
         -2   -1    0    0    0  501 -0.00000000000E+00 -0.00000000000E+00 -0.86349198036E+03  0.86349198037E+03  0.25500000000E-02 0. -1.
    5000001    1    1    2    0    0 -0.37126304043E+01 -0.15169130145E+03 -0.45665556723E+03  0.51809491567E+03  0.19200000000E+03 0.  0.
   -5000001    1    1    2    0    0  0.37126304043E+01  0.15169130145E+03 -0.33630992608E+03  0.41592355180E+03  0.19200000000E+03 0.  0.
<mgrwt>
<rscale>  0 0.49355468E+03</rscale>
<asrwt>0</asrwt>
<pdfrwt beam="1">  1        2 0.10075213E-01 0.49355468E+03</pdfrwt>
<pdfrwt beam="2">  1       -2 0.12335599E+00 0.49355468E+03</pdfrwt>
<totfact> 0.33049415E+02</totfact>
</mgrwt>
</event>
<event>
 4    1  0.5626910E-005  0.4695717E+03  0.7818608E-02  0.1022041E+00
          2   -1    0    0  501    0  0.00000000000E+00  0.00000000000E+00  0.27150122935E+03  0.27150122936E+03  0.25500000000E-02 0.  1.
         -2   -1    0    0    0  501 -0.00000000000E+00 -0.00000000000E+00 -0.20303554049E+03  0.20303554051E+03  0.25500000000E-02 0. -1.
    5000001    1    1    2    0    0  0.11254468114E+03 -0.70564327570E+02  0.59289552731E+02  0.24088354166E+03  0.19200000000E+03 0.  0.
   -5000001    1    1    2    0    0 -0.11254468114E+03  0.70564327570E+02  0.91761361321E+01  0.23365322821E+03  0.19200000000E+03 0.  0.
<mgrwt>
<rscale>  0 0.46957171E+03</rscale>
<asrwt>0</asrwt>
<pdfrwt beam="1">  1        2 0.38785890E-01 0.46957171E+03</pdfrwt>
<pdfrwt beam="2">  1       -2 0.29005077E-01 0.46957171E+03</pdfrwt>
<totfact> 0.14493550E+03</totfact>
</mgrwt>
</event>
<event>
 4    1  0.5626910E-005  0.6186920E+03  0.7818608E-02  0.9867367E-01
         -2   -1    0    0    0  501 -0.00000000000E+00  0.00000000000E+00  0.20987453763E+03  0.20987453764E+03  0.25500000000E-02 0. -1.
          2   -1    0    0  501    0  0.00000000000E+00 -0.00000000000E+00 -0.45596260185E+03  0.45596260186E+03  0.25500000000E-02 0.  1.
    5000001    1    1    2    0    0  0.11005998412E+03  0.18056091720E+03 -0.25090606164E+03  0.38017534993E+03  0.19200000000E+03 0.  0.
   -5000001    1    1    2    0    0 -0.11005998412E+03 -0.18056091720E+03  0.48179974158E+01  0.28566178958E+03  0.19200000000E+03 0.  0.
<mgrwt>
<rscale>  0 0.61869198E+03</rscale>
<asrwt>0</asrwt>
<pdfrwt beam="1">  1        2 0.65137514E-01 0.61869198E+03</pdfrwt>
<pdfrwt beam="2">  1       -2 0.29982077E-01 0.61869198E+03</pdfrwt>
<totfact> 0.76862093E+02</totfact>
</mgrwt>
</event>
<event>
 4    1  0.5626910E-005  0.7805950E+03  0.7818608E-02  0.9588538E-01
         -2   -1    0    0    0  501 -0.00000000000E+00  0.00000000000E+00  0.13590290914E+03  0.13590290916E+03  0.25500000000E-02 0. -1.
          2   -1    0    0  501    0  0.00000000000E+00 -0.00000000000E+00 -0.11208893220E+04  0.11208893220E+04  0.25500000000E-02 0.  1.
    5000001    1    1    2    0    0  0.19040354010E+03  0.27694267735E+03 -0.41171190412E+03  0.56508534454E+03  0.19200000000E+03 0.  0.
   -5000001    1    1    2    0    0 -0.19040354010E+03 -0.27694267735E+03 -0.57327450871E+03  0.69170688659E+03  0.19200000000E+03 0.  0.
<mgrwt>
<rscale>  0 0.78059495E+03</rscale>
<asrwt>0</asrwt>
<pdfrwt beam="1">  1        2 0.16012704E+00 0.78059495E+03</pdfrwt>
<pdfrwt beam="2">  1       -2 0.19414702E-01 0.78059495E+03</pdfrwt>
<totfact> 0.53579113E+02</totfact>
</mgrwt>
</event>
<event>
 4    1  0.5626910E-005  0.5108353E+03  0.7818608E-02  0.1010989E+00
          2   -1    0    0  501    0  0.00000000000E+00  0.00000000000E+00  0.98720579930E+03  0.98720579930E+03  0.25500000000E-02 0.  1.
         -2   -1    0    0    0  501 -0.00000000000E+00 -0.00000000000E+00 -0.66083667651E+02  0.66083667701E+02  0.25500000000E-02 0. -1.
    5000001    1    1    2    0    0 -0.14295258496E+03 -0.79735484154E+02  0.37857660876E+03  0.45494773071E+03  0.19200000000E+03 0.  0.
   -5000001    1    1    2    0    0  0.14295258496E+03  0.79735484154E+02  0.54254552288E+03  0.59834173629E+03  0.19200000000E+03 0.  0.
<mgrwt>
<rscale>  0 0.51083532E+03</rscale>
<asrwt>0</asrwt>
<pdfrwt beam="1">  1        2 0.14102939E+00 0.51083532E+03</pdfrwt>
<pdfrwt beam="2">  1       -2 0.94405246E-02 0.51083532E+03</pdfrwt>
<totfact> 0.21605790E+03</totfact>
</mgrwt>
</event>
<event>
 4    1  0.5626910E-005  0.9924171E+03  0.7818608E-02  0.9316901E-01
          2   -1    0    0  501    0  0.00000000000E+00  0.00000000000E+00  0.90489187332E+03  0.90489187332E+03  0.25500000000E-02 0.  1.
         -2   -1    0    0    0  501 -0.00000000000E+00 -0.00000000000E+00 -0.27210201454E+03  0.27210201455E+03  0.25500000000E-02 0. -1.
    5000001    1    1    2    0    0  0.35370583332E+03 -0.29020044588E+03  0.30939998164E+03  0.58473623452E+03  0.19200000000E+03 0.  0.
   -5000001    1    1    2    0    0 -0.35370583332E+03  0.29020044588E+03  0.32338987714E+03  0.59225765335E+03  0.19200000000E+03 0.  0.
<mgrwt>
<rscale>  0 0.99241705E+03</rscale>
<asrwt>0</asrwt>
<pdfrwt beam="1">  1        2 0.12927027E+00 0.99241705E+03</pdfrwt>
<pdfrwt beam="2">  1       -2 0.38871716E-01 0.99241705E+03</pdfrwt>
<totfact> 0.20129632E+02</totfact>
</mgrwt>
</event>
<event>
 4    1  0.5626910E-005  0.5537721E+03  0.7818608E-02  0.1000625E+00
         -2   -1    0    0    0  501 -0.00000000000E+00  0.00000000000E+00  0.31556811196E+03  0.31556811197E+03  0.25500000000E-02 0. -1.
          2   -1    0    0  501    0  0.00000000000E+00 -0.00000000000E+00 -0.24294560162E+03  0.24294560163E+03  0.25500000000E-02 0.  1.
    5000001    1    1    2    0    0 -0.12090504872E+02 -0.14338392440E+03 -0.10306299840E+03  0.26113427910E+03  0.19200000000E+03 0.  0.
   -5000001    1    1    2    0    0  0.12090504872E+02  0.14338392440E+03  0.17568550874E+03  0.29737943450E+03  0.19200000000E+03 0.  0.
<mgrwt>
<rscale>  0 0.55377210E+03</rscale>
<asrwt>0</asrwt>
<pdfrwt beam="1">  1        2 0.34706514E-01 0.55377210E+03</pdfrwt>
<pdfrwt beam="2">  1       -2 0.45081159E-01 0.55377210E+03</pdfrwt>
<totfact> 0.70845110E+02</totfact>
</mgrwt>
</event>
<event>
 4    1  0.5626910E-005  0.6136128E+03  0.7818608E-02  0.9877559E-01
          2   -1    0    0  501    0  0.00000000000E+00  0.00000000000E+00  0.17125034812E+03  0.17125034814E+03  0.25500000000E-02 0.  1.
         -2   -1    0    0    0  501 -0.00000000000E+00 -0.00000000000E+00 -0.54966415136E+03  0.54966415137E+03  0.25500000000E-02 0. -1.
    5000001    1    1    2    0    0  0.75195115752E+02  0.22670344181E+03 -0.20653059102E+03  0.36955059328E+03  0.19200000000E+03 0.  0.
   -5000001    1    1    2    0    0 -0.75195115752E+02 -0.22670344181E+03 -0.17188321222E+03  0.35136390624E+03  0.19200000000E+03 0.  0.
<mgrwt>
<rscale>  0 0.61361283E+03</rscale>
<asrwt>0</asrwt>
<pdfrwt beam="1">  1        2 0.24464336E-01 0.61361283E+03</pdfrwt>
<pdfrwt beam="2">  1       -2 0.78523449E-01 0.61361283E+03</pdfrwt>
<totfact> 0.32715362E+02</totfact>
</mgrwt>
</event>
<event>
 4    1  0.5626910E-005  0.5324050E+03  0.7818608E-02  0.1005651E+00
          2   -1    0    0  501    0  0.00000000000E+00  0.00000000000E+00  0.56774537904E+03  0.56774537905E+03  0.25500000000E-02 0.  1.
         -2   -1    0    0    0  501 -0.00000000000E+00 -0.00000000000E+00 -0.12481610662E+03  0.12481610664E+03  0.25500000000E-02 0. -1.
    5000001    1    1    2    0    0  0.49900831481E+02  0.15970979149E+03  0.32224612276E+03  0.41073577165E+03  0.19200000000E+03 0.  0.
   -5000001    1    1    2    0    0 -0.49900831481E+02 -0.15970979149E+03  0.12068314966E+03  0.28182571404E+03  0.19200000000E+03 0.  0.
<mgrwt>
<rscale>  0 0.53240499E+03</rscale>
<asrwt>0</asrwt>
<pdfrwt beam="1">  1        2 0.81106485E-01 0.53240499E+03</pdfrwt>
<pdfrwt beam="2">  1       -2 0.17830872E-01 0.53240499E+03</pdfrwt>
<totfact> 0.15075852E+03</totfact>
</mgrwt>
</event>
<event>
 4    1  0.5626910E-005  0.7284056E+03  0.7818608E-02  0.9669851E-01
         -2   -1    0    0    0  501 -0.00000000000E+00  0.00000000000E+00  0.32095435311E+04  0.32095435311E+04  0.25500000000E-02 0. -1.
          2   -1    0    0  501    0  0.00000000000E+00 -0.00000000000E+00 -0.41327897543E+02  0.41327897621E+02  0.25500000000E-02 0.  1.
    5000001    1    1    2    0    0  0.24463191224E+03 -0.89636240870E+02  0.83863705008E+03  0.89891908976E+03  0.19200000000E+03 0.  0.
   -5000001    1    1    2    0    0 -0.24463191224E+03  0.89636240870E+02  0.23295785835E+04  0.23519523390E+04  0.19200000000E+03 0.  0.
<mgrwt>
<rscale>  0 0.72840562E+03</rscale>
<asrwt>0</asrwt>
<pdfrwt beam="1">  1        2 0.59039839E-02 0.72840562E+03</pdfrwt>
<pdfrwt beam="2">  1       -2 0.45850633E+00 0.72840562E+03</pdfrwt>
<totfact> 0.43270782E+00</totfact>
</mgrwt>
</event>
<event>
 4    1  0.5626910E-005  0.5361722E+03  0.7818608E-02  0.1004746E+00
         -2   -1    0    0    0  501 -0.00000000000E+00  0.00000000000E+00  0.96845247404E+02  0.96845247437E+02  0.25500000000E-02 0. -1.
          2   -1    0    0  501    0  0.00000000000E+00 -0.00000000000E+00 -0.74211336516E+03  0.74211336517E+03  0.25500000000E-02 0.  1.
    5000001    1    1    2    0    0 -0.15094950693E+03 -0.10783983611E+03 -0.28459599089E+03  0.39022309251E+03  0.19200000000E+03 0.  0.
   -5000001    1    1    2    0    0  0.15094950693E+03  0.10783983611E+03 -0.36067212686E+03  0.44873552009E+03  0.19200000000E+03 0.  0.
<mgrwt>
<rscale>  0 0.53617218E+03</rscale>
<asrwt>0</asrwt>
<pdfrwt beam="1">  1        2 0.10601619E+00 0.53617218E+03</pdfrwt>
<pdfrwt beam="2">  1       -2 0.13835036E-01 0.53617218E+03</pdfrwt>
<totfact> 0.16794628E+03</totfact>
</mgrwt>
</event>
<event>
 4    1  0.5626910E-005  0.1615492E+04  0.7818608E-02  0.8811087E-01
         -2   -1    0    0    0  501 -0.00000000000E+00  0.00000000000E+00  0.86684209941E+03  0.86684209942E+03  0.25500000000E-02 0. -1.
          2   -1    0    0  501    0  0.00000000000E+00 -0.00000000000E+00 -0.75267897038E+03  0.75267897038E+03  0.25500000000E-02 0.  1.
    5000001    1    1    2    0    0  0.64476045492E+03 -0.86269421491E+01 -0.39102236690E+03  0.77817283413E+03  0.19200000000E+03 0.  0.
   -5000001    1    1    2    0    0 -0.64476045492E+03  0.86269421491E+01  0.50518549594E+03  0.84134823567E+03  0.19200000000E+03 0.  0.
<mgrwt>
<rscale>  0 0.16154923E+04</rscale>
<asrwt>0</asrwt>
<pdfrwt beam="1">  1        2 0.10752557E+00 0.16154923E+04</pdfrwt>
<pdfrwt beam="2">  1       -2 0.12383459E+00 0.16154923E+04</pdfrwt>
<totfact> 0.19367551E+01</totfact>
</mgrwt>
</event>
<event>
 4    1  0.5626910E-005  0.5844438E+03  0.7818608E-02  0.9938216E-01
         -2   -1    0    0    0  501 -0.00000000000E+00  0.00000000000E+00  0.43930331936E+02  0.43930332010E+02  0.25500000000E-02 0. -1.
          2   -1    0    0  501    0  0.00000000000E+00 -0.00000000000E+00 -0.19438423222E+04  0.19438423222E+04  0.25500000000E-02 0.  1.
    5000001    1    1    2    0    0  0.11586367261E+03  0.18524954579E+03 -0.85449043205E+03  0.90264039535E+03  0.19200000000E+03 0.  0.
   -5000001    1    1    2    0    0 -0.11586367261E+03 -0.18524954579E+03 -0.10454215582E+04  0.10851322589E+04  0.19200000000E+03 0.  0.
<mgrwt>
<rscale>  0 0.58444380E+03</rscale>
<asrwt>0</asrwt>
<pdfrwt beam="1">  1        2 0.27769171E+00 0.58444380E+03</pdfrwt>
<pdfrwt beam="2">  1       -2 0.62757629E-02 0.58444380E+03</pdfrwt>
<totfact> 0.12735566E+03</totfact>
</mgrwt>
</event>
<event>
 4    1  0.5626910E-005  0.5121464E+03  0.7818608E-02  0.1010656E+00
         -2   -1    0    0    0  501 -0.00000000000E+00  0.00000000000E+00  0.79338895042E+03  0.79338895043E+03  0.25500000000E-02 0. -1.
          2   -1    0    0  501    0  0.00000000000E+00 -0.00000000000E+00 -0.82649867974E+02  0.82649868013E+02  0.25500000000E-02 0.  1.
    5000001    1    1    2    0    0  0.14812417416E+03 -0.72794376711E+02  0.42094532841E+03  0.49122170327E+03  0.19200000000E+03 0.  0.
   -5000001    1    1    2    0    0 -0.14812417416E+03  0.72794376711E+02  0.28979375404E+03  0.38481711517E+03  0.19200000000E+03 0.  0.
<mgrwt>
<rscale>  0 0.51214643E+03</rscale>
<asrwt>0</asrwt>
<pdfrwt beam="1">  1        2 0.11807123E-01 0.51214643E+03</pdfrwt>
<pdfrwt beam="2">  1       -2 0.11334129E+00 0.51214643E+03</pdfrwt>
<totfact> 0.33320052E+02</totfact>
</mgrwt>
</event>
<event>
 4    1  0.5626910E-005  0.4428276E+03  0.7818608E-02  0.1029883E+00
          2   -1    0    0  501    0  0.00000000000E+00  0.00000000000E+00  0.39038935443E+03  0.39038935444E+03  0.25500000000E-02 0.  1.
         -2   -1    0    0    0  501 -0.00000000000E+00 -0.00000000000E+00 -0.12557739921E+03  0.12557739923E+03  0.25500000000E-02 0. -1.
    5000001    1    1    2    0    0 -0.13562939323E+02 -0.97599062746E+02  0.74726843426E+02  0.22838045341E+03  0.19200000000E+03 0.  0.
   -5000001    1    1    2    0    0  0.13562939323E+02  0.97599062746E+02  0.19008511180E+03  0.28758630026E+03  0.19200000000E+03 0.  0.
<mgrwt>
<rscale>  0 0.44282764E+03</rscale>
<asrwt>0</asrwt>
<pdfrwt beam="1">  1        2 0.55769908E-01 0.44282764E+03</pdfrwt>
<pdfrwt beam="2">  1       -2 0.17939628E-01 0.44282764E+03</pdfrwt>
<totfact> 0.22702092E+03</totfact>
</mgrwt>
</event>
<event>
 4    1  0.5626910E-005  0.1697708E+04  0.7818608E-02  0.8762673E-01
         -2   -1    0    0    0  501 -0.00000000000E+00  0.00000000000E+00  0.27064421420E+03  0.27064421421E+03  0.25500000000E-02 0.  1.
          2   -1    0    0  501    0  0.00000000000E+00 -0.00000000000E+00 -0.26623636605E+04  0.26623636605E+04  0.25500000000E-02 0. -1.
    5000001    1    1    2    0    0 -0.37812011445E+03  0.72922935552E+03 -0.13592009373E+04  0.15997004288E+04  0.19200000000E+03 0.  0.
   -5000001    1    1    2    0    0  0.37812011445E+03 -0.72922935552E+03 -0.10325185089E+04  0.13333074459E+04  0.19200000000E+03 0.  0.
<mgrwt>
<rscale>  0 0.16977082E+04</rscale>
<asrwt>0</asrwt>
<pdfrwt beam="1">  1        2 0.38033765E+00 0.16977082E+04</pdfrwt>
<pdfrwt beam="2">  1       -2 0.38663461E-01 0.16977082E+04</pdfrwt>
<totfact> 0.21808241E+01</totfact>
</mgrwt>
</event>
<event>
 4    1  0.5626910E-005  0.5350679E+03  0.7818608E-02  0.1005010E+00
          2   -1    0    0  501    0  0.00000000000E+00  0.00000000000E+00  0.36820136032E+03  0.36820136033E+03  0.25500000000E-02 0.  1.
         -2   -1    0    0    0  501 -0.00000000000E+00 -0.00000000000E+00 -0.19438932014E+03  0.19438932015E+03  0.25500000000E-02 0. -1.
    5000001    1    1    2    0    0  0.16749542716E+03 -0.15338594912E+02  0.17115514788E+03  0.30732405577E+03  0.19200000000E+03 0.  0.
   -5000001    1    1    2    0    0 -0.16749542716E+03  0.15338594912E+02  0.26568923022E+01  0.25526662471E+03  0.19200000000E+03 0.  0.
<mgrwt>
<rscale>  0 0.53506789E+03</rscale>
<asrwt>0</asrwt>
<pdfrwt beam="1">  1        2 0.52600194E-01 0.53506789E+03</pdfrwt>
<pdfrwt beam="2">  1       -2 0.27769903E-01 0.53506789E+03</pdfrwt>
<totfact> 0.11230914E+03</totfact>
</mgrwt>
</event>
<event>
 4    1  0.5626910E-005  0.7088787E+03  0.7818608E-02  0.9702168E-01
         -2   -1    0    0    0  501 -0.00000000000E+00  0.00000000000E+00  0.56130193251E+02  0.56130193308E+02  0.25500000000E-02 0. -1.
          2   -1    0    0  501    0  0.00000000000E+00 -0.00000000000E+00 -0.22381404841E+04  0.22381404841E+04  0.25500000000E-02 0.  1.
    5000001    1    1    2    0    0  0.27771155590E+03 -0.41137741213E+02 -0.14137980114E+04  0.14541337074E+04  0.19200000000E+03 0.  0.
   -5000001    1    1    2    0    0 -0.27771155590E+03  0.41137741213E+02 -0.76821227945E+03  0.84013696998E+03  0.19200000000E+03 0.  0.
<mgrwt>
<rscale>  0 0.70887871E+03</rscale>
<asrwt>0</asrwt>
<pdfrwt beam="1">  1        2 0.31973430E+00 0.70887871E+03</pdfrwt>
<pdfrwt beam="2">  1       -2 0.80186004E-02 0.70887871E+03</pdfrwt>
<totfact> 0.60928007E+02</totfact>
</mgrwt>
</event>
<event>
 4    1  0.5626910E-005  0.5333884E+03  0.7818608E-02  0.1005414E+00
         -2   -1    0    0    0  501 -0.00000000000E+00  0.00000000000E+00  0.35382786160E+03  0.35382786161E+03  0.25500000000E-02 0. -1.
          2   -1    0    0  501    0  0.00000000000E+00 -0.00000000000E+00 -0.20101807509E+03  0.20101807511E+03  0.25500000000E-02 0.  1.
    5000001    1    1    2    0    0 -0.12200246688E+02  0.18230315607E+03  0.45572876347E+02  0.26893154108E+03  0.19200000000E+03 0.  0.
   -5000001    1    1    2    0    0  0.12200246688E+02 -0.18230315607E+03  0.10723691016E+03  0.28591439564E+03  0.19200000000E+03 0.  0.
<mgrwt>
<rscale>  0 0.53338840E+03</rscale>
<asrwt>0</asrwt>
<pdfrwt beam="1">  1        2 0.28716868E-01 0.53338840E+03</pdfrwt>
<pdfrwt beam="2">  1       -2 0.50546838E-01 0.53338840E+03</pdfrwt>
<totfact> 0.69611483E+02</totfact>
</mgrwt>
</event>
<event>
 4    1  0.5626910E-005  0.4033719E+03  0.7818608E-02  0.1042618E+00
         -2   -1    0    0    0  501 -0.00000000000E+00  0.00000000000E+00  0.17767305781E+03  0.17767305783E+03  0.25500000000E-02 0. -1.
          2   -1    0    0  501    0  0.00000000000E+00 -0.00000000000E+00 -0.22894423126E+03  0.22894423127E+03  0.25500000000E-02 0.  1.
    5000001    1    1    2    0    0  0.10383344023E+02 -0.60026374414E+02 -0.35828428097E+02  0.20459387996E+03  0.19200000000E+03 0.  0.
   -5000001    1    1    2    0    0 -0.10383344023E+02  0.60026374414E+02 -0.15442745349E+02  0.20202340914E+03  0.19200000000E+03 0.  0.
<mgrwt>
<rscale>  0 0.40337190E+03</rscale>
<asrwt>0</asrwt>
<pdfrwt beam="1">  1        2 0.32706319E-01 0.40337190E+03</pdfrwt>
<pdfrwt beam="2">  1       -2 0.25381865E-01 0.40337190E+03</pdfrwt>
<totfact> 0.22218631E+03</totfact>
</mgrwt>
</event>
<event>
 4    1  0.5626910E-005  0.1235438E+04  0.7818608E-02  0.9082391E-01
         -2   -1    0    0    0  501 -0.00000000000E+00  0.00000000000E+00  0.71199643056E+03  0.71199643057E+03  0.25500000000E-02 0. -1.
          2   -1    0    0  501    0  0.00000000000E+00 -0.00000000000E+00 -0.53592524007E+03  0.53592524007E+03  0.25500000000E-02 0.  1.
    5000001    1    1    2    0    0 -0.26246687345E+03 -0.52053042349E+03  0.17530034934E+02  0.61401309723E+03  0.19200000000E+03 0.  0.
   -5000001    1    1    2    0    0  0.26246687345E+03  0.52053042349E+03  0.15854115556E+03  0.63390857341E+03  0.19200000000E+03 0.  0.
<mgrwt>
<rscale>  0 0.12354382E+04</rscale>
<asrwt>0</asrwt>
<pdfrwt beam="1">  1        2 0.76560749E-01 0.12354382E+04</pdfrwt>
<pdfrwt beam="2">  1       -2 0.10171378E+00 0.12354382E+04</pdfrwt>
<totfact> 0.48454745E+01</totfact>
</mgrwt>
</event>
<event>
 4    1  0.5626910E-005  0.4721340E+03  0.7818608E-02  0.1021320E+00
          2   -1    0    0  501    0  0.00000000000E+00  0.00000000000E+00  0.13935220839E+04  0.13935220839E+04  0.25500000000E-02 0.  1.
         -2   -1    0    0    0  501 -0.00000000000E+00 -0.00000000000E+00 -0.39990486002E+02  0.39990486084E+02  0.25500000000E-02 0. -1.
    5000001    1    1    2    0    0 -0.11838768879E+03  0.46933799044E+02  0.83292422527E+03  0.86420205473E+03  0.19200000000E+03 0.  0.
   -5000001    1    1    2    0    0  0.11838768879E+03 -0.46933799044E+02  0.52060737260E+03  0.56931051524E+03  0.19200000000E+03 0.  0.
<mgrwt>
<rscale>  0 0.47213399E+03</rscale>
<asrwt>0</asrwt>
<pdfrwt beam="1">  1        2 0.19907459E+00 0.47213399E+03</pdfrwt>
<pdfrwt beam="2">  1       -2 0.57129263E-02 0.47213399E+03</pdfrwt>
<totfact> 0.28242509E+03</totfact>
</mgrwt>
</event>
<event>
 4    1  0.5626910E-005  0.5022762E+03  0.7818608E-02  0.1013186E+00
         -2   -1    0    0    0  501 -0.00000000000E+00  0.00000000000E+00  0.19620606324E+02  0.19620606490E+02  0.25500000000E-02 0. -1.
          2   -1    0    0  501    0  0.00000000000E+00 -0.00000000000E+00 -0.32144957383E+04  0.32144957383E+04  0.25500000000E-02 0.  1.
    5000001    1    1    2    0    0  0.14281879820E+03 -0.39362829013E+02 -0.11771919060E+04  0.12019115712E+04  0.19200000000E+03 0.  0.
   -5000001    1    1    2    0    0 -0.14281879820E+03  0.39362829013E+02 -0.20176832260E+04  0.20322047736E+04  0.19200000000E+03 0.  0.
<mgrwt>
<rscale>  0 0.50227624E+03</rscale>
<asrwt>0</asrwt>
<pdfrwt beam="1">  1        2 0.45921334E+00 0.50227624E+03</pdfrwt>
<pdfrwt beam="2">  1       -2 0.28029458E-02 0.50227624E+03</pdfrwt>
<totfact> 0.96528938E+02</totfact>
</mgrwt>
</event>
<event>
 4    1  0.5626910E-005  0.7323222E+03  0.7818608E-02  0.9663500E-01
         -2   -1    0    0    0  501 -0.00000000000E+00  0.00000000000E+00  0.11250573691E+03  0.11250573694E+03  0.25500000000E-02 0. -1.
          2   -1    0    0  501    0  0.00000000000E+00 -0.00000000000E+00 -0.11917077250E+04  0.11917077250E+04  0.25500000000E-02 0.  1.
    5000001    1    1    2    0    0  0.49786841450E+02  0.20141037681E+03 -0.12511850129E+03  0.30913348061E+03  0.19200000000E+03 0.  0.
   -5000001    1    1    2    0    0 -0.49786841450E+02 -0.20141037681E+03 -0.95408348680E+03  0.99507998133E+03  0.19200000000E+03 0.  0.
<mgrwt>
<rscale>  0 0.73232221E+03</rscale>
<asrwt>0</asrwt>
<pdfrwt beam="1">  1        2 0.17024395E+00 0.73232221E+03</pdfrwt>
<pdfrwt beam="2">  1       -2 0.16072249E-01 0.73232221E+03</pdfrwt>
<totfact> 0.67690416E+02</totfact>
</mgrwt>
</event>
<event>
 4    1  0.5626910E-005  0.7500481E+03  0.7818608E-02  0.9635275E-01
         -2   -1    0    0    0  501 -0.00000000000E+00  0.00000000000E+00  0.31397558215E+03  0.31397558216E+03  0.25500000000E-02 0. -1.
          2   -1    0    0  501    0  0.00000000000E+00 -0.00000000000E+00 -0.44794255426E+03  0.44794255426E+03  0.25500000000E-02 0.  1.
    5000001    1    1    2    0    0 -0.30322342405E+03 -0.58031277305E+02  0.26488769040E+02  0.36452397579E+03  0.19200000000E+03 0.  0.
   -5000001    1    1    2    0    0  0.30322342405E+03  0.58031277305E+02 -0.16045574115E+03  0.39739416063E+03  0.19200000000E+03 0.  0.
<mgrwt>
<rscale>  0 0.75004806E+03</rscale>
<asrwt>0</asrwt>
<pdfrwt beam="1">  1        2 0.63991793E-01 0.75004806E+03</pdfrwt>
<pdfrwt beam="2">  1       -2 0.44853655E-01 0.75004806E+03</pdfrwt>
<totfact> 0.36123762E+02</totfact>
</mgrwt>
</event>
<event>
 4    1  0.5626910E-005  0.7817696E+03  0.7818608E-02  0.9586786E-01
          2   -1    0    0  501    0  0.00000000000E+00  0.00000000000E+00  0.17690325205E+03  0.17690325207E+03  0.25500000000E-02 0.  1.
         -2   -1    0    0    0  501 -0.00000000000E+00 -0.00000000000E+00 -0.86369771448E+03  0.86369771448E+03  0.25500000000E-02 0. -1.
    5000001    1    1    2    0    0  0.32157882677E+03  0.10939740537E+03 -0.37450590007E+03  0.54083213968E+03  0.19200000000E+03 0.  0.
   -5000001    1    1    2    0    0 -0.32157882677E+03 -0.10939740537E+03 -0.31228856236E+03  0.49976882686E+03  0.19200000000E+03 0.  0.
<mgrwt>
<rscale>  0 0.78176962E+03</rscale>
<asrwt>0</asrwt>
<pdfrwt beam="1">  1        2 0.25271894E-01 0.78176962E+03</pdfrwt>
<pdfrwt beam="2">  1       -2 0.12338539E+00 0.78176962E+03</pdfrwt>
<totfact> 0.10810285E+02</totfact>
</mgrwt>
</event>
<event>
 4    1  0.5626910E-005  0.5464217E+03  0.7818608E-02  0.1002326E+00
         -2   -1    0    0    0  501 -0.00000000000E+00  0.00000000000E+00  0.31401253906E+02  0.31401254010E+02  0.25500000000E-02 0. -1.
          2   -1    0    0  501    0  0.00000000000E+00 -0.00000000000E+00 -0.23771081949E+04  0.23771081949E+04  0.25500000000E-02 0.  1.
    5000001    1    1    2    0    0  0.21274125261E+02  0.19178452758E+03 -0.10698314878E+04  0.11039190666E+04  0.19200000000E+03 0.  0.
   -5000001    1    1    2    0    0 -0.21274125261E+02 -0.19178452758E+03 -0.12758754532E+04  0.13045903823E+04  0.19200000000E+03 0.  0.
<mgrwt>
<rscale>  0 0.54642173E+03</rscale>
<asrwt>0</asrwt>
<pdfrwt beam="1">  1        2 0.33958677E+00 0.54642173E+03</pdfrwt>
<pdfrwt beam="2">  1       -2 0.44858949E-02 0.54642173E+03</pdfrwt>
<totfact> 0.13023106E+03</totfact>
</mgrwt>
</event>
<event>
 4    1  0.5626910E-005  0.4065069E+03  0.7818608E-02  0.1041550E+00
          2   -1    0    0  501    0  0.00000000000E+00  0.00000000000E+00  0.56395698593E+03  0.56395698594E+03  0.25500000000E-02 0.  1.
         -2   -1    0    0    0  501 -0.00000000000E+00 -0.00000000000E+00 -0.73253757412E+02  0.73253757457E+02  0.25500000000E-02 0. -1.
    5000001    1    1    2    0    0  0.54340652250E+02 -0.13917532622E+02  0.18880396528E+03  0.27505916001E+03  0.19200000000E+03 0.  0.
   -5000001    1    1    2    0    0 -0.54340652250E+02  0.13917532622E+02  0.30189926324E+03  0.36215158339E+03  0.19200000000E+03 0.  0.
<mgrwt>
<rscale>  0 0.40650692E+03</rscale>
<asrwt>0</asrwt>
<pdfrwt beam="1">  1        2 0.80565286E-01 0.40650692E+03</pdfrwt>
<pdfrwt beam="2">  1       -2 0.10464822E-01 0.40650692E+03</pdfrwt>
<totfact> 0.36696372E+03</totfact>
</mgrwt>
</event>
<event>
 4    1  0.5626910E-005  0.1295715E+04  0.7818608E-02  0.9032970E-01
         -2   -1    0    0    0  501 -0.00000000000E+00  0.00000000000E+00  0.18861311662E+03  0.18861311664E+03  0.25500000000E-02 0. -1.
          2   -1    0    0  501    0  0.00000000000E+00 -0.00000000000E+00 -0.22252934078E+04  0.22252934078E+04  0.25500000000E-02 0.  1.
    5000001    1    1    2    0    0 -0.56940593009E+03  0.21945993659E+03 -0.12089647617E+04  0.13677885700E+04  0.19200000000E+03 0.  0.
   -5000001    1    1    2    0    0  0.56940593009E+03 -0.21945993659E+03 -0.82771552945E+03  0.10461179545E+04  0.19200000000E+03 0.  0.
<mgrwt>
<rscale>  0 0.12957153E+04</rscale>
<asrwt>0</asrwt>
<pdfrwt beam="1">  1        2 0.31789904E+00 0.12957153E+04</pdfrwt>
<pdfrwt beam="2">  1       -2 0.26944732E-01 0.12957153E+04</pdfrwt>
<totfact> 0.75411371E+01</totfact>
</mgrwt>
</event>
<event>
 4    1  0.5626910E-005  0.5414222E+03  0.7818608E-02  0.1003499E+00
          2   -1    0    0  501    0  0.00000000000E+00  0.00000000000E+00  0.17469047996E+04  0.17469047996E+04  0.25500000000E-02 0.  1.
         -2   -1    0    0    0  501 -0.00000000000E+00 -0.00000000000E+00 -0.41951057877E+02  0.41951057955E+02  0.25500000000E-02 0. -1.
    5000001    1    1    2    0    0 -0.20566228273E+02 -0.11931369495E+03  0.13398779098E+04  0.13589685577E+04  0.19200000000E+03 0.  0.
   -5000001    1    1    2    0    0  0.20566228273E+02  0.11931369495E+03  0.36507583186E+03  0.42988729983E+03  0.19200000000E+03 0.  0.
<mgrwt>
<rscale>  0 0.54142222E+03</rscale>
<asrwt>0</asrwt>
<pdfrwt beam="1">  1        2 0.24955784E+00 0.54142222E+03</pdfrwt>
<pdfrwt beam="2">  1       -2 0.59930080E-02 0.54142222E+03</pdfrwt>
<totfact> 0.17228815E+03</totfact>
</mgrwt>
</event>
<event>
 4    1  0.5626910E-005  0.7002582E+03  0.7818608E-02  0.9716791E-01
          2   -1    0    0  501    0  0.00000000000E+00  0.00000000000E+00  0.33366524758E+03  0.33366524759E+03  0.25500000000E-02 0.  1.
         -2   -1    0    0    0  501 -0.00000000000E+00 -0.00000000000E+00 -0.36740534873E+03  0.36740534874E+03  0.25500000000E-02 0. -1.
    5000001    1    1    2    0    0  0.16422015852E+03  0.24233011818E+03 -0.22729190802E+02  0.35081727830E+03  0.19200000000E+03 0.  0.
   -5000001    1    1    2    0    0 -0.16422015852E+03 -0.24233011818E+03 -0.11010910347E+02  0.35025331803E+03  0.19200000000E+03 0.  0.
<mgrwt>
<rscale>  0 0.70025823E+03</rscale>
<asrwt>0</asrwt>
<pdfrwt beam="1">  1        2 0.47666464E-01 0.70025823E+03</pdfrwt>
<pdfrwt beam="2">  1       -2 0.52486478E-01 0.70025823E+03</pdfrwt>
<totfact> 0.36587094E+02</totfact>
</mgrwt>
</event>
<event>
 4    1  0.5626910E-005  0.6641156E+03  0.7818608E-02  0.9780647E-01
         -2   -1    0    0    0  501 -0.00000000000E+00  0.00000000000E+00  0.11033119961E+03  0.11033119964E+03  0.25500000000E-02 0. -1.
          2   -1    0    0  501    0  0.00000000000E+00 -0.00000000000E+00 -0.99937641831E+03  0.99937641831E+03  0.25500000000E-02 0.  1.
    5000001    1    1    2    0    0 -0.67996844599E+02 -0.25984078238E+03 -0.38526618590E+03  0.50738036724E+03  0.19200000000E+03 0.  0.
   -5000001    1    1    2    0    0  0.67996844599E+02  0.25984078238E+03 -0.50377903279E+03  0.60232725071E+03  0.19200000000E+03 0.  0.
<mgrwt>
<rscale>  0 0.66411565E+03</rscale>
<asrwt>0</asrwt>
<pdfrwt beam="1">  1        2 0.14276805E+00 0.66411565E+03</pdfrwt>
<pdfrwt beam="2">  1       -2 0.15761601E-01 0.66411565E+03</pdfrwt>
<totfact> 0.90954673E+02</totfact>
</mgrwt>
</event>
<event>
 4    1  0.5626910E-005  0.4479122E+03  0.7818608E-02  0.1028346E+00
         -2   -1    0    0    0  501 -0.00000000000E+00  0.00000000000E+00  0.54161388396E+03  0.54161388397E+03  0.25500000000E-02 0. -1.
          2   -1    0    0  501    0  0.00000000000E+00 -0.00000000000E+00 -0.92605323797E+02  0.92605323832E+02  0.25500000000E-02 0.  1.
    5000001    1    1    2    0    0 -0.89211272429E+02  0.40512266494E+02  0.13846378344E+03  0.25619546091E+03  0.19200000000E+03 0.  0.
   -5000001    1    1    2    0    0  0.89211272429E+02 -0.40512266494E+02  0.31054477672E+03  0.37802374689E+03  0.19200000000E+03 0.  0.
<mgrwt>
<rscale>  0 0.44791217E+03</rscale>
<asrwt>0</asrwt>
<pdfrwt beam="1">  1        2 0.13229332E-01 0.44791217E+03</pdfrwt>
<pdfrwt beam="2">  1       -2 0.77373412E-01 0.44791217E+03</pdfrwt>
<totfact> 0.70062585E+02</totfact>
</mgrwt>
</event>
<event>
 4    1  0.5626910E-005  0.8193005E+03  0.7818608E-02  0.9532493E-01
         -2   -1    0    0    0  501 -0.00000000000E+00  0.00000000000E+00  0.51319582603E+03  0.51319582604E+03  0.25500000000E-02 0. -1.
          2   -1    0    0  501    0  0.00000000000E+00 -0.00000000000E+00 -0.32699670658E+03  0.32699670659E+03  0.25500000000E-02 0.  1.
    5000001    1    1    2    0    0 -0.32757414131E+03  0.63753748334E+02  0.23659621169E+03  0.45189725145E+03  0.19200000000E+03 0.  0.
   -5000001    1    1    2    0    0  0.32757414131E+03 -0.63753748334E+02 -0.50397092239E+02  0.38829528118E+03  0.19200000000E+03 0.  0.
<mgrwt>
<rscale>  0 0.81930054E+03</rscale>
<asrwt>0</asrwt>
<pdfrwt beam="1">  1        2 0.46713816E-01 0.81930054E+03</pdfrwt>
<pdfrwt beam="2">  1       -2 0.73313689E-01 0.81930054E+03</pdfrwt>
<totfact> 0.18315967E+02</totfact>
</mgrwt>
</event>
<event>
 4    1  0.5626910E-005  0.4565355E+03  0.7818608E-02  0.1025791E+00
         -2   -1    0    0    0  501 -0.00000000000E+00  0.00000000000E+00  0.39271771552E+02  0.39271771635E+02  0.25500000000E-02 0. -1.
          2   -1    0    0  501    0  0.00000000000E+00 -0.00000000000E+00 -0.13268095226E+04  0.13268095226E+04  0.25500000000E-02 0.  1.
    5000001    1    1    2    0    0 -0.54726892004E+02  0.11451805510E+02 -0.97313684113E+03  0.99347143297E+03  0.19200000000E+03 0.  0.
   -5000001    1    1    2    0    0  0.54726892004E+02 -0.11451805510E+02 -0.31440090992E+03  0.37260986127E+03  0.19200000000E+03 0.  0.
<mgrwt>
<rscale>  0 0.45653548E+03</rscale>
<asrwt>0</asrwt>
<pdfrwt beam="1">  1        2 0.18954419E+00 0.45653548E+03</pdfrwt>
<pdfrwt beam="2">  1       -2 0.56102539E-02 0.45653548E+03</pdfrwt>
<totfact> 0.31517915E+03</totfact>
</mgrwt>
</event>
<event>
 4    1  0.5626910E-005  0.6308521E+03  0.7818608E-02  0.9843387E-01
          2   -1    0    0  501    0  0.00000000000E+00  0.00000000000E+00  0.83139227955E+03  0.83139227956E+03  0.25500000000E-02 0.  1.
         -2   -1    0    0    0  501 -0.00000000000E+00 -0.00000000000E+00 -0.11967104480E+03  0.11967104483E+03  0.25500000000E-02 0. -1.
    5000001    1    1    2    0    0 -0.20513310054E+03  0.54568885239E+02  0.55570656690E+03  0.62508490676E+03  0.19200000000E+03 0.  0.
   -5000001    1    1    2    0    0  0.20513310054E+03 -0.54568885239E+02  0.15601466785E+03  0.32597841763E+03  0.19200000000E+03 0.  0.
<mgrwt>
<rscale>  0 0.63085207E+03</rscale>
<asrwt>0</asrwt>
<pdfrwt beam="1">  1        2 0.11877033E+00 0.63085207E+03</pdfrwt>
<pdfrwt beam="2">  1       -2 0.17095863E-01 0.63085207E+03</pdfrwt>
<totfact> 0.10162573E+03</totfact>
</mgrwt>
</event>
<event>
 4    1  0.5626910E-005  0.4151623E+03  0.7818608E-02  0.1038652E+00
          2   -1    0    0  501    0  0.00000000000E+00  0.00000000000E+00  0.22488021968E+04  0.22488021968E+04  0.25500000000E-02 0.  1.
         -2   -1    0    0    0  501 -0.00000000000E+00 -0.00000000000E+00 -0.19161282709E+02  0.19161282879E+02  0.25500000000E-02 0. -1.
    5000001    1    1    2    0    0 -0.42182469492E+02  0.63570262727E+02  0.12248116137E+04  0.12421143378E+04  0.19200000000E+03 0.  0.
   -5000001    1    1    2    0    0  0.42182469492E+02 -0.63570262727E+02  0.10048293004E+04  0.10258491419E+04  0.19200000000E+03 0.  0.
<mgrwt>
<rscale>  0 0.41516230E+03</rscale>
<asrwt>0</asrwt>
<pdfrwt beam="1">  1        2 0.32125729E+00 0.41516230E+03</pdfrwt>
<pdfrwt beam="2">  1       -2 0.27373275E-02 0.41516230E+03</pdfrwt>
<totfact> 0.32236938E+03</totfact>
</mgrwt>
</event>
<event>
 4    1  0.5626910E-005  0.4678715E+03  0.7818608E-02  0.1022523E+00
          2   -1    0    0  501    0  0.00000000000E+00  0.00000000000E+00  0.16529029882E+04  0.16529029882E+04  0.25500000000E-02 0.  1.
         -2   -1    0    0    0  501 -0.00000000000E+00 -0.00000000000E+00 -0.33108984961E+02  0.33108985059E+02  0.25500000000E-02 0. -1.
    5000001    1    1    2    0    0 -0.37505871101E+02  0.10347202256E+03  0.10831231637E+04  0.11055012155E+04  0.19200000000E+03 0.  0.
   -5000001    1    1    2    0    0  0.37505871101E+02 -0.10347202256E+03  0.53667083956E+03  0.58051075774E+03  0.19200000000E+03 0.  0.
<mgrwt>
<rscale>  0 0.46787152E+03</rscale>
<asrwt>0</asrwt>
<pdfrwt beam="1">  1        2 0.23612900E+00 0.46787152E+03</pdfrwt>
<pdfrwt beam="2">  1       -2 0.47298550E-02 0.46787152E+03</pdfrwt>
<totfact> 0.27798677E+03</totfact>
</mgrwt>
</event>
<event>
 4    1  0.5626910E-005  0.4493515E+03  0.7818608E-02  0.1027916E+00
          2   -1    0    0  501    0  0.00000000000E+00  0.00000000000E+00  0.21490306445E+04  0.21490306445E+04  0.25500000000E-02 0.  1.
         -2   -1    0    0    0  501 -0.00000000000E+00 -0.00000000000E+00 -0.23489285338E+02  0.23489285477E+02  0.25500000000E-02 0. -1.
    5000001    1    1    2    0    0 -0.88664722602E+02  0.65526373026E+02  0.12475112409E+04  0.12670056965E+04  0.19200000000E+03 0.  0.
   -5000001    1    1    2    0    0  0.88664722602E+02 -0.65526373026E+02  0.87803011822E+03  0.90551423352E+03  0.19200000000E+03 0.  0.
<mgrwt>
<rscale>  0 0.44935151E+03</rscale>
<asrwt>0</asrwt>
<pdfrwt beam="1">  1        2 0.30700453E+00 0.44935151E+03</pdfrwt>
<pdfrwt beam="2">  1       -2 0.33556106E-02 0.44935151E+03</pdfrwt>
<totfact> 0.26549445E+03</totfact>
</mgrwt>
</event>
<event>
 4    1  0.5626910E-005  0.6572580E+03  0.7818608E-02  0.9793255E-01
         -2   -1    0    0    0  501 -0.00000000000E+00  0.00000000000E+00  0.31098133491E+03  0.31098133492E+03  0.25500000000E-02 0. -1.
          2   -1    0    0  501    0  0.00000000000E+00 -0.00000000000E+00 -0.34727817691E+03  0.34727817691E+03  0.25500000000E-02 0.  1.
    5000001    1    1    2    0    0 -0.23591979001E+03  0.11613878814E+03  0.26491521624E+02  0.32666828151E+03  0.19200000000E+03 0.  0.
   -5000001    1    1    2    0    0  0.23591979001E+03 -0.11613878814E+03 -0.62788363614E+02  0.33159123033E+03  0.19200000000E+03 0.  0.
<mgrwt>
<rscale>  0 0.65725803E+03</rscale>
<asrwt>0</asrwt>
<pdfrwt beam="1">  1        2 0.49611168E-01 0.65725803E+03</pdfrwt>
<pdfrwt beam="2">  1       -2 0.44425905E-01 0.65725803E+03</pdfrwt>
<totfact> 0.49039616E+02</totfact>
</mgrwt>
</event>
<event>
 4    1  0.5626910E-005  0.7329657E+03  0.7818608E-02  0.9662460E-01
          2   -1    0    0  501    0  0.00000000000E+00  0.00000000000E+00  0.21613183456E+04  0.21613183456E+04  0.25500000000E-02 0.  1.
         -2   -1    0    0    0  501 -0.00000000000E+00 -0.00000000000E+00 -0.62142474900E+02  0.62142474953E+02  0.25500000000E-02 0. -1.
    5000001    1    1    2    0    0  0.29108866581E+03 -0.10123545879E+03  0.12001810481E+04  0.12539058089E+04  0.19200000000E+03 0.  0.
   -5000001    1    1    2    0    0 -0.29108866581E+03  0.10123545879E+03  0.89899482261E+03  0.96955501162E+03  0.19200000000E+03 0.  0.
<mgrwt>
<rscale>  0 0.73296568E+03</rscale>
<asrwt>0</asrwt>
<pdfrwt beam="1">  1        2 0.30875978E+00 0.73296568E+03</pdfrwt>
<pdfrwt beam="2">  1       -2 0.88774959E-02 0.73296568E+03</pdfrwt>
<totfact> 0.56504690E+02</totfact>
</mgrwt>
</event>
<event>
 4    1  0.5626910E-005  0.5493818E+03  0.7818608E-02  0.1001637E+00
         -2   -1    0    0    0  501 -0.00000000000E+00  0.00000000000E+00  0.81329591158E+02  0.81329591198E+02  0.25500000000E-02 0. -1.
          2   -1    0    0  501    0  0.00000000000E+00 -0.00000000000E+00 -0.92776925215E+03  0.92776925216E+03  0.25500000000E-02 0.  1.
    5000001    1    1    2    0    0 -0.18123541009E+03 -0.33624177260E+02 -0.29845008862E+03  0.39989162853E+03  0.19200000000E+03 0.  0.
   -5000001    1    1    2    0    0  0.18123541009E+03  0.33624177260E+02 -0.54798957237E+03  0.60920721483E+03  0.19200000000E+03 0.  0.
<mgrwt>
<rscale>  0 0.54938181E+03</rscale>
<asrwt>0</asrwt>
<pdfrwt beam="1">  1        2 0.13253846E+00 0.54938181E+03</pdfrwt>
<pdfrwt beam="2">  1       -2 0.11618514E-01 0.54938181E+03</pdfrwt>
<totfact> 0.16790206E+03</totfact>
</mgrwt>
</event>
<event>
 4    1  0.5626910E-005  0.6210300E+03  0.7818608E-02  0.9862711E-01
         -2   -1    0    0    0  501 -0.00000000000E+00  0.00000000000E+00  0.48489805670E+02  0.48489805737E+02  0.25500000000E-02 0.  1.
          2   -1    0    0  501    0  0.00000000000E+00 -0.00000000000E+00 -0.19884504913E+04  0.19884504913E+04  0.25500000000E-02 0. -1.
    5000001    1    1    2    0    0 -0.21372215499E+03 -0.95232888455E+02 -0.74252387511E+03  0.80184298194E+03  0.19200000000E+03 0.  0.
   -5000001    1    1    2    0    0  0.21372215499E+03  0.95232888455E+02 -0.11974368105E+04  0.12350973151E+04  0.19200000000E+03 0.  0.
<mgrwt>
<rscale>  0 0.62103004E+03</rscale>
<asrwt>0</asrwt>
<pdfrwt beam="1">  1        2 0.28406430E+00 0.62103004E+03</pdfrwt>
<pdfrwt beam="2">  1       -2 0.69271163E-02 0.62103004E+03</pdfrwt>
<totfact> 0.10333028E+03</totfact>
</mgrwt>
</event>
<event>
 4    1  0.5626910E-005  0.4661829E+03  0.7818608E-02  0.1023003E+00
          2   -1    0    0  501    0  0.00000000000E+00  0.00000000000E+00  0.17995474935E+04  0.17995474935E+04  0.25500000000E-02 0.  1.
         -2   -1    0    0    0  501 -0.00000000000E+00 -0.00000000000E+00 -0.30191828407E+02  0.30191828515E+02  0.25500000000E-02 0. -1.
    5000001    1    1    2    0    0  0.10451717400E+03 -0.60602010969E+02  0.10949895710E+04  0.11182408524E+04  0.19200000000E+03 0.  0.
   -5000001    1    1    2    0    0 -0.10451717400E+03  0.60602010969E+02  0.67436609410E+03  0.71149846962E+03  0.19200000000E+03 0.  0.
<mgrwt>
<rscale>  0 0.46618292E+03</rscale>
<asrwt>0</asrwt>
<pdfrwt beam="1">  1        2 0.25707818E+00 0.46618292E+03</pdfrwt>
<pdfrwt beam="2">  1       -2 0.43131189E-02 0.46618292E+03</pdfrwt>
<totfact> 0.27025279E+03</totfact>
</mgrwt>
</event>
<event>
 4    1  0.5626910E-005  0.4878734E+03  0.7818608E-02  0.1016993E+00
          2   -1    0    0  501    0  0.00000000000E+00  0.00000000000E+00  0.62184041949E+03  0.62184041950E+03  0.25500000000E-02 0.  1.
         -2   -1    0    0    0  501 -0.00000000000E+00 -0.00000000000E+00 -0.95691943636E+02  0.95691943670E+02  0.25500000000E-02 0. -1.
    5000001    1    1    2    0    0 -0.10585263295E+03  0.36635653918E+02  0.41083856040E+03  0.46711805119E+03  0.19200000000E+03 0.  0.
   -5000001    1    1    2    0    0  0.10585263295E+03 -0.36635653918E+02  0.11530991546E+03  0.25041431198E+03  0.19200000000E+03 0.  0.
<mgrwt>
<rscale>  0 0.48787342E+03</rscale>
<asrwt>0</asrwt>
<pdfrwt beam="1">  1        2 0.88834347E-01 0.48787342E+03</pdfrwt>
<pdfrwt beam="2">  1       -2 0.13670277E-01 0.48787342E+03</pdfrwt>
<totfact> 0.21207575E+03</totfact>
</mgrwt>
</event>
<event>
 4    1  0.5626910E-005  0.9952130E+03  0.7818608E-02  0.9313811E-01
          2   -1    0    0  501    0  0.00000000000E+00  0.00000000000E+00  0.80224400578E+03  0.80224400578E+03  0.25500000000E-02 0.  1.
         -2   -1    0    0    0  501 -0.00000000000E+00 -0.00000000000E+00 -0.30864949774E+03  0.30864949775E+03  0.25500000000E-02 0. -1.
    5000001    1    1    2    0    0 -0.43657292614E+02  0.43193704159E+03  0.41338470213E+03  0.62946523260E+03  0.19200000000E+03 0.  0.
   -5000001    1    1    2    0    0  0.43657292614E+02 -0.43193704159E+03  0.80209805905E+02  0.48142827094E+03  0.19200000000E+03 0.  0.
<mgrwt>
<rscale>  0 0.99521296E+03</rscale>
<asrwt>0</asrwt>
<pdfrwt beam="1">  1        2 0.11460629E+00 0.99521296E+03</pdfrwt>
<pdfrwt beam="2">  1       -2 0.44092786E-01 0.99521296E+03</pdfrwt>
<totfact> 0.18430411E+02</totfact>
</mgrwt>
</event>
<event>
 4    1  0.5626910E-005  0.6077539E+03  0.7818608E-02  0.9889448E-01
         -2   -1    0    0    0  501 -0.00000000000E+00  0.00000000000E+00  0.45430470809E+03  0.45430470810E+03  0.25500000000E-02 0. -1.
          2   -1    0    0  501    0  0.00000000000E+00 -0.00000000000E+00 -0.20325832909E+03  0.20325832911E+03  0.25500000000E-02 0.  1.
    5000001    1    1    2    0    0  0.23097053460E+03 -0.43396588936E+02  0.10853392759E+03  0.32229530748E+03  0.19200000000E+03 0.  0.
   -5000001    1    1    2    0    0 -0.23097053460E+03  0.43396588936E+02  0.14251245141E+03  0.33526772972E+03  0.19200000000E+03 0.  0.
<mgrwt>
<rscale>  0 0.60775395E+03</rscale>
<asrwt>0</asrwt>
<pdfrwt beam="1">  1        2 0.29036905E-01 0.60775395E+03</pdfrwt>
<pdfrwt beam="2">  1       -2 0.64900671E-01 0.60775395E+03</pdfrwt>
<totfact> 0.40823118E+02</totfact>
</mgrwt>
</event>
<event>
 4    1  0.5626910E-005  0.7115025E+03  0.7818608E-02  0.9697761E-01
          2   -1    0    0  501    0  0.00000000000E+00  0.00000000000E+00  0.31648857999E+04  0.31648857999E+04  0.25500000000E-02 0.  1.
         -2   -1    0    0    0  501 -0.00000000000E+00 -0.00000000000E+00 -0.39988475364E+02  0.39988475445E+02  0.25500000000E-02 0. -1.
    5000001    1    1    2    0    0 -0.25891957563E+02 -0.29525163033E+03  0.13686537485E+04  0.14134783344E+04  0.19200000000E+03 0.  0.
   -5000001    1    1    2    0    0  0.25891957563E+02  0.29525163033E+03  0.17562435760E+04  0.17913959409E+04  0.19200000000E+03 0.  0.
<mgrwt>
<rscale>  0 0.71150252E+03</rscale>
<asrwt>0</asrwt>
<pdfrwt beam="1">  1        2 0.45212676E+00 0.71150252E+03</pdfrwt>
<pdfrwt beam="2">  1       -2 0.57126366E-02 0.71150252E+03</pdfrwt>
<totfact> 0.33709071E+02</totfact>
</mgrwt>
</event>
<event>
 4    1  0.5626910E-005  0.5576300E+03  0.7818608E-02  0.9997431E-01
          2   -1    0    0  501    0  0.00000000000E+00  0.00000000000E+00  0.18331562209E+04  0.18331562209E+04  0.25500000000E-02 0.  1.
         -2   -1    0    0    0  501 -0.00000000000E+00 -0.00000000000E+00 -0.42406541103E+02  0.42406541180E+02  0.25500000000E-02 0. -1.
    5000001    1    1    2    0    0 -0.15279014950E+03  0.50080011910E+02  0.13076000397E+04  0.13313657279E+04  0.19200000000E+03 0.  0.
   -5000001    1    1    2    0    0  0.15279014950E+03 -0.50080011910E+02  0.48314964007E+03  0.54419703424E+03  0.19200000000E+03 0.  0.
<mgrwt>
<rscale>  0 0.55763004E+03</rscale>
<asrwt>0</asrwt>
<pdfrwt beam="1">  1        2 0.26187946E+00 0.55763004E+03</pdfrwt>
<pdfrwt beam="2">  1       -2 0.60580772E-02 0.55763004E+03</pdfrwt>
<totfact> 0.15317491E+03</totfact>
</mgrwt>
</event>
<event>
 4    1  0.5626910E-005  0.7914186E+03  0.7818608E-02  0.9572522E-01
         -2   -1    0    0    0  501 -0.00000000000E+00  0.00000000000E+00  0.12194835844E+04  0.12194835844E+04  0.25500000000E-02 0.  1.
          2   -1    0    0  501    0  0.00000000000E+00 -0.00000000000E+00 -0.12840339559E+03  0.12840339562E+03  0.25500000000E-02 0. -1.
    5000001    1    1    2    0    0  0.32845521849E+03  0.94106106166E+02  0.63856024347E+03  0.74924093208E+03  0.19200000000E+03 0.  0.
   -5000001    1    1    2    0    0 -0.32845521849E+03 -0.94106106166E+02  0.45251994530E+03  0.59864604790E+03  0.19200000000E+03 0.  0.
<mgrwt>
<rscale>  0 0.79141856E+03</rscale>
<asrwt>0</asrwt>
<pdfrwt beam="1">  1        2 0.18343342E-01 0.79141856E+03</pdfrwt>
<pdfrwt beam="2">  1       -2 0.17421194E+00 0.79141856E+03</pdfrwt>
<totfact> 0.63359973E+01</totfact>
</mgrwt>
</event>
<event>
 4    1  0.5626910E-005  0.7689040E+03  0.7818608E-02  0.9606151E-01
          2   -1    0    0  501    0  0.00000000000E+00  0.00000000000E+00  0.15579338329E+03  0.15579338331E+03  0.25500000000E-02 0.  1.
         -2   -1    0    0    0  501 -0.00000000000E+00 -0.00000000000E+00 -0.94871374808E+03  0.94871374808E+03  0.25500000000E-02 0. -1.
    5000001    1    1    2    0    0 -0.31868457753E+03 -0.96126966128E+02 -0.37952012991E+03  0.54009238338E+03  0.19200000000E+03 0.  0.
   -5000001    1    1    2    0    0  0.31868457753E+03  0.96126966128E+02 -0.41340023488E+03  0.56441474801E+03  0.19200000000E+03 0.  0.
<mgrwt>
<rscale>  0 0.76890396E+03</rscale>
<asrwt>0</asrwt>
<pdfrwt beam="1">  1        2 0.22256198E-01 0.76890396E+03</pdfrwt>
<pdfrwt beam="2">  1       -2 0.13553053E+00 0.76890396E+03</pdfrwt>
<totfact> 0.98835821E+01</totfact>
</mgrwt>
</event>
<event>
 4    1  0.5626910E-005  0.6742793E+03  0.7818608E-02  0.9762258E-01
         -2   -1    0    0    0  501 -0.00000000000E+00  0.00000000000E+00  0.14475520150E+03  0.14475520153E+03  0.25500000000E-02 0. -1.
          2   -1    0    0  501    0  0.00000000000E+00 -0.00000000000E+00 -0.78520933671E+03  0.78520933671E+03  0.25500000000E-02 0.  1.
    5000001    1    1    2    0    0  0.26666504163E+03 -0.74118200615E+02 -0.33950545578E+03  0.47825903713E+03  0.19200000000E+03 0.  0.
   -5000001    1    1    2    0    0 -0.26666504163E+03  0.74118200615E+02 -0.30094867942E+03  0.45170550111E+03  0.19200000000E+03 0.  0.
<mgrwt>
<rscale>  0 0.67427928E+03</rscale>
<asrwt>0</asrwt>
<pdfrwt beam="1">  1        2 0.11217276E+00 0.67427928E+03</pdfrwt>
<pdfrwt beam="2">  1       -2 0.20679315E-01 0.67427928E+03</pdfrwt>
<totfact> 0.78601027E+02</totfact>
</mgrwt>
</event>
<event>
 4    1  0.5626910E-005  0.9359338E+03  0.7818608E-02  0.9381745E-01
          2   -1    0    0  501    0  0.00000000000E+00  0.00000000000E+00  0.71580947664E+03  0.71580947665E+03  0.25500000000E-02 0.  1.
         -2   -1    0    0    0  501 -0.00000000000E+00 -0.00000000000E+00 -0.30593760730E+03  0.30593760731E+03  0.25500000000E-02 0. -1.
    5000001    1    1    2    0    0 -0.42525786486E+03  0.33727406822E+02  0.19168872526E+03  0.50555944951E+03  0.19200000000E+03 0.  0.
   -5000001    1    1    2    0    0  0.42525786486E+03 -0.33727406822E+02  0.21818314409E+03  0.51618763445E+03  0.19200000000E+03 0.  0.
<mgrwt>
<rscale>  0 0.93593384E+03</rscale>
<asrwt>0</asrwt>
<pdfrwt beam="1">  1        2 0.10225850E+00 0.93593384E+03</pdfrwt>
<pdfrwt beam="2">  1       -2 0.43705372E-01 0.93593384E+03</pdfrwt>
<totfact> 0.21741133E+02</totfact>
</mgrwt>
</event>
<event>
 4    1  0.5626910E-005  0.4456399E+03  0.7818608E-02  0.1029030E+00
          2   -1    0    0  501    0  0.00000000000E+00  0.00000000000E+00  0.19542112239E+04  0.19542112239E+04  0.25500000000E-02 0.  1.
         -2   -1    0    0    0  501 -0.00000000000E+00 -0.00000000000E+00 -0.25406017677E+02  0.25406017805E+02  0.25500000000E-02 0. -1.
    5000001    1    1    2    0    0 -0.87656915346E+02  0.50974339483E+02  0.74217730186E+03  0.77328731109E+03  0.19200000000E+03 0.  0.
   -5000001    1    1    2    0    0  0.87656915346E+02 -0.50974339483E+02  0.11866279044E+04  0.12063299306E+04  0.19200000000E+03 0.  0.
<mgrwt>
<rscale>  0 0.44563988E+03</rscale>
<asrwt>0</asrwt>
<pdfrwt beam="1">  1        2 0.27917319E+00 0.44563988E+03</pdfrwt>
<pdfrwt beam="2">  1       -2 0.36294290E-02 0.44563988E+03</pdfrwt>
<totfact> 0.29461616E+03</totfact>
</mgrwt>
</event>
<event>
 4    1  0.5626910E-005  0.5657212E+03  0.7818608E-02  0.9979192E-01
          2   -1    0    0  501    0  0.00000000000E+00  0.00000000000E+00  0.10567694725E+04  0.10567694725E+04  0.25500000000E-02 0.  1.
         -2   -1    0    0    0  501 -0.00000000000E+00 -0.00000000000E+00 -0.75711992460E+02  0.75711992503E+02  0.25500000000E-02 0. -1.
    5000001    1    1    2    0    0 -0.15934731070E+03  0.13303739410E+03  0.47560079457E+03  0.55330880117E+03  0.19200000000E+03 0.  0.
   -5000001    1    1    2    0    0  0.15934731070E+03 -0.13303739410E+03  0.50545668552E+03  0.57917266388E+03  0.19200000000E+03 0.  0.
<mgrwt>
<rscale>  0 0.56572121E+03</rscale>
<asrwt>0</asrwt>
<pdfrwt beam="1">  1        2 0.15096706E+00 0.56572121E+03</pdfrwt>
<pdfrwt beam="2">  1       -2 0.10816000E-01 0.56572121E+03</pdfrwt>
<totfact> 0.15737873E+03</totfact>
</mgrwt>
</event>
<event>
 4    1  0.5626910E-005  0.8374711E+03  0.7818608E-02  0.9507309E-01
         -2   -1    0    0    0  501 -0.00000000000E+00  0.00000000000E+00  0.16275570779E+03  0.16275570781E+03  0.25500000000E-02 0. -1.
          2   -1    0    0  501    0  0.00000000000E+00 -0.00000000000E+00 -0.10773167413E+04  0.10773167413E+04  0.25500000000E-02 0.  1.
    5000001    1    1    2    0    0  0.14952768223E+03 -0.32562989498E+03 -0.30860050613E+03  0.51038380523E+03  0.19200000000E+03 0.  0.
   -5000001    1    1    2    0    0 -0.14952768223E+03  0.32562989498E+03 -0.60596052735E+03  0.72968864385E+03  0.19200000000E+03 0.  0.
<mgrwt>
<rscale>  0 0.83747107E+03</rscale>
<asrwt>0</asrwt>
<pdfrwt beam="1">  1        2 0.15390239E+00 0.83747107E+03</pdfrwt>
<pdfrwt beam="2">  1       -2 0.23250816E-01 0.83747107E+03</pdfrwt>
<totfact> 0.41243232E+02</totfact>
</mgrwt>
</event>
<event>
 4    1  0.5626910E-005  0.4961071E+03  0.7818608E-02  0.1014800E+00
         -2   -1    0    0    0  501 -0.00000000000E+00  0.00000000000E+00  0.52155182512E+02  0.52155182574E+02  0.25500000000E-02 0.  1.
          2   -1    0    0  501    0  0.00000000000E+00 -0.00000000000E+00 -0.11797594225E+04  0.11797594225E+04  0.25500000000E-02 0. -1.
    5000001    1    1    2    0    0 -0.10168754088E+03  0.11561657405E+03 -0.48690342851E+03  0.54556988266E+03  0.19200000000E+03 0.  0.
   -5000001    1    1    2    0    0  0.10168754088E+03 -0.11561657405E+03 -0.64070081144E+03  0.68634472238E+03  0.19200000000E+03 0.  0.
<mgrwt>
<rscale>  0 0.49610712E+03</rscale>
<asrwt>0</asrwt>
<pdfrwt beam="1">  1        2 0.16853704E+00 0.49610712E+03</pdfrwt>
<pdfrwt beam="2">  1       -2 0.74507411E-02 0.49610712E+03</pdfrwt>
<totfact> 0.24327931E+03</totfact>
</mgrwt>
</event>
<event>
 4    1  0.5626910E-005  0.7360254E+03  0.7818608E-02  0.9657533E-01
          2   -1    0    0  501    0  0.00000000000E+00  0.00000000000E+00  0.25832849293E+04  0.25832849293E+04  0.25500000000E-02 0.  1.
         -2   -1    0    0    0  501 -0.00000000000E+00 -0.00000000000E+00 -0.52426787577E+02  0.52426787640E+02  0.25500000000E-02 0. -1.
    5000001    1    1    2    0    0  0.12984748444E+03  0.26587561420E+03  0.16413344729E+04  0.16788070358E+04  0.19200000000E+03 0.  0.
   -5000001    1    1    2    0    0 -0.12984748444E+03 -0.26587561420E+03  0.88952366882E+03  0.95690468116E+03  0.19200000000E+03 0.  0.
<mgrwt>
<rscale>  0 0.73602535E+03</rscale>
<asrwt>0</asrwt>
<pdfrwt beam="1">  1        2 0.36904079E+00 0.73602535E+03</pdfrwt>
<pdfrwt beam="2">  1       -2 0.74895393E-02 0.73602535E+03</pdfrwt>
<totfact> 0.45101403E+02</totfact>
</mgrwt>
</event>
<event>
 4    1  0.5626910E-005  0.5817398E+03  0.7818608E-02  0.9944031E-01
         -2   -1    0    0    0  501 -0.00000000000E+00  0.00000000000E+00  0.51393014790E+03  0.51393014791E+03  0.25500000000E-02 0. -1.
          2   -1    0    0  501    0  0.00000000000E+00 -0.00000000000E+00 -0.16462413639E+03  0.16462413641E+03  0.25500000000E-02 0.  1.
    5000001    1    1    2    0    0 -0.12233590731E+03 -0.16647380497E+03  0.25763888627E+03  0.38199659380E+03  0.19200000000E+03 0.  0.
   -5000001    1    1    2    0    0  0.12233590731E+03  0.16647380497E+03  0.91667125241E+02  0.29655769052E+03  0.19200000000E+03 0.  0.
<mgrwt>
<rscale>  0 0.58173983E+03</rscale>
<asrwt>0</asrwt>
<pdfrwt beam="1">  1        2 0.23517734E-01 0.58173983E+03</pdfrwt>
<pdfrwt beam="2">  1       -2 0.73418593E-01 0.58173983E+03</pdfrwt>
<totfact> 0.39747199E+02</totfact>
</mgrwt>
</event>
<event>
 4    1  0.5626910E-005  0.4540325E+03  0.7818608E-02  0.1026526E+00
         -2   -1    0    0    0  501 -0.00000000000E+00  0.00000000000E+00  0.36742784548E+02  0.36742784636E+02  0.25500000000E-02 0. -1.
          2   -1    0    0  501    0  0.00000000000E+00 -0.00000000000E+00 -0.14026257913E+04  0.14026257913E+04  0.25500000000E-02 0.  1.
    5000001    1    1    2    0    0  0.11740699349E+03 -0.21000545340E+02 -0.74996323761E+03  0.78328429245E+03  0.19200000000E+03 0.  0.
   -5000001    1    1    2    0    0 -0.11740699349E+03  0.21000545340E+02 -0.61591976914E+03  0.65608428349E+03  0.19200000000E+03 0.  0.
<mgrwt>
<rscale>  0 0.45403250E+03</rscale>
<asrwt>0</asrwt>
<pdfrwt beam="1">  1        2 0.20037508E+00 0.45403250E+03</pdfrwt>
<pdfrwt beam="2">  1       -2 0.52489701E-02 0.45403250E+03</pdfrwt>
<totfact> 0.31852014E+03</totfact>
</mgrwt>
</event>
<event>
 4    1  0.5626910E-005  0.7117257E+03  0.7818608E-02  0.9697387E-01
         -2   -1    0    0    0  501 -0.00000000000E+00  0.00000000000E+00  0.16342708441E+03  0.16342708443E+03  0.25500000000E-02 0. -1.
          2   -1    0    0  501    0  0.00000000000E+00 -0.00000000000E+00 -0.77489214222E+03  0.77489214223E+03  0.25500000000E-02 0.  1.
    5000001    1    1    2    0    0 -0.25363511971E+03 -0.15422757673E+02 -0.51504138232E+03  0.60555780972E+03  0.19200000000E+03 0.  0.
   -5000001    1    1    2    0    0  0.25363511971E+03  0.15422757673E+02 -0.96423675489E+02  0.33276141694E+03  0.19200000000E+03 0.  0.
<mgrwt>
<rscale>  0 0.71172569E+03</rscale>
<asrwt>0</asrwt>
<pdfrwt beam="1">  1        2 0.11069888E+00 0.71172569E+03</pdfrwt>
<pdfrwt beam="2">  1       -2 0.23346727E-01 0.71172569E+03</pdfrwt>
<totfact> 0.64436325E+02</totfact>
</mgrwt>
</event>
<event>
 4    1  0.5626910E-005  0.6771018E+03  0.7818608E-02  0.9757213E-01
          2   -1    0    0  501    0  0.00000000000E+00  0.00000000000E+00  0.10763134278E+04  0.10763134278E+04  0.25500000000E-02 0.  1.
         -2   -1    0    0    0  501 -0.00000000000E+00 -0.00000000000E+00 -0.10649008199E+03  0.10649008202E+03  0.25500000000E-02 0. -1.
    5000001    1    1    2    0    0 -0.36871075434E+02 -0.25352308980E+03  0.29260386657E+03  0.43372163423E+03  0.19200000000E+03 0.  0.
   -5000001    1    1    2    0    0  0.36871075434E+02  0.25352308980E+03  0.67721947925E+03  0.74908187560E+03  0.19200000000E+03 0.  0.
<mgrwt>
<rscale>  0 0.67710178E+03</rscale>
<asrwt>0</asrwt>
<pdfrwt beam="1">  1        2 0.15375905E+00 0.67710178E+03</pdfrwt>
<pdfrwt beam="2">  1       -2 0.15212870E-01 0.67710178E+03</pdfrwt>
<totfact> 0.86795563E+02</totfact>
</mgrwt>
</event>
<event>
 4    1  0.5626910E-005  0.4189810E+03  0.7818608E-02  0.1037398E+00
         -2   -1    0    0    0  501 -0.00000000000E+00  0.00000000000E+00  0.53949140448E+02  0.53949140508E+02  0.25500000000E-02 0. -1.
          2   -1    0    0  501    0  0.00000000000E+00 -0.00000000000E+00 -0.81347491544E+03  0.81347491544E+03  0.25500000000E-02 0.  1.
    5000001    1    1    2    0    0 -0.70578857186E+02 -0.44645851426E+02 -0.36547238742E+03  0.42119911337E+03  0.19200000000E+03 0.  0.
   -5000001    1    1    2    0    0  0.70578857186E+02  0.44645851426E+02 -0.39405338756E+03  0.44622494258E+03  0.19200000000E+03 0.  0.
<mgrwt>
<rscale>  0 0.41898101E+03</rscale>
<asrwt>0</asrwt>
<pdfrwt beam="1">  1        2 0.11621070E+00 0.41898101E+03</pdfrwt>
<pdfrwt beam="2">  1       -2 0.77070205E-02 0.41898101E+03</pdfrwt>
<totfact> 0.38515735E+03</totfact>
</mgrwt>
</event>
<event>
 4    1  0.5626910E-005  0.6115812E+03  0.7818608E-02  0.9881666E-01
         -2   -1    0    0    0  501 -0.00000000000E+00  0.00000000000E+00  0.12649130743E+03  0.12649130745E+03  0.25500000000E-02 0. -1.
          2   -1    0    0  501    0  0.00000000000E+00 -0.00000000000E+00 -0.73924369759E+03  0.73924369760E+03  0.25500000000E-02 0.  1.
    5000001    1    1    2    0    0  0.62077891591E+02  0.20932841340E+03 -0.17229375957E+03  0.33796625404E+03  0.19200000000E+03 0.  0.
   -5000001    1    1    2    0    0 -0.62077891591E+02 -0.20932841340E+03 -0.44045863059E+03  0.52776875101E+03  0.19200000000E+03 0.  0.
<mgrwt>
<rscale>  0 0.61158124E+03</rscale>
<asrwt>0</asrwt>
<pdfrwt beam="1">  1        2 0.10560624E+00 0.61158124E+03</pdfrwt>
<pdfrwt beam="2">  1       -2 0.18070187E-01 0.61158124E+03</pdfrwt>
<totfact> 0.10732800E+03</totfact>
</mgrwt>
</event>
<event>
 4    1  0.5626910E-005  0.8250268E+03  0.7818608E-02  0.9524482E-01
          2   -1    0    0  501    0  0.00000000000E+00  0.00000000000E+00  0.42205138322E+03  0.42205138323E+03  0.25500000000E-02 0.  1.
         -2   -1    0    0    0  501 -0.00000000000E+00 -0.00000000000E+00 -0.40319096692E+03  0.40319096692E+03  0.25500000000E-02 0. -1.
    5000001    1    1    2    0    0 -0.17114408675E+02  0.35925989208E+03  0.72237792976E+02  0.41405660455E+03  0.19200000000E+03 0.  0.
   -5000001    1    1    2    0    0  0.17114408675E+02 -0.35925989208E+03 -0.53377376670E+02  0.41118574560E+03  0.19200000000E+03 0.  0.
<mgrwt>
<rscale>  0 0.82502680E+03</rscale>
<asrwt>0</asrwt>
<pdfrwt beam="1">  1        2 0.60293055E-01 0.82502680E+03</pdfrwt>
<pdfrwt beam="2">  1       -2 0.57598709E-01 0.82502680E+03</pdfrwt>
<totfact> 0.23124145E+02</totfact>
</mgrwt>
</event>
<event>
 4    1  0.5626910E-005  0.5728725E+03  0.7818608E-02  0.9963342E-01
          2   -1    0    0  501    0  0.00000000000E+00  0.00000000000E+00  0.22423546646E+03  0.22423546647E+03  0.25500000000E-02 0.  1.
         -2   -1    0    0    0  501 -0.00000000000E+00 -0.00000000000E+00 -0.36589094615E+03  0.36589094616E+03  0.25500000000E-02 0. -1.
    5000001    1    1    2    0    0  0.50680546434E+02  0.20142113658E+03 -0.11738560759E+03  0.30623907804E+03  0.19200000000E+03 0.  0.
   -5000001    1    1    2    0    0 -0.50680546434E+02 -0.20142113658E+03 -0.24269872103E+02  0.28388733459E+03  0.19200000000E+03 0.  0.
<mgrwt>
<rscale>  0 0.57287251E+03</rscale>
<asrwt>0</asrwt>
<pdfrwt beam="1">  1        2 0.32033638E-01 0.57287251E+03</pdfrwt>
<pdfrwt beam="2">  1       -2 0.52270135E-01 0.57287251E+03</pdfrwt>
<totfact> 0.57503482E+02</totfact>
</mgrwt>
</event>
<event>
 4    1  0.5626910E-005  0.1644731E+04  0.7818608E-02  0.8793530E-01
          2   -1    0    0  501    0  0.00000000000E+00  0.00000000000E+00  0.12891634341E+04  0.12891634341E+04  0.25500000000E-02 0.  1.
         -2   -1    0    0    0  501 -0.00000000000E+00 -0.00000000000E+00 -0.52459197049E+03  0.52459197050E+03  0.25500000000E-02 0. -1.
    5000001    1    1    2    0    0 -0.38909253832E+03  0.42138502835E+03 -0.23216695669E+03  0.64786097371E+03  0.19200000000E+03 0.  0.
   -5000001    1    1    2    0    0  0.38909253832E+03 -0.42138502835E+03  0.99673842032E+03  0.11658944309E+04  0.19200000000E+03 0.  0.
<mgrwt>
<rscale>  0 0.16447307E+04</rscale>
<asrwt>0</asrwt>
<pdfrwt beam="1">  1        2 0.18416620E+00 0.16447307E+04</pdfrwt>
<pdfrwt beam="2">  1       -2 0.74941711E-01 0.16447307E+04</pdfrwt>
<totfact> 0.29169523E+01</totfact>
</mgrwt>
</event>
<event>
 4    1  0.5626910E-005  0.4898962E+03  0.7818608E-02  0.1016450E+00
         -2   -1    0    0    0  501 -0.00000000000E+00  0.00000000000E+00  0.15981727738E+03  0.15981727740E+03  0.25500000000E-02 0. -1.
          2   -1    0    0  501    0  0.00000000000E+00 -0.00000000000E+00 -0.37542605436E+03  0.37542605437E+03  0.25500000000E-02 0.  1.
    5000001    1    1    2    0    0  0.15143691315E+03  0.10686540547E+02 -0.97541891796E+02  0.26348768751E+03  0.19200000000E+03 0.  0.
   -5000001    1    1    2    0    0 -0.15143691315E+03 -0.10686540547E+02 -0.11806688519E+03  0.27175564426E+03  0.19200000000E+03 0.  0.
<mgrwt>
<rscale>  0 0.48989619E+03</rscale>
<asrwt>0</asrwt>
<pdfrwt beam="1">  1        2 0.53632293E-01 0.48989619E+03</pdfrwt>
<pdfrwt beam="2">  1       -2 0.22831040E-01 0.48989619E+03</pdfrwt>
<totfact> 0.15611434E+03</totfact>
</mgrwt>
</event>
<event>
 4    1  0.5626910E-005  0.5464893E+03  0.7818608E-02  0.1002310E+00
         -2   -1    0    0    0  501 -0.00000000000E+00  0.00000000000E+00  0.38897695309E+02  0.38897695392E+02  0.25500000000E-02 0. -1.
          2   -1    0    0  501    0  0.00000000000E+00 -0.00000000000E+00 -0.19194617229E+04  0.19194617229E+04  0.25500000000E-02 0.  1.
    5000001    1    1    2    0    0 -0.84049138051E+02  0.17463240987E+03 -0.99555450198E+03  0.10322565101E+04  0.19200000000E+03 0.  0.
   -5000001    1    1    2    0    0  0.84049138051E+02 -0.17463240987E+03 -0.88500952560E+03  0.92610290821E+03  0.19200000000E+03 0.  0.
<mgrwt>
<rscale>  0 0.54648929E+03</rscale>
<asrwt>0</asrwt>
<pdfrwt beam="1">  1        2 0.27420876E+00 0.54648929E+03</pdfrwt>
<pdfrwt beam="2">  1       -2 0.55568148E-02 0.54648929E+03</pdfrwt>
<totfact> 0.15871024E+03</totfact>
</mgrwt>
</event>
<event>
 4    1  0.5626910E-005  0.6100153E+03  0.7818608E-02  0.9884843E-01
         -2   -1    0    0    0  501 -0.00000000000E+00  0.00000000000E+00  0.25274916421E+03  0.25274916422E+03  0.25500000000E-02 0.  1.
          2   -1    0    0  501    0  0.00000000000E+00 -0.00000000000E+00 -0.36807108601E+03  0.36807108602E+03  0.25500000000E-02 0. -1.
    5000001    1    1    2    0    0  0.83177346510E+02 -0.18729645927E+03  0.63473456568E+02  0.28790851727E+03  0.19200000000E+03 0.  0.
   -5000001    1    1    2    0    0 -0.83177346510E+02  0.18729645927E+03 -0.17879537837E+03  0.33291173297E+03  0.19200000000E+03 0.  0.
<mgrwt>
<rscale>  0 0.61001528E+03</rscale>
<asrwt>0</asrwt>
<pdfrwt beam="1">  1        2 0.52581584E-01 0.61001528E+03</pdfrwt>
<pdfrwt beam="2">  1       -2 0.36107023E-01 0.61001528E+03</pdfrwt>
<totfact> 0.68861562E+02</totfact>
</mgrwt>
</event>
<event>
 4    1  0.5626910E-005  0.5984128E+03  0.7818608E-02  0.9908705E-01
          2   -1    0    0  501    0  0.00000000000E+00  0.00000000000E+00  0.12872297138E+04  0.12872297138E+04  0.25500000000E-02 0.  1.
         -2   -1    0    0    0  501 -0.00000000000E+00 -0.00000000000E+00 -0.69548162598E+02  0.69548162645E+02  0.25500000000E-02 0. -1.
    5000001    1    1    2    0    0 -0.11496664398E+02 -0.15162852331E+03  0.99850602074E+03  0.10281058583E+04  0.19200000000E+03 0.  0.
   -5000001    1    1    2    0    0  0.11496664398E+02  0.15162852331E+03  0.21917553047E+03  0.32867201817E+03  0.19200000000E+03 0.  0.
<mgrwt>
<rscale>  0 0.59841277E+03</rscale>
<asrwt>0</asrwt>
<pdfrwt beam="1">  1        2 0.18388997E+00 0.59841277E+03</pdfrwt>
<pdfrwt beam="2">  1       -2 0.99354513E-02 0.59841277E+03</pdfrwt>
<totfact> 0.13366212E+03</totfact>
</mgrwt>
</event>
<event>
 4    1  0.5626910E-005  0.8558524E+03  0.7818608E-02  0.9482516E-01
         -2   -1    0    0    0  501 -0.00000000000E+00  0.00000000000E+00  0.85253989735E+02  0.85253989773E+02  0.25500000000E-02 0. -1.
          2   -1    0    0  501    0  0.00000000000E+00 -0.00000000000E+00 -0.21479442341E+04  0.21479442341E+04  0.25500000000E-02 0.  1.
    5000001    1    1    2    0    0  0.15231388362E+01  0.37996955681E+03 -0.11444115372E+04  0.12210327393E+04  0.19200000000E+03 0.  0.
   -5000001    1    1    2    0    0 -0.15231388362E+01 -0.37996955681E+03 -0.91827870712E+03  0.10121654845E+04  0.19200000000E+03 0.  0.
<mgrwt>
<rscale>  0 0.85585236E+03</rscale>
<asrwt>0</asrwt>
<pdfrwt beam="1">  1        2 0.30684914E+00 0.85585236E+03</pdfrwt>
<pdfrwt beam="2">  1       -2 0.12179143E-01 0.85585236E+03</pdfrwt>
<totfact> 0.33936399E+02</totfact>
</mgrwt>
</event>
<event>
 4    1  0.5626910E-005  0.4240200E+03  0.7818608E-02  0.1035766E+00
         -2   -1    0    0    0  501 -0.00000000000E+00  0.00000000000E+00  0.65233961931E+02  0.65233961981E+02  0.25500000000E-02 0. -1.
          2   -1    0    0  501    0  0.00000000000E+00 -0.00000000000E+00 -0.68903138114E+03  0.68903138115E+03  0.25500000000E-02 0.  1.
    5000001    1    1    2    0    0 -0.19794814453E+02 -0.85832143780E+02 -0.34397986379E+03  0.40366463590E+03  0.19200000000E+03 0.  0.
   -5000001    1    1    2    0    0  0.19794814453E+02  0.85832143780E+02 -0.27981755542E+03  0.35060070722E+03  0.19200000000E+03 0.  0.
<mgrwt>
<rscale>  0 0.42402003E+03</rscale>
<asrwt>0</asrwt>
<pdfrwt beam="1">  1        2 0.98433050E-01 0.42402003E+03</pdfrwt>
<pdfrwt beam="2">  1       -2 0.93191378E-02 0.42402003E+03</pdfrwt>
<totfact> 0.34974181E+03</totfact>
</mgrwt>
</event>
<event>
 4    1  0.5626910E-005  0.7147394E+03  0.7818608E-02  0.9692353E-01
         -2   -1    0    0    0  501 -0.00000000000E+00  0.00000000000E+00  0.60009354317E+02  0.60009354371E+02  0.25500000000E-02 0. -1.
          2   -1    0    0  501    0  0.00000000000E+00 -0.00000000000E+00 -0.21282200118E+04  0.21282200118E+04  0.25500000000E-02 0.  1.
    5000001    1    1    2    0    0  0.29563359778E+03  0.53092418561E+02 -0.95719454502E+03  0.10214222565E+04  0.19200000000E+03 0.  0.
   -5000001    1    1    2    0    0 -0.29563359778E+03 -0.53092418561E+02 -0.11110161124E+04  0.11668071096E+04  0.19200000000E+03 0.  0.
<mgrwt>
<rscale>  0 0.71473942E+03</rscale>
<asrwt>0</asrwt>
<pdfrwt beam="1">  1        2 0.30403138E+00 0.71473942E+03</pdfrwt>
<pdfrwt beam="2">  1       -2 0.85727662E-02 0.71473942E+03</pdfrwt>
<totfact> 0.62197784E+02</totfact>
</mgrwt>
</event>
<event>
 4    1  0.5626910E-005  0.9682141E+03  0.7818608E-02  0.9344111E-01
          2   -1    0    0  501    0  0.00000000000E+00  0.00000000000E+00  0.12274004289E+04  0.12274004289E+04  0.25500000000E-02 0. -1.
         -2   -1    0    0    0  501 -0.00000000000E+00 -0.00000000000E+00 -0.19093983937E+03  0.19093983938E+03  0.25500000000E-02 0.  1.
    5000001    1    1    2    0    0 -0.39256294891E+03  0.16209212163E+03  0.32657905359E+03  0.56911984941E+03  0.19200000000E+03 0.  0.
   -5000001    1    1    2    0    0  0.39256294891E+03 -0.16209212163E+03  0.70988153591E+03  0.84922041884E+03  0.19200000000E+03 0.  0.
<mgrwt>
<rscale>  0 0.96821411E+03</rscale>
<asrwt>0</asrwt>
<pdfrwt beam="1">  1        2 0.17534293E+00 0.96821411E+03</pdfrwt>
<pdfrwt beam="2">  1       -2 0.27277118E-01 0.96821411E+03</pdfrwt>
<totfact> 0.25139873E+02</totfact>
</mgrwt>
</event>
<event>
 4    1  0.5626910E-005  0.5779585E+03  0.7818608E-02  0.9952221E-01
          2   -1    0    0  501    0  0.00000000000E+00  0.00000000000E+00  0.59649807021E+03  0.59649807021E+03  0.25500000000E-02 0.  1.
         -2   -1    0    0    0  501 -0.00000000000E+00 -0.00000000000E+00 -0.13999879987E+03  0.13999879989E+03  0.25500000000E-02 0. -1.
    5000001    1    1    2    0    0  0.20365094124E+03  0.67264569475E+02  0.26065780204E+03  0.38833583139E+03  0.19200000000E+03 0.  0.
   -5000001    1    1    2    0    0 -0.20365094124E+03 -0.67264569475E+02  0.19584146830E+03  0.34816103872E+03  0.19200000000E+03 0.  0.
<mgrwt>
<rscale>  0 0.57795852E+03</rscale>
<asrwt>0</asrwt>
<pdfrwt beam="1">  1        2 0.85214010E-01 0.57795852E+03</pdfrwt>
<pdfrwt beam="2">  1       -2 0.19999829E-01 0.57795852E+03</pdfrwt>
<totfact> 0.11671408E+03</totfact>
</mgrwt>
</event>
<event>
 4    1  0.5626910E-005  0.6117788E+03  0.7818608E-02  0.9881266E-01
          2   -1    0    0  501    0  0.00000000000E+00  0.00000000000E+00  0.44272148191E+03  0.44272148192E+03  0.25500000000E-02 0.  1.
         -2   -1    0    0    0  501 -0.00000000000E+00 -0.00000000000E+00 -0.21134803188E+03  0.21134803190E+03  0.25500000000E-02 0. -1.
    5000001    1    1    2    0    0  0.66135257938E+02  0.21558090507E+03  0.19749639453E+03  0.35597447216E+03  0.19200000000E+03 0.  0.
   -5000001    1    1    2    0    0 -0.66135257938E+02 -0.21558090507E+03  0.33877055492E+02  0.29809504166E+03  0.19200000000E+03 0.  0.
<mgrwt>
<rscale>  0 0.61177876E+03</rscale>
<asrwt>0</asrwt>
<pdfrwt beam="1">  1        2 0.63245927E-01 0.61177876E+03</pdfrwt>
<pdfrwt beam="2">  1       -2 0.30192576E-01 0.61177876E+03</pdfrwt>
<totfact> 0.78436596E+02</totfact>
</mgrwt>
</event>
<event>
 4    1  0.5626910E-005  0.4225963E+03  0.7818608E-02  0.1036225E+00
          2   -1    0    0  501    0  0.00000000000E+00  0.00000000000E+00  0.47896578792E+03  0.47896578792E+03  0.25500000000E-02 0.  1.
         -2   -1    0    0    0  501 -0.00000000000E+00 -0.00000000000E+00 -0.93215233717E+02  0.93215233752E+02  0.25500000000E-02 0. -1.
    5000001    1    1    2    0    0  0.17270030674E+02  0.51253257801E+02  0.98507076359E+02  0.22246976084E+03  0.19200000000E+03 0.  0.
   -5000001    1    1    2    0    0 -0.17270030674E+02 -0.51253257801E+02  0.28724347784E+03  0.34971126084E+03  0.19200000000E+03 0.  0.
<mgrwt>
<rscale>  0 0.42259630E+03</rscale>
<asrwt>0</asrwt>
<pdfrwt beam="1">  1        2 0.68423684E-01 0.42259630E+03</pdfrwt>
<pdfrwt beam="2">  1       -2 0.13316462E-01 0.42259630E+03</pdfrwt>
<totfact> 0.29821262E+03</totfact>
</mgrwt>
</event>
<event>
 4    1  0.5626910E-005  0.6346122E+03  0.7818608E-02  0.9836090E-01
         -2   -1    0    0    0  501 -0.00000000000E+00  0.00000000000E+00  0.44031323172E+03  0.44031323173E+03  0.25500000000E-02 0. -1.
          2   -1    0    0  501    0  0.00000000000E+00 -0.00000000000E+00 -0.22866256923E+03  0.22866256924E+03  0.25500000000E-02 0.  1.
    5000001    1    1    2    0    0 -0.18192063883E+03  0.15717637465E+03  0.24037882618E+02  0.30861197544E+03  0.19200000000E+03 0.  0.
   -5000001    1    1    2    0    0  0.18192063883E+03 -0.15717637465E+03  0.18761277988E+03  0.36036382554E+03  0.19200000000E+03 0.  0.
<mgrwt>
<rscale>  0 0.63461218E+03</rscale>
<asrwt>0</asrwt>
<pdfrwt beam="1">  1        2 0.32666081E-01 0.63461218E+03</pdfrwt>
<pdfrwt beam="2">  1       -2 0.62901890E-01 0.63461218E+03</pdfrwt>
<totfact> 0.38210964E+02</totfact>
</mgrwt>
</event>
<event>
 4    1  0.5626910E-005  0.7482088E+03  0.7818608E-02  0.9638165E-01
          2   -1    0    0  501    0  0.00000000000E+00  0.00000000000E+00  0.13188903878E+04  0.13188903878E+04  0.25500000000E-02 0.  1.
         -2   -1    0    0    0  501 -0.00000000000E+00 -0.00000000000E+00 -0.10611502915E+03  0.10611502918E+03  0.25500000000E-02 0. -1.
    5000001    1    1    2    0    0 -0.30090838285E+03  0.10607219058E+03  0.67487036836E+03  0.77078607835E+03  0.19200000000E+03 0.  0.
   -5000001    1    1    2    0    0  0.30090838285E+03 -0.10607219058E+03  0.53790499032E+03  0.65421933867E+03  0.19200000000E+03 0.  0.
<mgrwt>
<rscale>  0 0.74820877E+03</rscale>
<asrwt>0</asrwt>
<pdfrwt beam="1">  1        2 0.18841290E+00 0.74820877E+03</pdfrwt>
<pdfrwt beam="2">  1       -2 0.15159291E-01 0.74820877E+03</pdfrwt>
<totfact> 0.63497226E+02</totfact>
</mgrwt>
</event>
<event>
 4    1  0.5626910E-005  0.5171882E+03  0.7818608E-02  0.1009387E+00
          2   -1    0    0  501    0  0.00000000000E+00  0.00000000000E+00  0.60406780721E+03  0.60406780721E+03  0.25500000000E-02 0.  1.
         -2   -1    0    0    0  501 -0.00000000000E+00 -0.00000000000E+00 -0.11070100571E+03  0.11070100574E+03  0.25500000000E-02 0. -1.
    5000001    1    1    2    0    0 -0.10575756274E+02 -0.16782820827E+03  0.30414586967E+03  0.39704768498E+03  0.19200000000E+03 0.  0.
   -5000001    1    1    2    0    0  0.10575756274E+02  0.16782820827E+03  0.18922093183E+03  0.31772112797E+03  0.19200000000E+03 0.  0.
<mgrwt>
<rscale>  0 0.51718822E+03</rscale>
<asrwt>0</asrwt>
<pdfrwt beam="1">  1        2 0.86295397E-01 0.51718822E+03</pdfrwt>
<pdfrwt beam="2">  1       -2 0.15814430E-01 0.51718822E+03</pdfrwt>
<totfact> 0.17197804E+03</totfact>
</mgrwt>
</event>
<event>
 4    1  0.5626910E-005  0.4526259E+03  0.7818608E-02  0.1026942E+00
         -2   -1    0    0    0  501 -0.00000000000E+00  0.00000000000E+00  0.22929810029E+02  0.22929810171E+02  0.25500000000E-02 0. -1.
          2   -1    0    0  501    0  0.00000000000E+00 -0.00000000000E+00 -0.22336663546E+04  0.22336663546E+04  0.25500000000E-02 0.  1.
    5000001    1    1    2    0    0 -0.63333889406E+02  0.24350655129E+02 -0.15976385598E+04  0.16105642190E+04  0.19200000000E+03 0.  0.
   -5000001    1    1    2    0    0  0.63333889406E+02 -0.24350655129E+02 -0.61309798479E+03  0.64603194573E+03  0.19200000000E+03 0.  0.
<mgrwt>
<rscale>  0 0.45262587E+03</rscale>
<asrwt>0</asrwt>
<pdfrwt beam="1">  1        2 0.31909505E+00 0.45262587E+03</pdfrwt>
<pdfrwt beam="2">  1       -2 0.32756886E-02 0.45262587E+03</pdfrwt>
<totfact> 0.24983584E+03</totfact>
</mgrwt>
</event>
<event>
 4    1  0.5626910E-005  0.1143365E+04  0.7818608E-02  0.9163927E-01
          2   -1    0    0  501    0  0.00000000000E+00  0.00000000000E+00  0.33787976091E+04  0.33787976091E+04  0.25500000000E-02 0.  1.
         -2   -1    0    0    0  501 -0.00000000000E+00 -0.00000000000E+00 -0.96726934284E+02  0.96726934318E+02  0.25500000000E-02 0. -1.
    5000001    1    1    2    0    0 -0.52309341831E+03  0.11364225332E+03  0.14633877051E+04  0.15700028221E+04  0.19200000000E+03 0.  0.
   -5000001    1    1    2    0    0  0.52309341831E+03 -0.11364225332E+03  0.18186829698E+04  0.19055217214E+04  0.19200000000E+03 0.  0.
<mgrwt>
<rscale>  0 0.11433647E+04</rscale>
<asrwt>0</asrwt>
<pdfrwt beam="1">  1        2 0.48268537E+00 0.11433647E+04</pdfrwt>
<pdfrwt beam="2">  1       -2 0.13818134E-01 0.11433647E+04</pdfrwt>
<totfact> 0.58081106E+01</totfact>
</mgrwt>
</event>
<event>
 4    1  0.5626910E-005  0.5870089E+03  0.7818608E-02  0.9932731E-01
         -2   -1    0    0    0  501 -0.00000000000E+00  0.00000000000E+00  0.22927241568E+02  0.22927241710E+02  0.25500000000E-02 0. -1.
          2   -1    0    0  501    0  0.00000000000E+00 -0.00000000000E+00 -0.37573151582E+04  0.37573151582E+04  0.25500000000E-02 0.  1.
    5000001    1    1    2    0    0  0.12174040766E+03 -0.15498037545E+03 -0.25252316128E+04  0.25401768328E+04  0.19200000000E+03 0.  0.
   -5000001    1    1    2    0    0 -0.12174040766E+03  0.15498037545E+03 -0.12091563039E+04  0.12400655671E+04  0.19200000000E+03 0.  0.
<mgrwt>
<rscale>  0 0.58700894E+03</rscale>
<asrwt>0</asrwt>
<pdfrwt beam="1">  1        2 0.53675892E+00 0.58700894E+03</pdfrwt>
<pdfrwt beam="2">  1       -2 0.32753226E-02 0.58700894E+03</pdfrwt>
<totfact> 0.36019743E+02</totfact>
</mgrwt>
</event>
<event>
 4    1  0.5626910E-005  0.1240390E+04  0.7818608E-02  0.9078220E-01
         -2   -1    0    0    0  501 -0.00000000000E+00  0.00000000000E+00  0.22715648574E+03  0.22715648575E+03  0.25500000000E-02 0. -1.
          2   -1    0    0  501    0  0.00000000000E+00 -0.00000000000E+00 -0.16932890059E+04  0.16932890059E+04  0.25500000000E-02 0.  1.
    5000001    1    1    2    0    0  0.30925928191E+03  0.45137055929E+03 -0.10736865932E+04  0.12202637361E+04  0.19200000000E+03 0.  0.
   -5000001    1    1    2    0    0 -0.30925928191E+03 -0.45137055929E+03 -0.39244592701E+03  0.70018175559E+03  0.19200000000E+03 0.  0.
<mgrwt>
<rscale>  0 0.12403896E+04</rscale>
<asrwt>0</asrwt>
<pdfrwt beam="1">  1        2 0.24189842E+00 0.12403896E+04</pdfrwt>
<pdfrwt beam="2">  1       -2 0.32450928E-01 0.12403896E+04</pdfrwt>
<totfact> 0.10063271E+02</totfact>
</mgrwt>
</event>
<event>
 4    1  0.5626910E-005  0.5122020E+03  0.7818608E-02  0.1010642E+00
          2   -1    0    0  501    0  0.00000000000E+00  0.00000000000E+00  0.10342726778E+04  0.10342726778E+04  0.25500000000E-02 0.  1.
         -2   -1    0    0    0  501 -0.00000000000E+00 -0.00000000000E+00 -0.63414334616E+02  0.63414334667E+02  0.25500000000E-02 0. -1.
    5000001    1    1    2    0    0 -0.91962707887E+02 -0.13726656713E+03  0.56631323546E+03  0.62038208448E+03  0.19200000000E+03 0.  0.
   -5000001    1    1    2    0    0  0.91962707887E+02  0.13726656713E+03  0.40454510771E+03  0.47730492797E+03  0.19200000000E+03 0.  0.
<mgrwt>
<rscale>  0 0.51220197E+03</rscale>
<asrwt>0</asrwt>
<pdfrwt beam="1">  1        2 0.14775324E+00 0.51220197E+03</pdfrwt>
<pdfrwt beam="2">  1       -2 0.90591908E-02 0.51220197E+03</pdfrwt>
<totfact> 0.21624753E+03</totfact>
</mgrwt>
</event>
<event>
 4    1  0.5626910E-005  0.4511218E+03  0.7818608E-02  0.1027388E+00
         -2   -1    0    0    0  501 -0.00000000000E+00  0.00000000000E+00  0.37772442931E+03  0.37772442932E+03  0.25500000000E-02 0.  1.
          2   -1    0    0  501    0  0.00000000000E+00 -0.00000000000E+00 -0.13469534338E+03  0.13469534341E+03  0.25500000000E-02 0. -1.
    5000001    1    1    2    0    0  0.46339811582E+02  0.10757576920E+03  0.14098410020E+03  0.26544385615E+03  0.19200000000E+03 0.  0.
   -5000001    1    1    2    0    0 -0.46339811582E+02 -0.10757576920E+03  0.10204498573E+03  0.24697591658E+03  0.19200000000E+03 0.  0.
<mgrwt>
<rscale>  0 0.45112181E+03</rscale>
<asrwt>0</asrwt>
<pdfrwt beam="1">  1        2 0.19242192E-01 0.45112181E+03</pdfrwt>
<pdfrwt beam="2">  1       -2 0.53960634E-01 0.45112181E+03</pdfrwt>
<totfact> 0.96372970E+02</totfact>
</mgrwt>
</event>
<event>
 4    1  0.5626910E-005  0.7448049E+03  0.7818608E-02  0.9643536E-01
         -2   -1    0    0    0  501 -0.00000000000E+00  0.00000000000E+00  0.47993787240E+02  0.47993787308E+02  0.25500000000E-02 0. -1.
          2   -1    0    0  501    0  0.00000000000E+00 -0.00000000000E+00 -0.28896157439E+04  0.28896157439E+04  0.25500000000E-02 0.  1.
    5000001    1    1    2    0    0 -0.31524679906E+03 -0.17698669634E+01 -0.12261478892E+04  0.12805023713E+04  0.19200000000E+03 0.  0.
   -5000001    1    1    2    0    0  0.31524679906E+03  0.17698669634E+01 -0.16154740675E+04  0.16571071599E+04  0.19200000000E+03 0.  0.
<mgrwt>
<rscale>  0 0.74480495E+03</rscale>
<asrwt>0</asrwt>
<pdfrwt beam="1">  1        2 0.41280214E+00 0.74480495E+03</pdfrwt>
<pdfrwt beam="2">  1       -2 0.68562572E-02 0.74480495E+03</pdfrwt>
<totfact> 0.35706485E+02</totfact>
</mgrwt>
</event>
<event>
 4    1  0.5626910E-005  0.4970611E+03  0.7818608E-02  0.1014549E+00
          2   -1    0    0  501    0  0.00000000000E+00  0.00000000000E+00  0.15887465074E+04  0.15887465074E+04  0.25500000000E-02 0.  1.
         -2   -1    0    0    0  501 -0.00000000000E+00 -0.00000000000E+00 -0.38878088842E+02  0.38878088925E+02  0.25500000000E-02 0. -1.
    5000001    1    1    2    0    0 -0.12400956671E+03  0.53267157217E+02  0.10427164390E+04  0.10688018221E+04  0.19200000000E+03 0.  0.
   -5000001    1    1    2    0    0  0.12400956671E+03 -0.53267157217E+02  0.50715197954E+03  0.55882277426E+03  0.19200000000E+03 0.  0.
<mgrwt>
<rscale>  0 0.49706107E+03</rscale>
<asrwt>0</asrwt>
<pdfrwt beam="1">  1        2 0.22696384E+00 0.49706107E+03</pdfrwt>
<pdfrwt beam="2">  1       -2 0.55540113E-02 0.49706107E+03</pdfrwt>
<totfact> 0.23365696E+03</totfact>
</mgrwt>
</event>
<event>
 4    1  0.5626910E-005  0.6155557E+03  0.7818608E-02  0.9873648E-01
         -2   -1    0    0    0  501 -0.00000000000E+00  0.00000000000E+00  0.28304559724E+03  0.28304559725E+03  0.25500000000E-02 0. -1.
          2   -1    0    0  501    0  0.00000000000E+00 -0.00000000000E+00 -0.33467120883E+03  0.33467120884E+03  0.25500000000E-02 0.  1.
    5000001    1    1    2    0    0  0.22108673072E+03 -0.77760386222E+02 -0.80198942928E+02  0.31340371825E+03  0.19200000000E+03 0.  0.
   -5000001    1    1    2    0    0 -0.22108673072E+03  0.77760386222E+02  0.28573331331E+02  0.30431308784E+03  0.19200000000E+03 0.  0.
<mgrwt>
<rscale>  0 0.61555572E+03</rscale>
<asrwt>0</asrwt>
<pdfrwt beam="1">  1        2 0.47810173E-01 0.61555572E+03</pdfrwt>
<pdfrwt beam="2">  1       -2 0.40435085E-01 0.61555572E+03</pdfrwt>
<totfact> 0.61511830E+02</totfact>
</mgrwt>
</event>
<event>
 4    1  0.5626910E-005  0.4532361E+03  0.7818608E-02  0.1026761E+00
          2   -1    0    0  501    0  0.00000000000E+00  0.00000000000E+00  0.15681685223E+04  0.15681685223E+04  0.25500000000E-02 0.  1.
         -2   -1    0    0    0  501 -0.00000000000E+00 -0.00000000000E+00 -0.32748872555E+02  0.32748872654E+02  0.25500000000E-02 0. -1.
    5000001    1    1    2    0    0  0.11242990572E+03 -0.27740788534E+02  0.65153794039E+03  0.68903971063E+03  0.19200000000E+03 0.  0.
   -5000001    1    1    2    0    0 -0.11242990572E+03  0.27740788534E+02  0.88388170934E+03  0.91187768432E+03  0.19200000000E+03 0.  0.
<mgrwt>
<rscale>  0 0.45323615E+03</rscale>
<asrwt>0</asrwt>
<pdfrwt beam="1">  1        2 0.22402414E+00 0.45323615E+03</pdfrwt>
<pdfrwt beam="2">  1       -2 0.46784091E-02 0.45323615E+03</pdfrwt>
<totfact> 0.31224151E+03</totfact>
</mgrwt>
</event>
<event>
 4    1  0.5626910E-005  0.1506386E+04  0.7818608E-02  0.8880217E-01
          2   -1    0    0  501    0  0.00000000000E+00  0.00000000000E+00  0.24141376905E+04  0.24141376905E+04  0.25500000000E-02 0.  1.
         -2   -1    0    0    0  501 -0.00000000000E+00 -0.00000000000E+00 -0.23499072353E+03  0.23499072354E+03  0.25500000000E-02 0. -1.
    5000001    1    1    2    0    0  0.46711083945E+02 -0.67923680543E+03  0.15444062861E+04  0.16987051951E+04  0.19200000000E+03 0.  0.
   -5000001    1    1    2    0    0 -0.46711083945E+02  0.67923680543E+03  0.63474068088E+03  0.95042321898E+03  0.19200000000E+03 0.  0.
<mgrwt>
<rscale>  0 0.15063864E+04</rscale>
<asrwt>0</asrwt>
<pdfrwt beam="1">  1        2 0.34487680E+00 0.15063864E+04</pdfrwt>
<pdfrwt beam="2">  1       -2 0.33570104E-01 0.15063864E+04</pdfrwt>
<totfact> 0.39291505E+01</totfact>
</mgrwt>
</event>
<event>
 4    1  0.5626910E-005  0.4394671E+03  0.7818608E-02  0.1030910E+00
          2   -1    0    0  501    0  0.00000000000E+00  0.00000000000E+00  0.80332181969E+03  0.80332181970E+03  0.25500000000E-02 0.  1.
         -2   -1    0    0    0  501 -0.00000000000E+00 -0.00000000000E+00 -0.60103982493E+02  0.60103982547E+02  0.25500000000E-02 0. -1.
    5000001    1    1    2    0    0  0.45685958163E+02  0.90966945688E+02  0.43547406589E+03  0.48668660762E+03  0.19200000000E+03 0.  0.
   -5000001    1    1    2    0    0 -0.45685958163E+02 -0.90966945688E+02  0.30774377132E+03  0.37673919462E+03  0.19200000000E+03 0.  0.
<mgrwt>
<rscale>  0 0.43946713E+03</rscale>
<asrwt>0</asrwt>
<pdfrwt beam="1">  1        2 0.11476026E+00 0.43946713E+03</pdfrwt>
<pdfrwt beam="2">  1       -2 0.85862829E-02 0.43946713E+03</pdfrwt>
<totfact> 0.32998883E+03</totfact>
</mgrwt>
</event>
<event>
 4    1  0.5626910E-005  0.6224319E+03  0.7818608E-02  0.9859930E-01
          2   -1    0    0  501    0  0.00000000000E+00  0.00000000000E+00  0.13844641329E+04  0.13844641329E+04  0.25500000000E-02 0.  1.
         -2   -1    0    0    0  501 -0.00000000000E+00 -0.00000000000E+00 -0.69958733624E+02  0.69958733670E+02  0.25500000000E-02 0. -1.
    5000001    1    1    2    0    0  0.38163704185E+02 -0.23325303482E+03  0.80738150684E+03  0.86289764408E+03  0.19200000000E+03 0.  0.
   -5000001    1    1    2    0    0 -0.38163704185E+02  0.23325303482E+03  0.50712389247E+03  0.59152522252E+03  0.19200000000E+03 0.  0.
<mgrwt>
<rscale>  0 0.62243187E+03</rscale>
<asrwt>0</asrwt>
<pdfrwt beam="1">  1        2 0.19778060E+00 0.62243187E+03</pdfrwt>
<pdfrwt beam="2">  1       -2 0.99941045E-02 0.62243187E+03</pdfrwt>
<totfact> 0.11724226E+03</totfact>
</mgrwt>
</event>
<event>
 4    1  0.5626910E-005  0.1032489E+04  0.7818608E-02  0.9273612E-01
         -2   -1    0    0    0  501 -0.00000000000E+00  0.00000000000E+00  0.11279534639E+04  0.11279534639E+04  0.25500000000E-02 0. -1.
          2   -1    0    0  501    0  0.00000000000E+00 -0.00000000000E+00 -0.23627596265E+03  0.23627596266E+03  0.25500000000E-02 0.  1.
    5000001    1    1    2    0    0 -0.22588577128E+03 -0.59757288001E+02  0.99865632636E+03  0.10434432296E+04  0.19200000000E+03 0.  0.
   -5000001    1    1    2    0    0  0.22588577128E+03  0.59757288001E+02 -0.10697882515E+03  0.32078619697E+03  0.19200000000E+03 0.  0.
<mgrwt>
<rscale>  0 0.10324888E+04</rscale>
<asrwt>0</asrwt>
<pdfrwt beam="1">  1        2 0.33753709E-01 0.10324888E+04</pdfrwt>
<pdfrwt beam="2">  1       -2 0.16113621E+00 0.10324888E+04</pdfrwt>
<totfact> 0.38366298E+01</totfact>
</mgrwt>
</event>
<event>
 4    1  0.5626910E-005  0.5202047E+03  0.7818608E-02  0.1008636E+00
         -2   -1    0    0    0  501 -0.00000000000E+00  0.00000000000E+00  0.70094045509E+02  0.70094045556E+02  0.25500000000E-02 0. -1.
          2   -1    0    0  501    0  0.00000000000E+00 -0.00000000000E+00 -0.96517814935E+03  0.96517814936E+03  0.25500000000E-02 0.  1.
    5000001    1    1    2    0    0 -0.16237667939E+03  0.51662811045E+02 -0.53089024153E+03  0.58969795710E+03  0.19200000000E+03 0.  0.
   -5000001    1    1    2    0    0  0.16237667939E+03 -0.51662811045E+02 -0.36419386231E+03  0.44557423781E+03  0.19200000000E+03 0.  0.
<mgrwt>
<rscale>  0 0.52020473E+03</rscale>
<asrwt>0</asrwt>
<pdfrwt beam="1">  1        2 0.13788259E+00 0.52020473E+03</pdfrwt>
<pdfrwt beam="2">  1       -2 0.10013436E-01 0.52020473E+03</pdfrwt>
<totfact> 0.20268701E+03</totfact>
</mgrwt>
</event>
<event>
 4    1  0.5626910E-005  0.5638014E+03  0.7818608E-02  0.9983490E-01
         -2   -1    0    0    0  501 -0.00000000000E+00  0.00000000000E+00  0.37580008369E+03  0.37580008369E+03  0.25500000000E-02 0. -1.
          2   -1    0    0  501    0  0.00000000000E+00 -0.00000000000E+00 -0.21146348157E+03  0.21146348158E+03  0.25500000000E-02 0.  1.
    5000001    1    1    2    0    0 -0.18332622903E+03 -0.17978193375E+02 -0.14832069078E+02  0.26648773323E+03  0.19200000000E+03 0.  0.
   -5000001    1    1    2    0    0  0.18332622903E+03  0.17978193375E+02  0.17916867120E+03  0.32077583205E+03  0.19200000000E+03 0.  0.
<mgrwt>
<rscale>  0 0.56380136E+03</rscale>
<asrwt>0</asrwt>
<pdfrwt beam="1">  1        2 0.30209069E-01 0.56380136E+03</pdfrwt>
<pdfrwt beam="2">  1       -2 0.53685725E-01 0.56380136E+03</pdfrwt>
<totfact> 0.58141006E+02</totfact>
</mgrwt>
</event>
<event>
 4    1  0.5626910E-005  0.4909117E+03  0.7818608E-02  0.1016179E+00
          2   -1    0    0  501    0  0.00000000000E+00  0.00000000000E+00  0.26308870039E+04  0.26308870039E+04  0.25500000000E-02 0. -1.
         -2   -1    0    0    0  501 -0.00000000000E+00 -0.00000000000E+00 -0.22900483800E+02  0.22900483942E+02  0.25500000000E-02 0.  1.
    5000001    1    1    2    0    0 -0.92284284759E+02  0.10120772542E+03  0.93634913878E+03  0.96559468856E+03  0.19200000000E+03 0.  0.
   -5000001    1    1    2    0    0  0.92284284759E+02 -0.10120772542E+03  0.16716373813E+04  0.16881927992E+04  0.19200000000E+03 0.  0.
<mgrwt>
<rscale>  0 0.49091175E+03</rscale>
<asrwt>0</asrwt>
<pdfrwt beam="1">  1        2 0.37584118E+00 0.49091175E+03</pdfrwt>
<pdfrwt beam="2">  1       -2 0.32714961E-02 0.49091175E+03</pdfrwt>
<totfact> 0.15711330E+03</totfact>
</mgrwt>
</event>
<event>
 4    1  0.5626910E-005  0.2194786E+04  0.7818608E-02  0.8520601E-01
          2   -1    0    0  501    0  0.00000000000E+00  0.00000000000E+00  0.12195120679E+04  0.12195120679E+04  0.25500000000E-02 0.  1.
         -2   -1    0    0    0  501 -0.00000000000E+00 -0.00000000000E+00 -0.98750248495E+03  0.98750248496E+03  0.25500000000E-02 0. -1.
    5000001    1    1    2    0    0  0.93412025271E+03  0.27362506799E+03  0.58761243239E+03  0.11530844267E+04  0.19200000000E+03 0.  0.
   -5000001    1    1    2    0    0 -0.93412025271E+03 -0.27362506799E+03 -0.35560284944E+03  0.10539301262E+04  0.19200000000E+03 0.  0.
<mgrwt>
<rscale>  0 0.21947858E+04</rscale>
<asrwt>0</asrwt>
<pdfrwt beam="1">  1        2 0.17421601E+00 0.21947858E+04</pdfrwt>
<pdfrwt beam="2">  1       -2 0.14107178E+00 0.21947858E+04</pdfrwt>
<totfact> 0.67394139E+00</totfact>
</mgrwt>
</event>
<event>
 4    1  0.5626910E-005  0.4575361E+03  0.7818608E-02  0.1025498E+00
          2   -1    0    0  501    0  0.00000000000E+00  0.00000000000E+00  0.80242094233E+03  0.80242094233E+03  0.25500000000E-02 0.  1.
         -2   -1    0    0    0  501 -0.00000000000E+00 -0.00000000000E+00 -0.65221166746E+02  0.65221166795E+02  0.25500000000E-02 0. -1.
    5000001    1    1    2    0    0 -0.50850803600E+02  0.18964545183E+02  0.15636805171E+03  0.25349640194E+03  0.19200000000E+03 0.  0.
   -5000001    1    1    2    0    0  0.50850803600E+02 -0.18964545183E+02  0.58083172388E+03  0.61414570719E+03  0.19200000000E+03 0.  0.
<mgrwt>
<rscale>  0 0.45753614E+03</rscale>
<asrwt>0</asrwt>
<pdfrwt beam="1">  1        2 0.11463155E+00 0.45753614E+03</pdfrwt>
<pdfrwt beam="2">  1       -2 0.93173110E-02 0.45753614E+03</pdfrwt>
<totfact> 0.29015955E+03</totfact>
</mgrwt>
</event>
<event>
 4    1  0.5626910E-005  0.4687055E+03  0.7818608E-02  0.1022286E+00
          2   -1    0    0  501    0  0.00000000000E+00  0.00000000000E+00  0.77732142328E+03  0.77732142328E+03  0.25500000000E-02 0.  1.
         -2   -1    0    0    0  501 -0.00000000000E+00 -0.00000000000E+00 -0.70654438873E+02  0.70654438919E+02  0.25500000000E-02 0. -1.
    5000001    1    1    2    0    0 -0.76289053052E+02  0.97918036272E+02  0.26021311600E+03  0.34638537380E+03  0.19200000000E+03 0.  0.
   -5000001    1    1    2    0    0  0.76289053052E+02 -0.97918036272E+02  0.44645386840E+03  0.50159048840E+03  0.19200000000E+03 0.  0.
<mgrwt>
<rscale>  0 0.46870549E+03</rscale>
<asrwt>0</asrwt>
<pdfrwt beam="1">  1        2 0.11104592E+00 0.46870549E+03</pdfrwt>
<pdfrwt beam="2">  1       -2 0.10093491E-01 0.46870549E+03</pdfrwt>
<totfact> 0.26560811E+03</totfact>
</mgrwt>
</event>
<event>
 4    1  0.5626910E-005  0.6293068E+03  0.7818608E-02  0.9846402E-01
          2   -1    0    0  501    0  0.00000000000E+00  0.00000000000E+00  0.95593149582E+03  0.95593149582E+03  0.25500000000E-02 0.  1.
         -2   -1    0    0    0  501 -0.00000000000E+00 -0.00000000000E+00 -0.10357097701E+03  0.10357097704E+03  0.25500000000E-02 0. -1.
    5000001    1    1    2    0    0 -0.13330904932E+03  0.27062653004E+02  0.77788425017E+03  0.81269403620E+03  0.19200000000E+03 0.  0.
   -5000001    1    1    2    0    0  0.13330904932E+03 -0.27062653004E+02  0.74476268641E+02  0.24680843666E+03  0.19200000000E+03 0.  0.
<mgrwt>
<rscale>  0 0.62930679E+03</rscale>
<asrwt>0</asrwt>
<pdfrwt beam="1">  1        2 0.13656165E+00 0.62930679E+03</pdfrwt>
<pdfrwt beam="2">  1       -2 0.14795853E-01 0.62930679E+03</pdfrwt>
<totfact> 0.10776378E+03</totfact>
</mgrwt>
</event>
<event>
 4    1  0.5626910E-005  0.4576039E+03  0.7818608E-02  0.1025478E+00
         -2   -1    0    0    0  501 -0.00000000000E+00  0.00000000000E+00  0.26953692054E+02  0.26953692174E+02  0.25500000000E-02 0. -1.
          2   -1    0    0  501    0  0.00000000000E+00 -0.00000000000E+00 -0.19422324591E+04  0.19422324591E+04  0.25500000000E-02 0.  1.
    5000001    1    1    2    0    0  0.30117683987E+02  0.91346670383E+02 -0.12974343137E+04  0.13150859620E+04  0.19200000000E+03 0.  0.
   -5000001    1    1    2    0    0 -0.30117683987E+02 -0.91346670383E+02 -0.61784445329E+03  0.65410018923E+03  0.19200000000E+03 0.  0.
<mgrwt>
<rscale>  0 0.45760391E+03</rscale>
<asrwt>0</asrwt>
<pdfrwt beam="1">  1        2 0.27746169E+00 0.45760391E+03</pdfrwt>
<pdfrwt beam="2">  1       -2 0.38505287E-02 0.45760391E+03</pdfrwt>
<totfact> 0.27288750E+03</totfact>
</mgrwt>
</event>
<event>
 4    1  0.5626910E-005  0.7178008E+03  0.7818608E-02  0.9687265E-01
         -2   -1    0    0    0  501 -0.00000000000E+00  0.00000000000E+00  0.88634411737E+02  0.88634411774E+02  0.25500000000E-02 0. -1.
          2   -1    0    0  501    0  0.00000000000E+00 -0.00000000000E+00 -0.14532675499E+04  0.14532675499E+04  0.25500000000E-02 0.  1.
    5000001    1    1    2    0    0  0.20419794934E+03 -0.19326170891E+03 -0.92627985906E+03  0.98686638809E+03  0.19200000000E+03 0.  0.
   -5000001    1    1    2    0    0 -0.20419794934E+03  0.19326170891E+03 -0.43835327913E+03  0.55503557360E+03  0.19200000000E+03 0.  0.
<mgrwt>
<rscale>  0 0.71780085E+03</rscale>
<asrwt>0</asrwt>
<pdfrwt beam="1">  1        2 0.20760964E+00 0.71780085E+03</pdfrwt>
<pdfrwt beam="2">  1       -2 0.12662060E-01 0.71780085E+03</pdfrwt>
<totfact> 0.72824221E+02</totfact>
</mgrwt>
</event>
<event>
 4    1  0.5626910E-005  0.5033434E+03  0.7818608E-02  0.1012910E+00
         -2   -1    0    0    0  501 -0.00000000000E+00  0.00000000000E+00  0.30961707432E+02  0.30961707537E+02  0.25500000000E-02 0. -1.
          2   -1    0    0  501    0  0.00000000000E+00 -0.00000000000E+00 -0.20457091918E+04  0.20457091918E+04  0.25500000000E-02 0.  1.
    5000001    1    1    2    0    0  0.68982880019E+02  0.12621831888E+03 -0.13211737900E+04  0.13427784200E+04  0.19200000000E+03 0.  0.
   -5000001    1    1    2    0    0 -0.68982880019E+02 -0.12621831888E+03 -0.69357369441E+03  0.73389247941E+03  0.19200000000E+03 0.  0.
<mgrwt>
<rscale>  0 0.50334342E+03</rscale>
<asrwt>0</asrwt>
<pdfrwt beam="1">  1        2 0.29224408E+00 0.50334342E+03</pdfrwt>
<pdfrwt beam="2">  1       -2 0.44231024E-02 0.50334342E+03</pdfrwt>
<totfact> 0.19568364E+03</totfact>
</mgrwt>
</event>
<event>
 4    1  0.5626910E-005  0.8737688E+03  0.7818608E-02  0.9458979E-01
         -2   -1    0    0    0  501 -0.00000000000E+00  0.00000000000E+00  0.11616654166E+03  0.11616654169E+03  0.25500000000E-02 0. -1.
          2   -1    0    0  501    0  0.00000000000E+00 -0.00000000000E+00 -0.16430548140E+04  0.16430548140E+04  0.25500000000E-02 0.  1.
    5000001    1    1    2    0    0  0.34966050503E+03 -0.90853588927E+02 -0.45488449789E+03  0.61180123392E+03  0.19200000000E+03 0.  0.
   -5000001    1    1    2    0    0 -0.34966050503E+03  0.90853588927E+02 -0.10720037744E+04  0.11474201217E+04  0.19200000000E+03 0.  0.
<mgrwt>
<rscale>  0 0.87376884E+03</rscale>
<asrwt>0</asrwt>
<pdfrwt beam="1">  1        2 0.23472210E+00 0.87376884E+03</pdfrwt>
<pdfrwt beam="2">  1       -2 0.16595221E-01 0.87376884E+03</pdfrwt>
<totfact> 0.36427365E+02</totfact>
</mgrwt>
</event>
<event>
 4    1  0.5626910E-005  0.4876161E+03  0.7818608E-02  0.1017063E+00
          2   -1    0    0  501    0  0.00000000000E+00  0.00000000000E+00  0.22305124941E+04  0.22305124941E+04  0.25500000000E-02 0.  1.
         -2   -1    0    0    0  501 -0.00000000000E+00 -0.00000000000E+00 -0.26649641040E+02  0.26649641162E+02  0.25500000000E-02 0. -1.
    5000001    1    1    2    0    0 -0.72190253067E+02 -0.87992705322E+02  0.64781494718E+03  0.68518782434E+03  0.19200000000E+03 0.  0.
   -5000001    1    1    2    0    0  0.72190253067E+02  0.87992705322E+02  0.15560479059E+04  0.15719743110E+04  0.19200000000E+03 0.  0.
<mgrwt>
<rscale>  0 0.48761607E+03</rscale>
<asrwt>0</asrwt>
<pdfrwt beam="1">  1        2 0.31864467E+00 0.48761607E+03</pdfrwt>
<pdfrwt beam="2">  1       -2 0.38070912E-02 0.48761607E+03</pdfrwt>
<totfact> 0.19918520E+03</totfact>
</mgrwt>
</event>
<event>
 4    1  0.5626910E-005  0.5329670E+03  0.7818608E-02  0.1005515E+00
          2   -1    0    0  501    0  0.00000000000E+00  0.00000000000E+00  0.46543959423E+03  0.46543959424E+03  0.25500000000E-02 0.  1.
         -2   -1    0    0    0  501 -0.00000000000E+00 -0.00000000000E+00 -0.15257285414E+03  0.15257285416E+03  0.25500000000E-02 0. -1.
    5000001    1    1    2    0    0 -0.11285402293E+03  0.14232069192E+03  0.11696985747E+03  0.28902795262E+03  0.19200000000E+03 0.  0.
   -5000001    1    1    2    0    0  0.11285402293E+03 -0.14232069192E+03  0.19589688262E+03  0.32898449578E+03  0.19200000000E+03 0.  0.
<mgrwt>
<rscale>  0 0.53296697E+03</rscale>
<asrwt>0</asrwt>
<pdfrwt beam="1">  1        2 0.66491372E-01 0.53296697E+03</pdfrwt>
<pdfrwt beam="2">  1       -2 0.21796122E-01 0.53296697E+03</pdfrwt>
<totfact> 0.13346137E+03</totfact>
</mgrwt>
</event>
<event>
 4    1  0.5626910E-005  0.7530910E+03  0.7818608E-02  0.9630514E-01
         -2   -1    0    0    0  501 -0.00000000000E+00  0.00000000000E+00  0.18804793615E+03  0.18804793617E+03  0.25500000000E-02 0. -1.
          2   -1    0    0  501    0  0.00000000000E+00 -0.00000000000E+00 -0.75399126099E+03  0.75399126099E+03  0.25500000000E-02 0.  1.
    5000001    1    1    2    0    0 -0.11139855856E+03  0.13624554327E+03 -0.62313747607E+03  0.67537900544E+03  0.19200000000E+03 0.  0.
   -5000001    1    1    2    0    0  0.11139855856E+03 -0.13624554327E+03  0.57194151234E+02  0.26666019172E+03  0.19200000000E+03 0.  0.
<mgrwt>
<rscale>  0 0.75309097E+03</rscale>
<asrwt>0</asrwt>
<pdfrwt beam="1">  1        2 0.10771304E+00 0.75309097E+03</pdfrwt>
<pdfrwt beam="2">  1       -2 0.26863991E-01 0.75309097E+03</pdfrwt>
<totfact> 0.51730810E+02</totfact>
</mgrwt>
</event>
<event>
 4    1  0.5626910E-005  0.4208058E+03  0.7818608E-02  0.1036804E+00
          2   -1    0    0  501    0  0.00000000000E+00  0.00000000000E+00  0.19820880997E+04  0.19820880997E+04  0.25500000000E-02 0.  1.
         -2   -1    0    0    0  501 -0.00000000000E+00 -0.00000000000E+00 -0.22334716330E+02  0.22334716476E+02  0.25500000000E-02 0. -1.
    5000001    1    1    2    0    0 -0.23866898532E+02 -0.39618735311E+02  0.13255392186E+04  0.13401706955E+04  0.19200000000E+03 0.  0.
   -5000001    1    1    2    0    0  0.23866898532E+02  0.39618735311E+02  0.63421416486E+03  0.66425212076E+03  0.19200000000E+03 0.  0.
<mgrwt>
<rscale>  0 0.42080578E+03</rscale>
<asrwt>0</asrwt>
<pdfrwt beam="1">  1        2 0.28315544E+00 0.42080578E+03</pdfrwt>
<pdfrwt beam="2">  1       -2 0.31906738E-02 0.42080578E+03</pdfrwt>
<totfact> 0.34709682E+03</totfact>
</mgrwt>
</event>
<event>
 4    1  0.5626910E-005  0.4852630E+03  0.7818608E-02  0.1017699E+00
          2   -1    0    0  501    0  0.00000000000E+00  0.00000000000E+00  0.12024619871E+04  0.12024619871E+04  0.25500000000E-02 0. -1.
         -2   -1    0    0    0  501 -0.00000000000E+00 -0.00000000000E+00 -0.48957919556E+02  0.48957919623E+02  0.25500000000E-02 0.  1.
    5000001    1    1    2    0    0  0.51983785830E+02 -0.10659583811E+03  0.34694416805E+03  0.41388312654E+03  0.19200000000E+03 0.  0.
   -5000001    1    1    2    0    0 -0.51983785830E+02  0.10659583811E+03  0.80655989949E+03  0.83753678018E+03  0.19200000000E+03 0.  0.
<mgrwt>
<rscale>  0 0.48526297E+03</rscale>
<asrwt>0</asrwt>
<pdfrwt beam="1">  1        2 0.17178029E+00 0.48526297E+03</pdfrwt>
<pdfrwt beam="2">  1       -2 0.69939882E-02 0.48526297E+03</pdfrwt>
<totfact> 0.26107423E+03</totfact>
</mgrwt>
</event>
<event>
 4    1  0.5626910E-005  0.5699254E+03  0.7818608E-02  0.9969844E-01
         -2   -1    0    0    0  501 -0.00000000000E+00  0.00000000000E+00  0.16427574801E+03  0.16427574803E+03  0.25500000000E-02 0. -1.
          2   -1    0    0  501    0  0.00000000000E+00 -0.00000000000E+00 -0.49431355656E+03  0.49431355657E+03  0.25500000000E-02 0.  1.
    5000001    1    1    2    0    0  0.16064372304E+03  0.13317727541E+03 -0.19764485130E+03  0.34564444113E+03  0.19200000000E+03 0.  0.
   -5000001    1    1    2    0    0 -0.16064372304E+03 -0.13317727541E+03 -0.13239295725E+03  0.31294486346E+03  0.19200000000E+03 0.  0.
<mgrwt>
<rscale>  0 0.56992536E+03</rscale>
<asrwt>0</asrwt>
<pdfrwt beam="1">  1        2 0.70616221E-01 0.56992536E+03</pdfrwt>
<pdfrwt beam="2">  1       -2 0.23467964E-01 0.56992536E+03</pdfrwt>
<totfact> 0.10941552E+03</totfact>
</mgrwt>
</event>
<event>
 4    1  0.5626910E-005  0.4522984E+03  0.7818608E-02  0.1027039E+00
         -2   -1    0    0    0  501 -0.00000000000E+00  0.00000000000E+00  0.16553646022E+03  0.16553646024E+03  0.25500000000E-02 0. -1.
          2   -1    0    0  501    0  0.00000000000E+00 -0.00000000000E+00 -0.30895580076E+03  0.30895580077E+03  0.25500000000E-02 0.  1.
    5000001    1    1    2    0    0  0.11303133555E+03  0.38511785951E+02 -0.66993622449E+02  0.23582066475E+03  0.19200000000E+03 0.  0.
   -5000001    1    1    2    0    0 -0.11303133555E+03 -0.38511785951E+02 -0.76425718099E+02  0.23867159626E+03  0.19200000000E+03 0.  0.
<mgrwt>
<rscale>  0 0.45229835E+03</rscale>
<asrwt>0</asrwt>
<pdfrwt beam="1">  1        2 0.44136543E-01 0.45229835E+03</pdfrwt>
<pdfrwt beam="2">  1       -2 0.23648066E-01 0.45229835E+03</pdfrwt>
<totfact> 0.18155945E+03</totfact>
</mgrwt>
</event>
<event>
 4    1  0.5626910E-005  0.6197868E+03  0.7818608E-02  0.9865184E-01
          2   -1    0    0  501    0  0.00000000000E+00  0.00000000000E+00  0.94093534756E+03  0.94093534757E+03  0.25500000000E-02 0.  1.
         -2   -1    0    0    0  501 -0.00000000000E+00 -0.00000000000E+00 -0.10206219871E+03  0.10206219875E+03  0.25500000000E-02 0. -1.
    5000001    1    1    2    0    0 -0.59979917882E+02 -0.23225500822E+03  0.48737699320E+03  0.57614261506E+03  0.19200000000E+03 0.  0.
   -5000001    1    1    2    0    0  0.59979917882E+02  0.23225500822E+03  0.35149615566E+03  0.46685493125E+03  0.19200000000E+03 0.  0.
<mgrwt>
<rscale>  0 0.61978684E+03</rscale>
<asrwt>0</asrwt>
<pdfrwt beam="1">  1        2 0.13441934E+00 0.61978684E+03</pdfrwt>
<pdfrwt beam="2">  1       -2 0.14580314E-01 0.61978684E+03</pdfrwt>
<totfact> 0.11290039E+03</totfact>
</mgrwt>
</event>
<event>
 4    1  0.5626910E-005  0.4898347E+03  0.7818608E-02  0.1016467E+00
          2   -1    0    0  501    0  0.00000000000E+00  0.00000000000E+00  0.28018826921E+03  0.28018826922E+03  0.25500000000E-02 0.  1.
         -2   -1    0    0    0  501 -0.00000000000E+00 -0.00000000000E+00 -0.21408640463E+03  0.21408640464E+03  0.25500000000E-02 0. -1.
    5000001    1    1    2    0    0  0.12304125977E+03  0.50691469024E+02  0.10728215346E+03  0.25706465546E+03  0.19200000000E+03 0.  0.
   -5000001    1    1    2    0    0 -0.12304125977E+03 -0.50691469024E+02 -0.41180288872E+02  0.23721001840E+03  0.19200000000E+03 0.  0.
<mgrwt>
<rscale>  0 0.48983466E+03</rscale>
<asrwt>0</asrwt>
<pdfrwt beam="1">  1        2 0.40026895E-01 0.48983466E+03</pdfrwt>
<pdfrwt beam="2">  1       -2 0.30583772E-01 0.48983466E+03</pdfrwt>
<totfact> 0.12704645E+03</totfact>
</mgrwt>
</event>
<event>
 4    1  0.5626910E-005  0.6299759E+03  0.7818608E-02  0.9845096E-01
         -2   -1    0    0    0  501 -0.00000000000E+00  0.00000000000E+00  0.68904198460E+02  0.68904198507E+02  0.25500000000E-02 0. -1.
          2   -1    0    0  501    0  0.00000000000E+00 -0.00000000000E+00 -0.14399326418E+04  0.14399326418E+04  0.25500000000E-02 0.  1.
    5000001    1    1    2    0    0  0.15476658133E+03 -0.19335424172E+03 -0.76181318796E+03  0.82374868184E+03  0.19200000000E+03 0.  0.
   -5000001    1    1    2    0    0 -0.15476658133E+03  0.19335424172E+03 -0.60921525541E+03  0.68508815850E+03  0.19200000000E+03 0.  0.
<mgrwt>
<rscale>  0 0.62997589E+03</rscale>
<asrwt>0</asrwt>
<pdfrwt beam="1">  1        2 0.20570464E+00 0.62997589E+03</pdfrwt>
<pdfrwt beam="2">  1       -2 0.98434578E-02 0.62997589E+03</pdfrwt>
<totfact> 0.11226124E+03</totfact>
</mgrwt>
</event>
<event>
 4    1  0.5626910E-005  0.4581149E+03  0.7818608E-02  0.1025329E+00
          2   -1    0    0  501    0  0.00000000000E+00  0.00000000000E+00  0.53839568754E+02  0.53839568814E+02  0.25500000000E-02 0.  1.
         -2   -1    0    0    0  501 -0.00000000000E+00 -0.00000000000E+00 -0.97451231712E+03  0.97451231713E+03  0.25500000000E-02 0. -1.
    5000001    1    1    2    0    0 -0.99044672772E+02 -0.50381215686E+02 -0.58840912219E+03  0.62883814227E+03  0.19200000000E+03 0.  0.
   -5000001    1    1    2    0    0  0.99044672772E+02  0.50381215686E+02 -0.33226362618E+03  0.39951374367E+03  0.19200000000E+03 0.  0.
<mgrwt>
<rscale>  0 0.45811493E+03</rscale>
<asrwt>0</asrwt>
<pdfrwt beam="1">  1        2 0.76913676E-02 0.45811493E+03</pdfrwt>
<pdfrwt beam="2">  1       -2 0.13921603E+00 0.45811493E+03</pdfrwt>
<totfact> 0.34463971E+02</totfact>
</mgrwt>
</event>
<event>
 4    1  0.5626910E-005  0.6938130E+03  0.7818608E-02  0.9727872E-01
         -2   -1    0    0    0  501 -0.00000000000E+00  0.00000000000E+00  0.79442033475E+02  0.79442033516E+02  0.25500000000E-02 0. -1.
          2   -1    0    0  501    0  0.00000000000E+00 -0.00000000000E+00 -0.15148670686E+04  0.15148670686E+04  0.25500000000E-02 0.  1.
    5000001    1    1    2    0    0 -0.24600822388E+03  0.14379370331E+03 -0.60790669315E+03  0.69829164602E+03  0.19200000000E+03 0.  0.
   -5000001    1    1    2    0    0  0.24600822388E+03 -0.14379370331E+03 -0.82751834201E+03  0.89601745613E+03  0.19200000000E+03 0.  0.
<mgrwt>
<rscale>  0 0.69381300E+03</rscale>
<asrwt>0</asrwt>
<pdfrwt beam="1">  1        2 0.21640956E+00 0.69381300E+03</pdfrwt>
<pdfrwt beam="2">  1       -2 0.11348863E-01 0.69381300E+03</pdfrwt>
<totfact> 0.81076181E+02</totfact>
</mgrwt>
</event>
<event>
 4    1  0.5626910E-005  0.5792785E+03  0.7818608E-02  0.9949354E-01
          2   -1    0    0  501    0  0.00000000000E+00  0.00000000000E+00  0.19532643716E+03  0.19532643717E+03  0.25500000000E-02 0.  1.
         -2   -1    0    0    0  501 -0.00000000000E+00 -0.00000000000E+00 -0.42949066588E+03  0.42949066589E+03  0.25500000000E-02 0. -1.
    5000001    1    1    2    0    0 -0.10039658357E+03  0.18904749898E+03 -0.15457768811E+03  0.32646085910E+03  0.19200000000E+03 0.  0.
   -5000001    1    1    2    0    0  0.10039658357E+03 -0.18904749898E+03 -0.79586540611E+02  0.29835624396E+03  0.19200000000E+03 0.  0.
<mgrwt>
<rscale>  0 0.57927845E+03</rscale>
<asrwt>0</asrwt>
<pdfrwt beam="1">  1        2 0.27903777E-01 0.57927845E+03</pdfrwt>
<pdfrwt beam="2">  1       -2 0.61355809E-01 0.57927845E+03</pdfrwt>
<totfact> 0.48134464E+02</totfact>
</mgrwt>
</event>
<event>
 4    1  0.5626910E-005  0.1029105E+04  0.7818608E-02  0.9277187E-01
          2   -1    0    0  501    0  0.00000000000E+00  0.00000000000E+00  0.14858589497E+04  0.14858589497E+04  0.25500000000E-02 0.  1.
         -2   -1    0    0    0  501 -0.00000000000E+00 -0.00000000000E+00 -0.17818936115E+03  0.17818936117E+03  0.25500000000E-02 0. -1.
    5000001    1    1    2    0    0  0.45009233782E+03  0.12723493838E+03  0.49934352426E+03  0.71061930548E+03  0.19200000000E+03 0.  0.
   -5000001    1    1    2    0    0 -0.45009233782E+03 -0.12723493838E+03  0.80832606427E+03  0.95342900537E+03  0.19200000000E+03 0.  0.
<mgrwt>
<rscale>  0 0.10291050E+04</rscale>
<asrwt>0</asrwt>
<pdfrwt beam="1">  1        2 0.21226557E+00 0.10291050E+04</pdfrwt>
<pdfrwt beam="2">  1       -2 0.25455623E-01 0.10291050E+04</pdfrwt>
<totfact> 0.20537531E+02</totfact>
</mgrwt>
</event>
<event>
 4    1  0.5626910E-005  0.6347218E+03  0.7818608E-02  0.9835878E-01
         -2   -1    0    0    0  501 -0.00000000000E+00  0.00000000000E+00  0.56845617498E+02  0.56845617555E+02  0.25500000000E-02 0. -1.
          2   -1    0    0  501    0  0.00000000000E+00 -0.00000000000E+00 -0.17717799792E+04  0.17717799792E+04  0.25500000000E-02 0.  1.
    5000001    1    1    2    0    0 -0.46592360746E+02 -0.23202492070E+03 -0.60225142008E+03  0.67496458047E+03  0.19200000000E+03 0.  0.
   -5000001    1    1    2    0    0  0.46592360746E+02  0.23202492070E+03 -0.11126829416E+04  0.11536610162E+04  0.19200000000E+03 0.  0.
<mgrwt>
<rscale>  0 0.63472176E+03</rscale>
<asrwt>0</asrwt>
<pdfrwt beam="1">  1        2 0.25311139E+00 0.63472176E+03</pdfrwt>
<pdfrwt beam="2">  1       -2 0.81208036E-02 0.63472176E+03</pdfrwt>
<totfact> 0.10315524E+03</totfact>
</mgrwt>
</event>
<event>
 4    1  0.5626910E-005  0.7405194E+03  0.7818608E-02  0.9650342E-01
         -2   -1    0    0    0  501 -0.00000000000E+00  0.00000000000E+00  0.31106445498E+03  0.31106445499E+03  0.25500000000E-02 0. -1.
          2   -1    0    0  501    0  0.00000000000E+00 -0.00000000000E+00 -0.44071978235E+03  0.44071978236E+03  0.25500000000E-02 0.  1.
    5000001    1    1    2    0    0  0.30610322581E+03 -0.80011155721E+02 -0.53373794716E+02  0.37391674455E+03  0.19200000000E+03 0.  0.
   -5000001    1    1    2    0    0 -0.30610322581E+03  0.80011155721E+02 -0.76281532652E+02  0.37786749280E+03  0.19200000000E+03 0.  0.
<mgrwt>
<rscale>  0 0.74051944E+03</rscale>
<asrwt>0</asrwt>
<pdfrwt beam="1">  1        2 0.62959969E-01 0.74051944E+03</pdfrwt>
<pdfrwt beam="2">  1       -2 0.44437779E-01 0.74051944E+03</pdfrwt>
<totfact> 0.37490887E+02</totfact>
</mgrwt>
</event>
<event>
 4    1  0.5626910E-005  0.4555949E+03  0.7818608E-02  0.1026067E+00
         -2   -1    0    0    0  501 -0.00000000000E+00  0.00000000000E+00  0.68261056623E+02  0.68261056671E+02  0.25500000000E-02 0. -1.
          2   -1    0    0  501    0  0.00000000000E+00 -0.00000000000E+00 -0.76019449744E+03  0.76019449745E+03  0.25500000000E-02 0.  1.
    5000001    1    1    2    0    0  0.45179046554E+02 -0.62125393065E+02 -0.17224519248E+03  0.26913401317E+03  0.19200000000E+03 0.  0.
   -5000001    1    1    2    0    0 -0.45179046554E+02  0.62125393065E+02 -0.51968824834E+03  0.55932154095E+03  0.19200000000E+03 0.  0.
<mgrwt>
<rscale>  0 0.45559491E+03</rscale>
<asrwt>0</asrwt>
<pdfrwt beam="1">  1        2 0.10859921E+00 0.45559491E+03</pdfrwt>
<pdfrwt beam="2">  1       -2 0.97515800E-02 0.45559491E+03</pdfrwt>
<totfact> 0.28861831E+03</totfact>
</mgrwt>
</event>
<event>
 4    1  0.5626910E-005  0.7276466E+03  0.7818608E-02  0.9671087E-01
         -2   -1    0    0    0  501 -0.00000000000E+00  0.00000000000E+00  0.67464624645E+02  0.67464624693E+02  0.25500000000E-02 0. -1.
          2   -1    0    0  501    0  0.00000000000E+00 -0.00000000000E+00 -0.19620264313E+04  0.19620264313E+04  0.25500000000E-02 0.  1.
    5000001    1    1    2    0    0  0.23438938435E+03  0.17746946878E+03 -0.12129005994E+04  0.12627056901E+04  0.19200000000E+03 0.  0.
   -5000001    1    1    2    0    0 -0.23438938435E+03 -0.17746946878E+03 -0.68166120728E+03  0.76678536590E+03  0.19200000000E+03 0.  0.
<mgrwt>
<rscale>  0 0.72764655E+03</rscale>
<asrwt>0</asrwt>
<pdfrwt beam="1">  1        2 0.28028946E+00 0.72764655E+03</pdfrwt>
<pdfrwt beam="2">  1       -2 0.96378047E-02 0.72764655E+03</pdfrwt>
<totfact> 0.62414742E+02</totfact>
</mgrwt>
</event>
<event>
 4    1  0.5626910E-005  0.7665471E+03  0.7818608E-02  0.9609742E-01
         -2   -1    0    0    0  501 -0.00000000000E+00  0.00000000000E+00  0.17227865168E+03  0.17227865170E+03  0.25500000000E-02 0. -1.
          2   -1    0    0  501    0  0.00000000000E+00 -0.00000000000E+00 -0.85268026868E+03  0.85268026869E+03  0.25500000000E-02 0.  1.
    5000001    1    1    2    0    0 -0.31820726011E+03  0.72536310794E+02 -0.26090175114E+03  0.45983812425E+03  0.19200000000E+03 0.  0.
   -5000001    1    1    2    0    0  0.31820726011E+03 -0.72536310794E+02 -0.41949986587E+03  0.56512079614E+03  0.19200000000E+03 0.  0.
<mgrwt>
<rscale>  0 0.76654708E+03</rscale>
<asrwt>0</asrwt>
<pdfrwt beam="1">  1        2 0.12181146E+00 0.76654708E+03</pdfrwt>
<pdfrwt beam="2">  1       -2 0.24611237E-01 0.76654708E+03</pdfrwt>
<totfact> 0.51708027E+02</totfact>
</mgrwt>
</event>
<event>
 4    1  0.5626910E-005  0.4833022E+03  0.7818608E-02  0.1018232E+00
         -2   -1    0    0    0  501 -0.00000000000E+00  0.00000000000E+00  0.18815433525E+03  0.18815433527E+03  0.25500000000E-02 0. -1.
          2   -1    0    0  501    0  0.00000000000E+00 -0.00000000000E+00 -0.31035830176E+03  0.31035830177E+03  0.25500000000E-02 0.  1.
    5000001    1    1    2    0    0  0.37502566080E+02  0.91204942104E+02 -0.17317924794E+03  0.27673061964E+03  0.19200000000E+03 0.  0.
   -5000001    1    1    2    0    0 -0.37502566080E+02 -0.91204942104E+02  0.50975281437E+02  0.22178201741E+03  0.19200000000E+03 0.  0.
<mgrwt>
<rscale>  0 0.48330222E+03</rscale>
<asrwt>0</asrwt>
<pdfrwt beam="1">  1        2 0.44336900E-01 0.48330222E+03</pdfrwt>
<pdfrwt beam="2">  1       -2 0.26879191E-01 0.48330222E+03</pdfrwt>
<totfact> 0.14374928E+03</totfact>
</mgrwt>
</event>
<event>
 4    1  0.5626910E-005  0.4250824E+03  0.7818608E-02  0.1035425E+00
          2   -1    0    0  501    0  0.00000000000E+00  0.00000000000E+00  0.42580806132E+03  0.42580806133E+03  0.25500000000E-02 0.  1.
         -2   -1    0    0    0  501 -0.00000000000E+00 -0.00000000000E+00 -0.10608950400E+03  0.10608950403E+03  0.25500000000E-02 0. -1.
    5000001    1    1    2    0    0  0.57692919264E+02  0.59050530357E+02  0.20822947164E+03  0.29502364469E+03  0.19200000000E+03 0.  0.
   -5000001    1    1    2    0    0 -0.57692919264E+02 -0.59050530357E+02  0.11148908568E+03  0.23687392067E+03  0.19200000000E+03 0.  0.
<mgrwt>
<rscale>  0 0.42508242E+03</rscale>
<asrwt>0</asrwt>
<pdfrwt beam="1">  1        2 0.60829722E-01 0.42508242E+03</pdfrwt>
<pdfrwt beam="2">  1       -2 0.15155644E-01 0.42508242E+03</pdfrwt>
<totfact> 0.27414618E+03</totfact>
</mgrwt>
</event>
<event>
 4    1  0.5626910E-005  0.1280926E+04  0.7818608E-02  0.9044829E-01
          2   -1    0    0  501    0  0.00000000000E+00  0.00000000000E+00  0.18717094373E+04  0.18717094373E+04  0.25500000000E-02 0.  1.
         -2   -1    0    0    0  501 -0.00000000000E+00 -0.00000000000E+00 -0.21915408927E+03  0.21915408928E+03  0.25500000000E-02 0. -1.
    5000001    1    1    2    0    0  0.51182331180E+03 -0.60755449928E+02  0.13618991940E+04  0.14687708269E+04  0.19200000000E+03 0.  0.
   -5000001    1    1    2    0    0 -0.51182331180E+03  0.60755449928E+02  0.29065615405E+03  0.62209269975E+03  0.19200000000E+03 0.  0.
<mgrwt>
<rscale>  0 0.12809259E+04</rscale>
<asrwt>0</asrwt>
<pdfrwt beam="1">  1        2 0.26738707E+00 0.12809259E+04</pdfrwt>
<pdfrwt beam="2">  1       -2 0.31307726E-01 0.12809259E+04</pdfrwt>
<totfact> 0.86827849E+01</totfact>
</mgrwt>
</event>
<event>
 4    1  0.5626910E-005  0.5017740E+03  0.7818608E-02  0.1013317E+00
          2   -1    0    0  501    0  0.00000000000E+00  0.00000000000E+00  0.11929022491E+04  0.11929022491E+04  0.25500000000E-02 0.  1.
         -2   -1    0    0    0  501 -0.00000000000E+00 -0.00000000000E+00 -0.52765670319E+02  0.52765670381E+02  0.25500000000E-02 0. -1.
    5000001    1    1    2    0    0  0.14864560253E+02 -0.13751360907E+03  0.77701850100E+03  0.81225162279E+03  0.19200000000E+03 0.  0.
   -5000001    1    1    2    0    0 -0.14864560253E+02  0.13751360907E+03  0.36311807781E+03  0.43341629673E+03  0.19200000000E+03 0.  0.
<mgrwt>
<rscale>  0 0.50177400E+03</rscale>
<asrwt>0</asrwt>
<pdfrwt beam="1">  1        2 0.17041463E+00 0.50177400E+03</pdfrwt>
<pdfrwt beam="2">  1       -2 0.75379518E-02 0.50177400E+03</pdfrwt>
<totfact> 0.23482712E+03</totfact>
</mgrwt>
</event>
<event>
 4    1  0.5626910E-005  0.7594062E+03  0.7818608E-02  0.9620708E-01
          2   -1    0    0  501    0  0.00000000000E+00  0.00000000000E+00  0.34832796672E+03  0.34832796673E+03  0.25500000000E-02 0.  1.
         -2   -1    0    0    0  501 -0.00000000000E+00 -0.00000000000E+00 -0.41390433640E+03  0.41390433641E+03  0.25500000000E-02 0. -1.
    5000001    1    1    2    0    0 -0.16818458366E+03  0.27714533012E+03  0.14449335457E+02  0.37705221321E+03  0.19200000000E+03 0.  0.
   -5000001    1    1    2    0    0  0.16818458366E+03 -0.27714533012E+03 -0.80025705139E+02  0.38518008992E+03  0.19200000000E+03 0.  0.
<mgrwt>
<rscale>  0 0.75940623E+03</rscale>
<asrwt>0</asrwt>
<pdfrwt beam="1">  1        2 0.49761138E-01 0.75940623E+03</pdfrwt>
<pdfrwt beam="2">  1       -2 0.59129191E-01 0.75940623E+03</pdfrwt>
<totfact> 0.27184479E+02</totfact>
</mgrwt>
</event>
<event>
 4    1  0.5626910E-005  0.7836776E+03  0.7818608E-02  0.9583948E-01
         -2   -1    0    0    0  501 -0.00000000000E+00  0.00000000000E+00  0.16909257248E+03  0.16909257250E+03  0.25500000000E-02 0. -1.
          2   -1    0    0  501    0  0.00000000000E+00 -0.00000000000E+00 -0.90800928368E+03  0.90800928369E+03  0.25500000000E-02 0.  1.
    5000001    1    1    2    0    0  0.30709877897E+03 -0.36681414169E+02 -0.56871811537E+03  0.67524771821E+03  0.19200000000E+03 0.  0.
   -5000001    1    1    2    0    0 -0.30709877897E+03  0.36681414169E+02 -0.17019859583E+03  0.40185413798E+03  0.19200000000E+03 0.  0.
<mgrwt>
<rscale>  0 0.78367755E+03</rscale>
<asrwt>0</asrwt>
<pdfrwt beam="1">  1        2 0.12971561E+00 0.78367755E+03</pdfrwt>
<pdfrwt beam="2">  1       -2 0.24156082E-01 0.78367755E+03</pdfrwt>
<totfact> 0.49131750E+02</totfact>
</mgrwt>
</event>
<event>
 4    1  0.5626910E-005  0.8983248E+03  0.7818608E-02  0.9427678E-01
         -2   -1    0    0    0  501 -0.00000000000E+00  0.00000000000E+00  0.25189572552E+03  0.25189572554E+03  0.25500000000E-02 0. -1.
          2   -1    0    0  501    0  0.00000000000E+00 -0.00000000000E+00 -0.80091418745E+03  0.80091418746E+03  0.25500000000E-02 0.  1.
    5000001    1    1    2    0    0  0.19994317029E+03  0.33834722328E+03 -0.15483766781E+03  0.46399872653E+03  0.19200000000E+03 0.  0.
   -5000001    1    1    2    0    0 -0.19994317029E+03 -0.33834722328E+03 -0.39418079412E+03  0.58881118646E+03  0.19200000000E+03 0.  0.
<mgrwt>
<rscale>  0 0.89832480E+03</rscale>
<asrwt>0</asrwt>
<pdfrwt beam="1">  1        2 0.11441631E+00 0.89832480E+03</pdfrwt>
<pdfrwt beam="2">  1       -2 0.35985104E-01 0.89832480E+03</pdfrwt>
<totfact> 0.27585931E+02</totfact>
</mgrwt>
</event>
<event>
 4    1  0.5626910E-005  0.6436200E+03  0.7818608E-02  0.9818825E-01
         -2   -1    0    0    0  501 -0.00000000000E+00  0.00000000000E+00  0.31203061166E+02  0.31203061270E+02  0.25500000000E-02 0. -1.
          2   -1    0    0  501    0  0.00000000000E+00 -0.00000000000E+00 -0.33189589610E+04  0.33189589610E+04  0.25500000000E-02 0.  1.
    5000001    1    1    2    0    0  0.23545292007E+03  0.44980763749E+02 -0.21441267585E+04  0.21660112888E+04  0.19200000000E+03 0.  0.
   -5000001    1    1    2    0    0 -0.23545292007E+03 -0.44980763749E+02 -0.11436291413E+04  0.11841507335E+04  0.19200000000E+03 0.  0.
<mgrwt>
<rscale>  0 0.64362001E+03</rscale>
<asrwt>0</asrwt>
<pdfrwt beam="1">  1        2 0.47413677E+00 0.64362001E+03</pdfrwt>
<pdfrwt beam="2">  1       -2 0.44575823E-02 0.64362001E+03</pdfrwt>
<totfact> 0.40840330E+02</totfact>
</mgrwt>
</event>
<event>
 4    1  0.5626910E-005  0.4129403E+03  0.7818608E-02  0.1039389E+00
          2   -1    0    0  501    0  0.00000000000E+00  0.00000000000E+00  0.15566238880E+04  0.15566238880E+04  0.25500000000E-02 0.  1.
         -2   -1    0    0    0  501 -0.00000000000E+00 -0.00000000000E+00 -0.27386136449E+02  0.27386136568E+02  0.25500000000E-02 0. -1.
    5000001    1    1    2    0    0  0.62428389841E+02  0.41538901492E+02  0.81051079107E+03  0.83631006608E+03  0.19200000000E+03 0.  0.
   -5000001    1    1    2    0    0 -0.62428389841E+02 -0.41538901492E+02  0.71872696049E+03  0.74769995849E+03  0.19200000000E+03 0.  0.
<mgrwt>
<rscale>  0 0.41294026E+03</rscale>
<asrwt>0</asrwt>
<pdfrwt beam="1">  1        2 0.22237475E+00 0.41294026E+03</pdfrwt>
<pdfrwt beam="2">  1       -2 0.39123068E-02 0.41294026E+03</pdfrwt>
<totfact> 0.41607103E+03</totfact>
</mgrwt>
</event>
<event>
 4    1  0.5626910E-005  0.5393279E+03  0.7818608E-02  0.1003995E+00
          2   -1    0    0  501    0  0.00000000000E+00  0.00000000000E+00  0.31005505352E+04  0.31005505352E+04  0.25500000000E-02 0.  1.
         -2   -1    0    0    0  501 -0.00000000000E+00 -0.00000000000E+00 -0.23453462441E+02  0.23453462579E+02  0.25500000000E-02 0. -1.
    5000001    1    1    2    0    0 -0.17412810412E+03 -0.56811120520E+02  0.12603596831E+04  0.12879901516E+04  0.19200000000E+03 0.  0.
   -5000001    1    1    2    0    0  0.17412810412E+03  0.56811120520E+02  0.18167373897E+04  0.18360138462E+04  0.19200000000E+03 0.  0.
<mgrwt>
<rscale>  0 0.53932790E+03</rscale>
<asrwt>0</asrwt>
<pdfrwt beam="1">  1        2 0.44293569E+00 0.53932790E+03</pdfrwt>
<pdfrwt beam="2">  1       -2 0.33504954E-02 0.53932790E+03</pdfrwt>
<totfact> 0.84879852E+02</totfact>
</mgrwt>
</event>
<event>
 4    1  0.5626910E-005  0.4739183E+03  0.7818608E-02  0.1020820E+00
          2   -1    0    0  501    0  0.00000000000E+00  0.00000000000E+00  0.31218129529E+03  0.31218129530E+03  0.25500000000E-02 0.  1.
         -2   -1    0    0    0  501 -0.00000000000E+00 -0.00000000000E+00 -0.17986226052E+03  0.17986226054E+03  0.25500000000E-02 0. -1.
    5000001    1    1    2    0    0 -0.14899493833E+02  0.13698412185E+03  0.48206905885E+02  0.24119400973E+03  0.19200000000E+03 0.  0.
   -5000001    1    1    2    0    0  0.14899493833E+02 -0.13698412185E+03  0.84112128891E+02  0.25084954611E+03  0.19200000000E+03 0.  0.
<mgrwt>
<rscale>  0 0.47391828E+03</rscale>
<asrwt>0</asrwt>
<pdfrwt beam="1">  1        2 0.44597328E-01 0.47391828E+03</pdfrwt>
<pdfrwt beam="2">  1       -2 0.25694609E-01 0.47391828E+03</pdfrwt>
<totfact> 0.15488299E+03</totfact>
</mgrwt>
</event>
<event>
 4    1  0.5626910E-005  0.9802506E+03  0.7818608E-02  0.9330475E-01
          2   -1    0    0  501    0  0.00000000000E+00  0.00000000000E+00  0.16262028851E+04  0.16262028851E+04  0.25500000000E-02 0.  1.
         -2   -1    0    0    0  501 -0.00000000000E+00 -0.00000000000E+00 -0.14772006714E+03  0.14772006716E+03  0.25500000000E-02 0. -1.
    5000001    1    1    2    0    0  0.41239077741E+03  0.85556769724E+02  0.10308874408E+04  0.11300349684E+04  0.19200000000E+03 0.  0.
   -5000001    1    1    2    0    0 -0.41239077741E+03 -0.85556769724E+02  0.44759537710E+03  0.64388798384E+03  0.19200000000E+03 0.  0.
<mgrwt>
<rscale>  0 0.98025058E+03</rscale>
<asrwt>0</asrwt>
<pdfrwt beam="1">  1        2 0.23231468E+00 0.98025058E+03</pdfrwt>
<pdfrwt beam="2">  1       -2 0.21102869E-01 0.98025058E+03</pdfrwt>
<totfact> 0.24316082E+02</totfact>
</mgrwt>
</event>
<event>
 4    1  0.5626910E-005  0.5830231E+03  0.7818608E-02  0.9941267E-01
         -2   -1    0    0    0  501 -0.00000000000E+00  0.00000000000E+00  0.98407902993E+02  0.98407903026E+02  0.25500000000E-02 0. -1.
          2   -1    0    0  501    0  0.00000000000E+00 -0.00000000000E+00 -0.86353819202E+03  0.86353819203E+03  0.25500000000E-02 0.  1.
    5000001    1    1    2    0    0  0.20236756467E+03  0.22655947769E+02 -0.51710318086E+03  0.58798437297E+03  0.19200000000E+03 0.  0.
   -5000001    1    1    2    0    0 -0.20236756467E+03 -0.22655947769E+02 -0.24802710817E+03  0.37396172209E+03  0.19200000000E+03 0.  0.
<mgrwt>
<rscale>  0 0.58302310E+03</rscale>
<asrwt>0</asrwt>
<pdfrwt beam="1">  1        2 0.12336259E+00 0.58302310E+03</pdfrwt>
<pdfrwt beam="2">  1       -2 0.14058272E-01 0.58302310E+03</pdfrwt>
<totfact> 0.13472298E+03</totfact>
</mgrwt>
</event>
<event>
 4    1  0.5626910E-005  0.5864788E+03  0.7818608E-02  0.9933862E-01
          2   -1    0    0  501    0  0.00000000000E+00  0.00000000000E+00  0.41213669530E+04  0.41213669530E+04  0.25500000000E-02 0.  1.
         -2   -1    0    0    0  501 -0.00000000000E+00 -0.00000000000E+00 -0.20864278337E+02  0.20864278493E+02  0.25500000000E-02 0. -1.
    5000001    1    1    2    0    0  0.20542081893E+03 -0.29577873638E+02  0.15007615718E+04  0.15271613729E+04  0.19200000000E+03 0.  0.
   -5000001    1    1    2    0    0 -0.20542081893E+03  0.29577873638E+02  0.25997411028E+04  0.26150698586E+04  0.19200000000E+03 0.  0.
<mgrwt>
<rscale>  0 0.58647881E+03</rscale>
<asrwt>0</asrwt>
<pdfrwt beam="1">  1        2 0.58876689E+00 0.58647881E+03</pdfrwt>
<pdfrwt beam="2">  1       -2 0.29806103E-02 0.58647881E+03</pdfrwt>
<totfact> 0.23974508E+02</totfact>
</mgrwt>
</event>
<event>
 4    1  0.5626910E-005  0.6032976E+03  0.7818608E-02  0.9898588E-01
         -2   -1    0    0    0  501 -0.00000000000E+00  0.00000000000E+00  0.28266092501E+02  0.28266092616E+02  0.25500000000E-02 0. -1.
          2   -1    0    0  501    0  0.00000000000E+00 -0.00000000000E+00 -0.32191217932E+04  0.32191217932E+04  0.25500000000E-02 0.  1.
    5000001    1    1    2    0    0  0.22127150036E+03 -0.70011443798E+02 -0.15077512233E+04  0.15375436353E+04  0.19200000000E+03 0.  0.
   -5000001    1    1    2    0    0 -0.22127150036E+03  0.70011443798E+02 -0.16831044774E+04  0.17098442505E+04  0.19200000000E+03 0.  0.
<mgrwt>
<rscale>  0 0.60329759E+03</rscale>
<asrwt>0</asrwt>
<pdfrwt beam="1">  1        2 0.45987431E+00 0.60329759E+03</pdfrwt>
<pdfrwt beam="2">  1       -2 0.40380153E-02 0.60329759E+03</pdfrwt>
<totfact> 0.54439722E+02</totfact>
</mgrwt>
</event>
<event>
 4    1  0.5626910E-005  0.4142006E+03  0.7818608E-02  0.1038970E+00
         -2   -1    0    0    0  501 -0.00000000000E+00  0.00000000000E+00  0.47182094461E+02  0.47182094530E+02  0.25500000000E-02 0. -1.
          2   -1    0    0  501    0  0.00000000000E+00 -0.00000000000E+00 -0.90904268907E+03  0.90904268908E+03  0.25500000000E-02 0.  1.
    5000001    1    1    2    0    0  0.54743644558E+02  0.53756160142E+02 -0.45824085468E+03  0.50272783120E+03  0.19200000000E+03 0.  0.
   -5000001    1    1    2    0    0 -0.54743644558E+02 -0.53756160142E+02 -0.40361973994E+03  0.45349695240E+03  0.19200000000E+03 0.  0.
<mgrwt>
<rscale>  0 0.41420062E+03</rscale>
<asrwt>0</asrwt>
<pdfrwt beam="1">  1        2 0.12986323E+00 0.41420062E+03</pdfrwt>
<pdfrwt beam="2">  1       -2 0.67402998E-02 0.41420062E+03</pdfrwt>
<totfact> 0.41155733E+03</totfact>
</mgrwt>
</event>
<event>
 4    1  0.5626910E-005  0.5138208E+03  0.7818608E-02  0.1010233E+00
          2   -1    0    0  501    0  0.00000000000E+00  0.00000000000E+00  0.16414417933E+04  0.16414417933E+04  0.25500000000E-02 0.  1.
         -2   -1    0    0    0  501 -0.00000000000E+00 -0.00000000000E+00 -0.40210348663E+02  0.40210348744E+02  0.25500000000E-02 0. -1.
    5000001    1    1    2    0    0 -0.13631493582E+03 -0.85394388406E+02  0.98762579861E+03  0.10188928704E+04  0.19200000000E+03 0.  0.
   -5000001    1    1    2    0    0  0.13631493582E+03  0.85394388406E+02  0.61360564601E+03  0.66275927161E+03  0.19200000000E+03 0.  0.
<mgrwt>
<rscale>  0 0.51382077E+03</rscale>
<asrwt>0</asrwt>
<pdfrwt beam="1">  1        2 0.23449167E+00 0.51382077E+03</pdfrwt>
<pdfrwt beam="2">  1       -2 0.57443359E-02 0.51382077E+03</pdfrwt>
<totfact> 0.20834268E+03</totfact>
</mgrwt>
</event>
<event>
 4    1  0.5626910E-005  0.6813142E+03  0.7818608E-02  0.9749732E-01
          2   -1    0    0  501    0  0.00000000000E+00  0.00000000000E+00  0.58894322847E+03  0.58894322848E+03  0.25500000000E-02 0. -1.
         -2   -1    0    0    0  501 -0.00000000000E+00 -0.00000000000E+00 -0.19704319831E+03  0.19704319832E+03  0.25500000000E-02 0.  1.
    5000001    1    1    2    0    0  0.29161214462E+02  0.27695714542E+03  0.24249192389E+03  0.41619943534E+03  0.19200000000E+03 0.  0.
   -5000001    1    1    2    0    0 -0.29161214462E+02 -0.27695714542E+03  0.14940810628E+03  0.36978699146E+03  0.19200000000E+03 0.  0.
<mgrwt>
<rscale>  0 0.68131419E+03</rscale>
<asrwt>0</asrwt>
<pdfrwt beam="1">  1        2 0.84134748E-01 0.68131419E+03</pdfrwt>
<pdfrwt beam="2">  1       -2 0.28149028E-01 0.68131419E+03</pdfrwt>
<totfact> 0.64262366E+02</totfact>
</mgrwt>
</event>
<event>
 4    1  0.5626910E-005  0.8045316E+03  0.7818608E-02  0.9553481E-01
          2   -1    0    0  501    0  0.00000000000E+00  0.00000000000E+00  0.13012613176E+04  0.13012613176E+04  0.25500000000E-02 0.  1.
         -2   -1    0    0    0  501 -0.00000000000E+00 -0.00000000000E+00 -0.12435454342E+03  0.12435454344E+03  0.25500000000E-02 0. -1.
    5000001    1    1    2    0    0 -0.20573343442E+03 -0.21130100485E+03  0.24312405932E+03  0.42772382317E+03  0.19200000000E+03 0.  0.
   -5000001    1    1    2    0    0  0.20573343442E+03  0.21130100485E+03  0.93378271481E+03  0.99789203783E+03  0.19200000000E+03 0.  0.
<mgrwt>
<rscale>  0 0.80453156E+03</rscale>
<asrwt>0</asrwt>
<pdfrwt beam="1">  1        2 0.18589446E+00 0.80453156E+03</pdfrwt>
<pdfrwt beam="2">  1       -2 0.17764936E-01 0.80453156E+03</pdfrwt>
<totfact> 0.49388173E+02</totfact>
</mgrwt>
</event>
<event>
 4    1  0.5626910E-005  0.5206691E+03  0.7818608E-02  0.1008520E+00
         -2   -1    0    0    0  501 -0.00000000000E+00  0.00000000000E+00  0.10350108450E+03  0.10350108453E+03  0.25500000000E-02 0. -1.
          2   -1    0    0  501    0  0.00000000000E+00 -0.00000000000E+00 -0.65481510948E+03  0.65481510948E+03  0.25500000000E-02 0.  1.
    5000001    1    1    2    0    0  0.55634336725E+02  0.15943349192E+03 -0.20436860478E+03  0.32732971816E+03  0.19200000000E+03 0.  0.
   -5000001    1    1    2    0    0 -0.55634336725E+02 -0.15943349192E+03 -0.34694542020E+03  0.43098647585E+03  0.19200000000E+03 0.  0.
<mgrwt>
<rscale>  0 0.52066908E+03</rscale>
<asrwt>0</asrwt>
<pdfrwt beam="1">  1        2 0.93545013E-01 0.52066908E+03</pdfrwt>
<pdfrwt beam="2">  1       -2 0.14785870E-01 0.52066908E+03</pdfrwt>
<totfact> 0.17503405E+03</totfact>
</mgrwt>
</event>
<event>
 4    1  0.5626910E-005  0.7182398E+03  0.7818608E-02  0.9686538E-01
          2   -1    0    0  501    0  0.00000000000E+00  0.00000000000E+00  0.96483800464E+03  0.96483800464E+03  0.25500000000E-02 0.  1.
         -2   -1    0    0    0  501 -0.00000000000E+00 -0.00000000000E+00 -0.13366710002E+03  0.13366710004E+03  0.25500000000E-02 0. -1.
    5000001    1    1    2    0    0  0.17596202240E+03  0.18807457946E+03  0.17007132206E+03  0.36348718733E+03  0.19200000000E+03 0.  0.
   -5000001    1    1    2    0    0 -0.17596202240E+03 -0.18807457946E+03  0.66109958256E+03  0.73501791735E+03  0.19200000000E+03 0.  0.
<mgrwt>
<rscale>  0 0.71823979E+03</rscale>
<asrwt>0</asrwt>
<pdfrwt beam="1">  1        2 0.13783399E+00 0.71823979E+03</pdfrwt>
<pdfrwt beam="2">  1       -2 0.19095301E-01 0.71823979E+03</pdfrwt>
<totfact> 0.68625444E+02</totfact>
</mgrwt>
</event>
<event>
 4    1  0.5626910E-005  0.5603076E+03  0.7818608E-02  0.9991359E-01
          2   -1    0    0  501    0  0.00000000000E+00  0.00000000000E+00  0.17711637360E+04  0.17711637360E+04  0.25500000000E-02 0.  1.
         -2   -1    0    0    0  501 -0.00000000000E+00 -0.00000000000E+00 -0.44313316098E+02  0.44313316172E+02  0.25500000000E-02 0. -1.
    5000001    1    1    2    0    0  0.12269512030E+03 -0.12798036384E+02  0.13899287025E+04  0.14085395559E+04  0.19200000000E+03 0.  0.
   -5000001    1    1    2    0    0 -0.12269512030E+03  0.12798036384E+02  0.33692171740E+03  0.40693749635E+03  0.19200000000E+03 0.  0.
<mgrwt>
<rscale>  0 0.56030755E+03</rscale>
<asrwt>0</asrwt>
<pdfrwt beam="1">  1        2 0.25302345E+00 0.56030755E+03</pdfrwt>
<pdfrwt beam="2">  1       -2 0.63304722E-02 0.56030755E+03</pdfrwt>
<totfact> 0.15361946E+03</totfact>
</mgrwt>
</event>
<event>
 4    1  0.5626910E-005  0.4136513E+03  0.7818608E-02  0.1039153E+00
          2   -1    0    0  501    0  0.00000000000E+00  0.00000000000E+00  0.50116473347E+03  0.50116473347E+03  0.25500000000E-02 0.  1.
         -2   -1    0    0    0  501 -0.00000000000E+00 -0.00000000000E+00 -0.85354876458E+02  0.85354876497E+02  0.25500000000E-02 0. -1.
    5000001    1    1    2    0    0 -0.52468542914E+02 -0.38137935957E+02  0.26645962447E+03  0.33477183518E+03  0.19200000000E+03 0.  0.
   -5000001    1    1    2    0    0  0.52468542914E+02  0.38137935957E+02  0.14935023254E+03  0.25174777480E+03  0.19200000000E+03 0.  0.
<mgrwt>
<rscale>  0 0.41365132E+03</rscale>
<asrwt>0</asrwt>
<pdfrwt beam="1">  1        2 0.71594961E-01 0.41365132E+03</pdfrwt>
<pdfrwt beam="2">  1       -2 0.12193554E-01 0.41365132E+03</pdfrwt>
<totfact> 0.32745426E+03</totfact>
</mgrwt>
</event>
<event>
 4    1  0.5626910E-005  0.5462696E+03  0.7818608E-02  0.1002361E+00
         -2   -1    0    0    0  501 -0.00000000000E+00  0.00000000000E+00  0.80216487204E+02  0.80216487245E+02  0.25500000000E-02 0. -1.
          2   -1    0    0  501    0  0.00000000000E+00 -0.00000000000E+00 -0.93001596272E+03  0.93001596272E+03  0.25500000000E-02 0.  1.
    5000001    1    1    2    0    0 -0.16894566341E+03  0.84063551775E+02 -0.51023573802E+03  0.57690018744E+03  0.19200000000E+03 0.  0.
   -5000001    1    1    2    0    0  0.16894566341E+03 -0.84063551775E+02 -0.33956373750E+03  0.43333226253E+03  0.19200000000E+03 0.  0.
<mgrwt>
<rscale>  0 0.54626958E+03</rscale>
<asrwt>0</asrwt>
<pdfrwt beam="1">  1        2 0.13285942E+00 0.54626958E+03</pdfrwt>
<pdfrwt beam="2">  1       -2 0.11459499E-01 0.54626958E+03</pdfrwt>
<totfact> 0.17117806E+03</totfact>
</mgrwt>
</event>
<event>
 4    1  0.5626910E-005  0.5240476E+03  0.7818608E-02  0.1007686E+00
         -2   -1    0    0    0  501 -0.00000000000E+00  0.00000000000E+00  0.32583575245E+02  0.32583575345E+02  0.25500000000E-02 0. -1.
          2   -1    0    0  501    0  0.00000000000E+00 -0.00000000000E+00 -0.21070887391E+04  0.21070887391E+04  0.25500000000E-02 0.  1.
    5000001    1    1    2    0    0  0.14258031816E+03 -0.92058336837E+02 -0.81404425495E+03  0.85342599768E+03  0.19200000000E+03 0.  0.
   -5000001    1    1    2    0    0 -0.14258031816E+03  0.92058336837E+02 -0.12604609090E+04  0.12862463168E+04  0.19200000000E+03 0.  0.
<mgrwt>
<rscale>  0 0.52404765E+03</rscale>
<asrwt>0</asrwt>
<pdfrwt beam="1">  1        2 0.30101259E+00 0.52404765E+03</pdfrwt>
<pdfrwt beam="2">  1       -2 0.46547978E-02 0.52404765E+03</pdfrwt>
<totfact> 0.16839986E+03</totfact>
</mgrwt>
</event>
<event>
 4    1  0.5626910E-005  0.5769024E+03  0.7818608E-02  0.9954520E-01
         -2   -1    0    0    0  501 -0.00000000000E+00  0.00000000000E+00  0.81788479581E+03  0.81788479581E+03  0.25500000000E-02 0. -1.
          2   -1    0    0  501    0  0.00000000000E+00 -0.00000000000E+00 -0.10173081032E+03  0.10173081036E+03  0.25500000000E-02 0.  1.
    5000001    1    1    2    0    0  0.90295967038E+02  0.43975539124E+02  0.54565434387E+02  0.22344707726E+03  0.19200000000E+03 0.  0.
   -5000001    1    1    2    0    0 -0.90295967038E+02 -0.43975539124E+02  0.66158855109E+03  0.69616852891E+03  0.19200000000E+03 0.  0.
<mgrwt>
<rscale>  0 0.57690236E+03</rscale>
<asrwt>0</asrwt>
<pdfrwt beam="1">  1        2 0.14532972E-01 0.57690236E+03</pdfrwt>
<pdfrwt beam="2">  1       -2 0.11684069E+00 0.57690236E+03</pdfrwt>
<totfact> 0.23945504E+02</totfact>
</mgrwt>
</event>
<event>
 4    1  0.5626910E-005  0.1050914E+04  0.7818608E-02  0.9254401E-01
         -2   -1    0    0    0  501 -0.00000000000E+00  0.00000000000E+00  0.71524077914E+03  0.71524077915E+03  0.25500000000E-02 0. -1.
          2   -1    0    0  501    0  0.00000000000E+00 -0.00000000000E+00 -0.38603075707E+03  0.38603075708E+03  0.25500000000E-02 0.  1.
    5000001    1    1    2    0    0  0.44721033000E+03  0.12028099907E+03 -0.34255809506E+00  0.50132695454E+03  0.19200000000E+03 0.  0.
   -5000001    1    1    2    0    0 -0.44721033000E+03 -0.12028099907E+03  0.32955258017E+03  0.59994458169E+03  0.19200000000E+03 0.  0.
<mgrwt>
<rscale>  0 0.10509138E+04</rscale>
<asrwt>0</asrwt>
<pdfrwt beam="1">  1        2 0.55147251E-01 0.10509138E+04</pdfrwt>
<pdfrwt beam="2">  1       -2 0.10217725E+00 0.10509138E+04</pdfrwt>
<totfact> 0.70367562E+01</totfact>
</mgrwt>
</event>
<event>
 4    1  0.5626910E-005  0.6398803E+03  0.7818608E-02  0.9825956E-01
          2   -1    0    0  501    0  0.00000000000E+00  0.00000000000E+00  0.66786108385E+03  0.66786108385E+03  0.25500000000E-02 0.  1.
         -2   -1    0    0    0  501 -0.00000000000E+00 -0.00000000000E+00 -0.15326793415E+03  0.15326793417E+03  0.25500000000E-02 0. -1.
    5000001    1    1    2    0    0 -0.14595932902E+03  0.18746248007E+03  0.37938377041E+03  0.48707530466E+03  0.19200000000E+03 0.  0.
   -5000001    1    1    2    0    0  0.14595932902E+03 -0.18746248007E+03  0.13520937929E+03  0.33405371336E+03  0.19200000000E+03 0.  0.
<mgrwt>
<rscale>  0 0.63988027E+03</rscale>
<asrwt>0</asrwt>
<pdfrwt beam="1">  1        2 0.95408725E-01 0.63988027E+03</pdfrwt>
<pdfrwt beam="2">  1       -2 0.21895419E-01 0.63988027E+03</pdfrwt>
<totfact> 0.86963605E+02</totfact>
</mgrwt>
</event>
<event>
 4    1  0.5626910E-005  0.5538656E+03  0.7818608E-02  0.1000603E+00
          2   -1    0    0  501    0  0.00000000000E+00  0.00000000000E+00  0.30681576160E+04  0.30681576160E+04  0.25500000000E-02 0.  1.
         -2   -1    0    0    0  501 -0.00000000000E+00 -0.00000000000E+00 -0.24996039203E+02  0.24996039333E+02  0.25500000000E-02 0. -1.
    5000001    1    1    2    0    0  0.10231133638E+03 -0.10280985496E+03  0.22871140537E+04  0.22997374133E+04  0.19200000000E+03 0.  0.
   -5000001    1    1    2    0    0 -0.10231133638E+03  0.10280985496E+03  0.75604752313E+03  0.79341624199E+03  0.19200000000E+03 0.  0.
<mgrwt>
<rscale>  0 0.55386565E+03</rscale>
<asrwt>0</asrwt>
<pdfrwt beam="1">  1        2 0.43830878E+00 0.55386565E+03</pdfrwt>
<pdfrwt beam="2">  1       -2 0.35708583E-02 0.55386565E+03</pdfrwt>
<totfact> 0.80132313E+02</totfact>
</mgrwt>
</event>
<event>
 4    1  0.5626910E-005  0.8685096E+03  0.7818608E-02  0.9465825E-01
          2   -1    0    0  501    0  0.00000000000E+00  0.00000000000E+00  0.24697967538E+04  0.24697967538E+04  0.25500000000E-02 0.  1.
         -2   -1    0    0    0  501 -0.00000000000E+00 -0.00000000000E+00 -0.76353335028E+02  0.76353335071E+02  0.25500000000E-02 0. -1.
    5000001    1    1    2    0    0 -0.16800457619E+03  0.34397140005E+03  0.98590177817E+03  0.10748991478E+04  0.19200000000E+03 0.  0.
   -5000001    1    1    2    0    0  0.16800457619E+03 -0.34397140005E+03  0.14075416406E+04  0.14712509411E+04  0.19200000000E+03 0.  0.
<mgrwt>
<rscale>  0 0.86850957E+03</rscale>
<asrwt>0</asrwt>
<pdfrwt beam="1">  1        2 0.35282811E+00 0.86850957E+03</pdfrwt>
<pdfrwt beam="2">  1       -2 0.10907619E-01 0.86850957E+03</pdfrwt>
<totfact> 0.27821420E+02</totfact>
</mgrwt>
</event>
<event>
 4    1  0.5626910E-005  0.6068032E+03  0.7818608E-02  0.9891391E-01
         -2   -1    0    0    0  501 -0.00000000000E+00  0.00000000000E+00  0.79323599602E+02  0.79323599643E+02  0.25500000000E-02 0. -1.
          2   -1    0    0  501    0  0.00000000000E+00 -0.00000000000E+00 -0.11604682364E+04  0.11604682364E+04  0.25500000000E-02 0.  1.
    5000001    1    1    2    0    0  0.19564389516E+03 -0.96446316002E+02 -0.71880851228E+03  0.77532451458E+03  0.19200000000E+03 0.  0.
   -5000001    1    1    2    0    0 -0.19564389516E+03  0.96446316002E+02 -0.36233612456E+03  0.46446732151E+03  0.19200000000E+03 0.  0.
<mgrwt>
<rscale>  0 0.60680316E+03</rscale>
<asrwt>0</asrwt>
<pdfrwt beam="1">  1        2 0.16578117E+00 0.60680316E+03</pdfrwt>
<pdfrwt beam="2">  1       -2 0.11331944E-01 0.60680316E+03</pdfrwt>
<totfact> 0.12688444E+03</totfact>
</mgrwt>
</event>
<event>
 4    1  0.5626910E-005  0.5665945E+03  0.7818608E-02  0.9977243E-01
         -2   -1    0    0    0  501 -0.00000000000E+00  0.00000000000E+00  0.46377143332E+02  0.46377143402E+02  0.25500000000E-02 0. -1.
          2   -1    0    0  501    0  0.00000000000E+00 -0.00000000000E+00 -0.17305364236E+04  0.17305364236E+04  0.25500000000E-02 0.  1.
    5000001    1    1    2    0    0 -0.17556598298E+03  0.10887229147E+02 -0.11920271043E+04  0.12201371085E+04  0.19200000000E+03 0.  0.
   -5000001    1    1    2    0    0  0.17556598298E+03 -0.10887229147E+02 -0.49213217605E+03  0.55677645859E+03  0.19200000000E+03 0.  0.
<mgrwt>
<rscale>  0 0.56659451E+03</rscale>
<asrwt>0</asrwt>
<pdfrwt beam="1">  1        2 0.24721945E+00 0.56659451E+03</pdfrwt>
<pdfrwt beam="2">  1       -2 0.66253073E-02 0.56659451E+03</pdfrwt>
<totfact> 0.14990489E+03</totfact>
</mgrwt>
</event>
<event>
 4    1  0.5626910E-005  0.4875816E+03  0.7818608E-02  0.1017072E+00
         -2   -1    0    0    0  501 -0.00000000000E+00  0.00000000000E+00  0.76193533269E+02  0.76193533312E+02  0.25500000000E-02 0. -1.
          2   -1    0    0  501    0  0.00000000000E+00 -0.00000000000E+00 -0.78003933334E+03  0.78003933334E+03  0.25500000000E-02 0.  1.
    5000001    1    1    2    0    0  0.78248832901E+02 -0.74303784811E+02 -0.53548186440E+03  0.57900670064E+03  0.19200000000E+03 0.  0.
   -5000001    1    1    2    0    0 -0.78248832901E+02  0.74303784811E+02 -0.16836393567E+03  0.27722616601E+03  0.19200000000E+03 0.  0.
<mgrwt>
<rscale>  0 0.48758159E+03</rscale>
<asrwt>0</asrwt>
<pdfrwt beam="1">  1        2 0.11143419E+00 0.48758159E+03</pdfrwt>
<pdfrwt beam="2">  1       -2 0.10884791E-01 0.48758159E+03</pdfrwt>
<totfact> 0.23408546E+03</totfact>
</mgrwt>
</event>
<event>
 4    1  0.5626910E-005  0.5760648E+03  0.7818608E-02  0.9956347E-01
          2   -1    0    0  501    0  0.00000000000E+00  0.00000000000E+00  0.52096595337E+02  0.52096595400E+02  0.25500000000E-02 0.  1.
         -2   -1    0    0    0  501 -0.00000000000E+00 -0.00000000000E+00 -0.15924778019E+04  0.15924778019E+04  0.25500000000E-02 0. -1.
    5000001    1    1    2    0    0  0.14009812740E+03 -0.14400208917E+03 -0.98637938309E+03  0.10247791832E+04  0.19200000000E+03 0.  0.
   -5000001    1    1    2    0    0 -0.14009812740E+03  0.14400208917E+03 -0.55400182349E+03  0.61979521410E+03  0.19200000000E+03 0.  0.
<mgrwt>
<rscale>  0 0.57606483E+03</rscale>
<asrwt>0</asrwt>
<pdfrwt beam="1">  1        2 0.74423717E-02 0.57606483E+03</pdfrwt>
<pdfrwt beam="2">  1       -2 0.22749680E+00 0.57606483E+03</pdfrwt>
<totfact> 0.89247331E+01</totfact>
</mgrwt>
</event>
<event>
 4    1  0.5626910E-005  0.1059740E+04  0.7818608E-02  0.9245346E-01
         -2   -1    0    0    0  501 -0.00000000000E+00  0.00000000000E+00  0.21023406279E+03  0.21023406280E+03  0.25500000000E-02 0. -1.
          2   -1    0    0  501    0  0.00000000000E+00 -0.00000000000E+00 -0.13354738269E+04  0.13354738269E+04  0.25500000000E-02 0.  1.
    5000001    1    1    2    0    0  0.48318057172E+03 -0.10751594812E+02 -0.71078554348E+03  0.88071513584E+03  0.19200000000E+03 0.  0.
   -5000001    1    1    2    0    0 -0.48318057172E+03  0.10751594812E+02 -0.41445422062E+03  0.66499275385E+03  0.19200000000E+03 0.  0.
<mgrwt>
<rscale>  0 0.10597398E+04</rscale>
<asrwt>0</asrwt>
<pdfrwt beam="1">  1        2 0.19078197E+00 0.10597398E+04</pdfrwt>
<pdfrwt beam="2">  1       -2 0.30033438E-01 0.10597398E+04</pdfrwt>
<totfact> 0.18233170E+02</totfact>
</mgrwt>
</event>
<event>
 4    1  0.5626910E-005  0.4760424E+03  0.7818608E-02  0.1020229E+00
          2   -1    0    0  501    0  0.00000000000E+00  0.00000000000E+00  0.24467040043E+04  0.24467040043E+04  0.25500000000E-02 0.  1.
         -2   -1    0    0    0  501 -0.00000000000E+00 -0.00000000000E+00 -0.23155266694E+02  0.23155266835E+02  0.25500000000E-02 0. -1.
    5000001    1    1    2    0    0 -0.10091295028E+03 -0.70897390096E+02  0.86064286751E+03  0.89038194549E+03  0.19200000000E+03 0.  0.
   -5000001    1    1    2    0    0  0.10091295028E+03  0.70897390096E+02  0.15629058701E+04  0.15794773257E+04  0.19200000000E+03 0.  0.
<mgrwt>
<rscale>  0 0.47604237E+03</rscale>
<asrwt>0</asrwt>
<pdfrwt beam="1">  1        2 0.34952925E+00 0.47604237E+03</pdfrwt>
<pdfrwt beam="2">  1       -2 0.33078942E-02 0.47604237E+03</pdfrwt>
<totfact> 0.19210271E+03</totfact>
</mgrwt>
</event>
<event>
 4    1  0.5626910E-005  0.7498959E+03  0.7818608E-02  0.9635514E-01
          2   -1    0    0  501    0  0.00000000000E+00  0.00000000000E+00  0.16399359804E+04  0.16399359804E+04  0.25500000000E-02 0.  1.
         -2   -1    0    0    0  501 -0.00000000000E+00 -0.00000000000E+00 -0.85726498393E+02  0.85726498431E+02  0.25500000000E-02 0. -1.
    5000001    1    1    2    0    0  0.20985153480E+03 -0.22856170833E+03  0.97564730246E+03  0.10416476275E+04  0.19200000000E+03 0.  0.
   -5000001    1    1    2    0    0 -0.20985153480E+03  0.22856170833E+03  0.57856217951E+03  0.68401485125E+03  0.19200000000E+03 0.  0.
<mgrwt>
<rscale>  0 0.74989591E+03</rscale>
<asrwt>0</asrwt>
<pdfrwt beam="1">  1        2 0.23427656E+00 0.74989591E+03</pdfrwt>
<pdfrwt beam="2">  1       -2 0.12246643E-01 0.74989591E+03</pdfrwt>
<totfact> 0.61413910E+02</totfact>
</mgrwt>
</event>
<event>
 4    1  0.5626910E-005  0.6568202E+03  0.7818608E-02  0.9794065E-01
          2   -1    0    0  501    0  0.00000000000E+00  0.00000000000E+00  0.23251315370E+04  0.23251315370E+04  0.25500000000E-02 0.  1.
         -2   -1    0    0    0  501 -0.00000000000E+00 -0.00000000000E+00 -0.46385845585E+02  0.46385845655E+02  0.25500000000E-02 0. -1.
    5000001    1    1    2    0    0 -0.27314891659E+02  0.22112344321E+03  0.16669104809E+04  0.16926595144E+04  0.19200000000E+03 0.  0.
   -5000001    1    1    2    0    0  0.27314891659E+02 -0.22112344321E+03  0.61183521058E+03  0.67885786830E+03  0.19200000000E+03 0.  0.
<mgrwt>
<rscale>  0 0.65682020E+03</rscale>
<asrwt>0</asrwt>
<pdfrwt beam="1">  1        2 0.33216153E+00 0.65682020E+03</pdfrwt>
<pdfrwt beam="2">  1       -2 0.66265517E-02 0.65682020E+03</pdfrwt>
<totfact> 0.74780062E+02</totfact>
</mgrwt>
</event>
<event>
 4    1  0.5626910E-005  0.5785927E+03  0.7818608E-02  0.9950843E-01
          2   -1    0    0  501    0  0.00000000000E+00  0.00000000000E+00  0.85243181710E+02  0.85243181748E+02  0.25500000000E-02 0.  1.
         -2   -1    0    0    0  501 -0.00000000000E+00 -0.00000000000E+00 -0.98180714877E+03  0.98180714877E+03  0.25500000000E-02 0. -1.
    5000001    1    1    2    0    0 -0.18785811123E+03 -0.79515132883E+02 -0.31510144573E+03  0.42162334780E+03  0.19200000000E+03 0.  0.
   -5000001    1    1    2    0    0  0.18785811123E+03  0.79515132883E+02 -0.58146252133E+03  0.64542698272E+03  0.19200000000E+03 0.  0.
<mgrwt>
<rscale>  0 0.57859266E+03</rscale>
<asrwt>0</asrwt>
<pdfrwt beam="1">  1        2 0.12177598E-01 0.57859266E+03</pdfrwt>
<pdfrwt beam="2">  1       -2 0.14025816E+00 0.57859266E+03</pdfrwt>
<totfact> 0.18817550E+02</totfact>
</mgrwt>
</event>
<event>
 4    1  0.5626910E-005  0.6512972E+03  0.7818608E-02  0.9804348E-01
         -2   -1    0    0    0  501 -0.00000000000E+00  0.00000000000E+00  0.13395239841E+03  0.13395239843E+03  0.25500000000E-02 0. -1.
          2   -1    0    0  501    0  0.00000000000E+00 -0.00000000000E+00 -0.79167687755E+03  0.79167687755E+03  0.25500000000E-02 0.  1.
    5000001    1    1    2    0    0  0.13005569203E+03 -0.22861181252E+03 -0.33209456691E+03  0.46511143312E+03  0.19200000000E+03 0.  0.
   -5000001    1    1    2    0    0 -0.13005569203E+03  0.22861181252E+03 -0.32562991223E+03  0.46051784286E+03  0.19200000000E+03 0.  0.
<mgrwt>
<rscale>  0 0.65129722E+03</rscale>
<asrwt>0</asrwt>
<pdfrwt beam="1">  1        2 0.11309669E+00 0.65129722E+03</pdfrwt>
<pdfrwt beam="2">  1       -2 0.19136057E-01 0.65129722E+03</pdfrwt>
<totfact> 0.89097931E+02</totfact>
</mgrwt>
</event>
<event>
 4    1  0.5626910E-005  0.1113186E+04  0.7818608E-02  0.9192435E-01
          2   -1    0    0  501    0  0.00000000000E+00  0.00000000000E+00  0.17289407136E+04  0.17289407136E+04  0.25500000000E-02 0.  1.
         -2   -1    0    0    0  501 -0.00000000000E+00 -0.00000000000E+00 -0.17918225906E+03  0.17918225907E+03  0.25500000000E-02 0. -1.
    5000001    1    1    2    0    0 -0.40945557237E+03 -0.99921438948E+02  0.24573983797E+03  0.52429974983E+03  0.19200000000E+03 0.  0.
   -5000001    1    1    2    0    0  0.40945557237E+03  0.99921438948E+02  0.13040186165E+04  0.13838232228E+04  0.19200000000E+03 0.  0.
<mgrwt>
<rscale>  0 0.11131855E+04</rscale>
<asrwt>0</asrwt>
<pdfrwt beam="1">  1        2 0.24699152E+00 0.11131855E+04</pdfrwt>
<pdfrwt beam="2">  1       -2 0.25597467E-01 0.11131855E+04</pdfrwt>
<totfact> 0.15090701E+02</totfact>
</mgrwt>
</event>
<event>
 4    1  0.5626910E-005  0.9027235E+03  0.7818608E-02  0.9422183E-01
         -2   -1    0    0    0  501 -0.00000000000E+00  0.00000000000E+00  0.14769912137E+03  0.14769912139E+03  0.25500000000E-02 0. -1.
          2   -1    0    0  501    0  0.00000000000E+00 -0.00000000000E+00 -0.13793407085E+04  0.13793407085E+04  0.25500000000E-02 0.  1.
    5000001    1    1    2    0    0  0.18782476031E+03 -0.34418076946E+03 -0.80961603551E+03  0.91982643341E+03  0.19200000000E+03 0.  0.
   -5000001    1    1    2    0    0 -0.18782476031E+03  0.34418076946E+03 -0.42202555164E+03  0.60721339650E+03  0.19200000000E+03 0.  0.
<mgrwt>
<rscale>  0 0.90272346E+03</rscale>
<asrwt>0</asrwt>
<pdfrwt beam="1">  1        2 0.19704867E+00 0.90272346E+03</pdfrwt>
<pdfrwt beam="2">  1       -2 0.21099875E-01 0.90272346E+03</pdfrwt>
<totfact> 0.33004750E+02</totfact>
</mgrwt>
</event>
<event>
 4    1  0.5626910E-005  0.4468856E+03  0.7818608E-02  0.1028655E+00
          2   -1    0    0  501    0  0.00000000000E+00  0.00000000000E+00  0.24782770549E+03  0.24782770551E+03  0.25500000000E-02 0.  1.
         -2   -1    0    0    0  501 -0.00000000000E+00 -0.00000000000E+00 -0.20145725682E+03  0.20145725684E+03  0.25500000000E-02 0. -1.
    5000001    1    1    2    0    0 -0.93888654599E+02  0.51663099712E+02  0.63129313685E+02  0.22876508820E+03  0.19200000000E+03 0.  0.
   -5000001    1    1    2    0    0  0.93888654599E+02 -0.51663099712E+02 -0.16758865009E+02  0.22051987414E+03  0.19200000000E+03 0.  0.
<mgrwt>
<rscale>  0 0.44688562E+03</rscale>
<asrwt>0</asrwt>
<pdfrwt beam="1">  1        2 0.35403958E-01 0.44688562E+03</pdfrwt>
<pdfrwt beam="2">  1       -2 0.28779608E-01 0.44688562E+03</pdfrwt>
<totfact> 0.16249150E+03</totfact>
</mgrwt>
</event>
<event>
 4    1  0.5626910E-005  0.9056720E+03  0.7818608E-02  0.9418519E-01
         -2   -1    0    0    0  501 -0.00000000000E+00  0.00000000000E+00  0.25478561659E+03  0.25478561660E+03  0.25500000000E-02 0. -1.
          2   -1    0    0  501    0  0.00000000000E+00 -0.00000000000E+00 -0.80483528844E+03  0.80483528844E+03  0.25500000000E-02 0.  1.
    5000001    1    1    2    0    0  0.18819040395E+03  0.24686214558E+03  0.38565339330E+02  0.36702565640E+03  0.19200000000E+03 0.  0.
   -5000001    1    1    2    0    0 -0.18819040395E+03 -0.24686214558E+03 -0.58861501118E+03  0.69259524865E+03  0.19200000000E+03 0.  0.
<mgrwt>
<rscale>  0 0.90567203E+03</rscale>
<asrwt>0</asrwt>
<pdfrwt beam="1">  1        2 0.11497647E+00 0.90567203E+03</pdfrwt>
<pdfrwt beam="2">  1       -2 0.36397946E-01 0.90567203E+03</pdfrwt>
<totfact> 0.26810239E+02</totfact>
</mgrwt>
</event>
<event>
 4    1  0.5626910E-005  0.6086042E+03  0.7818608E-02  0.9887714E-01
         -2   -1    0    0    0  501 -0.00000000000E+00  0.00000000000E+00  0.17386259360E+03  0.17386259361E+03  0.25500000000E-02 0. -1.
          2   -1    0    0  501    0  0.00000000000E+00 -0.00000000000E+00 -0.53260310126E+03  0.53260310126E+03  0.25500000000E-02 0.  1.
    5000001    1    1    2    0    0  0.19602835710E+03  0.12699891240E+02 -0.33137414232E+03  0.43041982555E+03  0.19200000000E+03 0.  0.
   -5000001    1    1    2    0    0 -0.19602835710E+03 -0.12699891240E+02 -0.27366365339E+02  0.27604586933E+03  0.19200000000E+03 0.  0.
<mgrwt>
<rscale>  0 0.60860416E+03</rscale>
<asrwt>0</asrwt>
<pdfrwt beam="1">  1        2 0.76086157E-01 0.60860416E+03</pdfrwt>
<pdfrwt beam="2">  1       -2 0.24837514E-01 0.60860416E+03</pdfrwt>
<totfact> 0.90763011E+02</totfact>
</mgrwt>
</event>
<event>
 4    1  0.5626910E-005  0.6643220E+03  0.7818608E-02  0.9780270E-01
         -2   -1    0    0    0  501 -0.00000000000E+00  0.00000000000E+00  0.39501069024E+02  0.39501069106E+02  0.25500000000E-02 0. -1.
          2   -1    0    0  501    0  0.00000000000E+00 -0.00000000000E+00 -0.27931121015E+04  0.27931121015E+04  0.25500000000E-02 0.  1.
    5000001    1    1    2    0    0  0.12009458088E+03 -0.21448359831E+03 -0.18637326503E+04  0.18896532258E+04  0.19200000000E+03 0.  0.
   -5000001    1    1    2    0    0 -0.12009458088E+03  0.21448359831E+03 -0.88987838226E+03  0.94295994481E+03  0.19200000000E+03 0.  0.
<mgrwt>
<rscale>  0 0.66432195E+03</rscale>
<asrwt>0</asrwt>
<pdfrwt beam="1">  1        2 0.39901589E+00 0.66432195E+03</pdfrwt>
<pdfrwt beam="2">  1       -2 0.56430117E-02 0.66432195E+03</pdfrwt>
<totfact> 0.55040339E+02</totfact>
</mgrwt>
</event>
<event>
 4    1  0.5626910E-005  0.4593846E+03  0.7818608E-02  0.1024960E+00
         -2   -1    0    0    0  501 -0.00000000000E+00  0.00000000000E+00  0.92035750658E+02  0.92035750693E+02  0.25500000000E-02 0. -1.
          2   -1    0    0  501    0  0.00000000000E+00 -0.00000000000E+00 -0.57323969702E+03  0.57323969703E+03  0.25500000000E-02 0.  1.
    5000001    1    1    2    0    0  0.11658701202E+03 -0.47949360339E+02 -0.24305677303E+03  0.33441331828E+03  0.19200000000E+03 0.  0.
   -5000001    1    1    2    0    0 -0.11658701202E+03  0.47949360339E+02 -0.23814717334E+03  0.33086212944E+03  0.19200000000E+03 0.  0.
<mgrwt>
<rscale>  0 0.45938457E+03</rscale>
<asrwt>0</asrwt>
<pdfrwt beam="1">  1        2 0.81891383E-01 0.45938457E+03</pdfrwt>
<pdfrwt beam="2">  1       -2 0.13147965E-01 0.45938457E+03</pdfrwt>
<totfact> 0.24860032E+03</totfact>
</mgrwt>
</event>
<event>
 4    1  0.5626910E-005  0.8955504E+03  0.7818608E-02  0.9431161E-01
         -2   -1    0    0    0  501 -0.00000000000E+00  0.00000000000E+00  0.77867077560E+02  0.77867077602E+02  0.25500000000E-02 0. -1.
          2   -1    0    0  501    0  0.00000000000E+00 -0.00000000000E+00 -0.25749347391E+04  0.25749347391E+04  0.25500000000E-02 0.  1.
    5000001    1    1    2    0    0 -0.34839597095E+03  0.20412360062E+03 -0.11764331749E+04  0.12585329602E+04  0.19200000000E+03 0.  0.
   -5000001    1    1    2    0    0  0.34839597095E+03 -0.20412360062E+03 -0.13206344866E+04  0.13942688564E+04  0.19200000000E+03 0.  0.
<mgrwt>
<rscale>  0 0.89555043E+03</rscale>
<asrwt>0</asrwt>
<pdfrwt beam="1">  1        2 0.36784777E+00 0.89555043E+03</pdfrwt>
<pdfrwt beam="2">  1       -2 0.11123870E-01 0.89555043E+03</pdfrwt>
<totfact> 0.23698642E+02</totfact>
</mgrwt>
</event>
<event>
 4    1  0.5626910E-005  0.5095836E+03  0.7818608E-02  0.1011307E+00
          2   -1    0    0  501    0  0.00000000000E+00  0.00000000000E+00  0.64309442013E+03  0.64309442014E+03  0.25500000000E-02 0.  1.
         -2   -1    0    0    0  501 -0.00000000000E+00 -0.00000000000E+00 -0.10094764170E+03  0.10094764174E+03  0.25500000000E-02 0. -1.
    5000001    1    1    2    0    0  0.47933907176E+02  0.16016882664E+03  0.28590274195E+03  0.38282644937E+03  0.19200000000E+03 0.  0.
   -5000001    1    1    2    0    0 -0.47933907176E+02 -0.16016882664E+03  0.25624403648E+03  0.36121561250E+03  0.19200000000E+03 0.  0.
<mgrwt>
<rscale>  0 0.50958361E+03</rscale>
<asrwt>0</asrwt>
<pdfrwt beam="1">  1        2 0.91870631E-01 0.50958361E+03</pdfrwt>
<pdfrwt beam="2">  1       -2 0.14421092E-01 0.50958361E+03</pdfrwt>
<totfact> 0.18647345E+03</totfact>
</mgrwt>
</event>
<event>
 4    1  0.5626910E-005  0.7084709E+03  0.7818608E-02  0.9702854E-01
         -2   -1    0    0    0  501 -0.00000000000E+00  0.00000000000E+00  0.31649212830E+03  0.31649212831E+03  0.25500000000E-02 0. -1.
          2   -1    0    0  501    0  0.00000000000E+00 -0.00000000000E+00 -0.39647986245E+03  0.39647986246E+03  0.25500000000E-02 0.  1.
    5000001    1    1    2    0    0 -0.81983724137E+02 -0.28441993348E+03 -0.71860895621E+02  0.36006113079E+03  0.19200000000E+03 0.  0.
   -5000001    1    1    2    0    0  0.81983724137E+02  0.28441993348E+03 -0.81268385223E+01  0.35291085998E+03  0.19200000000E+03 0.  0.
<mgrwt>
<rscale>  0 0.70847090E+03</rscale>
<asrwt>0</asrwt>
<pdfrwt beam="1">  1        2 0.56639980E-01 0.70847090E+03</pdfrwt>
<pdfrwt beam="2">  1       -2 0.45213161E-01 0.70847090E+03</pdfrwt>
<totfact> 0.40819485E+02</totfact>
</mgrwt>
</event>
<event>
 4    1  0.5626910E-005  0.4724978E+03  0.7818608E-02  0.1021218E+00
         -2   -1    0    0    0  501 -0.00000000000E+00  0.00000000000E+00  0.10445657933E+04  0.10445657933E+04  0.25500000000E-02 0. -1.
          2   -1    0    0  501    0  0.00000000000E+00 -0.00000000000E+00 -0.53432294081E+02  0.53432294142E+02  0.25500000000E-02 0.  1.
    5000001    1    1    2    0    0 -0.96149389503E+02 -0.63187661739E+02  0.67119808245E+03  0.70753674928E+03  0.19200000000E+03 0.  0.
   -5000001    1    1    2    0    0  0.96149389503E+02  0.63187661739E+02  0.31993541677E+03  0.39046133816E+03  0.19200000000E+03 0.  0.
<mgrwt>
<rscale>  0 0.47249782E+03</rscale>
<asrwt>0</asrwt>
<pdfrwt beam="1">  1        2 0.76331850E-02 0.47249782E+03</pdfrwt>
<pdfrwt beam="2">  1       -2 0.14922368E+00 0.47249782E+03</pdfrwt>
<totfact> 0.29078282E+02</totfact>
</mgrwt>
</event>
<event>
 4    1  0.5626910E-005  0.4052452E+03  0.7818608E-02  0.1041978E+00
          2   -1    0    0  501    0  0.00000000000E+00  0.00000000000E+00  0.17341220820E+03  0.17341220822E+03  0.25500000000E-02 0.  1.
         -2   -1    0    0    0  501 -0.00000000000E+00 -0.00000000000E+00 -0.23675336719E+03  0.23675336721E+03  0.25500000000E-02 0. -1.
    5000001    1    1    2    0    0  0.56754446845E+02 -0.26980463073E+02 -0.47445435751E+02  0.20751887143E+03  0.19200000000E+03 0.  0.
   -5000001    1    1    2    0    0 -0.56754446845E+02  0.26980463073E+02 -0.15895723239E+02  0.20264670400E+03  0.19200000000E+03 0.  0.
<mgrwt>
<rscale>  0 0.40524523E+03</rscale>
<asrwt>0</asrwt>
<pdfrwt beam="1">  1        2 0.24773173E-01 0.40524523E+03</pdfrwt>
<pdfrwt beam="2">  1       -2 0.33821909E-01 0.40524523E+03</pdfrwt>
<totfact> 0.17943936E+03</totfact>
</mgrwt>
</event>
<event>
 4    1  0.5626910E-005  0.4953537E+03  0.7818608E-02  0.1014999E+00
         -2   -1    0    0    0  501 -0.00000000000E+00  0.00000000000E+00  0.53022993379E+03  0.53022993380E+03  0.25500000000E-02 0. -1.
          2   -1    0    0  501    0  0.00000000000E+00 -0.00000000000E+00 -0.11569288992E+03  0.11569288995E+03  0.25500000000E-02 0.  1.
    5000001    1    1    2    0    0 -0.54141762614E+02 -0.70797952212E+02  0.37494896720E+03  0.43057450982E+03  0.19200000000E+03 0.  0.
   -5000001    1    1    2    0    0  0.54141762614E+02  0.70797952212E+02  0.39588076670E+02  0.21534831393E+03  0.19200000000E+03 0.  0.
<mgrwt>
<rscale>  0 0.49535375E+03</rscale>
<asrwt>0</asrwt>
<pdfrwt beam="1">  1        2 0.16527556E-01 0.49535375E+03</pdfrwt>
<pdfrwt beam="2">  1       -2 0.75747134E-01 0.49535375E+03</pdfrwt>
<totfact> 0.56133863E+02</totfact>
</mgrwt>
</event>
<event>
 4    1  0.5626910E-005  0.4644157E+03  0.7818608E-02  0.1023508E+00
          2   -1    0    0  501    0  0.00000000000E+00  0.00000000000E+00  0.11510073161E+04  0.11510073161E+04  0.25500000000E-02 0.  1.
         -2   -1    0    0    0  501 -0.00000000000E+00 -0.00000000000E+00 -0.46846345540E+02  0.46846345609E+02  0.25500000000E-02 0. -1.
    5000001    1    1    2    0    0  0.12260573529E+03 -0.15014744996E+02  0.44268543429E+03  0.49808834822E+03  0.19200000000E+03 0.  0.
   -5000001    1    1    2    0    0 -0.12260573529E+03  0.15014744996E+02  0.66147553626E+03  0.69976531349E+03  0.19200000000E+03 0.  0.
<mgrwt>
<rscale>  0 0.46441570E+03</rscale>
<asrwt>0</asrwt>
<pdfrwt beam="1">  1        2 0.16442959E+00 0.46441570E+03</pdfrwt>
<pdfrwt beam="2">  1       -2 0.66923360E-02 0.46441570E+03</pdfrwt>
<totfact> 0.29897485E+03</totfact>
</mgrwt>
</event>
<event>
 4    1  0.5626910E-005  0.4768285E+03  0.7818608E-02  0.1020010E+00
          2   -1    0    0  501    0  0.00000000000E+00  0.00000000000E+00  0.27733886470E+03  0.27733886471E+03  0.25500000000E-02 0.  1.
         -2   -1    0    0    0  501 -0.00000000000E+00 -0.00000000000E+00 -0.20495273318E+03  0.20495273320E+03  0.25500000000E-02 0. -1.
    5000001    1    1    2    0    0  0.14134837277E+02  0.11649507824E+03 -0.43490637269E+02  0.22918623957E+03  0.19200000000E+03 0.  0.
   -5000001    1    1    2    0    0 -0.14134837277E+02 -0.11649507824E+03  0.11587676879E+03  0.25310535834E+03  0.19200000000E+03 0.  0.
<mgrwt>
<rscale>  0 0.47682852E+03</rscale>
<asrwt>0</asrwt>
<pdfrwt beam="1">  1        2 0.39619838E-01 0.47682852E+03</pdfrwt>
<pdfrwt beam="2">  1       -2 0.29278962E-01 0.47682852E+03</pdfrwt>
<totfact> 0.13918407E+03</totfact>
</mgrwt>
</event>
<event>
 4    1  0.5626910E-005  0.6494362E+03  0.7818608E-02  0.9807838E-01
          2   -1    0    0  501    0  0.00000000000E+00  0.00000000000E+00  0.46141318681E+03  0.46141318682E+03  0.25500000000E-02 0.  1.
         -2   -1    0    0    0  501 -0.00000000000E+00 -0.00000000000E+00 -0.22851932734E+03  0.22851932735E+03  0.25500000000E-02 0. -1.
    5000001    1    1    2    0    0 -0.19640849034E+03 -0.93273308478E+02  0.27149862678E+03  0.39730556187E+03  0.19200000000E+03 0.  0.
   -5000001    1    1    2    0    0  0.19640849034E+03  0.93273308478E+02 -0.38604767305E+02  0.29262695230E+03  0.19200000000E+03 0.  0.
<mgrwt>
<rscale>  0 0.64943616E+03</rscale>
<asrwt>0</asrwt>
<pdfrwt beam="1">  1        2 0.65916169E-01 0.64943616E+03</pdfrwt>
<pdfrwt beam="2">  1       -2 0.32645618E-01 0.64943616E+03</pdfrwt>
<totfact> 0.64690238E+02</totfact>
</mgrwt>
</event>
<event>
 4    1  0.5626910E-005  0.5734372E+03  0.7818608E-02  0.9962101E-01
         -2   -1    0    0    0  501 -0.00000000000E+00  0.00000000000E+00  0.82842448490E+02  0.82842448529E+02  0.25500000000E-02 0. -1.
          2   -1    0    0  501    0  0.00000000000E+00 -0.00000000000E+00 -0.99233609558E+03  0.99233609559E+03  0.25500000000E-02 0.  1.
    5000001    1    1    2    0    0  0.67210406441E+02 -0.15353895600E+03 -0.70101922566E+03  0.74591112372E+03  0.19200000000E+03 0.  0.
   -5000001    1    1    2    0    0 -0.67210406441E+02  0.15353895600E+03 -0.20847442144E+03  0.32926742040E+03  0.19200000000E+03 0.  0.
<mgrwt>
<rscale>  0 0.57343719E+03</rscale>
<asrwt>0</asrwt>
<pdfrwt beam="1">  1        2 0.14176229E+00 0.57343719E+03</pdfrwt>
<pdfrwt beam="2">  1       -2 0.11834636E-01 0.57343719E+03</pdfrwt>
<totfact> 0.14848122E+03</totfact>
</mgrwt>
</event>
<event>
 4    1  0.5626910E-005  0.4485787E+03  0.7818608E-02  0.1028147E+00
          2   -1    0    0  501    0  0.00000000000E+00  0.00000000000E+00  0.13515383276E+04  0.13515383276E+04  0.25500000000E-02 0.  1.
         -2   -1    0    0    0  501 -0.00000000000E+00 -0.00000000000E+00 -0.37221072100E+02  0.37221072187E+02  0.25500000000E-02 0. -1.
    5000001    1    1    2    0    0 -0.98200781067E+02 -0.46828354370E+02  0.78120451776E+03  0.81177631571E+03  0.19200000000E+03 0.  0.
   -5000001    1    1    2    0    0  0.98200781067E+02  0.46828354370E+02  0.53311273772E+03  0.57698308407E+03  0.19200000000E+03 0.  0.
<mgrwt>
<rscale>  0 0.44857867E+03</rscale>
<asrwt>0</asrwt>
<pdfrwt beam="1">  1        2 0.19307690E+00 0.44857867E+03</pdfrwt>
<pdfrwt beam="2">  1       -2 0.53172962E-02 0.44857867E+03</pdfrwt>
<totfact> 0.33222789E+03</totfact>
</mgrwt>
</event>
<event>
 4    1  0.5626910E-005  0.5398357E+03  0.7818608E-02  0.1003874E+00
          2   -1    0    0  501    0  0.00000000000E+00  0.00000000000E+00  0.25727931052E+03  0.25727931053E+03  0.25500000000E-02 0.  1.
         -2   -1    0    0    0  501 -0.00000000000E+00 -0.00000000000E+00 -0.28317720154E+03  0.28317720155E+03  0.25500000000E-02 0. -1.
    5000001    1    1    2    0    0  0.82880752894E+02 -0.16068925113E+03 -0.70472667397E+02  0.27298470924E+03  0.19200000000E+03 0.  0.
   -5000001    1    1    2    0    0 -0.82880752894E+02  0.16068925113E+03  0.44574776378E+02  0.26747180284E+03  0.19200000000E+03 0.  0.
<mgrwt>
<rscale>  0 0.53983566E+03</rscale>
<asrwt>0</asrwt>
<pdfrwt beam="1">  1        2 0.36754187E-01 0.53983566E+03</pdfrwt>
<pdfrwt beam="2">  1       -2 0.40453886E-01 0.53983566E+03</pdfrwt>
<totfact> 0.82227266E+02</totfact>
</mgrwt>
</event>
<event>
 4    1  0.5626910E-005  0.5379456E+03  0.7818608E-02  0.1004323E+00
         -2   -1    0    0    0  501 -0.00000000000E+00  0.00000000000E+00  0.20319822909E+03  0.20319822911E+03  0.25500000000E-02 0. -1.
          2   -1    0    0  501    0  0.00000000000E+00 -0.00000000000E+00 -0.35603831480E+03  0.35603831480E+03  0.25500000000E-02 0.  1.
    5000001    1    1    2    0    0  0.34987186459E+02 -0.18412496158E+03 -0.96041663709E+02  0.28498088684E+03  0.19200000000E+03 0.  0.
   -5000001    1    1    2    0    0 -0.34987186459E+02  0.18412496158E+03 -0.56798421998E+02  0.27425565707E+03  0.19200000000E+03 0.  0.
<mgrwt>
<rscale>  0 0.53794556E+03</rscale>
<asrwt>0</asrwt>
<pdfrwt beam="1">  1        2 0.50862616E-01 0.53794556E+03</pdfrwt>
<pdfrwt beam="2">  1       -2 0.29028319E-01 0.53794556E+03</pdfrwt>
<totfact> 0.10748231E+03</totfact>
</mgrwt>
</event>
<event>
 4    1  0.5626910E-005  0.7955847E+03  0.7818608E-02  0.9566430E-01
         -2   -1    0    0    0  501 -0.00000000000E+00  0.00000000000E+00  0.88621441616E+02  0.88621441653E+02  0.25500000000E-02 0.  1.
          2   -1    0    0  501    0  0.00000000000E+00 -0.00000000000E+00 -0.17855582669E+04  0.17855582669E+04  0.25500000000E-02 0. -1.
    5000001    1    1    2    0    0 -0.96379949871E+02  0.28824500284E+03 -0.44729943157E+03  0.57385978939E+03  0.19200000000E+03 0.  0.
   -5000001    1    1    2    0    0  0.96379949871E+02 -0.28824500284E+03 -0.12496373937E+04  0.13003199192E+04  0.19200000000E+03 0.  0.
<mgrwt>
<rscale>  0 0.79558468E+03</rscale>
<asrwt>0</asrwt>
<pdfrwt beam="1">  1        2 0.25507973E+00 0.79558468E+03</pdfrwt>
<pdfrwt beam="2">  1       -2 0.12660207E-01 0.79558468E+03</pdfrwt>
<totfact> 0.48817862E+02</totfact>
</mgrwt>
</event>
<event>
 4    1  0.5626910E-005  0.5549345E+03  0.7818608E-02  0.1000358E+00
          2   -1    0    0  501    0  0.00000000000E+00  0.00000000000E+00  0.64042366648E+03  0.64042366648E+03  0.25500000000E-02 0.  1.
         -2   -1    0    0    0  501 -0.00000000000E+00 -0.00000000000E+00 -0.12021430666E+03  0.12021430669E+03  0.25500000000E-02 0. -1.
    5000001    1    1    2    0    0 -0.13562518493E+03 -0.60990478309E+02  0.76157219501E+02  0.25451512983E+03  0.19200000000E+03 0.  0.
   -5000001    1    1    2    0    0  0.13562518493E+03  0.60990478309E+02  0.44405214031E+03  0.50612284334E+03  0.19200000000E+03 0.  0.
<mgrwt>
<rscale>  0 0.55493454E+03</rscale>
<asrwt>0</asrwt>
<pdfrwt beam="1">  1        2 0.91489097E-01 0.55493454E+03</pdfrwt>
<pdfrwt beam="2">  1       -2 0.17173472E-01 0.55493454E+03</pdfrwt>
<totfact> 0.13954076E+03</totfact>
</mgrwt>
</event>
<event>
 4    1  0.5626910E-005  0.4281371E+03  0.7818608E-02  0.1034450E+00
         -2   -1    0    0    0  501 -0.00000000000E+00  0.00000000000E+00  0.31934420409E+02  0.31934420511E+02  0.25500000000E-02 0. -1.
          2   -1    0    0  501    0  0.00000000000E+00 -0.00000000000E+00 -0.14349828109E+04  0.14349828109E+04  0.25500000000E-02 0.  1.
    5000001    1    1    2    0    0 -0.52837632609E+02  0.33908012794E+02 -0.94427736030E+03  0.96564242964E+03  0.19200000000E+03 0.  0.
   -5000001    1    1    2    0    0  0.52837632609E+02 -0.33908012794E+02 -0.45877103024E+03  0.50127480182E+03  0.19200000000E+03 0.  0.
<mgrwt>
<rscale>  0 0.42813710E+03</rscale>
<asrwt>0</asrwt>
<pdfrwt beam="1">  1        2 0.20499750E+00 0.42813710E+03</pdfrwt>
<pdfrwt beam="2">  1       -2 0.45620610E-02 0.42813710E+03</pdfrwt>
<totfact> 0.38013818E+03</totfact>
</mgrwt>
</event>
<event>
 4    1  0.5626910E-005  0.4409831E+03  0.7818608E-02  0.1030446E+00
          2   -1    0    0  501    0  0.00000000000E+00  0.00000000000E+00  0.20980590558E+03  0.20980590560E+03  0.25500000000E-02 0.  1.
         -2   -1    0    0    0  501 -0.00000000000E+00 -0.00000000000E+00 -0.23172146047E+03  0.23172146048E+03  0.25500000000E-02 0. -1.
    5000001    1    1    2    0    0  0.99812890814E+02 -0.41727798292E+02 -0.17945541029E+02  0.22111052613E+03  0.19200000000E+03 0.  0.
   -5000001    1    1    2    0    0 -0.99812890814E+02  0.41727798292E+02 -0.39700138519E+01  0.22041683995E+03  0.19200000000E+03 0.  0.
<mgrwt>
<rscale>  0 0.44098313E+03</rscale>
<asrwt>0</asrwt>
<pdfrwt beam="1">  1        2 0.29972272E-01 0.44098313E+03</pdfrwt>
<pdfrwt beam="2">  1       -2 0.33103066E-01 0.44098313E+03</pdfrwt>
<totfact> 0.15094382E+03</totfact>
</mgrwt>
</event>
<event>
 4    1  0.5626910E-005  0.4757160E+03  0.7818608E-02  0.1020319E+00
          2   -1    0    0  501    0  0.00000000000E+00  0.00000000000E+00  0.77295546429E+02  0.77295546471E+02  0.25500000000E-02 0. -1.
         -2   -1    0    0    0  501 -0.00000000000E+00 -0.00000000000E+00 -0.73194945884E+03  0.73194945885E+03  0.25500000000E-02 0.  1.
    5000001    1    1    2    0    0  0.12181825912E+03 -0.54027441977E+02 -0.40251869916E+03  0.46545027223E+03  0.19200000000E+03 0.  0.
   -5000001    1    1    2    0    0 -0.12181825912E+03  0.54027441977E+02 -0.25213521325E+03  0.34379473309E+03  0.19200000000E+03 0.  0.
<mgrwt>
<rscale>  0 0.47571602E+03</rscale>
<asrwt>0</asrwt>
<pdfrwt beam="1">  1        2 0.11042221E-01 0.47571602E+03</pdfrwt>
<pdfrwt beam="2">  1       -2 0.10456420E+00 0.47571602E+03</pdfrwt>
<totfact> 0.43956428E+02</totfact>
</mgrwt>
</event>
<event>
 4    1  0.5626910E-005  0.5019587E+03  0.7818608E-02  0.1013269E+00
         -2   -1    0    0    0  501 -0.00000000000E+00  0.00000000000E+00  0.27084162928E+04  0.27084162928E+04  0.25500000000E-02 0. -1.
          2   -1    0    0  501    0  0.00000000000E+00 -0.00000000000E+00 -0.23257367613E+02  0.23257367753E+02  0.25500000000E-02 0.  1.
    5000001    1    1    2    0    0  0.11311032386E+03 -0.11528755296E+03  0.13075350232E+04  0.13313891250E+04  0.19200000000E+03 0.  0.
   -5000001    1    1    2    0    0 -0.11311032386E+03  0.11528755296E+03  0.13776239020E+04  0.14002845355E+04  0.19200000000E+03 0.  0.
<mgrwt>
<rscale>  0 0.50195870E+03</rscale>
<asrwt>0</asrwt>
<pdfrwt beam="1">  1        2 0.33224822E-02 0.50195870E+03</pdfrwt>
<pdfrwt beam="2">  1       -2 0.38691648E+00 0.50195870E+03</pdfrwt>
<totfact> 0.28665116E+01</totfact>
</mgrwt>
</event>
<event>
 4    1  0.5626910E-005  0.5164910E+03  0.7818608E-02  0.1009562E+00
         -2   -1    0    0    0  501 -0.00000000000E+00  0.00000000000E+00  0.29931838958E+03  0.29931838959E+03  0.25500000000E-02 0. -1.
          2   -1    0    0  501    0  0.00000000000E+00 -0.00000000000E+00 -0.22280872960E+03  0.22280872961E+03  0.25500000000E-02 0.  1.
    5000001    1    1    2    0    0  0.37896627883E+02 -0.96120231635E+02  0.17815389607E+03  0.28156360563E+03  0.19200000000E+03 0.  0.
   -5000001    1    1    2    0    0 -0.37896627883E+02  0.96120231635E+02 -0.10164423608E+03  0.24056351357E+03  0.19200000000E+03 0.  0.
<mgrwt>
<rscale>  0 0.51649105E+03</rscale>
<asrwt>0</asrwt>
<pdfrwt beam="1">  1        2 0.31829818E-01 0.51649105E+03</pdfrwt>
<pdfrwt beam="2">  1       -2 0.42759770E-01 0.51649105E+03</pdfrwt>
<totfact> 0.86589825E+02</totfact>
</mgrwt>
</event>
<event>
 4    1  0.5626910E-005  0.4986068E+03  0.7818608E-02  0.1014143E+00
         -2   -1    0    0    0  501 -0.00000000000E+00  0.00000000000E+00  0.29989317321E+03  0.29989317322E+03  0.25500000000E-02 0. -1.
          2   -1    0    0  501    0  0.00000000000E+00 -0.00000000000E+00 -0.20724771395E+03  0.20724771396E+03  0.25500000000E-02 0.  1.
    5000001    1    1    2    0    0 -0.80068173982E+02 -0.13718147313E+03  0.54102538223E+02  0.25499167378E+03  0.19200000000E+03 0.  0.
   -5000001    1    1    2    0    0  0.80068173982E+02  0.13718147313E+03  0.38542921036E+02  0.25214921340E+03  0.19200000000E+03 0.  0.
<mgrwt>
<rscale>  0 0.49860676E+03</rscale>
<asrwt>0</asrwt>
<pdfrwt beam="1">  1        2 0.29606816E-01 0.49860676E+03</pdfrwt>
<pdfrwt beam="2">  1       -2 0.42841882E-01 0.49860676E+03</pdfrwt>
<totfact> 0.93533041E+02</totfact>
</mgrwt>
</event>
<event>
 4    1  0.5626910E-005  0.5505937E+03  0.7818608E-02  0.1001357E+00
         -2   -1    0    0    0  501 -0.00000000000E+00  0.00000000000E+00  0.81043476933E+02  0.81043476973E+02  0.25500000000E-02 0. -1.
          2   -1    0    0  501    0  0.00000000000E+00 -0.00000000000E+00 -0.93515666631E+03  0.93515666631E+03  0.25500000000E-02 0.  1.
    5000001    1    1    2    0    0  0.12292569072E+03 -0.11739149455E+03 -0.24218916732E+03  0.35271955035E+03  0.19200000000E+03 0.  0.
   -5000001    1    1    2    0    0 -0.12292569072E+03  0.11739149455E+03 -0.61192402205E+03  0.66348059293E+03  0.19200000000E+03 0.  0.
<mgrwt>
<rscale>  0 0.55059367E+03</rscale>
<asrwt>0</asrwt>
<pdfrwt beam="1">  1        2 0.13359380E+00 0.55059367E+03</pdfrwt>
<pdfrwt beam="2">  1       -2 0.11577640E-01 0.55059367E+03</pdfrwt>
<totfact> 0.16706888E+03</totfact>
</mgrwt>
</event>
<event>
 4    1  0.5626910E-005  0.5797485E+03  0.7818608E-02  0.9948336E-01
          2   -1    0    0  501    0  0.00000000000E+00  0.00000000000E+00  0.10084799331E+04  0.10084799331E+04  0.25500000000E-02 0.  1.
         -2   -1    0    0    0  501 -0.00000000000E+00 -0.00000000000E+00 -0.83320528964E+02  0.83320529003E+02  0.25500000000E-02 0. -1.
    5000001    1    1    2    0    0  0.13371759782E+03  0.44809685740E+02  0.15156261657E+03  0.28235355610E+03  0.19200000000E+03 0.  0.
   -5000001    1    1    2    0    0 -0.13371759782E+03 -0.44809685740E+02  0.77359678753E+03  0.80944690597E+03  0.19200000000E+03 0.  0.
<mgrwt>
<rscale>  0 0.57974850E+03</rscale>
<asrwt>0</asrwt>
<pdfrwt beam="1">  1        2 0.14406855E+00 0.57974850E+03</pdfrwt>
<pdfrwt beam="2">  1       -2 0.11902934E-01 0.57974850E+03</pdfrwt>
<totfact> 0.14377964E+03</totfact>
</mgrwt>
</event>
<event>
 4    1  0.5626910E-005  0.7232638E+03  0.7818608E-02  0.9678255E-01
         -2   -1    0    0    0  501 -0.00000000000E+00  0.00000000000E+00  0.97943042087E+03  0.97943042087E+03  0.25500000000E-02 0. -1.
          2   -1    0    0  501    0  0.00000000000E+00 -0.00000000000E+00 -0.13352418163E+03  0.13352418165E+03  0.25500000000E-02 0.  1.
    5000001    1    1    2    0    0 -0.15259129289E+03 -0.12105570366E+03  0.58888916560E+02  0.27976863753E+03  0.19200000000E+03 0.  0.
   -5000001    1    1    2    0    0  0.15259129289E+03  0.12105570366E+03  0.78701732268E+03  0.83318596499E+03  0.19200000000E+03 0.  0.
<mgrwt>
<rscale>  0 0.72326384E+03</rscale>
<asrwt>0</asrwt>
<pdfrwt beam="1">  1        2 0.19074883E-01 0.72326384E+03</pdfrwt>
<pdfrwt beam="2">  1       -2 0.13991863E+00 0.72326384E+03</pdfrwt>
<totfact> 0.10932500E+02</totfact>
</mgrwt>
</event>
<event>
 4    1  0.5626910E-005  0.5757099E+03  0.7818608E-02  0.9957123E-01
          2   -1    0    0  501    0  0.00000000000E+00  0.00000000000E+00  0.94126717300E+03  0.94126717300E+03  0.25500000000E-02 0.  1.
         -2   -1    0    0    0  501 -0.00000000000E+00 -0.00000000000E+00 -0.88030754858E+02  0.88030754895E+02  0.25500000000E-02 0. -1.
    5000001    1    1    2    0    0 -0.78094557729E+02 -0.14279576523E+03  0.17690963971E+03  0.30765306944E+03  0.19200000000E+03 0.  0.
   -5000001    1    1    2    0    0  0.78094557729E+02  0.14279576523E+03  0.67632677843E+03  0.72164485846E+03  0.19200000000E+03 0.  0.
<mgrwt>
<rscale>  0 0.57570986E+03</rscale>
<asrwt>0</asrwt>
<pdfrwt beam="1">  1        2 0.13446674E+00 0.57570986E+03</pdfrwt>
<pdfrwt beam="2">  1       -2 0.12575822E-01 0.57570986E+03</pdfrwt>
<totfact> 0.14448999E+03</totfact>
</mgrwt>
</event>
<event>
 4    1  0.5626910E-005  0.4341680E+03  0.7818608E-02  0.1032551E+00
         -2   -1    0    0    0  501 -0.00000000000E+00  0.00000000000E+00  0.94295436361E+03  0.94295436361E+03  0.25500000000E-02 0. -1.
          2   -1    0    0  501    0  0.00000000000E+00 -0.00000000000E+00 -0.49976398800E+02  0.49976398865E+02  0.25500000000E-02 0.  1.
    5000001    1    1    2    0    0  0.81403872611E+02  0.47549425896E+02  0.53125907619E+03  0.57270214284E+03  0.19200000000E+03 0.  0.
   -5000001    1    1    2    0    0 -0.81403872611E+02 -0.47549425896E+02  0.36171888862E+03  0.42022861964E+03  0.19200000000E+03 0.  0.
<mgrwt>
<rscale>  0 0.43416800E+03</rscale>
<asrwt>0</asrwt>
<pdfrwt beam="1">  1        2 0.71394863E-02 0.43416800E+03</pdfrwt>
<pdfrwt beam="2">  1       -2 0.13470775E+00 0.43416800E+03</pdfrwt>
<totfact> 0.41284482E+02</totfact>
</mgrwt>
</event>
<event>
 4    1  0.5626910E-005  0.6716886E+03  0.7818608E-02  0.9766912E-01
          2   -1    0    0  501    0  0.00000000000E+00  0.00000000000E+00  0.57879290128E+03  0.57879290128E+03  0.25500000000E-02 0.  1.
         -2   -1    0    0    0  501 -0.00000000000E+00 -0.00000000000E+00 -0.19487348176E+03  0.19487348178E+03  0.25500000000E-02 0. -1.
    5000001    1    1    2    0    0  0.20756412899E+03 -0.17604288950E+03  0.24154728092E+03  0.41144022106E+03  0.19200000000E+03 0.  0.
   -5000001    1    1    2    0    0 -0.20756412899E+03  0.17604288950E+03  0.14237213860E+03  0.36222616200E+03  0.19200000000E+03 0.  0.
<mgrwt>
<rscale>  0 0.67168858E+03</rscale>
<asrwt>0</asrwt>
<pdfrwt beam="1">  1        2 0.82684700E-01 0.67168858E+03</pdfrwt>
<pdfrwt beam="2">  1       -2 0.27839069E-01 0.67168858E+03</pdfrwt>
<totfact> 0.66945689E+02</totfact>
</mgrwt>
</event>
<event>
 4    1  0.5626910E-005  0.1691030E+04  0.7818608E-02  0.8766497E-01
          2   -1    0    0  501    0  0.00000000000E+00  0.00000000000E+00  0.88216387516E+03  0.88216387516E+03  0.25500000000E-02 0.  1.
         -2   -1    0    0    0  501 -0.00000000000E+00 -0.00000000000E+00 -0.81038873750E+03  0.81038873750E+03  0.25500000000E-02 0. -1.
    5000001    1    1    2    0    0 -0.66965164491E+03 -0.45355204840E+03  0.19058701888E+03  0.85283655990E+03  0.19200000000E+03 0.  0.
   -5000001    1    1    2    0    0  0.66965164491E+03  0.45355204840E+03 -0.11881188122E+03  0.83971605276E+03  0.19200000000E+03 0.  0.
<mgrwt>
<rscale>  0 0.16910301E+04</rscale>
<asrwt>0</asrwt>
<pdfrwt beam="1">  1        2 0.12602341E+00 0.16910301E+04</pdfrwt>
<pdfrwt beam="2">  1       -2 0.11576982E+00 0.16910301E+04</pdfrwt>
<totfact> 0.18506021E+01</totfact>
</mgrwt>
</event>
<event>
 4    1  0.5626910E-005  0.5986258E+03  0.7818608E-02  0.9908261E-01
         -2   -1    0    0    0  501 -0.00000000000E+00  0.00000000000E+00  0.80347819973E+02  0.80347820014E+02  0.25500000000E-02 0. -1.
          2   -1    0    0  501    0  0.00000000000E+00 -0.00000000000E+00 -0.11150047331E+04  0.11150047331E+04  0.25500000000E-02 0.  1.
    5000001    1    1    2    0    0 -0.17605648718E+03  0.10819761505E+03 -0.31743024554E+03  0.42465111723E+03  0.19200000000E+03 0.  0.
   -5000001    1    1    2    0    0  0.17605648718E+03 -0.10819761505E+03 -0.71722666764E+03  0.77070143593E+03  0.19200000000E+03 0.  0.
<mgrwt>
<rscale>  0 0.59862576E+03</rscale>
<asrwt>0</asrwt>
<pdfrwt beam="1">  1        2 0.15928638E+00 0.59862576E+03</pdfrwt>
<pdfrwt beam="2">  1       -2 0.11478261E-01 0.59862576E+03</pdfrwt>
<totfact> 0.13195572E+03</totfact>
</mgrwt>
</event>
<event>
 4    1  0.5626910E-005  0.5897633E+03  0.7818608E-02  0.9926874E-01
         -2   -1    0    0    0  501 -0.00000000000E+00  0.00000000000E+00  0.49200884435E+02  0.49200884501E+02  0.25500000000E-02 0. -1.
          2   -1    0    0  501    0  0.00000000000E+00 -0.00000000000E+00 -0.17673502268E+04  0.17673502268E+04  0.25500000000E-02 0.  1.
    5000001    1    1    2    0    0 -0.13110090862E+03 -0.16536316763E+03 -0.62942852069E+03  0.69106923539E+03  0.19200000000E+03 0.  0.
   -5000001    1    1    2    0    0  0.13110090862E+03  0.16536316763E+03 -0.10887208217E+04  0.11254818759E+04  0.19200000000E+03 0.  0.
<mgrwt>
<rscale>  0 0.58976332E+03</rscale>
<asrwt>0</asrwt>
<pdfrwt beam="1">  1        2 0.25247856E+00 0.58976332E+03</pdfrwt>
<pdfrwt beam="2">  1       -2 0.70286989E-02 0.58976332E+03</pdfrwt>
<totfact> 0.13070427E+03</totfact>
</mgrwt>
</event>
<event>
 4    1  0.5626910E-005  0.5469948E+03  0.7818608E-02  0.1002192E+00
          2   -1    0    0  501    0  0.00000000000E+00  0.00000000000E+00  0.45515319415E+03  0.45515319416E+03  0.25500000000E-02 0.  1.
         -2   -1    0    0    0  501 -0.00000000000E+00 -0.00000000000E+00 -0.16434208136E+03  0.16434208138E+03  0.25500000000E-02 0. -1.
    5000001    1    1    2    0    0 -0.86106366750E+02 -0.33859379123E+02  0.33951719796E+03  0.40086991863E+03  0.19200000000E+03 0.  0.
   -5000001    1    1    2    0    0  0.86106366750E+02  0.33859379123E+02 -0.48706085170E+02  0.21862535691E+03  0.19200000000E+03 0.  0.
<mgrwt>
<rscale>  0 0.54699478E+03</rscale>
<asrwt>0</asrwt>
<pdfrwt beam="1">  1        2 0.65021886E-01 0.54699478E+03</pdfrwt>
<pdfrwt beam="2">  1       -2 0.23477440E-01 0.54699478E+03</pdfrwt>
<totfact> 0.12001214E+03</totfact>
</mgrwt>
</event>
<event>
 4    1  0.5626910E-005  0.1166973E+04  0.7818608E-02  0.9142267E-01
         -2   -1    0    0    0  501 -0.00000000000E+00  0.00000000000E+00  0.19739526820E+03  0.19739526821E+03  0.25500000000E-02 0. -1.
          2   -1    0    0  501    0  0.00000000000E+00 -0.00000000000E+00 -0.17247447638E+04  0.17247447638E+04  0.25500000000E-02 0.  1.
    5000001    1    1    2    0    0 -0.19530093510E+03  0.50560064911E+03 -0.60046902137E+03  0.83138530012E+03  0.19200000000E+03 0.  0.
   -5000001    1    1    2    0    0  0.19530093510E+03 -0.50560064911E+03 -0.92688047423E+03  0.10907547319E+04  0.19200000000E+03 0.  0.
<mgrwt>
<rscale>  0 0.11669729E+04</rscale>
<asrwt>0</asrwt>
<pdfrwt beam="1">  1        2 0.24639210E+00 0.11669729E+04</pdfrwt>
<pdfrwt beam="2">  1       -2 0.28199325E-01 0.11669729E+04</pdfrwt>
<totfact> 0.12658013E+02</totfact>
</mgrwt>
</event>
<event>
 4    1  0.5626910E-005  0.6016701E+03  0.7818608E-02  0.9901947E-01
         -2   -1    0    0    0  501 -0.00000000000E+00  0.00000000000E+00  0.56458606121E+02  0.56458606179E+02  0.25500000000E-02 0. -1.
          2   -1    0    0  501    0  0.00000000000E+00 -0.00000000000E+00 -0.16029748120E+04  0.16029748120E+04  0.25500000000E-02 0.  1.
    5000001    1    1    2    0    0  0.18401541269E+03 -0.96736514552E+02 -0.49174693092E+03  0.56736114550E+03  0.19200000000E+03 0.  0.
   -5000001    1    1    2    0    0 -0.18401541269E+03  0.96736514552E+02 -0.10547692749E+04  0.10920722727E+04  0.19200000000E+03 0.  0.
<mgrwt>
<rscale>  0 0.60167009E+03</rscale>
<asrwt>0</asrwt>
<pdfrwt beam="1">  1        2 0.22899637E+00 0.60167009E+03</pdfrwt>
<pdfrwt beam="2">  1       -2 0.80655162E-02 0.60167009E+03</pdfrwt>
<totfact> 0.12733411E+03</totfact>
</mgrwt>
</event>
<event>
 4    1  0.5626910E-005  0.1014954E+04  0.7818608E-02  0.9292294E-01
         -2   -1    0    0    0  501 -0.00000000000E+00  0.00000000000E+00  0.50454859610E+03  0.50454859611E+03  0.25500000000E-02 0. -1.
          2   -1    0    0  501    0  0.00000000000E+00 -0.00000000000E+00 -0.51042225724E+03  0.51042225725E+03  0.25500000000E-02 0.  1.
    5000001    1    1    2    0    0 -0.27179569641E+03  0.37378450557E+03 -0.87087369936E+02  0.50797240790E+03  0.19200000000E+03 0.  0.
   -5000001    1    1    2    0    0  0.27179569641E+03 -0.37378450557E+03  0.81213708799E+02  0.50699844545E+03  0.19200000000E+03 0.  0.
<mgrwt>
<rscale>  0 0.10149539E+04</rscale>
<asrwt>0</asrwt>
<pdfrwt beam="1">  1        2 0.72917465E-01 0.10149539E+04</pdfrwt>
<pdfrwt beam="2">  1       -2 0.72078371E-01 0.10149539E+04</pdfrwt>
<totfact> 0.11414347E+02</totfact>
</mgrwt>
</event>
<event>
 4    1  0.5626910E-005  0.7800456E+03  0.7818608E-02  0.9589358E-01
         -2   -1    0    0    0  501 -0.00000000000E+00  0.00000000000E+00  0.38949529789E+03  0.38949529790E+03  0.25500000000E-02 0. -1.
          2   -1    0    0  501    0  0.00000000000E+00 -0.00000000000E+00 -0.39055101224E+03  0.39055101225E+03  0.25500000000E-02 0.  1.
    5000001    1    1    2    0    0 -0.27582107055E+01 -0.25829939701E+03  0.21976214606E+03  0.38972501468E+03  0.19200000000E+03 0.  0.
   -5000001    1    1    2    0    0  0.27582107055E+01  0.25829939701E+03 -0.22081786041E+03  0.39032129547E+03  0.19200000000E+03 0.  0.
<mgrwt>
<rscale>  0 0.78004560E+03</rscale>
<asrwt>0</asrwt>
<pdfrwt beam="1">  1        2 0.55793001E-01 0.78004560E+03</pdfrwt>
<pdfrwt beam="2">  1       -2 0.55642186E-01 0.78004560E+03</pdfrwt>
<totfact> 0.27154019E+02</totfact>
</mgrwt>
</event>
<event>
 4    1  0.5626910E-005  0.5751617E+03  0.7818608E-02  0.9958321E-01
          2   -1    0    0  501    0  0.00000000000E+00  0.00000000000E+00  0.13486062836E+04  0.13486062836E+04  0.25500000000E-02 0.  1.
         -2   -1    0    0    0  501 -0.00000000000E+00 -0.00000000000E+00 -0.61324609806E+02  0.61324609859E+02  0.25500000000E-02 0. -1.
    5000001    1    1    2    0    0  0.15687569793E+03  0.13682952017E+03  0.52091456596E+03  0.59291507589E+03  0.19200000000E+03 0.  0.
   -5000001    1    1    2    0    0 -0.15687569793E+03 -0.13682952017E+03  0.76636710788E+03  0.81701581761E+03  0.19200000000E+03 0.  0.
<mgrwt>
<rscale>  0 0.57516173E+03</rscale>
<asrwt>0</asrwt>
<pdfrwt beam="1">  1        2 0.19265803E+00 0.57516173E+03</pdfrwt>
<pdfrwt beam="2">  1       -2 0.87606588E-02 0.57516173E+03</pdfrwt>
<totfact> 0.15175800E+03</totfact>
</mgrwt>
</event>
<event>
 4    1  0.5626910E-005  0.7082781E+03  0.7818608E-02  0.9703179E-01
          2   -1    0    0  501    0  0.00000000000E+00  0.00000000000E+00  0.25270036241E+04  0.25270036241E+04  0.25500000000E-02 0.  1.
         -2   -1    0    0    0  501 -0.00000000000E+00 -0.00000000000E+00 -0.49629711623E+02  0.49629711689E+02  0.25500000000E-02 0. -1.
    5000001    1    1    2    0    0  0.49064698943E+02 -0.29295552069E+03  0.13037816417E+04  0.13509037165E+04  0.19200000000E+03 0.  0.
   -5000001    1    1    2    0    0 -0.49064698943E+02  0.29295552069E+03  0.11735922707E+04  0.12257296193E+04  0.19200000000E+03 0.  0.
<mgrwt>
<rscale>  0 0.70827808E+03</rscale>
<asrwt>0</asrwt>
<pdfrwt beam="1">  1        2 0.36100070E+00 0.70827808E+03</pdfrwt>
<pdfrwt beam="2">  1       -2 0.70899553E-02 0.70827808E+03</pdfrwt>
<totfact> 0.52748381E+02</totfact>
</mgrwt>
</event>
<event>
 4    1  0.5626910E-005  0.5344884E+03  0.7818608E-02  0.1005149E+00
          2   -1    0    0  501    0  0.00000000000E+00  0.00000000000E+00  0.14093916451E+04  0.14093916451E+04  0.25500000000E-02 0.  1.
         -2   -1    0    0    0  501 -0.00000000000E+00 -0.00000000000E+00 -0.50673960195E+02  0.50673960259E+02  0.25500000000E-02 0. -1.
    5000001    1    1    2    0    0 -0.67508851767E+02 -0.17301048369E+03  0.70144746583E+03  0.75058818259E+03  0.19200000000E+03 0.  0.
   -5000001    1    1    2    0    0  0.67508851767E+02  0.17301048369E+03  0.65727021912E+03  0.70947742281E+03  0.19200000000E+03 0.  0.
<mgrwt>
<rscale>  0 0.53448838E+03</rscale>
<asrwt>0</asrwt>
<pdfrwt beam="1">  1        2 0.20134169E+00 0.53448838E+03</pdfrwt>
<pdfrwt beam="2">  1       -2 0.72391364E-02 0.53448838E+03</pdfrwt>
<totfact> 0.19101120E+03</totfact>
</mgrwt>
</event>
<event>
 4    1  0.5626910E-005  0.4494667E+03  0.7818608E-02  0.1027881E+00
          2   -1    0    0  501    0  0.00000000000E+00  0.00000000000E+00  0.10261153778E+04  0.10261153778E+04  0.25500000000E-02 0.  1.
         -2   -1    0    0    0  501 -0.00000000000E+00 -0.00000000000E+00 -0.49219688336E+02  0.49219688402E+02  0.25500000000E-02 0. -1.
    5000001    1    1    2    0    0 -0.11028663514E+03  0.12156729656E+02  0.57570414278E+03  0.61693612958E+03  0.19200000000E+03 0.  0.
   -5000001    1    1    2    0    0  0.11028663514E+03 -0.12156729656E+02  0.40119154666E+03  0.45839893660E+03  0.19200000000E+03 0.  0.
<mgrwt>
<rscale>  0 0.44946670E+03</rscale>
<asrwt>0</asrwt>
<pdfrwt beam="1">  1        2 0.14658791E+00 0.44946670E+03</pdfrwt>
<pdfrwt beam="2">  1       -2 0.70313841E-02 0.44946670E+03</pdfrwt>
<totfact> 0.32676221E+03</totfact>
</mgrwt>
</event>
<event>
 4    1  0.5626910E-005  0.5253318E+03  0.7818608E-02  0.1007371E+00
          2   -1    0    0  501    0  0.00000000000E+00  0.00000000000E+00  0.51740902500E+03  0.51740902501E+03  0.25500000000E-02 0.  1.
         -2   -1    0    0    0  501 -0.00000000000E+00 -0.00000000000E+00 -0.13334399732E+03  0.13334399734E+03  0.25500000000E-02 0. -1.
    5000001    1    1    2    0    0  0.71564361197E+02  0.16324257530E+03  0.16853575858E+03  0.31150906584E+03  0.19200000000E+03 0.  0.
   -5000001    1    1    2    0    0 -0.71564361197E+02 -0.16324257530E+03  0.21552926911E+03  0.33924395651E+03  0.19200000000E+03 0.  0.
<mgrwt>
<rscale>  0 0.52533185E+03</rscale>
<asrwt>0</asrwt>
<pdfrwt beam="1">  1        2 0.73915577E-01 0.52533185E+03</pdfrwt>
<pdfrwt beam="2">  1       -2 0.19049142E-01 0.52533185E+03</pdfrwt>
<totfact> 0.14971288E+03</totfact>
</mgrwt>
</event>
<event>
 4    1  0.5626910E-005  0.4550403E+03  0.7818608E-02  0.1026230E+00
          2   -1    0    0  501    0  0.00000000000E+00  0.00000000000E+00  0.31648238330E+03  0.31648238331E+03  0.25500000000E-02 0.  1.
         -2   -1    0    0    0  501 -0.00000000000E+00 -0.00000000000E+00 -0.16356491346E+03  0.16356491348E+03  0.25500000000E-02 0. -1.
    5000001    1    1    2    0    0 -0.64520953159E+02  0.65831353116E+02  0.16088612298E+03  0.26691771207E+03  0.19200000000E+03 0.  0.
   -5000001    1    1    2    0    0  0.64520953159E+02 -0.65831353116E+02 -0.79686531372E+01  0.21312958472E+03  0.19200000000E+03 0.  0.
<mgrwt>
<rscale>  0 0.45504028E+03</rscale>
<asrwt>0</asrwt>
<pdfrwt beam="1">  1        2 0.45211768E-01 0.45504028E+03</pdfrwt>
<pdfrwt beam="2">  1       -2 0.23366417E-01 0.45504028E+03</pdfrwt>
<totfact> 0.18063882E+03</totfact>
</mgrwt>
</event>
<event>
 4    1  0.5626910E-005  0.7715974E+03  0.7818608E-02  0.9602064E-01
         -2   -1    0    0    0  501 -0.00000000000E+00  0.00000000000E+00  0.16389186758E+03  0.16389186760E+03  0.25500000000E-02 0. -1.
          2   -1    0    0  501    0  0.00000000000E+00 -0.00000000000E+00 -0.90816368539E+03  0.90816368539E+03  0.25500000000E-02 0.  1.
    5000001    1    1    2    0    0 -0.45407903965E+02  0.32472832006E+03 -0.27928211768E+03  0.47156427011E+03  0.19200000000E+03 0.  0.
   -5000001    1    1    2    0    0  0.45407903965E+02 -0.32472832006E+03 -0.46498970012E+03  0.60049128288E+03  0.19200000000E+03 0.  0.
<mgrwt>
<rscale>  0 0.77159741E+03</rscale>
<asrwt>0</asrwt>
<pdfrwt beam="1">  1        2 0.12973767E+00 0.77159741E+03</pdfrwt>
<pdfrwt beam="2">  1       -2 0.23413124E-01 0.77159741E+03</pdfrwt>
<totfact> 0.51970035E+02</totfact>
</mgrwt>
</event>
<event>
 4    1  0.5626910E-005  0.6169349E+03  0.7818608E-02  0.9870881E-01
         -2   -1    0    0    0  501 -0.00000000000E+00  0.00000000000E+00  0.23513571327E+03  0.23513571329E+03  0.25500000000E-02 0. -1.
          2   -1    0    0  501    0  0.00000000000E+00 -0.00000000000E+00 -0.40466916685E+03  0.40466916686E+03  0.25500000000E-02 0.  1.
    5000001    1    1    2    0    0 -0.15889121381E+03 -0.32325061918E+02 -0.27027435834E+03  0.36905765976E+03  0.19200000000E+03 0.  0.
   -5000001    1    1    2    0    0  0.15889121381E+03  0.32325061918E+02  0.10074090476E+03  0.27074722038E+03  0.19200000000E+03 0.  0.
<mgrwt>
<rscale>  0 0.61693492E+03</rscale>
<asrwt>0</asrwt>
<pdfrwt beam="1">  1        2 0.57809881E-01 0.61693492E+03</pdfrwt>
<pdfrwt beam="2">  1       -2 0.33590816E-01 0.61693492E+03</pdfrwt>
<totfact> 0.71060766E+02</totfact>
</mgrwt>
</event>
<event>
 4    1  0.5626910E-005  0.5319604E+03  0.7818608E-02  0.1005758E+00
          2   -1    0    0  501    0  0.00000000000E+00  0.00000000000E+00  0.30462889561E+04  0.30462889561E+04  0.25500000000E-02 0.  1.
         -2   -1    0    0    0  501 -0.00000000000E+00 -0.00000000000E+00 -0.23223488844E+02  0.23223488984E+02  0.25500000000E-02 0. -1.
    5000001    1    1    2    0    0  0.13996467856E+03 -0.61422143740E+02  0.91973885085E+03  0.95191719427E+03  0.19200000000E+03 0.  0.
   -5000001    1    1    2    0    0 -0.13996467856E+03  0.61422143740E+02  0.21033266164E+04  0.21175952509E+04  0.19200000000E+03 0.  0.
<mgrwt>
<rscale>  0 0.53196037E+03</rscale>
<asrwt>0</asrwt>
<pdfrwt beam="1">  1        2 0.43518342E+00 0.53196037E+03</pdfrwt>
<pdfrwt beam="2">  1       -2 0.33176467E-02 0.53196037E+03</pdfrwt>
<totfact> 0.92336815E+02</totfact>
</mgrwt>
</event>
<event>
 4    1  0.5626910E-005  0.4512395E+03  0.7818608E-02  0.1027353E+00
         -2   -1    0    0    0  501 -0.00000000000E+00  0.00000000000E+00  0.90081214093E+03  0.90081214093E+03  0.25500000000E-02 0. -1.
          2   -1    0    0  501    0  0.00000000000E+00 -0.00000000000E+00 -0.56509316901E+02  0.56509316958E+02  0.25500000000E-02 0.  1.
    5000001    1    1    2    0    0 -0.11110139415E+03  0.28467800526E+01  0.50933226157E+03  0.55554925670E+03  0.19200000000E+03 0.  0.
   -5000001    1    1    2    0    0  0.11110139415E+03 -0.28467800526E+01  0.33497056246E+03  0.40177220119E+03  0.19200000000E+03 0.  0.
<mgrwt>
<rscale>  0 0.45123953E+03</rscale>
<asrwt>0</asrwt>
<pdfrwt beam="1">  1        2 0.80727597E-02 0.45123953E+03</pdfrwt>
<pdfrwt beam="2">  1       -2 0.12868745E+00 0.45123953E+03</pdfrwt>
<totfact> 0.39484857E+02</totfact>
</mgrwt>
</event>
<event>
 4    1  0.5626910E-005  0.5965867E+03  0.7818608E-02  0.9912513E-01
          2   -1    0    0  501    0  0.00000000000E+00  0.00000000000E+00  0.42242368095E+03  0.42242368096E+03  0.25500000000E-02 0.  1.
         -2   -1    0    0    0  501 -0.00000000000E+00 -0.00000000000E+00 -0.21063904166E+03  0.21063904167E+03  0.25500000000E-02 0. -1.
    5000001    1    1    2    0    0 -0.22810348260E+03  0.67067822424E+01  0.11249698674E+03  0.31874088493E+03  0.19200000000E+03 0.  0.
   -5000001    1    1    2    0    0  0.22810348260E+03 -0.67067822424E+01  0.99287652549E+02  0.31432183769E+03  0.19200000000E+03 0.  0.
<mgrwt>
<rscale>  0 0.59658669E+03</rscale>
<asrwt>0</asrwt>
<pdfrwt beam="1">  1        2 0.60346240E-01 0.59658669E+03</pdfrwt>
<pdfrwt beam="2">  1       -2 0.30091292E-01 0.59658669E+03</pdfrwt>
<totfact> 0.83196848E+02</totfact>
</mgrwt>
</event>
<event>
 4    1  0.5626910E-005  0.4484300E+03  0.7818608E-02  0.1028191E+00
          2   -1    0    0  501    0  0.00000000000E+00  0.00000000000E+00  0.14561633290E+04  0.14561633290E+04  0.25500000000E-02 0.  1.
         -2   -1    0    0    0  501 -0.00000000000E+00 -0.00000000000E+00 -0.34523854150E+02  0.34523854244E+02  0.25500000000E-02 0. -1.
    5000001    1    1    2    0    0 -0.41042644626E+02 -0.10615667189E+03  0.63993998025E+03  0.67774694097E+03  0.19200000000E+03 0.  0.
   -5000001    1    1    2    0    0  0.41042644626E+02  0.10615667189E+03  0.78169949462E+03  0.81294024231E+03  0.19200000000E+03 0.  0.
<mgrwt>
<rscale>  0 0.44843002E+03</rscale>
<asrwt>0</asrwt>
<pdfrwt beam="1">  1        2 0.20802332E+00 0.44843002E+03</pdfrwt>
<pdfrwt beam="2">  1       -2 0.49319795E-02 0.44843002E+03</pdfrwt>
<totfact> 0.32878245E+03</totfact>
</mgrwt>
</event>
<event>
 4    1  0.5626910E-005  0.6923286E+03  0.7818608E-02  0.9730442E-01
          2   -1    0    0  501    0  0.00000000000E+00  0.00000000000E+00  0.13007411726E+04  0.13007411726E+04  0.25500000000E-02 0.  1.
         -2   -1    0    0    0  501 -0.00000000000E+00 -0.00000000000E+00 -0.92124196338E+02  0.92124196373E+02  0.25500000000E-02 0. -1.
    5000001    1    1    2    0    0 -0.13393038984E+03  0.24748602989E+03  0.48063169529E+03  0.58911587216E+03  0.19200000000E+03 0.  0.
   -5000001    1    1    2    0    0  0.13393038984E+03 -0.24748602989E+03  0.72798528095E+03  0.80374949680E+03  0.19200000000E+03 0.  0.
<mgrwt>
<rscale>  0 0.69232864E+03</rscale>
<asrwt>0</asrwt>
<pdfrwt beam="1">  1        2 0.18582016E+00 0.69232864E+03</pdfrwt>
<pdfrwt beam="2">  1       -2 0.13160600E-01 0.69232864E+03</pdfrwt>
<totfact> 0.82559565E+02</totfact>
</mgrwt>
</event>
<event>
 4    1  0.5626910E-005  0.6641639E+03  0.7818608E-02  0.9780559E-01
          2   -1    0    0  501    0  0.00000000000E+00  0.00000000000E+00  0.20066490455E+04  0.20066490455E+04  0.25500000000E-02 0.  1.
         -2   -1    0    0    0  501 -0.00000000000E+00 -0.00000000000E+00 -0.54956510266E+02  0.54956510325E+02  0.25500000000E-02 0. -1.
    5000001    1    1    2    0    0 -0.24663483344E+03  0.67705121358E+01  0.62824893768E+03  0.70173735015E+03  0.19200000000E+03 0.  0.
   -5000001    1    1    2    0    0  0.24663483344E+03 -0.67705121358E+01  0.13234435975E+04  0.13598682057E+04  0.19200000000E+03 0.  0.
<mgrwt>
<rscale>  0 0.66416392E+03</rscale>
<asrwt>0</asrwt>
<pdfrwt beam="1">  1        2 0.28666417E+00 0.66416392E+03</pdfrwt>
<pdfrwt beam="2">  1       -2 0.78509295E-02 0.66416392E+03</pdfrwt>
<totfact> 0.82731524E+02</totfact>
</mgrwt>
</event>
<event>
 4    1  0.5626910E-005  0.4155908E+03  0.7818608E-02  0.1038511E+00
          2   -1    0    0  501    0  0.00000000000E+00  0.00000000000E+00  0.14485131011E+04  0.14485131011E+04  0.25500000000E-02 0.  1.
         -2   -1    0    0    0  501 -0.00000000000E+00 -0.00000000000E+00 -0.29809133255E+02  0.29809133364E+02  0.25500000000E-02 0. -1.
    5000001    1    1    2    0    0  0.43560913449E+02 -0.66223016059E+02  0.72943626216E+03  0.75843543007E+03  0.19200000000E+03 0.  0.
   -5000001    1    1    2    0    0 -0.43560913449E+02  0.66223016059E+02  0.68926770566E+03  0.71988680437E+03  0.19200000000E+03 0.  0.
<mgrwt>
<rscale>  0 0.41559076E+03</rscale>
<asrwt>0</asrwt>
<pdfrwt beam="1">  1        2 0.20693053E+00 0.41559076E+03</pdfrwt>
<pdfrwt beam="2">  1       -2 0.42584459E-02 0.41559076E+03</pdfrwt>
<totfact> 0.41555802E+03</totfact>
</mgrwt>
</event>
<event>
 4    1  0.5626910E-005  0.4836802E+03  0.7818608E-02  0.1018129E+00
          2   -1    0    0  501    0  0.00000000000E+00  0.00000000000E+00  0.71806130888E+03  0.71806130889E+03  0.25500000000E-02 0.  1.
         -2   -1    0    0    0  501 -0.00000000000E+00 -0.00000000000E+00 -0.81450736389E+02  0.81450736428E+02  0.25500000000E-02 0. -1.
    5000001    1    1    2    0    0 -0.52753620675E+02 -0.13607584746E+03  0.28859574133E+03  0.37609983073E+03  0.19200000000E+03 0.  0.
   -5000001    1    1    2    0    0  0.52753620675E+02  0.13607584746E+03  0.34801483116E+03  0.42341221459E+03  0.19200000000E+03 0.  0.
<mgrwt>
<rscale>  0 0.48368015E+03</rscale>
<asrwt>0</asrwt>
<pdfrwt beam="1">  1        2 0.10258019E+00 0.48368015E+03</pdfrwt>
<pdfrwt beam="2">  1       -2 0.11635819E-01 0.48368015E+03</pdfrwt>
<totfact> 0.23266411E+03</totfact>
</mgrwt>
</event>
<event>
 4    1  0.5626910E-005  0.5846984E+03  0.7818608E-02  0.9937671E-01
          2   -1    0    0  501    0  0.00000000000E+00  0.00000000000E+00  0.29414615550E+03  0.29414615551E+03  0.25500000000E-02 0.  1.
         -2   -1    0    0    0  501 -0.00000000000E+00 -0.00000000000E+00 -0.29056322559E+03  0.29056322560E+03  0.25500000000E-02 0. -1.
    5000001    1    1    2    0    0  0.16171400626E+03  0.82113252685E+02 -0.12355062523E+03  0.29158663049E+03  0.19200000000E+03 0.  0.
   -5000001    1    1    2    0    0 -0.16171400626E+03 -0.82113252685E+02  0.12713355514E+03  0.29312275062E+03  0.19200000000E+03 0.  0.
<mgrwt>
<rscale>  0 0.58469840E+03</rscale>
<asrwt>0</asrwt>
<pdfrwt beam="1">  1        2 0.42020880E-01 0.58469840E+03</pdfrwt>
<pdfrwt beam="2">  1       -2 0.41509032E-01 0.58469840E+03</pdfrwt>
<totfact> 0.67425368E+02</totfact>
</mgrwt>
</event>
<event>
 4    1  0.5626910E-005  0.8503194E+03  0.7818608E-02  0.9489908E-01
          2   -1    0    0  501    0  0.00000000000E+00  0.00000000000E+00  0.83665636230E+03  0.83665636231E+03  0.25500000000E-02 0.  1.
         -2   -1    0    0    0  501 -0.00000000000E+00 -0.00000000000E+00 -0.21605137422E+03  0.21605137423E+03  0.25500000000E-02 0. -1.
    5000001    1    1    2    0    0  0.35661012576E+03 -0.57525058737E+02  0.45370307368E+03  0.61089311115E+03  0.19200000000E+03 0.  0.
   -5000001    1    1    2    0    0 -0.35661012576E+03  0.57525058737E+02  0.16690191440E+03  0.44181462539E+03  0.19200000000E+03 0.  0.
<mgrwt>
<rscale>  0 0.85031937E+03</rscale>
<asrwt>0</asrwt>
<pdfrwt beam="1">  1        2 0.11952234E+00 0.85031937E+03</pdfrwt>
<pdfrwt beam="2">  1       -2 0.30864482E-01 0.85031937E+03</pdfrwt>
<totfact> 0.34905842E+02</totfact>
</mgrwt>
</event>
<event>
 4    1  0.5626910E-005  0.5041049E+03  0.7818608E-02  0.1012713E+00
         -2   -1    0    0    0  501 -0.00000000000E+00  0.00000000000E+00  0.81637506421E+02  0.81637506460E+02  0.25500000000E-02 0. -1.
          2   -1    0    0  501    0  0.00000000000E+00 -0.00000000000E+00 -0.77820148058E+03  0.77820148058E+03  0.25500000000E-02 0.  1.
    5000001    1    1    2    0    0 -0.15319889495E+03  0.51156946203E+02 -0.30722182565E+03  0.39665625511E+03  0.19200000000E+03 0.  0.
   -5000001    1    1    2    0    0  0.15319889495E+03 -0.51156946203E+02 -0.38934214850E+03  0.46318273193E+03  0.19200000000E+03 0.  0.
<mgrwt>
<rscale>  0 0.50410486E+03</rscale>
<asrwt>0</asrwt>
<pdfrwt beam="1">  1        2 0.11117164E+00 0.50410486E+03</pdfrwt>
<pdfrwt beam="2">  1       -2 0.11662501E-01 0.50410486E+03</pdfrwt>
<totfact> 0.20981916E+03</totfact>
</mgrwt>
</event>
<event>
 4    1  0.5626910E-005  0.5662345E+03  0.7818608E-02  0.9978046E-01
          2   -1    0    0  501    0  0.00000000000E+00  0.00000000000E+00  0.25539466294E+04  0.25539466294E+04  0.25500000000E-02 0.  1.
         -2   -1    0    0    0  501 -0.00000000000E+00 -0.00000000000E+00 -0.31384907327E+02  0.31384907431E+02  0.25500000000E-02 0. -1.
    5000001    1    1    2    0    0 -0.10967826693E+03 -0.14997426968E+03  0.83370406379E+03  0.87547019926E+03  0.19200000000E+03 0.  0.
   -5000001    1    1    2    0    0  0.10967826693E+03  0.14997426968E+03  0.16888576583E+04  0.17098613376E+04  0.19200000000E+03 0.  0.
<mgrwt>
<rscale>  0 0.56623450E+03</rscale>
<asrwt>0</asrwt>
<pdfrwt beam="1">  1        2 0.36484959E+00 0.56623450E+03</pdfrwt>
<pdfrwt beam="2">  1       -2 0.44835573E-02 0.56623450E+03</pdfrwt>
<totfact> 0.10572571E+03</totfact>
</mgrwt>
</event>
<event>
 4    1  0.5626910E-005  0.4305928E+03  0.7818608E-02  0.1033673E+00
          2   -1    0    0  501    0  0.00000000000E+00  0.00000000000E+00  0.16312887925E+04  0.16312887925E+04  0.25500000000E-02 0.  1.
         -2   -1    0    0    0  501 -0.00000000000E+00 -0.00000000000E+00 -0.28414667740E+02  0.28414667854E+02  0.25500000000E-02 0. -1.
    5000001    1    1    2    0    0  0.96961176460E+02  0.90501832466E+01  0.81018725741E+03  0.83830231279E+03  0.19200000000E+03 0.  0.
   -5000001    1    1    2    0    0 -0.96961176460E+02 -0.90501832466E+01  0.79268686737E+03  0.82140114759E+03  0.19200000000E+03 0.  0.
<mgrwt>
<rscale>  0 0.43059275E+03</rscale>
<asrwt>0</asrwt>
<pdfrwt beam="1">  1        2 0.23304119E+00 0.43059275E+03</pdfrwt>
<pdfrwt beam="2">  1       -2 0.40592395E-02 0.43059275E+03</pdfrwt>
<totfact> 0.36047327E+03</totfact>
</mgrwt>
</event>
<event>
 4    1  0.5626910E-005  0.5477864E+03  0.7818608E-02  0.1002008E+00
         -2   -1    0    0    0  501 -0.00000000000E+00  0.00000000000E+00  0.37322931358E+03  0.37322931359E+03  0.25500000000E-02 0. -1.
          2   -1    0    0  501    0  0.00000000000E+00 -0.00000000000E+00 -0.20099569342E+03  0.20099569344E+03  0.25500000000E-02 0.  1.
    5000001    1    1    2    0    0 -0.11723137028E+03 -0.12128135345E+03 -0.17131245318E+02  0.25614417901E+03  0.19200000000E+03 0.  0.
   -5000001    1    1    2    0    0  0.11723137028E+03  0.12128135345E+03  0.18936486548E+03  0.31808082802E+03  0.19200000000E+03 0.  0.
<mgrwt>
<rscale>  0 0.54778640E+03</rscale>
<asrwt>0</asrwt>
<pdfrwt beam="1">  1        2 0.28713670E-01 0.54778640E+03</pdfrwt>
<pdfrwt beam="2">  1       -2 0.53318474E-01 0.54778640E+03</pdfrwt>
<totfact> 0.62436667E+02</totfact>
</mgrwt>
</event>
<event>
 4    1  0.5626910E-005  0.1146299E+04  0.7818608E-02  0.9161205E-01
          2   -1    0    0  501    0  0.00000000000E+00  0.00000000000E+00  0.34648104380E+03  0.34648104381E+03  0.25500000000E-02 0.  1.
         -2   -1    0    0    0  501 -0.00000000000E+00 -0.00000000000E+00 -0.94810413804E+03  0.94810413804E+03  0.25500000000E-02 0. -1.
    5000001    1    1    2    0    0  0.33644037592E+03 -0.38801066832E+03 -0.11219907140E+03  0.55964009587E+03  0.19200000000E+03 0.  0.
   -5000001    1    1    2    0    0 -0.33644037592E+03  0.38801066832E+03 -0.48942402284E+03  0.73494508599E+03  0.19200000000E+03 0.  0.
<mgrwt>
<rscale>  0 0.11462986E+04</rscale>
<asrwt>0</asrwt>
<pdfrwt beam="1">  1        2 0.49497292E-01 0.11462986E+04</pdfrwt>
<pdfrwt beam="2">  1       -2 0.13544345E+00 0.11462986E+04</pdfrwt>
<totfact> 0.39346356E+01</totfact>
</mgrwt>
</event>
<event>
 4    1  0.5626910E-005  0.9196048E+03  0.7818608E-02  0.9401401E-01
         -2   -1    0    0    0  501 -0.00000000000E+00  0.00000000000E+00  0.13838421798E+03  0.13838421800E+03  0.25500000000E-02 0. -1.
          2   -1    0    0  501    0  0.00000000000E+00 -0.00000000000E+00 -0.15277628138E+04  0.15277628138E+04  0.25500000000E-02 0.  1.
    5000001    1    1    2    0    0 -0.24159605635E+03 -0.30734633550E+03 -0.42764681631E+03  0.61039022264E+03  0.19200000000E+03 0.  0.
   -5000001    1    1    2    0    0  0.24159605635E+03  0.30734633550E+03 -0.96173177956E+03  0.10557568092E+04  0.19200000000E+03 0.  0.
<mgrwt>
<rscale>  0 0.91960483E+03</rscale>
<asrwt>0</asrwt>
<pdfrwt beam="1">  1        2 0.21825182E+00 0.91960483E+03</pdfrwt>
<pdfrwt beam="2">  1       -2 0.19769175E-01 0.91960483E+03</pdfrwt>
<totfact> 0.30819616E+02</totfact>
</mgrwt>
</event>
<event>
 4    1  0.5626910E-005  0.7589804E+03  0.7818608E-02  0.9621366E-01
         -2   -1    0    0    0  501 -0.00000000000E+00  0.00000000000E+00  0.49219165854E+03  0.49219165855E+03  0.25500000000E-02 0. -1.
          2   -1    0    0  501    0  0.00000000000E+00 -0.00000000000E+00 -0.29259500167E+03  0.29259500168E+03  0.25500000000E-02 0.  1.
    5000001    1    1    2    0    0  0.77173452422E+01  0.28925451832E+03  0.25804134352E+03  0.43263965231E+03  0.19200000000E+03 0.  0.
   -5000001    1    1    2    0    0 -0.77173452422E+01 -0.28925451832E+03 -0.58444686649E+02  0.35214700791E+03  0.19200000000E+03 0.  0.
<mgrwt>
<rscale>  0 0.75898042E+03</rscale>
<asrwt>0</asrwt>
<pdfrwt beam="1">  1        2 0.41799286E-01 0.75898042E+03</pdfrwt>
<pdfrwt beam="2">  1       -2 0.70313094E-01 0.75898042E+03</pdfrwt>
<totfact> 0.22761634E+02</totfact>
</mgrwt>
</event>
<event>
 4    1  0.5626910E-005  0.5820565E+03  0.7818608E-02  0.9943349E-01
          2   -1    0    0  501    0  0.00000000000E+00  0.00000000000E+00  0.19160029315E+03  0.19160029317E+03  0.25500000000E-02 0. -1.
         -2   -1    0    0    0  501 -0.00000000000E+00 -0.00000000000E+00 -0.44205283046E+03  0.44205283046E+03  0.25500000000E-02 0.  1.
    5000001    1    1    2    0    0  0.21359716071E+03  0.43428197166E+02 -0.10563983162E+03  0.30908498733E+03  0.19200000000E+03 0.  0.
   -5000001    1    1    2    0    0 -0.21359716071E+03 -0.43428197166E+02 -0.14481270569E+03  0.32456813630E+03  0.19200000000E+03 0.  0.
<mgrwt>
<rscale>  0 0.58205653E+03</rscale>
<asrwt>0</asrwt>
<pdfrwt beam="1">  1        2 0.27371471E-01 0.58205653E+03</pdfrwt>
<pdfrwt beam="2">  1       -2 0.63150404E-01 0.58205653E+03</pdfrwt>
<totfact> 0.46278956E+02</totfact>
</mgrwt>
</event>
<event>
 4    1  0.5626910E-005  0.7111117E+03  0.7818608E-02  0.9698416E-01
          2   -1    0    0  501    0  0.00000000000E+00  0.00000000000E+00  0.21713454124E+04  0.21713454124E+04  0.25500000000E-02 0.  1.
         -2   -1    0    0    0  501 -0.00000000000E+00 -0.00000000000E+00 -0.58221951397E+02  0.58221951453E+02  0.25500000000E-02 0. -1.
    5000001    1    1    2    0    0 -0.10976177742E+02 -0.28660337082E+03  0.13243340008E+04  0.13685709753E+04  0.19200000000E+03 0.  0.
   -5000001    1    1    2    0    0  0.10976177742E+02  0.28660337082E+03  0.78878946016E+03  0.86099638856E+03  0.19200000000E+03 0.  0.
<mgrwt>
<rscale>  0 0.71111171E+03</rscale>
<asrwt>0</asrwt>
<pdfrwt beam="1">  1        2 0.31019220E+00 0.71111171E+03</pdfrwt>
<pdfrwt beam="2">  1       -2 0.83174216E-02 0.71111171E+03</pdfrwt>
<totfact> 0.62107885E+02</totfact>
</mgrwt>
</event>
<event>
 4    1  0.5626910E-005  0.5029029E+03  0.7818608E-02  0.1013024E+00
          2   -1    0    0  501    0  0.00000000000E+00  0.00000000000E+00  0.47337572952E+03  0.47337572953E+03  0.25500000000E-02 0.  1.
         -2   -1    0    0    0  501 -0.00000000000E+00 -0.00000000000E+00 -0.13356798342E+03  0.13356798344E+03  0.25500000000E-02 0. -1.
    5000001    1    1    2    0    0  0.12372586384E+02 -0.22459575249E+02  0.36340534235E+03  0.41180694052E+03  0.19200000000E+03 0.  0.
   -5000001    1    1    2    0    0 -0.12372586384E+02  0.22459575249E+02 -0.23597596246E+02  0.19513677245E+03  0.19200000000E+03 0.  0.
<mgrwt>
<rscale>  0 0.50290294E+03</rscale>
<asrwt>0</asrwt>
<pdfrwt beam="1">  1        2 0.67625104E-01 0.50290294E+03</pdfrwt>
<pdfrwt beam="2">  1       -2 0.19081141E-01 0.50290294E+03</pdfrwt>
<totfact> 0.16506261E+03</totfact>
</mgrwt>
</event>
<event>
 4    1  0.5626910E-005  0.8393233E+03  0.7818608E-02  0.9504780E-01
          2   -1    0    0  501    0  0.00000000000E+00  0.00000000000E+00  0.68974025734E+03  0.68974025735E+03  0.25500000000E-02 0.  1.
         -2   -1    0    0    0  501 -0.00000000000E+00 -0.00000000000E+00 -0.25533657365E+03  0.25533657367E+03  0.25500000000E-02 0. -1.
    5000001    1    1    2    0    0 -0.30576959079E+03 -0.16166270399E+03  0.59473435516E+02  0.40003870069E+03  0.19200000000E+03 0.  0.
   -5000001    1    1    2    0    0  0.30576959079E+03  0.16166270399E+03  0.37493024818E+03  0.54503813033E+03  0.19200000000E+03 0.  0.
<mgrwt>
<rscale>  0 0.83932333E+03</rscale>
<asrwt>0</asrwt>
<pdfrwt beam="1">  1        2 0.98534323E-01 0.83932333E+03</pdfrwt>
<pdfrwt beam="2">  1       -2 0.36476653E-01 0.83932333E+03</pdfrwt>
<totfact> 0.32527650E+02</totfact>
</mgrwt>
</event>
<event>
 4    1  0.5626910E-005  0.4586394E+03  0.7818608E-02  0.1025177E+00
          2   -1    0    0  501    0  0.00000000000E+00  0.00000000000E+00  0.25683534480E+04  0.25683534480E+04  0.25500000000E-02 0.  1.
         -2   -1    0    0    0  501 -0.00000000000E+00 -0.00000000000E+00 -0.20475191257E+02  0.20475191416E+02  0.25500000000E-02 0. -1.
    5000001    1    1    2    0    0 -0.67959658500E+02 -0.10531404717E+03  0.12528457802E+04  0.12736546285E+04  0.19200000000E+03 0.  0.
   -5000001    1    1    2    0    0  0.67959658500E+02  0.10531404717E+03  0.12950324766E+04  0.13151740109E+04  0.19200000000E+03 0.  0.
<mgrwt>
<rscale>  0 0.45863942E+03</rscale>
<asrwt>0</asrwt>
<pdfrwt beam="1">  1        2 0.36690759E+00 0.45863942E+03</pdfrwt>
<pdfrwt beam="2">  1       -2 0.29250277E-02 0.45863942E+03</pdfrwt>
<totfact> 0.20085901E+03</totfact>
</mgrwt>
</event>
<event>
 4    1  0.5626910E-005  0.4390826E+03  0.7818608E-02  0.1031029E+00
          2   -1    0    0  501    0  0.00000000000E+00  0.00000000000E+00  0.55304958414E+03  0.55304958414E+03  0.25500000000E-02 0.  1.
         -2   -1    0    0    0  501 -0.00000000000E+00 -0.00000000000E+00 -0.87150189995E+02  0.87150190033E+02  0.25500000000E-02 0. -1.
    5000001    1    1    2    0    0  0.73123658601E+02 -0.15028927564E+02  0.34362093607E+03  0.40063984552E+03  0.19200000000E+03 0.  0.
   -5000001    1    1    2    0    0 -0.73123658601E+02  0.15028927564E+02  0.12227845808E+03  0.23955992866E+03  0.19200000000E+03 0.  0.
<mgrwt>
<rscale>  0 0.43908257E+03</rscale>
<asrwt>0</asrwt>
<pdfrwt beam="1">  1        2 0.79007082E-01 0.43908257E+03</pdfrwt>
<pdfrwt beam="2">  1       -2 0.12450027E-01 0.43908257E+03</pdfrwt>
<totfact> 0.28325330E+03</totfact>
</mgrwt>
</event>
<event>
 4    1  0.5626910E-005  0.1217439E+04  0.7818608E-02  0.9097728E-01
         -2   -1    0    0    0  501 -0.00000000000E+00  0.00000000000E+00  0.15843018492E+03  0.15843018494E+03  0.25500000000E-02 0. -1.
          2   -1    0    0  501    0  0.00000000000E+00 -0.00000000000E+00 -0.23388187944E+04  0.23388187944E+04  0.25500000000E-02 0.  1.
    5000001    1    1    2    0    0  0.15739347363E+03  0.27552717831E+03 -0.20802986478E+04  0.21131006591E+04  0.19200000000E+03 0.  0.
   -5000001    1    1    2    0    0 -0.15739347363E+03 -0.27552717831E+03 -0.10008996174E+03  0.38414832027E+03  0.19200000000E+03 0.  0.
<mgrwt>
<rscale>  0 0.12174391E+04</rscale>
<asrwt>0</asrwt>
<pdfrwt beam="1">  1        2 0.33411695E+00 0.12174391E+04</pdfrwt>
<pdfrwt beam="2">  1       -2 0.22632885E-01 0.12174391E+04</pdfrwt>
<totfact> 0.90878901E+01</totfact>
</mgrwt>
</event>
<event>
 4    1  0.5626910E-005  0.5520225E+03  0.7818608E-02  0.1001027E+00
          2   -1    0    0  501    0  0.00000000000E+00  0.00000000000E+00  0.88072754202E+03  0.88072754202E+03  0.25500000000E-02 0.  1.
         -2   -1    0    0    0  501 -0.00000000000E+00 -0.00000000000E+00 -0.86499183338E+02  0.86499183376E+02  0.25500000000E-02 0. -1.
    5000001    1    1    2    0    0  0.10973955603E+02  0.19733310168E+03  0.42522691616E+03  0.50669784975E+03  0.19200000000E+03 0.  0.
   -5000001    1    1    2    0    0 -0.10973955603E+02 -0.19733310168E+03  0.36900144252E+03  0.46052887565E+03  0.19200000000E+03 0.  0.
<mgrwt>
<rscale>  0 0.55202251E+03</rscale>
<asrwt>0</asrwt>
<pdfrwt beam="1">  1        2 0.12581822E+00 0.55202251E+03</pdfrwt>
<pdfrwt beam="2">  1       -2 0.12357026E-01 0.55202251E+03</pdfrwt>
<totfact> 0.16265677E+03</totfact>
</mgrwt>
</event>
<event>
 4    1  0.5626910E-005  0.6675715E+03  0.7818608E-02  0.9774355E-01
         -2   -1    0    0    0  501 -0.00000000000E+00  0.00000000000E+00  0.23444047469E+03  0.23444047470E+03  0.25500000000E-02 0. -1.
          2   -1    0    0  501    0  0.00000000000E+00 -0.00000000000E+00 -0.47522904722E+03  0.47522904723E+03  0.25500000000E-02 0.  1.
    5000001    1    1    2    0    0 -0.16976717088E+03  0.17306503924E+03 -0.25391972852E+03  0.40013951148E+03  0.19200000000E+03 0.  0.
   -5000001    1    1    2    0    0  0.16976717088E+03 -0.17306503924E+03  0.13131155987E+02  0.30953001045E+03  0.19200000000E+03 0.  0.
<mgrwt>
<rscale>  0 0.66757149E+03</rscale>
<asrwt>0</asrwt>
<pdfrwt beam="1">  1        2 0.67889863E-01 0.66757149E+03</pdfrwt>
<pdfrwt beam="2">  1       -2 0.33491497E-01 0.66757149E+03</pdfrwt>
<totfact> 0.59606797E+02</totfact>
</mgrwt>
</event>
<event>
 4    1  0.5626910E-005  0.4889071E+03  0.7818608E-02  0.1016716E+00
         -2   -1    0    0    0  501 -0.00000000000E+00  0.00000000000E+00  0.88502651425E+02  0.88502651462E+02  0.25500000000E-02 0. -1.
          2   -1    0    0  501    0  0.00000000000E+00 -0.00000000000E+00 -0.67520611889E+03  0.67520611890E+03  0.25500000000E-02 0.  1.
    5000001    1    1    2    0    0 -0.13417420838E+03 -0.63015660538E+02 -0.34072765115E+03  0.41824995389E+03  0.19200000000E+03 0.  0.
   -5000001    1    1    2    0    0  0.13417420838E+03  0.63015660538E+02 -0.24597581631E+03  0.34545881647E+03  0.19200000000E+03 0.  0.
<mgrwt>
<rscale>  0 0.48890707E+03</rscale>
<asrwt>0</asrwt>
<pdfrwt beam="1">  1        2 0.96458015E-01 0.48890707E+03</pdfrwt>
<pdfrwt beam="2">  1       -2 0.12643236E-01 0.48890707E+03</pdfrwt>
<totfact> 0.21879079E+03</totfact>
</mgrwt>
</event>
<event>
 4    1  0.5626910E-005  0.6965290E+03  0.7818608E-02  0.9723187E-01
         -2   -1    0    0    0  501 -0.00000000000E+00  0.00000000000E+00  0.57433749232E+03  0.57433749232E+03  0.25500000000E-02 0. -1.
          2   -1    0    0  501    0  0.00000000000E+00 -0.00000000000E+00 -0.21117926216E+03  0.21117926218E+03  0.25500000000E-02 0.  1.
    5000001    1    1    2    0    0 -0.27851216268E+03  0.73189983778E+02  0.13792495026E+03  0.37257628801E+03  0.19200000000E+03 0.  0.
   -5000001    1    1    2    0    0  0.27851216268E+03 -0.73189983778E+02  0.22523327990E+03  0.41294046648E+03  0.19200000000E+03 0.  0.
<mgrwt>
<rscale>  0 0.69652902E+03</rscale>
<asrwt>0</asrwt>
<pdfrwt beam="1">  1        2 0.30168467E-01 0.69652902E+03</pdfrwt>
<pdfrwt beam="2">  1       -2 0.82048212E-01 0.69652902E+03</pdfrwt>
<totfact> 0.23310800E+02</totfact>
</mgrwt>
</event>
<event>
 4    1  0.5626910E-005  0.6874668E+03  0.7818608E-02  0.9738909E-01
          2   -1    0    0  501    0  0.00000000000E+00  0.00000000000E+00  0.11856323237E+03  0.11856323240E+03  0.25500000000E-02 0.  1.
         -2   -1    0    0    0  501 -0.00000000000E+00 -0.00000000000E+00 -0.99653707096E+03  0.99653707096E+03  0.25500000000E-02 0. -1.
    5000001    1    1    2    0    0  0.26407181016E+03 -0.16358714521E+02 -0.26665968587E+03  0.42186836398E+03  0.19200000000E+03 0.  0.
   -5000001    1    1    2    0    0 -0.26407181016E+03  0.16358714521E+02 -0.61131415273E+03  0.69323193938E+03  0.19200000000E+03 0.  0.
<mgrwt>
<rscale>  0 0.68746682E+03</rscale>
<asrwt>0</asrwt>
<pdfrwt beam="1">  1        2 0.16937605E-01 0.68746682E+03</pdfrwt>
<pdfrwt beam="2">  1       -2 0.14236243E+00 0.68746682E+03</pdfrwt>
<totfact> 0.12058833E+02</totfact>
</mgrwt>
</event>
<event>
 4    1  0.5626910E-005  0.5913503E+03  0.7818608E-02  0.9923516E-01
         -2   -1    0    0    0  501 -0.00000000000E+00  0.00000000000E+00  0.38688161729E+02  0.38688161813E+02  0.25500000000E-02 0. -1.
          2   -1    0    0  501    0  0.00000000000E+00 -0.00000000000E+00 -0.22597041171E+04  0.22597041171E+04  0.25500000000E-02 0.  1.
    5000001    1    1    2    0    0 -0.21100430805E+03  0.21467169187E+02 -0.82027537356E+03  0.86873433559E+03  0.19200000000E+03 0.  0.
   -5000001    1    1    2    0    0  0.21100430805E+03 -0.21467169187E+02 -0.14007405818E+04  0.14296579433E+04  0.19200000000E+03 0.  0.
<mgrwt>
<rscale>  0 0.59135031E+03</rscale>
<asrwt>0</asrwt>
<pdfrwt beam="1">  1        2 0.32281479E+00 0.59135031E+03</pdfrwt>
<pdfrwt beam="2">  1       -2 0.55268817E-02 0.59135031E+03</pdfrwt>
<totfact> 0.10774586E+03</totfact>
</mgrwt>
</event>
<event>
 4    1  0.5626910E-005  0.4886518E+03  0.7818608E-02  0.1016784E+00
         -2   -1    0    0    0  501 -0.00000000000E+00  0.00000000000E+00  0.27377246752E+02  0.27377246871E+02  0.25500000000E-02 0. -1.
          2   -1    0    0  501    0  0.00000000000E+00 -0.00000000000E+00 -0.21804654566E+04  0.21804654566E+04  0.25500000000E-02 0.  1.
    5000001    1    1    2    0    0  0.41074604727E+01 -0.65398091313E+02 -0.16917104636E+04  0.17038315862E+04  0.19200000000E+03 0.  0.
   -5000001    1    1    2    0    0 -0.41074604727E+01  0.65398091313E+02 -0.46137774633E+03  0.50401111732E+03  0.19200000000E+03 0.  0.
<mgrwt>
<rscale>  0 0.48865178E+03</rscale>
<asrwt>0</asrwt>
<pdfrwt beam="1">  1        2 0.31149495E+00 0.48865178E+03</pdfrwt>
<pdfrwt beam="2">  1       -2 0.39110366E-02 0.48865178E+03</pdfrwt>
<totfact> 0.20249636E+03</totfact>
</mgrwt>
</event>
<event>
 4    1  0.5626910E-005  0.5182076E+03  0.7818608E-02  0.1009133E+00
          2   -1    0    0  501    0  0.00000000000E+00  0.00000000000E+00  0.86199041188E+03  0.86199041188E+03  0.25500000000E-02 0.  1.
         -2   -1    0    0    0  501 -0.00000000000E+00 -0.00000000000E+00 -0.77883429258E+02  0.77883429299E+02  0.25500000000E-02 0. -1.
    5000001    1    1    2    0    0 -0.54672970775E+02 -0.16513733794E+03  0.38595795123E+03  0.46485160453E+03  0.19200000000E+03 0.  0.
   -5000001    1    1    2    0    0  0.54672970775E+02  0.16513733794E+03  0.39814903139E+03  0.47502223665E+03  0.19200000000E+03 0.  0.
<mgrwt>
<rscale>  0 0.51820756E+03</rscale>
<asrwt>0</asrwt>
<pdfrwt beam="1">  1        2 0.12314148E+00 0.51820756E+03</pdfrwt>
<pdfrwt beam="2">  1       -2 0.11126205E-01 0.51820756E+03</pdfrwt>
<totfact> 0.19875104E+03</totfact>
</mgrwt>
</event>
<event>
 4    1  0.5626910E-005  0.7184418E+03  0.7818608E-02  0.9686204E-01
          2   -1    0    0  501    0  0.00000000000E+00  0.00000000000E+00  0.13175186987E+04  0.13175186987E+04  0.25500000000E-02 0.  1.
         -2   -1    0    0    0  501 -0.00000000000E+00 -0.00000000000E+00 -0.97941417585E+02  0.97941417618E+02  0.25500000000E-02 0. -1.
    5000001    1    1    2    0    0  0.27465620575E+03  0.10880429913E+03  0.47185851341E+03  0.58888781915E+03  0.19200000000E+03 0.  0.
   -5000001    1    1    2    0    0 -0.27465620575E+03 -0.10880429913E+03  0.74771876766E+03  0.82657229713E+03  0.19200000000E+03 0.  0.
<mgrwt>
<rscale>  0 0.71844178E+03</rscale>
<asrwt>0</asrwt>
<pdfrwt beam="1">  1        2 0.18821696E+00 0.71844178E+03</pdfrwt>
<pdfrwt beam="2">  1       -2 0.13991631E-01 0.71844178E+03</pdfrwt>
<totfact> 0.72895991E+02</totfact>
</mgrwt>
</event>
<event>
 4    1  0.5626910E-005  0.5019468E+03  0.7818608E-02  0.1013272E+00
         -2   -1    0    0    0  501 -0.00000000000E+00  0.00000000000E+00  0.51228638887E+02  0.51228638951E+02  0.25500000000E-02 0. -1.
          2   -1    0    0  501    0  0.00000000000E+00 -0.00000000000E+00 -0.12295397945E+04  0.12295397945E+04  0.25500000000E-02 0.  1.
    5000001    1    1    2    0    0 -0.13490866468E+03  0.84565411101E+02 -0.51825989822E+03  0.57515995919E+03  0.19200000000E+03 0.  0.
   -5000001    1    1    2    0    0  0.13490866468E+03 -0.84565411101E+02 -0.66005125741E+03  0.70560847427E+03  0.19200000000E+03 0.  0.
<mgrwt>
<rscale>  0 0.50194681E+03</rscale>
<asrwt>0</asrwt>
<pdfrwt beam="1">  1        2 0.17564852E+00 0.50194681E+03</pdfrwt>
<pdfrwt beam="2">  1       -2 0.73183778E-02 0.50194681E+03</pdfrwt>
<totfact> 0.23480501E+03</totfact>
</mgrwt>
</event>
<event>
 4    1  0.5626910E-005  0.4185340E+03  0.7818608E-02  0.1037544E+00
         -2   -1    0    0    0  501 -0.00000000000E+00  0.00000000000E+00  0.13602365372E+02  0.13602365611E+02  0.25500000000E-02 0. -1.
          2   -1    0    0  501    0  0.00000000000E+00 -0.00000000000E+00 -0.32194898559E+04  0.32194898559E+04  0.25500000000E-02 0.  1.
    5000001    1    1    2    0    0 -0.48842212319E+02 -0.67281234423E+02 -0.16341805245E+04  0.16475200493E+04  0.19200000000E+03 0.  0.
   -5000001    1    1    2    0    0  0.48842212319E+02  0.67281234423E+02 -0.15717069660E+04  0.15855721722E+04  0.19200000000E+03 0.  0.
<mgrwt>
<rscale>  0 0.41853400E+03</rscale>
<asrwt>0</asrwt>
<pdfrwt beam="1">  1        2 0.45992663E+00 0.41853400E+03</pdfrwt>
<pdfrwt beam="2">  1       -2 0.19431971E-02 0.41853400E+03</pdfrwt>
<totfact> 0.16753315E+03</totfact>
</mgrwt>
</event>
<event>
 4    1  0.5626910E-005  0.4885683E+03  0.7818608E-02  0.1016807E+00
          2   -1    0    0  501    0  0.00000000000E+00  0.00000000000E+00  0.80134367684E+03  0.80134367685E+03  0.25500000000E-02 0.  1.
         -2   -1    0    0    0  501 -0.00000000000E+00 -0.00000000000E+00 -0.74468367189E+02  0.74468367233E+02  0.25500000000E-02 0. -1.
    5000001    1    1    2    0    0  0.46448926768E+02  0.12895950568E+03  0.47713342946E+03  0.53226719457E+03  0.19200000000E+03 0.  0.
   -5000001    1    1    2    0    0 -0.46448926768E+02 -0.12895950568E+03  0.24974188019E+03  0.34354484951E+03  0.19200000000E+03 0.  0.
<mgrwt>
<rscale>  0 0.48856834E+03</rscale>
<asrwt>0</asrwt>
<pdfrwt beam="1">  1        2 0.11447767E+00 0.48856834E+03</pdfrwt>
<pdfrwt beam="2">  1       -2 0.10638338E-01 0.48856834E+03</pdfrwt>
<totfact> 0.23482472E+03</totfact>
</mgrwt>
</event>
<event>
 4    1  0.5626910E-005  0.8476046E+03  0.7818608E-02  0.9493558E-01
          2   -1    0    0  501    0  0.00000000000E+00  0.00000000000E+00  0.61633228424E+03  0.61633228424E+03  0.25500000000E-02 0. -1.
         -2   -1    0    0    0  501 -0.00000000000E+00 -0.00000000000E+00 -0.29141483111E+03  0.29141483112E+03  0.25500000000E-02 0.  1.
    5000001    1    1    2    0    0  0.33011619060E+03  0.10272924484E+03 -0.71493639520E+00  0.39546745526E+03  0.19200000000E+03 0.  0.
   -5000001    1    1    2    0    0 -0.33011619060E+03 -0.10272924484E+03  0.32563238953E+03  0.51227966010E+03  0.19200000000E+03 0.  0.
<mgrwt>
<rscale>  0 0.84760455E+03</rscale>
<asrwt>0</asrwt>
<pdfrwt beam="1">  1        2 0.88047469E-01 0.84760455E+03</pdfrwt>
<pdfrwt beam="2">  1       -2 0.41630690E-01 0.84760455E+03</pdfrwt>
<totfact> 0.28833196E+02</totfact>
</mgrwt>
</event>
<event>
 4    1  0.5626910E-005  0.9266303E+03  0.7818608E-02  0.9392891E-01
          2   -1    0    0  501    0  0.00000000000E+00  0.00000000000E+00  0.20573236348E+04  0.20573236348E+04  0.25500000000E-02 0.  1.
         -2   -1    0    0    0  501 -0.00000000000E+00 -0.00000000000E+00 -0.10433989534E+03  0.10433989537E+03  0.25500000000E-02 0. -1.
    5000001    1    1    2    0    0 -0.64811875931E+02  0.40335242146E+03  0.73290260916E+03  0.86075779966E+03  0.19200000000E+03 0.  0.
   -5000001    1    1    2    0    0  0.64811875931E+02 -0.40335242146E+03  0.12200811303E+04  0.13009057305E+04  0.19200000000E+03 0.  0.
<mgrwt>
<rscale>  0 0.92663031E+03</rscale>
<asrwt>0</asrwt>
<pdfrwt beam="1">  1        2 0.29390339E+00 0.92663031E+03</pdfrwt>
<pdfrwt beam="2">  1       -2 0.14905698E-01 0.92663031E+03</pdfrwt>
<totfact> 0.26763576E+02</totfact>
</mgrwt>
</event>
<event>
 4    1  0.5626910E-005  0.7362102E+03  0.7818608E-02  0.9657236E-01
         -2   -1    0    0    0  501 -0.00000000000E+00  0.00000000000E+00  0.24489364962E+03  0.24489364963E+03  0.25500000000E-02 0. -1.
          2   -1    0    0  501    0  0.00000000000E+00 -0.00000000000E+00 -0.55330698501E+03  0.55330698501E+03  0.25500000000E-02 0.  1.
    5000001    1    1    2    0    0 -0.20504812464E+03  0.22894413858E+03 -0.22428014107E+03  0.42617570753E+03  0.19200000000E+03 0.  0.
   -5000001    1    1    2    0    0  0.20504812464E+03 -0.22894413858E+03 -0.84133194320E+02  0.37202492712E+03  0.19200000000E+03 0.  0.
<mgrwt>
<rscale>  0 0.73621021E+03</rscale>
<asrwt>0</asrwt>
<pdfrwt beam="1">  1        2 0.79043855E-01 0.73621021E+03</pdfrwt>
<pdfrwt beam="2">  1       -2 0.34984807E-01 0.73621021E+03</pdfrwt>
<totfact> 0.46006437E+02</totfact>
</mgrwt>
</event>
<event>
 4    1  0.5626910E-005  0.8783772E+03  0.7818608E-02  0.9453022E-01
          2   -1    0    0  501    0  0.00000000000E+00  0.00000000000E+00  0.15389165449E+03  0.15389165452E+03  0.25500000000E-02 0.  1.
         -2   -1    0    0    0  501 -0.00000000000E+00 -0.00000000000E+00 -0.12533925121E+04  0.12533925121E+04  0.25500000000E-02 0. -1.
    5000001    1    1    2    0    0 -0.17120547085E+03 -0.30068625493E+03 -0.24450532004E+03  0.46515630564E+03  0.19200000000E+03 0.  0.
   -5000001    1    1    2    0    0  0.17120547085E+03  0.30068625493E+03 -0.85499553752E+03  0.94212786093E+03  0.19200000000E+03 0.  0.
<mgrwt>
<rscale>  0 0.87837725E+03</rscale>
<asrwt>0</asrwt>
<pdfrwt beam="1">  1        2 0.21984523E-01 0.87837725E+03</pdfrwt>
<pdfrwt beam="2">  1       -2 0.17905607E+00 0.87837725E+03</pdfrwt>
<totfact> 0.47143257E+01</totfact>
</mgrwt>
</event>
<event>
 4    1  0.5626910E-005  0.4458953E+03  0.7818608E-02  0.1028953E+00
          2   -1    0    0  501    0  0.00000000000E+00  0.00000000000E+00  0.20487785587E+04  0.20487785587E+04  0.25500000000E-02 0.  1.
         -2   -1    0    0    0  501 -0.00000000000E+00 -0.00000000000E+00 -0.24261117734E+02  0.24261117868E+02  0.25500000000E-02 0. -1.
    5000001    1    1    2    0    0 -0.11110880658E+03 -0.22221596534E+02  0.10046310981E+04  0.10290707505E+04  0.19200000000E+03 0.  0.
   -5000001    1    1    2    0    0  0.11110880658E+03  0.22221596534E+02  0.10198863429E+04  0.10439689261E+04  0.19200000000E+03 0.  0.
<mgrwt>
<rscale>  0 0.44589531E+03</rscale>
<asrwt>0</asrwt>
<pdfrwt beam="1">  1        2 0.29268280E+00 0.44589531E+03</pdfrwt>
<pdfrwt beam="2">  1       -2 0.34658722E-02 0.44589531E+03</pdfrwt>
<totfact> 0.28357831E+03</totfact>
</mgrwt>
</event>
<event>
 4    1  0.5626910E-005  0.4483432E+03  0.7818608E-02  0.1028217E+00
          2   -1    0    0  501    0  0.00000000000E+00  0.00000000000E+00  0.35914518300E+04  0.35914518300E+04  0.25500000000E-02 0.  1.
         -2   -1    0    0    0  501 -0.00000000000E+00 -0.00000000000E+00 -0.13992364953E+02  0.13992365185E+02  0.25500000000E-02 0. -1.
    5000001    1    1    2    0    0 -0.44162445121E+02 -0.10031081676E+03  0.14903917994E+04  0.15066998033E+04  0.19200000000E+03 0.  0.
   -5000001    1    1    2    0    0  0.44162445121E+02  0.10031081676E+03  0.20870676656E+04  0.20987443919E+04  0.19200000000E+03 0.  0.
<mgrwt>
<rscale>  0 0.44834320E+03</rscale>
<asrwt>0</asrwt>
<pdfrwt beam="1">  1        2 0.51306436E+00 0.44834320E+03</pdfrwt>
<pdfrwt beam="2">  1       -2 0.19989100E-02 0.44834320E+03</pdfrwt>
<totfact> 0.97615472E+02</totfact>
</mgrwt>
</event>
<event>
 4    1  0.5626910E-005  0.6908626E+03  0.7818608E-02  0.9732987E-01
         -2   -1    0    0    0  501 -0.00000000000E+00  0.00000000000E+00  0.84002353583E+02  0.84002353622E+02  0.25500000000E-02 0. -1.
          2   -1    0    0  501    0  0.00000000000E+00 -0.00000000000E+00 -0.14204693739E+04  0.14204693739E+04  0.25500000000E-02 0.  1.
    5000001    1    1    2    0    0  0.11148007596E+03  0.15280874370E+03 -0.11387337974E+04  0.11701952747E+04  0.19200000000E+03 0.  0.
   -5000001    1    1    2    0    0 -0.11148007596E+03 -0.15280874370E+03 -0.19773322288E+03  0.33427645283E+03  0.19200000000E+03 0.  0.
<mgrwt>
<rscale>  0 0.69086256E+03</rscale>
<asrwt>0</asrwt>
<pdfrwt beam="1">  1        2 0.20292418E+00 0.69086256E+03</pdfrwt>
<pdfrwt beam="2">  1       -2 0.12000337E-01 0.69086256E+03</pdfrwt>
<totfact> 0.82940499E+02</totfact>
</mgrwt>
</event>
<event>
 4    1  0.5626910E-005  0.5479557E+03  0.7818608E-02  0.1001968E+00
          2   -1    0    0  501    0  0.00000000000E+00  0.00000000000E+00  0.85468520557E+03  0.85468520557E+03  0.25500000000E-02 0.  1.
         -2   -1    0    0    0  501 -0.00000000000E+00 -0.00000000000E+00 -0.87826329644E+02  0.87826329681E+02  0.25500000000E-02 0. -1.
    5000001    1    1    2    0    0  0.12721880931E+03 -0.14651008672E+03  0.34308944140E+03  0.43843379860E+03  0.19200000000E+03 0.  0.
   -5000001    1    1    2    0    0 -0.12721880931E+03  0.14651008672E+03  0.42376943452E+03  0.50407773665E+03  0.19200000000E+03 0.  0.
<mgrwt>
<rscale>  0 0.54795571E+03</rscale>
<asrwt>0</asrwt>
<pdfrwt beam="1">  1        2 0.12209789E+00 0.54795571E+03</pdfrwt>
<pdfrwt beam="2">  1       -2 0.12546618E-01 0.54795571E+03</pdfrwt>
<totfact> 0.16501006E+03</totfact>
</mgrwt>
</event>
<event>
 4    1  0.5626910E-005  0.5121470E+03  0.7818608E-02  0.1010656E+00
         -2   -1    0    0    0  501 -0.00000000000E+00  0.00000000000E+00  0.26380117297E+02  0.26380117420E+02  0.25500000000E-02 0. -1.
          2   -1    0    0  501    0  0.00000000000E+00 -0.00000000000E+00 -0.24857220867E+04  0.24857220867E+04  0.25500000000E-02 0.  1.
    5000001    1    1    2    0    0  0.17368929328E+02 -0.16786737431E+03 -0.13038175106E+04  0.13286403712E+04  0.19200000000E+03 0.  0.
   -5000001    1    1    2    0    0 -0.17368929328E+02  0.16786737431E+03 -0.11555244588E+04  0.11834618329E+04  0.19200000000E+03 0.  0.
<mgrwt>
<rscale>  0 0.51214701E+03</rscale>
<asrwt>0</asrwt>
<pdfrwt beam="1">  1        2 0.35510301E+00 0.51214701E+03</pdfrwt>
<pdfrwt beam="2">  1       -2 0.37685897E-02 0.51214701E+03</pdfrwt>
<totfact> 0.15014965E+03</totfact>
</mgrwt>
</event>
<event>
 4    1  0.5626910E-005  0.5334960E+03  0.7818608E-02  0.1005388E+00
          2   -1    0    0  501    0  0.00000000000E+00  0.00000000000E+00  0.20451659935E+03  0.20451659937E+03  0.25500000000E-02 0.  1.
         -2   -1    0    0    0  501 -0.00000000000E+00 -0.00000000000E+00 -0.34791545748E+03  0.34791545749E+03  0.25500000000E-02 0. -1.
    5000001    1    1    2    0    0 -0.14712382318E+03 -0.78004892769E+02  0.12171161625E+02  0.25444512143E+03  0.19200000000E+03 0.  0.
   -5000001    1    1    2    0    0  0.14712382318E+03  0.78004892769E+02 -0.15557001975E+03  0.29798693543E+03  0.19200000000E+03 0.  0.
<mgrwt>
<rscale>  0 0.53349597E+03</rscale>
<asrwt>0</asrwt>
<pdfrwt beam="1">  1        2 0.29216657E-01 0.53349597E+03</pdfrwt>
<pdfrwt beam="2">  1       -2 0.49702208E-01 0.53349597E+03</pdfrwt>
<totfact> 0.70642315E+02</totfact>
</mgrwt>
</event>
<event>
 4    1  0.5626910E-005  0.4425660E+03  0.7818608E-02  0.1029962E+00
          2   -1    0    0  501    0  0.00000000000E+00  0.00000000000E+00  0.48873084260E+03  0.48873084261E+03  0.25500000000E-02 0.  1.
         -2   -1    0    0    0  501 -0.00000000000E+00 -0.00000000000E+00 -0.10019043653E+03  0.10019043656E+03  0.25500000000E-02 0. -1.
    5000001    1    1    2    0    0  0.10033339547E+03  0.38971519002E+02  0.22451501949E+03  0.31441463629E+03  0.19200000000E+03 0.  0.
   -5000001    1    1    2    0    0 -0.10033339547E+03 -0.38971519002E+02  0.16402538658E+03  0.27450664288E+03  0.19200000000E+03 0.  0.
<mgrwt>
<rscale>  0 0.44256596E+03</rscale>
<asrwt>0</asrwt>
<pdfrwt beam="1">  1        2 0.69818693E-01 0.44256596E+03</pdfrwt>
<pdfrwt beam="2">  1       -2 0.14312919E-01 0.44256596E+03</pdfrwt>
<totfact> 0.25884619E+03</totfact>
</mgrwt>
</event>
<event>
 4    1  0.5626910E-005  0.4261332E+03  0.7818608E-02  0.1035088E+00
         -2   -1    0    0    0  501 -0.00000000000E+00  0.00000000000E+00  0.18953726194E+02  0.18953726365E+02  0.25500000000E-02 0. -1.
          2   -1    0    0  501    0  0.00000000000E+00 -0.00000000000E+00 -0.23951693875E+04  0.23951693875E+04  0.25500000000E-02 0.  1.
    5000001    1    1    2    0    0  0.83236921704E+02  0.38989012685E+01 -0.14139916009E+04  0.14293984168E+04  0.19200000000E+03 0.  0.
   -5000001    1    1    2    0    0 -0.83236921704E+02 -0.38989012685E+01 -0.96222406037E+03  0.98472469702E+03  0.19200000000E+03 0.  0.
<mgrwt>
<rscale>  0 0.42613324E+03</rscale>
<asrwt>0</asrwt>
<pdfrwt beam="1">  1        2 0.34216686E+00 0.42613324E+03</pdfrwt>
<pdfrwt beam="2">  1       -2 0.27076767E-02 0.42613324E+03</pdfrwt>
<totfact> 0.27669756E+03</totfact>
</mgrwt>
</event>
<event>
 4    1  0.5626910E-005  0.9259885E+03  0.7818608E-02  0.9393665E-01
          2   -1    0    0  501    0  0.00000000000E+00  0.00000000000E+00  0.10382283989E+04  0.10382283989E+04  0.25500000000E-02 0.  1.
         -2   -1    0    0    0  501 -0.00000000000E+00 -0.00000000000E+00 -0.20647063677E+03  0.20647063679E+03  0.25500000000E-02 0. -1.
    5000001    1    1    2    0    0 -0.23598326728E+03 -0.16286323569E+03  0.83080990602E+03  0.89962305212E+03  0.19200000000E+03 0.  0.
   -5000001    1    1    2    0    0  0.23598326728E+03  0.16286323569E+03  0.94785607116E+00  0.34507598353E+03  0.19200000000E+03 0.  0.
<mgrwt>
<rscale>  0 0.92598851E+03</rscale>
<asrwt>0</asrwt>
<pdfrwt beam="1">  1        2 0.14831834E+00 0.92598851E+03</pdfrwt>
<pdfrwt beam="2">  1       -2 0.29495807E-01 0.92598851E+03</pdfrwt>
<totfact> 0.28119636E+02</totfact>
</mgrwt>
</event>
<event>
 4    1  0.5626910E-005  0.4913044E+03  0.7818608E-02  0.1016074E+00
         -2   -1    0    0    0  501 -0.00000000000E+00  0.00000000000E+00  0.12445941549E+03  0.12445941551E+03  0.25500000000E-02 0. -1.
          2   -1    0    0  501    0  0.00000000000E+00 -0.00000000000E+00 -0.48485684913E+03  0.48485684914E+03  0.25500000000E-02 0.  1.
    5000001    1    1    2    0    0 -0.10245803725E+03  0.11139828851E+03 -0.15049151189E+03  0.28708696110E+03  0.19200000000E+03 0.  0.
   -5000001    1    1    2    0    0  0.10245803725E+03 -0.11139828851E+03 -0.20990592175E+03  0.32222930355E+03  0.19200000000E+03 0.  0.
<mgrwt>
<rscale>  0 0.49130439E+03</rscale>
<asrwt>0</asrwt>
<pdfrwt beam="1">  1        2 0.69265263E-01 0.49130439E+03</pdfrwt>
<pdfrwt beam="2">  1       -2 0.17779917E-01 0.49130439E+03</pdfrwt>
<totfact> 0.18136478E+03</totfact>
</mgrwt>
</event>
<event>
 4    1  0.5626910E-005  0.6024279E+03  0.7818608E-02  0.9900382E-01
          2   -1    0    0  501    0  0.00000000000E+00  0.00000000000E+00  0.34386214241E+03  0.34386214242E+03  0.25500000000E-02 0.  1.
         -2   -1    0    0    0  501 -0.00000000000E+00 -0.00000000000E+00 -0.26385524944E+03  0.26385524945E+03  0.25500000000E-02 0. -1.
    5000001    1    1    2    0    0 -0.28430123636E+02  0.18998546670E+03  0.17138941807E+03  0.32115585331E+03  0.19200000000E+03 0.  0.
   -5000001    1    1    2    0    0  0.28430123636E+02 -0.18998546670E+03 -0.91382525095E+02  0.28656153856E+03  0.19200000000E+03 0.  0.
<mgrwt>
<rscale>  0 0.60242786E+03</rscale>
<asrwt>0</asrwt>
<pdfrwt beam="1">  1        2 0.49123163E-01 0.60242786E+03</pdfrwt>
<pdfrwt beam="2">  1       -2 0.37693607E-01 0.60242786E+03</pdfrwt>
<totfact> 0.68389164E+02</totfact>
</mgrwt>
</event>
<event>
 4    1  0.5626910E-005  0.5045381E+03  0.7818608E-02  0.1012601E+00
          2   -1    0    0  501    0  0.00000000000E+00  0.00000000000E+00  0.25034423804E+04  0.25034423804E+04  0.25500000000E-02 0.  1.
         -2   -1    0    0    0  501 -0.00000000000E+00 -0.00000000000E+00 -0.25420862697E+02  0.25420862825E+02  0.25500000000E-02 0. -1.
    5000001    1    1    2    0    0  0.14889406907E+03 -0.67468994697E+02  0.12758962214E+04  0.13005755175E+04  0.19200000000E+03 0.  0.
   -5000001    1    1    2    0    0 -0.14889406907E+03  0.67468994697E+02  0.12021252963E+04  0.12282877257E+04  0.19200000000E+03 0.  0.
<mgrwt>
<rscale>  0 0.50453807E+03</rscale>
<asrwt>0</asrwt>
<pdfrwt beam="1">  1        2 0.35763470E+00 0.50453807E+03</pdfrwt>
<pdfrwt beam="2">  1       -2 0.36315510E-02 0.50453807E+03</pdfrwt>
<totfact> 0.15568282E+03</totfact>
</mgrwt>
</event>
<event>
 4    1  0.5626910E-005  0.1134818E+04  0.7818608E-02  0.9171905E-01
          2   -1    0    0  501    0  0.00000000000E+00  0.00000000000E+00  0.10615026883E+04  0.10615026883E+04  0.25500000000E-02 0.  1.
         -2   -1    0    0    0  501 -0.00000000000E+00 -0.00000000000E+00 -0.30329915209E+03  0.30329915210E+03  0.25500000000E-02 0. -1.
    5000001    1    1    2    0    0  0.44932121683E+02  0.50346785887E+03  0.58598084116E+03  0.79733075112E+03  0.19200000000E+03 0.  0.
   -5000001    1    1    2    0    0 -0.44932121683E+02 -0.50346785887E+03  0.17222269504E+03  0.56747108927E+03  0.19200000000E+03 0.  0.
<mgrwt>
<rscale>  0 0.11348178E+04</rscale>
<asrwt>0</asrwt>
<pdfrwt beam="1">  1        2 0.15164324E+00 0.11348178E+04</pdfrwt>
<pdfrwt beam="2">  1       -2 0.43328450E-01 0.11348178E+04</pdfrwt>
<totfact> 0.12880986E+02</totfact>
</mgrwt>
</event>
<event>
 4    1  0.5626910E-005  0.5127687E+03  0.7818608E-02  0.1010499E+00
          2   -1    0    0  501    0  0.00000000000E+00  0.00000000000E+00  0.17101124126E+04  0.17101124126E+04  0.25500000000E-02 0.  1.
         -2   -1    0    0    0  501 -0.00000000000E+00 -0.00000000000E+00 -0.38437780145E+02  0.38437780230E+02  0.25500000000E-02 0. -1.
    5000001    1    1    2    0    0  0.12400601886E+03  0.10543539588E+03  0.10020143590E+04  0.10331461131E+04  0.19200000000E+03 0.  0.
   -5000001    1    1    2    0    0 -0.12400601886E+03 -0.10543539588E+03  0.66966027341E+03  0.71540407966E+03  0.19200000000E+03 0.  0.
<mgrwt>
<rscale>  0 0.51276866E+03</rscale>
<asrwt>0</asrwt>
<pdfrwt beam="1">  1        2 0.24430178E+00 0.51276866E+03</pdfrwt>
<pdfrwt beam="2">  1       -2 0.54911114E-02 0.51276866E+03</pdfrwt>
<totfact> 0.20626505E+03</totfact>
</mgrwt>
</event>
<event>
 4    1  0.5626910E-005  0.6107557E+03  0.7818608E-02  0.9883339E-01
         -2   -1    0    0    0  501 -0.00000000000E+00  0.00000000000E+00  0.35520325170E+03  0.35520325171E+03  0.25500000000E-02 0. -1.
          2   -1    0    0  501    0  0.00000000000E+00 -0.00000000000E+00 -0.26254156242E+03  0.26254156244E+03  0.25500000000E-02 0.  1.
    5000001    1    1    2    0    0 -0.20841375813E+03  0.41023280695E+02 -0.61055745121E+02  0.29276442432E+03  0.19200000000E+03 0.  0.
   -5000001    1    1    2    0    0  0.20841375813E+03 -0.41023280695E+02  0.15371743440E+03  0.32498038983E+03  0.19200000000E+03 0.  0.
<mgrwt>
<rscale>  0 0.61075565E+03</rscale>
<asrwt>0</asrwt>
<pdfrwt beam="1">  1        2 0.37505938E-01 0.61075565E+03</pdfrwt>
<pdfrwt beam="2">  1       -2 0.50743321E-01 0.61075565E+03</pdfrwt>
<totfact> 0.51220191E+02</totfact>
</mgrwt>
</event>
<event>
 4    1  0.5626910E-005  0.1043310E+04  0.7818608E-02  0.9262279E-01
          2   -1    0    0  501    0  0.00000000000E+00  0.00000000000E+00  0.43558959436E+03  0.43558959437E+03  0.25500000000E-02 0.  1.
         -2   -1    0    0    0  501 -0.00000000000E+00 -0.00000000000E+00 -0.62472525743E+03  0.62472525743E+03  0.25500000000E-02 0. -1.
    5000001    1    1    2    0    0 -0.47773835541E+03  0.70136991697E+02 -0.47921054541E+02  0.52183671901E+03  0.19200000000E+03 0.  0.
   -5000001    1    1    2    0    0  0.47773835541E+03 -0.70136991697E+02 -0.14121460853E+03  0.53847813279E+03  0.19200000000E+03 0.  0.
<mgrwt>
<rscale>  0 0.10433098E+04</rscale>
<asrwt>0</asrwt>
<pdfrwt beam="1">  1        2 0.62227085E-01 0.10433098E+04</pdfrwt>
<pdfrwt beam="2">  1       -2 0.89246465E-01 0.10433098E+04</pdfrwt>
<totfact> 0.84407419E+01</totfact>
</mgrwt>
</event>
<event>
 4    1  0.5626910E-005  0.7733296E+03  0.7818608E-02  0.9599444E-01
         -2   -1    0    0    0  501 -0.00000000000E+00  0.00000000000E+00  0.78257261632E+02  0.78257261674E+02  0.25500000000E-02 0. -1.
          2   -1    0    0  501    0  0.00000000000E+00 -0.00000000000E+00 -0.19104894680E+04  0.19104894680E+04  0.25500000000E-02 0.  1.
    5000001    1    1    2    0    0 -0.60774086694E+02  0.32688244008E+03 -0.10339662598E+04  0.11029487049E+04  0.19200000000E+03 0.  0.
   -5000001    1    1    2    0    0  0.60774086694E+02 -0.32688244008E+03 -0.79826594660E+03  0.88579802481E+03  0.19200000000E+03 0.  0.
<mgrwt>
<rscale>  0 0.77332962E+03</rscale>
<asrwt>0</asrwt>
<pdfrwt beam="1">  1        2 0.27292704E+00 0.77332962E+03</pdfrwt>
<pdfrwt beam="2">  1       -2 0.11179610E-01 0.77332962E+03</pdfrwt>
<totfact> 0.51871989E+02</totfact>
</mgrwt>
</event>
<event>
 4    1  0.5626910E-005  0.5534316E+03  0.7818608E-02  0.1000703E+00
         -2   -1    0    0    0  501 -0.00000000000E+00  0.00000000000E+00  0.62516161522E+02  0.62516161574E+02  0.25500000000E-02 0. -1.
          2   -1    0    0  501    0  0.00000000000E+00 -0.00000000000E+00 -0.12248292374E+04  0.12248292374E+04  0.25500000000E-02 0.  1.
    5000001    1    1    2    0    0 -0.17217626295E+03  0.43134597687E+02 -0.79182555505E+03  0.83388066813E+03  0.19200000000E+03 0.  0.
   -5000001    1    1    2    0    0  0.17217626295E+03 -0.43134597687E+02 -0.37048752085E+03  0.45346473087E+03  0.19200000000E+03 0.  0.
<mgrwt>
<rscale>  0 0.55343156E+03</rscale>
<asrwt>0</asrwt>
<pdfrwt beam="1">  1        2 0.17497559E+00 0.55343156E+03</pdfrwt>
<pdfrwt beam="2">  1       -2 0.89308810E-02 0.55343156E+03</pdfrwt>
<totfact> 0.17195582E+03</totfact>
</mgrwt>
</event>
<event>
 4    1  0.5626910E-005  0.7218209E+03  0.7818608E-02  0.9680627E-01
          2   -1    0    0  501    0  0.00000000000E+00  0.00000000000E+00  0.24368781298E+03  0.24368781299E+03  0.25500000000E-02 0.  1.
         -2   -1    0    0    0  501 -0.00000000000E+00 -0.00000000000E+00 -0.53452133894E+03  0.53452133894E+03  0.25500000000E-02 0. -1.
    5000001    1    1    2    0    0 -0.24736385664E+03  0.89875984389E+02 -0.31287536617E+03  0.45168746374E+03  0.19200000000E+03 0.  0.
   -5000001    1    1    2    0    0  0.24736385664E+03 -0.89875984389E+02  0.22041840217E+02  0.32652168820E+03  0.19200000000E+03 0.  0.
<mgrwt>
<rscale>  0 0.72182085E+03</rscale>
<asrwt>0</asrwt>
<pdfrwt beam="1">  1        2 0.34812545E-01 0.72182085E+03</pdfrwt>
<pdfrwt beam="2">  1       -2 0.76360191E-01 0.72182085E+03</pdfrwt>
<totfact> 0.23296743E+02</totfact>
</mgrwt>
</event>
<event>
 4    1  0.5626910E-005  0.5926611E+03  0.7818608E-02  0.9920750E-01
          2   -1    0    0  501    0  0.00000000000E+00  0.00000000000E+00  0.10044601446E+04  0.10044601446E+04  0.25500000000E-02 0.  1.
         -2   -1    0    0    0  501 -0.00000000000E+00 -0.00000000000E+00 -0.87421893566E+02  0.87421893603E+02  0.25500000000E-02 0. -1.
    5000001    1    1    2    0    0  0.81120661407E+02 -0.19518875184E+03  0.31265299803E+03  0.42343253032E+03  0.19200000000E+03 0.  0.
   -5000001    1    1    2    0    0 -0.81120661407E+02  0.19518875184E+03  0.60438525302E+03  0.66844950790E+03  0.19200000000E+03 0.  0.
<mgrwt>
<rscale>  0 0.59266114E+03</rscale>
<asrwt>0</asrwt>
<pdfrwt beam="1">  1        2 0.14349430E+00 0.59266114E+03</pdfrwt>
<pdfrwt beam="2">  1       -2 0.12488842E-01 0.59266114E+03</pdfrwt>
<totfact> 0.13355173E+03</totfact>
</mgrwt>
</event>
<event>
 4    1  0.5626910E-005  0.5126735E+03  0.7818608E-02  0.1010523E+00
          2   -1    0    0  501    0  0.00000000000E+00  0.00000000000E+00  0.14789104478E+03  0.14789104480E+03  0.25500000000E-02 0.  1.
         -2   -1    0    0    0  501 -0.00000000000E+00 -0.00000000000E+00 -0.44430362067E+03  0.44430362067E+03  0.25500000000E-02 0. -1.
    5000001    1    1    2    0    0 -0.27480976688E+02  0.14626136348E+03 -0.53678018030E+02  0.24878287752E+03  0.19200000000E+03 0.  0.
   -5000001    1    1    2    0    0  0.27480976688E+02 -0.14626136348E+03 -0.24273455786E+03  0.34341178795E+03  0.19200000000E+03 0.  0.
<mgrwt>
<rscale>  0 0.51267349E+03</rscale>
<asrwt>0</asrwt>
<pdfrwt beam="1">  1        2 0.21127292E-01 0.51267349E+03</pdfrwt>
<pdfrwt beam="2">  1       -2 0.63471945E-01 0.51267349E+03</pdfrwt>
<totfact> 0.61640280E+02</totfact>
</mgrwt>
</event>
<event>
 4    1  0.5626910E-005  0.8623879E+03  0.7818608E-02  0.9473860E-01
          2   -1    0    0  501    0  0.00000000000E+00  0.00000000000E+00  0.57755271947E+03  0.57755271947E+03  0.25500000000E-02 0.  1.
         -2   -1    0    0    0  501 -0.00000000000E+00 -0.00000000000E+00 -0.32192425759E+03  0.32192425760E+03  0.25500000000E-02 0. -1.
    5000001    1    1    2    0    0  0.28107095383E+03  0.26360373460E+03  0.15285554310E+03  0.45685514886E+03  0.19200000000E+03 0.  0.
   -5000001    1    1    2    0    0 -0.28107095383E+03 -0.26360373460E+03  0.10277291878E+03  0.44262182822E+03  0.19200000000E+03 0.  0.
<mgrwt>
<rscale>  0 0.86238792E+03</rscale>
<asrwt>0</asrwt>
<pdfrwt beam="1">  1        2 0.82507531E-01 0.86238792E+03</pdfrwt>
<pdfrwt beam="2">  1       -2 0.45989180E-01 0.86238792E+03</pdfrwt>
<totfact> 0.25546209E+02</totfact>
</mgrwt>
</event>
<event>
 4    1  0.5626910E-005  0.5913210E+03  0.7818608E-02  0.9923578E-01
          2   -1    0    0  501    0  0.00000000000E+00  0.00000000000E+00  0.20794968406E+04  0.20794968406E+04  0.25500000000E-02 0.  1.
         -2   -1    0    0    0  501 -0.00000000000E+00 -0.00000000000E+00 -0.42036681090E+02  0.42036681167E+02  0.25500000000E-02 0. -1.
    5000001    1    1    2    0    0  0.13456812881E+03 -0.10268150367E+03  0.15496627218E+04  0.15706592959E+04  0.19200000000E+03 0.  0.
   -5000001    1    1    2    0    0 -0.13456812881E+03  0.10268150367E+03  0.48779743778E+03  0.55087422593E+03  0.19200000000E+03 0.  0.
<mgrwt>
<rscale>  0 0.59132105E+03</rscale>
<asrwt>0</asrwt>
<pdfrwt beam="1">  1        2 0.29707102E+00 0.59132105E+03</pdfrwt>
<pdfrwt beam="2">  1       -2 0.60052394E-02 0.59132105E+03</pdfrwt>
<totfact> 0.11661908E+03</totfact>
</mgrwt>
</event>
<event>
 4    1  0.5626910E-005  0.6714699E+03  0.7818608E-02  0.9767306E-01
         -2   -1    0    0    0  501 -0.00000000000E+00  0.00000000000E+00  0.37075652823E+03  0.37075652823E+03  0.25500000000E-02 0. -1.
          2   -1    0    0  501    0  0.00000000000E+00 -0.00000000000E+00 -0.30402146977E+03  0.30402146978E+03  0.25500000000E-02 0.  1.
    5000001    1    1    2    0    0 -0.12926172409E+03 -0.21491774953E+03  0.14775146460E+03  0.34870148791E+03  0.19200000000E+03 0.  0.
   -5000001    1    1    2    0    0  0.12926172409E+03  0.21491774953E+03 -0.81016406145E+02  0.32607651011E+03  0.19200000000E+03 0.  0.
<mgrwt>
<rscale>  0 0.67146986E+03</rscale>
<asrwt>0</asrwt>
<pdfrwt beam="1">  1        2 0.43431638E-01 0.67146986E+03</pdfrwt>
<pdfrwt beam="2">  1       -2 0.52965218E-01 0.67146986E+03</pdfrwt>
<totfact> 0.39837947E+02</totfact>
</mgrwt>
</event>
<event>
 4    1  0.5626910E-005  0.8196317E+03  0.7818608E-02  0.9532028E-01
          2   -1    0    0  501    0  0.00000000000E+00  0.00000000000E+00  0.12746519410E+04  0.12746519410E+04  0.25500000000E-02 0.  1.
         -2   -1    0    0    0  501 -0.00000000000E+00 -0.00000000000E+00 -0.13176071060E+03  0.13176071063E+03  0.25500000000E-02 0. -1.
    5000001    1    1    2    0    0  0.32734623345E+03  0.68934035665E+02  0.33382124015E+03  0.51010594801E+03  0.19200000000E+03 0.  0.
   -5000001    1    1    2    0    0 -0.32734623345E+03 -0.68934035665E+02  0.80906999027E+03  0.89630670364E+03  0.19200000000E+03 0.  0.
<mgrwt>
<rscale>  0 0.81963174E+03</rscale>
<asrwt>0</asrwt>
<pdfrwt beam="1">  1        2 0.18209314E+00 0.81963174E+03</pdfrwt>
<pdfrwt beam="2">  1       -2 0.18822958E-01 0.81963174E+03</pdfrwt>
<totfact> 0.46184565E+02</totfact>
</mgrwt>
</event>
<event>
 4    1  0.5626910E-005  0.8563766E+03  0.7818608E-02  0.9481818E-01
         -2   -1    0    0    0  501 -0.00000000000E+00  0.00000000000E+00  0.24905733301E+03  0.24905733302E+03  0.25500000000E-02 0. -1.
          2   -1    0    0  501    0  0.00000000000E+00 -0.00000000000E+00 -0.73615661728E+03  0.73615661729E+03  0.25500000000E-02 0.  1.
    5000001    1    1    2    0    0 -0.33422495121E+03  0.75613036023E+01 -0.29190835198E+02  0.38662591246E+03  0.19200000000E+03 0.  0.
   -5000001    1    1    2    0    0  0.33422495121E+03 -0.75613036023E+01 -0.45790844907E+03  0.59858803785E+03  0.19200000000E+03 0.  0.
<mgrwt>
<rscale>  0 0.85637656E+03</rscale>
<asrwt>0</asrwt>
<pdfrwt beam="1">  1        2 0.10516523E+00 0.85637656E+03</pdfrwt>
<pdfrwt beam="2">  1       -2 0.35579619E-01 0.85637656E+03</pdfrwt>
<totfact> 0.31442404E+02</totfact>
</mgrwt>
</event>
<event>
 4    1  0.5626910E-005  0.6477627E+03  0.7818608E-02  0.9810986E-01
         -2   -1    0    0    0  501 -0.00000000000E+00  0.00000000000E+00  0.27750382710E+02  0.27750382828E+02  0.25500000000E-02 0. -1.
          2   -1    0    0  501    0  0.00000000000E+00 -0.00000000000E+00 -0.37800965437E+04  0.37800965437E+04  0.25500000000E-02 0.  1.
    5000001    1    1    2    0    0  0.24170518755E+03  0.65853870942E+02 -0.14491445096E+04  0.14831189904E+04  0.19200000000E+03 0.  0.
   -5000001    1    1    2    0    0 -0.24170518755E+03 -0.65853870942E+02 -0.23032016513E+04  0.23247279361E+04  0.19200000000E+03 0.  0.
<mgrwt>
<rscale>  0 0.64776269E+03</rscale>
<asrwt>0</asrwt>
<pdfrwt beam="1">  1        2 0.54001346E+00 0.64776269E+03</pdfrwt>
<pdfrwt beam="2">  1       -2 0.39643428E-02 0.64776269E+03</pdfrwt>
<totfact> 0.25811307E+02</totfact>
</mgrwt>
</event>
<event>
 4    1  0.5626910E-005  0.5322193E+03  0.7818608E-02  0.1005695E+00
         -2   -1    0    0    0  501 -0.00000000000E+00  0.00000000000E+00  0.49608144220E+02  0.49608144286E+02  0.25500000000E-02 0. -1.
          2   -1    0    0  501    0  0.00000000000E+00 -0.00000000000E+00 -0.14274741363E+04  0.14274741363E+04  0.25500000000E-02 0.  1.
    5000001    1    1    2    0    0  0.71511662164E+02 -0.16456893612E+03 -0.57271703893E+03  0.63013146187E+03  0.19200000000E+03 0.  0.
   -5000001    1    1    2    0    0 -0.71511662164E+02  0.16456893612E+03 -0.80514895313E+03  0.84695081869E+03  0.19200000000E+03 0.  0.
<mgrwt>
<rscale>  0 0.53221929E+03</rscale>
<asrwt>0</asrwt>
<pdfrwt beam="1">  1        2 0.20392485E+00 0.53221929E+03</pdfrwt>
<pdfrwt beam="2">  1       -2 0.70868786E-02 0.53221929E+03</pdfrwt>
<totfact> 0.19325384E+03</totfact>
</mgrwt>
</event>
<event>
 4    1  0.5626910E-005  0.6316490E+03  0.7818608E-02  0.9841836E-01
         -2   -1    0    0    0  501 -0.00000000000E+00  0.00000000000E+00  0.33719387642E+02  0.33719387738E+02  0.25500000000E-02 0. -1.
          2   -1    0    0  501    0  0.00000000000E+00 -0.00000000000E+00 -0.29580938538E+04  0.29580938538E+04  0.25500000000E-02 0.  1.
    5000001    1    1    2    0    0  0.11202247280E+03 -0.20111731661E+03 -0.99129347913E+03  0.10356273322E+04  0.19200000000E+03 0.  0.
   -5000001    1    1    2    0    0 -0.11202247280E+03  0.20111731661E+03 -0.19330809870E+04  0.19561859093E+04  0.19200000000E+03 0.  0.
<mgrwt>
<rscale>  0 0.63164900E+03</rscale>
<asrwt>0</asrwt>
<pdfrwt beam="1">  1        2 0.42258467E+00 0.63164900E+03</pdfrwt>
<pdfrwt beam="2">  1       -2 0.48170573E-02 0.63164900E+03</pdfrwt>
<totfact> 0.57618544E+02</totfact>
</mgrwt>
</event>
<event>
 4    1  0.5626910E-005  0.5393545E+03  0.7818608E-02  0.1003988E+00
         -2   -1    0    0    0  501 -0.00000000000E+00  0.00000000000E+00  0.61015950180E+02  0.61015950233E+02  0.25500000000E-02 0. -1.
          2   -1    0    0  501    0  0.00000000000E+00 -0.00000000000E+00 -0.11919150660E+04  0.11919150660E+04  0.25500000000E-02 0.  1.
    5000001    1    1    2    0    0  0.37740584784E+02 -0.68159796090E+02 -0.16448995896E+03  0.26455822826E+03  0.19200000000E+03 0.  0.
   -5000001    1    1    2    0    0 -0.37740584784E+02  0.68159796090E+02 -0.96640915684E+03  0.98837278795E+03  0.19200000000E+03 0.  0.
<mgrwt>
<rscale>  0 0.53935454E+03</rscale>
<asrwt>0</asrwt>
<pdfrwt beam="1">  1        2 0.17027357E+00 0.53935454E+03</pdfrwt>
<pdfrwt beam="2">  1       -2 0.87165650E-02 0.53935454E+03</pdfrwt>
<totfact> 0.18653295E+03</totfact>
</mgrwt>
</event>
<event>
 4    1  0.5626910E-005  0.6017797E+03  0.7818608E-02  0.9901721E-01
         -2   -1    0    0    0  501 -0.00000000000E+00  0.00000000000E+00  0.42398662820E+02  0.42398662897E+02  0.25500000000E-02 0. -1.
          2   -1    0    0  501    0  0.00000000000E+00 -0.00000000000E+00 -0.21353195120E+04  0.21353195120E+04  0.25500000000E-02 0.  1.
    5000001    1    1    2    0    0 -0.38829546488E+02  0.60434135611E+02 -0.24941546736E+03  0.32284995553E+03  0.19200000000E+03 0.  0.
   -5000001    1    1    2    0    0  0.38829546488E+02 -0.60434135611E+02 -0.18435053818E+04  0.18548682194E+04  0.19200000000E+03 0.  0.
<mgrwt>
<rscale>  0 0.60177967E+03</rscale>
<asrwt>0</asrwt>
<pdfrwt beam="1">  1        2 0.30504558E+00 0.60177967E+03</pdfrwt>
<pdfrwt beam="2">  1       -2 0.60569532E-02 0.60177967E+03</pdfrwt>
<totfact> 0.10780190E+03</totfact>
</mgrwt>
</event>
<event>
 4    1  0.5626910E-005  0.8326348E+03  0.7818608E-02  0.9513945E-01
         -2   -1    0    0    0  501 -0.00000000000E+00  0.00000000000E+00  0.10612230907E+03  0.10612230910E+03  0.25500000000E-02 0. -1.
          2   -1    0    0  501    0  0.00000000000E+00 -0.00000000000E+00 -0.16332113309E+04  0.16332113309E+04  0.25500000000E-02 0.  1.
    5000001    1    1    2    0    0  0.73408764851E+02 -0.32241230108E+03 -0.11075411035E+04  0.11716867476E+04  0.19200000000E+03 0.  0.
   -5000001    1    1    2    0    0 -0.73408764851E+02  0.32241230108E+03 -0.41954791838E+03  0.56764689241E+03  0.19200000000E+03 0.  0.
<mgrwt>
<rscale>  0 0.83263475E+03</rscale>
<asrwt>0</asrwt>
<pdfrwt beam="1">  1        2 0.23331589E+00 0.83263475E+03</pdfrwt>
<pdfrwt beam="2">  1       -2 0.15160331E-01 0.83263475E+03</pdfrwt>
<totfact> 0.43099856E+02</totfact>
</mgrwt>
</event>
<event>
 4    1  0.5626910E-005  0.4196218E+03  0.7818608E-02  0.1037189E+00
         -2   -1    0    0    0  501 -0.00000000000E+00  0.00000000000E+00  0.23532861252E+02  0.23532861390E+02  0.25500000000E-02 0. -1.
          2   -1    0    0  501    0  0.00000000000E+00 -0.00000000000E+00 -0.18706020745E+04  0.18706020745E+04  0.25500000000E-02 0.  1.
    5000001    1    1    2    0    0 -0.61807342158E+02 -0.57549239035E+02 -0.94590318018E+03  0.96888022414E+03  0.19200000000E+03 0.  0.
   -5000001    1    1    2    0    0  0.61807342158E+02  0.57549239035E+02 -0.90116603305E+03  0.92525471173E+03  0.19200000000E+03 0.  0.
<mgrwt>
<rscale>  0 0.41962183E+03</rscale>
<asrwt>0</asrwt>
<pdfrwt beam="1">  1        2 0.26722877E+00 0.41962183E+03</pdfrwt>
<pdfrwt beam="2">  1       -2 0.33618385E-02 0.41962183E+03</pdfrwt>
<totfact> 0.36431168E+03</totfact>
</mgrwt>
</event>
<event>
 4    1  0.5626910E-005  0.6103814E+03  0.7818608E-02  0.9884099E-01
         -2   -1    0    0    0  501 -0.00000000000E+00  0.00000000000E+00  0.10810184328E+03  0.10810184331E+03  0.25500000000E-02 0. -1.
          2   -1    0    0  501    0  0.00000000000E+00 -0.00000000000E+00 -0.86160740655E+03  0.86160740655E+03  0.25500000000E-02 0.  1.
    5000001    1    1    2    0    0 -0.12394486861E+03 -0.16173351174E+03 -0.56974668093E+03  0.63481913937E+03  0.19200000000E+03 0.  0.
   -5000001    1    1    2    0    0  0.12394486861E+03  0.16173351174E+03 -0.18375888233E+03  0.33489011050E+03  0.19200000000E+03 0.  0.
<mgrwt>
<rscale>  0 0.61038135E+03</rscale>
<asrwt>0</asrwt>
<pdfrwt beam="1">  1        2 0.12308677E+00 0.61038135E+03</pdfrwt>
<pdfrwt beam="2">  1       -2 0.15443121E-01 0.61038135E+03</pdfrwt>
<totfact> 0.11533586E+03</totfact>
</mgrwt>
</event>
<event>
 4    1  0.5626910E-005  0.4937986E+03  0.7818608E-02  0.1015410E+00
          2   -1    0    0  501    0  0.00000000000E+00  0.00000000000E+00  0.98314645972E+02  0.98314646005E+02  0.25500000000E-02 0.  1.
         -2   -1    0    0    0  501 -0.00000000000E+00 -0.00000000000E+00 -0.62004266746E+03  0.62004266746E+03  0.25500000000E-02 0. -1.
    5000001    1    1    2    0    0 -0.14747616188E+03 -0.63014635049E+01 -0.33072795460E+03  0.40991939051E+03  0.19200000000E+03 0.  0.
   -5000001    1    1    2    0    0  0.14747616188E+03  0.63014635049E+01 -0.19100006689E+03  0.30843792295E+03  0.19200000000E+03 0.  0.
<mgrwt>
<rscale>  0 0.49379864E+03</rscale>
<asrwt>0</asrwt>
<pdfrwt beam="1">  1        2 0.14044950E-01 0.49379864E+03</pdfrwt>
<pdfrwt beam="2">  1       -2 0.88577521E-01 0.49379864E+03</pdfrwt>
<totfact> 0.48078752E+02</totfact>
</mgrwt>
</event>
<event>
 4    1  0.5626910E-005  0.5989090E+03  0.7818608E-02  0.9907672E-01
          2   -1    0    0  501    0  0.00000000000E+00  0.00000000000E+00  0.21823407482E+04  0.21823407482E+04  0.25500000000E-02 0.  1.
         -2   -1    0    0    0  501 -0.00000000000E+00 -0.00000000000E+00 -0.41090286589E+02  0.41090286668E+02  0.25500000000E-02 0. -1.
    5000001    1    1    2    0    0 -0.18325119700E+03  0.13684599467E+03  0.98751405799E+03  0.10316762293E+04  0.19200000000E+03 0.  0.
   -5000001    1    1    2    0    0  0.18325119700E+03 -0.13684599467E+03  0.11537364036E+04  0.11917548055E+04  0.19200000000E+03 0.  0.
<mgrwt>
<rscale>  0 0.59890903E+03</rscale>
<asrwt>0</asrwt>
<pdfrwt beam="1">  1        2 0.31176302E+00 0.59890903E+03</pdfrwt>
<pdfrwt beam="2">  1       -2 0.58700399E-02 0.59890903E+03</pdfrwt>
<totfact> 0.10723839E+03</totfact>
</mgrwt>
</event>
<event>
 4    1  0.5626910E-005  0.4431566E+03  0.7818608E-02  0.1029783E+00
         -2   -1    0    0    0  501 -0.00000000000E+00  0.00000000000E+00  0.13183490934E+03  0.13183490937E+03  0.25500000000E-02 0. -1.
          2   -1    0    0  501    0  0.00000000000E+00 -0.00000000000E+00 -0.37241222653E+03  0.37241222654E+03  0.25500000000E-02 0.  1.
    5000001    1    1    2    0    0 -0.56787822313E+02 -0.70084979352E+02 -0.47464528117E+02  0.21737902963E+03  0.19200000000E+03 0.  0.
   -5000001    1    1    2    0    0  0.56787822313E+02  0.70084979352E+02 -0.19311278907E+03  0.28686810627E+03  0.19200000000E+03 0.  0.
<mgrwt>
<rscale>  0 0.44315655E+03</rscale>
<asrwt>0</asrwt>
<pdfrwt beam="1">  1        2 0.53201746E-01 0.44315655E+03</pdfrwt>
<pdfrwt beam="2">  1       -2 0.18833559E-01 0.44315655E+03</pdfrwt>
<totfact> 0.22000363E+03</totfact>
</mgrwt>
</event>
<event>
 4    1  0.5626910E-005  0.1140897E+04  0.7818608E-02  0.9166223E-01
         -2   -1    0    0    0  501 -0.00000000000E+00  0.00000000000E+00  0.42216317609E+03  0.42216317610E+03  0.25500000000E-02 0. -1.
          2   -1    0    0  501    0  0.00000000000E+00 -0.00000000000E+00 -0.77081902849E+03  0.77081902850E+03  0.25500000000E-02 0.  1.
    5000001    1    1    2    0    0  0.63430364752E+02 -0.37619475273E+03 -0.56974724875E+03  0.71205465423E+03  0.19200000000E+03 0.  0.
   -5000001    1    1    2    0    0 -0.63430364752E+02  0.37619475273E+03  0.22109139635E+03  0.48092755036E+03  0.19200000000E+03 0.  0.
<mgrwt>
<rscale>  0 0.11408969E+04</rscale>
<asrwt>0</asrwt>
<pdfrwt beam="1">  1        2 0.11011700E+00 0.11408969E+04</pdfrwt>
<pdfrwt beam="2">  1       -2 0.60309025E-01 0.11408969E+04</pdfrwt>
<totfact> 0.10123770E+02</totfact>
</mgrwt>
</event>
<event>
 4    1  0.5626910E-005  0.4231359E+03  0.7818608E-02  0.1036051E+00
          2   -1    0    0  501    0  0.00000000000E+00  0.00000000000E+00  0.10695428245E+04  0.10695428245E+04  0.25500000000E-02 0.  1.
         -2   -1    0    0    0  501 -0.00000000000E+00 -0.00000000000E+00 -0.41850581720E+02  0.41850581798E+02  0.25500000000E-02 0. -1.
    5000001    1    1    2    0    0  0.70829870199E+02  0.30872837840E+02  0.39854664087E+03  0.44908064708E+03  0.19200000000E+03 0.  0.
   -5000001    1    1    2    0    0 -0.70829870199E+02 -0.30872837840E+02  0.62914560187E+03  0.66231275918E+03  0.19200000000E+03 0.  0.
<mgrwt>
<rscale>  0 0.42313586E+03</rscale>
<asrwt>0</asrwt>
<pdfrwt beam="1">  1        2 0.15279185E+00 0.42313586E+03</pdfrwt>
<pdfrwt beam="2">  1       -2 0.59786540E-02 0.42313586E+03</pdfrwt>
<totfact> 0.39671203E+03</totfact>
</mgrwt>
</event>
<event>
 4    1  0.5626910E-005  0.7597781E+03  0.7818608E-02  0.9620134E-01
         -2   -1    0    0    0  501 -0.00000000000E+00  0.00000000000E+00  0.60422658192E+02  0.60422658246E+02  0.25500000000E-02 0. -1.
          2   -1    0    0  501    0  0.00000000000E+00 -0.00000000000E+00 -0.23884367429E+04  0.23884367429E+04  0.25500000000E-02 0.  1.
    5000001    1    1    2    0    0 -0.20478399896E+03  0.20924003031E+03 -0.16391727691E+04  0.16761471425E+04  0.19200000000E+03 0.  0.
   -5000001    1    1    2    0    0  0.20478399896E+03 -0.20924003031E+03 -0.68884131567E+03  0.77271225866E+03  0.19200000000E+03 0.  0.
<mgrwt>
<rscale>  0 0.75977812E+03</rscale>
<asrwt>0</asrwt>
<pdfrwt beam="1">  1        2 0.34120519E+00 0.75977812E+03</pdfrwt>
<pdfrwt beam="2">  1       -2 0.86318098E-02 0.75977812E+03</pdfrwt>
<totfact> 0.45211684E+02</totfact>
</mgrwt>
</event>
<event>
 4    1  0.5626910E-005  0.5215090E+03  0.7818608E-02  0.1008312E+00
         -2   -1    0    0    0  501 -0.00000000000E+00  0.00000000000E+00  0.55989071850E+02  0.55989071908E+02  0.25500000000E-02 0. -1.
          2   -1    0    0  501    0  0.00000000000E+00 -0.00000000000E+00 -0.12143962657E+04  0.12143962657E+04  0.25500000000E-02 0.  1.
    5000001    1    1    2    0    0 -0.15234028373E+03  0.86045431408E+02 -0.52378618740E+03  0.58466002807E+03  0.19200000000E+03 0.  0.
   -5000001    1    1    2    0    0  0.15234028373E+03 -0.86045431408E+02 -0.63462100643E+03  0.68572530952E+03  0.19200000000E+03 0.  0.
<mgrwt>
<rscale>  0 0.52150904E+03</rscale>
<asrwt>0</asrwt>
<pdfrwt beam="1">  1        2 0.17348516E+00 0.52150904E+03</pdfrwt>
<pdfrwt beam="2">  1       -2 0.79984396E-02 0.52150904E+03</pdfrwt>
<totfact> 0.20790840E+03</totfact>
</mgrwt>
</event>
<event>
 4    1  0.5626910E-005  0.4157052E+03  0.7818608E-02  0.1038473E+00
         -2   -1    0    0    0  501 -0.00000000000E+00  0.00000000000E+00  0.10027746177E+03  0.10027746180E+03  0.25500000000E-02 0. -1.
          2   -1    0    0  501    0  0.00000000000E+00 -0.00000000000E+00 -0.43083168773E+03  0.43083168774E+03  0.25500000000E-02 0.  1.
    5000001    1    1    2    0    0  0.79467527037E+02  0.61789072572E+00 -0.15911822918E+03  0.26172137952E+03  0.19200000000E+03 0.  0.
   -5000001    1    1    2    0    0 -0.79467527037E+02 -0.61789072572E+00 -0.17143599679E+03  0.26938777002E+03  0.19200000000E+03 0.  0.
<mgrwt>
<rscale>  0 0.41570522E+03</rscale>
<asrwt>0</asrwt>
<pdfrwt beam="1">  1        2 0.61547383E-01 0.41570522E+03</pdfrwt>
<pdfrwt beam="2">  1       -2 0.14325352E-01 0.41570522E+03</pdfrwt>
<totfact> 0.29716957E+03</totfact>
</mgrwt>
</event>
<event>
 4    1  0.5626910E-005  0.7498169E+03  0.7818608E-02  0.9635638E-01
         -2   -1    0    0    0  501 -0.00000000000E+00  0.00000000000E+00  0.44319238400E+02  0.44319238473E+02  0.25500000000E-02 0. -1.
          2   -1    0    0  501    0  0.00000000000E+00 -0.00000000000E+00 -0.31714524294E+04  0.31714524294E+04  0.25500000000E-02 0.  1.
    5000001    1    1    2    0    0 -0.26760149263E+03  0.12003579692E+03 -0.99341857437E+03  0.10534531861E+04  0.19200000000E+03 0.  0.
   -5000001    1    1    2    0    0  0.26760149263E+03 -0.12003579692E+03 -0.21337146166E+04  0.21623184818E+04  0.19200000000E+03 0.  0.
<mgrwt>
<rscale>  0 0.74981693E+03</rscale>
<asrwt>0</asrwt>
<pdfrwt beam="1">  1        2 0.45306449E+00 0.74981693E+03</pdfrwt>
<pdfrwt beam="2">  1       -2 0.63313218E-02 0.74981693E+03</pdfrwt>
<totfact> 0.28324189E+02</totfact>
</mgrwt>
</event>
<event>
 4    1  0.5626910E-005  0.8129241E+03  0.7818608E-02  0.9541496E-01
          2   -1    0    0  501    0  0.00000000000E+00  0.00000000000E+00  0.21696801980E+04  0.21696801980E+04  0.25500000000E-02 0.  1.
         -2   -1    0    0    0  501 -0.00000000000E+00 -0.00000000000E+00 -0.76145502056E+02  0.76145502099E+02  0.25500000000E-02 0. -1.
    5000001    1    1    2    0    0  0.27126176204E+03  0.20496359965E+03  0.73476668159E+03  0.83206916605E+03  0.19200000000E+03 0.  0.
   -5000001    1    1    2    0    0 -0.27126176204E+03 -0.20496359965E+03  0.13587680143E+04  0.14137565340E+04  0.19200000000E+03 0.  0.
<mgrwt>
<rscale>  0 0.81292408E+03</rscale>
<asrwt>0</asrwt>
<pdfrwt beam="1">  1        2 0.30995434E+00 0.81292408E+03</pdfrwt>
<pdfrwt beam="2">  1       -2 0.10877928E-01 0.81292408E+03</pdfrwt>
<totfact> 0.39985114E+02</totfact>
</mgrwt>
</event>
<event>
 4    1  0.5626910E-005  0.4266692E+03  0.7818608E-02  0.1034917E+00
          2   -1    0    0  501    0  0.00000000000E+00  0.00000000000E+00  0.29805856075E+04  0.29805856075E+04  0.25500000000E-02 0.  1.
         -2   -1    0    0    0  501 -0.00000000000E+00 -0.00000000000E+00 -0.15269364914E+02  0.15269365127E+02  0.25500000000E-02 0. -1.
    5000001    1    1    2    0    0  0.61183162096E+02  0.60098451027E+02  0.12302311333E+04  0.12480736534E+04  0.19200000000E+03 0.  0.
   -5000001    1    1    2    0    0 -0.61183162096E+02 -0.60098451027E+02  0.17350851093E+04  0.17477813192E+04  0.19200000000E+03 0.  0.
<mgrwt>
<rscale>  0 0.42666919E+03</rscale>
<asrwt>0</asrwt>
<pdfrwt beam="1">  1        2 0.42579781E+00 0.42666919E+03</pdfrwt>
<pdfrwt beam="2">  1       -2 0.21813386E-02 0.42666919E+03</pdfrwt>
<totfact> 0.19032702E+03</totfact>
</mgrwt>
</event>
<event>
 4    1  0.5626910E-005  0.1222239E+04  0.7818608E-02  0.9093610E-01
          2   -1    0    0  501    0  0.00000000000E+00  0.00000000000E+00  0.61453268285E+03  0.61453268286E+03  0.25500000000E-02 0.  1.
         -2   -1    0    0    0  501 -0.00000000000E+00 -0.00000000000E+00 -0.60772524643E+03  0.60772524643E+03  0.25500000000E-02 0. -1.
    5000001    1    1    2    0    0  0.38836826776E+03  0.27672381362E+03  0.33385860635E+03  0.61296945231E+03  0.19200000000E+03 0.  0.
   -5000001    1    1    2    0    0 -0.38836826776E+03 -0.27672381362E+03 -0.32705116993E+03  0.60928847698E+03  0.19200000000E+03 0.  0.
<mgrwt>
<rscale>  0 0.12222390E+04</rscale>
<asrwt>0</asrwt>
<pdfrwt beam="1">  1        2 0.87790384E-01 0.12222390E+04</pdfrwt>
<pdfrwt beam="2">  1       -2 0.86817892E-01 0.12222390E+04</pdfrwt>
<totfact> 0.59737405E+01</totfact>
</mgrwt>
</event>
<event>
 4    1  0.5626910E-005  0.5984067E+03  0.7818608E-02  0.9908717E-01
         -2   -1    0    0    0  501 -0.00000000000E+00  0.00000000000E+00  0.11170651167E+03  0.11170651170E+03  0.25500000000E-02 0. -1.
          2   -1    0    0  501    0  0.00000000000E+00 -0.00000000000E+00 -0.80140932525E+03  0.80140932526E+03  0.25500000000E-02 0.  1.
    5000001    1    1    2    0    0  0.19826477782E+02  0.21881387971E+03 -0.44590821644E+03  0.53288905099E+03  0.19200000000E+03 0.  0.
   -5000001    1    1    2    0    0 -0.19826477782E+02 -0.21881387971E+03 -0.24379459714E+03  0.38022678597E+03  0.19200000000E+03 0.  0.
<mgrwt>
<rscale>  0 0.59840668E+03</rscale>
<asrwt>0</asrwt>
<pdfrwt beam="1">  1        2 0.11448704E+00 0.59840668E+03</pdfrwt>
<pdfrwt beam="2">  1       -2 0.15958074E-01 0.59840668E+03</pdfrwt>
<totfact> 0.11987515E+03</totfact>
</mgrwt>
</event>
<event>
 4    1  0.5626910E-005  0.7081114E+03  0.7818608E-02  0.9703460E-01
          2   -1    0    0  501    0  0.00000000000E+00  0.00000000000E+00  0.11564835720E+04  0.11564835720E+04  0.25500000000E-02 0.  1.
         -2   -1    0    0    0  501 -0.00000000000E+00 -0.00000000000E+00 -0.10839361968E+03  0.10839361971E+03  0.25500000000E-02 0. -1.
    5000001    1    1    2    0    0 -0.18981887249E+02  0.20214289264E+03  0.91240697023E+03  0.95423924694E+03  0.19200000000E+03 0.  0.
   -5000001    1    1    2    0    0  0.18981887249E+02 -0.20214289264E+03  0.13568298206E+03  0.31063794473E+03  0.19200000000E+03 0.  0.
<mgrwt>
<rscale>  0 0.70811141E+03</rscale>
<asrwt>0</asrwt>
<pdfrwt beam="1">  1        2 0.16521195E+00 0.70811141E+03</pdfrwt>
<pdfrwt beam="2">  1       -2 0.15484802E-01 0.70811141E+03</pdfrwt>
<totfact> 0.75585916E+02</totfact>
</mgrwt>
</event>
<event>
 4    1  0.5626910E-005  0.5070358E+03  0.7818608E-02  0.1011959E+00
          2   -1    0    0  501    0  0.00000000000E+00  0.00000000000E+00  0.26822511469E+04  0.26822511469E+04  0.25500000000E-02 0.  1.
         -2   -1    0    0    0  501 -0.00000000000E+00 -0.00000000000E+00 -0.23961712134E+02  0.23961712269E+02  0.25500000000E-02 0. -1.
    5000001    1    1    2    0    0  0.52013921848E+02 -0.17478594814E+02  0.21627990563E+04  0.21719978608E+04  0.19200000000E+03 0.  0.
   -5000001    1    1    2    0    0 -0.52013921848E+02  0.17478594814E+02  0.49549037847E+03  0.53421499839E+03  0.19200000000E+03 0.  0.
<mgrwt>
<rscale>  0 0.50703582E+03</rscale>
<asrwt>0</asrwt>
<pdfrwt beam="1">  1        2 0.38317857E+00 0.50703582E+03</pdfrwt>
<pdfrwt beam="2">  1       -2 0.34231032E-02 0.50703582E+03</pdfrwt>
<totfact> 0.13779146E+03</totfact>
</mgrwt>
</event>
<event>
 4    1  0.5626910E-005  0.6348769E+03  0.7818608E-02  0.9835578E-01
          2   -1    0    0  501    0  0.00000000000E+00  0.00000000000E+00  0.10260171482E+04  0.10260171482E+04  0.25500000000E-02 0.  1.
         -2   -1    0    0    0  501 -0.00000000000E+00 -0.00000000000E+00 -0.98211959179E+02  0.98211959212E+02  0.25500000000E-02 0. -1.
    5000001    1    1    2    0    0 -0.21024234761E+03  0.13839120422E+03  0.50540032386E+03  0.59636185113E+03  0.19200000000E+03 0.  0.
   -5000001    1    1    2    0    0  0.21024234761E+03 -0.13839120422E+03  0.42240486514E+03  0.52786725626E+03  0.19200000000E+03 0.  0.
<mgrwt>
<rscale>  0 0.63487685E+03</rscale>
<asrwt>0</asrwt>
<pdfrwt beam="1">  1        2 0.14657388E+00 0.63487685E+03</pdfrwt>
<pdfrwt beam="2">  1       -2 0.14030280E-01 0.63487685E+03</pdfrwt>
<totfact> 0.10669147E+03</totfact>
</mgrwt>
</event>
<event>
 4    1  0.5626910E-005  0.8408408E+03  0.7818608E-02  0.9502713E-01
         -2   -1    0    0    0  501 -0.00000000000E+00  0.00000000000E+00  0.19373528843E+03  0.19373528845E+03  0.25500000000E-02 0. -1.
          2   -1    0    0  501    0  0.00000000000E+00 -0.00000000000E+00 -0.91234435430E+03  0.91234435430E+03  0.25500000000E-02 0.  1.
    5000001    1    1    2    0    0  0.33966948135E+03  0.15459597541E+03 -0.39190062080E+03  0.57421717909E+03  0.19200000000E+03 0.  0.
   -5000001    1    1    2    0    0 -0.33966948135E+03 -0.15459597541E+03 -0.32670844506E+03  0.53186246366E+03  0.19200000000E+03 0.  0.
<mgrwt>
<rscale>  0 0.84084076E+03</rscale>
<asrwt>0</asrwt>
<pdfrwt beam="1">  1        2 0.13033491E+00 0.84084076E+03</pdfrwt>
<pdfrwt beam="2">  1       -2 0.27676470E-01 0.84084076E+03</pdfrwt>
<totfact> 0.38054535E+02</totfact>
</mgrwt>
</event>
<event>
 4    1  0.5626910E-005  0.5356186E+03  0.7818608E-02  0.1004879E+00
          2   -1    0    0  501    0  0.00000000000E+00  0.00000000000E+00  0.26583453709E+03  0.26583453710E+03  0.25500000000E-02 0. -1.
         -2   -1    0    0    0  501 -0.00000000000E+00 -0.00000000000E+00 -0.26979870459E+03  0.26979870461E+03  0.25500000000E-02 0.  1.
    5000001    1    1    2    0    0  0.11649610694E+03  0.10438610089E+03 -0.10391628746E+03  0.26857102560E+03  0.19200000000E+03 0.  0.
   -5000001    1    1    2    0    0 -0.11649610694E+03 -0.10438610089E+03  0.99952119952E+02  0.26706221611E+03  0.19200000000E+03 0.  0.
<mgrwt>
<rscale>  0 0.53561857E+03</rscale>
<asrwt>0</asrwt>
<pdfrwt beam="1">  1        2 0.37976363E-01 0.53561857E+03</pdfrwt>
<pdfrwt beam="2">  1       -2 0.38542672E-01 0.53561857E+03</pdfrwt>
<totfact> 0.87082436E+02</totfact>
</mgrwt>
</event>
<event>
 4    1  0.5626910E-005  0.6452016E+03  0.7818608E-02  0.9815825E-01
         -2   -1    0    0    0  501 -0.00000000000E+00  0.00000000000E+00  0.68621031446E+03  0.68621031447E+03  0.25500000000E-02 0. -1.
          2   -1    0    0  501    0  0.00000000000E+00 -0.00000000000E+00 -0.15166090980E+03  0.15166090982E+03  0.25500000000E-02 0.  1.
    5000001    1    1    2    0    0  0.20633738103E+03 -0.81574490963E+02  0.93154277176E+02  0.30784936534E+03  0.19200000000E+03 0.  0.
   -5000001    1    1    2    0    0 -0.20633738103E+03  0.81574490963E+02  0.44139512749E+03  0.53002185894E+03  0.19200000000E+03 0.  0.
<mgrwt>
<rscale>  0 0.64520161E+03</rscale>
<asrwt>0</asrwt>
<pdfrwt beam="1">  1        2 0.21665844E-01 0.64520161E+03</pdfrwt>
<pdfrwt beam="2">  1       -2 0.98030044E-01 0.64520161E+03</pdfrwt>
<totfact> 0.22644944E+02</totfact>
</mgrwt>
</event>
<event>
 4    1  0.5626910E-005  0.6518568E+03  0.7818608E-02  0.9803301E-01
         -2   -1    0    0    0  501 -0.00000000000E+00  0.00000000000E+00  0.17482186013E+03  0.17482186015E+03  0.25500000000E-02 0. -1.
          2   -1    0    0  501    0  0.00000000000E+00 -0.00000000000E+00 -0.60764333080E+03  0.60764333081E+03  0.25500000000E-02 0.  1.
    5000001    1    1    2    0    0 -0.24431011658E+03  0.26533393734E+02 -0.33012187294E+03  0.45413203481E+03  0.19200000000E+03 0.  0.
   -5000001    1    1    2    0    0  0.24431011658E+03 -0.26533393734E+02 -0.10269959773E+03  0.32833315614E+03  0.19200000000E+03 0.  0.
<mgrwt>
<rscale>  0 0.65185685E+03</rscale>
<asrwt>0</asrwt>
<pdfrwt beam="1">  1        2 0.86806189E-01 0.65185685E+03</pdfrwt>
<pdfrwt beam="2">  1       -2 0.24974552E-01 0.65185685E+03</pdfrwt>
<totfact> 0.77009359E+02</totfact>
</mgrwt>
</event>
<event>
 4    1  0.5626910E-005  0.8035116E+03  0.7818608E-02  0.9554948E-01
          2   -1    0    0  501    0  0.00000000000E+00  0.00000000000E+00  0.13607317137E+04  0.13607317137E+04  0.25500000000E-02 0.  1.
         -2   -1    0    0    0  501 -0.00000000000E+00 -0.00000000000E+00 -0.11861833738E+03  0.11861833741E+03  0.25500000000E-02 0. -1.
    5000001    1    1    2    0    0  0.25318959565E+03  0.12890304174E+03  0.10064717553E+04  0.10632828221E+04  0.19200000000E+03 0.  0.
   -5000001    1    1    2    0    0 -0.25318959565E+03 -0.12890304174E+03  0.23564162104E+03  0.41606722904E+03  0.19200000000E+03 0.  0.
<mgrwt>
<rscale>  0 0.80351163E+03</rscale>
<asrwt>0</asrwt>
<pdfrwt beam="1">  1        2 0.19439024E+00 0.80351163E+03</pdfrwt>
<pdfrwt beam="2">  1       -2 0.16945477E-01 0.80351163E+03</pdfrwt>
<totfact> 0.49717444E+02</totfact>
</mgrwt>
</event>
<event>
 4    1  0.5626910E-005  0.5285898E+03  0.7818608E-02  0.1006575E+00
          2   -1    0    0  501    0  0.00000000000E+00  0.00000000000E+00  0.54707733769E+03  0.54707733770E+03  0.25500000000E-02 0.  1.
         -2   -1    0    0    0  501 -0.00000000000E+00 -0.00000000000E+00 -0.12768173504E+03  0.12768173506E+03  0.25500000000E-02 0. -1.
    5000001    1    1    2    0    0  0.11862032616E+03 -0.82194141884E+02  0.68925612893E+02  0.24988277022E+03  0.19200000000E+03 0.  0.
   -5000001    1    1    2    0    0 -0.11862032616E+03  0.82194141884E+02  0.35046998977E+03  0.42487630255E+03  0.19200000000E+03 0.  0.
<mgrwt>
<rscale>  0 0.52858976E+03</rscale>
<asrwt>0</asrwt>
<pdfrwt beam="1">  1        2 0.78153905E-01 0.52858976E+03</pdfrwt>
<pdfrwt beam="2">  1       -2 0.18240248E-01 0.52858976E+03</pdfrwt>
<totfact> 0.15134803E+03</totfact>
</mgrwt>
</event>
<event>
 4    1  0.5626910E-005  0.6257703E+03  0.7818608E-02  0.9853338E-01
          2   -1    0    0  501    0  0.00000000000E+00  0.00000000000E+00  0.90012018278E+03  0.90012018278E+03  0.25500000000E-02 0.  1.
         -2   -1    0    0    0  501 -0.00000000000E+00 -0.00000000000E+00 -0.10876005911E+03  0.10876005914E+03  0.25500000000E-02 0. -1.
    5000001    1    1    2    0    0  0.13598910510E+03  0.20604418650E+03  0.41062082246E+03  0.51615957158E+03  0.19200000000E+03 0.  0.
   -5000001    1    1    2    0    0 -0.13598910510E+03 -0.20604418650E+03  0.38073930121E+03  0.49272067034E+03  0.19200000000E+03 0.  0.
<mgrwt>
<rscale>  0 0.62577032E+03</rscale>
<asrwt>0</asrwt>
<pdfrwt beam="1">  1        2 0.12858860E+00 0.62577032E+03</pdfrwt>
<pdfrwt beam="2">  1       -2 0.15537151E-01 0.62577032E+03</pdfrwt>
<totfact> 0.10768682E+03</totfact>
</mgrwt>
</event>
<event>
 4    1  0.5626910E-005  0.1110880E+04  0.7818608E-02  0.9194652E-01
         -2   -1    0    0    0  501 -0.00000000000E+00  0.00000000000E+00  0.16466709677E+03  0.16466709679E+03  0.25500000000E-02 0. -1.
          2   -1    0    0  501    0  0.00000000000E+00 -0.00000000000E+00 -0.18735608160E+04  0.18735608160E+04  0.25500000000E-02 0.  1.
    5000001    1    1    2    0    0 -0.15254060690E+03 -0.49825763106E+03 -0.87458914711E+03  0.10360016795E+04  0.19200000000E+03 0.  0.
   -5000001    1    1    2    0    0  0.15254060690E+03  0.49825763106E+03 -0.83430457211E+03  0.10022262333E+04  0.19200000000E+03 0.  0.
<mgrwt>
<rscale>  0 0.11108804E+04</rscale>
<asrwt>0</asrwt>
<pdfrwt beam="1">  1        2 0.26765153E+00 0.11108804E+04</pdfrwt>
<pdfrwt beam="2">  1       -2 0.23523872E-01 0.11108804E+04</pdfrwt>
<totfact> 0.14812014E+02</totfact>
</mgrwt>
</event>
<event>
 4    1  0.5626910E-005  0.7745830E+03  0.7818608E-02  0.9597554E-01
          2   -1    0    0  501    0  0.00000000000E+00  0.00000000000E+00  0.22130608096E+03  0.22130608098E+03  0.25500000000E-02 0.  1.
         -2   -1    0    0    0  501 -0.00000000000E+00 -0.00000000000E+00 -0.67777042732E+03  0.67777042732E+03  0.25500000000E-02 0. -1.
    5000001    1    1    2    0    0  0.31426589153E+03  0.11695685838E+03 -0.25869446383E+03  0.46500406764E+03  0.19200000000E+03 0.  0.
   -5000001    1    1    2    0    0 -0.31426589153E+03 -0.11695685838E+03 -0.19776988252E+03  0.43407244066E+03  0.19200000000E+03 0.  0.
<mgrwt>
<rscale>  0 0.77458303E+03</rscale>
<asrwt>0</asrwt>
<pdfrwt beam="1">  1        2 0.31615155E-01 0.77458303E+03</pdfrwt>
<pdfrwt beam="2">  1       -2 0.96824345E-01 0.77458303E+03</pdfrwt>
<totfact> 0.15069729E+02</totfact>
</mgrwt>
</event>
<event>
 4    1  0.5626910E-005  0.7035975E+03  0.7818608E-02  0.9711100E-01
         -2   -1    0    0    0  501 -0.00000000000E+00  0.00000000000E+00  0.21319291234E+03  0.21319291235E+03  0.25500000000E-02 0. -1.
          2   -1    0    0  501    0  0.00000000000E+00 -0.00000000000E+00 -0.58051816847E+03  0.58051816848E+03  0.25500000000E-02 0.  1.
    5000001    1    1    2    0    0  0.67361921539E+02 -0.28424901672E+03 -0.13906115671E+03  0.37621421728E+03  0.19200000000E+03 0.  0.
   -5000001    1    1    2    0    0 -0.67361921539E+02  0.28424901672E+03 -0.22826409943E+03  0.41749686355E+03  0.19200000000E+03 0.  0.
<mgrwt>
<rscale>  0 0.70359750E+03</rscale>
<asrwt>0</asrwt>
<pdfrwt beam="1">  1        2 0.82931167E-01 0.70359750E+03</pdfrwt>
<pdfrwt beam="2">  1       -2 0.30456130E-01 0.70359750E+03</pdfrwt>
<totfact> 0.56488187E+02</totfact>
</mgrwt>
</event>
<event>
 4    1  0.5626910E-005  0.5731987E+03  0.7818608E-02  0.9962625E-01
         -2   -1    0    0    0  501 -0.00000000000E+00  0.00000000000E+00  0.15114491962E+03  0.15114491964E+03  0.25500000000E-02 0. -1.
          2   -1    0    0  501    0  0.00000000000E+00 -0.00000000000E+00 -0.54344651904E+03  0.54344651904E+03  0.25500000000E-02 0.  1.
    5000001    1    1    2    0    0 -0.12879053545E+03  0.15430907492E+03 -0.28077520523E+03  0.39509113948E+03  0.19200000000E+03 0.  0.
   -5000001    1    1    2    0    0  0.12879053545E+03 -0.15430907492E+03 -0.11152639419E+03  0.29950029921E+03  0.19200000000E+03 0.  0.
<mgrwt>
<rscale>  0 0.57319868E+03</rscale>
<asrwt>0</asrwt>
<pdfrwt beam="1">  1        2 0.77635216E-01 0.57319868E+03</pdfrwt>
<pdfrwt beam="2">  1       -2 0.21592132E-01 0.57319868E+03</pdfrwt>
<totfact> 0.11375782E+03</totfact>
</mgrwt>
</event>
<event>
 4    1  0.5626910E-005  0.5290056E+03  0.7818608E-02  0.1006474E+00
         -2   -1    0    0    0  501 -0.00000000000E+00  0.00000000000E+00  0.17567458507E+02  0.17567458692E+02  0.25500000000E-02 0. -1.
          2   -1    0    0  501    0  0.00000000000E+00 -0.00000000000E+00 -0.39824617500E+04  0.39824617500E+04  0.25500000000E-02 0.  1.
    5000001    1    1    2    0    0 -0.84239315016E+01 -0.17398756536E+03 -0.23793381818E+04  0.23934194825E+04  0.19200000000E+03 0.  0.
   -5000001    1    1    2    0    0  0.84239315016E+01  0.17398756536E+03 -0.15855561097E+04  0.16066097262E+04  0.19200000000E+03 0.  0.
<mgrwt>
<rscale>  0 0.52900560E+03</rscale>
<asrwt>0</asrwt>
<pdfrwt beam="1">  1        2 0.56892253E+00 0.52900560E+03</pdfrwt>
<pdfrwt beam="2">  1       -2 0.25096395E-02 0.52900560E+03</pdfrwt>
<totfact> 0.38935576E+02</totfact>
</mgrwt>
</event>
<event>
 4    1  0.5626910E-005  0.9921075E+03  0.7818608E-02  0.9317244E-01
         -2   -1    0    0    0  501 -0.00000000000E+00  0.00000000000E+00  0.13567949100E+04  0.13567949100E+04  0.25500000000E-02 0. -1.
          2   -1    0    0  501    0  0.00000000000E+00 -0.00000000000E+00 -0.18136072332E+03  0.18136072334E+03  0.25500000000E-02 0.  1.
    5000001    1    1    2    0    0  0.40903877895E+03  0.14692929835E+03  0.80863772026E+03  0.93790186268E+03  0.19200000000E+03 0.  0.
   -5000001    1    1    2    0    0 -0.40903877895E+03 -0.14692929835E+03  0.36679646638E+03  0.60025377062E+03  0.19200000000E+03 0.  0.
<mgrwt>
<rscale>  0 0.99210747E+03</rscale>
<asrwt>0</asrwt>
<pdfrwt beam="1">  1        2 0.25908674E-01 0.99210747E+03</pdfrwt>
<pdfrwt beam="2">  1       -2 0.19382785E+00 0.99210747E+03</pdfrwt>
<totfact> 0.30767488E+01</totfact>
</mgrwt>
</event>
<event>
 4    1  0.5626910E-005  0.7793464E+03  0.7818608E-02  0.9590403E-01
          2   -1    0    0  501    0  0.00000000000E+00  0.00000000000E+00  0.24648952274E+04  0.24648952274E+04  0.25500000000E-02 0.  1.
         -2   -1    0    0    0  501 -0.00000000000E+00 -0.00000000000E+00 -0.61603113245E+02  0.61603113298E+02  0.25500000000E-02 0. -1.
    5000001    1    1    2    0    0 -0.86235820359E+02  0.12065810121E+03  0.21901940747E+04  0.22035900433E+04  0.19200000000E+03 0.  0.
   -5000001    1    1    2    0    0  0.86235820359E+02 -0.12065810121E+03  0.21309803942E+03  0.32290829736E+03  0.19200000000E+03 0.  0.
<mgrwt>
<rscale>  0 0.77934644E+03</rscale>
<asrwt>0</asrwt>
<pdfrwt beam="1">  1        2 0.35212793E+00 0.77934644E+03</pdfrwt>
<pdfrwt beam="2">  1       -2 0.88004438E-02 0.77934644E+03</pdfrwt>
<totfact> 0.39971250E+02</totfact>
</mgrwt>
</event>
<event>
 4    1  0.5626910E-005  0.4049558E+03  0.7818608E-02  0.1042077E+00
          2   -1    0    0  501    0  0.00000000000E+00  0.00000000000E+00  0.64484843298E+03  0.64484843298E+03  0.25500000000E-02 0.  1.
         -2   -1    0    0    0  501 -0.00000000000E+00 -0.00000000000E+00 -0.63576652023E+02  0.63576652074E+02  0.25500000000E-02 0. -1.
    5000001    1    1    2    0    0  0.52847930153E+02 -0.35139984270E+02  0.27266036025E+03  0.33946339164E+03  0.19200000000E+03 0.  0.
   -5000001    1    1    2    0    0 -0.52847930153E+02  0.35139984270E+02  0.30861142071E+03  0.36896169342E+03  0.19200000000E+03 0.  0.
<mgrwt>
<rscale>  0 0.40495582E+03</rscale>
<asrwt>0</asrwt>
<pdfrwt beam="1">  1        2 0.92121203E-01 0.40495582E+03</pdfrwt>
<pdfrwt beam="2">  1       -2 0.90823791E-02 0.40495582E+03</pdfrwt>
<totfact> 0.39407204E+03</totfact>
</mgrwt>
</event>
<event>
 4    1  0.5626910E-005  0.6650595E+03  0.7818608E-02  0.9778924E-01
         -2   -1    0    0    0  501 -0.00000000000E+00  0.00000000000E+00  0.74735510178E+02  0.74735510221E+02  0.25500000000E-02 0. -1.
          2   -1    0    0  501    0  0.00000000000E+00 -0.00000000000E+00 -0.14795649782E+04  0.14795649782E+04  0.25500000000E-02 0.  1.
    5000001    1    1    2    0    0 -0.25107334251E+02  0.20238667979E+03 -0.28355269558E+03  0.39856853559E+03  0.19200000000E+03 0.  0.
   -5000001    1    1    2    0    0  0.25107334251E+02 -0.20238667979E+03 -0.11212767725E+04  0.11557319529E+04  0.19200000000E+03 0.  0.
<mgrwt>
<rscale>  0 0.66505953E+03</rscale>
<asrwt>0</asrwt>
<pdfrwt beam="1">  1        2 0.21136641E+00 0.66505953E+03</pdfrwt>
<pdfrwt beam="2">  1       -2 0.10676502E-01 0.66505953E+03</pdfrwt>
<totfact> 0.93620636E+02</totfact>
</mgrwt>
</event>
<event>
 4    1  0.5626910E-005  0.7834554E+03  0.7818608E-02  0.9584278E-01
         -2   -1    0    0    0  501 -0.00000000000E+00  0.00000000000E+00  0.76945455290E+03  0.76945455291E+03  0.25500000000E-02 0. -1.
          2   -1    0    0  501    0  0.00000000000E+00 -0.00000000000E+00 -0.19942774355E+03  0.19942774356E+03  0.25500000000E-02 0.  1.
    5000001    1    1    2    0    0  0.26351164978E+03  0.14325085171E+03  0.48681334948E+03  0.60316700284E+03  0.19200000000E+03 0.  0.
   -5000001    1    1    2    0    0 -0.26351164978E+03 -0.14325085171E+03  0.83213459879E+02  0.36571529363E+03  0.19200000000E+03 0.  0.
<mgrwt>
<rscale>  0 0.78345539E+03</rscale>
<asrwt>0</asrwt>
<pdfrwt beam="1">  1        2 0.28489678E-01 0.78345539E+03</pdfrwt>
<pdfrwt beam="2">  1       -2 0.10992208E+00 0.78345539E+03</pdfrwt>
<totfact> 0.12518255E+02</totfact>
</mgrwt>
</event>
<event>
 4    1  0.5626910E-005  0.6167182E+03  0.7818608E-02  0.9871316E-01
         -2   -1    0    0    0  501 -0.00000000000E+00  0.00000000000E+00  0.61521608357E+02  0.61521608410E+02  0.25500000000E-02 0. -1.
          2   -1    0    0  501    0  0.00000000000E+00 -0.00000000000E+00 -0.15455598389E+04  0.15455598389E+04  0.25500000000E-02 0.  1.
    5000001    1    1    2    0    0 -0.40615742136E+02 -0.16287565885E+03 -0.29034594448E+03  0.38644907327E+03  0.19200000000E+03 0.  0.
   -5000001    1    1    2    0    0  0.40615742136E+02  0.16287565885E+03 -0.11936922861E+04  0.12206323740E+04  0.19200000000E+03 0.  0.
<mgrwt>
<rscale>  0 0.61671818E+03</rscale>
<asrwt>0</asrwt>
<pdfrwt beam="1">  1        2 0.22079424E+00 0.61671818E+03</pdfrwt>
<pdfrwt beam="2">  1       -2 0.87888021E-02 0.61671818E+03</pdfrwt>
<totfact> 0.11874911E+03</totfact>
</mgrwt>
</event>
<event>
 4    1  0.5626910E-005  0.5933622E+03  0.7818608E-02  0.9919274E-01
         -2   -1    0    0    0  501 -0.00000000000E+00  0.00000000000E+00  0.40961341804E+02  0.40961341883E+02  0.25500000000E-02 0. -1.
          2   -1    0    0  501    0  0.00000000000E+00 -0.00000000000E+00 -0.21488474934E+04  0.21488474934E+04  0.25500000000E-02 0.  1.
    5000001    1    1    2    0    0 -0.15634064736E+03 -0.16283388405E+03 -0.10019599298E+04  0.10448660071E+04  0.19200000000E+03 0.  0.
   -5000001    1    1    2    0    0  0.15634064736E+03  0.16283388405E+03 -0.11059262218E+04  0.11449428282E+04  0.19200000000E+03 0.  0.
<mgrwt>
<rscale>  0 0.59336221E+03</rscale>
<asrwt>0</asrwt>
<pdfrwt beam="1">  1        2 0.30697814E+00 0.59336221E+03</pdfrwt>
<pdfrwt beam="2">  1       -2 0.58516216E-02 0.59336221E+03</pdfrwt>
<totfact> 0.11206800E+03</totfact>
</mgrwt>
</event>
<event>
 4    1  0.5626910E-005  0.6418656E+03  0.7818608E-02  0.9822164E-01
         -2   -1    0    0    0  501 -0.00000000000E+00  0.00000000000E+00  0.34449164565E+02  0.34449164659E+02  0.25500000000E-02 0. -1.
          2   -1    0    0  501    0  0.00000000000E+00 -0.00000000000E+00 -0.29898508412E+04  0.29898508412E+04  0.25500000000E-02 0.  1.
    5000001    1    1    2    0    0 -0.98825268195E+02 -0.12227105494E+03 -0.51880543965E+03  0.57509975545E+03  0.19200000000E+03 0.  0.
   -5000001    1    1    2    0    0  0.98825268195E+02  0.12227105494E+03 -0.24365962369E+04  0.24492002504E+04  0.19200000000E+03 0.  0.
<mgrwt>
<rscale>  0 0.64186561E+03</rscale>
<asrwt>0</asrwt>
<pdfrwt beam="1">  1        2 0.42712138E+00 0.64186561E+03</pdfrwt>
<pdfrwt beam="2">  1       -2 0.49213111E-02 0.64186561E+03</pdfrwt>
<totfact> 0.53514924E+02</totfact>
</mgrwt>
</event>
<event>
 4    1  0.5626910E-005  0.4089440E+03  0.7818608E-02  0.1040726E+00
          2   -1    0    0  501    0  0.00000000000E+00  0.00000000000E+00  0.27763060064E+03  0.27763060065E+03  0.25500000000E-02 0.  1.
         -2   -1    0    0    0  501 -0.00000000000E+00 -0.00000000000E+00 -0.15059147025E+03  0.15059147027E+03  0.25500000000E-02 0. -1.
    5000001    1    1    2    0    0  0.41426756551E+02 -0.50814811324E+02  0.90144126162E+02  0.22200964999E+03  0.19200000000E+03 0.  0.
   -5000001    1    1    2    0    0 -0.41426756551E+02  0.50814811324E+02  0.36895004223E+02  0.20621242093E+03  0.19200000000E+03 0.  0.
<mgrwt>
<rscale>  0 0.40894401E+03</rscale>
<asrwt>0</asrwt>
<pdfrwt beam="1">  1        2 0.39661514E-01 0.40894401E+03</pdfrwt>
<pdfrwt beam="2">  1       -2 0.21513067E-01 0.40894401E+03</pdfrwt>
<totfact> 0.24069469E+03</totfact>
</mgrwt>
</event>
<event>
 4    1  0.5626910E-005  0.4531918E+03  0.7818608E-02  0.1026774E+00
          2   -1    0    0  501    0  0.00000000000E+00  0.00000000000E+00  0.29313373645E+03  0.29313373646E+03  0.25500000000E-02 0.  1.
         -2   -1    0    0    0  501 -0.00000000000E+00 -0.00000000000E+00 -0.17516136141E+03  0.17516136143E+03  0.25500000000E-02 0. -1.
    5000001    1    1    2    0    0 -0.11639678256E+03 -0.18926075207E+02  0.34201489628E+02  0.22790381569E+03  0.19200000000E+03 0.  0.
   -5000001    1    1    2    0    0  0.11639678256E+03  0.18926075207E+02  0.83770885413E+02  0.24039128220E+03  0.19200000000E+03 0.  0.
<mgrwt>
<rscale>  0 0.45319181E+03</rscale>
<asrwt>0</asrwt>
<pdfrwt beam="1">  1        2 0.41876248E-01 0.45319181E+03</pdfrwt>
<pdfrwt beam="2">  1       -2 0.25023052E-01 0.45319181E+03</pdfrwt>
<totfact> 0.17393098E+03</totfact>
</mgrwt>
</event>
<event>
 4    1  0.5626910E-005  0.1097628E+04  0.7818608E-02  0.9207507E-01
          2   -1    0    0  501    0  0.00000000000E+00  0.00000000000E+00  0.37255924751E+03  0.37255924752E+03  0.25500000000E-02 0.  1.
         -2   -1    0    0    0  501 -0.00000000000E+00 -0.00000000000E+00 -0.80845320874E+03  0.80845320874E+03  0.25500000000E-02 0. -1.
    5000001    1    1    2    0    0  0.11626761615E+03 -0.46062085187E+03 -0.42945884482E+03  0.66857208074E+03  0.19200000000E+03 0.  0.
   -5000001    1    1    2    0    0 -0.11626761615E+03  0.46062085187E+03 -0.64351164054E+01  0.51244037552E+03  0.19200000000E+03 0.  0.
<mgrwt>
<rscale>  0 0.10976278E+04</rscale>
<asrwt>0</asrwt>
<pdfrwt beam="1">  1        2 0.53222750E-01 0.10976278E+04</pdfrwt>
<pdfrwt beam="2">  1       -2 0.11549332E+00 0.10976278E+04</pdfrwt>
<totfact> 0.54293148E+01</totfact>
</mgrwt>
</event>
<event>
 4    1  0.5626910E-005  0.4715419E+03  0.7818608E-02  0.1021486E+00
          2   -1    0    0  501    0  0.00000000000E+00  0.00000000000E+00  0.24259488071E+04  0.24259488071E+04  0.25500000000E-02 0.  1.
         -2   -1    0    0    0  501 -0.00000000000E+00 -0.00000000000E+00 -0.22913899775E+02  0.22913899916E+02  0.25500000000E-02 0. -1.
    5000001    1    1    2    0    0 -0.31388602406E+02 -0.13304640273E+03  0.11697751812E+04  0.11932831032E+04  0.19200000000E+03 0.  0.
   -5000001    1    1    2    0    0  0.31388602406E+02  0.13304640273E+03  0.12332597261E+04  0.12555796039E+04  0.19200000000E+03 0.  0.
<mgrwt>
<rscale>  0 0.47154193E+03</rscale>
<asrwt>0</asrwt>
<pdfrwt beam="1">  1        2 0.34656379E+00 0.47154193E+03</pdfrwt>
<pdfrwt beam="2">  1       -2 0.32734174E-02 0.47154193E+03</pdfrwt>
<totfact> 0.20001606E+03</totfact>
</mgrwt>
</event>
<event>
 4    1  0.5626910E-005  0.4479604E+03  0.7818608E-02  0.1028332E+00
         -2   -1    0    0    0  501 -0.00000000000E+00  0.00000000000E+00  0.48709258946E+02  0.48709259013E+02  0.25500000000E-02 0. -1.
          2   -1    0    0  501    0  0.00000000000E+00 -0.00000000000E+00 -0.10299298823E+04  0.10299298823E+04  0.25500000000E-02 0.  1.
    5000001    1    1    2    0    0  0.72208495024E+02  0.89885404874E+02 -0.48312312632E+03  0.53250859894E+03  0.19200000000E+03 0.  0.
   -5000001    1    1    2    0    0 -0.72208495024E+02 -0.89885404874E+02 -0.49809749705E+03  0.54613054239E+03  0.19200000000E+03 0.  0.
<mgrwt>
<rscale>  0 0.44796036E+03</rscale>
<asrwt>0</asrwt>
<pdfrwt beam="1">  1        2 0.14713283E+00 0.44796036E+03</pdfrwt>
<pdfrwt beam="2">  1       -2 0.69584662E-02 0.44796036E+03</pdfrwt>
<totfact> 0.33041666E+03</totfact>
</mgrwt>
</event>
<event>
 4    1  0.5626910E-005  0.8828799E+03  0.7818608E-02  0.9447239E-01
         -2   -1    0    0    0  501 -0.00000000000E+00  0.00000000000E+00  0.14422910140E+03  0.14422910142E+03  0.25500000000E-02 0. -1.
          2   -1    0    0  501    0  0.00000000000E+00 -0.00000000000E+00 -0.13511090929E+04  0.13511090929E+04  0.25500000000E-02 0.  1.
    5000001    1    1    2    0    0  0.11675474545E+03 -0.37252508488E+03 -0.47671009915E+03  0.64538603028E+03  0.19200000000E+03 0.  0.
   -5000001    1    1    2    0    0 -0.11675474545E+03  0.37252508488E+03 -0.73016989230E+03  0.84995216399E+03  0.19200000000E+03 0.  0.
<mgrwt>
<rscale>  0 0.88287995E+03</rscale>
<asrwt>0</asrwt>
<pdfrwt beam="1">  1        2 0.19301558E+00 0.88287995E+03</pdfrwt>
<pdfrwt beam="2">  1       -2 0.20604158E-01 0.88287995E+03</pdfrwt>
<totfact> 0.35688960E+02</totfact>
</mgrwt>
</event>
<event>
 4    1  0.5626910E-005  0.4692097E+03  0.7818608E-02  0.1022143E+00
          2   -1    0    0  501    0  0.00000000000E+00  0.00000000000E+00  0.17712160921E+04  0.17712160921E+04  0.25500000000E-02 0.  1.
         -2   -1    0    0    0  501 -0.00000000000E+00 -0.00000000000E+00 -0.31074382486E+02  0.31074382591E+02  0.25500000000E-02 0. -1.
    5000001    1    1    2    0    0  0.92469498116E+02 -0.98097956750E+02  0.86516803677E+03  0.89641148422E+03  0.19200000000E+03 0.  0.
   -5000001    1    1    2    0    0 -0.92469498116E+02  0.98097956750E+02  0.87497367280E+03  0.90587899043E+03  0.19200000000E+03 0.  0.
<mgrwt>
<rscale>  0 0.46920975E+03</rscale>
<asrwt>0</asrwt>
<pdfrwt beam="1">  1        2 0.25303095E+00 0.46920975E+03</pdfrwt>
<pdfrwt beam="2">  1       -2 0.44391961E-02 0.46920975E+03</pdfrwt>
<totfact> 0.26714310E+03</totfact>
</mgrwt>
</event>
<event>
 4    1  0.5626910E-005  0.7523734E+03  0.7818608E-02  0.9631634E-01
         -2   -1    0    0    0  501 -0.00000000000E+00  0.00000000000E+00  0.11489083438E+03  0.11489083441E+03  0.25500000000E-02 0. -1.
          2   -1    0    0  501    0  0.00000000000E+00 -0.00000000000E+00 -0.12317469923E+04  0.12317469923E+04  0.25500000000E-02 0.  1.
    5000001    1    1    2    0    0 -0.20524067730E+03  0.24077001553E+03 -0.67927303381E+03  0.77354365775E+03  0.19200000000E+03 0.  0.
   -5000001    1    1    2    0    0  0.20524067730E+03 -0.24077001553E+03 -0.43758312415E+03  0.57309416900E+03  0.19200000000E+03 0.  0.
<mgrwt>
<rscale>  0 0.75237342E+03</rscale>
<asrwt>0</asrwt>
<pdfrwt beam="1">  1        2 0.17596385E+00 0.75237342E+03</pdfrwt>
<pdfrwt beam="2">  1       -2 0.16412977E-01 0.75237342E+03</pdfrwt>
<totfact> 0.61961217E+02</totfact>
</mgrwt>
</event>
<event>
 4    1  0.5626910E-005  0.9550607E+03  0.7818608E-02  0.9359255E-01
          2   -1    0    0  501    0  0.00000000000E+00  0.00000000000E+00  0.37005615723E+04  0.37005615723E+04  0.25500000000E-02 0.  1.
         -2   -1    0    0    0  501 -0.00000000000E+00 -0.00000000000E+00 -0.61621793424E+02  0.61621793477E+02  0.25500000000E-02 0. -1.
    5000001    1    1    2    0    0 -0.30018371264E+03  0.30631386531E+03  0.14844565728E+04  0.15570529092E+04  0.19200000000E+03 0.  0.
   -5000001    1    1    2    0    0  0.30018371264E+03 -0.30631386531E+03  0.21544832060E+04  0.22051304566E+04  0.19200000000E+03 0.  0.
<mgrwt>
<rscale>  0 0.95506071E+03</rscale>
<asrwt>0</asrwt>
<pdfrwt beam="1">  1        2 0.52865169E+00 0.95506071E+03</pdfrwt>
<pdfrwt beam="2">  1       -2 0.88031127E-02 0.95506071E+03</pdfrwt>
<totfact> 0.79463167E+01</totfact>
</mgrwt>
</event>
<event>
 4    1  0.5626910E-005  0.4386610E+03  0.7818608E-02  0.1031158E+00
          2   -1    0    0  501    0  0.00000000000E+00  0.00000000000E+00  0.18928050173E+04  0.18928050173E+04  0.25500000000E-02 0.  1.
         -2   -1    0    0    0  501 -0.00000000000E+00 -0.00000000000E+00 -0.25415116378E+02  0.25415116506E+02  0.25500000000E-02 0. -1.
    5000001    1    1    2    0    0  0.83957641934E+02 -0.34524799178E+01  0.65093859121E+03  0.68384636782E+03  0.19200000000E+03 0.  0.
   -5000001    1    1    2    0    0 -0.83957641934E+02  0.34524799178E+01  0.12164513097E+04  0.12343737660E+04  0.19200000000E+03 0.  0.
<mgrwt>
<rscale>  0 0.43866096E+03</rscale>
<asrwt>0</asrwt>
<pdfrwt beam="1">  1        2 0.27040061E+00 0.43866096E+03</pdfrwt>
<pdfrwt beam="2">  1       -2 0.36307324E-02 0.43866096E+03</pdfrwt>
<totfact> 0.31595331E+03</totfact>
</mgrwt>
</event>
<event>
 4    1  0.5626910E-005  0.5209882E+03  0.7818608E-02  0.1008441E+00
         -2   -1    0    0    0  501 -0.00000000000E+00  0.00000000000E+00  0.58659450343E+02  0.58659450398E+02  0.25500000000E-02 0. -1.
          2   -1    0    0  501    0  0.00000000000E+00 -0.00000000000E+00 -0.11567985975E+04  0.11567985975E+04  0.25500000000E-02 0.  1.
    5000001    1    1    2    0    0 -0.15331049892E+03  0.67218144996E+02 -0.67622868530E+03  0.72261443587E+03  0.19200000000E+03 0.  0.
   -5000001    1    1    2    0    0  0.15331049892E+03 -0.67218144996E+02 -0.42191046183E+03  0.49284361201E+03  0.19200000000E+03 0.  0.
<mgrwt>
<rscale>  0 0.52098818E+03</rscale>
<asrwt>0</asrwt>
<pdfrwt beam="1">  1        2 0.16525693E+00 0.52098818E+03</pdfrwt>
<pdfrwt beam="2">  1       -2 0.83799222E-02 0.52098818E+03</pdfrwt>
<totfact> 0.20794427E+03</totfact>
</mgrwt>
</event>
<event>
 4    1  0.5626910E-005  0.4685028E+03  0.7818608E-02  0.1022344E+00
          2   -1    0    0  501    0  0.00000000000E+00  0.00000000000E+00  0.51734899814E+02  0.51734899877E+02  0.25500000000E-02 0.  1.
         -2   -1    0    0    0  501 -0.00000000000E+00 -0.00000000000E+00 -0.10606714279E+04  0.10606714279E+04  0.25500000000E-02 0. -1.
    5000001    1    1    2    0    0 -0.17634500775E+02 -0.13257487704E+03 -0.53076467164E+03  0.58005362709E+03  0.19200000000E+03 0.  0.
   -5000001    1    1    2    0    0  0.17634500775E+02  0.13257487704E+03 -0.47817185649E+03  0.53235270073E+03  0.19200000000E+03 0.  0.
<mgrwt>
<rscale>  0 0.46850285E+03</rscale>
<asrwt>0</asrwt>
<pdfrwt beam="1">  1        2 0.73907006E-02 0.46850285E+03</pdfrwt>
<pdfrwt beam="2">  1       -2 0.15152448E+00 0.46850285E+03</pdfrwt>
<totfact> 0.29135290E+02</totfact>
</mgrwt>
</event>
<event>
 4    1  0.5626910E-005  0.4925878E+03  0.7818608E-02  0.1015732E+00
         -2   -1    0    0    0  501 -0.00000000000E+00  0.00000000000E+00  0.91082079197E+02  0.91082079232E+02  0.25500000000E-02 0. -1.
          2   -1    0    0  501    0  0.00000000000E+00 -0.00000000000E+00 -0.66600009539E+03  0.66600009539E+03  0.25500000000E-02 0.  1.
    5000001    1    1    2    0    0 -0.15362325277E+03  0.13956505504E+02 -0.28951278212E+03  0.38010069567E+03  0.19200000000E+03 0.  0.
   -5000001    1    1    2    0    0  0.15362325277E+03 -0.13956505504E+02 -0.28540523407E+03  0.37698147895E+03  0.19200000000E+03 0.  0.
<mgrwt>
<rscale>  0 0.49258775E+03</rscale>
<asrwt>0</asrwt>
<pdfrwt beam="1">  1        2 0.95142868E-01 0.49258775E+03</pdfrwt>
<pdfrwt beam="2">  1       -2 0.13011726E-01 0.49258775E+03</pdfrwt>
<totfact> 0.21214262E+03</totfact>
</mgrwt>
</event>
<event>
 4    1  0.5626910E-005  0.6707830E+03  0.7818608E-02  0.9768544E-01
         -2   -1    0    0    0  501 -0.00000000000E+00  0.00000000000E+00  0.83980093964E+02  0.83980094003E+02  0.25500000000E-02 0.  1.
          2   -1    0    0  501    0  0.00000000000E+00 -0.00000000000E+00 -0.13394537280E+04  0.13394537280E+04  0.25500000000E-02 0. -1.
    5000001    1    1    2    0    0 -0.16512862228E+03  0.13814110694E+03 -0.99080570389E+03  0.10319449453E+04  0.19200000000E+03 0.  0.
   -5000001    1    1    2    0    0  0.16512862228E+03 -0.13814110694E+03 -0.26466793017E+03  0.39148887671E+03  0.19200000000E+03 0.  0.
<mgrwt>
<rscale>  0 0.67078298E+03</rscale>
<asrwt>0</asrwt>
<pdfrwt beam="1">  1        2 0.19135052E+00 0.67078298E+03</pdfrwt>
<pdfrwt beam="2">  1       -2 0.11997157E-01 0.67078298E+03</pdfrwt>
<totfact> 0.91773888E+02</totfact>
</mgrwt>
</event>
<event>
 4    1  0.5626910E-005  0.5609372E+03  0.7818608E-02  0.9989936E-01
          2   -1    0    0  501    0  0.00000000000E+00  0.00000000000E+00  0.39189476505E+02  0.39189476588E+02  0.25500000000E-02 0.  1.
         -2   -1    0    0    0  501 -0.00000000000E+00 -0.00000000000E+00 -0.20072390922E+04  0.20072390922E+04  0.25500000000E-02 0. -1.
    5000001    1    1    2    0    0 -0.17903168540E+03 -0.61368357306E+02 -0.70190002255E+03  0.75189498024E+03  0.19200000000E+03 0.  0.
   -5000001    1    1    2    0    0  0.17903168540E+03  0.61368357306E+02 -0.12661495931E+04  0.12945335886E+04  0.19200000000E+03 0.  0.
<mgrwt>
<rscale>  0 0.56093725E+03</rscale>
<asrwt>0</asrwt>
<pdfrwt beam="1">  1        2 0.55984979E-02 0.56093725E+03</pdfrwt>
<pdfrwt beam="2">  1       -2 0.28674838E+00 0.56093725E+03</pdfrwt>
<totfact> 0.57399522E+01</totfact>
</mgrwt>
</event>
<event>
 4    1  0.5626910E-005  0.6141335E+03  0.7818608E-02  0.9876510E-01
         -2   -1    0    0    0  501 -0.00000000000E+00  0.00000000000E+00  0.68145187249E+02  0.68145187297E+02  0.25500000000E-02 0. -1.
          2   -1    0    0  501    0  0.00000000000E+00 -0.00000000000E+00 -0.13836633785E+04  0.13836633785E+04  0.25500000000E-02 0.  1.
    5000001    1    1    2    0    0  0.13486529165E+03 -0.10474366041E+03 -0.26031172288E+03  0.36576778748E+03  0.19200000000E+03 0.  0.
   -5000001    1    1    2    0    0 -0.13486529165E+03  0.10474366041E+03 -0.10552064684E+04  0.10860407784E+04  0.19200000000E+03 0.  0.
<mgrwt>
<rscale>  0 0.61413354E+03</rscale>
<asrwt>0</asrwt>
<pdfrwt beam="1">  1        2 0.19766618E+00 0.61413354E+03</pdfrwt>
<pdfrwt beam="2">  1       -2 0.97350276E-02 0.61413354E+03</pdfrwt>
<totfact> 0.12249445E+03</totfact>
</mgrwt>
</event>
<event>
 4    1  0.5626910E-005  0.6276511E+03  0.7818608E-02  0.9849643E-01
         -2   -1    0    0    0  501 -0.00000000000E+00  0.00000000000E+00  0.34269449202E+02  0.34269449297E+02  0.25500000000E-02 0. -1.
          2   -1    0    0  501    0  0.00000000000E+00 -0.00000000000E+00 -0.28738853515E+04  0.28738853515E+04  0.25500000000E-02 0.  1.
    5000001    1    1    2    0    0  0.61005757416E+01  0.24617734878E+03 -0.15650014110E+04  0.15958489654E+04  0.19200000000E+03 0.  0.
   -5000001    1    1    2    0    0 -0.61005757416E+01 -0.24617734878E+03 -0.12746144913E+04  0.13123058354E+04  0.19200000000E+03 0.  0.
<mgrwt>
<rscale>  0 0.62765108E+03</rscale>
<asrwt>0</asrwt>
<pdfrwt beam="1">  1        2 0.41055490E+00 0.62765108E+03</pdfrwt>
<pdfrwt beam="2">  1       -2 0.48956374E-02 0.62765108E+03</pdfrwt>
<totfact> 0.62396086E+02</totfact>
</mgrwt>
</event>
<event>
 4    1  0.5626910E-005  0.5390804E+03  0.7818608E-02  0.1004053E+00
          2   -1    0    0  501    0  0.00000000000E+00  0.00000000000E+00  0.46056368601E+03  0.46056368602E+03  0.25500000000E-02 0.  1.
         -2   -1    0    0    0  501 -0.00000000000E+00 -0.00000000000E+00 -0.15774565854E+03  0.15774565856E+03  0.25500000000E-02 0. -1.
    5000001    1    1    2    0    0  0.17757520029E+03  0.65191979673E+02  0.15396755106E+03  0.31040772019E+03  0.19200000000E+03 0.  0.
   -5000001    1    1    2    0    0 -0.17757520029E+03 -0.65191979673E+02  0.14885047642E+03  0.30790162439E+03  0.19200000000E+03 0.  0.
<mgrwt>
<rscale>  0 0.53908041E+03</rscale>
<asrwt>0</asrwt>
<pdfrwt beam="1">  1        2 0.65794813E-01 0.53908041E+03</pdfrwt>
<pdfrwt beam="2">  1       -2 0.22535094E-01 0.53908041E+03</pdfrwt>
<totfact> 0.12734518E+03</totfact>
</mgrwt>
</event>
<event>
 4    1  0.5626910E-005  0.7176201E+03  0.7818608E-02  0.9687565E-01
         -2   -1    0    0    0  501 -0.00000000000E+00  0.00000000000E+00  0.88446955282E+02  0.88446955319E+02  0.25500000000E-02 0. -1.
          2   -1    0    0  501    0  0.00000000000E+00 -0.00000000000E+00 -0.14556142456E+04  0.14556142456E+04  0.25500000000E-02 0.  1.
    5000001    1    1    2    0    0 -0.27824092415E+02  0.28505677077E+03 -0.89711827458E+03  0.96110183709E+03  0.19200000000E+03 0.  0.
   -5000001    1    1    2    0    0  0.27824092415E+02 -0.28505677077E+03 -0.47004901576E+03  0.58295936385E+03  0.19200000000E+03 0.  0.
<mgrwt>
<rscale>  0 0.71762009E+03</rscale>
<asrwt>0</asrwt>
<pdfrwt beam="1">  1        2 0.20794488E+00 0.71762009E+03</pdfrwt>
<pdfrwt beam="2">  1       -2 0.12635280E-01 0.71762009E+03</pdfrwt>
<totfact> 0.72872722E+02</totfact>
</mgrwt>
</event>
<event>
 4    1  0.5626910E-005  0.5719856E+03  0.7818608E-02  0.9965294E-01
         -2   -1    0    0    0  501 -0.00000000000E+00  0.00000000000E+00  0.16250319446E+04  0.16250319446E+04  0.25500000000E-02 0. -1.
          2   -1    0    0  501    0  0.00000000000E+00 -0.00000000000E+00 -0.50332467864E+02  0.50332467928E+02  0.25500000000E-02 0.  1.
    5000001    1    1    2    0    0  0.16536997606E+03  0.11852341356E+03  0.96144469444E+03  0.10013165978E+04  0.19200000000E+03 0.  0.
   -5000001    1    1    2    0    0 -0.16536997606E+03 -0.11852341356E+03  0.61325478228E+03  0.67404781472E+03  0.19200000000E+03 0.  0.
<mgrwt>
<rscale>  0 0.57198555E+03</rscale>
<asrwt>0</asrwt>
<pdfrwt beam="1">  1        2 0.71903522E-02 0.57198555E+03</pdfrwt>
<pdfrwt beam="2">  1       -2 0.23214743E+00 0.57198555E+03</pdfrwt>
<totfact> 0.87456135E+01</totfact>
</mgrwt>
</event>
<event>
 4    1  0.5626910E-005  0.5946971E+03  0.7818608E-02  0.9916469E-01
          2   -1    0    0  501    0  0.00000000000E+00  0.00000000000E+00  0.79147985838E+03  0.79147985838E+03  0.25500000000E-02 0.  1.
         -2   -1    0    0    0  501 -0.00000000000E+00 -0.00000000000E+00 -0.11170992172E+03  0.11170992175E+03  0.25500000000E-02 0. -1.
    5000001    1    1    2    0    0  0.20721020429E+03 -0.89883067148E+02  0.30468694507E+03  0.42510371560E+03  0.19200000000E+03 0.  0.
   -5000001    1    1    2    0    0 -0.20721020429E+03  0.89883067148E+02  0.37508299159E+03  0.47808606453E+03  0.19200000000E+03 0.  0.
<mgrwt>
<rscale>  0 0.59469708E+03</rscale>
<asrwt>0</asrwt>
<pdfrwt beam="1">  1        2 0.11306855E+00 0.59469708E+03</pdfrwt>
<pdfrwt beam="2">  1       -2 0.15958560E-01 0.59469708E+03</pdfrwt>
<totfact> 0.12179709E+03</totfact>
</mgrwt>
</event>
<event>
 4    1  0.5626910E-005  0.6235834E+03  0.7818608E-02  0.9857651E-01
          2   -1    0    0  501    0  0.00000000000E+00  0.00000000000E+00  0.10688434258E+03  0.10688434261E+03  0.25500000000E-02 0.  1.
         -2   -1    0    0    0  501 -0.00000000000E+00 -0.00000000000E+00 -0.90952583863E+03  0.90952583863E+03  0.25500000000E-02 0. -1.
    5000001    1    1    2    0    0 -0.13543064726E+03 -0.19809233608E+03 -0.31556555476E+03  0.44048570145E+03  0.19200000000E+03 0.  0.
   -5000001    1    1    2    0    0  0.13543064726E+03  0.19809233608E+03 -0.48707594130E+03  0.57592447979E+03  0.19200000000E+03 0.  0.
<mgrwt>
<rscale>  0 0.62358342E+03</rscale>
<asrwt>0</asrwt>
<pdfrwt beam="1">  1        2 0.15269192E-01 0.62358342E+03</pdfrwt>
<pdfrwt beam="2">  1       -2 0.12993226E+00 0.62358342E+03</pdfrwt>
<totfact> 0.17297974E+02</totfact>
</mgrwt>
</event>
<event>
 4    1  0.5626910E-005  0.5254842E+03  0.7818608E-02  0.1007333E+00
         -2   -1    0    0    0  501 -0.00000000000E+00  0.00000000000E+00  0.50007253761E+02  0.50007253826E+02  0.25500000000E-02 0. -1.
          2   -1    0    0  501    0  0.00000000000E+00 -0.00000000000E+00 -0.13804681390E+04  0.13804681390E+04  0.25500000000E-02 0.  1.
    5000001    1    1    2    0    0  0.14364019293E+03  0.96415214020E+02 -0.79409805008E+03  0.83509527101E+03  0.19200000000E+03 0.  0.
   -5000001    1    1    2    0    0 -0.14364019293E+03 -0.96415214020E+02 -0.53636283514E+03  0.59538012180E+03  0.19200000000E+03 0.  0.
<mgrwt>
<rscale>  0 0.52548424E+03</rscale>
<asrwt>0</asrwt>
<pdfrwt beam="1">  1        2 0.19720971E+00 0.52548424E+03</pdfrwt>
<pdfrwt beam="2">  1       -2 0.71438942E-02 0.52548424E+03</pdfrwt>
<totfact> 0.20208309E+03</totfact>
</mgrwt>
</event>
<event>
 4    1  0.5626910E-005  0.7712250E+03  0.7818608E-02  0.9602628E-01
          2   -1    0    0  501    0  0.00000000000E+00  0.00000000000E+00  0.11109852352E+04  0.11109852352E+04  0.25500000000E-02 0.  1.
         -2   -1    0    0    0  501 -0.00000000000E+00 -0.00000000000E+00 -0.13384247592E+03  0.13384247595E+03  0.25500000000E-02 0. -1.
    5000001    1    1    2    0    0 -0.22778804217E+03  0.23718633829E+03  0.58659688513E+03  0.69936017679E+03  0.19200000000E+03 0.  0.
   -5000001    1    1    2    0    0  0.22778804217E+03 -0.23718633829E+03  0.39054587413E+03  0.54546753435E+03  0.19200000000E+03 0.  0.
<mgrwt>
<rscale>  0 0.77122504E+03</rscale>
<asrwt>0</asrwt>
<pdfrwt beam="1">  1        2 0.15871218E+00 0.77122504E+03</pdfrwt>
<pdfrwt beam="2">  1       -2 0.19120353E-01 0.77122504E+03</pdfrwt>
<totfact> 0.55781724E+02</totfact>
</mgrwt>
</event>
<event>
 4    1  0.5626910E-005  0.8047591E+03  0.7818608E-02  0.9553154E-01
         -2   -1    0    0    0  501 -0.00000000000E+00  0.00000000000E+00  0.12203409989E+03  0.12203409991E+03  0.25500000000E-02 0. -1.
          2   -1    0    0  501    0  0.00000000000E+00 -0.00000000000E+00 -0.13267547054E+04  0.13267547054E+04  0.25500000000E-02 0.  1.
    5000001    1    1    2    0    0  0.32882184375E+03  0.10260650574E+03 -0.45841229481E+03  0.60469639653E+03  0.19200000000E+03 0.  0.
   -5000001    1    1    2    0    0 -0.32882184375E+03 -0.10260650574E+03 -0.74630831073E+03  0.84409240881E+03  0.19200000000E+03 0.  0.
<mgrwt>
<rscale>  0 0.80475913E+03</rscale>
<asrwt>0</asrwt>
<pdfrwt beam="1">  1        2 0.18953638E+00 0.80475913E+03</pdfrwt>
<pdfrwt beam="2">  1       -2 0.17433444E-01 0.80475913E+03</pdfrwt>
<totfact> 0.49403575E+02</totfact>
</mgrwt>
</event>
<event>
 4    1  0.5626910E-005  0.9082607E+03  0.7818608E-02  0.9415314E-01
         -2   -1    0    0    0  501 -0.00000000000E+00  0.00000000000E+00  0.21109757211E+03  0.21109757213E+03  0.25500000000E-02 0. -1.
          2   -1    0    0  501    0  0.00000000000E+00 -0.00000000000E+00 -0.97696241437E+03  0.97696241438E+03  0.25500000000E-02 0.  1.
    5000001    1    1    2    0    0 -0.31994099893E+03  0.25782316881E+03 -0.41319825444E+03  0.61354040343E+03  0.19200000000E+03 0.  0.
   -5000001    1    1    2    0    0  0.31994099893E+03 -0.25782316881E+03 -0.35266658783E+03  0.57451958308E+03  0.19200000000E+03 0.  0.
<mgrwt>
<rscale>  0 0.90826074E+03</rscale>
<asrwt>0</asrwt>
<pdfrwt beam="1">  1        2 0.13956606E+00 0.90826074E+03</pdfrwt>
<pdfrwt beam="2">  1       -2 0.30156797E-01 0.90826074E+03</pdfrwt>
<totfact> 0.29456752E+02</totfact>
</mgrwt>
</event>
<event>
 4    1  0.5626910E-005  0.8696980E+03  0.7818608E-02  0.9464274E-01
         -2   -1    0    0    0  501 -0.00000000000E+00  0.00000000000E+00  0.29627664636E+03  0.29627664637E+03  0.25500000000E-02 0. -1.
          2   -1    0    0  501    0  0.00000000000E+00 -0.00000000000E+00 -0.63823337989E+03  0.63823337989E+03  0.25500000000E-02 0.  1.
    5000001    1    1    2    0    0 -0.13295708718E+03 -0.35543630780E+03 -0.73574878552E+02  0.43161304277E+03  0.19200000000E+03 0.  0.
   -5000001    1    1    2    0    0  0.13295708718E+03  0.35543630780E+03 -0.26838185497E+03  0.50289698350E+03  0.19200000000E+03 0.  0.
<mgrwt>
<rscale>  0 0.86969798E+03</rscale>
<asrwt>0</asrwt>
<pdfrwt beam="1">  1        2 0.91176197E-01 0.86969798E+03</pdfrwt>
<pdfrwt beam="2">  1       -2 0.42325235E-01 0.86969798E+03</pdfrwt>
<totfact> 0.26739994E+02</totfact>
</mgrwt>
</event>
<event>
 4    1  0.5626910E-005  0.1312210E+04  0.7818608E-02  0.9019938E-01
          2   -1    0    0  501    0  0.00000000000E+00  0.00000000000E+00  0.83850486833E+03  0.83850486833E+03  0.25500000000E-02 0.  1.
         -2   -1    0    0    0  501 -0.00000000000E+00 -0.00000000000E+00 -0.51338246161E+03  0.51338246162E+03  0.25500000000E-02 0. -1.
    5000001    1    1    2    0    0  0.10416091188E+01  0.53414266527E+03 -0.17647952040E+03  0.59440600008E+03  0.19200000000E+03 0.  0.
   -5000001    1    1    2    0    0 -0.10416091188E+01 -0.53414266527E+03  0.50160192711E+03  0.75748132987E+03  0.19200000000E+03 0.  0.
<mgrwt>
<rscale>  0 0.13122099E+04</rscale>
<asrwt>0</asrwt>
<pdfrwt beam="1">  1        2 0.11978641E+00 0.13122099E+04</pdfrwt>
<pdfrwt beam="2">  1       -2 0.73340352E-01 0.13122099E+04</pdfrwt>
<totfact> 0.58828611E+01</totfact>
</mgrwt>
</event>
<event>
 4    1  0.5626910E-005  0.1598881E+04  0.7818608E-02  0.8821236E-01
         -2   -1    0    0    0  501 -0.00000000000E+00  0.00000000000E+00  0.51021195034E+03  0.51021195034E+03  0.25500000000E-02 0. -1.
          2   -1    0    0  501    0  0.00000000000E+00 -0.00000000000E+00 -0.12526263402E+04  0.12526263403E+04  0.25500000000E-02 0.  1.
    5000001    1    1    2    0    0 -0.62964789537E+03  0.20773946105E+03 -0.81583343366E+03  0.10686722357E+04  0.19200000000E+03 0.  0.
   -5000001    1    1    2    0    0  0.62964789537E+03 -0.20773946105E+03  0.73419043752E+02  0.69416605492E+03  0.19200000000E+03 0.  0.
<mgrwt>
<rscale>  0 0.15988808E+04</rscale>
<asrwt>0</asrwt>
<pdfrwt beam="1">  1        2 0.17894662E+00 0.15988808E+04</pdfrwt>
<pdfrwt beam="2">  1       -2 0.72887422E-01 0.15988808E+04</pdfrwt>
<totfact> 0.32622345E+01</totfact>
</mgrwt>
</event>
<event>
 4    1  0.5626910E-005  0.6247685E+03  0.7818608E-02  0.9855311E-01
         -2   -1    0    0    0  501 -0.00000000000E+00  0.00000000000E+00  0.52441437053E+02  0.52441437115E+02  0.25500000000E-02 0.  1.
          2   -1    0    0  501    0  0.00000000000E+00 -0.00000000000E+00 -0.18608172322E+04  0.18608172322E+04  0.25500000000E-02 0. -1.
    5000001    1    1    2    0    0 -0.60464017530E+02  0.23874724087E+03 -0.92864595072E+03  0.97974662246E+03  0.19200000000E+03 0.  0.
   -5000001    1    1    2    0    0  0.60464017530E+02 -0.23874724087E+03 -0.87972984439E+03  0.93351204681E+03  0.19200000000E+03 0.  0.
<mgrwt>
<rscale>  0 0.62476853E+03</rscale>
<asrwt>0</asrwt>
<pdfrwt beam="1">  1        2 0.26583099E+00 0.62476853E+03</pdfrwt>
<pdfrwt beam="2">  1       -2 0.74916350E-02 0.62476853E+03</pdfrwt>
<totfact> 0.10579900E+03</totfact>
</mgrwt>
</event>
<event>
 4    1  0.5626910E-005  0.4378050E+03  0.7818608E-02  0.1031422E+00
         -2   -1    0    0    0  501 -0.00000000000E+00  0.00000000000E+00  0.16592382083E+02  0.16592382279E+02  0.25500000000E-02 0. -1.
          2   -1    0    0  501    0  0.00000000000E+00 -0.00000000000E+00 -0.28879696794E+04  0.28879696794E+04  0.25500000000E-02 0.  1.
    5000001    1    1    2    0    0 -0.57687144808E+02 -0.49501884782E+02 -0.95379126412E+03  0.97588934762E+03  0.19200000000E+03 0.  0.
   -5000001    1    1    2    0    0  0.57687144808E+02  0.49501884782E+02 -0.19175860332E+04  0.19286727141E+04  0.19200000000E+03 0.  0.
<mgrwt>
<rscale>  0 0.43780496E+03</rscale>
<asrwt>0</asrwt>
<pdfrwt beam="1">  1        2 0.41256678E+00 0.43780496E+03</pdfrwt>
<pdfrwt beam="2">  1       -2 0.23703422E-02 0.43780496E+03</pdfrwt>
<totfact> 0.18816051E+03</totfact>
</mgrwt>
</event>
<event>
 4    1  0.5626910E-005  0.8650819E+03  0.7818608E-02  0.9470315E-01
         -2   -1    0    0    0  501 -0.00000000000E+00  0.00000000000E+00  0.67800316159E+03  0.67800316159E+03  0.25500000000E-02 0. -1.
          2   -1    0    0  501    0  0.00000000000E+00 -0.00000000000E+00 -0.27594511134E+03  0.27594511135E+03  0.25500000000E-02 0.  1.
    5000001    1    1    2    0    0  0.32840549418E+03 -0.14544855191E+03  0.40385619484E+02  0.40926818606E+03  0.19200000000E+03 0.  0.
   -5000001    1    1    2    0    0 -0.32840549418E+03  0.14544855191E+03  0.36167243077E+03  0.54468008688E+03  0.19200000000E+03 0.  0.
<mgrwt>
<rscale>  0 0.86508186E+03</rscale>
<asrwt>0</asrwt>
<pdfrwt beam="1">  1        2 0.39420730E-01 0.86508186E+03</pdfrwt>
<pdfrwt beam="2">  1       -2 0.96857595E-01 0.86508186E+03</pdfrwt>
<totfact> 0.11717773E+02</totfact>
</mgrwt>
</event>
<event>
 4    1  0.5626910E-005  0.6483669E+03  0.7818608E-02  0.9809848E-01
         -2   -1    0    0    0  501 -0.00000000000E+00  0.00000000000E+00  0.86773205851E+02  0.86773205888E+02  0.25500000000E-02 0. -1.
          2   -1    0    0  501    0  0.00000000000E+00 -0.00000000000E+00 -0.12111446946E+04  0.12111446946E+04  0.25500000000E-02 0.  1.
    5000001    1    1    2    0    0 -0.32677808556E+02  0.22757771989E+03 -0.81037547636E+03  0.86396288719E+03  0.19200000000E+03 0.  0.
   -5000001    1    1    2    0    0  0.32677808556E+02 -0.22757771989E+03 -0.31399601237E+03  0.43395501327E+03  0.19200000000E+03 0.  0.
<mgrwt>
<rscale>  0 0.64836690E+03</rscale>
<asrwt>0</asrwt>
<pdfrwt beam="1">  1        2 0.17302066E+00 0.64836690E+03</pdfrwt>
<pdfrwt beam="2">  1       -2 0.12396173E-01 0.64836690E+03</pdfrwt>
<totfact> 0.10235876E+03</totfact>
</mgrwt>
</event>
<event>
 4    1  0.5626910E-005  0.8140179E+03  0.7818608E-02  0.9539946E-01
         -2   -1    0    0    0  501 -0.00000000000E+00  0.00000000000E+00  0.79832683979E+02  0.79832684020E+02  0.25500000000E-02 0. -1.
          2   -1    0    0  501    0  0.00000000000E+00 -0.00000000000E+00 -0.20750434400E+04  0.20750434400E+04  0.25500000000E-02 0.  1.
    5000001    1    1    2    0    0 -0.31489823203E+03 -0.15847238803E+03 -0.81967245255E+03  0.91268906194E+03  0.19200000000E+03 0.  0.
   -5000001    1    1    2    0    0  0.31489823203E+03  0.15847238803E+03 -0.11755383035E+04  0.12421870621E+04  0.19200000000E+03 0.  0.
<mgrwt>
<rscale>  0 0.81401790E+03</rscale>
<asrwt>0</asrwt>
<pdfrwt beam="1">  1        2 0.29643474E+00 0.81401790E+03</pdfrwt>
<pdfrwt beam="2">  1       -2 0.11404670E-01 0.81401790E+03</pdfrwt>
<totfact> 0.41317379E+02</totfact>
</mgrwt>
</event>
<event>
 4    1  0.5626910E-005  0.1038171E+04  0.7818608E-02  0.9267643E-01
         -2   -1    0    0    0  501 -0.00000000000E+00  0.00000000000E+00  0.30753326269E+03  0.30753326270E+03  0.25500000000E-02 0. -1.
          2   -1    0    0  501    0  0.00000000000E+00 -0.00000000000E+00 -0.87616426155E+03  0.87616426155E+03  0.25500000000E-02 0.  1.
    5000001    1    1    2    0    0 -0.26406100229E+03  0.40018439906E+03 -0.22496182831E+03  0.56333612557E+03  0.19200000000E+03 0.  0.
   -5000001    1    1    2    0    0  0.26406100229E+03 -0.40018439906E+03 -0.34366917055E+03  0.62036139868E+03  0.19200000000E+03 0.  0.
<mgrwt>
<rscale>  0 0.10381708E+04</rscale>
<asrwt>0</asrwt>
<pdfrwt beam="1">  1        2 0.12516632E+00 0.10381708E+04</pdfrwt>
<pdfrwt beam="2">  1       -2 0.43933324E-01 0.10381708E+04</pdfrwt>
<totfact> 0.16490530E+02</totfact>
</mgrwt>
</event>
<event>
 4    1  0.5626910E-005  0.6345087E+03  0.7818608E-02  0.9836290E-01
         -2   -1    0    0    0  501 -0.00000000000E+00  0.00000000000E+00  0.69104110691E+02  0.69104110738E+02  0.25500000000E-02 0. -1.
          2   -1    0    0  501    0  0.00000000000E+00 -0.00000000000E+00 -0.14565026374E+04  0.14565026374E+04  0.25500000000E-02 0.  1.
    5000001    1    1    2    0    0 -0.90869465451E+02 -0.22114848371E+03 -0.88936419271E+03  0.94074256780E+03  0.19200000000E+03 0.  0.
   -5000001    1    1    2    0    0  0.90869465451E+02  0.22114848371E+03 -0.49803433398E+03  0.58486418032E+03  0.19200000000E+03 0.  0.
<mgrwt>
<rscale>  0 0.63450869E+03</rscale>
<asrwt>0</asrwt>
<pdfrwt beam="1">  1        2 0.20807179E+00 0.63450869E+03</pdfrwt>
<pdfrwt beam="2">  1       -2 0.98720167E-02 0.63450869E+03</pdfrwt>
<totfact> 0.10949222E+03</totfact>
</mgrwt>
</event>
<event>
 4    1  0.5626910E-005  0.4856477E+03  0.7818608E-02  0.1017594E+00
          2   -1    0    0  501    0  0.00000000000E+00  0.00000000000E+00  0.55288596481E+03  0.55288596482E+03  0.25500000000E-02 0.  1.
         -2   -1    0    0    0  501 -0.00000000000E+00 -0.00000000000E+00 -0.10664661175E+03  0.10664661178E+03  0.25500000000E-02 0. -1.
    5000001    1    1    2    0    0 -0.11841897900E+03  0.87136966655E+02  0.19325778194E+03  0.30956174800E+03  0.19200000000E+03 0.  0.
   -5000001    1    1    2    0    0  0.11841897900E+03 -0.87136966655E+02  0.25298157112E+03  0.34997082860E+03  0.19200000000E+03 0.  0.
<mgrwt>
<rscale>  0 0.48564767E+03</rscale>
<asrwt>0</asrwt>
<pdfrwt beam="1">  1        2 0.78983711E-01 0.48564767E+03</pdfrwt>
<pdfrwt beam="2">  1       -2 0.15235230E-01 0.48564767E+03</pdfrwt>
<totfact> 0.20289379E+03</totfact>
</mgrwt>
</event>
<event>
 4    1  0.5626910E-005  0.5089425E+03  0.7818608E-02  0.1011471E+00
         -2   -1    0    0    0  501 -0.00000000000E+00  0.00000000000E+00  0.99312167456E+03  0.99312167456E+03  0.25500000000E-02 0. -1.
          2   -1    0    0  501    0  0.00000000000E+00 -0.00000000000E+00 -0.65204124619E+02  0.65204124669E+02  0.25500000000E-02 0.  1.
    5000001    1    1    2    0    0 -0.15766882510E+03  0.15737085534E+02  0.35422876507E+03  0.43295396092E+03  0.19200000000E+03 0.  0.
   -5000001    1    1    2    0    0  0.15766882510E+03 -0.15737085534E+02  0.57368878487E+03  0.62537183831E+03  0.19200000000E+03 0.  0.
<mgrwt>
<rscale>  0 0.50894255E+03</rscale>
<asrwt>0</asrwt>
<pdfrwt beam="1">  1        2 0.93148748E-02 0.50894255E+03</pdfrwt>
<pdfrwt beam="2">  1       -2 0.14187453E+00 0.50894255E+03</pdfrwt>
<totfact> 0.25643675E+02</totfact>
</mgrwt>
</event>
<event>
 4    1  0.5626910E-005  0.5331739E+03  0.7818608E-02  0.1005465E+00
         -2   -1    0    0    0  501 -0.00000000000E+00  0.00000000000E+00  0.21407151827E+03  0.21407151828E+03  0.25500000000E-02 0. -1.
          2   -1    0    0  501    0  0.00000000000E+00 -0.00000000000E+00 -0.33198534591E+03  0.33198534592E+03  0.25500000000E-02 0.  1.
    5000001    1    1    2    0    0 -0.18474816705E+03  0.83234287421E+01 -0.60857102465E+02  0.27343875295E+03  0.19200000000E+03 0.  0.
   -5000001    1    1    2    0    0  0.18474816705E+03 -0.83234287421E+01 -0.57056725180E+02  0.27261811125E+03  0.19200000000E+03 0.  0.
<mgrwt>
<rscale>  0 0.53317392E+03</rscale>
<asrwt>0</asrwt>
<pdfrwt beam="1">  1        2 0.47426478E-01 0.53317392E+03</pdfrwt>
<pdfrwt beam="2">  1       -2 0.30581645E-01 0.53317392E+03</pdfrwt>
<totfact> 0.10546607E+03</totfact>
</mgrwt>
</event>
<event>
 4    1  0.5626910E-005  0.1161769E+04  0.7818608E-02  0.9146994E-01
         -2   -1    0    0    0  501 -0.00000000000E+00  0.00000000000E+00  0.17033372424E+03  0.17033372426E+03  0.25500000000E-02 0. -1.
          2   -1    0    0  501    0  0.00000000000E+00 -0.00000000000E+00 -0.19809764164E+04  0.19809764164E+04  0.25500000000E-02 0.  1.
    5000001    1    1    2    0    0 -0.49443639052E+03  0.53339262854E+02 -0.47800885239E+03  0.71600899729E+03  0.19200000000E+03 0.  0.
   -5000001    1    1    2    0    0  0.49443639052E+03 -0.53339262854E+02 -0.13326338398E+04  0.14353011434E+04  0.19200000000E+03 0.  0.
<mgrwt>
<rscale>  0 0.11617695E+04</rscale>
<asrwt>0</asrwt>
<pdfrwt beam="1">  1        2 0.28299662E+00 0.11617695E+04</pdfrwt>
<pdfrwt beam="2">  1       -2 0.24333390E-01 0.11617695E+04</pdfrwt>
<totfact> 0.12234875E+02</totfact>
</mgrwt>
</event>
<event>
 4    1  0.5626910E-005  0.9369956E+03  0.7818608E-02  0.9380481E-01
         -2   -1    0    0    0  501 -0.00000000000E+00  0.00000000000E+00  0.15823463138E+03  0.15823463140E+03  0.25500000000E-02 0. -1.
          2   -1    0    0  501    0  0.00000000000E+00 -0.00000000000E+00 -0.13871185768E+04  0.13871185768E+04  0.25500000000E-02 0.  1.
    5000001    1    1    2    0    0 -0.71643391853E+02 -0.41862222219E+03 -0.53623039596E+03  0.71048179291E+03  0.19200000000E+03 0.  0.
   -5000001    1    1    2    0    0  0.71643391853E+02  0.41862222219E+03 -0.69265354948E+03  0.83487141532E+03  0.19200000000E+03 0.  0.
<mgrwt>
<rscale>  0 0.93699562E+03</rscale>
<asrwt>0</asrwt>
<pdfrwt beam="1">  1        2 0.19815979E+00 0.93699562E+03</pdfrwt>
<pdfrwt beam="2">  1       -2 0.22604948E-01 0.93699562E+03</pdfrwt>
<totfact> 0.28872313E+02</totfact>
</mgrwt>
</event>
<event>
 4    1  0.5626910E-005  0.7844537E+03  0.7818608E-02  0.9582796E-01
          2   -1    0    0  501    0  0.00000000000E+00  0.00000000000E+00  0.20972275599E+04  0.20972275599E+04  0.25500000000E-02 0.  1.
         -2   -1    0    0    0  501 -0.00000000000E+00 -0.00000000000E+00 -0.73354896938E+02  0.73354896983E+02  0.25500000000E-02 0. -1.
    5000001    1    1    2    0    0  0.28931773110E+03  0.16576555858E+03  0.12225727644E+04  0.12816907327E+04  0.19200000000E+03 0.  0.
   -5000001    1    1    2    0    0 -0.28931773110E+03 -0.16576555858E+03  0.80129989851E+03  0.88889172417E+03  0.19200000000E+03 0.  0.
<mgrwt>
<rscale>  0 0.78445372E+03</rscale>
<asrwt>0</asrwt>
<pdfrwt beam="1">  1        2 0.29960392E+00 0.78445372E+03</pdfrwt>
<pdfrwt beam="2">  1       -2 0.10479272E-01 0.78445372E+03</pdfrwt>
<totfact> 0.46353342E+02</totfact>
</mgrwt>
</event>
<event>
 4    1  0.5626910E-005  0.4434314E+03  0.7818608E-02  0.1029699E+00
         -2   -1    0    0    0  501 -0.00000000000E+00  0.00000000000E+00  0.10381275990E+03  0.10381275993E+03  0.25500000000E-02 0. -1.
          2   -1    0    0  501    0  0.00000000000E+00 -0.00000000000E+00 -0.47352414369E+03  0.47352414370E+03  0.25500000000E-02 0.  1.
    5000001    1    1    2    0    0  0.10553279028E+03  0.15450604653E+02 -0.22430270428E+03  0.31392928209E+03  0.19200000000E+03 0.  0.
   -5000001    1    1    2    0    0 -0.10553279028E+03 -0.15450604653E+02 -0.14540867951E+03  0.26340762154E+03  0.19200000000E+03 0.  0.
<mgrwt>
<rscale>  0 0.44343138E+03</rscale>
<asrwt>0</asrwt>
<pdfrwt beam="1">  1        2 0.67646305E-01 0.44343138E+03</pdfrwt>
<pdfrwt beam="2">  1       -2 0.14830395E-01 0.44343138E+03</pdfrwt>
<totfact> 0.25276843E+03</totfact>
</mgrwt>
</event>
<event>
 4    1  0.5626910E-005  0.5142399E+03  0.7818608E-02  0.1010127E+00
         -2   -1    0    0    0  501 -0.00000000000E+00  0.00000000000E+00  0.59088684644E+03  0.59088684644E+03  0.25500000000E-02 0. -1.
          2   -1    0    0  501    0  0.00000000000E+00 -0.00000000000E+00 -0.11188382023E+03  0.11188382026E+03  0.25500000000E-02 0.  1.
    5000001    1    1    2    0    0  0.36483487776E+02 -0.70475306538E+02  0.32473830009E+02  0.21027687307E+03  0.19200000000E+03 0.  0.
   -5000001    1    1    2    0    0 -0.36483487776E+02  0.70475306538E+02  0.44652919620E+03  0.49249379363E+03  0.19200000000E+03 0.  0.
<mgrwt>
<rscale>  0 0.51423994E+03</rscale>
<asrwt>0</asrwt>
<pdfrwt beam="1">  1        2 0.15983403E-01 0.51423994E+03</pdfrwt>
<pdfrwt beam="2">  1       -2 0.84412406E-01 0.51423994E+03</pdfrwt>
<totfact> 0.45873224E+02</totfact>
</mgrwt>
</event>
<event>
 4    1  0.5626910E-005  0.4430351E+03  0.7818608E-02  0.1029820E+00
          2   -1    0    0  501    0  0.00000000000E+00  0.00000000000E+00  0.79814319256E+03  0.79814319257E+03  0.25500000000E-02 0.  1.
         -2   -1    0    0    0  501 -0.00000000000E+00 -0.00000000000E+00 -0.61480223580E+02  0.61480223633E+02  0.25500000000E-02 0. -1.
    5000001    1    1    2    0    0  0.52884100336E+02 -0.62744148711E+02  0.22479522021E+03  0.30680685666E+03  0.19200000000E+03 0.  0.
   -5000001    1    1    2    0    0 -0.52884100336E+02  0.62744148711E+02  0.51186774877E+03  0.55281655954E+03  0.19200000000E+03 0.  0.
<mgrwt>
<rscale>  0 0.44303509E+03</rscale>
<asrwt>0</asrwt>
<pdfrwt beam="1">  1        2 0.11402045E+00 0.44303509E+03</pdfrwt>
<pdfrwt beam="2">  1       -2 0.87828894E-02 0.44303509E+03</pdfrwt>
<totfact> 0.32094756E+03</totfact>
</mgrwt>
</event>
<event>
 4    1  0.5626910E-005  0.6140622E+03  0.7818608E-02  0.9876653E-01
         -2   -1    0    0    0  501 -0.00000000000E+00  0.00000000000E+00  0.27720600230E+03  0.27720600231E+03  0.25500000000E-02 0. -1.
          2   -1    0    0  501    0  0.00000000000E+00 -0.00000000000E+00 -0.34006518228E+03  0.34006518228E+03  0.25500000000E-02 0.  1.
    5000001    1    1    2    0    0  0.83900914819E+02  0.22313496202E+03 -0.73139134269E+01  0.30617979703E+03  0.19200000000E+03 0.  0.
   -5000001    1    1    2    0    0 -0.83900914819E+02 -0.22313496202E+03 -0.55545266547E+02  0.31109138756E+03  0.19200000000E+03 0.  0.
<mgrwt>
<rscale>  0 0.61406224E+03</rscale>
<asrwt>0</asrwt>
<pdfrwt beam="1">  1        2 0.48580740E-01 0.61406224E+03</pdfrwt>
<pdfrwt beam="2">  1       -2 0.39600857E-01 0.61406224E+03</pdfrwt>
<totfact> 0.62933201E+02</totfact>
</mgrwt>
</event>
<event>
 4    1  0.5626910E-005  0.5841910E+03  0.7818608E-02  0.9938759E-01
          2   -1    0    0  501    0  0.00000000000E+00  0.00000000000E+00  0.13661763397E+03  0.13661763399E+03  0.25500000000E-02 0.  1.
         -2   -1    0    0    0  501 -0.00000000000E+00 -0.00000000000E+00 -0.62451513637E+03  0.62451513638E+03  0.25500000000E-02 0. -1.
    5000001    1    1    2    0    0 -0.15387885326E+03 -0.92822774682E+02 -0.78318436012E+02  0.27439487313E+03  0.19200000000E+03 0.  0.
   -5000001    1    1    2    0    0  0.15387885326E+03  0.92822774682E+02 -0.40957906639E+03  0.48673789724E+03  0.19200000000E+03 0.  0.
<mgrwt>
<rscale>  0 0.58419100E+03</rscale>
<asrwt>0</asrwt>
<pdfrwt beam="1">  1        2 0.19516805E-01 0.58419100E+03</pdfrwt>
<pdfrwt beam="2">  1       -2 0.89216446E-01 0.58419100E+03</pdfrwt>
<totfact> 0.31879984E+02</totfact>
</mgrwt>
</event>
<event>
 4    1  0.5626910E-005  0.5956266E+03  0.7818608E-02  0.9914521E-01
         -2   -1    0    0    0  501 -0.00000000000E+00  0.00000000000E+00  0.63195772732E+03  0.63195772732E+03  0.25500000000E-02 0. -1.
          2   -1    0    0  501    0  0.00000000000E+00 -0.00000000000E+00 -0.14034601722E+03  0.14034601724E+03  0.25500000000E-02 0.  1.
    5000001    1    1    2    0    0  0.13490007858E+03  0.12970989259E+03  0.41389786621E+03  0.49315122538E+03  0.19200000000E+03 0.  0.
   -5000001    1    1    2    0    0 -0.13490007858E+03 -0.12970989259E+03  0.77713843892E+02  0.27915251919E+03  0.19200000000E+03 0.  0.
<mgrwt>
<rscale>  0 0.59562656E+03</rscale>
<asrwt>0</asrwt>
<pdfrwt beam="1">  1        2 0.20049431E-01 0.59562656E+03</pdfrwt>
<pdfrwt beam="2">  1       -2 0.90279676E-01 0.59562656E+03</pdfrwt>
<totfact> 0.30053849E+02</totfact>
</mgrwt>
</event>
<event>
 4    1  0.5626910E-005  0.6096118E+03  0.7818608E-02  0.9885663E-01
         -2   -1    0    0    0  501 -0.00000000000E+00  0.00000000000E+00  0.72887504820E+02  0.72887504864E+02  0.25500000000E-02 0. -1.
          2   -1    0    0  501    0  0.00000000000E+00 -0.00000000000E+00 -0.12746580874E+04  0.12746580874E+04  0.25500000000E-02 0.  1.
    5000001    1    1    2    0    0  0.58284465230E+02 -0.22890042333E+03 -0.56592273270E+03  0.64259242298E+03  0.19200000000E+03 0.  0.
   -5000001    1    1    2    0    0 -0.58284465230E+02  0.22890042333E+03 -0.63584784988E+03  0.70495316928E+03  0.19200000000E+03 0.  0.
<mgrwt>
<rscale>  0 0.60961184E+03</rscale>
<asrwt>0</asrwt>
<pdfrwt beam="1">  1        2 0.18209400E+00 0.60961184E+03</pdfrwt>
<pdfrwt beam="2">  1       -2 0.10412501E-01 0.60961184E+03</pdfrwt>
<totfact> 0.12579852E+03</totfact>
</mgrwt>
</event>
<event>
 4    1  0.5626910E-005  0.1578174E+04  0.7818608E-02  0.8834070E-01
         -2   -1    0    0    0  501 -0.00000000000E+00  0.00000000000E+00  0.23094669589E+03  0.23094669590E+03  0.25500000000E-02 0. -1.
          2   -1    0    0  501    0  0.00000000000E+00 -0.00000000000E+00 -0.26961135049E+04  0.26961135049E+04  0.25500000000E-02 0.  1.
    5000001    1    1    2    0    0 -0.29107716097E+03  0.27696889437E+03 -0.24373778656E+02  0.44597731240E+03  0.19200000000E+03 0.  0.
   -5000001    1    1    2    0    0  0.29107716097E+03 -0.27696889437E+03 -0.24407930304E+04  0.24810828884E+04  0.19200000000E+03 0.  0.
<mgrwt>
<rscale>  0 0.15781743E+04</rscale>
<asrwt>0</asrwt>
<pdfrwt beam="1">  1        2 0.38515905E+00 0.15781743E+04</pdfrwt>
<pdfrwt beam="2">  1       -2 0.32992387E-01 0.15781743E+04</pdfrwt>
<totfact> 0.28642684E+01</totfact>
</mgrwt>
</event>
<event>
 4    1  0.5626910E-005  0.6736578E+03  0.7818608E-02  0.9763372E-01
          2   -1    0    0  501    0  0.00000000000E+00  0.00000000000E+00  0.19379087727E+04  0.19379087727E+04  0.25500000000E-02 0.  1.
         -2   -1    0    0    0  501 -0.00000000000E+00 -0.00000000000E+00 -0.58544405204E+02  0.58544405260E+02  0.25500000000E-02 0. -1.
    5000001    1    1    2    0    0  0.20680766192E+02 -0.27557741324E+03  0.89581370496E+03  0.95693092686E+03  0.19200000000E+03 0.  0.
   -5000001    1    1    2    0    0 -0.20680766192E+02  0.27557741324E+03  0.98355066257E+03  0.10395222511E+04  0.19200000000E+03 0.  0.
<mgrwt>
<rscale>  0 0.67365783E+03</rscale>
<asrwt>0</asrwt>
<pdfrwt beam="1">  1        2 0.27684403E+00 0.67365783E+03</pdfrwt>
<pdfrwt beam="2">  1       -2 0.83634890E-02 0.67365783E+03</pdfrwt>
<totfact> 0.80941141E+02</totfact>
</mgrwt>
</event>
<event>
 4    1  0.5626910E-005  0.4638810E+03  0.7818608E-02  0.1023662E+00
         -2   -1    0    0    0  501 -0.00000000000E+00  0.00000000000E+00  0.66022472426E+02  0.66022472475E+02  0.25500000000E-02 0. -1.
          2   -1    0    0  501    0  0.00000000000E+00 -0.00000000000E+00 -0.81481955374E+03  0.81481955374E+03  0.25500000000E-02 0.  1.
    5000001    1    1    2    0    0  0.11679013073E+03  0.39223804547E+02 -0.29487398181E+03  0.37281779280E+03  0.19200000000E+03 0.  0.
   -5000001    1    1    2    0    0 -0.11679013073E+03 -0.39223804547E+02 -0.45392309950E+03  0.50802423342E+03  0.19200000000E+03 0.  0.
<mgrwt>
<rscale>  0 0.46388103E+03</rscale>
<asrwt>0</asrwt>
<pdfrwt beam="1">  1        2 0.11640279E+00 0.46388103E+03</pdfrwt>
<pdfrwt beam="2">  1       -2 0.94317823E-02 0.46388103E+03</pdfrwt>
<totfact> 0.27907567E+03</totfact>
</mgrwt>
</event>
<event>
 4    1  0.5626910E-005  0.7929052E+03  0.7818608E-02  0.9570344E-01
          2   -1    0    0  501    0  0.00000000000E+00  0.00000000000E+00  0.18918899892E+04  0.18918899892E+04  0.25500000000E-02 0.  1.
         -2   -1    0    0    0  501 -0.00000000000E+00 -0.00000000000E+00 -0.83078129275E+02  0.83078129314E+02  0.25500000000E-02 0. -1.
    5000001    1    1    2    0    0 -0.34196502225E+03 -0.49480918252E+02  0.98004768260E+03  0.10567619873E+04  0.19200000000E+03 0.  0.
   -5000001    1    1    2    0    0  0.34196502225E+03  0.49480918252E+02  0.82876417734E+03  0.91820613119E+03  0.19200000000E+03 0.  0.
<mgrwt>
<rscale>  0 0.79290524E+03</rscale>
<asrwt>0</asrwt>
<pdfrwt beam="1">  1        2 0.27027004E+00 0.79290524E+03</pdfrwt>
<pdfrwt beam="2">  1       -2 0.11868302E-01 0.79290524E+03</pdfrwt>
<totfact> 0.47978973E+02</totfact>
</mgrwt>
</event>
<event>
 4    1  0.5626910E-005  0.5597041E+03  0.7818608E-02  0.9992724E-01
          2   -1    0    0  501    0  0.00000000000E+00  0.00000000000E+00  0.28522414685E+04  0.28522414685E+04  0.25500000000E-02 0.  1.
         -2   -1    0    0    0  501 -0.00000000000E+00 -0.00000000000E+00 -0.27458115521E+02  0.27458115639E+02  0.25500000000E-02 0. -1.
    5000001    1    1    2    0    0  0.16162759800E+03  0.10516171520E+03  0.10761599618E+04  0.11100300582E+04  0.19200000000E+03 0.  0.
   -5000001    1    1    2    0    0 -0.16162759800E+03 -0.10516171520E+03  0.17486233912E+04  0.17696695260E+04  0.19200000000E+03 0.  0.
<mgrwt>
<rscale>  0 0.55970412E+03</rscale>
<asrwt>0</asrwt>
<pdfrwt beam="1">  1        2 0.40746282E+00 0.55970412E+03</pdfrwt>
<pdfrwt beam="2">  1       -2 0.39225903E-02 0.55970412E+03</pdfrwt>
<totfact> 0.90723411E+02</totfact>
</mgrwt>
</event>
<event>
 4    1  0.5626910E-005  0.8124632E+03  0.7818608E-02  0.9542150E-01
          2   -1    0    0  501    0  0.00000000000E+00  0.00000000000E+00  0.80683871273E+03  0.80683871273E+03  0.25500000000E-02 0. -1.
         -2   -1    0    0    0  501 -0.00000000000E+00 -0.00000000000E+00 -0.20453170411E+03  0.20453170412E+03  0.25500000000E-02 0.  1.
    5000001    1    1    2    0    0 -0.32554672777E+03  0.12049226897E+03  0.41010931011E+03  0.57057226105E+03  0.19200000000E+03 0.  0.
   -5000001    1    1    2    0    0  0.32554672777E+03 -0.12049226897E+03  0.19219769851E+03  0.44079815580E+03  0.19200000000E+03 0.  0.
<mgrwt>
<rscale>  0 0.81246316E+03</rscale>
<asrwt>0</asrwt>
<pdfrwt beam="1">  1        2 0.11526268E+00 0.81246316E+03</pdfrwt>
<pdfrwt beam="2">  1       -2 0.29218814E-01 0.81246316E+03</pdfrwt>
<totfact> 0.40577110E+02</totfact>
</mgrwt>
</event>
<event>
 4    1  0.5626910E-005  0.7069339E+03  0.7818608E-02  0.9705447E-01
          2   -1    0    0  501    0  0.00000000000E+00  0.00000000000E+00  0.51540811130E+03  0.51540811131E+03  0.25500000000E-02 0.  1.
         -2   -1    0    0    0  501 -0.00000000000E+00 -0.00000000000E+00 -0.24240770505E+03  0.24240770506E+03  0.25500000000E-02 0. -1.
    5000001    1    1    2    0    0  0.24954679228E+03  0.53401426359E+02  0.29889504834E+03  0.43741006367E+03  0.19200000000E+03 0.  0.
   -5000001    1    1    2    0    0 -0.24954679228E+03 -0.53401426359E+02 -0.25894642083E+02  0.32040575270E+03  0.19200000000E+03 0.  0.
<mgrwt>
<rscale>  0 0.70693394E+03</rscale>
<asrwt>0</asrwt>
<pdfrwt beam="1">  1        2 0.73629731E-01 0.70693394E+03</pdfrwt>
<pdfrwt beam="2">  1       -2 0.34629672E-01 0.70693394E+03</pdfrwt>
<totfact> 0.50959822E+02</totfact>
</mgrwt>
</event>
<event>
 4    1  0.5626910E-005  0.5493225E+03  0.7818608E-02  0.1001651E+00
         -2   -1    0    0    0  501 -0.00000000000E+00  0.00000000000E+00  0.10220839910E+03  0.10220839914E+03  0.25500000000E-02 0. -1.
          2   -1    0    0  501    0  0.00000000000E+00 -0.00000000000E+00 -0.73808811186E+03  0.73808811187E+03  0.25500000000E-02 0.  1.
    5000001    1    1    2    0    0 -0.16891861941E+03  0.85106199740E+02 -0.39885831052E+03  0.48138188280E+03  0.19200000000E+03 0.  0.
   -5000001    1    1    2    0    0  0.16891861941E+03 -0.85106199740E+02 -0.23702140224E+03  0.35891462820E+03  0.19200000000E+03 0.  0.
<mgrwt>
<rscale>  0 0.54932251E+03</rscale>
<asrwt>0</asrwt>
<pdfrwt beam="1">  1        2 0.10544116E+00 0.54932251E+03</pdfrwt>
<pdfrwt beam="2">  1       -2 0.14601200E-01 0.54932251E+03</pdfrwt>
<totfact> 0.15451494E+03</totfact>
</mgrwt>
</event>
<event>
 4    1  0.5626910E-005  0.5467516E+03  0.7818608E-02  0.1002249E+00
          2   -1    0    0  501    0  0.00000000000E+00  0.00000000000E+00  0.57700094513E+03  0.57700094514E+03  0.25500000000E-02 0.  1.
         -2   -1    0    0    0  501 -0.00000000000E+00 -0.00000000000E+00 -0.12952200127E+03  0.12952200129E+03  0.25500000000E-02 0. -1.
    5000001    1    1    2    0    0 -0.17519619728E+03 -0.70703142536E-01  0.33320963133E+03  0.42259480706E+03  0.19200000000E+03 0.  0.
   -5000001    1    1    2    0    0  0.17519619728E+03  0.70703142536E-01  0.11426931253E+03  0.28392813937E+03  0.19200000000E+03 0.  0.
<mgrwt>
<rscale>  0 0.54675156E+03</rscale>
<asrwt>0</asrwt>
<pdfrwt beam="1">  1        2 0.82428706E-01 0.54675156E+03</pdfrwt>
<pdfrwt beam="2">  1       -2 0.18503143E-01 0.54675156E+03</pdfrwt>
<totfact> 0.13884524E+03</totfact>
</mgrwt>
</event>
<event>
 4    1  0.5626910E-005  0.1258532E+04  0.7818608E-02  0.9063112E-01
         -2   -1    0    0    0  501 -0.00000000000E+00  0.00000000000E+00  0.13896339826E+03  0.13896339828E+03  0.25500000000E-02 0. -1.
          2   -1    0    0  501    0  0.00000000000E+00 -0.00000000000E+00 -0.28494971276E+04  0.28494971276E+04  0.25500000000E-02 0.  1.
    5000001    1    1    2    0    0  0.25611924685E+03  0.27486266151E+03 -0.24666185668E+03  0.48872550869E+03  0.19200000000E+03 0.  0.
   -5000001    1    1    2    0    0 -0.25611924685E+03 -0.27486266151E+03 -0.24638718727E+04  0.24997350172E+04  0.19200000000E+03 0.  0.
<mgrwt>
<rscale>  0 0.12585322E+04</rscale>
<asrwt>0</asrwt>
<pdfrwt beam="1">  1        2 0.40707098E+00 0.12585322E+04</pdfrwt>
<pdfrwt beam="2">  1       -2 0.19851916E-01 0.12585322E+04</pdfrwt>
<totfact> 0.61346401E+01</totfact>
</mgrwt>
</event>
<event>
 4    1  0.5626910E-005  0.1807235E+04  0.7818608E-02  0.8702462E-01
         -2   -1    0    0    0  501 -0.00000000000E+00  0.00000000000E+00  0.25256889435E+03  0.25256889436E+03  0.25500000000E-02 0. -1.
          2   -1    0    0  501    0  0.00000000000E+00 -0.00000000000E+00 -0.32328768989E+04  0.32328768989E+04  0.25500000000E-02 0.  1.
    5000001    1    1    2    0    0  0.75538292932E+02 -0.85200529407E+03 -0.10674364863E+04  0.13812688757E+04  0.19200000000E+03 0.  0.
   -5000001    1    1    2    0    0 -0.75538292932E+02  0.85200529407E+03 -0.19128715182E+04  0.21041769175E+04  0.19200000000E+03 0.  0.
<mgrwt>
<rscale>  0 0.18072345E+04</rscale>
<asrwt>0</asrwt>
<pdfrwt beam="1">  1        2 0.46183953E+00 0.18072345E+04</pdfrwt>
<pdfrwt beam="2">  1       -2 0.36081273E-01 0.18072345E+04</pdfrwt>
<totfact> 0.11908529E+01</totfact>
</mgrwt>
</event>
<event>
 4    1  0.5626910E-005  0.8468635E+03  0.7818608E-02  0.9494556E-01
          2   -1    0    0  501    0  0.00000000000E+00  0.00000000000E+00  0.54503751898E+03  0.54503751898E+03  0.25500000000E-02 0.  1.
         -2   -1    0    0    0  501 -0.00000000000E+00 -0.00000000000E+00 -0.32895797478E+03  0.32895797479E+03  0.25500000000E-02 0. -1.
    5000001    1    1    2    0    0  0.33622695393E+03  0.59703555401E+02 -0.57785874165E+02  0.39600036152E+03  0.19200000000E+03 0.  0.
   -5000001    1    1    2    0    0 -0.33622695393E+03 -0.59703555401E+02  0.27386541836E+03  0.47799513225E+03  0.19200000000E+03 0.  0.
<mgrwt>
<rscale>  0 0.84686348E+03</rscale>
<asrwt>0</asrwt>
<pdfrwt beam="1">  1        2 0.77862503E-01 0.84686348E+03</pdfrwt>
<pdfrwt beam="2">  1       -2 0.46993996E-01 0.84686348E+03</pdfrwt>
<totfact> 0.26195693E+02</totfact>
</mgrwt>
</event>
<event>
 4    1  0.5626910E-005  0.4727924E+03  0.7818608E-02  0.1021135E+00
          2   -1    0    0  501    0  0.00000000000E+00  0.00000000000E+00  0.10809155411E+04  0.10809155411E+04  0.25500000000E-02 0.  1.
         -2   -1    0    0    0  501 -0.00000000000E+00 -0.00000000000E+00 -0.51699851404E+02  0.51699851467E+02  0.25500000000E-02 0. -1.
    5000001    1    1    2    0    0 -0.74685431951E+02 -0.10721953727E+03  0.62026463498E+03  0.66231877546E+03  0.19200000000E+03 0.  0.
   -5000001    1    1    2    0    0  0.74685431951E+02  0.10721953727E+03  0.40895105476E+03  0.47029661715E+03  0.19200000000E+03 0.  0.
<mgrwt>
<rscale>  0 0.47279244E+03</rscale>
<asrwt>0</asrwt>
<pdfrwt beam="1">  1        2 0.15441649E+00 0.47279244E+03</pdfrwt>
<pdfrwt beam="2">  1       -2 0.73856939E-02 0.47279244E+03</pdfrwt>
<totfact> 0.28086767E+03</totfact>
</mgrwt>
</event>
<event>
 4    1  0.5626910E-005  0.4982375E+03  0.7818608E-02  0.1014240E+00
         -2   -1    0    0    0  501 -0.00000000000E+00  0.00000000000E+00  0.74572667707E+02  0.74572667751E+02  0.25500000000E-02 0. -1.
          2   -1    0    0  501    0  0.00000000000E+00 -0.00000000000E+00 -0.83221027446E+03  0.83221027447E+03  0.25500000000E-02 0.  1.
    5000001    1    1    2    0    0 -0.15836841441E+03 -0.98585447314E+01 -0.38662452862E+03  0.45991333066E+03  0.19200000000E+03 0.  0.
   -5000001    1    1    2    0    0  0.15836841441E+03  0.98585447314E+01 -0.37101307814E+03  0.44686961156E+03  0.19200000000E+03 0.  0.
<mgrwt>
<rscale>  0 0.49823745E+03</rscale>
<asrwt>0</asrwt>
<pdfrwt beam="1">  1        2 0.11888718E+00 0.49823745E+03</pdfrwt>
<pdfrwt beam="2">  1       -2 0.10653239E-01 0.49823745E+03</pdfrwt>
<totfact> 0.22325554E+03</totfact>
</mgrwt>
</event>
<event>
 4    1  0.5626910E-005  0.4155216E+03  0.7818608E-02  0.1038534E+00
          2   -1    0    0  501    0  0.00000000000E+00  0.00000000000E+00  0.17799925089E+04  0.17799925089E+04  0.25500000000E-02 0.  1.
         -2   -1    0    0    0  501 -0.00000000000E+00 -0.00000000000E+00 -0.24249850719E+02  0.24249850853E+02  0.25500000000E-02 0. -1.
    5000001    1    1    2    0    0 -0.47654862535E+02 -0.55812172322E+02  0.10091848102E+04  0.10299048333E+04  0.19200000000E+03 0.  0.
   -5000001    1    1    2    0    0  0.47654862535E+02  0.55812172322E+02  0.74655784794E+03  0.77433752643E+03  0.19200000000E+03 0.  0.
<mgrwt>
<rscale>  0 0.41552161E+03</rscale>
<asrwt>0</asrwt>
<pdfrwt beam="1">  1        2 0.25428473E+00 0.41552161E+03</pdfrwt>
<pdfrwt beam="2">  1       -2 0.34642633E-02 0.41552161E+03</pdfrwt>
<totfact> 0.38624800E+03</totfact>
</mgrwt>
</event>
<event>
 4    1  0.5626910E-005  0.1085377E+04  0.7818608E-02  0.9219562E-01
          2   -1    0    0  501    0  0.00000000000E+00  0.00000000000E+00  0.22153201305E+03  0.22153201307E+03  0.25500000000E-02 0.  1.
         -2   -1    0    0    0  501 -0.00000000000E+00 -0.00000000000E+00 -0.13294287296E+04  0.13294287296E+04  0.25500000000E-02 0. -1.
    5000001    1    1    2    0    0  0.11892008161E+03 -0.49057854188E+03 -0.63006956314E+03  0.82985597905E+03  0.19200000000E+03 0.  0.
   -5000001    1    1    2    0    0 -0.11892008161E+03  0.49057854188E+03 -0.47782715337E+03  0.72110476358E+03  0.19200000000E+03 0.  0.
<mgrwt>
<rscale>  0 0.10853774E+04</rscale>
<asrwt>0</asrwt>
<pdfrwt beam="1">  1        2 0.31647431E-01 0.10853774E+04</pdfrwt>
<pdfrwt beam="2">  1       -2 0.18991839E+00 0.10853774E+04</pdfrwt>
<totfact> 0.25860016E+01</totfact>
</mgrwt>
</event>
<event>
 4    1  0.5626910E-005  0.5971653E+03  0.7818608E-02  0.9911305E-01
          2   -1    0    0  501    0  0.00000000000E+00  0.00000000000E+00  0.51588893067E+03  0.51588893068E+03  0.25500000000E-02 0.  1.
         -2   -1    0    0    0  501 -0.00000000000E+00 -0.00000000000E+00 -0.17281163901E+03  0.17281163903E+03  0.25500000000E-02 0. -1.
    5000001    1    1    2    0    0 -0.18011527158E+03 -0.38430821604E+02  0.15230848096E+02  0.26648530511E+03  0.19200000000E+03 0.  0.
   -5000001    1    1    2    0    0  0.18011527158E+03  0.38430821604E+02  0.32784644356E+03  0.42221526460E+03  0.19200000000E+03 0.  0.
<mgrwt>
<rscale>  0 0.59716534E+03</rscale>
<asrwt>0</asrwt>
<pdfrwt beam="1">  1        2 0.73698419E-01 0.59716534E+03</pdfrwt>
<pdfrwt beam="2">  1       -2 0.24687377E-01 0.59716534E+03</pdfrwt>
<totfact> 0.95187658E+02</totfact>
</mgrwt>
</event>
<event>
 4    1  0.5626910E-005  0.4362768E+03  0.7818608E-02  0.1031895E+00
         -2   -1    0    0    0  501 -0.00000000000E+00  0.00000000000E+00  0.82082686391E+02  0.82082686431E+02  0.25500000000E-02 0. -1.
          2   -1    0    0  501    0  0.00000000000E+00 -0.00000000000E+00 -0.57971263395E+03  0.57971263395E+03  0.25500000000E-02 0.  1.
    5000001    1    1    2    0    0  0.47962662232E+01 -0.90616104866E+02 -0.32444944177E+03  0.38777019340E+03  0.19200000000E+03 0.  0.
   -5000001    1    1    2    0    0 -0.47962662232E+01  0.90616104866E+02 -0.17318050579E+03  0.27402512698E+03  0.19200000000E+03 0.  0.
<mgrwt>
<rscale>  0 0.43627684E+03</rscale>
<asrwt>0</asrwt>
<pdfrwt beam="1">  1        2 0.82816088E-01 0.43627684E+03</pdfrwt>
<pdfrwt beam="2">  1       -2 0.11726098E-01 0.43627684E+03</pdfrwt>
<totfact> 0.29591559E+03</totfact>
</mgrwt>
</event>
<event>
 4    1  0.5626910E-005  0.4776983E+03  0.7818608E-02  0.1019770E+00
         -2   -1    0    0    0  501 -0.00000000000E+00  0.00000000000E+00  0.63366076540E+02  0.63366076592E+02  0.25500000000E-02 0. -1.
          2   -1    0    0  501    0  0.00000000000E+00 -0.00000000000E+00 -0.90030690281E+03  0.90030690282E+03  0.25500000000E-02 0.  1.
    5000001    1    1    2    0    0  0.42146606239E+02 -0.13145207512E+03 -0.48625170087E+03  0.54070389407E+03  0.19200000000E+03 0.  0.
   -5000001    1    1    2    0    0 -0.42146606239E+02  0.13145207512E+03 -0.35068912540E+03  0.42296908533E+03  0.19200000000E+03 0.  0.
<mgrwt>
<rscale>  0 0.47769830E+03</rscale>
<asrwt>0</asrwt>
<pdfrwt beam="1">  1        2 0.12861526E+00 0.47769830E+03</pdfrwt>
<pdfrwt beam="2">  1       -2 0.90522972E-02 0.47769830E+03</pdfrwt>
<totfact> 0.26184813E+03</totfact>
</mgrwt>
</event>
<event>
 4    1  0.5626910E-005  0.4489165E+03  0.7818608E-02  0.1028046E+00
         -2   -1    0    0    0  501 -0.00000000000E+00  0.00000000000E+00  0.30391742436E+02  0.30391742543E+02  0.25500000000E-02 0. -1.
          2   -1    0    0  501    0  0.00000000000E+00 -0.00000000000E+00 -0.16577365535E+04  0.16577365535E+04  0.25500000000E-02 0.  1.
    5000001    1    1    2    0    0  0.10811422873E+03  0.27551931530E+02 -0.93666312139E+03  0.96262640643E+03  0.19200000000E+03 0.  0.
   -5000001    1    1    2    0    0 -0.10811422873E+03 -0.27551931530E+02 -0.69068168967E+03  0.72550188961E+03  0.19200000000E+03 0.  0.
<mgrwt>
<rscale>  0 0.44891648E+03</rscale>
<asrwt>0</asrwt>
<pdfrwt beam="1">  1        2 0.23681945E+00 0.44891648E+03</pdfrwt>
<pdfrwt beam="2">  1       -2 0.43416785E-02 0.44891648E+03</pdfrwt>
<totfact> 0.31534846E+03</totfact>
</mgrwt>
</event>
<event>
 4    1  0.5626910E-005  0.5124470E+03  0.7818608E-02  0.1010580E+00
         -2   -1    0    0    0  501 -0.00000000000E+00  0.00000000000E+00  0.28126752297E+02  0.28126752412E+02  0.25500000000E-02 0. -1.
          2   -1    0    0  501    0  0.00000000000E+00 -0.00000000000E+00 -0.23340941955E+04  0.23340941955E+04  0.25500000000E-02 0.  1.
    5000001    1    1    2    0    0  0.47092985542E+02 -0.15835553861E+03 -0.97491227057E+03  0.10072795844E+04  0.19200000000E+03 0.  0.
   -5000001    1    1    2    0    0 -0.47092985542E+02  0.15835553861E+03 -0.13310551726E+04  0.13549413635E+04  0.19200000000E+03 0.  0.
<mgrwt>
<rscale>  0 0.51244703E+03</rscale>
<asrwt>0</asrwt>
<pdfrwt beam="1">  1        2 0.33344191E+00 0.51244703E+03</pdfrwt>
<pdfrwt beam="2">  1       -2 0.40181089E-02 0.51244703E+03</pdfrwt>
<totfact> 0.16248641E+03</totfact>
</mgrwt>
</event>
<event>
 4    1  0.5626910E-005  0.4836253E+03  0.7818608E-02  0.1018144E+00
         -2   -1    0    0    0  501 -0.00000000000E+00  0.00000000000E+00  0.32797924686E+02  0.32797924785E+02  0.25500000000E-02 0. -1.
          2   -1    0    0  501    0  0.00000000000E+00 -0.00000000000E+00 -0.17828371201E+04  0.17828371201E+04  0.25500000000E-02 0.  1.
    5000001    1    1    2    0    0 -0.46723202610E+02 -0.13740859836E+03 -0.78736224439E+03  0.82332708230E+03  0.19200000000E+03 0.  0.
   -5000001    1    1    2    0    0  0.46723202610E+02  0.13740859836E+03 -0.96267695099E+03  0.99230796255E+03  0.19200000000E+03 0.  0.
<mgrwt>
<rscale>  0 0.48362530E+03</rscale>
<asrwt>0</asrwt>
<pdfrwt beam="1">  1        2 0.25469096E+00 0.48362530E+03</pdfrwt>
<pdfrwt beam="2">  1       -2 0.46854189E-02 0.48362530E+03</pdfrwt>
<totfact> 0.24250724E+03</totfact>
</mgrwt>
</event>
<event>
 4    1  0.5626910E-005  0.5132710E+03  0.7818608E-02  0.1010372E+00
          2   -1    0    0  501    0  0.00000000000E+00  0.00000000000E+00  0.10268132399E+03  0.10268132402E+03  0.25500000000E-02 0. -1.
         -2   -1    0    0    0  501 -0.00000000000E+00 -0.00000000000E+00 -0.64141926095E+03  0.64141926095E+03  0.25500000000E-02 0.  1.
    5000001    1    1    2    0    0 -0.13599726701E+03  0.73411496722E+02 -0.16570341404E+03  0.29699516143E+03  0.19200000000E+03 0.  0.
   -5000001    1    1    2    0    0  0.13599726701E+03 -0.73411496722E+02 -0.37303452291E+03  0.44710542355E+03  0.19200000000E+03 0.  0.
<mgrwt>
<rscale>  0 0.51327100E+03</rscale>
<asrwt>0</asrwt>
<pdfrwt beam="1">  1        2 0.14668761E-01 0.51327100E+03</pdfrwt>
<pdfrwt beam="2">  1       -2 0.91631321E-01 0.51327100E+03</pdfrwt>
<totfact> 0.42193805E+02</totfact>
</mgrwt>
</event>
<event>
 4    1  0.5626910E-005  0.4872072E+03  0.7818608E-02  0.1017173E+00
          2   -1    0    0  501    0  0.00000000000E+00  0.00000000000E+00  0.26919488366E+04  0.26919488366E+04  0.25500000000E-02 0.  1.
         -2   -1    0    0    0  501 -0.00000000000E+00 -0.00000000000E+00 -0.22044515775E+02  0.22044515922E+02  0.25500000000E-02 0. -1.
    5000001    1    1    2    0    0 -0.11321159115E+03 -0.89498776268E+02  0.11085525878E+04  0.11342749822E+04  0.19200000000E+03 0.  0.
   -5000001    1    1    2    0    0  0.11321159115E+03  0.89498776268E+02  0.15613517330E+04  0.15797183703E+04  0.19200000000E+03 0.  0.
<mgrwt>
<rscale>  0 0.48720718E+03</rscale>
<asrwt>0</asrwt>
<pdfrwt beam="1">  1        2 0.38456379E+00 0.48720718E+03</pdfrwt>
<pdfrwt beam="2">  1       -2 0.31492192E-02 0.48720718E+03</pdfrwt>
<totfact> 0.15481484E+03</totfact>
</mgrwt>
</event>
<event>
 4    1  0.5626910E-005  0.5733365E+03  0.7818608E-02  0.9962322E-01
         -2   -1    0    0    0  501 -0.00000000000E+00  0.00000000000E+00  0.57032047657E+02  0.57032047714E+02  0.25500000000E-02 0. -1.
          2   -1    0    0  501    0  0.00000000000E+00 -0.00000000000E+00 -0.14409213923E+04  0.14409213923E+04  0.25500000000E-02 0.  1.
    5000001    1    1    2    0    0  0.16051492909E+03  0.11081418318E+03 -0.91471229567E+03  0.95478134120E+03  0.19200000000E+03 0.  0.
   -5000001    1    1    2    0    0 -0.16051492909E+03 -0.11081418318E+03 -0.46917704899E+03  0.54317209883E+03  0.19200000000E+03 0.  0.
<mgrwt>
<rscale>  0 0.57333654E+03</rscale>
<asrwt>0</asrwt>
<pdfrwt beam="1">  1        2 0.20584589E+00 0.57333654E+03</pdfrwt>
<pdfrwt beam="2">  1       -2 0.81474363E-02 0.57333654E+03</pdfrwt>
<totfact> 0.15224335E+03</totfact>
</mgrwt>
</event>
<event>
 4    1  0.5626910E-005  0.6135804E+03  0.7818608E-02  0.9877625E-01
         -2   -1    0    0    0  501 -0.00000000000E+00  0.00000000000E+00  0.99583840003E+02  0.99583840035E+02  0.25500000000E-02 0. -1.
          2   -1    0    0  501    0  0.00000000000E+00 -0.00000000000E+00 -0.94513550073E+03  0.94513550073E+03  0.25500000000E-02 0.  1.
    5000001    1    1    2    0    0 -0.15490784687E+03  0.91622275230E+02 -0.15428860769E+03  0.30505746475E+03  0.19200000000E+03 0.  0.
   -5000001    1    1    2    0    0  0.15490784687E+03 -0.91622275230E+02 -0.69126305303E+03  0.73966187601E+03  0.19200000000E+03 0.  0.
<mgrwt>
<rscale>  0 0.61358039E+03</rscale>
<asrwt>0</asrwt>
<pdfrwt beam="1">  1        2 0.13501935E+00 0.61358039E+03</pdfrwt>
<pdfrwt beam="2">  1       -2 0.14226263E-01 0.61358039E+03</pdfrwt>
<totfact> 0.11695485E+03</totfact>
</mgrwt>
</event>
<event>
 4    1  0.5626910E-005  0.8279416E+03  0.7818608E-02  0.9520431E-01
          2   -1    0    0  501    0  0.00000000000E+00  0.00000000000E+00  0.31470960611E+03  0.31470960612E+03  0.25500000000E-02 0.  1.
         -2   -1    0    0    0  501 -0.00000000000E+00 -0.00000000000E+00 -0.54453948241E+03  0.54453948242E+03  0.25500000000E-02 0. -1.
    5000001    1    1    2    0    0 -0.25730323545E+03  0.26121344457E+03 -0.10620797011E+03  0.42729562543E+03  0.19200000000E+03 0.  0.
   -5000001    1    1    2    0    0  0.25730323545E+03 -0.26121344457E+03 -0.12362190619E+03  0.43195346311E+03  0.19200000000E+03 0.  0.
<mgrwt>
<rscale>  0 0.82794156E+03</rscale>
<asrwt>0</asrwt>
<pdfrwt beam="1">  1        2 0.44958515E-01 0.82794156E+03</pdfrwt>
<pdfrwt beam="2">  1       -2 0.77791355E-01 0.82794156E+03</pdfrwt>
<totfact> 0.16750327E+02</totfact>
</mgrwt>
</event>
<event>
 4    1  0.5626910E-005  0.5514602E+03  0.7818608E-02  0.1001157E+00
         -2   -1    0    0    0  501 -0.00000000000E+00  0.00000000000E+00  0.51627973904E+02  0.51627973967E+02  0.25500000000E-02 0. -1.
          2   -1    0    0  501    0  0.00000000000E+00 -0.00000000000E+00 -0.14725948589E+04  0.14725948589E+04  0.25500000000E-02 0.  1.
    5000001    1    1    2    0    0  0.52331928543E+02  0.17979621645E+03 -0.88741632072E+03  0.92705827027E+03  0.19200000000E+03 0.  0.
   -5000001    1    1    2    0    0 -0.52331928543E+02 -0.17979621645E+03 -0.53355056432E+03  0.59716456265E+03  0.19200000000E+03 0.  0.
<mgrwt>
<rscale>  0 0.55146020E+03</rscale>
<asrwt>0</asrwt>
<pdfrwt beam="1">  1        2 0.21037067E+00 0.55146020E+03</pdfrwt>
<pdfrwt beam="2">  1       -2 0.73754257E-02 0.55146020E+03</pdfrwt>
<totfact> 0.17174782E+03</totfact>
</mgrwt>
</event>
<event>
 4    1  0.5626910E-005  0.4823813E+03  0.7818608E-02  0.1018483E+00
          2   -1    0    0  501    0  0.00000000000E+00  0.00000000000E+00  0.40293708928E+03  0.40293708929E+03  0.25500000000E-02 0.  1.
         -2   -1    0    0    0  501 -0.00000000000E+00 -0.00000000000E+00 -0.14437226221E+03  0.14437226224E+03  0.25500000000E-02 0. -1.
    5000001    1    1    2    0    0  0.12173251152E+03  0.78914259914E+02  0.14767112054E+03  0.28234203481E+03  0.19200000000E+03 0.  0.
   -5000001    1    1    2    0    0 -0.12173251152E+03 -0.78914259914E+02  0.11089370652E+03  0.26496731671E+03  0.19200000000E+03 0.  0.
<mgrwt>
<rscale>  0 0.48238134E+03</rscale>
<asrwt>0</asrwt>
<pdfrwt beam="1">  1        2 0.57562440E-01 0.48238134E+03</pdfrwt>
<pdfrwt beam="2">  1       -2 0.20624609E-01 0.48238134E+03</pdfrwt>
<totfact> 0.17253371E+03</totfact>
</mgrwt>
</event>
<event>
 4    1  0.5626910E-005  0.5508220E+03  0.7818608E-02  0.1001304E+00
         -2   -1    0    0    0  501 -0.00000000000E+00  0.00000000000E+00  0.18435468117E+03  0.18435468118E+03  0.25500000000E-02 0. -1.
          2   -1    0    0  501    0  0.00000000000E+00 -0.00000000000E+00 -0.41144180864E+03  0.41144180865E+03  0.25500000000E-02 0.  1.
    5000001    1    1    2    0    0  0.17017873592E+03  0.96460778885E+02 -0.84484817859E+02  0.28682253829E+03  0.19200000000E+03 0.  0.
   -5000001    1    1    2    0    0 -0.17017873592E+03 -0.96460778885E+02 -0.14260230962E+03  0.30897395154E+03  0.19200000000E+03 0.  0.
<mgrwt>
<rscale>  0 0.55082202E+03</rscale>
<asrwt>0</asrwt>
<pdfrwt beam="1">  1        2 0.58777401E-01 0.55082202E+03</pdfrwt>
<pdfrwt beam="2">  1       -2 0.26336383E-01 0.55082202E+03</pdfrwt>
<totfact> 0.10933156E+03</totfact>
</mgrwt>
</event>
<event>
 4    1  0.5626910E-005  0.5101789E+03  0.7818608E-02  0.1011156E+00
         -2   -1    0    0    0  501 -0.00000000000E+00  0.00000000000E+00  0.59177686863E+02  0.59177686918E+02  0.25500000000E-02 0. -1.
          2   -1    0    0  501    0  0.00000000000E+00 -0.00000000000E+00 -0.10995802470E+04  0.10995802470E+04  0.25500000000E-02 0.  1.
    5000001    1    1    2    0    0 -0.37446800603E+02  0.51108782715E+02 -0.87347257780E+03  0.89656718360E+03  0.19200000000E+03 0.  0.
   -5000001    1    1    2    0    0  0.37446800603E+02 -0.51108782715E+02 -0.16692998232E+03  0.26219075030E+03  0.19200000000E+03 0.  0.
<mgrwt>
<rscale>  0 0.51017885E+03</rscale>
<asrwt>0</asrwt>
<pdfrwt beam="1">  1        2 0.15708288E+00 0.51017885E+03</pdfrwt>
<pdfrwt beam="2">  1       -2 0.84539560E-02 0.51017885E+03</pdfrwt>
<totfact> 0.22112347E+03</totfact>
</mgrwt>
</event>
<event>
 4    1  0.5626910E-005  0.8517995E+03  0.7818608E-02  0.9487925E-01
          2   -1    0    0  501    0  0.00000000000E+00  0.00000000000E+00  0.19269048309E+04  0.19269048309E+04  0.25500000000E-02 0.  1.
         -2   -1    0    0    0  501 -0.00000000000E+00 -0.00000000000E+00 -0.94135729042E+02  0.94135729077E+02  0.25500000000E-02 0. -1.
    5000001    1    1    2    0    0  0.91709181069E+02 -0.34160339893E+03  0.58571262831E+03  0.71065233343E+03  0.19200000000E+03 0.  0.
   -5000001    1    1    2    0    0 -0.91709181069E+02  0.34160339893E+03  0.12470564735E+04  0.13103882265E+04  0.19200000000E+03 0.  0.
<mgrwt>
<rscale>  0 0.85179949E+03</rscale>
<asrwt>0</asrwt>
<pdfrwt beam="1">  1        2 0.27527212E+00 0.85179949E+03</pdfrwt>
<pdfrwt beam="2">  1       -2 0.13447961E-01 0.85179949E+03</pdfrwt>
<totfact> 0.37269127E+02</totfact>
</mgrwt>
</event>
<event>
 4    1  0.5626910E-005  0.5765567E+03  0.7818608E-02  0.9955274E-01
         -2   -1    0    0    0  501 -0.00000000000E+00  0.00000000000E+00  0.10037993444E+03  0.10037993448E+03  0.25500000000E-02 0.  1.
          2   -1    0    0  501    0  0.00000000000E+00 -0.00000000000E+00 -0.82789857477E+03  0.82789857477E+03  0.25500000000E-02 0. -1.
    5000001    1    1    2    0    0  0.13158288862E+03  0.68711157808E+02 -0.61424906076E+03  0.66045528875E+03  0.19200000000E+03 0.  0.
   -5000001    1    1    2    0    0 -0.13158288862E+03 -0.68711157808E+02 -0.11326957956E+03  0.26782322050E+03  0.19200000000E+03 0.  0.
<mgrwt>
<rscale>  0 0.57655669E+03</rscale>
<asrwt>0</asrwt>
<pdfrwt beam="1">  1        2 0.11827122E+00 0.57655669E+03</pdfrwt>
<pdfrwt beam="2">  1       -2 0.14339991E-01 0.57655669E+03</pdfrwt>
<totfact> 0.13769413E+03</totfact>
</mgrwt>
</event>
<event>
 4    1  0.5626910E-005  0.1261787E+04  0.7818608E-02  0.9060430E-01
         -2   -1    0    0    0  501 -0.00000000000E+00  0.00000000000E+00  0.46452370671E+03  0.46452370672E+03  0.25500000000E-02 0. -1.
          2   -1    0    0  501    0  0.00000000000E+00 -0.00000000000E+00 -0.85684820456E+03  0.85684820457E+03  0.25500000000E-02 0.  1.
    5000001    1    1    2    0    0 -0.11388831594E+03  0.48791095552E+03  0.15137486160E+03  0.55749977376E+03  0.19200000000E+03 0.  0.
   -5000001    1    1    2    0    0  0.11388831594E+03 -0.48791095552E+03 -0.54369935945E+03  0.76387213752E+03  0.19200000000E+03 0.  0.
<mgrwt>
<rscale>  0 0.12617865E+04</rscale>
<asrwt>0</asrwt>
<pdfrwt beam="1">  1        2 0.12240689E+00 0.12617865E+04</pdfrwt>
<pdfrwt beam="2">  1       -2 0.66360529E-01 0.12617865E+04</pdfrwt>
<totfact> 0.71351721E+01</totfact>
</mgrwt>
</event>
<event>
 4    1  0.5626910E-005  0.5868737E+03  0.7818608E-02  0.9933020E-01
         -2   -1    0    0    0  501 -0.00000000000E+00  0.00000000000E+00  0.11454024201E+03  0.11454024204E+03  0.25500000000E-02 0. -1.
          2   -1    0    0  501    0  0.00000000000E+00 -0.00000000000E+00 -0.75174603819E+03  0.75174603819E+03  0.25500000000E-02 0.  1.
    5000001    1    1    2    0    0 -0.20563417684E+03  0.81139633815E+02 -0.29012831785E+03  0.41219836933E+03  0.19200000000E+03 0.  0.
   -5000001    1    1    2    0    0  0.20563417684E+03 -0.81139633815E+02 -0.34707747833E+03  0.45408791090E+03  0.19200000000E+03 0.  0.
<mgrwt>
<rscale>  0 0.58687366E+03</rscale>
<asrwt>0</asrwt>
<pdfrwt beam="1">  1        2 0.10739229E+00 0.58687366E+03</pdfrwt>
<pdfrwt beam="2">  1       -2 0.16362892E-01 0.58687366E+03</pdfrwt>
<totfact> 0.12458135E+03</totfact>
</mgrwt>
</event>
<event>
 4    1  0.5626910E-005  0.7027715E+03  0.7818608E-02  0.9712504E-01
          2   -1    0    0  501    0  0.00000000000E+00  0.00000000000E+00  0.25984377152E+04  0.25984377152E+04  0.25500000000E-02 0.  1.
         -2   -1    0    0    0  501 -0.00000000000E+00 -0.00000000000E+00 -0.47517756579E+02  0.47517756648E+02  0.25500000000E-02 0. -1.
    5000001    1    1    2    0    0 -0.10055507276E+02  0.29410717418E+03  0.12649530519E+04  0.13128481887E+04  0.19200000000E+03 0.  0.
   -5000001    1    1    2    0    0  0.10055507276E+02 -0.29410717418E+03  0.12859669067E+04  0.13331072831E+04  0.19200000000E+03 0.  0.
<mgrwt>
<rscale>  0 0.70277146E+03</rscale>
<asrwt>0</asrwt>
<pdfrwt beam="1">  1        2 0.37120551E+00 0.70277146E+03</pdfrwt>
<pdfrwt beam="2">  1       -2 0.67882487E-02 0.70277146E+03</pdfrwt>
<totfact> 0.51913603E+02</totfact>
</mgrwt>
</event>
<event>
 4    1  0.5626910E-005  0.8506765E+03  0.7818608E-02  0.9489429E-01
         -2   -1    0    0    0  501 -0.00000000000E+00  0.00000000000E+00  0.23415908477E+03  0.23415908478E+03  0.25500000000E-02 0. -1.
          2   -1    0    0  501    0  0.00000000000E+00 -0.00000000000E+00 -0.77260569355E+03  0.77260569356E+03  0.25500000000E-02 0.  1.
    5000001    1    1    2    0    0 -0.91796632543E+02  0.35740337635E+03 -0.16413359456E+03  0.44717740555E+03  0.19200000000E+03 0.  0.
   -5000001    1    1    2    0    0  0.91796632543E+02 -0.35740337635E+03 -0.37431301423E+03  0.55958737279E+03  0.19200000000E+03 0.  0.
<mgrwt>
<rscale>  0 0.85067654E+03</rscale>
<asrwt>0</asrwt>
<pdfrwt beam="1">  1        2 0.11037224E+00 0.85067654E+03</pdfrwt>
<pdfrwt beam="2">  1       -2 0.33451298E-01 0.85067654E+03</pdfrwt>
<totfact> 0.33264488E+02</totfact>
</mgrwt>
</event>
<event>
 4    1  0.5626910E-005  0.4502476E+03  0.7818608E-02  0.1027648E+00
         -2   -1    0    0    0  501 -0.00000000000E+00  0.00000000000E+00  0.24385812844E+02  0.24385812977E+02  0.25500000000E-02 0. -1.
          2   -1    0    0  501    0  0.00000000000E+00 -0.00000000000E+00 -0.20782871462E+04  0.20782871462E+04  0.25500000000E-02 0.  1.
    5000001    1    1    2    0    0  0.61791335933E+02  0.32876200463E+02 -0.14679591642E+04  0.14821157585E+04  0.19200000000E+03 0.  0.
   -5000001    1    1    2    0    0 -0.61791335933E+02 -0.32876200463E+02 -0.58594216915E+03  0.62055720070E+03  0.19200000000E+03 0.  0.
<mgrwt>
<rscale>  0 0.45024758E+03</rscale>
<asrwt>0</asrwt>
<pdfrwt beam="1">  1        2 0.29689805E+00 0.45024758E+03</pdfrwt>
<pdfrwt beam="2">  1       -2 0.34836889E-02 0.45024758E+03</pdfrwt>
<totfact> 0.27199744E+03</totfact>
</mgrwt>
</event>
<event>
 4    1  0.5626910E-005  0.6498496E+03  0.7818608E-02  0.9807061E-01
         -2   -1    0    0    0  501 -0.00000000000E+00  0.00000000000E+00  0.26696670047E+03  0.26696670048E+03  0.25500000000E-02 0. -1.
          2   -1    0    0  501    0  0.00000000000E+00 -0.00000000000E+00 -0.39546555208E+03  0.39546555209E+03  0.25500000000E-02 0.  1.
    5000001    1    1    2    0    0  0.25004517662E+02 -0.26086432320E+03 -0.70425834186E+02  0.33241422825E+03  0.19200000000E+03 0.  0.
   -5000001    1    1    2    0    0 -0.25004517662E+02  0.26086432320E+03 -0.58073017428E+02  0.33001802432E+03  0.19200000000E+03 0.  0.
<mgrwt>
<rscale>  0 0.64984962E+03</rscale>
<asrwt>0</asrwt>
<pdfrwt beam="1">  1        2 0.56495079E-01 0.64984962E+03</pdfrwt>
<pdfrwt beam="2">  1       -2 0.38138100E-01 0.64984962E+03</pdfrwt>
<totfact> 0.57210698E+02</totfact>
</mgrwt>
</event>
<event>
 4    1  0.5626910E-005  0.4553021E+03  0.7818608E-02  0.1026153E+00
         -2   -1    0    0    0  501 -0.00000000000E+00  0.00000000000E+00  0.40477304347E+02  0.40477304428E+02  0.25500000000E-02 0. -1.
          2   -1    0    0  501    0  0.00000000000E+00 -0.00000000000E+00 -0.12803469656E+04  0.12803469656E+04  0.25500000000E-02 0.  1.
    5000001    1    1    2    0    0 -0.20688741684E+02  0.11419419041E+03 -0.73201412345E+03  0.76562197858E+03  0.19200000000E+03 0.  0.
   -5000001    1    1    2    0    0  0.20688741684E+02 -0.11419419041E+03 -0.50785553783E+03  0.55520229147E+03  0.19200000000E+03 0.  0.
<mgrwt>
<rscale>  0 0.45530207E+03</rscale>
<asrwt>0</asrwt>
<pdfrwt beam="1">  1        2 0.18290668E+00 0.45530207E+03</pdfrwt>
<pdfrwt beam="2">  1       -2 0.57824729E-02 0.45530207E+03</pdfrwt>
<totfact> 0.31854529E+03</totfact>
</mgrwt>
</event>
<event>
 4    1  0.5626910E-005  0.5333165E+03  0.7818608E-02  0.1005431E+00
         -2   -1    0    0    0  501 -0.00000000000E+00  0.00000000000E+00  0.22339548806E+03  0.22339548807E+03  0.25500000000E-02 0. -1.
          2   -1    0    0  501    0  0.00000000000E+00 -0.00000000000E+00 -0.31829927486E+03  0.31829927487E+03  0.25500000000E-02 0.  1.
    5000001    1    1    2    0    0  0.98464470637E+02 -0.15506248112E+03 -0.70231815950E+02  0.27483837614E+03  0.19200000000E+03 0.  0.
   -5000001    1    1    2    0    0 -0.98464470637E+02  0.15506248112E+03 -0.24671970851E+02  0.26685638680E+03  0.19200000000E+03 0.  0.
<mgrwt>
<rscale>  0 0.53331650E+03</rscale>
<asrwt>0</asrwt>
<pdfrwt beam="1">  1        2 0.45471325E-01 0.53331650E+03</pdfrwt>
<pdfrwt beam="2">  1       -2 0.31913641E-01 0.53331650E+03</pdfrwt>
<totfact> 0.10206433E+03</totfact>
</mgrwt>
</event>
<event>
 4    1  0.5626910E-005  0.6315924E+03  0.7818608E-02  0.9841946E-01
         -2   -1    0    0    0  501 -0.00000000000E+00  0.00000000000E+00  0.18021554699E+03  0.18021554701E+03  0.25500000000E-02 0. -1.
          2   -1    0    0  501    0  0.00000000000E+00 -0.00000000000E+00 -0.55337750130E+03  0.55337750131E+03  0.25500000000E-02 0.  1.
    5000001    1    1    2    0    0  0.11850592684E+03 -0.15158654491E+03 -0.37329364381E+03  0.46177297431E+03  0.19200000000E+03 0.  0.
   -5000001    1    1    2    0    0 -0.11850592684E+03  0.15158654491E+03  0.13168949460E+00  0.27182007401E+03  0.19200000000E+03 0.  0.
<mgrwt>
<rscale>  0 0.63159237E+03</rscale>
<asrwt>0</asrwt>
<pdfrwt beam="1">  1        2 0.79053928E-01 0.63159237E+03</pdfrwt>
<pdfrwt beam="2">  1       -2 0.25745078E-01 0.63159237E+03</pdfrwt>
<totfact> 0.81378016E+02</totfact>
</mgrwt>
</event>
<event>
 4    1  0.5626910E-005  0.6841185E+03  0.7818608E-02  0.9744784E-01
          2   -1    0    0  501    0  0.00000000000E+00  0.00000000000E+00  0.59754860115E+03  0.59754860115E+03  0.25500000000E-02 0.  1.
         -2   -1    0    0    0  501 -0.00000000000E+00 -0.00000000000E+00 -0.19580756918E+03  0.19580756920E+03  0.25500000000E-02 0. -1.
    5000001    1    1    2    0    0  0.22037568835E+03  0.15096201722E+03  0.30956854937E+03  0.45172077815E+03  0.19200000000E+03 0.  0.
   -5000001    1    1    2    0    0 -0.22037568835E+03 -0.15096201722E+03  0.92172482600E+02  0.34163539220E+03  0.19200000000E+03 0.  0.
<mgrwt>
<rscale>  0 0.68411853E+03</rscale>
<asrwt>0</asrwt>
<pdfrwt beam="1">  1        2 0.85364088E-01 0.68411853E+03</pdfrwt>
<pdfrwt beam="2">  1       -2 0.27972509E-01 0.68411853E+03</pdfrwt>
<totfact> 0.63901339E+02</totfact>
</mgrwt>
</event>
<event>
 4    1  0.5626910E-005  0.5570285E+03  0.7818608E-02  0.9998801E-01
          2   -1    0    0  501    0  0.00000000000E+00  0.00000000000E+00  0.31715073554E+03  0.31715073555E+03  0.25500000000E-02 0.  1.
         -2   -1    0    0    0  501 -0.00000000000E+00 -0.00000000000E+00 -0.24458460715E+03  0.24458460717E+03  0.25500000000E-02 0. -1.
    5000001    1    1    2    0    0  0.36326778661E+02 -0.19259675175E+03 -0.12007309566E+02  0.27462942143E+03  0.19200000000E+03 0.  0.
   -5000001    1    1    2    0    0 -0.36326778661E+02  0.19259675175E+03  0.84573437947E+02  0.28710592129E+03  0.19200000000E+03 0.  0.
<mgrwt>
<rscale>  0 0.55702850E+03</rscale>
<asrwt>0</asrwt>
<pdfrwt beam="1">  1        2 0.45307248E-01 0.55702850E+03</pdfrwt>
<pdfrwt beam="2">  1       -2 0.34940658E-01 0.55702850E+03</pdfrwt>
<totfact> 0.86436582E+02</totfact>
</mgrwt>
</event>
<event>
 4    1  0.5626910E-005  0.7499245E+03  0.7818608E-02  0.9635469E-01
          2   -1    0    0  501    0  0.00000000000E+00  0.00000000000E+00  0.12752784724E+03  0.12752784727E+03  0.25500000000E-02 0.  1.
         -2   -1    0    0    0  501 -0.00000000000E+00 -0.00000000000E+00 -0.11024783984E+04  0.11024783984E+04  0.25500000000E-02 0. -1.
    5000001    1    1    2    0    0  0.22913666720E+03  0.21613075749E+03 -0.37724659066E+03  0.52763160136E+03  0.19200000000E+03 0.  0.
   -5000001    1    1    2    0    0 -0.22913666720E+03 -0.21613075749E+03 -0.59770396052E+03  0.70237464434E+03  0.19200000000E+03 0.  0.
<mgrwt>
<rscale>  0 0.74992452E+03</rscale>
<asrwt>0</asrwt>
<pdfrwt beam="1">  1        2 0.18218264E-01 0.74992452E+03</pdfrwt>
<pdfrwt beam="2">  1       -2 0.15749691E+00 0.74992452E+03</pdfrwt>
<totfact> 0.84423527E+01</totfact>
</mgrwt>
</event>
<event>
 4    1  0.5626910E-005  0.9808310E+03  0.7818608E-02  0.9329823E-01
          2   -1    0    0  501    0  0.00000000000E+00  0.00000000000E+00  0.18788720719E+04  0.18788720719E+04  0.25500000000E-02 0.  1.
         -2   -1    0    0    0  501 -0.00000000000E+00 -0.00000000000E+00 -0.12800624135E+03  0.12800624137E+03  0.25500000000E-02 0. -1.
    5000001    1    1    2    0    0  0.34208768908E+02  0.42999212242E+03  0.60414221793E+03  0.76675633985E+03  0.19200000000E+03 0.  0.
   -5000001    1    1    2    0    0 -0.34208768908E+02 -0.42999212242E+03  0.11467236126E+04  0.12401219734E+04  0.19200000000E+03 0.  0.
<mgrwt>
<rscale>  0 0.98083098E+03</rscale>
<asrwt>0</asrwt>
<pdfrwt beam="1">  1        2 0.26841029E+00 0.98083098E+03</pdfrwt>
<pdfrwt beam="2">  1       -2 0.18286607E-01 0.98083098E+03</pdfrwt>
<totfact> 0.23159104E+02</totfact>
</mgrwt>
</event>
<event>
 4    1  0.5626910E-005  0.6858726E+03  0.7818608E-02  0.9741702E-01
          2   -1    0    0  501    0  0.00000000000E+00  0.00000000000E+00  0.27867912289E+04  0.27867912289E+04  0.25500000000E-02 0.  1.
         -2   -1    0    0    0  501 -0.00000000000E+00 -0.00000000000E+00 -0.42200972116E+02  0.42200972193E+02  0.25500000000E-02 0. -1.
    5000001    1    1    2    0    0  0.23673991874E+03 -0.15714506193E+03  0.13682973123E+04  0.14106175578E+04  0.19200000000E+03 0.  0.
   -5000001    1    1    2    0    0 -0.23673991874E+03  0.15714506193E+03  0.13762929445E+04  0.14183746433E+04  0.19200000000E+03 0.  0.
<mgrwt>
<rscale>  0 0.68587258E+03</rscale>
<asrwt>0</asrwt>
<pdfrwt beam="1">  1        2 0.39811313E+00 0.68587258E+03</pdfrwt>
<pdfrwt beam="2">  1       -2 0.60287089E-02 0.68587258E+03</pdfrwt>
<totfact> 0.49911960E+02</totfact>
</mgrwt>
</event>
<event>
 4    1  0.5626910E-005  0.4481357E+03  0.7818608E-02  0.1028279E+00
          2   -1    0    0  501    0  0.00000000000E+00  0.00000000000E+00  0.33876381149E+03  0.33876381150E+03  0.25500000000E-02 0.  1.
         -2   -1    0    0    0  501 -0.00000000000E+00 -0.00000000000E+00 -0.14820476645E+03  0.14820476647E+03  0.25500000000E-02 0. -1.
    5000001    1    1    2    0    0  0.43568547826E+02  0.98338828178E+02  0.14104389671E+03  0.26139266303E+03  0.19200000000E+03 0.  0.
   -5000001    1    1    2    0    0 -0.43568547826E+02 -0.98338828178E+02  0.49515148331E+02  0.22557591494E+03  0.19200000000E+03 0.  0.
<mgrwt>
<rscale>  0 0.44813575E+03</rscale>
<asrwt>0</asrwt>
<pdfrwt beam="1">  1        2 0.48394830E-01 0.44813575E+03</pdfrwt>
<pdfrwt beam="2">  1       -2 0.21172109E-01 0.44813575E+03</pdfrwt>
<totfact> 0.19934331E+03</totfact>
</mgrwt>
</event>
<event>
 4    1  0.5626910E-005  0.5649151E+03  0.7818608E-02  0.9980994E-01
         -2   -1    0    0    0  501 -0.00000000000E+00  0.00000000000E+00  0.34940060112E+02  0.34940060205E+02  0.25500000000E-02 0. -1.
          2   -1    0    0  501    0  0.00000000000E+00 -0.00000000000E+00 -0.22834039236E+04  0.22834039236E+04  0.25500000000E-02 0.  1.
    5000001    1    1    2    0    0 -0.10271835045E+03  0.17038686176E+03 -0.88721629606E+03  0.92930054244E+03  0.19200000000E+03 0.  0.
   -5000001    1    1    2    0    0  0.10271835045E+03 -0.17038686176E+03 -0.13612475675E+04  0.13890434414E+04  0.19200000000E+03 0.  0.
<mgrwt>
<rscale>  0 0.56491511E+03</rscale>
<asrwt>0</asrwt>
<pdfrwt beam="1">  1        2 0.32620047E+00 0.56491511E+03</pdfrwt>
<pdfrwt beam="2">  1       -2 0.49914386E-02 0.56491511E+03</pdfrwt>
<totfact> 0.12300930E+03</totfact>
</mgrwt>
</event>
<event>
 4    1  0.5626910E-005  0.7001193E+03  0.7818608E-02  0.9717028E-01
         -2   -1    0    0    0  501 -0.00000000000E+00  0.00000000000E+00  0.16576609059E+03  0.16576609061E+03  0.25500000000E-02 0. -1.
          2   -1    0    0  501    0  0.00000000000E+00 -0.00000000000E+00 -0.73924493435E+03  0.73924493435E+03  0.25500000000E-02 0.  1.
    5000001    1    1    2    0    0 -0.28755976971E+03  0.16918174897E+02 -0.21956006268E+03  0.40993593026E+03  0.19200000000E+03 0.  0.
   -5000001    1    1    2    0    0  0.28755976971E+03 -0.16918174897E+02 -0.35391878108E+03  0.49507509470E+03  0.19200000000E+03 0.  0.
<mgrwt>
<rscale>  0 0.70011925E+03</rscale>
<asrwt>0</asrwt>
<pdfrwt beam="1">  1        2 0.10560642E+00 0.70011925E+03</pdfrwt>
<pdfrwt beam="2">  1       -2 0.23680870E-01 0.70011925E+03</pdfrwt>
<totfact> 0.66685563E+02</totfact>
</mgrwt>
</event>
<event>
 4    1  0.5626910E-005  0.4290684E+03  0.7818608E-02  0.1034155E+00
          2   -1    0    0  501    0  0.00000000000E+00  0.00000000000E+00  0.22056189329E+04  0.22056189329E+04  0.25500000000E-02 0.  1.
         -2   -1    0    0    0  501 -0.00000000000E+00 -0.00000000000E+00 -0.20867128361E+02  0.20867128517E+02  0.25500000000E-02 0. -1.
    5000001    1    1    2    0    0  0.71686794345E+02 -0.56715406507E+01  0.76460728540E+03  0.79161825632E+03  0.19200000000E+03 0.  0.
   -5000001    1    1    2    0    0 -0.71686794345E+02  0.56715406507E+01  0.14201445191E+04  0.14348678051E+04  0.19200000000E+03 0.  0.
<mgrwt>
<rscale>  0 0.42906845E+03</rscale>
<asrwt>0</asrwt>
<pdfrwt beam="1">  1        2 0.31508831E+00 0.42906845E+03</pdfrwt>
<pdfrwt beam="2">  1       -2 0.29810194E-02 0.42906845E+03</pdfrwt>
<totfact> 0.29779487E+03</totfact>
</mgrwt>
</event>
<event>
 4    1  0.5626910E-005  0.5386259E+03  0.7818608E-02  0.1004161E+00
         -2   -1    0    0    0  501 -0.00000000000E+00  0.00000000000E+00  0.25964744743E+02  0.25964744868E+02  0.25500000000E-02 0. -1.
          2   -1    0    0  501    0  0.00000000000E+00 -0.00000000000E+00 -0.27933828502E+04  0.27933828502E+04  0.25500000000E-02 0.  1.
    5000001    1    1    2    0    0  0.11238098684E+03  0.13962479208E+03 -0.10722374567E+04  0.11039391887E+04  0.19200000000E+03 0.  0.
   -5000001    1    1    2    0    0 -0.11238098684E+03 -0.13962479208E+03 -0.16951806488E+04  0.17154084064E+04  0.19200000000E+03 0.  0.
<mgrwt>
<rscale>  0 0.53862593E+03</rscale>
<asrwt>0</asrwt>
<pdfrwt beam="1">  1        2 0.39905450E+00 0.53862593E+03</pdfrwt>
<pdfrwt beam="2">  1       -2 0.37092510E-02 0.53862593E+03</pdfrwt>
<totfact> 0.10637384E+03</totfact>
</mgrwt>
</event>
<event>
 4    1  0.5626910E-005  0.4232507E+03  0.7818608E-02  0.1036013E+00
          2   -1    0    0  501    0  0.00000000000E+00  0.00000000000E+00  0.77684069999E+03  0.77684070000E+03  0.25500000000E-02 0.  1.
         -2   -1    0    0    0  501 -0.00000000000E+00 -0.00000000000E+00 -0.57650549468E+02  0.57650549524E+02  0.25500000000E-02 0. -1.
    5000001    1    1    2    0    0 -0.55125679712E+01 -0.88512680024E+02  0.34478684095E+03  0.40448343430E+03  0.19200000000E+03 0.  0.
   -5000001    1    1    2    0    0  0.55125679712E+01  0.88512680024E+02  0.37440330958E+03  0.43000781522E+03  0.19200000000E+03 0.  0.
<mgrwt>
<rscale>  0 0.42325072E+03</rscale>
<asrwt>0</asrwt>
<pdfrwt beam="1">  1        2 0.11097724E+00 0.42325072E+03</pdfrwt>
<pdfrwt beam="2">  1       -2 0.82357932E-02 0.42325072E+03</pdfrwt>
<totfact> 0.36756342E+03</totfact>
</mgrwt>
</event>
<event>
 4    1  0.5626910E-005  0.6319748E+03  0.7818608E-02  0.9841203E-01
          2   -1    0    0  501    0  0.00000000000E+00  0.00000000000E+00  0.23220890319E+03  0.23220890321E+03  0.25500000000E-02 0.  1.
         -2   -1    0    0    0  501 -0.00000000000E+00 -0.00000000000E+00 -0.42999224284E+03  0.42999224285E+03  0.25500000000E-02 0. -1.
    5000001    1    1    2    0    0 -0.45250129759E+02 -0.24421653139E+03 -0.61188206490E+02  0.31983946764E+03  0.19200000000E+03 0.  0.
   -5000001    1    1    2    0    0  0.45250129759E+02  0.24421653139E+03 -0.13659513316E+03  0.34236167842E+03  0.19200000000E+03 0.  0.
<mgrwt>
<rscale>  0 0.63197477E+03</rscale>
<asrwt>0</asrwt>
<pdfrwt beam="1">  1        2 0.33172701E-01 0.63197477E+03</pdfrwt>
<pdfrwt beam="2">  1       -2 0.61427463E-01 0.63197477E+03</pdfrwt>
<totfact> 0.39498241E+02</totfact>
</mgrwt>
</event>
<event>
 4    1  0.5626910E-005  0.5122679E+03  0.7818608E-02  0.1010626E+00
          2   -1    0    0  501    0  0.00000000000E+00  0.00000000000E+00  0.31253232518E+03  0.31253232519E+03  0.25500000000E-02 0.  1.
         -2   -1    0    0    0  501 -0.00000000000E+00 -0.00000000000E+00 -0.20991299721E+03  0.20991299723E+03  0.25500000000E-02 0. -1.
    5000001    1    1    2    0    0  0.48314378937E+02  0.11198324894E+03  0.17140341368E+03  0.28481161752E+03  0.19200000000E+03 0.  0.
   -5000001    1    1    2    0    0 -0.48314378937E+02 -0.11198324894E+03 -0.68784085712E+02  0.23763370490E+03  0.19200000000E+03 0.  0.
<mgrwt>
<rscale>  0 0.51226789E+03</rscale>
<asrwt>0</asrwt>
<pdfrwt beam="1">  1        2 0.44647475E-01 0.51226789E+03</pdfrwt>
<pdfrwt beam="2">  1       -2 0.29987571E-01 0.51226789E+03</pdfrwt>
<totfact> 0.11685801E+03</totfact>
</mgrwt>
</event>
<event>
 4    1  0.5626910E-005  0.7009761E+03  0.7818608E-02  0.9715564E-01
         -2   -1    0    0    0  501 -0.00000000000E+00  0.00000000000E+00  0.52371816713E+02  0.52371816775E+02  0.25500000000E-02 0. -1.
          2   -1    0    0  501    0  0.00000000000E+00 -0.00000000000E+00 -0.23455719094E+04  0.23455719094E+04  0.25500000000E-02 0.  1.
    5000001    1    1    2    0    0  0.27946897773E+03  0.56847333773E+02 -0.13797045834E+04  0.14218942529E+04  0.19200000000E+03 0.  0.
   -5000001    1    1    2    0    0 -0.27946897773E+03 -0.56847333773E+02 -0.91349550928E+03  0.97604947330E+03  0.19200000000E+03 0.  0.
<mgrwt>
<rscale>  0 0.70097607E+03</rscale>
<asrwt>0</asrwt>
<pdfrwt beam="1">  1        2 0.33508164E+00 0.70097607E+03</pdfrwt>
<pdfrwt beam="2">  1       -2 0.74816896E-02 0.70097607E+03</pdfrwt>
<totfact> 0.60042271E+02</totfact>
</mgrwt>
</event>
<event>
 4    1  0.5626910E-005  0.5001846E+03  0.7818608E-02  0.1013731E+00
         -2   -1    0    0    0  501 -0.00000000000E+00  0.00000000000E+00  0.30480253224E+03  0.30480253225E+03  0.25500000000E-02 0. -1.
          2   -1    0    0  501    0  0.00000000000E+00 -0.00000000000E+00 -0.20520220060E+03  0.20520220062E+03  0.25500000000E-02 0.  1.
    5000001    1    1    2    0    0 -0.66806830750E+02  0.77995398210E+02  0.17524286715E+03  0.27950044233E+03  0.19200000000E+03 0.  0.
   -5000001    1    1    2    0    0  0.66806830750E+02 -0.77995398210E+02 -0.75642535511E+02  0.23050429054E+03  0.19200000000E+03 0.  0.
<mgrwt>
<rscale>  0 0.50018457E+03</rscale>
<asrwt>0</asrwt>
<pdfrwt beam="1">  1        2 0.29314600E-01 0.50018457E+03</pdfrwt>
<pdfrwt beam="2">  1       -2 0.43543219E-01 0.50018457E+03</pdfrwt>
<totfact> 0.91611598E+02</totfact>
</mgrwt>
</event>
<event>
 4    1  0.5626910E-005  0.9736592E+03  0.7818608E-02  0.9337916E-01
         -2   -1    0    0    0  501 -0.00000000000E+00  0.00000000000E+00  0.26718408330E+03  0.26718408332E+03  0.25500000000E-02 0. -1.
          2   -1    0    0  501    0  0.00000000000E+00 -0.00000000000E+00 -0.88704040789E+03  0.88704040789E+03  0.25500000000E-02 0.  1.
    5000001    1    1    2    0    0  0.92979676667E+02 -0.15431389418E+03 -0.79535672590E+03  0.83780327025E+03  0.19200000000E+03 0.  0.
   -5000001    1    1    2    0    0 -0.92979676667E+02  0.15431389418E+03  0.17550040132E+03  0.31642122096E+03  0.19200000000E+03 0.  0.
<mgrwt>
<rscale>  0 0.97365924E+03</rscale>
<asrwt>0</asrwt>
<pdfrwt beam="1">  1        2 0.12672006E+00 0.97365924E+03</pdfrwt>
<pdfrwt beam="2">  1       -2 0.38169155E-01 0.97365924E+03</pdfrwt>
<totfact> 0.21444993E+02</totfact>
</mgrwt>
</event>
<event>
 4    1  0.5626910E-005  0.5585514E+03  0.7818608E-02  0.9995338E-01
         -2   -1    0    0    0  501 -0.00000000000E+00  0.00000000000E+00  0.11265183540E+03  0.11265183543E+03  0.25500000000E-02 0. -1.
          2   -1    0    0  501    0  0.00000000000E+00 -0.00000000000E+00 -0.69235361350E+03  0.69235361350E+03  0.25500000000E-02 0.  1.
    5000001    1    1    2    0    0  0.55036847967E+02 -0.19446417129E+03 -0.31420468857E+03  0.42004042052E+03  0.19200000000E+03 0.  0.
   -5000001    1    1    2    0    0 -0.55036847967E+02  0.19446417129E+03 -0.26549708952E+03  0.38496502841E+03  0.19200000000E+03 0.  0.
<mgrwt>
<rscale>  0 0.55855136E+03</rscale>
<asrwt>0</asrwt>
<pdfrwt beam="1">  1        2 0.98907657E-01 0.55855136E+03</pdfrwt>
<pdfrwt beam="2">  1       -2 0.16093120E-01 0.55855136E+03</pdfrwt>
<totfact> 0.14186985E+03</totfact>
</mgrwt>
</event>
<event>
 4    1  0.5626910E-005  0.5613363E+03  0.7818608E-02  0.9989036E-01
          2   -1    0    0  501    0  0.00000000000E+00  0.00000000000E+00  0.15013024720E+03  0.15013024722E+03  0.25500000000E-02 0.  1.
         -2   -1    0    0    0  501 -0.00000000000E+00 -0.00000000000E+00 -0.52470842502E+03  0.52470842503E+03  0.25500000000E-02 0. -1.
    5000001    1    1    2    0    0  0.28181374776E+02  0.15706754493E+03 -0.33115615018E+02  0.25184329952E+03  0.19200000000E+03 0.  0.
   -5000001    1    1    2    0    0 -0.28181374776E+02 -0.15706754493E+03 -0.34146256280E+03  0.42299537273E+03  0.19200000000E+03 0.  0.
<mgrwt>
<rscale>  0 0.56133628E+03</rscale>
<asrwt>0</asrwt>
<pdfrwt beam="1">  1        2 0.21447178E-01 0.56133628E+03</pdfrwt>
<pdfrwt beam="2">  1       -2 0.74958345E-01 0.56133628E+03</pdfrwt>
<totfact> 0.42252120E+02</totfact>
</mgrwt>
</event>
<event>
 4    1  0.5626910E-005  0.8342352E+03  0.7818608E-02  0.9511744E-01
          2   -1    0    0  501    0  0.00000000000E+00  0.00000000000E+00  0.15537175426E+04  0.15537175426E+04  0.25500000000E-02 0.  1.
         -2   -1    0    0    0  501 -0.00000000000E+00 -0.00000000000E+00 -0.11198116147E+03  0.11198116150E+03  0.25500000000E-02 0. -1.
    5000001    1    1    2    0    0 -0.15888056827E+03 -0.22524069537E+03  0.12146037506E+04  0.12601994592E+04  0.19200000000E+03 0.  0.
   -5000001    1    1    2    0    0  0.15888056827E+03  0.22524069537E+03  0.22713263053E+03  0.40549924498E+03  0.19200000000E+03 0.  0.
<mgrwt>
<rscale>  0 0.83423521E+03</rscale>
<asrwt>0</asrwt>
<pdfrwt beam="1">  1        2 0.22195965E+00 0.83423521E+03</pdfrwt>
<pdfrwt beam="2">  1       -2 0.15997309E-01 0.83423521E+03</pdfrwt>
<totfact> 0.43261430E+02</totfact>
</mgrwt>
</event>
<event>
 4    1  0.5626910E-005  0.4281855E+03  0.7818608E-02  0.1034435E+00
         -2   -1    0    0    0  501 -0.00000000000E+00  0.00000000000E+00  0.13089354523E+02  0.13089354772E+02  0.25500000000E-02 0. -1.
          2   -1    0    0  501    0  0.00000000000E+00 -0.00000000000E+00 -0.35017540015E+04  0.35017540015E+04  0.25500000000E-02 0.  1.
    5000001    1    1    2    0    0  0.34767614264E+01  0.94516706266E+02 -0.17863528047E+04  0.17991291889E+04  0.19200000000E+03 0.  0.
   -5000001    1    1    2    0    0 -0.34767614264E+01 -0.94516706266E+02 -0.17023118422E+04  0.17157141673E+04  0.19200000000E+03 0.  0.
<mgrwt>
<rscale>  0 0.42818547E+03</rscale>
<asrwt>0</asrwt>
<pdfrwt beam="1">  1        2 0.50024997E+00 0.42818547E+03</pdfrwt>
<pdfrwt beam="2">  1       -2 0.18699100E-02 0.42818547E+03</pdfrwt>
<totfact> 0.12218870E+03</totfact>
</mgrwt>
</event>
<event>
 4    1  0.5626910E-005  0.7323159E+03  0.7818608E-02  0.9663510E-01
          2   -1    0    0  501    0  0.00000000000E+00  0.00000000000E+00  0.10596056482E+03  0.10596056485E+03  0.25500000000E-02 0.  1.
         -2   -1    0    0    0  501 -0.00000000000E+00 -0.00000000000E+00 -0.12652976843E+04  0.12652976843E+04  0.25500000000E-02 0. -1.
    5000001    1    1    2    0    0  0.13329270878E+03 -0.12703575801E+03 -0.10854845684E+03  0.28731828607E+03  0.19200000000E+03 0.  0.
   -5000001    1    1    2    0    0 -0.13329270878E+03  0.12703575801E+03 -0.10507886626E+04  0.10839399630E+04  0.19200000000E+03 0.  0.
<mgrwt>
<rscale>  0 0.73231594E+03</rscale>
<asrwt>0</asrwt>
<pdfrwt beam="1">  1        2 0.15137224E-01 0.73231594E+03</pdfrwt>
<pdfrwt beam="2">  1       -2 0.18075680E+00 0.73231594E+03</pdfrwt>
<totfact> 0.72159496E+01</totfact>
</mgrwt>
</event>
<event>
 4    1  0.5626910E-005  0.5750558E+03  0.7818608E-02  0.9958553E-01
         -2   -1    0    0    0  501 -0.00000000000E+00  0.00000000000E+00  0.19366750059E+02  0.19366750227E+02  0.25500000000E-02 0. -1.
          2   -1    0    0  501    0  0.00000000000E+00 -0.00000000000E+00 -0.42687754529E+04  0.42687754529E+04  0.25500000000E-02 0.  1.
    5000001    1    1    2    0    0 -0.77107350377E+02  0.11714193124E+03 -0.33303407883E+04  0.33388173867E+04  0.19200000000E+03 0.  0.
   -5000001    1    1    2    0    0  0.77107350377E+02 -0.11714193124E+03 -0.91906791451E+03  0.94932481639E+03  0.19200000000E+03 0.  0.
<mgrwt>
<rscale>  0 0.57505585E+03</rscale>
<asrwt>0</asrwt>
<pdfrwt beam="1">  1        2 0.60982446E+00 0.57505585E+03</pdfrwt>
<pdfrwt beam="2">  1       -2 0.27666813E-02 0.57505585E+03</pdfrwt>
<totfact> 0.21180135E+02</totfact>
</mgrwt>
</event>
<event>
 4    1  0.5626910E-005  0.7519823E+03  0.7818608E-02  0.9632246E-01
          2   -1    0    0  501    0  0.00000000000E+00  0.00000000000E+00  0.94040388463E+03  0.94040388463E+03  0.25500000000E-02 0.  1.
         -2   -1    0    0    0  501 -0.00000000000E+00 -0.00000000000E+00 -0.15032831514E+03  0.15032831517E+03  0.25500000000E-02 0. -1.
    5000001    1    1    2    0    0 -0.78883168126E+02 -0.25281343497E+03  0.12613916145E+03  0.35058846981E+03  0.19200000000E+03 0.  0.
   -5000001    1    1    2    0    0  0.78883168126E+02  0.25281343497E+03  0.66393640803E+03  0.74014372998E+03  0.19200000000E+03 0.  0.
<mgrwt>
<rscale>  0 0.75198226E+03</rscale>
<asrwt>0</asrwt>
<pdfrwt beam="1">  1        2 0.13434341E+00 0.75198226E+03</pdfrwt>
<pdfrwt beam="2">  1       -2 0.21475474E-01 0.75198226E+03</pdfrwt>
<totfact> 0.57812586E+02</totfact>
</mgrwt>
</event>
<event>
 4    1  0.5626910E-005  0.4001713E+03  0.7818608E-02  0.1043720E+00
         -2   -1    0    0    0  501 -0.00000000000E+00  0.00000000000E+00  0.24832476026E+03  0.24832476028E+03  0.25500000000E-02 0. -1.
          2   -1    0    0  501    0  0.00000000000E+00 -0.00000000000E+00 -0.16121737510E+03  0.16121737512E+03  0.25500000000E-02 0.  1.
    5000001    1    1    2    0    0  0.41803190901E+02 -0.12555791458E+02  0.79955004597E+02  0.21251342882E+03  0.19200000000E+03 0.  0.
   -5000001    1    1    2    0    0 -0.41803190901E+02  0.12555791458E+02  0.71523805625E+01  0.19702870658E+03  0.19200000000E+03 0.  0.
<mgrwt>
<rscale>  0 0.40017129E+03</rscale>
<asrwt>0</asrwt>
<pdfrwt beam="1">  1        2 0.23031054E-01 0.40017129E+03</pdfrwt>
<pdfrwt beam="2">  1       -2 0.35474966E-01 0.40017129E+03</pdfrwt>
<totfact> 0.17820932E+03</totfact>
</mgrwt>
</event>
<event>
 4    1  0.5626910E-005  0.8059256E+03  0.7818608E-02  0.9551479E-01
         -2   -1    0    0    0  501 -0.00000000000E+00  0.00000000000E+00  0.12210099954E+03  0.12210099957E+03  0.25500000000E-02 0. -1.
          2   -1    0    0  501    0  0.00000000000E+00 -0.00000000000E+00 -0.13298746913E+04  0.13298746913E+04  0.25500000000E-02 0.  1.
    5000001    1    1    2    0    0  0.35142411664E+03  0.29341853109E+02 -0.66512023117E+03  0.77692263193E+03  0.19200000000E+03 0.  0.
   -5000001    1    1    2    0    0 -0.35142411664E+03 -0.29341853109E+02 -0.54265346061E+03  0.67505305896E+03  0.19200000000E+03 0.  0.
<mgrwt>
<rscale>  0 0.80592563E+03</rscale>
<asrwt>0</asrwt>
<pdfrwt beam="1">  1        2 0.18998209E+00 0.80592563E+03</pdfrwt>
<pdfrwt beam="2">  1       -2 0.17443001E-01 0.80592563E+03</pdfrwt>
<totfact> 0.49161297E+02</totfact>
</mgrwt>
</event>
<event>
 4    1  0.5626910E-005  0.8905502E+03  0.7818608E-02  0.9437472E-01
         -2   -1    0    0    0  501 -0.00000000000E+00  0.00000000000E+00  0.61438998961E+02  0.61438999014E+02  0.25500000000E-02 0. -1.
          2   -1    0    0  501    0  0.00000000000E+00 -0.00000000000E+00 -0.32271016686E+04  0.32271016686E+04  0.25500000000E-02 0.  1.
    5000001    1    1    2    0    0 -0.26354999890E+03 -0.20042871744E+02 -0.27001151717E+04  0.27198062907E+04  0.19200000000E+03 0.  0.
   -5000001    1    1    2    0    0  0.26354999890E+03  0.20042871744E+02 -0.46554749797E+03  0.56873437692E+03  0.19200000000E+03 0.  0.
<mgrwt>
<rscale>  0 0.89055016E+03</rscale>
<asrwt>0</asrwt>
<pdfrwt beam="1">  1        2 0.46101442E+00 0.89055016E+03</pdfrwt>
<pdfrwt beam="2">  1       -2 0.87770019E-02 0.89055016E+03</pdfrwt>
<totfact> 0.15417155E+02</totfact>
</mgrwt>
</event>
<event>
 4    1  0.5626910E-005  0.1023696E+04  0.7818608E-02  0.9282931E-01
          2   -1    0    0  501    0  0.00000000000E+00  0.00000000000E+00  0.32281500791E+03  0.32281500792E+03  0.25500000000E-02 0.  1.
         -2   -1    0    0    0  501 -0.00000000000E+00 -0.00000000000E+00 -0.81157388416E+03  0.81157388416E+03  0.25500000000E-02 0. -1.
    5000001    1    1    2    0    0  0.14461019431E+03  0.34239373299E+03  0.82432128286E+02  0.42638554439E+03  0.19200000000E+03 0.  0.
   -5000001    1    1    2    0    0 -0.14461019431E+03 -0.34239373299E+03 -0.57119100453E+03  0.70800334769E+03  0.19200000000E+03 0.  0.
<mgrwt>
<rscale>  0 0.10236957E+04</rscale>
<asrwt>0</asrwt>
<pdfrwt beam="1">  1        2 0.46116430E-01 0.10236957E+04</pdfrwt>
<pdfrwt beam="2">  1       -2 0.11593912E+00 0.10236957E+04</pdfrwt>
<totfact> 0.63364975E+01</totfact>
</mgrwt>
</event>
<event>
 4    1  0.5626910E-005  0.8851271E+03  0.7818608E-02  0.9444367E-01
          2   -1    0    0  501    0  0.00000000000E+00  0.00000000000E+00  0.33888375869E+03  0.33888375870E+03  0.25500000000E-02 0.  1.
         -2   -1    0    0    0  501 -0.00000000000E+00 -0.00000000000E+00 -0.57796360802E+03  0.57796360802E+03  0.25500000000E-02 0. -1.
    5000001    1    1    2    0    0 -0.37719986956E+03 -0.12304147427E+03 -0.78372291678E+02  0.44768868881E+03  0.19200000000E+03 0.  0.
   -5000001    1    1    2    0    0  0.37719986956E+03  0.12304147427E+03 -0.16070755764E+03  0.46915867792E+03  0.19200000000E+03 0.  0.
<mgrwt>
<rscale>  0 0.88512706E+03</rscale>
<asrwt>0</asrwt>
<pdfrwt beam="1">  1        2 0.48411966E-01 0.88512706E+03</pdfrwt>
<pdfrwt beam="2">  1       -2 0.82566230E-01 0.88512706E+03</pdfrwt>
<totfact> 0.13459895E+02</totfact>
</mgrwt>
</event>
<event>
 4    1  0.5626910E-005  0.9792889E+03  0.7818608E-02  0.9331557E-01
          2   -1    0    0  501    0  0.00000000000E+00  0.00000000000E+00  0.20257733360E+04  0.20257733360E+04  0.25500000000E-02 0.  1.
         -2   -1    0    0    0  501 -0.00000000000E+00 -0.00000000000E+00 -0.11835069405E+03  0.11835069408E+03  0.25500000000E-02 0. -1.
    5000001    1    1    2    0    0 -0.31142271915E+02  0.43274239988E+03  0.68868721481E+03  0.83629534591E+03  0.19200000000E+03 0.  0.
   -5000001    1    1    2    0    0  0.31142271915E+02 -0.43274239988E+03  0.12187354271E+04  0.13078286841E+04  0.19200000000E+03 0.  0.
<mgrwt>
<rscale>  0 0.97928889E+03</rscale>
<asrwt>0</asrwt>
<pdfrwt beam="1">  1        2 0.28939618E+00 0.97928889E+03</pdfrwt>
<pdfrwt beam="2">  1       -2 0.16907243E-01 0.97928889E+03</pdfrwt>
<totfact> 0.22317016E+02</totfact>
</mgrwt>
</event>
<event>
 4    1  0.5626910E-005  0.7690996E+03  0.7818608E-02  0.9605854E-01
          2   -1    0    0  501    0  0.00000000000E+00  0.00000000000E+00  0.23226067795E+04  0.23226067795E+04  0.25500000000E-02 0.  1.
         -2   -1    0    0    0  501 -0.00000000000E+00 -0.00000000000E+00 -0.63669208942E+02  0.63669208993E+02  0.25500000000E-02 0. -1.
    5000001    1    1    2    0    0  0.17255781065E+03  0.26504892720E+03  0.14546950880E+04  0.15010093040E+04  0.19200000000E+03 0.  0.
   -5000001    1    1    2    0    0 -0.17255781065E+03 -0.26504892720E+03  0.80424248261E+03  0.88526668449E+03  0.19200000000E+03 0.  0.
<mgrwt>
<rscale>  0 0.76909957E+03</rscale>
<asrwt>0</asrwt>
<pdfrwt beam="1">  1        2 0.33180096E+00 0.76909957E+03</pdfrwt>
<pdfrwt beam="2">  1       -2 0.90956016E-02 0.76909957E+03</pdfrwt>
<totfact> 0.44870935E+02</totfact>
</mgrwt>
</event>
<event>
 4    1  0.5626910E-005  0.1171371E+04  0.7818608E-02  0.9138292E-01
          2   -1    0    0  501    0  0.00000000000E+00  0.00000000000E+00  0.15970125097E+04  0.15970125097E+04  0.25500000000E-02 0.  1.
         -2   -1    0    0    0  501 -0.00000000000E+00 -0.00000000000E+00 -0.21479310394E+03  0.21479310395E+03  0.25500000000E-02 0. -1.
    5000001    1    1    2    0    0 -0.23199223748E+03 -0.44177305165E+03  0.32124979846E+03  0.62373813450E+03  0.19200000000E+03 0.  0.
   -5000001    1    1    2    0    0  0.23199223748E+03  0.44177305165E+03  0.10609696073E+04  0.11880674792E+04  0.19200000000E+03 0.  0.
<mgrwt>
<rscale>  0 0.11713706E+04</rscale>
<asrwt>0</asrwt>
<pdfrwt beam="1">  1        2 0.22814465E+00 0.11713706E+04</pdfrwt>
<pdfrwt beam="2">  1       -2 0.30684729E-01 0.11713706E+04</pdfrwt>
<totfact> 0.12607372E+02</totfact>
</mgrwt>
</event>
<event>
 4    1  0.5626910E-005  0.7182741E+03  0.7818608E-02  0.9686482E-01
          2   -1    0    0  501    0  0.00000000000E+00  0.00000000000E+00  0.16335730766E+04  0.16335730766E+04  0.25500000000E-02 0.  1.
         -2   -1    0    0    0  501 -0.00000000000E+00 -0.00000000000E+00 -0.78955396566E+02  0.78955396607E+02  0.25500000000E-02 0. -1.
    5000001    1    1    2    0    0 -0.26801108310E+03 -0.10447362295E+03  0.54650960729E+03  0.64674680472E+03  0.19200000000E+03 0.  0.
   -5000001    1    1    2    0    0  0.26801108310E+03  0.10447362295E+03  0.10081080727E+04  0.10657816685E+04  0.19200000000E+03 0.  0.
<mgrwt>
<rscale>  0 0.71827407E+03</rscale>
<asrwt>0</asrwt>
<pdfrwt beam="1">  1        2 0.23336759E+00 0.71827407E+03</pdfrwt>
<pdfrwt beam="2">  1       -2 0.11279342E-01 0.71827407E+03</pdfrwt>
<totfact> 0.70989927E+02</totfact>
</mgrwt>
</event>
<event>
 4    1  0.5626910E-005  0.5247085E+03  0.7818608E-02  0.1007524E+00
         -2   -1    0    0    0  501 -0.00000000000E+00  0.00000000000E+00  0.50680240095E+02  0.50680240159E+02  0.25500000000E-02 0. -1.
          2   -1    0    0  501    0  0.00000000000E+00 -0.00000000000E+00 -0.13581181328E+04  0.13581181328E+04  0.25500000000E-02 0.  1.
    5000001    1    1    2    0    0  0.79564087962E+02  0.15961942906E+03 -0.62008273539E+03  0.67318303971E+03  0.19200000000E+03 0.  0.
   -5000001    1    1    2    0    0 -0.79564087962E+02 -0.15961942906E+03 -0.68735515732E+03  0.73561533326E+03  0.19200000000E+03 0.  0.
<mgrwt>
<rscale>  0 0.52470850E+03</rscale>
<asrwt>0</asrwt>
<pdfrwt beam="1">  1        2 0.19401685E+00 0.52470850E+03</pdfrwt>
<pdfrwt beam="2">  1       -2 0.72400351E-02 0.52470850E+03</pdfrwt>
<totfact> 0.20335940E+03</totfact>
</mgrwt>
</event>
<event>
 4    1  0.5626910E-005  0.5051941E+03  0.7818608E-02  0.1012432E+00
         -2   -1    0    0    0  501 -0.00000000000E+00  0.00000000000E+00  0.52706525873E+02  0.52706525934E+02  0.25500000000E-02 0. -1.
          2   -1    0    0  501    0  0.00000000000E+00 -0.00000000000E+00 -0.12105764052E+04  0.12105764052E+04  0.25500000000E-02 0.  1.
    5000001    1    1    2    0    0  0.11555065695E+03  0.11581652370E+03 -0.54577452764E+03  0.60124808233E+03  0.19200000000E+03 0.  0.
   -5000001    1    1    2    0    0 -0.11555065695E+03 -0.11581652370E+03 -0.61209535173E+03  0.66203484885E+03  0.19200000000E+03 0.  0.
<mgrwt>
<rscale>  0 0.50519413E+03</rscale>
<asrwt>0</asrwt>
<pdfrwt beam="1">  1        2 0.17293947E+00 0.50519413E+03</pdfrwt>
<pdfrwt beam="2">  1       -2 0.75295044E-02 0.50519413E+03</pdfrwt>
<totfact> 0.22996874E+03</totfact>
</mgrwt>
</event>
<event>
 4    1  0.5626910E-005  0.1234718E+04  0.7818608E-02  0.9082999E-01
         -2   -1    0    0    0  501 -0.00000000000E+00  0.00000000000E+00  0.28001855596E+03  0.28001855597E+03  0.25500000000E-02 0. -1.
          2   -1    0    0  501    0  0.00000000000E+00 -0.00000000000E+00 -0.13610965726E+04  0.13610965726E+04  0.25500000000E-02 0.  1.
    5000001    1    1    2    0    0  0.48580623027E+03 -0.63075710235E+02 -0.96975507906E+03  0.11033019315E+04  0.19200000000E+03 0.  0.
   -5000001    1    1    2    0    0 -0.48580623027E+03  0.63075710235E+02 -0.11132293761E+03  0.53781319715E+03  0.19200000000E+03 0.  0.
<mgrwt>
<rscale>  0 0.12347183E+04</rscale>
<asrwt>0</asrwt>
<pdfrwt beam="1">  1        2 0.19444236E+00 0.12347183E+04</pdfrwt>
<pdfrwt beam="2">  1       -2 0.40002652E-01 0.12347183E+04</pdfrwt>
<totfact> 0.10109051E+02</totfact>
</mgrwt>
</event>
<event>
 4    1  0.5626910E-005  0.4522140E+03  0.7818608E-02  0.1027064E+00
         -2   -1    0    0    0  501 -0.00000000000E+00  0.00000000000E+00  0.74154768569E+02  0.74154768613E+02  0.25500000000E-02 0. -1.
          2   -1    0    0  501    0  0.00000000000E+00 -0.00000000000E+00 -0.68942791961E+03  0.68942791962E+03  0.25500000000E-02 0.  1.
    5000001    1    1    2    0    0 -0.10472067119E+03  0.32307827559E+02 -0.38773392431E+03  0.44633150321E+03  0.19200000000E+03 0.  0.
   -5000001    1    1    2    0    0  0.10472067119E+03 -0.32307827559E+02 -0.22753922674E+03  0.31725118502E+03  0.19200000000E+03 0.  0.
<mgrwt>
<rscale>  0 0.45221397E+03</rscale>
<asrwt>0</asrwt>
<pdfrwt beam="1">  1        2 0.98489699E-01 0.45221397E+03</pdfrwt>
<pdfrwt beam="2">  1       -2 0.10593539E-01 0.45221397E+03</pdfrwt>
<totfact> 0.28460082E+03</totfact>
</mgrwt>
</event>
<event>
 4    1  0.5626910E-005  0.8191018E+03  0.7818608E-02  0.9532772E-01
          2   -1    0    0  501    0  0.00000000000E+00  0.00000000000E+00  0.14860972282E+04  0.14860972282E+04  0.25500000000E-02 0.  1.
         -2   -1    0    0    0  501 -0.00000000000E+00 -0.00000000000E+00 -0.11286740269E+03  0.11286740272E+03  0.25500000000E-02 0. -1.
    5000001    1    1    2    0    0  0.19877122608E+03 -0.15264820491E+03  0.17735949257E+03  0.36212133931E+03  0.19200000000E+03 0.  0.
   -5000001    1    1    2    0    0 -0.19877122608E+03  0.15264820491E+03  0.11958703329E+04  0.12368432916E+04  0.19200000000E+03 0.  0.
<mgrwt>
<rscale>  0 0.81910179E+03</rscale>
<asrwt>0</asrwt>
<pdfrwt beam="1">  1        2 0.21229960E+00 0.81910179E+03</pdfrwt>
<pdfrwt beam="2">  1       -2 0.16123915E-01 0.81910179E+03</pdfrwt>
<totfact> 0.46358628E+02</totfact>
</mgrwt>
</event>
<event>
 4    1  0.5626910E-005  0.4551238E+03  0.7818608E-02  0.1026205E+00
         -2   -1    0    0    0  501 -0.00000000000E+00  0.00000000000E+00  0.10252923245E+03  0.10252923249E+03  0.25500000000E-02 0.  1.
          2   -1    0    0  501    0  0.00000000000E+00 -0.00000000000E+00 -0.50506971420E+03  0.50506971420E+03  0.25500000000E-02 0. -1.
    5000001    1    1    2    0    0 -0.50199434061E+02  0.83905845348E+02 -0.29901184416E+03  0.36855427960E+03  0.19200000000E+03 0.  0.
   -5000001    1    1    2    0    0  0.50199434061E+02 -0.83905845348E+02 -0.10352863758E+03  0.23904466709E+03  0.19200000000E+03 0.  0.
<mgrwt>
<rscale>  0 0.45512376E+03</rscale>
<asrwt>0</asrwt>
<pdfrwt beam="1">  1        2 0.72152815E-01 0.45512376E+03</pdfrwt>
<pdfrwt beam="2">  1       -2 0.14647034E-01 0.45512376E+03</pdfrwt>
<totfact> 0.24010084E+03</totfact>
</mgrwt>
</event>
<event>
 4    1  0.5626910E-005  0.7113144E+03  0.7818608E-02  0.9698076E-01
         -2   -1    0    0    0  501 -0.00000000000E+00  0.00000000000E+00  0.16703928096E+03  0.16703928098E+03  0.25500000000E-02 0. -1.
          2   -1    0    0  501    0  0.00000000000E+00 -0.00000000000E+00 -0.75725920081E+03  0.75725920082E+03  0.25500000000E-02 0.  1.
    5000001    1    1    2    0    0  0.14851930363E+03  0.28799224341E+02 -0.63080574334E+03  0.67651109725E+03  0.19200000000E+03 0.  0.
   -5000001    1    1    2    0    0 -0.14851930363E+03 -0.28799224341E+02  0.40585823485E+02  0.24778738455E+03  0.19200000000E+03 0.  0.
<mgrwt>
<rscale>  0 0.71131437E+03</rscale>
<asrwt>0</asrwt>
<pdfrwt beam="1">  1        2 0.10817988E+00 0.71131437E+03</pdfrwt>
<pdfrwt beam="2">  1       -2 0.23862755E-01 0.71131437E+03</pdfrwt>
<totfact> 0.63800960E+02</totfact>
</mgrwt>
</event>
<event>
 4    1  0.5626910E-005  0.5474064E+03  0.7818608E-02  0.1002096E+00
          2   -1    0    0  501    0  0.00000000000E+00  0.00000000000E+00  0.20979578513E+04  0.20979578513E+04  0.25500000000E-02 0.  1.
         -2   -1    0    0    0  501 -0.00000000000E+00 -0.00000000000E+00 -0.35707796398E+02  0.35707796489E+02  0.25500000000E-02 0. -1.
    5000001    1    1    2    0    0  0.15851569081E+03 -0.42323769955E+01  0.14739008891E+04  0.14947886032E+04  0.19200000000E+03 0.  0.
   -5000001    1    1    2    0    0 -0.15851569081E+03  0.42323769955E+01  0.58834916572E+03  0.63887704455E+03  0.19200000000E+03 0.  0.
<mgrwt>
<rscale>  0 0.54740644E+03</rscale>
<asrwt>0</asrwt>
<pdfrwt beam="1">  1        2 0.29970825E+00 0.54740644E+03</pdfrwt>
<pdfrwt beam="2">  1       -2 0.51011140E-02 0.54740644E+03</pdfrwt>
<totfact> 0.14754706E+03</totfact>
</mgrwt>
</event>
<event>
 4    1  0.5626910E-005  0.8708751E+03  0.7818608E-02  0.9462740E-01
         -2   -1    0    0    0  501 -0.00000000000E+00  0.00000000000E+00  0.45027433795E+03  0.45027433796E+03  0.25500000000E-02 0. -1.
          2   -1    0    0  501    0  0.00000000000E+00 -0.00000000000E+00 -0.42108959739E+03  0.42108959740E+03  0.25500000000E-02 0.  1.
    5000001    1    1    2    0    0  0.82461627061E+02  0.20121196300E+03  0.33951404995E+03  0.44656462479E+03  0.19200000000E+03 0.  0.
   -5000001    1    1    2    0    0 -0.82461627061E+02 -0.20121196300E+03 -0.31032930939E+03  0.42479931057E+03  0.19200000000E+03 0.  0.
<mgrwt>
<rscale>  0 0.87087505E+03</rscale>
<asrwt>0</asrwt>
<pdfrwt beam="1">  1        2 0.60155656E-01 0.87087505E+03</pdfrwt>
<pdfrwt beam="2">  1       -2 0.64324906E-01 0.87087505E+03</pdfrwt>
<totfact> 0.18313792E+02</totfact>
</mgrwt>
</event>
<event>
 4    1  0.5626910E-005  0.9021919E+03  0.7818608E-02  0.9422846E-01
          2   -1    0    0  501    0  0.00000000000E+00  0.00000000000E+00  0.50756824935E+03  0.50756824936E+03  0.25500000000E-02 0.  1.
         -2   -1    0    0    0  501 -0.00000000000E+00 -0.00000000000E+00 -0.40090675094E+03  0.40090675095E+03  0.25500000000E-02 0. -1.
    5000001    1    1    2    0    0  0.23663882334E+03  0.29038829630E+03 -0.10997217154E+03  0.43506456285E+03  0.19200000000E+03 0.  0.
   -5000001    1    1    2    0    0 -0.23663882334E+03 -0.29038829630E+03  0.21663366995E+03  0.47341043746E+03  0.19200000000E+03 0.  0.
<mgrwt>
<rscale>  0 0.90219186E+03</rscale>
<asrwt>0</asrwt>
<pdfrwt beam="1">  1        2 0.72509749E-01 0.90219186E+03</pdfrwt>
<pdfrwt beam="2">  1       -2 0.57272393E-01 0.90219186E+03</pdfrwt>
<totfact> 0.18914449E+02</totfact>
</mgrwt>
</event>
<event>
 4    1  0.5626910E-005  0.5578397E+03  0.7818608E-02  0.9996955E-01
          2   -1    0    0  501    0  0.00000000000E+00  0.00000000000E+00  0.39494858406E+03  0.39494858407E+03  0.25500000000E-02 0.  1.
         -2   -1    0    0    0  501 -0.00000000000E+00 -0.00000000000E+00 -0.19697822895E+03  0.19697822896E+03  0.25500000000E-02 0. -1.
    5000001    1    1    2    0    0  0.18485704866E+03  0.82190565844E+02  0.10132324095E+03  0.29674537353E+03  0.19200000000E+03 0.  0.
   -5000001    1    1    2    0    0 -0.18485704866E+03 -0.82190565844E+02  0.96647114167E+02  0.29518143951E+03  0.19200000000E+03 0.  0.
<mgrwt>
<rscale>  0 0.55783966E+03</rscale>
<asrwt>0</asrwt>
<pdfrwt beam="1">  1        2 0.56421225E-01 0.55783966E+03</pdfrwt>
<pdfrwt beam="2">  1       -2 0.28139747E-01 0.55783966E+03</pdfrwt>
<totfact> 0.10144000E+03</totfact>
</mgrwt>
</event>
<event>
 4    1  0.5626910E-005  0.4878345E+03  0.7818608E-02  0.1017004E+00
         -2   -1    0    0    0  501 -0.00000000000E+00  0.00000000000E+00  0.31813622334E+03  0.31813622335E+03  0.25500000000E-02 0. -1.
          2   -1    0    0  501    0  0.00000000000E+00 -0.00000000000E+00 -0.18701307127E+03  0.18701307129E+03  0.25500000000E-02 0.  1.
    5000001    1    1    2    0    0 -0.66546725993E+02 -0.12090974100E+03  0.35702088850E+01  0.23648335798E+03  0.19200000000E+03 0.  0.
   -5000001    1    1    2    0    0  0.66546725993E+02  0.12090974100E+03  0.12755294319E+03  0.26866593667E+03  0.19200000000E+03 0.  0.
<mgrwt>
<rscale>  0 0.48783453E+03</rscale>
<asrwt>0</asrwt>
<pdfrwt beam="1">  1        2 0.26716153E-01 0.48783453E+03</pdfrwt>
<pdfrwt beam="2">  1       -2 0.45448031E-01 0.48783453E+03</pdfrwt>
<totfact> 0.93452138E+02</totfact>
</mgrwt>
</event>
<event>
 4    1  0.5626910E-005  0.6815954E+03  0.7818608E-02  0.9749235E-01
         -2   -1    0    0    0  501 -0.00000000000E+00  0.00000000000E+00  0.13847077583E+03  0.13847077585E+03  0.25500000000E-02 0. -1.
          2   -1    0    0  501    0  0.00000000000E+00 -0.00000000000E+00 -0.83875503522E+03  0.83875503522E+03  0.25500000000E-02 0.  1.
    5000001    1    1    2    0    0  0.26024455402E+03  0.10274671312E+03 -0.39536602323E+03  0.52102054401E+03  0.19200000000E+03 0.  0.
   -5000001    1    1    2    0    0 -0.26024455402E+03 -0.10274671312E+03 -0.30491823616E+03  0.45620526707E+03  0.19200000000E+03 0.  0.
<mgrwt>
<rscale>  0 0.68159537E+03</rscale>
<asrwt>0</asrwt>
<pdfrwt beam="1">  1        2 0.11982214E+00 0.68159537E+03</pdfrwt>
<pdfrwt beam="2">  1       -2 0.19781540E-01 0.68159537E+03</pdfrwt>
<totfact> 0.78000627E+02</totfact>
</mgrwt>
</event>
<event>
 4    1  0.5626910E-005  0.9027623E+03  0.7818608E-02  0.9422135E-01
         -2   -1    0    0    0  501 -0.00000000000E+00  0.00000000000E+00  0.45014063007E+03  0.45014063007E+03  0.25500000000E-02 0. -1.
          2   -1    0    0  501    0  0.00000000000E+00 -0.00000000000E+00 -0.45262509689E+03  0.45262509689E+03  0.25500000000E-02 0.  1.
    5000001    1    1    2    0    0 -0.30213596361E+03  0.29781443279E+02 -0.27457067551E+03  0.45213508017E+03  0.19200000000E+03 0.  0.
   -5000001    1    1    2    0    0  0.30213596361E+03 -0.29781443279E+02  0.27208620869E+03  0.45063064679E+03  0.19200000000E+03 0.  0.
<mgrwt>
<rscale>  0 0.90276231E+03</rscale>
<asrwt>0</asrwt>
<pdfrwt beam="1">  1        2 0.64660728E-01 0.90276231E+03</pdfrwt>
<pdfrwt beam="2">  1       -2 0.64305804E-01 0.90276231E+03</pdfrwt>
<totfact> 0.16867466E+02</totfact>
</mgrwt>
</event>
<event>
 4    1  0.5626910E-005  0.7083864E+03  0.7818608E-02  0.9702997E-01
          2   -1    0    0  501    0  0.00000000000E+00  0.00000000000E+00  0.45639021990E+03  0.45639021991E+03  0.25500000000E-02 0.  1.
         -2   -1    0    0    0  501 -0.00000000000E+00 -0.00000000000E+00 -0.27488059554E+03  0.27488059555E+03  0.25500000000E-02 0. -1.
    5000001    1    1    2    0    0  0.17644678280E+03 -0.15563179458E+03  0.27894629044E+03  0.41234664494E+03  0.19200000000E+03 0.  0.
   -5000001    1    1    2    0    0 -0.17644678280E+03  0.15563179458E+03 -0.97436666077E+02  0.31892417052E+03  0.19200000000E+03 0.  0.
<mgrwt>
<rscale>  0 0.70838638E+03</rscale>
<asrwt>0</asrwt>
<pdfrwt beam="1">  1        2 0.65198602E-01 0.70838638E+03</pdfrwt>
<pdfrwt beam="2">  1       -2 0.39268657E-01 0.70838638E+03</pdfrwt>
<totfact> 0.45986230E+02</totfact>
</mgrwt>
</event>
<event>
 4    1  0.5626910E-005  0.5820931E+03  0.7818608E-02  0.9943270E-01
          2   -1    0    0  501    0  0.00000000000E+00  0.00000000000E+00  0.25277486397E+04  0.25277486397E+04  0.25500000000E-02 0.  1.
         -2   -1    0    0    0  501 -0.00000000000E+00 -0.00000000000E+00 -0.33511278059E+02  0.33511278156E+02  0.25500000000E-02 0. -1.
    5000001    1    1    2    0    0 -0.15293027069E+03  0.15635663203E+03  0.12603362224E+04  0.12935016264E+04  0.19200000000E+03 0.  0.
   -5000001    1    1    2    0    0  0.15293027069E+03 -0.15635663203E+03  0.12339011393E+04  0.12677582915E+04  0.19200000000E+03 0.  0.
<mgrwt>
<rscale>  0 0.58209308E+03</rscale>
<asrwt>0</asrwt>
<pdfrwt beam="1">  1        2 0.36110695E+00 0.58209308E+03</pdfrwt>
<pdfrwt beam="2">  1       -2 0.47873254E-02 0.58209308E+03</pdfrwt>
<totfact> 0.98437737E+02</totfact>
</mgrwt>
</event>
<event>
 4    1  0.5626910E-005  0.6103078E+03  0.7818608E-02  0.9884248E-01
          2   -1    0    0  501    0  0.00000000000E+00  0.00000000000E+00  0.11308255612E+03  0.11308255615E+03  0.25500000000E-02 0.  1.
         -2   -1    0    0    0  501 -0.00000000000E+00 -0.00000000000E+00 -0.82345956149E+03  0.82345956150E+03  0.25500000000E-02 0. -1.
    5000001    1    1    2    0    0 -0.21826332693E+03 -0.72267279093E+02 -0.26579611396E+03  0.40046599570E+03  0.19200000000E+03 0.  0.
   -5000001    1    1    2    0    0  0.21826332693E+03  0.72267279093E+02 -0.44458089141E+03  0.53607612195E+03  0.19200000000E+03 0.  0.
<mgrwt>
<rscale>  0 0.61030783E+03</rscale>
<asrwt>0</asrwt>
<pdfrwt beam="1">  1        2 0.16154651E-01 0.61030783E+03</pdfrwt>
<pdfrwt beam="2">  1       -2 0.11763708E+00 0.61030783E+03</pdfrwt>
<totfact> 0.20706036E+02</totfact>
</mgrwt>
</event>
<event>
 4    1  0.5626910E-005  0.7248687E+03  0.7818608E-02  0.9675624E-01
          2   -1    0    0  501    0  0.00000000000E+00  0.00000000000E+00  0.24560997036E+04  0.24560997036E+04  0.25500000000E-02 0.  1.
         -2   -1    0    0    0  501 -0.00000000000E+00 -0.00000000000E+00 -0.53482619293E+02  0.53482619354E+02  0.25500000000E-02 0. -1.
    5000001    1    1    2    0    0  0.27513981368E+03  0.13664792344E+03  0.12392457671E+04  0.12911113985E+04  0.19200000000E+03 0.  0.
   -5000001    1    1    2    0    0 -0.27513981368E+03 -0.13664792344E+03  0.11633713172E+04  0.12184709245E+04  0.19200000000E+03 0.  0.
<mgrwt>
<rscale>  0 0.72486867E+03</rscale>
<asrwt>0</asrwt>
<pdfrwt beam="1">  1        2 0.35087139E+00 0.72486867E+03</pdfrwt>
<pdfrwt beam="2">  1       -2 0.76403742E-02 0.72486867E+03</pdfrwt>
<totfact> 0.50880349E+02</totfact>
</mgrwt>
</event>
<event>
 4    1  0.5626910E-005  0.6344955E+03  0.7818608E-02  0.9836315E-01
          2   -1    0    0  501    0  0.00000000000E+00  0.00000000000E+00  0.19500690991E+04  0.19500690991E+04  0.25500000000E-02 0.  1.
         -2   -1    0    0    0  501 -0.00000000000E+00 -0.00000000000E+00 -0.51611571118E+02  0.51611571181E+02  0.25500000000E-02 0. -1.
    5000001    1    1    2    0    0  0.87931311630E+02 -0.30767071398E+02  0.16897819471E+04  0.17032044965E+04  0.19200000000E+03 0.  0.
   -5000001    1    1    2    0    0 -0.87931311630E+02  0.30767071398E+02  0.20867558091E+03  0.29847617378E+03  0.19200000000E+03 0.  0.
<mgrwt>
<rscale>  0 0.63449548E+03</rscale>
<asrwt>0</asrwt>
<pdfrwt beam="1">  1        2 0.27858129E+00 0.63449548E+03</pdfrwt>
<pdfrwt beam="2">  1       -2 0.73730820E-02 0.63449548E+03</pdfrwt>
<totfact> 0.97790497E+02</totfact>
</mgrwt>
</event>
<event>
 4    1  0.5626910E-005  0.5426888E+03  0.7818608E-02  0.1003200E+00
         -2   -1    0    0    0  501 -0.00000000000E+00  0.00000000000E+00  0.25114805692E+03  0.25114805693E+03  0.25500000000E-02 0. -1.
          2   -1    0    0  501    0  0.00000000000E+00 -0.00000000000E+00 -0.29316489663E+03  0.29316489664E+03  0.25500000000E-02 0.  1.
    5000001    1    1    2    0    0 -0.14724581973E+03  0.10979015461E+03  0.34188855370E+02  0.26789566497E+03  0.19200000000E+03 0.  0.
   -5000001    1    1    2    0    0  0.14724581973E+03 -0.10979015461E+03 -0.76205695082E+02  0.27641728861E+03  0.19200000000E+03 0.  0.
<mgrwt>
<rscale>  0 0.54268884E+03</rscale>
<asrwt>0</asrwt>
<pdfrwt beam="1">  1        2 0.41880699E-01 0.54268884E+03</pdfrwt>
<pdfrwt beam="2">  1       -2 0.35878294E-01 0.54268884E+03</pdfrwt>
<totfact> 0.89645098E+02</totfact>
</mgrwt>
</event>
<event>
 4    1  0.5626910E-005  0.4992618E+03  0.7818608E-02  0.1013972E+00
          2   -1    0    0  501    0  0.00000000000E+00  0.00000000000E+00  0.13902758045E+04  0.13902758045E+04  0.25500000000E-02 0.  1.
         -2   -1    0    0    0  501 -0.00000000000E+00 -0.00000000000E+00 -0.44822460245E+02  0.44822460317E+02  0.25500000000E-02 0. -1.
    5000001    1    1    2    0    0 -0.16401925279E+02  0.13075143442E+03  0.41424076627E+03  0.47520982018E+03  0.19200000000E+03 0.  0.
   -5000001    1    1    2    0    0  0.16401925279E+02 -0.13075143442E+03  0.93121257795E+03  0.95988844460E+03  0.19200000000E+03 0.  0.
<mgrwt>
<rscale>  0 0.49926178E+03</rscale>
<asrwt>0</asrwt>
<pdfrwt beam="1">  1        2 0.19861081E+00 0.49926178E+03</pdfrwt>
<pdfrwt beam="2">  1       -2 0.64032093E-02 0.49926178E+03</pdfrwt>
<totfact> 0.23727024E+03</totfact>
</mgrwt>
</event>
<event>
 4    1  0.5626910E-005  0.4969560E+03  0.7818608E-02  0.1014577E+00
         -2   -1    0    0    0  501 -0.00000000000E+00  0.00000000000E+00  0.40240381629E+03  0.40240381630E+03  0.25500000000E-02 0. -1.
          2   -1    0    0  501    0  0.00000000000E+00 -0.00000000000E+00 -0.15343122812E+03  0.15343122814E+03  0.25500000000E-02 0.  1.
    5000001    1    1    2    0    0  0.13627468295E+03 -0.48631548768E+02  0.19470591696E+03  0.30937066902E+03  0.19200000000E+03 0.  0.
   -5000001    1    1    2    0    0 -0.13627468295E+03  0.48631548768E+02  0.54266671208E+02  0.24646437542E+03  0.19200000000E+03 0.  0.
<mgrwt>
<rscale>  0 0.49695598E+03</rscale>
<asrwt>0</asrwt>
<pdfrwt beam="1">  1        2 0.21918747E-01 0.49695598E+03</pdfrwt>
<pdfrwt beam="2">  1       -2 0.57486258E-01 0.49695598E+03</pdfrwt>
<totfact> 0.72732017E+02</totfact>
</mgrwt>
</event>
<event>
 4    1  0.5626910E-005  0.5278205E+03  0.7818608E-02  0.1006762E+00
         -2   -1    0    0    0  501 -0.00000000000E+00  0.00000000000E+00  0.21237270144E+03  0.21237270145E+03  0.25500000000E-02 0. -1.
          2   -1    0    0  501    0  0.00000000000E+00 -0.00000000000E+00 -0.32795468272E+03  0.32795468273E+03  0.25500000000E-02 0.  1.
    5000001    1    1    2    0    0  0.90780129793E+02 -0.13770053411E+03  0.18693183480E+02  0.25380288447E+03  0.19200000000E+03 0.  0.
   -5000001    1    1    2    0    0 -0.90780129793E+02  0.13770053411E+03 -0.13427516476E+03  0.28652449970E+03  0.19200000000E+03 0.  0.
<mgrwt>
<rscale>  0 0.52782051E+03</rscale>
<asrwt>0</asrwt>
<pdfrwt beam="1">  1        2 0.46850669E-01 0.52782051E+03</pdfrwt>
<pdfrwt beam="2">  1       -2 0.30338957E-01 0.52782051E+03</pdfrwt>
<totfact> 0.10847846E+03</totfact>
</mgrwt>
</event>
<event>
 4    1  0.5626910E-005  0.4555281E+03  0.7818608E-02  0.1026086E+00
         -2   -1    0    0    0  501 -0.00000000000E+00  0.00000000000E+00  0.86739443390E+02  0.86739443428E+02  0.25500000000E-02 0. -1.
          2   -1    0    0  501    0  0.00000000000E+00 -0.00000000000E+00 -0.59807230142E+03  0.59807230143E+03  0.25500000000E-02 0.  1.
    5000001    1    1    2    0    0 -0.79332333188E+02 -0.83846433760E+02 -0.19389020400E+03  0.29627901504E+03  0.19200000000E+03 0.  0.
   -5000001    1    1    2    0    0  0.79332333188E+02  0.83846433760E+02 -0.31744265403E+03  0.38853272982E+03  0.19200000000E+03 0.  0.
<mgrwt>
<rscale>  0 0.45552808E+03</rscale>
<asrwt>0</asrwt>
<pdfrwt beam="1">  1        2 0.85438898E-01 0.45552808E+03</pdfrwt>
<pdfrwt beam="2">  1       -2 0.12391349E-01 0.45552808E+03</pdfrwt>
<totfact> 0.26089904E+03</totfact>
</mgrwt>
</event>
<event>
 4    1  0.5626910E-005  0.4880702E+03  0.7818608E-02  0.1016941E+00
          2   -1    0    0  501    0  0.00000000000E+00  0.00000000000E+00  0.37197013715E+04  0.37197013715E+04  0.25500000000E-02 0.  1.
         -2   -1    0    0    0  501 -0.00000000000E+00 -0.00000000000E+00 -0.16010192410E+02  0.16010192613E+02  0.25500000000E-02 0. -1.
    5000001    1    1    2    0    0 -0.14507948866E+03  0.39373319346E+02  0.17789034051E+04  0.17955388164E+04  0.19200000000E+03 0.  0.
   -5000001    1    1    2    0    0  0.14507948866E+03 -0.39373319346E+02  0.19247877740E+04  0.19401727478E+04  0.19200000000E+03 0.  0.
<mgrwt>
<rscale>  0 0.48807022E+03</rscale>
<asrwt>0</asrwt>
<pdfrwt beam="1">  1        2 0.53138618E+00 0.48807022E+03</pdfrwt>
<pdfrwt beam="2">  1       -2 0.22871692E-02 0.48807022E+03</pdfrwt>
<totfact> 0.66301337E+02</totfact>
</mgrwt>
</event>
<event>
 4    1  0.5626910E-005  0.4992043E+03  0.7818608E-02  0.1013987E+00
         -2   -1    0    0    0  501 -0.00000000000E+00  0.00000000000E+00  0.25411228678E+02  0.25411228806E+02  0.25500000000E-02 0. -1.
          2   -1    0    0  501    0  0.00000000000E+00 -0.00000000000E+00 -0.24517205299E+04  0.24517205299E+04  0.25500000000E-02 0.  1.
    5000001    1    1    2    0    0  0.16191269700E+00 -0.15945532747E+03 -0.12297638303E+04  0.12548342942E+04  0.19200000000E+03 0.  0.
   -5000001    1    1    2    0    0 -0.16191269700E+00  0.15945532747E+03 -0.11965454709E+04  0.12222974645E+04  0.19200000000E+03 0.  0.
<mgrwt>
<rscale>  0 0.49920429E+03</rscale>
<asrwt>0</asrwt>
<pdfrwt beam="1">  1        2 0.35024564E+00 0.49920429E+03</pdfrwt>
<pdfrwt beam="2">  1       -2 0.36301771E-02 0.49920429E+03</pdfrwt>
<totfact> 0.16556740E+03</totfact>
</mgrwt>
</event>
<event>
 4    1  0.5626910E-005  0.8720972E+03  0.7818608E-02  0.9461150E-01
         -2   -1    0    0    0  501 -0.00000000000E+00  0.00000000000E+00  0.65443082450E+02  0.65443082500E+02  0.25500000000E-02 0. -1.
          2   -1    0    0  501    0  0.00000000000E+00 -0.00000000000E+00 -0.29054006197E+04  0.29054006197E+04  0.25500000000E-02 0.  1.
    5000001    1    1    2    0    0 -0.64057862919E+01 -0.39093728118E+03 -0.14882272569E+04  0.15506635226E+04  0.19200000000E+03 0.  0.
   -5000001    1    1    2    0    0  0.64057862919E+01  0.39093728118E+03 -0.13517302803E+04  0.14201801796E+04  0.19200000000E+03 0.  0.
<mgrwt>
<rscale>  0 0.87209718E+03</rscale>
<asrwt>0</asrwt>
<pdfrwt beam="1">  1        2 0.41505715E+00 0.87209718E+03</pdfrwt>
<pdfrwt beam="2">  1       -2 0.93490136E-02 0.87209718E+03</pdfrwt>
<totfact> 0.21046285E+02</totfact>
</mgrwt>
</event>
<event>
 4    1  0.5626910E-005  0.7939718E+03  0.7818608E-02  0.9568784E-01
         -2   -1    0    0    0  501 -0.00000000000E+00  0.00000000000E+00  0.17716376101E+03  0.17716376103E+03  0.25500000000E-02 0. -1.
          2   -1    0    0  501    0  0.00000000000E+00 -0.00000000000E+00 -0.88955997178E+03  0.88955997179E+03  0.25500000000E-02 0.  1.
    5000001    1    1    2    0    0  0.23945441377E+03  0.24686435316E+03 -0.28965118017E+03  0.48891945278E+03  0.19200000000E+03 0.  0.
   -5000001    1    1    2    0    0 -0.23945441377E+03 -0.24686435316E+03 -0.42274503060E+03  0.57780428004E+03  0.19200000000E+03 0.  0.
<mgrwt>
<rscale>  0 0.79397176E+03</rscale>
<asrwt>0</asrwt>
<pdfrwt beam="1">  1        2 0.12707999E+00 0.79397176E+03</pdfrwt>
<pdfrwt beam="2">  1       -2 0.25309109E-01 0.79397176E+03</pdfrwt>
<totfact> 0.46424375E+02</totfact>
</mgrwt>
</event>
<event>
 4    1  0.5626910E-005  0.4096423E+03  0.7818608E-02  0.1040491E+00
         -2   -1    0    0    0  501 -0.00000000000E+00  0.00000000000E+00  0.15145280136E+02  0.15145280350E+02  0.25500000000E-02 0. -1.
          2   -1    0    0  501    0  0.00000000000E+00 -0.00000000000E+00 -0.27699522386E+04  0.27699522386E+04  0.25500000000E-02 0.  1.
    5000001    1    1    2    0    0  0.27312364389E+02 -0.44374315283E+02 -0.17085751412E+04  0.17201186174E+04  0.19200000000E+03 0.  0.
   -5000001    1    1    2    0    0 -0.27312364389E+02  0.44374315283E+02 -0.10462318173E+04  0.10649789015E+04  0.19200000000E+03 0.  0.
<mgrwt>
<rscale>  0 0.40964230E+03</rscale>
<asrwt>0</asrwt>
<pdfrwt beam="1">  1        2 0.39570714E+00 0.40964230E+03</pdfrwt>
<pdfrwt beam="2">  1       -2 0.21636132E-02 0.40964230E+03</pdfrwt>
<totfact> 0.24926448E+03</totfact>
</mgrwt>
</event>
<event>
 4    1  0.5626910E-005  0.4789361E+03  0.7818608E-02  0.1019428E+00
         -2   -1    0    0    0  501 -0.00000000000E+00  0.00000000000E+00  0.44815144492E+02  0.44815144564E+02  0.25500000000E-02 0. -1.
          2   -1    0    0  501    0  0.00000000000E+00 -0.00000000000E+00 -0.12795883642E+04  0.12795883642E+04  0.25500000000E-02 0.  1.
    5000001    1    1    2    0    0  0.70802797171E+02 -0.11449877656E+03 -0.48310752187E+03  0.53701013362E+03  0.19200000000E+03 0.  0.
   -5000001    1    1    2    0    0 -0.70802797171E+02  0.11449877656E+03 -0.75166569782E+03  0.78739337513E+03  0.19200000000E+03 0.  0.
<mgrwt>
<rscale>  0 0.47893606E+03</rscale>
<asrwt>0</asrwt>
<pdfrwt beam="1">  1        2 0.18279832E+00 0.47893606E+03</pdfrwt>
<pdfrwt beam="2">  1       -2 0.64021643E-02 0.47893606E+03</pdfrwt>
<totfact> 0.27206413E+03</totfact>
</mgrwt>
</event>
<event>
 4    1  0.5626910E-005  0.6372269E+03  0.7818608E-02  0.9831047E-01
          2   -1    0    0  501    0  0.00000000000E+00  0.00000000000E+00  0.11714319429E+04  0.11714319429E+04  0.25500000000E-02 0.  1.
         -2   -1    0    0    0  501 -0.00000000000E+00 -0.00000000000E+00 -0.86658487059E+02  0.86658487097E+02  0.25500000000E-02 0. -1.
    5000001    1    1    2    0    0 -0.14356123094E+03 -0.20985557110E+03  0.54466545439E+03  0.63101001969E+03  0.19200000000E+03 0.  0.
   -5000001    1    1    2    0    0  0.14356123094E+03  0.20985557110E+03  0.54010800143E+03  0.62708041028E+03  0.19200000000E+03 0.  0.
<mgrwt>
<rscale>  0 0.63722687E+03</rscale>
<asrwt>0</asrwt>
<pdfrwt beam="1">  1        2 0.16734743E+00 0.63722687E+03</pdfrwt>
<pdfrwt beam="2">  1       -2 0.12379783E-01 0.63722687E+03</pdfrwt>
<totfact> 0.10804524E+03</totfact>
</mgrwt>
</event>
<event>
 4    1  0.5626910E-005  0.5236690E+03  0.7818608E-02  0.1007779E+00
          2   -1    0    0  501    0  0.00000000000E+00  0.00000000000E+00  0.49048955972E+03  0.49048955973E+03  0.25500000000E-02 0.  1.
         -2   -1    0    0    0  501 -0.00000000000E+00 -0.00000000000E+00 -0.13977320851E+03  0.13977320854E+03  0.25500000000E-02 0. -1.
    5000001    1    1    2    0    0  0.62761312785E+02 -0.14259047261E+03  0.27904732327E+03  0.37283030173E+03  0.19200000000E+03 0.  0.
   -5000001    1    1    2    0    0 -0.62761312785E+02  0.14259047261E+03  0.71669027940E+02  0.25743246654E+03  0.19200000000E+03 0.  0.
<mgrwt>
<rscale>  0 0.52366898E+03</rscale>
<asrwt>0</asrwt>
<pdfrwt beam="1">  1        2 0.70069937E-01 0.52366898E+03</pdfrwt>
<pdfrwt beam="2">  1       -2 0.19967601E-01 0.52366898E+03</pdfrwt>
<totfact> 0.14661462E+03</totfact>
</mgrwt>
</event>
<event>
 4    1  0.5626910E-005  0.1249482E+04  0.7818608E-02  0.9070615E-01
          2   -1    0    0  501    0  0.00000000000E+00  0.00000000000E+00  0.70034876887E+03  0.70034876887E+03  0.25500000000E-02 0.  1.
         -2   -1    0    0    0  501 -0.00000000000E+00 -0.00000000000E+00 -0.55729555389E+03  0.55729555389E+03  0.25500000000E-02 0. -1.
    5000001    1    1    2    0    0  0.59427367539E+03 -0.13275829399E+02  0.61471041075E+02  0.62767837130E+03  0.19200000000E+03 0.  0.
   -5000001    1    1    2    0    0 -0.59427367539E+03  0.13275829399E+02  0.81582173905E+02  0.62996595147E+03  0.19200000000E+03 0.  0.
<mgrwt>
<rscale>  0 0.12494819E+04</rscale>
<asrwt>0</asrwt>
<pdfrwt beam="1">  1        2 0.10004982E+00 0.12494819E+04</pdfrwt>
<pdfrwt beam="2">  1       -2 0.79613651E-01 0.12494819E+04</pdfrwt>
<totfact> 0.61913710E+01</totfact>
</mgrwt>
</event>
<event>
 4    1  0.5626910E-005  0.5981236E+03  0.7818608E-02  0.9909307E-01
          2   -1    0    0  501    0  0.00000000000E+00  0.00000000000E+00  0.95280474784E+03  0.95280474784E+03  0.25500000000E-02 0.  1.
         -2   -1    0    0    0  501 -0.00000000000E+00 -0.00000000000E+00 -0.93868091407E+02  0.93868091442E+02  0.25500000000E-02 0. -1.
    5000001    1    1    2    0    0 -0.22176677361E+03  0.46935960652E+02  0.48984657464E+03  0.57288493868E+03  0.19200000000E+03 0.  0.
   -5000001    1    1    2    0    0  0.22176677361E+03 -0.46935960652E+02  0.36909008179E+03  0.47378790060E+03  0.19200000000E+03 0.  0.
<mgrwt>
<rscale>  0 0.59812361E+03</rscale>
<asrwt>0</asrwt>
<pdfrwt beam="1">  1        2 0.13611496E+00 0.59812361E+03</pdfrwt>
<pdfrwt beam="2">  1       -2 0.13409728E-01 0.59812361E+03</pdfrwt>
<totfact> 0.12770576E+03</totfact>
</mgrwt>
</event>
<event>
 4    1  0.5626910E-005  0.4540676E+03  0.7818608E-02  0.1026516E+00
          2   -1    0    0  501    0  0.00000000000E+00  0.00000000000E+00  0.48536982432E+03  0.48536982433E+03  0.25500000000E-02 0.  1.
         -2   -1    0    0    0  501 -0.00000000000E+00 -0.00000000000E+00 -0.10619601710E+03  0.10619601714E+03  0.25500000000E-02 0. -1.
    5000001    1    1    2    0    0 -0.11117406777E+02  0.12043580675E+03  0.19897818994E+03  0.30180241939E+03  0.19200000000E+03 0.  0.
   -5000001    1    1    2    0    0  0.11117406777E+02 -0.12043580675E+03  0.18019561728E+03  0.28976342207E+03  0.19200000000E+03 0.  0.
<mgrwt>
<rscale>  0 0.45406758E+03</rscale>
<asrwt>0</asrwt>
<pdfrwt beam="1">  1        2 0.69338547E-01 0.45406758E+03</pdfrwt>
<pdfrwt beam="2">  1       -2 0.15170859E-01 0.45406758E+03</pdfrwt>
<totfact> 0.23676892E+03</totfact>
</mgrwt>
</event>
<event>
 4    1  0.5626910E-005  0.4284890E+03  0.7818608E-02  0.1034338E+00
         -2   -1    0    0    0  501 -0.00000000000E+00  0.00000000000E+00  0.20669968603E+03  0.20669968604E+03  0.25500000000E-02 0. -1.
          2   -1    0    0  501    0  0.00000000000E+00 -0.00000000000E+00 -0.22206470941E+03  0.22206470943E+03  0.25500000000E-02 0.  1.
    5000001    1    1    2    0    0 -0.31034819857E+02  0.88812973049E+02 -0.21322174619E+02  0.21487098305E+03  0.19200000000E+03 0.  0.
   -5000001    1    1    2    0    0  0.31034819857E+02 -0.88812973049E+02  0.59571512326E+01  0.21389341242E+03  0.19200000000E+03 0.  0.
<mgrwt>
<rscale>  0 0.42848900E+03</rscale>
<asrwt>0</asrwt>
<pdfrwt beam="1">  1        2 0.31723530E-01 0.42848900E+03</pdfrwt>
<pdfrwt beam="2">  1       -2 0.29528527E-01 0.42848900E+03</pdfrwt>
<totfact> 0.17497491E+03</totfact>
</mgrwt>
</event>
<event>
 4    1  0.5626910E-005  0.5627709E+03  0.7818608E-02  0.9985804E-01
          2   -1    0    0  501    0  0.00000000000E+00  0.00000000000E+00  0.16085542453E+04  0.16085542453E+04  0.25500000000E-02 0.  1.
         -2   -1    0    0    0  501 -0.00000000000E+00 -0.00000000000E+00 -0.49222941485E+02  0.49222941551E+02  0.25500000000E-02 0. -1.
    5000001    1    1    2    0    0 -0.43883757626E+02  0.19157543642E+03  0.95852911835E+03  0.99713038403E+03  0.19200000000E+03 0.  0.
   -5000001    1    1    2    0    0  0.43883757626E+02 -0.19157543642E+03  0.60080218542E+03  0.66064680278E+03  0.19200000000E+03 0.  0.
<mgrwt>
<rscale>  0 0.56277090E+03</rscale>
<asrwt>0</asrwt>
<pdfrwt beam="1">  1        2 0.22979349E+00 0.56277090E+03</pdfrwt>
<pdfrwt beam="2">  1       -2 0.70318479E-02 0.56277090E+03</pdfrwt>
<totfact> 0.15747707E+03</totfact>
</mgrwt>
</event>
<event>
 4    1  0.5626910E-005  0.7001896E+03  0.7818608E-02  0.9716908E-01
         -2   -1    0    0    0  501 -0.00000000000E+00  0.00000000000E+00  0.74209688061E+02  0.74209688105E+02  0.25500000000E-02 0. -1.
          2   -1    0    0  501    0  0.00000000000E+00 -0.00000000000E+00 -0.16516220498E+04  0.16516220498E+04  0.25500000000E-02 0.  1.
    5000001    1    1    2    0    0 -0.21724653355E+03 -0.31887505593E+02 -0.12659469862E+04  0.12991145605E+04  0.19200000000E+03 0.  0.
   -5000001    1    1    2    0    0  0.21724653355E+03  0.31887505593E+02 -0.31146537550E+03  0.42671717740E+03  0.19200000000E+03 0.  0.
<mgrwt>
<rscale>  0 0.70018957E+03</rscale>
<asrwt>0</asrwt>
<pdfrwt beam="1">  1        2 0.23594599E+00 0.70018957E+03</pdfrwt>
<pdfrwt beam="2">  1       -2 0.10601385E-01 0.70018957E+03</pdfrwt>
<totfact> 0.76986110E+02</totfact>
</mgrwt>
</event>
<event>
 4    1  0.5626910E-005  0.5241793E+03  0.7818608E-02  0.1007654E+00
          2   -1    0    0  501    0  0.00000000000E+00  0.00000000000E+00  0.52051165715E+03  0.52051165716E+03  0.25500000000E-02 0.  1.
         -2   -1    0    0    0  501 -0.00000000000E+00 -0.00000000000E+00 -0.13196821217E+03  0.13196821219E+03  0.25500000000E-02 0. -1.
    5000001    1    1    2    0    0  0.10717442021E+02  0.14638890993E+03  0.32049365245E+03  0.40140348500E+03  0.19200000000E+03 0.  0.
   -5000001    1    1    2    0    0 -0.10717442021E+02 -0.14638890993E+03  0.68049792540E+02  0.25107638435E+03  0.19200000000E+03 0.  0.
<mgrwt>
<rscale>  0 0.52417933E+03</rscale>
<asrwt>0</asrwt>
<pdfrwt beam="1">  1        2 0.74358809E-01 0.52417933E+03</pdfrwt>
<pdfrwt beam="2">  1       -2 0.18852602E-01 0.52417933E+03</pdfrwt>
<totfact> 0.15138023E+03</totfact>
</mgrwt>
</event>
<event>
 4    1  0.5626910E-005  0.6093511E+03  0.7818608E-02  0.9886193E-01
         -2   -1    0    0    0  501 -0.00000000000E+00  0.00000000000E+00  0.11162199744E+03  0.11162199747E+03  0.25500000000E-02 0. -1.
          2   -1    0    0  501    0  0.00000000000E+00 -0.00000000000E+00 -0.83162081208E+03  0.83162081208E+03  0.25500000000E-02 0.  1.
    5000001    1    1    2    0    0 -0.10340410699E+03  0.18674954033E+03 -0.51782449507E+03  0.59209290475E+03  0.19200000000E+03 0.  0.
   -5000001    1    1    2    0    0  0.10340410699E+03 -0.18674954033E+03 -0.20217431957E+03  0.35114990481E+03  0.19200000000E+03 0.  0.
<mgrwt>
<rscale>  0 0.60935105E+03</rscale>
<asrwt>0</asrwt>
<pdfrwt beam="1">  1        2 0.11880297E+00 0.60935105E+03</pdfrwt>
<pdfrwt beam="2">  1       -2 0.15946000E-01 0.60935105E+03</pdfrwt>
<totfact> 0.11442288E+03</totfact>
</mgrwt>
</event>
<event>
 4    1  0.5626910E-005  0.4911037E+03  0.7818608E-02  0.1016127E+00
         -2   -1    0    0    0  501 -0.00000000000E+00  0.00000000000E+00  0.36065544401E+02  0.36065544491E+02  0.25500000000E-02 0. -1.
          2   -1    0    0  501    0  0.00000000000E+00 -0.00000000000E+00 -0.16718369254E+04  0.16718369254E+04  0.25500000000E-02 0.  1.
    5000001    1    1    2    0    0  0.93122067768E+02  0.10687965518E+03 -0.61699939068E+03  0.66154911253E+03  0.19200000000E+03 0.  0.
   -5000001    1    1    2    0    0 -0.93122067768E+02 -0.10687965518E+03 -0.10187719903E+04  0.10463533574E+04  0.19200000000E+03 0.  0.
<mgrwt>
<rscale>  0 0.49110369E+03</rscale>
<asrwt>0</asrwt>
<pdfrwt beam="1">  1        2 0.23883380E+00 0.49110369E+03</pdfrwt>
<pdfrwt beam="2">  1       -2 0.51522217E-02 0.49110369E+03</pdfrwt>
<totfact> 0.23818895E+03</totfact>
</mgrwt>
</event>
<event>
 4    1  0.5626910E-005  0.7049408E+03  0.7818608E-02  0.9708820E-01
         -2   -1    0    0    0  501 -0.00000000000E+00  0.00000000000E+00  0.86770240756E+02  0.86770240793E+02  0.25500000000E-02 0. -1.
          2   -1    0    0  501    0  0.00000000000E+00 -0.00000000000E+00 -0.14317739283E+04  0.14317739283E+04  0.25500000000E-02 0.  1.
    5000001    1    1    2    0    0 -0.14089338306E+02 -0.24590480568E+03 -0.32048746010E+03  0.44748619531E+03  0.19200000000E+03 0.  0.
   -5000001    1    1    2    0    0  0.14089338306E+02  0.24590480568E+03 -0.10245162274E+04  0.10710579738E+04  0.19200000000E+03 0.  0.
<mgrwt>
<rscale>  0 0.70494076E+03</rscale>
<asrwt>0</asrwt>
<pdfrwt beam="1">  1        2 0.20453912E+00 0.70494076E+03</pdfrwt>
<pdfrwt beam="2">  1       -2 0.12395750E-01 0.70494076E+03</pdfrwt>
<totfact> 0.77485221E+02</totfact>
</mgrwt>
</event>
<event>
 4    1  0.5626910E-005  0.9881334E+03  0.7818608E-02  0.9321657E-01
          2   -1    0    0  501    0  0.00000000000E+00  0.00000000000E+00  0.31600894126E+04  0.31600894126E+04  0.25500000000E-02 0.  1.
         -2   -1    0    0    0  501 -0.00000000000E+00 -0.00000000000E+00 -0.77245245284E+02  0.77245245327E+02  0.25500000000E-02 0. -1.
    5000001    1    1    2    0    0  0.39201535042E+03  0.22619883436E+03  0.17017870450E+04  0.17713794325E+04  0.19200000000E+03 0.  0.
   -5000001    1    1    2    0    0 -0.39201535042E+03 -0.22619883436E+03  0.13810571223E+04  0.14659552253E+04  0.19200000000E+03 0.  0.
<mgrwt>
<rscale>  0 0.98813336E+03</rscale>
<asrwt>0</asrwt>
<pdfrwt beam="1">  1        2 0.45144130E+00 0.98813336E+03</pdfrwt>
<pdfrwt beam="2">  1       -2 0.11035036E-01 0.98813336E+03</pdfrwt>
<totfact> 0.11472395E+02</totfact>
</mgrwt>
</event>
<event>
 4    1  0.5626910E-005  0.5467671E+03  0.7818608E-02  0.1002245E+00
          2   -1    0    0  501    0  0.00000000000E+00  0.00000000000E+00  0.10078314326E+04  0.10078314326E+04  0.25500000000E-02 0.  1.
         -2   -1    0    0    0  501 -0.00000000000E+00 -0.00000000000E+00 -0.74157792953E+02  0.74157792997E+02  0.25500000000E-02 0. -1.
    5000001    1    1    2    0    0 -0.51399940484E+02 -0.61516049848E+02  0.81776618242E+03  0.84381971261E+03  0.19200000000E+03 0.  0.
   -5000001    1    1    2    0    0  0.51399940484E+02  0.61516049848E+02  0.11590745719E+03  0.23816951296E+03  0.19200000000E+03 0.  0.
<mgrwt>
<rscale>  0 0.54676706E+03</rscale>
<asrwt>0</asrwt>
<pdfrwt beam="1">  1        2 0.14397592E+00 0.54676706E+03</pdfrwt>
<pdfrwt beam="2">  1       -2 0.10593971E-01 0.54676706E+03</pdfrwt>
<totfact> 0.17417713E+03</totfact>
</mgrwt>
</event>
<event>
 4    1  0.5626910E-005  0.6046882E+03  0.7818608E-02  0.9895727E-01
          2   -1    0    0  501    0  0.00000000000E+00  0.00000000000E+00  0.12146081705E+04  0.12146081705E+04  0.25500000000E-02 0.  1.
         -2   -1    0    0    0  501 -0.00000000000E+00 -0.00000000000E+00 -0.75260435962E+02  0.75260436005E+02  0.25500000000E-02 0. -1.
    5000001    1    1    2    0    0  0.52936678887E+02 -0.21715582863E+03  0.42517222409E+03  0.51729524067E+03  0.19200000000E+03 0.  0.
   -5000001    1    1    2    0    0 -0.52936678887E+02  0.21715582863E+03  0.71417551047E+03  0.77257336586E+03  0.19200000000E+03 0.  0.
<mgrwt>
<rscale>  0 0.60468815E+03</rscale>
<asrwt>0</asrwt>
<pdfrwt beam="1">  1        2 0.17351544E+00 0.60468815E+03</pdfrwt>
<pdfrwt beam="2">  1       -2 0.10751492E-01 0.60468815E+03</pdfrwt>
<totfact> 0.12890576E+03</totfact>
</mgrwt>
</event>
<event>
 4    1  0.5626910E-005  0.1156002E+04  0.7818608E-02  0.9152264E-01
         -2   -1    0    0    0  501 -0.00000000000E+00  0.00000000000E+00  0.27161718973E+03  0.27161718975E+03  0.25500000000E-02 0. -1.
          2   -1    0    0  501    0  0.00000000000E+00 -0.00000000000E+00 -0.12299859880E+04  0.12299859880E+04  0.25500000000E-02 0.  1.
    5000001    1    1    2    0    0  0.35171307316E+03  0.40794143601E+03 -0.36970850611E+03  0.68093074577E+03  0.19200000000E+03 0.  0.
   -5000001    1    1    2    0    0 -0.35171307316E+03 -0.40794143601E+03 -0.58866029215E+03  0.82067243197E+03  0.19200000000E+03 0.  0.
<mgrwt>
<rscale>  0 0.11560023E+04</rscale>
<asrwt>0</asrwt>
<pdfrwt beam="1">  1        2 0.17571228E+00 0.11560023E+04</pdfrwt>
<pdfrwt beam="2">  1       -2 0.38802456E-01 0.11560023E+04</pdfrwt>
<totfact> 0.12748041E+02</totfact>
</mgrwt>
</event>
<event>
 4    1  0.5626910E-005  0.6278950E+03  0.7818608E-02  0.9849165E-01
         -2   -1    0    0    0  501 -0.00000000000E+00  0.00000000000E+00  0.82886337693E+02  0.82886337732E+02  0.25500000000E-02 0. -1.
          2   -1    0    0  501    0  0.00000000000E+00 -0.00000000000E+00 -0.11891346933E+04  0.11891346933E+04  0.25500000000E-02 0.  1.
    5000001    1    1    2    0    0  0.24695726454E+03  0.26238669961E+02 -0.54348030859E+03  0.62762345729E+03  0.19200000000E+03 0.  0.
   -5000001    1    1    2    0    0 -0.24695726454E+03 -0.26238669961E+02 -0.56276804702E+03  0.64439757375E+03  0.19200000000E+03 0.  0.
<mgrwt>
<rscale>  0 0.62789496E+03</rscale>
<asrwt>0</asrwt>
<pdfrwt beam="1">  1        2 0.16987637E+00 0.62789496E+03</pdfrwt>
<pdfrwt beam="2">  1       -2 0.11840906E-01 0.62789496E+03</pdfrwt>
<totfact> 0.11365742E+03</totfact>
</mgrwt>
</event>
<event>
 4    1  0.5626910E-005  0.8561301E+03  0.7818608E-02  0.9482146E-01
         -2   -1    0    0    0  501 -0.00000000000E+00  0.00000000000E+00  0.87758101605E+02  0.87758101642E+02  0.25500000000E-02 0. -1.
          2   -1    0    0  501    0  0.00000000000E+00 -0.00000000000E+00 -0.20880087897E+04  0.20880087897E+04  0.25500000000E-02 0.  1.
    5000001    1    1    2    0    0 -0.65566924391E+02 -0.36834224992E+03 -0.79680317445E+03  0.90096300339E+03  0.19200000000E+03 0.  0.
   -5000001    1    1    2    0    0  0.65566924391E+02  0.36834224992E+03 -0.12034475136E+04  0.12748038879E+04  0.19200000000E+03 0.  0.
<mgrwt>
<rscale>  0 0.85613010E+03</rscale>
<asrwt>0</asrwt>
<pdfrwt beam="1">  1        2 0.29828694E+00 0.85613010E+03</pdfrwt>
<pdfrwt beam="2">  1       -2 0.12536873E-01 0.85613010E+03</pdfrwt>
<totfact> 0.34692997E+02</totfact>
</mgrwt>
</event>
<event>
 4    1  0.5626910E-005  0.6688100E+03  0.7818608E-02  0.9772110E-01
         -2   -1    0    0    0  501 -0.00000000000E+00  0.00000000000E+00  0.38175296787E+03  0.38175296788E+03  0.25500000000E-02 0. -1.
          2   -1    0    0  501    0  0.00000000000E+00 -0.00000000000E+00 -0.29292950020E+03  0.29292950021E+03  0.25500000000E-02 0.  1.
    5000001    1    1    2    0    0  0.12769040217E+03 -0.10474852602E+03 -0.17587601790E+03  0.30833985500E+03  0.19200000000E+03 0.  0.
   -5000001    1    1    2    0    0 -0.12769040217E+03  0.10474852602E+03  0.26469948557E+03  0.36634261309E+03  0.19200000000E+03 0.  0.
<mgrwt>
<rscale>  0 0.66881001E+03</rscale>
<asrwt>0</asrwt>
<pdfrwt beam="1">  1        2 0.41847071E-01 0.66881001E+03</pdfrwt>
<pdfrwt beam="2">  1       -2 0.54536138E-01 0.66881001E+03</pdfrwt>
<totfact> 0.39088288E+02</totfact>
</mgrwt>
</event>
<event>
 4    1  0.5626910E-005  0.1197627E+04  0.7818608E-02  0.9114937E-01
          2   -1    0    0  501    0  0.00000000000E+00  0.00000000000E+00  0.26334032334E+04  0.26334032334E+04  0.25500000000E-02 0.  1.
         -2   -1    0    0    0  501 -0.00000000000E+00 -0.00000000000E+00 -0.13616498963E+03  0.13616498965E+03  0.25500000000E-02 0. -1.
    5000001    1    1    2    0    0 -0.28634483957E+03 -0.48485016818E+03  0.14061487854E+04  0.15268239779E+04  0.19200000000E+03 0.  0.
   -5000001    1    1    2    0    0  0.28634483957E+03  0.48485016818E+03  0.10910894583E+04  0.12427442451E+04  0.19200000000E+03 0.  0.
<mgrwt>
<rscale>  0 0.11976265E+04</rscale>
<asrwt>0</asrwt>
<pdfrwt beam="1">  1        2 0.37620043E+00 0.11976265E+04</pdfrwt>
<pdfrwt beam="2">  1       -2 0.19452143E-01 0.11976265E+04</pdfrwt>
<totfact> 0.83456254E+01</totfact>
</mgrwt>
</event>
<event>
 4    1  0.5626910E-005  0.6317484E+03  0.7818608E-02  0.9841643E-01
          2   -1    0    0  501    0  0.00000000000E+00  0.00000000000E+00  0.44040363277E+04  0.44040363277E+04  0.25500000000E-02 0.  1.
         -2   -1    0    0    0  501 -0.00000000000E+00 -0.00000000000E+00 -0.22655695725E+02  0.22655695868E+02  0.25500000000E-02 0. -1.
    5000001    1    1    2    0    0  0.20784450502E+03 -0.10530656287E+03  0.28413919613E+04  0.28573871086E+04  0.19200000000E+03 0.  0.
   -5000001    1    1    2    0    0 -0.20784450502E+03  0.10530656287E+03  0.15399886707E+04  0.15693049150E+04  0.19200000000E+03 0.  0.
<mgrwt>
<rscale>  0 0.63174839E+03</rscale>
<asrwt>0</asrwt>
<pdfrwt beam="1">  1        2 0.62914876E+00 0.63174839E+03</pdfrwt>
<pdfrwt beam="2">  1       -2 0.32365243E-02 0.63174839E+03</pdfrwt>
<totfact> 0.13150958E+02</totfact>
</mgrwt>
</event>
<event>
 4    1  0.5626910E-005  0.4628497E+03  0.7818608E-02  0.1023958E+00
         -2   -1    0    0    0  501 -0.00000000000E+00  0.00000000000E+00  0.10511824419E+03  0.10511824422E+03  0.25500000000E-02 0. -1.
          2   -1    0    0  501    0  0.00000000000E+00 -0.00000000000E+00 -0.50949731092E+03  0.50949731092E+03  0.25500000000E-02 0.  1.
    5000001    1    1    2    0    0  0.12336853384E+03  0.16187715246E+02 -0.15596763750E+03  0.27689662550E+03  0.19200000000E+03 0.  0.
   -5000001    1    1    2    0    0 -0.12336853384E+03 -0.16187715246E+02 -0.24841142923E+03  0.33771892964E+03  0.19200000000E+03 0.  0.
<mgrwt>
<rscale>  0 0.46284971E+03</rscale>
<asrwt>0</asrwt>
<pdfrwt beam="1">  1        2 0.72785329E-01 0.46284971E+03</pdfrwt>
<pdfrwt beam="2">  1       -2 0.15016892E-01 0.46284971E+03</pdfrwt>
<totfact> 0.22807507E+03</totfact>
</mgrwt>
</event>
<event>
 4    1  0.5626910E-005  0.9653668E+03  0.7818608E-02  0.9347367E-01
          2   -1    0    0  501    0  0.00000000000E+00  0.00000000000E+00  0.23924870353E+04  0.23924870353E+04  0.25500000000E-02 0.  1.
         -2   -1    0    0    0  501 -0.00000000000E+00 -0.00000000000E+00 -0.97381194632E+02  0.97381194665E+02  0.25500000000E-02 0. -1.
    5000001    1    1    2    0    0  0.17360802545E+03 -0.39250284678E+03  0.14291580942E+04  0.15045115784E+04  0.19200000000E+03 0.  0.
   -5000001    1    1    2    0    0 -0.17360802545E+03  0.39250284678E+03  0.86594774648E+03  0.98535665161E+03  0.19200000000E+03 0.  0.
<mgrwt>
<rscale>  0 0.96536676E+03</rscale>
<asrwt>0</asrwt>
<pdfrwt beam="1">  1        2 0.34178386E+00 0.96536676E+03</pdfrwt>
<pdfrwt beam="2">  1       -2 0.13911599E-01 0.96536676E+03</pdfrwt>
<totfact> 0.20202126E+02</totfact>
</mgrwt>
</event>
<event>
 4    1  0.5626910E-005  0.7484668E+03  0.7818608E-02  0.9637759E-01
          2   -1    0    0  501    0  0.00000000000E+00  0.00000000000E+00  0.99118323666E+03  0.99118323666E+03  0.25500000000E-02 0.  1.
         -2   -1    0    0    0  501 -0.00000000000E+00 -0.00000000000E+00 -0.14129641474E+03  0.14129641477E+03  0.25500000000E-02 0. -1.
    5000001    1    1    2    0    0  0.28778786297E+03 -0.12468636505E+03  0.52996909067E+03  0.64505796698E+03  0.19200000000E+03 0.  0.
   -5000001    1    1    2    0    0 -0.28778786297E+03  0.12468636505E+03  0.31991773125E+03  0.48742168445E+03  0.19200000000E+03 0.  0.
<mgrwt>
<rscale>  0 0.74846680E+03</rscale>
<asrwt>0</asrwt>
<pdfrwt beam="1">  1        2 0.14159761E+00 0.74846680E+03</pdfrwt>
<pdfrwt beam="2">  1       -2 0.20185202E-01 0.74846680E+03</pdfrwt>
<totfact> 0.59927314E+02</totfact>
</mgrwt>
</event>
<event>
 4    1  0.5626910E-005  0.6850817E+03  0.7818608E-02  0.9743090E-01
         -2   -1    0    0    0  501 -0.00000000000E+00  0.00000000000E+00  0.38634382086E+03  0.38634382087E+03  0.25500000000E-02 0. -1.
          2   -1    0    0  501    0  0.00000000000E+00 -0.00000000000E+00 -0.30370416190E+03  0.30370416192E+03  0.25500000000E-02 0.  1.
    5000001    1    1    2    0    0 -0.51159148462E+02 -0.24986045691E+03  0.16640834080E+03  0.36000450315E+03  0.19200000000E+03 0.  0.
   -5000001    1    1    2    0    0  0.51159148462E+02  0.24986045691E+03 -0.83768681839E+02  0.33004347964E+03  0.19200000000E+03 0.  0.
<mgrwt>
<rscale>  0 0.68508168E+03</rscale>
<asrwt>0</asrwt>
<pdfrwt beam="1">  1        2 0.43386309E-01 0.68508168E+03</pdfrwt>
<pdfrwt beam="2">  1       -2 0.55191974E-01 0.68508168E+03</pdfrwt>
<totfact> 0.36623765E+02</totfact>
</mgrwt>
</event>
<event>
 4    1  0.5626910E-005  0.1092871E+04  0.7818608E-02  0.9212169E-01
          2   -1    0    0  501    0  0.00000000000E+00  0.00000000000E+00  0.43029596714E+03  0.43029596715E+03  0.25500000000E-02 0.  1.
         -2   -1    0    0    0  501 -0.00000000000E+00 -0.00000000000E+00 -0.69392125219E+03  0.69392125220E+03  0.25500000000E-02 0. -1.
    5000001    1    1    2    0    0 -0.36124244518E+03  0.25523414307E+03  0.13263478165E+03  0.50009654797E+03  0.19200000000E+03 0.  0.
   -5000001    1    1    2    0    0  0.36124244518E+03 -0.25523414307E+03 -0.39626006670E+03  0.62412067138E+03  0.19200000000E+03 0.  0.
<mgrwt>
<rscale>  0 0.10928706E+04</rscale>
<asrwt>0</asrwt>
<pdfrwt beam="1">  1        2 0.61470852E-01 0.10928706E+04</pdfrwt>
<pdfrwt beam="2">  1       -2 0.99131607E-01 0.10928706E+04</pdfrwt>
<totfact> 0.66781653E+01</totfact>
</mgrwt>
</event>
<event>
 4    1  0.5626910E-005  0.5518008E+03  0.7818608E-02  0.1001078E+00
         -2   -1    0    0    0  501 -0.00000000000E+00  0.00000000000E+00  0.46643316094E+02  0.46643316164E+02  0.25500000000E-02 0. -1.
          2   -1    0    0  501    0  0.00000000000E+00 -0.00000000000E+00 -0.16319816994E+04  0.16319816994E+04  0.25500000000E-02 0.  1.
    5000001    1    1    2    0    0  0.16462954660E+03 -0.10957574965E+03 -0.75574752753E+03  0.80444270020E+03  0.19200000000E+03 0.  0.
   -5000001    1    1    2    0    0 -0.16462954660E+03  0.10957574965E+03 -0.82959085579E+03  0.87418231539E+03  0.19200000000E+03 0.  0.
<mgrwt>
<rscale>  0 0.55180083E+03</rscale>
<asrwt>0</asrwt>
<pdfrwt beam="1">  1        2 0.23314021E+00 0.55180083E+03</pdfrwt>
<pdfrwt beam="2">  1       -2 0.66633319E-02 0.55180083E+03</pdfrwt>
<totfact> 0.16681642E+03</totfact>
</mgrwt>
</event>
<event>
 4    1  0.5626910E-005  0.4928671E+03  0.7818608E-02  0.1015658E+00
          2   -1    0    0  501    0  0.00000000000E+00  0.00000000000E+00  0.34615843822E+03  0.34615843823E+03  0.25500000000E-02 0.  1.
         -2   -1    0    0    0  501 -0.00000000000E+00 -0.00000000000E+00 -0.17543840258E+03  0.17543840260E+03  0.25500000000E-02 0. -1.
    5000001    1    1    2    0    0 -0.10515531037E+03  0.10910428524E+03  0.53539065012E+02  0.25038333778E+03  0.19200000000E+03 0.  0.
   -5000001    1    1    2    0    0  0.10515531037E+03 -0.10910428524E+03  0.11718097062E+03  0.27121350304E+03  0.19200000000E+03 0.  0.
<mgrwt>
<rscale>  0 0.49286705E+03</rscale>
<asrwt>0</asrwt>
<pdfrwt beam="1">  1        2 0.49451205E-01 0.49286705E+03</pdfrwt>
<pdfrwt beam="2">  1       -2 0.25062629E-01 0.49286705E+03</pdfrwt>
<totfact> 0.14463258E+03</totfact>
</mgrwt>
</event>
<event>
 4    1  0.5626910E-005  0.8607939E+03  0.7818608E-02  0.9475963E-01
         -2   -1    0    0    0  501 -0.00000000000E+00  0.00000000000E+00  0.94931039008E+02  0.94931039042E+02  0.25500000000E-02 0. -1.
          2   -1    0    0  501    0  0.00000000000E+00 -0.00000000000E+00 -0.19513275911E+04  0.19513275911E+04  0.25500000000E-02 0.  1.
    5000001    1    1    2    0    0  0.16240113103E+03 -0.32895473219E+03 -0.12073744100E+04  0.12764020954E+04  0.19200000000E+03 0.  0.
   -5000001    1    1    2    0    0 -0.16240113103E+03  0.32895473219E+03 -0.64902214213E+03  0.76985653479E+03  0.19200000000E+03 0.  0.
<mgrwt>
<rscale>  0 0.86079395E+03</rscale>
<asrwt>0</asrwt>
<pdfrwt beam="1">  1        2 0.27876106E+00 0.86079395E+03</pdfrwt>
<pdfrwt beam="2">  1       -2 0.13561578E-01 0.86079395E+03</pdfrwt>
<totfact> 0.35690723E+02</totfact>
</mgrwt>
</event>
<event>
 4    1  0.5626910E-005  0.6489623E+03  0.7818608E-02  0.9808728E-01
         -2   -1    0    0    0  501 -0.00000000000E+00  0.00000000000E+00  0.64558349522E+02  0.64558349573E+02  0.25500000000E-02 0. -1.
          2   -1    0    0  501    0  0.00000000000E+00 -0.00000000000E+00 -0.16308970588E+04  0.16308970588E+04  0.25500000000E-02 0.  1.
    5000001    1    1    2    0    0  0.42356654208E+02  0.15245323538E+03 -0.23897824321E+03  0.34497923975E+03  0.19200000000E+03 0.  0.
   -5000001    1    1    2    0    0 -0.42356654208E+02 -0.15245323538E+03 -0.13273604661E+04  0.13504761687E+04  0.19200000000E+03 0.  0.
<mgrwt>
<rscale>  0 0.64896232E+03</rscale>
<asrwt>0</asrwt>
<pdfrwt beam="1">  1        2 0.23298527E+00 0.64896232E+03</pdfrwt>
<pdfrwt beam="2">  1       -2 0.92226224E-02 0.64896232E+03</pdfrwt>
<totfact> 0.99162524E+02</totfact>
</mgrwt>
</event>
<event>
 4    1  0.5626910E-005  0.1043304E+04  0.7818608E-02  0.9262285E-01
          2   -1    0    0  501    0  0.00000000000E+00  0.00000000000E+00  0.70892700783E+03  0.70892700783E+03  0.25500000000E-02 0.  1.
         -2   -1    0    0    0  501 -0.00000000000E+00 -0.00000000000E+00 -0.38384854269E+03  0.38384854269E+03  0.25500000000E-02 0. -1.
    5000001    1    1    2    0    0 -0.44887269777E+03  0.33704275202E+02  0.35175394395E+03  0.60267529737E+03  0.19200000000E+03 0.  0.
   -5000001    1    1    2    0    0  0.44887269777E+03 -0.33704275202E+02 -0.26675478812E+02  0.49010025316E+03  0.19200000000E+03 0.  0.
<mgrwt>
<rscale>  0 0.10433036E+04</rscale>
<asrwt>0</asrwt>
<pdfrwt beam="1">  1        2 0.10127529E+00 0.10433036E+04</pdfrwt>
<pdfrwt beam="2">  1       -2 0.54835506E-01 0.10433036E+04</pdfrwt>
<totfact> 0.13809647E+02</totfact>
</mgrwt>
</event>
<event>
 4    1  0.5626910E-005  0.6140045E+03  0.7818608E-02  0.9876770E-01
          2   -1    0    0  501    0  0.00000000000E+00  0.00000000000E+00  0.12725795737E+04  0.12725795737E+04  0.25500000000E-02 0.  1.
         -2   -1    0    0    0  501 -0.00000000000E+00 -0.00000000000E+00 -0.74062454988E+02  0.74062455032E+02  0.25500000000E-02 0. -1.
    5000001    1    1    2    0    0  0.10114065540E+03 -0.21139381008E+03  0.70825022141E+03  0.77032405599E+03  0.19200000000E+03 0.  0.
   -5000001    1    1    2    0    0 -0.10114065540E+03  0.21139381008E+03  0.49026689729E+03  0.57631797273E+03  0.19200000000E+03 0.  0.
<mgrwt>
<rscale>  0 0.61400445E+03</rscale>
<asrwt>0</asrwt>
<pdfrwt beam="1">  1        2 0.18179708E+00 0.61400445E+03</pdfrwt>
<pdfrwt beam="2">  1       -2 0.10580351E-01 0.61400445E+03</pdfrwt>
<totfact> 0.12287146E+03</totfact>
</mgrwt>
</event>
<event>
 4    1  0.5626910E-005  0.5051468E+03  0.7818608E-02  0.1012444E+00
         -2   -1    0    0    0  501 -0.00000000000E+00  0.00000000000E+00  0.62532933918E+02  0.62532933970E+02  0.25500000000E-02 0. -1.
          2   -1    0    0  501    0  0.00000000000E+00 -0.00000000000E+00 -0.10201554701E+04  0.10201554701E+04  0.25500000000E-02 0.  1.
    5000001    1    1    2    0    0  0.77716138493E+02  0.13632458453E+03 -0.58171545873E+03  0.63236149903E+03  0.19200000000E+03 0.  0.
   -5000001    1    1    2    0    0 -0.77716138493E+02 -0.13632458453E+03 -0.37590707747E+03  0.45032690507E+03  0.19200000000E+03 0.  0.
<mgrwt>
<rscale>  0 0.50514677E+03</rscale>
<asrwt>0</asrwt>
<pdfrwt beam="1">  1        2 0.14573649E+00 0.50514677E+03</pdfrwt>
<pdfrwt beam="2">  1       -2 0.89332769E-02 0.50514677E+03</pdfrwt>
<totfact> 0.22549597E+03</totfact>
</mgrwt>
</event>
<event>
 4    1  0.5626910E-005  0.5851792E+03  0.7818608E-02  0.9936641E-01
         -2   -1    0    0    0  501 -0.00000000000E+00  0.00000000000E+00  0.48113643480E+02  0.48113643548E+02  0.25500000000E-02 0. -1.
          2   -1    0    0  501    0  0.00000000000E+00 -0.00000000000E+00 -0.17793012326E+04  0.17793012326E+04  0.25500000000E-02 0.  1.
    5000001    1    1    2    0    0 -0.60571379478E+02  0.25670999491E+02 -0.20744847257E+03  0.29021847115E+03  0.19200000000E+03 0.  0.
   -5000001    1    1    2    0    0  0.60571379478E+02 -0.25670999491E+02 -0.15237391165E+04  0.15371964050E+04  0.19200000000E+03 0.  0.
<mgrwt>
<rscale>  0 0.58517917E+03</rscale>
<asrwt>0</asrwt>
<pdfrwt beam="1">  1        2 0.25418585E+00 0.58517917E+03</pdfrwt>
<pdfrwt beam="2">  1       -2 0.68733787E-02 0.58517917E+03</pdfrwt>
<totfact> 0.13355508E+03</totfact>
</mgrwt>
</event>
<event>
 4    1  0.5626910E-005  0.6597265E+03  0.7818608E-02  0.9788697E-01
          2   -1    0    0  501    0  0.00000000000E+00  0.00000000000E+00  0.32657192345E+03  0.32657192346E+03  0.25500000000E-02 0.  1.
         -2   -1    0    0    0  501 -0.00000000000E+00 -0.00000000000E+00 -0.33318775493E+03  0.33318775494E+03  0.25500000000E-02 0. -1.
    5000001    1    1    2    0    0  0.66362331597E+02  0.18240800384E+03  0.18182061613E+03  0.32802343722E+03  0.19200000000E+03 0.  0.
   -5000001    1    1    2    0    0 -0.66362331597E+02 -0.18240800384E+03 -0.18843644761E+03  0.33173624117E+03  0.19200000000E+03 0.  0.
<mgrwt>
<rscale>  0 0.65972651E+03</rscale>
<asrwt>0</asrwt>
<pdfrwt beam="1">  1        2 0.46653132E-01 0.65972651E+03</pdfrwt>
<pdfrwt beam="2">  1       -2 0.47598250E-01 0.65972651E+03</pdfrwt>
<totfact> 0.45739087E+02</totfact>
</mgrwt>
</event>
<event>
 4    1  0.5626910E-005  0.6059518E+03  0.7818608E-02  0.9893134E-01
         -2   -1    0    0    0  501 -0.00000000000E+00  0.00000000000E+00  0.84370906808E+03  0.84370906808E+03  0.25500000000E-02 0. -1.
          2   -1    0    0  501    0  0.00000000000E+00 -0.00000000000E+00 -0.10879864998E+03  0.10879865001E+03  0.25500000000E-02 0.  1.
    5000001    1    1    2    0    0  0.16481135010E+03 -0.54661695546E+02  0.12001023237E+03  0.28533688503E+03  0.19200000000E+03 0.  0.
   -5000001    1    1    2    0    0 -0.16481135010E+03  0.54661695546E+02  0.61490018573E+03  0.66717083306E+03  0.19200000000E+03 0.  0.
<mgrwt>
<rscale>  0 0.60595184E+03</rscale>
<asrwt>0</asrwt>
<pdfrwt beam="1">  1        2 0.15542664E-01 0.60595184E+03</pdfrwt>
<pdfrwt beam="2">  1       -2 0.12052987E+00 0.60595184E+03</pdfrwt>
<totfact> 0.20434876E+02</totfact>
</mgrwt>
</event>
<event>
 4    1  0.5626910E-005  0.4910219E+03  0.7818608E-02  0.1016149E+00
         -2   -1    0    0    0  501 -0.00000000000E+00  0.00000000000E+00  0.35148029094E+03  0.35148029095E+03  0.25500000000E-02 0.  1.
          2   -1    0    0  501    0  0.00000000000E+00 -0.00000000000E+00 -0.17149075723E+03  0.17149075725E+03  0.25500000000E-02 0. -1.
    5000001    1    1    2    0    0 -0.44301215798E+02 -0.27237146242E+02  0.24325768412E+03  0.31423360855E+03  0.19200000000E+03 0.  0.
   -5000001    1    1    2    0    0  0.44301215798E+02  0.27237146242E+02 -0.63268150409E+02  0.20873743965E+03  0.19200000000E+03 0.  0.
<mgrwt>
<rscale>  0 0.49102188E+03</rscale>
<asrwt>0</asrwt>
<pdfrwt beam="1">  1        2 0.24498680E-01 0.49102188E+03</pdfrwt>
<pdfrwt beam="2">  1       -2 0.50211470E-01 0.49102188E+03</pdfrwt>
<totfact> 0.84470422E+02</totfact>
</mgrwt>
</event>
<event>
 4    1  0.5626910E-005  0.7642766E+03  0.7818608E-02  0.9613215E-01
         -2   -1    0    0    0  501 -0.00000000000E+00  0.00000000000E+00  0.52703084895E+03  0.52703084895E+03  0.25500000000E-02 0. -1.
          2   -1    0    0  501    0  0.00000000000E+00 -0.00000000000E+00 -0.27707994407E+03  0.27707994408E+03  0.25500000000E-02 0.  1.
    5000001    1    1    2    0    0  0.91867601495E+02 -0.25075954604E+03  0.32965452593E+03  0.46567812124E+03  0.19200000000E+03 0.  0.
   -5000001    1    1    2    0    0 -0.91867601495E+02  0.25075954604E+03 -0.79703621056E+02  0.33843267180E+03  0.19200000000E+03 0.  0.
<mgrwt>
<rscale>  0 0.76427659E+03</rscale>
<asrwt>0</asrwt>
<pdfrwt beam="1">  1        2 0.39582849E-01 0.76427659E+03</pdfrwt>
<pdfrwt beam="2">  1       -2 0.75290121E-01 0.76427659E+03</pdfrwt>
<totfact> 0.20800782E+02</totfact>
</mgrwt>
</event>
<event>
 4    1  0.5626910E-005  0.9774369E+03  0.7818608E-02  0.9333644E-01
          2   -1    0    0  501    0  0.00000000000E+00  0.00000000000E+00  0.36553249916E+04  0.36553249916E+04  0.25500000000E-02 0.  1.
         -2   -1    0    0    0  501 -0.00000000000E+00 -0.00000000000E+00 -0.65341855967E+02  0.65341856016E+02  0.25500000000E-02 0. -1.
    5000001    1    1    2    0    0 -0.26275002272E+03 -0.35686883853E+03  0.20795624385E+04  0.21349091030E+04  0.19200000000E+03 0.  0.
   -5000001    1    1    2    0    0  0.26275002272E+03  0.35686883853E+03  0.15104206971E+04  0.15857577446E+04  0.19200000000E+03 0.  0.
<mgrwt>
<rscale>  0 0.97743689E+03</rscale>
<asrwt>0</asrwt>
<pdfrwt beam="1">  1        2 0.52218922E+00 0.97743689E+03</pdfrwt>
<pdfrwt beam="2">  1       -2 0.93345521E-02 0.97743689E+03</pdfrwt>
<totfact> 0.76919205E+01</totfact>
</mgrwt>
</event>
<event>
 4    1  0.5626910E-005  0.7564414E+03  0.7818608E-02  0.9625299E-01
         -2   -1    0    0    0  501 -0.00000000000E+00  0.00000000000E+00  0.31395006662E+03  0.31395006663E+03  0.25500000000E-02 0. -1.
          2   -1    0    0  501    0  0.00000000000E+00 -0.00000000000E+00 -0.45564862527E+03  0.45564862527E+03  0.25500000000E-02 0.  1.
    5000001    1    1    2    0    0  0.64454042387E+02 -0.27388785514E+03 -0.23807993294E+03  0.41558986422E+03  0.19200000000E+03 0.  0.
   -5000001    1    1    2    0    0 -0.64454042387E+02  0.27388785514E+03  0.96381374293E+02  0.35400882769E+03  0.19200000000E+03 0.  0.
<mgrwt>
<rscale>  0 0.75644145E+03</rscale>
<asrwt>0</asrwt>
<pdfrwt beam="1">  1        2 0.65092660E-01 0.75644145E+03</pdfrwt>
<pdfrwt beam="2">  1       -2 0.44850010E-01 0.75644145E+03</pdfrwt>
<totfact> 0.35432763E+02</totfact>
</mgrwt>
</event>
<event>
 4    1  0.5626910E-005  0.6310925E+03  0.7818608E-02  0.9842919E-01
          2   -1    0    0  501    0  0.00000000000E+00  0.00000000000E+00  0.26228360792E+03  0.26228360794E+03  0.25500000000E-02 0.  1.
         -2   -1    0    0    0  501 -0.00000000000E+00 -0.00000000000E+00 -0.37962509819E+03  0.37962509820E+03  0.25500000000E-02 0. -1.
    5000001    1    1    2    0    0 -0.13383778212E+03 -0.20232140593E+03 -0.12185576009E+03  0.33250463077E+03  0.19200000000E+03 0.  0.
   -5000001    1    1    2    0    0  0.13383778212E+03  0.20232140593E+03  0.45142698229E+01  0.30940407536E+03  0.19200000000E+03 0.  0.
<mgrwt>
<rscale>  0 0.63109251E+03</rscale>
<asrwt>0</asrwt>
<pdfrwt beam="1">  1        2 0.37469087E-01 0.63109251E+03</pdfrwt>
<pdfrwt beam="2">  1       -2 0.54232157E-01 0.63109251E+03</pdfrwt>
<totfact> 0.44732874E+02</totfact>
</mgrwt>
</event>
<event>
 4    1  0.5626910E-005  0.6093287E+03  0.7818608E-02  0.9886239E-01
          2   -1    0    0  501    0  0.00000000000E+00  0.00000000000E+00  0.10241923562E+04  0.10241923562E+04  0.25500000000E-02 0.  1.
         -2   -1    0    0    0  501 -0.00000000000E+00 -0.00000000000E+00 -0.90627875937E+02  0.90627875973E+02  0.25500000000E-02 0. -1.
    5000001    1    1    2    0    0  0.57841511846E+02  0.19698206079E+03  0.25178581960E+03  0.37736941015E+03  0.19200000000E+03 0.  0.
   -5000001    1    1    2    0    0 -0.57841511846E+02 -0.19698206079E+03  0.68177866065E+03  0.73745082201E+03  0.19200000000E+03 0.  0.
<mgrwt>
<rscale>  0 0.60932874E+03</rscale>
<asrwt>0</asrwt>
<pdfrwt beam="1">  1        2 0.14631319E+00 0.60932874E+03</pdfrwt>
<pdfrwt beam="2">  1       -2 0.12946839E-01 0.60932874E+03</pdfrwt>
<totfact> 0.12236733E+03</totfact>
</mgrwt>
</event>
<event>
 4    1  0.5626910E-005  0.8305336E+03  0.7818608E-02  0.9516843E-01
         -2   -1    0    0    0  501 -0.00000000000E+00  0.00000000000E+00  0.19718847348E+03  0.19718847350E+03  0.25500000000E-02 0. -1.
          2   -1    0    0  501    0  0.00000000000E+00 -0.00000000000E+00 -0.87452643340E+03  0.87452643341E+03  0.25500000000E-02 0.  1.
    5000001    1    1    2    0    0 -0.15524493037E+03 -0.32049633743E+03 -0.45946826114E+03  0.61220419282E+03  0.19200000000E+03 0.  0.
   -5000001    1    1    2    0    0  0.15524493037E+03  0.32049633743E+03 -0.21786969878E+03  0.45951071409E+03  0.19200000000E+03 0.  0.
<mgrwt>
<rscale>  0 0.83053364E+03</rscale>
<asrwt>0</asrwt>
<pdfrwt beam="1">  1        2 0.12493235E+00 0.83053364E+03</pdfrwt>
<pdfrwt beam="2">  1       -2 0.28169782E-01 0.83053364E+03</pdfrwt>
<totfact> 0.39018942E+02</totfact>
</mgrwt>
</event>
<event>
 4    1  0.5626910E-005  0.7230538E+03  0.7818608E-02  0.9678600E-01
          2   -1    0    0  501    0  0.00000000000E+00  0.00000000000E+00  0.12288548892E+04  0.12288548892E+04  0.25500000000E-02 0.  1.
         -2   -1    0    0    0  501 -0.00000000000E+00 -0.00000000000E+00 -0.10636056152E+03  0.10636056155E+03  0.25500000000E-02 0. -1.
    5000001    1    1    2    0    0  0.13300775227E+03  0.15073071270E+03  0.13441152535E+03  0.30877381376E+03  0.19200000000E+03 0.  0.
   -5000001    1    1    2    0    0 -0.13300775227E+03 -0.15073071270E+03  0.98808280228E+03  0.10264416370E+04  0.19200000000E+03 0.  0.
<mgrwt>
<rscale>  0 0.72305379E+03</rscale>
<asrwt>0</asrwt>
<pdfrwt beam="1">  1        2 0.17555070E+00 0.72305379E+03</pdfrwt>
<pdfrwt beam="2">  1       -2 0.15194366E-01 0.72305379E+03</pdfrwt>
<totfact> 0.70990173E+02</totfact>
</mgrwt>
</event>
<event>
 4    1  0.5626910E-005  0.6460587E+03  0.7818608E-02  0.9814203E-01
         -2   -1    0    0    0  501 -0.00000000000E+00  0.00000000000E+00  0.11435814627E+03  0.11435814630E+03  0.25500000000E-02 0. -1.
          2   -1    0    0  501    0  0.00000000000E+00 -0.00000000000E+00 -0.91246635231E+03  0.91246635232E+03  0.25500000000E-02 0.  1.
    5000001    1    1    2    0    0  0.23057406738E+03  0.47530049833E+02 -0.22450963892E+03  0.37774605776E+03  0.19200000000E+03 0.  0.
   -5000001    1    1    2    0    0 -0.23057406738E+03 -0.47530049833E+02 -0.57359856712E+03  0.64907844086E+03  0.19200000000E+03 0.  0.
<mgrwt>
<rscale>  0 0.64605870E+03</rscale>
<asrwt>0</asrwt>
<pdfrwt beam="1">  1        2 0.13035233E+00 0.64605870E+03</pdfrwt>
<pdfrwt beam="2">  1       -2 0.16336879E-01 0.64605870E+03</pdfrwt>
<totfact> 0.97056188E+02</totfact>
</mgrwt>
</event>
<event>
 4    1  0.5626910E-005  0.7496409E+03  0.7818608E-02  0.9635914E-01
         -2   -1    0    0    0  501 -0.00000000000E+00  0.00000000000E+00  0.64522742322E+02  0.64522742372E+02  0.25500000000E-02 0. -1.
          2   -1    0    0  501    0  0.00000000000E+00 -0.00000000000E+00 -0.21773777098E+04  0.21773777098E+04  0.25500000000E-02 0.  1.
    5000001    1    1    2    0    0  0.26895896538E+03 -0.12559350761E+03 -0.68393192183E+03  0.76989579030E+03  0.19200000000E+03 0.  0.
   -5000001    1    1    2    0    0 -0.26895896538E+03  0.12559350761E+03 -0.14289230456E+04  0.14720046619E+04  0.19200000000E+03 0.  0.
<mgrwt>
<rscale>  0 0.74964093E+03</rscale>
<asrwt>0</asrwt>
<pdfrwt beam="1">  1        2 0.31105391E+00 0.74964093E+03</pdfrwt>
<pdfrwt beam="2">  1       -2 0.92175360E-02 0.74964093E+03</pdfrwt>
<totfact> 0.52130605E+02</totfact>
</mgrwt>
</event>
<event>
 4    1  0.5626910E-005  0.9427748E+03  0.7818608E-02  0.9373636E-01
         -2   -1    0    0    0  501 -0.00000000000E+00  0.00000000000E+00  0.22371953047E+03  0.22371953048E+03  0.25500000000E-02 0. -1.
          2   -1    0    0  501    0  0.00000000000E+00 -0.00000000000E+00 -0.99323502146E+03  0.99323502147E+03  0.25500000000E-02 0.  1.
    5000001    1    1    2    0    0  0.37857271232E+03  0.17972584096E+03 -0.51204220827E+03  0.68896291589E+03  0.19200000000E+03 0.  0.
   -5000001    1    1    2    0    0 -0.37857271232E+03 -0.17972584096E+03 -0.25747328273E+03  0.52799163606E+03  0.19200000000E+03 0.  0.
<mgrwt>
<rscale>  0 0.94277478E+03</rscale>
<asrwt>0</asrwt>
<pdfrwt beam="1">  1        2 0.14189072E+00 0.94277478E+03</pdfrwt>
<pdfrwt beam="2">  1       -2 0.31959933E-01 0.94277478E+03</pdfrwt>
<totfact> 0.25774660E+02</totfact>
</mgrwt>
</event>
<event>
 4    1  0.5626910E-005  0.5711633E+03  0.7818608E-02  0.9967108E-01
         -2   -1    0    0    0  501 -0.00000000000E+00  0.00000000000E+00  0.68099746287E+02  0.68099746335E+02  0.25500000000E-02 0. -1.
          2   -1    0    0  501    0  0.00000000000E+00 -0.00000000000E+00 -0.11976092280E+04  0.11976092280E+04  0.25500000000E-02 0.  1.
    5000001    1    1    2    0    0  0.15655568760E+03  0.96433357256E+02 -0.79594205718E+03  0.83916436656E+03  0.19200000000E+03 0.  0.
   -5000001    1    1    2    0    0 -0.15655568760E+03 -0.96433357256E+02 -0.33356742452E+03  0.42654460776E+03  0.19200000000E+03 0.  0.
<mgrwt>
<rscale>  0 0.57116332E+03</rscale>
<asrwt>0</asrwt>
<pdfrwt beam="1">  1        2 0.17108702E+00 0.57116332E+03</pdfrwt>
<pdfrwt beam="2">  1       -2 0.97285359E-02 0.57116332E+03</pdfrwt>
<totfact> 0.15509943E+03</totfact>
</mgrwt>
</event>
<event>
 4    1  0.5626910E-005  0.4856847E+03  0.7818608E-02  0.1017584E+00
          2   -1    0    0  501    0  0.00000000000E+00  0.00000000000E+00  0.72421898393E+03  0.72421898393E+03  0.25500000000E-02 0.  1.
         -2   -1    0    0    0  501 -0.00000000000E+00 -0.00000000000E+00 -0.81428986026E+02  0.81428986066E+02  0.25500000000E-02 0. -1.
    5000001    1    1    2    0    0 -0.41926521375E+02 -0.11658323404E+03  0.45776848890E+03  0.51163021127E+03  0.19200000000E+03 0.  0.
   -5000001    1    1    2    0    0  0.41926521375E+02  0.11658323404E+03  0.18502150900E+03  0.29401775873E+03  0.19200000000E+03 0.  0.
<mgrwt>
<rscale>  0 0.48568474E+03</rscale>
<asrwt>0</asrwt>
<pdfrwt beam="1">  1        2 0.10345986E+00 0.48568474E+03</pdfrwt>
<pdfrwt beam="2">  1       -2 0.11632712E-01 0.48568474E+03</pdfrwt>
<totfact> 0.23034809E+03</totfact>
</mgrwt>
</event>
<event>
 4    1  0.5626910E-005  0.5326021E+03  0.7818608E-02  0.1005603E+00
          2   -1    0    0  501    0  0.00000000000E+00  0.00000000000E+00  0.40182395497E+02  0.40182395578E+02  0.25500000000E-02 0.  1.
         -2   -1    0    0    0  501 -0.00000000000E+00 -0.00000000000E+00 -0.17648586450E+04  0.17648586450E+04  0.25500000000E-02 0. -1.
    5000001    1    1    2    0    0 -0.87129274636E+02 -0.11206677900E+03 -0.12619324686E+04  0.12843239579E+04  0.19200000000E+03 0.  0.
   -5000001    1    1    2    0    0  0.87129274636E+02  0.11206677900E+03 -0.46274378084E+03  0.52071708264E+03  0.19200000000E+03 0.  0.
<mgrwt>
<rscale>  0 0.53260210E+03</rscale>
<asrwt>0</asrwt>
<pdfrwt beam="1">  1        2 0.57403433E-02 0.53260210E+03</pdfrwt>
<pdfrwt beam="2">  1       -2 0.25212261E+00 0.53260210E+03</pdfrwt>
<totfact> 0.89452133E+01</totfact>
</mgrwt>
</event>
<event>
 4    1  0.5626910E-005  0.6326473E+03  0.7818608E-02  0.9839896E-01
          2   -1    0    0  501    0  0.00000000000E+00  0.00000000000E+00  0.59908715398E+03  0.59908715399E+03  0.25500000000E-02 0.  1.
         -2   -1    0    0    0  501 -0.00000000000E+00 -0.00000000000E+00 -0.16702188008E+03  0.16702188010E+03  0.25500000000E-02 0. -1.
    5000001    1    1    2    0    0 -0.23641284170E+03  0.71572429498E+02  0.15945333303E+03  0.35114528304E+03  0.19200000000E+03 0.  0.
   -5000001    1    1    2    0    0  0.23641284170E+03 -0.71572429498E+02  0.27261194087E+03  0.41496375105E+03  0.19200000000E+03 0.  0.
<mgrwt>
<rscale>  0 0.63264734E+03</rscale>
<asrwt>0</asrwt>
<pdfrwt beam="1">  1        2 0.85583879E-01 0.63264734E+03</pdfrwt>
<pdfrwt beam="2">  1       -2 0.23860269E-01 0.63264734E+03</pdfrwt>
<totfact> 0.85013962E+02</totfact>
</mgrwt>
</event>
<event>
 4    1  0.5626910E-005  0.6363881E+03  0.7818608E-02  0.9832662E-01
         -2   -1    0    0    0  501 -0.00000000000E+00  0.00000000000E+00  0.14785241068E+03  0.14785241071E+03  0.25500000000E-02 0. -1.
          2   -1    0    0  501    0  0.00000000000E+00 -0.00000000000E+00 -0.68478730588E+03  0.68478730589E+03  0.25500000000E-02 0.  1.
    5000001    1    1    2    0    0  0.11358790008E+03  0.99947401304E+02 -0.19559193374E+01  0.24445760306E+03  0.19200000000E+03 0.  0.
   -5000001    1    1    2    0    0 -0.11358790008E+03 -0.99947401304E+02 -0.53497897586E+03  0.58818211354E+03  0.19200000000E+03 0.  0.
<mgrwt>
<rscale>  0 0.63638810E+03</rscale>
<asrwt>0</asrwt>
<pdfrwt beam="1">  1        2 0.97826756E-01 0.63638810E+03</pdfrwt>
<pdfrwt beam="2">  1       -2 0.21121773E-01 0.63638810E+03</pdfrwt>
<totfact> 0.89881392E+02</totfact>
</mgrwt>
</event>
<event>
 4    1  0.5626910E-005  0.4759253E+03  0.7818608E-02  0.1020261E+00
          2   -1    0    0  501    0  0.00000000000E+00  0.00000000000E+00  0.39533736453E+04  0.39533736453E+04  0.25500000000E-02 0.  1.
         -2   -1    0    0    0  501 -0.00000000000E+00 -0.00000000000E+00 -0.14323520962E+02  0.14323521189E+02  0.25500000000E-02 0. -1.
    5000001    1    1    2    0    0 -0.13782459681E+03 -0.13934052993E+02  0.21689914714E+04  0.21818748315E+04  0.19200000000E+03 0.  0.
   -5000001    1    1    2    0    0  0.13782459681E+03  0.13934052993E+02  0.17700586530E+04  0.17858223350E+04  0.19200000000E+03 0.  0.
<mgrwt>
<rscale>  0 0.47592533E+03</rscale>
<asrwt>0</asrwt>
<pdfrwt beam="1">  1        2 0.56476853E+00 0.47592533E+03</pdfrwt>
<pdfrwt beam="2">  1       -2 0.20462142E-02 0.47592533E+03</pdfrwt>
<totfact> 0.55723593E+02</totfact>
</mgrwt>
</event>
<event>
 4    1  0.5626910E-005  0.6150649E+03  0.7818608E-02  0.9874635E-01
         -2   -1    0    0    0  501 -0.00000000000E+00  0.00000000000E+00  0.63407511840E+02  0.63407511891E+02  0.25500000000E-02 0. -1.
          2   -1    0    0  501    0  0.00000000000E+00 -0.00000000000E+00 -0.14915613710E+04  0.14915613710E+04  0.25500000000E-02 0.  1.
    5000001    1    1    2    0    0 -0.16918784659E+03 -0.16618160731E+03 -0.61710244079E+03  0.68841867819E+03  0.19200000000E+03 0.  0.
   -5000001    1    1    2    0    0  0.16918784659E+03  0.16618160731E+03 -0.81105141838E+03  0.86655020472E+03  0.19200000000E+03 0.  0.
<mgrwt>
<rscale>  0 0.61506486E+03</rscale>
<asrwt>0</asrwt>
<pdfrwt beam="1">  1        2 0.21308018E+00 0.61506486E+03</pdfrwt>
<pdfrwt beam="2">  1       -2 0.90582169E-02 0.61506486E+03</pdfrwt>
<totfact> 0.12069024E+03</totfact>
</mgrwt>
</event>
<event>
 4    1  0.5626910E-005  0.3935381E+03  0.7818608E-02  0.1046040E+00
          2   -1    0    0  501    0  0.00000000000E+00  0.00000000000E+00  0.17240637374E+04  0.17240637374E+04  0.25500000000E-02 0.  1.
         -2   -1    0    0    0  501 -0.00000000000E+00 -0.00000000000E+00 -0.22457444183E+02  0.22457444327E+02  0.25500000000E-02 0. -1.
    5000001    1    1    2    0    0 -0.73136281795E+01 -0.35218802474E+02  0.95584521605E+03  0.97560131727E+03  0.19200000000E+03 0.  0.
   -5000001    1    1    2    0    0  0.73136281795E+01  0.35218802474E+02  0.74576107713E+03  0.77091986442E+03  0.19200000000E+03 0.  0.
<mgrwt>
<rscale>  0 0.39353813E+03</rscale>
<asrwt>0</asrwt>
<pdfrwt beam="1">  1        2 0.24629479E+00 0.39353813E+03</pdfrwt>
<pdfrwt beam="2">  1       -2 0.32082068E-02 0.39353813E+03</pdfrwt>
<totfact> 0.46260390E+03</totfact>
</mgrwt>
</event>
<event>
 4    1  0.5626910E-005  0.5832592E+03  0.7818608E-02  0.9940760E-01
          2   -1    0    0  501    0  0.00000000000E+00  0.00000000000E+00  0.63860562701E+03  0.63860562702E+03  0.25500000000E-02 0.  1.
         -2   -1    0    0    0  501 -0.00000000000E+00 -0.00000000000E+00 -0.13317737001E+03  0.13317737003E+03  0.25500000000E-02 0. -1.
    5000001    1    1    2    0    0  0.95144835429E+02  0.19603247904E+03  0.28778695791E+03  0.40886012974E+03  0.19200000000E+03 0.  0.
   -5000001    1    1    2    0    0 -0.95144835429E+02 -0.19603247904E+03  0.21764129909E+03  0.36292286731E+03  0.19200000000E+03 0.  0.
<mgrwt>
<rscale>  0 0.58325918E+03</rscale>
<asrwt>0</asrwt>
<pdfrwt beam="1">  1        2 0.91229376E-01 0.58325918E+03</pdfrwt>
<pdfrwt beam="2">  1       -2 0.19025338E-01 0.58325918E+03</pdfrwt>
<totfact> 0.11740839E+03</totfact>
</mgrwt>
</event>
<event>
 4    1  0.5626910E-005  0.5709896E+03  0.7818608E-02  0.9967491E-01
          2   -1    0    0  501    0  0.00000000000E+00  0.00000000000E+00  0.29850394395E+03  0.29850394396E+03  0.25500000000E-02 0.  1.
         -2   -1    0    0    0  501 -0.00000000000E+00 -0.00000000000E+00 -0.27305262949E+03  0.27305262951E+03  0.25500000000E-02 0. -1.
    5000001    1    1    2    0    0 -0.12314144913E+03  0.38994515589E+02 -0.15464951439E+03  0.27832509955E+03  0.19200000000E+03 0.  0.
   -5000001    1    1    2    0    0  0.12314144913E+03 -0.38994515589E+02  0.18010082884E+03  0.29323147391E+03  0.19200000000E+03 0.  0.
<mgrwt>
<rscale>  0 0.57098962E+03</rscale>
<asrwt>0</asrwt>
<pdfrwt beam="1">  1        2 0.42643421E-01 0.57098962E+03</pdfrwt>
<pdfrwt beam="2">  1       -2 0.39007518E-01 0.57098962E+03</pdfrwt>
<totfact> 0.74862297E+02</totfact>
</mgrwt>
</event>
<event>
 4    1  0.5626910E-005  0.6760359E+03  0.7818608E-02  0.9759115E-01
         -2   -1    0    0    0  501 -0.00000000000E+00  0.00000000000E+00  0.40900514917E+03  0.40900514918E+03  0.25500000000E-02 0. -1.
          2   -1    0    0  501    0  0.00000000000E+00 -0.00000000000E+00 -0.27935133351E+03  0.27935133353E+03  0.25500000000E-02 0.  1.
    5000001    1    1    2    0    0  0.27407903099E+03 -0.47163460296E+02  0.57741158771E+02  0.34284362125E+03  0.19200000000E+03 0.  0.
   -5000001    1    1    2    0    0 -0.27407903099E+03  0.47163460296E+02  0.71912656889E+02  0.34551286146E+03  0.19200000000E+03 0.  0.
<mgrwt>
<rscale>  0 0.67603590E+03</rscale>
<asrwt>0</asrwt>
<pdfrwt beam="1">  1        2 0.39907333E-01 0.67603590E+03</pdfrwt>
<pdfrwt beam="2">  1       -2 0.58429307E-01 0.67603590E+03</pdfrwt>
<totfact> 0.35686500E+02</totfact>
</mgrwt>
</event>
<event>
 4    1  0.5626910E-005  0.9577978E+03  0.7818608E-02  0.9356082E-01
         -2   -1    0    0    0  501 -0.00000000000E+00  0.00000000000E+00  0.38483777471E+03  0.38483777472E+03  0.25500000000E-02 0. -1.
          2   -1    0    0  501    0  0.00000000000E+00 -0.00000000000E+00 -0.59595020470E+03  0.59595020471E+03  0.25500000000E-02 0.  1.
    5000001    1    1    2    0    0  0.36011406270E+03 -0.18020674960E+03 -0.28387260110E+03  0.52877619501E+03  0.19200000000E+03 0.  0.
   -5000001    1    1    2    0    0 -0.36011406270E+03  0.18020674960E+03  0.72760171099E+02  0.45201178442E+03  0.19200000000E+03 0.  0.
<mgrwt>
<rscale>  0 0.95779779E+03</rscale>
<asrwt>0</asrwt>
<pdfrwt beam="1">  1        2 0.85135743E-01 0.95779779E+03</pdfrwt>
<pdfrwt beam="2">  1       -2 0.54976825E-01 0.95779779E+03</pdfrwt>
<totfact> 0.17032318E+02</totfact>
</mgrwt>
</event>
<event>
 4    1  0.5626910E-005  0.4048637E+03  0.7818608E-02  0.1042108E+00
          2   -1    0    0  501    0  0.00000000000E+00  0.00000000000E+00  0.80309959610E+03  0.80309959610E+03  0.25500000000E-02 0.  1.
         -2   -1    0    0    0  501 -0.00000000000E+00 -0.00000000000E+00 -0.51025609718E+02  0.51025609782E+02  0.25500000000E-02 0. -1.
    5000001    1    1    2    0    0 -0.28900010261E+02  0.52324857716E+02  0.32694280136E+03  0.38383420469E+03  0.19200000000E+03 0.  0.
   -5000001    1    1    2    0    0  0.28900010261E+02 -0.52324857716E+02  0.42513118502E+03  0.47029100120E+03  0.19200000000E+03 0.  0.
<mgrwt>
<rscale>  0 0.40486366E+03</rscale>
<asrwt>0</asrwt>
<pdfrwt beam="1">  1        2 0.11472850E+00 0.40486366E+03</pdfrwt>
<pdfrwt beam="2">  1       -2 0.72893735E-02 0.40486366E+03</pdfrwt>
<totfact> 0.42710523E+03</totfact>
</mgrwt>
</event>
<event>
 4    1  0.5626910E-005  0.7496826E+03  0.7818608E-02  0.9635848E-01
         -2   -1    0    0    0  501 -0.00000000000E+00  0.00000000000E+00  0.33800185066E+03  0.33800185067E+03  0.25500000000E-02 0. -1.
          2   -1    0    0  501    0  0.00000000000E+00 -0.00000000000E+00 -0.41569597182E+03  0.41569597183E+03  0.25500000000E-02 0.  1.
    5000001    1    1    2    0    0 -0.25611788118E+03  0.19505020343E+03 -0.37813509775E+02  0.37674236879E+03  0.19200000000E+03 0.  0.
   -5000001    1    1    2    0    0  0.25611788118E+03 -0.19505020343E+03 -0.39880611382E+02  0.37695545371E+03  0.19200000000E+03 0.  0.
<mgrwt>
<rscale>  0 0.74968262E+03</rscale>
<asrwt>0</asrwt>
<pdfrwt beam="1">  1        2 0.59385139E-01 0.74968262E+03</pdfrwt>
<pdfrwt beam="2">  1       -2 0.48285979E-01 0.74968262E+03</pdfrwt>
<totfact> 0.33891621E+02</totfact>
</mgrwt>
</event>
<event>
 4    1  0.5626910E-005  0.1529258E+04  0.7818608E-02  0.8865226E-01
          2   -1    0    0  501    0  0.00000000000E+00  0.00000000000E+00  0.22974947188E+04  0.22974947188E+04  0.25500000000E-02 0.  1.
         -2   -1    0    0    0  501 -0.00000000000E+00 -0.00000000000E+00 -0.25447623888E+03  0.25447623889E+03  0.25500000000E-02 0. -1.
    5000001    1    1    2    0    0 -0.10205712504E+02  0.57378374901E+03  0.18014878154E+04  0.19004089813E+04  0.19200000000E+03 0.  0.
   -5000001    1    1    2    0    0  0.10205712504E+02 -0.57378374901E+03  0.24153066454E+03  0.65156197641E+03  0.19200000000E+03 0.  0.
<mgrwt>
<rscale>  0 0.15292584E+04</rscale>
<asrwt>0</asrwt>
<pdfrwt beam="1">  1        2 0.32821356E+00 0.15292584E+04</pdfrwt>
<pdfrwt beam="2">  1       -2 0.36353745E-01 0.15292584E+04</pdfrwt>
<totfact> 0.38731288E+01</totfact>
</mgrwt>
</event>
<event>
 4    1  0.5626910E-005  0.4160230E+03  0.7818608E-02  0.1038369E+00
          2   -1    0    0  501    0  0.00000000000E+00  0.00000000000E+00  0.11595312945E+04  0.11595312945E+04  0.25500000000E-02 0.  1.
         -2   -1    0    0    0  501 -0.00000000000E+00 -0.00000000000E+00 -0.37315750634E+02  0.37315750721E+02  0.25500000000E-02 0. -1.
    5000001    1    1    2    0    0  0.41318256197E+02  0.49275420011E+02  0.69816056572E+03  0.72693014853E+03  0.19200000000E+03 0.  0.
   -5000001    1    1    2    0    0 -0.41318256197E+02 -0.49275420011E+02  0.42405497817E+03  0.46991689672E+03  0.19200000000E+03 0.  0.
<mgrwt>
<rscale>  0 0.41602298E+03</rscale>
<asrwt>0</asrwt>
<pdfrwt beam="1">  1        2 0.16564734E+00 0.41602298E+03</pdfrwt>
<pdfrwt beam="2">  1       -2 0.53308213E-02 0.41602298E+03</pdfrwt>
<totfact> 0.42086268E+03</totfact>
</mgrwt>
</event>
<event>
 4    1  0.5626910E-005  0.8709169E+03  0.7818608E-02  0.9462685E-01
          2   -1    0    0  501    0  0.00000000000E+00  0.00000000000E+00  0.15427197127E+04  0.15427197127E+04  0.25500000000E-02 0.  1.
         -2   -1    0    0    0  501 -0.00000000000E+00 -0.00000000000E+00 -0.12291542548E+03  0.12291542550E+03  0.25500000000E-02 0. -1.
    5000001    1    1    2    0    0  0.21071521893E+03  0.32002610593E+03  0.85733201848E+03  0.95848828990E+03  0.19200000000E+03 0.  0.
   -5000001    1    1    2    0    0 -0.21071521893E+03 -0.32002610593E+03  0.56247226875E+03  0.70714684831E+03  0.19200000000E+03 0.  0.
<mgrwt>
<rscale>  0 0.87091687E+03</rscale>
<asrwt>0</asrwt>
<pdfrwt beam="1">  1        2 0.22038853E+00 0.87091687E+03</pdfrwt>
<pdfrwt beam="2">  1       -2 0.17559346E-01 0.87091687E+03</pdfrwt>
<totfact> 0.37291282E+02</totfact>
</mgrwt>
</event>
<event>
 4    1  0.5626910E-005  0.6314070E+03  0.7818608E-02  0.9842307E-01
          2   -1    0    0  501    0  0.00000000000E+00  0.00000000000E+00  0.10401852661E+03  0.10401852664E+03  0.25500000000E-02 0.  1.
         -2   -1    0    0    0  501 -0.00000000000E+00 -0.00000000000E+00 -0.95818208574E+03  0.95818208574E+03  0.25500000000E-02 0. -1.
    5000001    1    1    2    0    0 -0.57654191949E+02 -0.22408346698E+03 -0.58902895839E+03  0.66132935807E+03  0.19200000000E+03 0.  0.
   -5000001    1    1    2    0    0  0.57654191949E+02  0.22408346698E+03 -0.26513460074E+03  0.40087125431E+03  0.19200000000E+03 0.  0.
<mgrwt>
<rscale>  0 0.63140696E+03</rscale>
<asrwt>0</asrwt>
<pdfrwt beam="1">  1        2 0.14859790E-01 0.63140696E+03</pdfrwt>
<pdfrwt beam="2">  1       -2 0.13688315E+00 0.63140696E+03</pdfrwt>
<totfact> 0.15661519E+02</totfact>
</mgrwt>
</event>
<event>
 4    1  0.5626910E-005  0.1209425E+04  0.7818608E-02  0.9104647E-01
         -2   -1    0    0    0  501 -0.00000000000E+00  0.00000000000E+00  0.13865176445E+03  0.13865176448E+03  0.25500000000E-02 0. -1.
          2   -1    0    0  501    0  0.00000000000E+00 -0.00000000000E+00 -0.26373785580E+04  0.26373785580E+04  0.25500000000E-02 0.  1.
    5000001    1    1    2    0    0  0.21350897047E+03  0.48147473644E+03 -0.17697973803E+04  0.18564618956E+04  0.19200000000E+03 0.  0.
   -5000001    1    1    2    0    0 -0.21350897047E+03 -0.48147473644E+03 -0.72892941322E+03  0.91956842690E+03  0.19200000000E+03 0.  0.
<mgrwt>
<rscale>  0 0.12094250E+04</rscale>
<asrwt>0</asrwt>
<pdfrwt beam="1">  1        2 0.37676833E+00 0.12094250E+04</pdfrwt>
<pdfrwt beam="2">  1       -2 0.19807397E-01 0.12094250E+04</pdfrwt>
<totfact> 0.80377881E+01</totfact>
</mgrwt>
</event>
<event>
 4    1  0.5626910E-005  0.5086058E+03  0.7818608E-02  0.1011557E+00
         -2   -1    0    0    0  501 -0.00000000000E+00  0.00000000000E+00  0.29306798181E+02  0.29306798292E+02  0.25500000000E-02 0. -1.
          2   -1    0    0  501    0  0.00000000000E+00 -0.00000000000E+00 -0.22066537776E+04  0.22066537776E+04  0.25500000000E-02 0.  1.
    5000001    1    1    2    0    0  0.84489646932E+02 -0.93389541094E+02 -0.60817570195E+03  0.65007829625E+03  0.19200000000E+03 0.  0.
   -5000001    1    1    2    0    0 -0.84489646932E+02  0.93389541094E+02 -0.15691712774E+04  0.15858822796E+04  0.19200000000E+03 0.  0.
<mgrwt>
<rscale>  0 0.50860577E+03</rscale>
<asrwt>0</asrwt>
<pdfrwt beam="1">  1        2 0.31523615E+00 0.50860577E+03</pdfrwt>
<pdfrwt beam="2">  1       -2 0.41866869E-02 0.50860577E+03</pdfrwt>
<totfact> 0.17685440E+03</totfact>
</mgrwt>
</event>
<event>
 4    1  0.5626910E-005  0.5031927E+03  0.7818608E-02  0.1012949E+00
         -2   -1    0    0    0  501 -0.00000000000E+00  0.00000000000E+00  0.94405151009E+02  0.94405151043E+02  0.25500000000E-02 0. -1.
          2   -1    0    0  501    0  0.00000000000E+00 -0.00000000000E+00 -0.67052188256E+03  0.67052188256E+03  0.25500000000E-02 0.  1.
    5000001    1    1    2    0    0  0.15689359397E+03  0.25287995855E+02 -0.34031335190E+03  0.42182017501E+03  0.19200000000E+03 0.  0.
   -5000001    1    1    2    0    0 -0.15689359397E+03 -0.25287995855E+02 -0.23580337965E+03  0.34310685860E+03  0.19200000000E+03 0.  0.
<mgrwt>
<rscale>  0 0.50319269E+03</rscale>
<asrwt>0</asrwt>
<pdfrwt beam="1">  1        2 0.95788837E-01 0.50319269E+03</pdfrwt>
<pdfrwt beam="2">  1       -2 0.13486451E-01 0.50319269E+03</pdfrwt>
<totfact> 0.19831969E+03</totfact>
</mgrwt>
</event>
<event>
 4    1  0.5626910E-005  0.5323189E+03  0.7818608E-02  0.1005671E+00
         -2   -1    0    0    0  501 -0.00000000000E+00  0.00000000000E+00  0.54906514044E+03  0.54906514045E+03  0.25500000000E-02 0. -1.
          2   -1    0    0  501    0  0.00000000000E+00 -0.00000000000E+00 -0.12902086814E+03  0.12902086816E+03  0.25500000000E-02 0.  1.
    5000001    1    1    2    0    0  0.76948092334E+02  0.16607303419E+03  0.18224205144E+03  0.32183447129E+03  0.19200000000E+03 0.  0.
   -5000001    1    1    2    0    0 -0.76948092334E+02 -0.16607303419E+03  0.23780222086E+03  0.35625153732E+03  0.19200000000E+03 0.  0.
<mgrwt>
<rscale>  0 0.53231893E+03</rscale>
<asrwt>0</asrwt>
<pdfrwt beam="1">  1        2 0.18431553E-01 0.53231893E+03</pdfrwt>
<pdfrwt beam="2">  1       -2 0.78437876E-01 0.53231893E+03</pdfrwt>
<totfact> 0.45639953E+02</totfact>
</mgrwt>
</event>
<event>
 4    1  0.5626910E-005  0.1105515E+04  0.7818608E-02  0.9199833E-01
          2   -1    0    0  501    0  0.00000000000E+00  0.00000000000E+00  0.26889296016E+04  0.26889296016E+04  0.25500000000E-02 0.  1.
         -2   -1    0    0    0  501 -0.00000000000E+00 -0.00000000000E+00 -0.11362918908E+03  0.11362918911E+03  0.25500000000E-02 0. -1.
    5000001    1    1    2    0    0  0.48221813084E+03  0.15326199201E+03  0.15728127101E+04  0.16633181851E+04  0.19200000000E+03 0.  0.
   -5000001    1    1    2    0    0 -0.48221813084E+03 -0.15326199201E+03  0.10024877024E+04  0.11392406056E+04  0.19200000000E+03 0.  0.
<mgrwt>
<rscale>  0 0.11055151E+04</rscale>
<asrwt>0</asrwt>
<pdfrwt beam="1">  1        2 0.38413283E+00 0.11055151E+04</pdfrwt>
<pdfrwt beam="2">  1       -2 0.16232740E-01 0.11055151E+04</pdfrwt>
<totfact> 0.10750837E+02</totfact>
</mgrwt>
</event>
<event>
 4    1  0.5626910E-005  0.4151305E+03  0.7818608E-02  0.1038663E+00
          2   -1    0    0  501    0  0.00000000000E+00  0.00000000000E+00  0.18954332148E+04  0.18954332148E+04  0.25500000000E-02 0.  1.
         -2   -1    0    0    0  501 -0.00000000000E+00 -0.00000000000E+00 -0.22730076685E+02  0.22730076828E+02  0.25500000000E-02 0. -1.
    5000001    1    1    2    0    0 -0.76069078774E+02 -0.13516444441E+02  0.86327208879E+03  0.88773413717E+03  0.19200000000E+03 0.  0.
   -5000001    1    1    2    0    0  0.76069078774E+02  0.13516444441E+02  0.10094310493E+04  0.10304291545E+04  0.19200000000E+03 0.  0.
<mgrwt>
<rscale>  0 0.41513055E+03</rscale>
<asrwt>0</asrwt>
<pdfrwt beam="1">  1        2 0.27077611E+00 0.41513055E+03</pdfrwt>
<pdfrwt beam="2">  1       -2 0.32471546E-02 0.41513055E+03</pdfrwt>
<totfact> 0.37321715E+03</totfact>
</mgrwt>
</event>
<event>
 4    1  0.5626910E-005  0.4898417E+03  0.7818608E-02  0.1016465E+00
          2   -1    0    0  501    0  0.00000000000E+00  0.00000000000E+00  0.36098381460E+03  0.36098381461E+03  0.25500000000E-02 0.  1.
         -2   -1    0    0    0  501 -0.00000000000E+00 -0.00000000000E+00 -0.16617424058E+03  0.16617424060E+03  0.25500000000E-02 0. -1.
    5000001    1    1    2    0    0 -0.42408443233E+02 -0.14598495202E+03  0.10115276804E+03  0.26496408201E+03  0.19200000000E+03 0.  0.
   -5000001    1    1    2    0    0  0.42408443233E+02  0.14598495202E+03  0.93656805979E+02  0.26219397320E+03  0.19200000000E+03 0.  0.
<mgrwt>
<rscale>  0 0.48984165E+03</rscale>
<asrwt>0</asrwt>
<pdfrwt beam="1">  1        2 0.51569116E-01 0.48984165E+03</pdfrwt>
<pdfrwt beam="2">  1       -2 0.23739177E-01 0.48984165E+03</pdfrwt>
<totfact> 0.15212937E+03</totfact>
</mgrwt>
</event>
<event>
 4    1  0.5626910E-005  0.5658968E+03  0.7818608E-02  0.9978800E-01
         -2   -1    0    0    0  501 -0.00000000000E+00  0.00000000000E+00  0.62975624857E+02  0.62975624909E+02  0.25500000000E-02 0. -1.
          2   -1    0    0  501    0  0.00000000000E+00 -0.00000000000E+00 -0.12712822053E+04  0.12712822053E+04  0.25500000000E-02 0.  1.
    5000001    1    1    2    0    0 -0.18961737457E+03 -0.15283483203E+02 -0.40678254549E+03  0.48838957085E+03  0.19200000000E+03 0.  0.
   -5000001    1    1    2    0    0  0.18961737457E+03  0.15283483203E+02 -0.80152403495E+03  0.84586825937E+03  0.19200000000E+03 0.  0.
<mgrwt>
<rscale>  0 0.56589678E+03</rscale>
<asrwt>0</asrwt>
<pdfrwt beam="1">  1        2 0.18161173E+00 0.56589678E+03</pdfrwt>
<pdfrwt beam="2">  1       -2 0.89965186E-02 0.56589678E+03</pdfrwt>
<totfact> 0.16018463E+03</totfact>
</mgrwt>
</event>
<event>
 4    1  0.5626910E-005  0.7124166E+03  0.7818608E-02  0.9696231E-01
          2   -1    0    0  501    0  0.00000000000E+00  0.00000000000E+00  0.73189248008E+03  0.73189248008E+03  0.25500000000E-02 0.  1.
         -2   -1    0    0    0  501 -0.00000000000E+00 -0.00000000000E+00 -0.17336476895E+03  0.17336476897E+03  0.25500000000E-02 0. -1.
    5000001    1    1    2    0    0 -0.28896880355E+03  0.54051920567E+02  0.20306732776E+03  0.40561671458E+03  0.19200000000E+03 0.  0.
   -5000001    1    1    2    0    0  0.28896880355E+03 -0.54051920567E+02  0.35546038337E+03  0.49964053447E+03  0.19200000000E+03 0.  0.
<mgrwt>
<rscale>  0 0.71241665E+03</rscale>
<asrwt>0</asrwt>
<pdfrwt beam="1">  1        2 0.10455607E+00 0.71241665E+03</pdfrwt>
<pdfrwt beam="2">  1       -2 0.24766395E-01 0.71241665E+03</pdfrwt>
<totfact> 0.62289085E+02</totfact>
</mgrwt>
</event>
<event>
 4    1  0.5626910E-005  0.7460190E+03  0.7818608E-02  0.9641617E-01
         -2   -1    0    0    0  501 -0.00000000000E+00  0.00000000000E+00  0.15239331766E+03  0.15239331768E+03  0.25500000000E-02 0. -1.
          2   -1    0    0  501    0  0.00000000000E+00 -0.00000000000E+00 -0.91300651042E+03  0.91300651042E+03  0.25500000000E-02 0.  1.
    5000001    1    1    2    0    0  0.27339456052E+03 -0.14123532181E+02 -0.61639078439E+03  0.70124579070E+03  0.19200000000E+03 0.  0.
   -5000001    1    1    2    0    0 -0.27339456052E+03  0.14123532181E+02 -0.14422240836E+03  0.36415403741E+03  0.19200000000E+03 0.  0.
<mgrwt>
<rscale>  0 0.74601901E+03</rscale>
<asrwt>0</asrwt>
<pdfrwt beam="1">  1        2 0.13042950E+00 0.74601901E+03</pdfrwt>
<pdfrwt beam="2">  1       -2 0.21770475E-01 0.74601901E+03</pdfrwt>
<totfact> 0.58771981E+02</totfact>
</mgrwt>
</event>
<event>
 4    1  0.5626910E-005  0.5320367E+03  0.7818608E-02  0.1005739E+00
         -2   -1    0    0    0  501 -0.00000000000E+00  0.00000000000E+00  0.30783194550E+02  0.30783194655E+02  0.25500000000E-02 0. -1.
          2   -1    0    0  501    0  0.00000000000E+00 -0.00000000000E+00 -0.22988438074E+04  0.22988438074E+04  0.25500000000E-02 0.  1.
    5000001    1    1    2    0    0  0.14461492163E+03 -0.87693408577E+02 -0.81531214298E+03  0.85451828533E+03  0.19200000000E+03 0.  0.
   -5000001    1    1    2    0    0 -0.14461492163E+03  0.87693408577E+02 -0.14527484699E+04  0.14751087168E+04  0.19200000000E+03 0.  0.
<mgrwt>
<rscale>  0 0.53203668E+03</rscale>
<asrwt>0</asrwt>
<pdfrwt beam="1">  1        2 0.32840615E+00 0.53203668E+03</pdfrwt>
<pdfrwt beam="2">  1       -2 0.43976007E-02 0.53203668E+03</pdfrwt>
<totfact> 0.14721293E+03</totfact>
</mgrwt>
</event>
<event>
 4    1  0.5626910E-005  0.4925235E+03  0.7818608E-02  0.1015749E+00
          2   -1    0    0  501    0  0.00000000000E+00  0.00000000000E+00  0.11459844676E+04  0.11459844676E+04  0.25500000000E-02 0.  1.
         -2   -1    0    0    0  501 -0.00000000000E+00 -0.00000000000E+00 -0.52919428883E+02  0.52919428945E+02  0.25500000000E-02 0. -1.
    5000001    1    1    2    0    0 -0.87481080432E+02  0.12646992595E+03  0.57463279295E+03  0.62507153857E+03  0.19200000000E+03 0.  0.
   -5000001    1    1    2    0    0  0.87481080432E+02 -0.12646992595E+03  0.51843224577E+03  0.57383235797E+03  0.19200000000E+03 0.  0.
<mgrwt>
<rscale>  0 0.49252348E+03</rscale>
<asrwt>0</asrwt>
<pdfrwt beam="1">  1        2 0.16371207E+00 0.49252348E+03</pdfrwt>
<pdfrwt beam="2">  1       -2 0.75599183E-02 0.49252348E+03</pdfrwt>
<totfact> 0.24840950E+03</totfact>
</mgrwt>
</event>
<event>
 4    1  0.5626910E-005  0.6215968E+03  0.7818608E-02  0.9861586E-01
          2   -1    0    0  501    0  0.00000000000E+00  0.00000000000E+00  0.13642085857E+04  0.13642085857E+04  0.25500000000E-02 0.  1.
         -2   -1    0    0    0  501 -0.00000000000E+00 -0.00000000000E+00 -0.70807104762E+02  0.70807104808E+02  0.25500000000E-02 0. -1.
    5000001    1    1    2    0    0  0.20260985656E+03 -0.80617242801E+02  0.39189865336E+03  0.48785084639E+03  0.19200000000E+03 0.  0.
   -5000001    1    1    2    0    0 -0.20260985656E+03  0.80617242801E+02  0.90150282755E+03  0.94716484410E+03  0.19200000000E+03 0.  0.
<mgrwt>
<rscale>  0 0.62159685E+03</rscale>
<asrwt>0</asrwt>
<pdfrwt beam="1">  1        2 0.19488693E+00 0.62159685E+03</pdfrwt>
<pdfrwt beam="2">  1       -2 0.10115301E-01 0.62159685E+03</pdfrwt>
<totfact> 0.11787793E+03</totfact>
</mgrwt>
</event>
<event>
 4    1  0.5626910E-005  0.4292583E+03  0.7818608E-02  0.1034095E+00
          2   -1    0    0  501    0  0.00000000000E+00  0.00000000000E+00  0.70739142011E+03  0.70739142011E+03  0.25500000000E-02 0.  1.
         -2   -1    0    0    0  501 -0.00000000000E+00 -0.00000000000E+00 -0.65120489171E+02  0.65120489221E+02  0.25500000000E-02 0. -1.
    5000001    1    1    2    0    0  0.92804506310E+02  0.16273413602E+02  0.35353779199E+03  0.41319543893E+03  0.19200000000E+03 0.  0.
   -5000001    1    1    2    0    0 -0.92804506310E+02 -0.16273413602E+02  0.28873313894E+03  0.35931647041E+03  0.19200000000E+03 0.  0.
<mgrwt>
<rscale>  0 0.42925832E+03</rscale>
<asrwt>0</asrwt>
<pdfrwt beam="1">  1        2 0.10105591E+00 0.42925832E+03</pdfrwt>
<pdfrwt beam="2">  1       -2 0.93029274E-02 0.42925832E+03</pdfrwt>
<totfact> 0.33980493E+03</totfact>
</mgrwt>
</event>
<event>
 4    1  0.5626910E-005  0.6591909E+03  0.7818608E-02  0.9789684E-01
         -2   -1    0    0    0  501 -0.00000000000E+00  0.00000000000E+00  0.75977545095E+02  0.75977545138E+02  0.25500000000E-02 0. -1.
          2   -1    0    0  501    0  0.00000000000E+00 -0.00000000000E+00 -0.14298062871E+04  0.14298062871E+04  0.25500000000E-02 0.  1.
    5000001    1    1    2    0    0  0.71893038110E+02 -0.20251098793E+03 -0.31150020406E+03  0.42435325649E+03  0.19200000000E+03 0.  0.
   -5000001    1    1    2    0    0 -0.71893038110E+02  0.20251098793E+03 -0.10423285379E+04  0.10814305757E+04  0.19200000000E+03 0.  0.
<mgrwt>
<rscale>  0 0.65919093E+03</rscale>
<asrwt>0</asrwt>
<pdfrwt beam="1">  1        2 0.20425802E+00 0.65919093E+03</pdfrwt>
<pdfrwt beam="2">  1       -2 0.10853936E-01 0.65919093E+03</pdfrwt>
<totfact> 0.96831104E+02</totfact>
</mgrwt>
</event>
<event>
 4    1  0.5626910E-005  0.6512772E+03  0.7818608E-02  0.9804386E-01
          2   -1    0    0  501    0  0.00000000000E+00  0.00000000000E+00  0.10569450183E+04  0.10569450183E+04  0.25500000000E-02 0.  1.
         -2   -1    0    0    0  501 -0.00000000000E+00 -0.00000000000E+00 -0.10032735992E+03  0.10032735995E+03  0.25500000000E-02 0. -1.
    5000001    1    1    2    0    0  0.73346172846E+02 -0.57006743398E+02  0.41072459508E+02  0.21721044357E+03  0.19200000000E+03 0.  0.
   -5000001    1    1    2    0    0 -0.73346172846E+02  0.57006743398E+02  0.91554519883E+03  0.94006193465E+03  0.19200000000E+03 0.  0.
<mgrwt>
<rscale>  0 0.65127722E+03</rscale>
<asrwt>0</asrwt>
<pdfrwt beam="1">  1        2 0.15099214E+00 0.65127722E+03</pdfrwt>
<pdfrwt beam="2">  1       -2 0.14332481E-01 0.65127722E+03</pdfrwt>
<totfact> 0.98607554E+02</totfact>
</mgrwt>
</event>
<event>
 4    1  0.5626910E-005  0.4727933E+03  0.7818608E-02  0.1021135E+00
          2   -1    0    0  501    0  0.00000000000E+00  0.00000000000E+00  0.63950943167E+02  0.63950943218E+02  0.25500000000E-02 0.  1.
         -2   -1    0    0    0  501 -0.00000000000E+00 -0.00000000000E+00 -0.87384773703E+03  0.87384773704E+03  0.25500000000E-02 0. -1.
    5000001    1    1    2    0    0  0.68456115314E+02 -0.11657275667E+03 -0.35084716921E+03  0.42217672066E+03  0.19200000000E+03 0.  0.
   -5000001    1    1    2    0    0 -0.68456115314E+02  0.11657275667E+03 -0.45904962466E+03  0.51562195960E+03  0.19200000000E+03 0.  0.
<mgrwt>
<rscale>  0 0.47279335E+03</rscale>
<asrwt>0</asrwt>
<pdfrwt beam="1">  1        2 0.91358495E-02 0.47279335E+03</pdfrwt>
<pdfrwt beam="2">  1       -2 0.12483538E+00 0.47279335E+03</pdfrwt>
<totfact> 0.36337190E+02</totfact>
</mgrwt>
</event>
<event>
 4    1  0.5626910E-005  0.6288833E+03  0.7818608E-02  0.9847230E-01
          2   -1    0    0  501    0  0.00000000000E+00  0.00000000000E+00  0.13243578523E+04  0.13243578523E+04  0.25500000000E-02 0.  1.
         -2   -1    0    0    0  501 -0.00000000000E+00 -0.00000000000E+00 -0.74657727666E+02  0.74657727710E+02  0.25500000000E-02 0. -1.
    5000001    1    1    2    0    0 -0.72606406028E+02  0.22638269117E+03  0.78966198343E+03  0.84672950884E+03  0.19200000000E+03 0.  0.
   -5000001    1    1    2    0    0  0.72606406028E+02 -0.22638269117E+03  0.46003814122E+03  0.55228607120E+03  0.19200000000E+03 0.  0.
<mgrwt>
<rscale>  0 0.62888329E+03</rscale>
<asrwt>0</asrwt>
<pdfrwt beam="1">  1        2 0.18919397E+00 0.62888329E+03</pdfrwt>
<pdfrwt beam="2">  1       -2 0.10665390E-01 0.62888329E+03</pdfrwt>
<totfact> 0.11359646E+03</totfact>
</mgrwt>
</event>
<event>
 4    1  0.5626910E-005  0.5682821E+03  0.7818608E-02  0.9973487E-01
          2   -1    0    0  501    0  0.00000000000E+00  0.00000000000E+00  0.57027970445E+03  0.57027970445E+03  0.25500000000E-02 0.  1.
         -2   -1    0    0    0  501 -0.00000000000E+00 -0.00000000000E+00 -0.14157289225E+03  0.14157289228E+03  0.25500000000E-02 0. -1.
    5000001    1    1    2    0    0  0.17718864803E+03  0.11239130922E+02  0.35355998465E+03  0.43976220597E+03  0.19200000000E+03 0.  0.
   -5000001    1    1    2    0    0 -0.17718864803E+03 -0.11239130922E+02  0.75146827544E+02  0.27209039076E+03  0.19200000000E+03 0.  0.
<mgrwt>
<rscale>  0 0.56828214E+03</rscale>
<asrwt>0</asrwt>
<pdfrwt beam="1">  1        2 0.81468529E-01 0.56828214E+03</pdfrwt>
<pdfrwt beam="2">  1       -2 0.20224699E-01 0.56828214E+03</pdfrwt>
<totfact> 0.12064150E+03</totfact>
</mgrwt>
</event>
<event>
 4    1  0.5626910E-005  0.4783707E+03  0.7818608E-02  0.1019584E+00
         -2   -1    0    0    0  501 -0.00000000000E+00  0.00000000000E+00  0.77263322057E+03  0.77263322057E+03  0.25500000000E-02 0. -1.
          2   -1    0    0  501    0  0.00000000000E+00 -0.00000000000E+00 -0.74044994831E+02  0.74044994875E+02  0.25500000000E-02 0.  1.
    5000001    1    1    2    0    0  0.11310722165E+03  0.74072850672E+02  0.26885336046E+03  0.35696801009E+03  0.19200000000E+03 0.  0.
   -5000001    1    1    2    0    0 -0.11310722165E+03 -0.74072850672E+02  0.42973486528E+03  0.48971020536E+03  0.19200000000E+03 0.  0.
<mgrwt>
<rscale>  0 0.47837066E+03</rscale>
<asrwt>0</asrwt>
<pdfrwt beam="1">  1        2 0.10577856E-01 0.47837066E+03</pdfrwt>
<pdfrwt beam="2">  1       -2 0.11037617E+00 0.47837066E+03</pdfrwt>
<totfact> 0.40760349E+02</totfact>
</mgrwt>
</event>
<event>
 4    1  0.5626910E-005  0.4111617E+03  0.7818608E-02  0.1039982E+00
         -2   -1    0    0    0  501 -0.00000000000E+00  0.00000000000E+00  0.12754925177E+02  0.12754925432E+02  0.25500000000E-02 0. -1.
          2   -1    0    0  501    0  0.00000000000E+00 -0.00000000000E+00 -0.33135029875E+04  0.33135029875E+04  0.25500000000E-02 0.  1.
    5000001    1    1    2    0    0 -0.41233647666E+01  0.73330902763E+02 -0.16321768412E+04  0.16450713251E+04  0.19200000000E+03 0.  0.
   -5000001    1    1    2    0    0  0.41233647666E+01 -0.73330902763E+02 -0.16685712211E+04  0.16811865879E+04  0.19200000000E+03 0.  0.
<mgrwt>
<rscale>  0 0.41116169E+03</rscale>
<asrwt>0</asrwt>
<pdfrwt beam="1">  1        2 0.47335702E+00 0.41116169E+03</pdfrwt>
<pdfrwt beam="2">  1       -2 0.18221343E-02 0.41116169E+03</pdfrwt>
<totfact> 0.16336068E+03</totfact>
</mgrwt>
</event>
<event>
 4    1  0.5626910E-005  0.4388679E+03  0.7818608E-02  0.1031095E+00
         -2   -1    0    0    0  501 -0.00000000000E+00  0.00000000000E+00  0.20696163342E+03  0.20696163344E+03  0.25500000000E-02 0. -1.
          2   -1    0    0  501    0  0.00000000000E+00 -0.00000000000E+00 -0.23265790572E+03  0.23265790573E+03  0.25500000000E-02 0.  1.
    5000001    1    1    2    0    0 -0.97817662812E+02 -0.10209352749E+02  0.27404439855E+02  0.21745695980E+03  0.19200000000E+03 0.  0.
   -5000001    1    1    2    0    0  0.97817662812E+02  0.10209352749E+02 -0.53100712152E+02  0.22216257937E+03  0.19200000000E+03 0.  0.
<mgrwt>
<rscale>  0 0.43886791E+03</rscale>
<asrwt>0</asrwt>
<pdfrwt beam="1">  1        2 0.33236844E-01 0.43886791E+03</pdfrwt>
<pdfrwt beam="2">  1       -2 0.29565948E-01 0.43886791E+03</pdfrwt>
<totfact> 0.16582856E+03</totfact>
</mgrwt>
</event>
<event>
 4    1  0.5626910E-005  0.4285191E+03  0.7818608E-02  0.1034329E+00
          2   -1    0    0  501    0  0.00000000000E+00  0.00000000000E+00  0.81412799292E+03  0.81412799293E+03  0.25500000000E-02 0.  1.
         -2   -1    0    0    0  501 -0.00000000000E+00 -0.00000000000E+00 -0.56388117658E+02  0.56388117716E+02  0.25500000000E-02 0. -1.
    5000001    1    1    2    0    0 -0.37600119712E+02 -0.75219165386E+02  0.28867131314E+03  0.35674475311E+03  0.19200000000E+03 0.  0.
   -5000001    1    1    2    0    0  0.37600119712E+02  0.75219165386E+02  0.46906856213E+03  0.51377135753E+03  0.19200000000E+03 0.  0.
<mgrwt>
<rscale>  0 0.42851905E+03</rscale>
<asrwt>0</asrwt>
<pdfrwt beam="1">  1        2 0.11630400E+00 0.42851905E+03</pdfrwt>
<pdfrwt beam="2">  1       -2 0.80554455E-02 0.42851905E+03</pdfrwt>
<totfact> 0.35891093E+03</totfact>
</mgrwt>
</event>
<event>
 4    1  0.5626910E-005  0.4259725E+03  0.7818608E-02  0.1035140E+00
          2   -1    0    0  501    0  0.00000000000E+00  0.00000000000E+00  0.85302901358E+03  0.85302901358E+03  0.25500000000E-02 0.  1.
         -2   -1    0    0    0  501 -0.00000000000E+00 -0.00000000000E+00 -0.53178904851E+02  0.53178904912E+02  0.25500000000E-02 0. -1.
    5000001    1    1    2    0    0 -0.94053050746E+01  0.76625750801E+02  0.50712468522E+03  0.54772202056E+03  0.19200000000E+03 0.  0.
   -5000001    1    1    2    0    0  0.94053050746E+01 -0.76625750801E+02  0.29272542351E+03  0.35848589794E+03  0.19200000000E+03 0.  0.
<mgrwt>
<rscale>  0 0.42597253E+03</rscale>
<asrwt>0</asrwt>
<pdfrwt beam="1">  1        2 0.12186129E+00 0.42597253E+03</pdfrwt>
<pdfrwt beam="2">  1       -2 0.75969861E-02 0.42597253E+03</pdfrwt>
<totfact> 0.37082673E+03</totfact>
</mgrwt>
</event>
<event>
 4    1  0.5626910E-005  0.5611017E+03  0.7818608E-02  0.9989565E-01
         -2   -1    0    0    0  501 -0.00000000000E+00  0.00000000000E+00  0.92615575303E+02  0.92615575338E+02  0.25500000000E-02 0. -1.
          2   -1    0    0  501    0  0.00000000000E+00 -0.00000000000E+00 -0.84984388018E+03  0.84984388019E+03  0.25500000000E-02 0.  1.
    5000001    1    1    2    0    0 -0.12367994166E+03 -0.19220562265E+02 -0.10684855394E+03  0.25287698879E+03  0.19200000000E+03 0.  0.
   -5000001    1    1    2    0    0  0.12367994166E+03  0.19220562265E+02 -0.65037975095E+03  0.68958246673E+03  0.19200000000E+03 0.  0.
<mgrwt>
<rscale>  0 0.56110170E+03</rscale>
<asrwt>0</asrwt>
<pdfrwt beam="1">  1        2 0.12140626E+00 0.56110170E+03</pdfrwt>
<pdfrwt beam="2">  1       -2 0.13230797E-01 0.56110170E+03</pdfrwt>
<totfact> 0.15223761E+03</totfact>
</mgrwt>
</event>
<event>
 4    1  0.5626910E-005  0.8577029E+03  0.7818608E-02  0.9480056E-01
          2   -1    0    0  501    0  0.00000000000E+00  0.00000000000E+00  0.16960396205E+04  0.16960396205E+04  0.25500000000E-02 0.  1.
         -2   -1    0    0    0  501 -0.00000000000E+00 -0.00000000000E+00 -0.10843706898E+03  0.10843706901E+03  0.25500000000E-02 0. -1.
    5000001    1    1    2    0    0  0.15429160258E+02 -0.35409722174E+03  0.11017594084E+04  0.11731839990E+04  0.19200000000E+03 0.  0.
   -5000001    1    1    2    0    0 -0.15429160258E+02  0.35409722174E+03  0.48584314313E+03  0.63129269057E+03  0.19200000000E+03 0.  0.
<mgrwt>
<rscale>  0 0.85770290E+03</rscale>
<asrwt>0</asrwt>
<pdfrwt beam="1">  1        2 0.24229136E+00 0.85770290E+03</pdfrwt>
<pdfrwt beam="2">  1       -2 0.15491011E-01 0.85770290E+03</pdfrwt>
<totfact> 0.38504400E+02</totfact>
</mgrwt>
</event>
<event>
 4    1  0.5626910E-005  0.6436672E+03  0.7818608E-02  0.9818735E-01
          2   -1    0    0  501    0  0.00000000000E+00  0.00000000000E+00  0.92105865717E+03  0.92105865717E+03  0.25500000000E-02 0.  1.
         -2   -1    0    0    0  501 -0.00000000000E+00 -0.00000000000E+00 -0.11245413253E+03  0.11245413255E+03  0.25500000000E-02 0. -1.
    5000001    1    1    2    0    0  0.17659995427E+03 -0.12032370934E+03  0.63724807225E+03  0.69900961686E+03  0.19200000000E+03 0.  0.
   -5000001    1    1    2    0    0 -0.17659995427E+03  0.12032370934E+03  0.17135645239E+03  0.33450317286E+03  0.19200000000E+03 0.  0.
<mgrwt>
<rscale>  0 0.64366716E+03</rscale>
<asrwt>0</asrwt>
<pdfrwt beam="1">  1        2 0.13157981E+00 0.64366716E+03</pdfrwt>
<pdfrwt beam="2">  1       -2 0.16064876E-01 0.64366716E+03</pdfrwt>
<totfact> 0.98614851E+02</totfact>
</mgrwt>
</event>
<event>
 4    1  0.5626910E-005  0.5641360E+03  0.7818608E-02  0.9982739E-01
          2   -1    0    0  501    0  0.00000000000E+00  0.00000000000E+00  0.25543468178E+03  0.25543468179E+03  0.25500000000E-02 0.  1.
         -2   -1    0    0    0  501 -0.00000000000E+00 -0.00000000000E+00 -0.31147826993E+03  0.31147826994E+03  0.25500000000E-02 0. -1.
    5000001    1    1    2    0    0  0.16417376778E+02  0.20570203408E+03 -0.17222000742E+02  0.28238883547E+03  0.19200000000E+03 0.  0.
   -5000001    1    1    2    0    0 -0.16417376778E+02 -0.20570203408E+03 -0.38821587408E+02  0.28452411626E+03  0.19200000000E+03 0.  0.
<mgrwt>
<rscale>  0 0.56413599E+03</rscale>
<asrwt>0</asrwt>
<pdfrwt beam="1">  1        2 0.36490669E-01 0.56413599E+03</pdfrwt>
<pdfrwt beam="2">  1       -2 0.44496896E-01 0.56413599E+03</pdfrwt>
<totfact> 0.68759036E+02</totfact>
</mgrwt>
</event>
<event>
 4    1  0.5626910E-005  0.6020151E+03  0.7818608E-02  0.9901234E-01
          2   -1    0    0  501    0  0.00000000000E+00  0.00000000000E+00  0.37250123567E+04  0.37250123567E+04  0.25500000000E-02 0.  1.
         -2   -1    0    0    0  501 -0.00000000000E+00 -0.00000000000E+00 -0.24323554527E+02  0.24323554661E+02  0.25500000000E-02 0. -1.
    5000001    1    1    2    0    0  0.30497324252E+02  0.22783197397E+03  0.20376032319E+04  0.20594971294E+04  0.19200000000E+03 0.  0.
   -5000001    1    1    2    0    0 -0.30497324252E+02 -0.22783197397E+03  0.16630855703E+04  0.16898387820E+04  0.19200000000E+03 0.  0.
<mgrwt>
<rscale>  0 0.60201509E+03</rscale>
<asrwt>0</asrwt>
<pdfrwt beam="1">  1        2 0.53214423E+00 0.60201509E+03</pdfrwt>
<pdfrwt beam="2">  1       -2 0.34747960E-02 0.60201509E+03</pdfrwt>
<totfact> 0.34411535E+02</totfact>
</mgrwt>
</event>
<event>
 4    1  0.5626910E-005  0.7811207E+03  0.7818608E-02  0.9587753E-01
          2   -1    0    0  501    0  0.00000000000E+00  0.00000000000E+00  0.67799159110E+03  0.67799159110E+03  0.25500000000E-02 0.  1.
         -2   -1    0    0    0  501 -0.00000000000E+00 -0.00000000000E+00 -0.22498421300E+03  0.22498421301E+03  0.25500000000E-02 0. -1.
    5000001    1    1    2    0    0 -0.22665539047E+03 -0.20098800536E+03  0.47773333024E+02  0.36182196682E+03  0.19200000000E+03 0.  0.
   -5000001    1    1    2    0    0  0.22665539047E+03  0.20098800536E+03  0.40523404508E+03  0.54115383729E+03  0.19200000000E+03 0.  0.
<mgrwt>
<rscale>  0 0.78112074E+03</rscale>
<asrwt>0</asrwt>
<pdfrwt beam="1">  1        2 0.96855942E-01 0.78112074E+03</pdfrwt>
<pdfrwt beam="2">  1       -2 0.32140602E-01 0.78112074E+03</pdfrwt>
<totfact> 0.42325693E+02</totfact>
</mgrwt>
</event>
<event>
 4    1  0.5626910E-005  0.4977445E+03  0.7818608E-02  0.1014369E+00
         -2   -1    0    0    0  501 -0.00000000000E+00  0.00000000000E+00  0.15446135749E+03  0.15446135751E+03  0.25500000000E-02 0. -1.
          2   -1    0    0  501    0  0.00000000000E+00 -0.00000000000E+00 -0.40098962243E+03  0.40098962244E+03  0.25500000000E-02 0.  1.
    5000001    1    1    2    0    0  0.14051097335E+03 -0.71191590832E+02 -0.10520715876E+03  0.26971118347E+03  0.19200000000E+03 0.  0.
   -5000001    1    1    2    0    0 -0.14051097335E+03  0.71191590832E+02 -0.14132110618E+03  0.28573979647E+03  0.19200000000E+03 0.  0.
<mgrwt>
<rscale>  0 0.49774452E+03</rscale>
<asrwt>0</asrwt>
<pdfrwt beam="1">  1        2 0.57284232E-01 0.49774452E+03</pdfrwt>
<pdfrwt beam="2">  1       -2 0.22065908E-01 0.49774452E+03</pdfrwt>
<totfact> 0.15415799E+03</totfact>
</mgrwt>
</event>
<event>
 4    1  0.5626910E-005  0.6586520E+03  0.7818608E-02  0.9790678E-01
          2   -1    0    0  501    0  0.00000000000E+00  0.00000000000E+00  0.85492927982E+03  0.85492927982E+03  0.25500000000E-02 0. -1.
         -2   -1    0    0    0  501 -0.00000000000E+00 -0.00000000000E+00 -0.12685914985E+03  0.12685914987E+03  0.25500000000E-02 0.  1.
    5000001    1    1    2    0    0  0.11306745333E+03 -0.22418133503E+03  0.50186611073E+03  0.59310632527E+03  0.19200000000E+03 0.  0.
   -5000001    1    1    2    0    0 -0.11306745333E+03  0.22418133503E+03  0.22620401925E+03  0.38868210443E+03  0.19200000000E+03 0.  0.
<mgrwt>
<rscale>  0 0.65865196E+03</rscale>
<asrwt>0</asrwt>
<pdfrwt beam="1">  1        2 0.12213275E+00 0.65865196E+03</pdfrwt>
<pdfrwt beam="2">  1       -2 0.18122736E-01 0.65865196E+03</pdfrwt>
<totfact> 0.88595512E+02</totfact>
</mgrwt>
</event>
<event>
 4    1  0.5626910E-005  0.4717279E+03  0.7818608E-02  0.1021434E+00
          2   -1    0    0  501    0  0.00000000000E+00  0.00000000000E+00  0.16979201617E+04  0.16979201617E+04  0.25500000000E-02 0.  1.
         -2   -1    0    0    0  501 -0.00000000000E+00 -0.00000000000E+00 -0.32764678314E+02  0.32764678413E+02  0.25500000000E-02 0. -1.
    5000001    1    1    2    0    0  0.11500553564E+03  0.73493114669E+02  0.78912167903E+03  0.82353174526E+03  0.19200000000E+03 0.  0.
   -5000001    1    1    2    0    0 -0.11500553564E+03 -0.73493114669E+02  0.87603380431E+03  0.90715309481E+03  0.19200000000E+03 0.  0.
<mgrwt>
<rscale>  0 0.47172792E+03</rscale>
<asrwt>0</asrwt>
<pdfrwt beam="1">  1        2 0.24256005E+00 0.47172792E+03</pdfrwt>
<pdfrwt beam="2">  1       -2 0.46806678E-02 0.47172792E+03</pdfrwt>
<totfact> 0.26805953E+03</totfact>
</mgrwt>
</event>
<event>
 4    1  0.5626910E-005  0.5093103E+03  0.7818608E-02  0.1011377E+00
         -2   -1    0    0    0  501 -0.00000000000E+00  0.00000000000E+00  0.15193527140E+02  0.15193527354E+02  0.25500000000E-02 0. -1.
          2   -1    0    0  501    0  0.00000000000E+00 -0.00000000000E+00 -0.42682151589E+04  0.42682151589E+04  0.25500000000E-02 0.  1.
    5000001    1    1    2    0    0 -0.12288759990E+03 -0.60038231032E+02 -0.29366590314E+04  0.29461052625E+04  0.19200000000E+03 0.  0.
   -5000001    1    1    2    0    0  0.12288759990E+03  0.60038231032E+02 -0.13163626004E+04  0.13373034238E+04  0.19200000000E+03 0.  0.
<mgrwt>
<rscale>  0 0.50931029E+03</rscale>
<asrwt>0</asrwt>
<pdfrwt beam="1">  1        2 0.60974426E+00 0.50931029E+03</pdfrwt>
<pdfrwt beam="2">  1       -2 0.21705066E-02 0.50931029E+03</pdfrwt>
<totfact> 0.30899325E+02</totfact>
</mgrwt>
</event>
<event>
 4    1  0.5626910E-005  0.5857368E+03  0.7818608E-02  0.9935448E-01
          2   -1    0    0  501    0  0.00000000000E+00  0.00000000000E+00  0.21149438068E+04  0.21149438068E+04  0.25500000000E-02 0.  1.
         -2   -1    0    0    0  501 -0.00000000000E+00 -0.00000000000E+00 -0.40555166638E+02  0.40555166718E+02  0.25500000000E-02 0. -1.
    5000001    1    1    2    0    0  0.14985512456E+03  0.45754859885E+01  0.16354643166E+04  0.16535068867E+04  0.19200000000E+03 0.  0.
   -5000001    1    1    2    0    0 -0.14985512456E+03 -0.45754859885E+01  0.43892432352E+03  0.50199208680E+03  0.19200000000E+03 0.  0.
<mgrwt>
<rscale>  0 0.58573680E+03</rscale>
<asrwt>0</asrwt>
<pdfrwt beam="1">  1        2 0.30213492E+00 0.58573680E+03</pdfrwt>
<pdfrwt beam="2">  1       -2 0.57935936E-02 0.58573680E+03</pdfrwt>
<totfact> 0.11843404E+03</totfact>
</mgrwt>
</event>
<event>
 4    1  0.5626910E-005  0.4457768E+03  0.7818608E-02  0.1028989E+00
          2   -1    0    0  501    0  0.00000000000E+00  0.00000000000E+00  0.63880019992E+03  0.63880019993E+03  0.25500000000E-02 0.  1.
         -2   -1    0    0    0  501 -0.00000000000E+00 -0.00000000000E+00 -0.77769589110E+02  0.77769589151E+02  0.25500000000E-02 0. -1.
    5000001    1    1    2    0    0 -0.33475374037E+02 -0.10441589083E+03  0.32575191012E+03  0.39370240775E+03  0.19200000000E+03 0.  0.
   -5000001    1    1    2    0    0  0.33475374037E+02  0.10441589083E+03  0.23527870070E+03  0.32286738133E+03  0.19200000000E+03 0.  0.
<mgrwt>
<rscale>  0 0.44577676E+03</rscale>
<asrwt>0</asrwt>
<pdfrwt beam="1">  1        2 0.91257172E-01 0.44577676E+03</pdfrwt>
<pdfrwt beam="2">  1       -2 0.11109941E-01 0.44577676E+03</pdfrwt>
<totfact> 0.28853628E+03</totfact>
</mgrwt>
</event>
<event>
 4    1  0.5626910E-005  0.5342931E+03  0.7818608E-02  0.1005196E+00
          2   -1    0    0  501    0  0.00000000000E+00  0.00000000000E+00  0.86255425239E+03  0.86255425239E+03  0.25500000000E-02 0.  1.
         -2   -1    0    0    0  501 -0.00000000000E+00 -0.00000000000E+00 -0.82739473215E+02  0.82739473254E+02  0.25500000000E-02 0. -1.
    5000001    1    1    2    0    0 -0.14254082380E+03  0.84181055746E+02  0.53897530817E+03  0.59561960966E+03  0.19200000000E+03 0.  0.
   -5000001    1    1    2    0    0  0.14254082380E+03 -0.84181055746E+02  0.24083947100E+03  0.34967411598E+03  0.19200000000E+03 0.  0.
<mgrwt>
<rscale>  0 0.53429312E+03</rscale>
<asrwt>0</asrwt>
<pdfrwt beam="1">  1        2 0.12322204E+00 0.53429312E+03</pdfrwt>
<pdfrwt beam="2">  1       -2 0.11819925E-01 0.53429312E+03</pdfrwt>
<totfact> 0.17987265E+03</totfact>
</mgrwt>
</event>
<event>
 4    1  0.5626910E-005  0.4099580E+03  0.7818608E-02  0.1040385E+00
          2   -1    0    0  501    0  0.00000000000E+00  0.00000000000E+00  0.40021062579E+03  0.40021062579E+03  0.25500000000E-02 0.  1.
         -2   -1    0    0    0  501 -0.00000000000E+00 -0.00000000000E+00 -0.10498570943E+03  0.10498570946E+03  0.25500000000E-02 0. -1.
    5000001    1    1    2    0    0 -0.48068453699E+02 -0.50612906728E+02  0.16823865416E+03  0.26465163389E+03  0.19200000000E+03 0.  0.
   -5000001    1    1    2    0    0  0.48068453699E+02  0.50612906728E+02  0.12698626220E+03  0.24054470137E+03  0.19200000000E+03 0.  0.
<mgrwt>
<rscale>  0 0.40995803E+03</rscale>
<asrwt>0</asrwt>
<pdfrwt beam="1">  1        2 0.57172945E-01 0.40995803E+03</pdfrwt>
<pdfrwt beam="2">  1       -2 0.14997959E-01 0.40995803E+03</pdfrwt>
<totfact> 0.29852092E+03</totfact>
</mgrwt>
</event>
<event>
 4    1  0.5626910E-005  0.6924828E+03  0.7818608E-02  0.9730175E-01
          2   -1    0    0  501    0  0.00000000000E+00  0.00000000000E+00  0.53833600927E+03  0.53833600928E+03  0.25500000000E-02 0.  1.
         -2   -1    0    0    0  501 -0.00000000000E+00 -0.00000000000E+00 -0.22269197074E+03  0.22269197076E+03  0.25500000000E-02 0. -1.
    5000001    1    1    2    0    0 -0.26940444813E+03 -0.71848970615E+01  0.26983614914E+03  0.42697298135E+03  0.19200000000E+03 0.  0.
   -5000001    1    1    2    0    0  0.26940444813E+03  0.71848970615E+01  0.45807889383E+02  0.33405499869E+03  0.19200000000E+03 0.  0.
<mgrwt>
<rscale>  0 0.69248280E+03</rscale>
<asrwt>0</asrwt>
<pdfrwt beam="1">  1        2 0.76905144E-01 0.69248280E+03</pdfrwt>
<pdfrwt beam="2">  1       -2 0.31813139E-01 0.69248280E+03</pdfrwt>
<totfact> 0.56882647E+02</totfact>
</mgrwt>
</event>
<event>
 4    1  0.5626910E-005  0.1076856E+04  0.7818608E-02  0.9228048E-01
         -2   -1    0    0    0  501 -0.00000000000E+00  0.00000000000E+00  0.35637860963E+03  0.35637860964E+03  0.25500000000E-02 0. -1.
          2   -1    0    0  501    0  0.00000000000E+00 -0.00000000000E+00 -0.81347426666E+03  0.81347426666E+03  0.25500000000E-02 0.  1.
    5000001    1    1    2    0    0 -0.19549982077E+03 -0.43964067795E+03 -0.69120292705E+02  0.52263344755E+03  0.19200000000E+03 0.  0.
   -5000001    1    1    2    0    0  0.19549982077E+03  0.43964067795E+03 -0.38797536432E+03  0.64721942875E+03  0.19200000000E+03 0.  0.
<mgrwt>
<rscale>  0 0.10768562E+04</rscale>
<asrwt>0</asrwt>
<pdfrwt beam="1">  1        2 0.11621061E+00 0.10768562E+04</pdfrwt>
<pdfrwt beam="2">  1       -2 0.50911230E-01 0.10768562E+04</pdfrwt>
<totfact> 0.13484856E+02</totfact>
</mgrwt>
</event>
<event>
 4    1  0.5626910E-005  0.4607479E+03  0.7818608E-02  0.1024565E+00
         -2   -1    0    0    0  501 -0.00000000000E+00  0.00000000000E+00  0.18706396374E+02  0.18706396548E+02  0.25500000000E-02 0. -1.
          2   -1    0    0  501    0  0.00000000000E+00 -0.00000000000E+00 -0.28371132306E+04  0.28371132306E+04  0.25500000000E-02 0.  1.
    5000001    1    1    2    0    0 -0.11800520058E+03  0.34976692998E+02 -0.12074448929E+04  0.12287944360E+04  0.19200000000E+03 0.  0.
   -5000001    1    1    2    0    0  0.11800520058E+03 -0.34976692998E+02 -0.16109619413E+04  0.16270251912E+04  0.19200000000E+03 0.  0.
<mgrwt>
<rscale>  0 0.46074793E+03</rscale>
<asrwt>0</asrwt>
<pdfrwt beam="1">  1        2 0.40530161E+00 0.46074793E+03</pdfrwt>
<pdfrwt beam="2">  1       -2 0.26723442E-02 0.46074793E+03</pdfrwt>
<totfact> 0.16689127E+03</totfact>
</mgrwt>
</event>
<event>
 4    1  0.5626910E-005  0.9546493E+03  0.7818608E-02  0.9359733E-01
          2   -1    0    0  501    0  0.00000000000E+00  0.00000000000E+00  0.51567118505E+03  0.51567118506E+03  0.25500000000E-02 0.  1.
         -2   -1    0    0    0  501 -0.00000000000E+00 -0.00000000000E+00 -0.44182964285E+03  0.44182964286E+03  0.25500000000E-02 0. -1.
    5000001    1    1    2    0    0 -0.30607218766E+03 -0.25372704221E+03 -0.14505219636E+03  0.46471683387E+03  0.19200000000E+03 0.  0.
   -5000001    1    1    2    0    0  0.30607218766E+03  0.25372704221E+03  0.21889373856E+03  0.49278399405E+03  0.19200000000E+03 0.  0.
<mgrwt>
<rscale>  0 0.95464929E+03</rscale>
<asrwt>0</asrwt>
<pdfrwt beam="1">  1        2 0.73667312E-01 0.95464929E+03</pdfrwt>
<pdfrwt beam="2">  1       -2 0.63118520E-01 0.95464929E+03</pdfrwt>
<totfact> 0.15085947E+02</totfact>
</mgrwt>
</event>
<event>
 4    1  0.5626910E-005  0.5544926E+03  0.7818608E-02  0.1000459E+00
         -2   -1    0    0    0  501 -0.00000000000E+00  0.00000000000E+00  0.18020500741E+03  0.18020500742E+03  0.25500000000E-02 0. -1.
          2   -1    0    0  501    0  0.00000000000E+00 -0.00000000000E+00 -0.42654473935E+03  0.42654473936E+03  0.25500000000E-02 0.  1.
    5000001    1    1    2    0    0  0.11188956212E+03 -0.31293108796E+02 -0.30130973081E+03  0.37569946320E+03  0.19200000000E+03 0.  0.
   -5000001    1    1    2    0    0 -0.11188956212E+03  0.31293108796E+02  0.54969998857E+02  0.23105028359E+03  0.19200000000E+03 0.  0.
<mgrwt>
<rscale>  0 0.55449255E+03</rscale>
<asrwt>0</asrwt>
<pdfrwt beam="1">  1        2 0.60934963E-01 0.55449255E+03</pdfrwt>
<pdfrwt beam="2">  1       -2 0.25743573E-01 0.55449255E+03</pdfrwt>
<totfact> 0.10943513E+03</totfact>
</mgrwt>
</event>
<event>
 4    1  0.5626910E-005  0.2365496E+04  0.7818608E-02  0.8452535E-01
         -2   -1    0    0    0  501 -0.00000000000E+00  0.00000000000E+00  0.19634093715E+04  0.19634093715E+04  0.25500000000E-02 0. -1.
          2   -1    0    0  501    0  0.00000000000E+00 -0.00000000000E+00 -0.71248142405E+03  0.71248142406E+03  0.25500000000E-02 0.  1.
    5000001    1    1    2    0    0 -0.11284520441E+03  0.11447801774E+04  0.40271744377E+03  0.12338156403E+04  0.19200000000E+03 0.  0.
   -5000001    1    1    2    0    0  0.11284520441E+03 -0.11447801774E+04  0.84821050364E+03  0.14420751552E+04  0.19200000000E+03 0.  0.
<mgrwt>
<rscale>  0 0.23654959E+04</rscale>
<asrwt>0</asrwt>
<pdfrwt beam="1">  1        2 0.10178306E+00 0.23654959E+04</pdfrwt>
<pdfrwt beam="2">  1       -2 0.28048705E+00 0.23654959E+04</pdfrwt>
<totfact> 0.16682947E+00</totfact>
</mgrwt>
</event>
<event>
 4    1  0.5626910E-005  0.7411471E+03  0.7818608E-02  0.9649342E-01
         -2   -1    0    0    0  501 -0.00000000000E+00  0.00000000000E+00  0.68600816811E+02  0.68600816858E+02  0.25500000000E-02 0. -1.
          2   -1    0    0  501    0  0.00000000000E+00 -0.00000000000E+00 -0.20017949029E+04  0.20017949029E+04  0.25500000000E-02 0.  1.
    5000001    1    1    2    0    0 -0.45882155682E+02  0.30259845770E+03 -0.11967816921E+04  0.12501285604E+04  0.19200000000E+03 0.  0.
   -5000001    1    1    2    0    0  0.45882155682E+02 -0.30259845770E+03 -0.73641239399E+03  0.82026715943E+03  0.19200000000E+03 0.  0.
<mgrwt>
<rscale>  0 0.74114713E+03</rscale>
<asrwt>0</asrwt>
<pdfrwt beam="1">  1        2 0.28597066E+00 0.74114713E+03</pdfrwt>
<pdfrwt beam="2">  1       -2 0.98001180E-02 0.74114713E+03</pdfrwt>
<totfact> 0.57948527E+02</totfact>
</mgrwt>
</event>
<event>
 4    1  0.5626910E-005  0.4676938E+03  0.7818608E-02  0.1022573E+00
         -2   -1    0    0    0  501 -0.00000000000E+00  0.00000000000E+00  0.47634885750E+02  0.47634885818E+02  0.25500000000E-02 0. -1.
          2   -1    0    0  501    0  0.00000000000E+00 -0.00000000000E+00 -0.11479897778E+04  0.11479897778E+04  0.25500000000E-02 0.  1.
    5000001    1    1    2    0    0  0.74206624296E+02 -0.98803430120E+02 -0.67931167800E+03  0.71665688915E+03  0.19200000000E+03 0.  0.
   -5000001    1    1    2    0    0 -0.74206624296E+02  0.98803430120E+02 -0.42104321409E+03  0.47896777452E+03  0.19200000000E+03 0.  0.
<mgrwt>
<rscale>  0 0.46769375E+03</rscale>
<asrwt>0</asrwt>
<pdfrwt beam="1">  1        2 0.16399852E+00 0.46769375E+03</pdfrwt>
<pdfrwt beam="2">  1       -2 0.68049844E-02 0.46769375E+03</pdfrwt>
<totfact> 0.29240206E+03</totfact>
</mgrwt>
</event>
<event>
 4    1  0.5626910E-005  0.5313858E+03  0.7818608E-02  0.1005897E+00
          2   -1    0    0  501    0  0.00000000000E+00  0.00000000000E+00  0.10689437558E+04  0.10689437558E+04  0.25500000000E-02 0.  1.
         -2   -1    0    0    0  501 -0.00000000000E+00 -0.00000000000E+00 -0.66039681667E+02  0.66039681716E+02  0.25500000000E-02 0. -1.
    5000001    1    1    2    0    0 -0.80112594161E+02  0.13451559911E+03  0.70650039540E+03  0.74867835741E+03  0.19200000000E+03 0.  0.
   -5000001    1    1    2    0    0  0.80112594161E+02 -0.13451559911E+03  0.29640367870E+03  0.38630508008E+03  0.19200000000E+03 0.  0.
<mgrwt>
<rscale>  0 0.53138576E+03</rscale>
<asrwt>0</asrwt>
<pdfrwt beam="1">  1        2 0.15270624E+00 0.53138576E+03</pdfrwt>
<pdfrwt beam="2">  1       -2 0.94342407E-02 0.53138576E+03</pdfrwt>
<totfact> 0.19323545E+03</totfact>
</mgrwt>
</event>
<event>
 4    1  0.5626910E-005  0.7136106E+03  0.7818608E-02  0.9694235E-01
          2   -1    0    0  501    0  0.00000000000E+00  0.00000000000E+00  0.68598281209E+02  0.68598281256E+02  0.25500000000E-02 0.  1.
         -2   -1    0    0    0  501 -0.00000000000E+00 -0.00000000000E+00 -0.18558774786E+04  0.18558774786E+04  0.25500000000E-02 0. -1.
    5000001    1    1    2    0    0 -0.12878977245E+03  0.25781626290E+03 -0.66180799160E+03  0.74693363068E+03  0.19200000000E+03 0.  0.
   -5000001    1    1    2    0    0  0.12878977245E+03 -0.25781626290E+03 -0.11254712058E+04  0.11775421291E+04  0.19200000000E+03 0.  0.
<mgrwt>
<rscale>  0 0.71361055E+03</rscale>
<asrwt>0</asrwt>
<pdfrwt beam="1">  1        2 0.97997557E-02 0.71361055E+03</pdfrwt>
<pdfrwt beam="2">  1       -2 0.26512532E+00 0.71361055E+03</pdfrwt>
<totfact> 0.36649046E+01</totfact>
</mgrwt>
</event>
<event>
 4    1  0.5626910E-005  0.4211294E+03  0.7818608E-02  0.1036699E+00
          2   -1    0    0  501    0  0.00000000000E+00  0.00000000000E+00  0.79108071671E+03  0.79108071672E+03  0.25500000000E-02 0.  1.
         -2   -1    0    0    0  501 -0.00000000000E+00 -0.00000000000E+00 -0.56046744386E+02  0.56046744444E+02  0.25500000000E-02 0. -1.
    5000001    1    1    2    0    0 -0.59070102002E+01 -0.77717300684E+02  0.44274578843E+03  0.48883811714E+03  0.19200000000E+03 0.  0.
   -5000001    1    1    2    0    0  0.59070102002E+01  0.77717300684E+02  0.29228818390E+03  0.35828934403E+03  0.19200000000E+03 0.  0.
<mgrwt>
<rscale>  0 0.42112943E+03</rscale>
<asrwt>0</asrwt>
<pdfrwt beam="1">  1        2 0.11301152E+00 0.42112943E+03</pdfrwt>
<pdfrwt beam="2">  1       -2 0.80066787E-02 0.42112943E+03</pdfrwt>
<totfact> 0.37567781E+03</totfact>
</mgrwt>
</event>
<event>
 4    1  0.5626910E-005  0.5035916E+03  0.7818608E-02  0.1012846E+00
         -2   -1    0    0    0  501 -0.00000000000E+00  0.00000000000E+00  0.82291015574E+02  0.82291015613E+02  0.25500000000E-02 0. -1.
          2   -1    0    0  501    0  0.00000000000E+00 -0.00000000000E+00 -0.77045012103E+03  0.77045012103E+03  0.25500000000E-02 0.  1.
    5000001    1    1    2    0    0  0.93519559136E+01 -0.11284349192E+03 -0.14576588678E+03  0.26633213568E+03  0.19200000000E+03 0.  0.
   -5000001    1    1    2    0    0 -0.93519559136E+01  0.11284349192E+03 -0.54239321868E+03  0.58640900097E+03  0.19200000000E+03 0.  0.
<mgrwt>
<rscale>  0 0.50359159E+03</rscale>
<asrwt>0</asrwt>
<pdfrwt beam="1">  1        2 0.11006430E+00 0.50359159E+03</pdfrwt>
<pdfrwt beam="2">  1       -2 0.11755860E-01 0.50359159E+03</pdfrwt>
<totfact> 0.20971834E+03</totfact>
</mgrwt>
</event>
<event>
 4    1  0.5626910E-005  0.4560247E+03  0.7818608E-02  0.1025940E+00
          2   -1    0    0  501    0  0.00000000000E+00  0.00000000000E+00  0.98792630018E+03  0.98792630019E+03  0.25500000000E-02 0.  1.
         -2   -1    0    0    0  501 -0.00000000000E+00 -0.00000000000E+00 -0.52625017926E+02  0.52625017988E+02  0.25500000000E-02 0. -1.
    5000001    1    1    2    0    0 -0.98211173161E+02  0.72109918732E+02  0.50585707665E+03  0.55461757717E+03  0.19200000000E+03 0.  0.
   -5000001    1    1    2    0    0  0.98211173161E+02 -0.72109918732E+02  0.42944420561E+03  0.48593374100E+03  0.19200000000E+03 0.  0.
<mgrwt>
<rscale>  0 0.45602473E+03</rscale>
<asrwt>0</asrwt>
<pdfrwt beam="1">  1        2 0.14113232E+00 0.45602473E+03</pdfrwt>
<pdfrwt beam="2">  1       -2 0.75178604E-02 0.45602473E+03</pdfrwt>
<totfact> 0.31009389E+03</totfact>
</mgrwt>
</event>
<event>
 4    1  0.5626910E-005  0.5744597E+03  0.7818608E-02  0.9959858E-01
          2   -1    0    0  501    0  0.00000000000E+00  0.00000000000E+00  0.24750379092E+04  0.24750379092E+04  0.25500000000E-02 0.  1.
         -2   -1    0    0    0  501 -0.00000000000E+00 -0.00000000000E+00 -0.33333223999E+02  0.33333224097E+02  0.25500000000E-02 0. -1.
    5000001    1    1    2    0    0  0.20740583307E+03  0.29909871605E+02  0.10394872968E+04  0.10776407659E+04  0.19200000000E+03 0.  0.
   -5000001    1    1    2    0    0 -0.20740583307E+03 -0.29909871605E+02  0.14022173884E+04  0.14307303675E+04  0.19200000000E+03 0.  0.
<mgrwt>
<rscale>  0 0.57445972E+03</rscale>
<asrwt>0</asrwt>
<pdfrwt beam="1">  1        2 0.35357687E+00 0.57445972E+03</pdfrwt>
<pdfrwt beam="2">  1       -2 0.47618888E-02 0.57445972E+03</pdfrwt>
<totfact> 0.10568303E+03</totfact>
</mgrwt>
</event>
<event>
 4    1  0.5626910E-005  0.7493277E+03  0.7818608E-02  0.9636406E-01
         -2   -1    0    0    0  501 -0.00000000000E+00  0.00000000000E+00  0.44753952180E+02  0.44753952252E+02  0.25500000000E-02 0. -1.
          2   -1    0    0  501    0  0.00000000000E+00 -0.00000000000E+00 -0.31365497958E+04  0.31365497958E+04  0.25500000000E-02 0.  1.
    5000001    1    1    2    0    0  0.16615653117E+03 -0.13187490938E+03 -0.25728459286E+04  0.25887060777E+04  0.19200000000E+03 0.  0.
   -5000001    1    1    2    0    0 -0.16615653117E+03  0.13187490938E+03 -0.51894991506E+03  0.59259767036E+03  0.19200000000E+03 0.  0.
<mgrwt>
<rscale>  0 0.74932770E+03</rscale>
<asrwt>0</asrwt>
<pdfrwt beam="1">  1        2 0.44807840E+00 0.74932770E+03</pdfrwt>
<pdfrwt beam="2">  1       -2 0.63934238E-02 0.74932770E+03</pdfrwt>
<totfact> 0.29178437E+02</totfact>
</mgrwt>
</event>
<event>
 4    1  0.5626910E-005  0.9862371E+03  0.7818608E-02  0.9323770E-01
         -2   -1    0    0    0  501 -0.00000000000E+00  0.00000000000E+00  0.14805853040E+03  0.14805853042E+03  0.25500000000E-02 0. -1.
          2   -1    0    0  501    0  0.00000000000E+00 -0.00000000000E+00 -0.16423635135E+04  0.16423635135E+04  0.25500000000E-02 0.  1.
    5000001    1    1    2    0    0  0.34748573805E+03 -0.27416976666E+03 -0.56213649439E+03  0.74079473367E+03  0.19200000000E+03 0.  0.
   -5000001    1    1    2    0    0 -0.34748573805E+03  0.27416976666E+03 -0.93216848866E+03  0.10496273102E+04  0.19200000000E+03 0.  0.
<mgrwt>
<rscale>  0 0.98623715E+03</rscale>
<asrwt>0</asrwt>
<pdfrwt beam="1">  1        2 0.23462335E+00 0.98623715E+03</pdfrwt>
<pdfrwt beam="2">  1       -2 0.21151220E-01 0.98623715E+03</pdfrwt>
<totfact> 0.23745144E+02</totfact>
</mgrwt>
</event>
<event>
 4    1  0.5626910E-005  0.5017515E+03  0.7818608E-02  0.1013323E+00
          2   -1    0    0  501    0  0.00000000000E+00  0.00000000000E+00  0.60313580204E+03  0.60313580205E+03  0.25500000000E-02 0.  1.
         -2   -1    0    0    0  501 -0.00000000000E+00 -0.00000000000E+00 -0.10435237624E+03  0.10435237627E+03  0.25500000000E-02 0. -1.
    5000001    1    1    2    0    0  0.12799895892E+03  0.65154386315E+02  0.14533685254E+03  0.28038478605E+03  0.19200000000E+03 0.  0.
   -5000001    1    1    2    0    0 -0.12799895892E+03 -0.65154386315E+02  0.35344657326E+03  0.42710339227E+03  0.19200000000E+03 0.  0.
<mgrwt>
<rscale>  0 0.50175155E+03</rscale>
<asrwt>0</asrwt>
<pdfrwt beam="1">  1        2 0.86162260E-01 0.50175155E+03</pdfrwt>
<pdfrwt beam="2">  1       -2 0.14907482E-01 0.50175155E+03</pdfrwt>
<totfact> 0.19026777E+03</totfact>
</mgrwt>
</event>
<event>
 4    1  0.5626910E-005  0.4170468E+03  0.7818608E-02  0.1038032E+00
         -2   -1    0    0    0  501 -0.00000000000E+00  0.00000000000E+00  0.81799144927E+02  0.81799144966E+02  0.25500000000E-02 0. -1.
          2   -1    0    0  501    0  0.00000000000E+00 -0.00000000000E+00 -0.53157046730E+03  0.53157046731E+03  0.25500000000E-02 0.  1.
    5000001    1    1    2    0    0  0.41485189153E+02  0.69834588399E+02 -0.23148258110E+03  0.31152219184E+03  0.19200000000E+03 0.  0.
   -5000001    1    1    2    0    0 -0.41485189153E+02 -0.69834588399E+02 -0.21828874127E+03  0.30184742043E+03  0.19200000000E+03 0.  0.
<mgrwt>
<rscale>  0 0.41704681E+03</rscale>
<asrwt>0</asrwt>
<pdfrwt beam="1">  1        2 0.75938636E-01 0.41704681E+03</pdfrwt>
<pdfrwt beam="2">  1       -2 0.11685592E-01 0.41704681E+03</pdfrwt>
<totfact> 0.32844258E+03</totfact>
</mgrwt>
</event>
<event>
 4    1  0.5626910E-005  0.5008106E+03  0.7818608E-02  0.1013568E+00
          2   -1    0    0  501    0  0.00000000000E+00  0.00000000000E+00  0.78495337185E+03  0.78495337186E+03  0.25500000000E-02 0. -1.
         -2   -1    0    0    0  501 -0.00000000000E+00 -0.00000000000E+00 -0.79880927047E+02  0.79880927087E+02  0.25500000000E-02 0.  1.
    5000001    1    1    2    0    0 -0.79534942490E+02  0.13007197954E+03  0.44049263948E+03  0.50412527449E+03  0.19200000000E+03 0.  0.
   -5000001    1    1    2    0    0  0.79534942490E+02 -0.13007197954E+03  0.26457980533E+03  0.36070902446E+03  0.19200000000E+03 0.  0.
<mgrwt>
<rscale>  0 0.50081056E+03</rscale>
<asrwt>0</asrwt>
<pdfrwt beam="1">  1        2 0.11213619E+00 0.50081056E+03</pdfrwt>
<pdfrwt beam="2">  1       -2 0.11411561E-01 0.50081056E+03</pdfrwt>
<totfact> 0.21505647E+03</totfact>
</mgrwt>
</event>
<event>
 4    1  0.5626910E-005  0.7208929E+03  0.7818608E-02  0.9682155E-01
          2   -1    0    0  501    0  0.00000000000E+00  0.00000000000E+00  0.13007720879E+04  0.13007720879E+04  0.25500000000E-02 0.  1.
         -2   -1    0    0    0  501 -0.00000000000E+00 -0.00000000000E+00 -0.99880403436E+02  0.99880403469E+02  0.25500000000E-02 0. -1.
    5000001    1    1    2    0    0 -0.19003432392E+03  0.10573346644E+03  0.18479704023E+03  0.34395720122E+03  0.19200000000E+03 0.  0.
   -5000001    1    1    2    0    0  0.19003432392E+03 -0.10573346644E+03  0.10160946442E+04  0.10566952901E+04  0.19200000000E+03 0.  0.
<mgrwt>
<rscale>  0 0.72089289E+03</rscale>
<asrwt>0</asrwt>
<pdfrwt beam="1">  1        2 0.18582457E+00 0.72089289E+03</pdfrwt>
<pdfrwt beam="2">  1       -2 0.14268630E-01 0.72089289E+03</pdfrwt>
<totfact> 0.72029314E+02</totfact>
</mgrwt>
</event>
<event>
 4    1  0.5626910E-005  0.8967112E+03  0.7818608E-02  0.9429702E-01
          2   -1    0    0  501    0  0.00000000000E+00  0.00000000000E+00  0.80005736066E+03  0.80005736066E+03  0.25500000000E-02 0.  1.
         -2   -1    0    0    0  501 -0.00000000000E+00 -0.00000000000E+00 -0.25126042071E+03  0.25126042073E+03  0.25500000000E-02 0. -1.
    5000001    1    1    2    0    0  0.29590366428E+03 -0.71366417968E+02  0.58791070167E+03  0.68931497683E+03  0.19200000000E+03 0.  0.
   -5000001    1    1    2    0    0 -0.29590366428E+03  0.71366417968E+02 -0.39113761723E+02  0.36200280456E+03  0.19200000000E+03 0.  0.
<mgrwt>
<rscale>  0 0.89671121E+03</rscale>
<asrwt>0</asrwt>
<pdfrwt beam="1">  1        2 0.11429391E+00 0.89671121E+03</pdfrwt>
<pdfrwt beam="2">  1       -2 0.35894346E-01 0.89671121E+03</pdfrwt>
<totfact> 0.27760031E+02</totfact>
</mgrwt>
</event>
<event>
 4    1  0.5626910E-005  0.5290677E+03  0.7818608E-02  0.1006458E+00
         -2   -1    0    0    0  501 -0.00000000000E+00  0.00000000000E+00  0.28500289661E+02  0.28500289775E+02  0.25500000000E-02 0. -1.
          2   -1    0    0  501    0  0.00000000000E+00 -0.00000000000E+00 -0.24553485985E+04  0.24553485985E+04  0.25500000000E-02 0.  1.
    5000001    1    1    2    0    0  0.31015199166E+02 -0.17776339529E+03 -0.13237640557E+04  0.13497322114E+04  0.19200000000E+03 0.  0.
   -5000001    1    1    2    0    0 -0.31015199166E+02  0.17776339529E+03 -0.11030842532E+04  0.11341166769E+04  0.19200000000E+03 0.  0.
<mgrwt>
<rscale>  0 0.52906766E+03</rscale>
<asrwt>0</asrwt>
<pdfrwt beam="1">  1        2 0.35076395E+00 0.52906766E+03</pdfrwt>
<pdfrwt beam="2">  1       -2 0.40714715E-02 0.52906766E+03</pdfrwt>
<totfact> 0.13808840E+03</totfact>
</mgrwt>
</event>
<event>
 4    1  0.5626910E-005  0.6796476E+03  0.7818608E-02  0.9752685E-01
          2   -1    0    0  501    0  0.00000000000E+00  0.00000000000E+00  0.31200550397E+03  0.31200550398E+03  0.25500000000E-02 0.  1.
         -2   -1    0    0    0  501 -0.00000000000E+00 -0.00000000000E+00 -0.37012239984E+03  0.37012239985E+03  0.25500000000E-02 0. -1.
    5000001    1    1    2    0    0  0.22377893028E+03  0.16749849003E+03 -0.69902070420E+01  0.33918375078E+03  0.19200000000E+03 0.  0.
   -5000001    1    1    2    0    0 -0.22377893028E+03 -0.16749849003E+03 -0.51126688826E+02  0.34294415305E+03  0.19200000000E+03 0.  0.
<mgrwt>
<rscale>  0 0.67964763E+03</rscale>
<asrwt>0</asrwt>
<pdfrwt beam="1">  1        2 0.44572215E-01 0.67964763E+03</pdfrwt>
<pdfrwt beam="2">  1       -2 0.52874628E-01 0.67964763E+03</pdfrwt>
<totfact> 0.38839700E+02</totfact>
</mgrwt>
</event>
<event>
 4    1  0.5626910E-005  0.5307387E+03  0.7818608E-02  0.1006053E+00
         -2   -1    0    0    0  501 -0.00000000000E+00  0.00000000000E+00  0.10822022431E+03  0.10822022434E+03  0.25500000000E-02 0. -1.
          2   -1    0    0  501    0  0.00000000000E+00 -0.00000000000E+00 -0.65071836870E+03  0.65071836870E+03  0.25500000000E-02 0.  1.
    5000001    1    1    2    0    0  0.12963388604E+03 -0.10600795320E+03 -0.16506254761E+03  0.30356593217E+03  0.19200000000E+03 0.  0.
   -5000001    1    1    2    0    0 -0.12963388604E+03  0.10600795320E+03 -0.37743559678E+03  0.45537266087E+03  0.19200000000E+03 0.  0.
<mgrwt>
<rscale>  0 0.53073868E+03</rscale>
<asrwt>0</asrwt>
<pdfrwt beam="1">  1        2 0.92959764E-01 0.53073868E+03</pdfrwt>
<pdfrwt beam="2">  1       -2 0.15460032E-01 0.53073868E+03</pdfrwt>
<totfact> 0.16362431E+03</totfact>
</mgrwt>
</event>
<event>
 4    1  0.5626910E-005  0.4597966E+03  0.7818608E-02  0.1024840E+00
          2   -1    0    0  501    0  0.00000000000E+00  0.00000000000E+00  0.61857699353E+03  0.61857699354E+03  0.25500000000E-02 0.  1.
         -2   -1    0    0    0  501 -0.00000000000E+00 -0.00000000000E+00 -0.85443265768E+02  0.85443265806E+02  0.25500000000E-02 0. -1.
    5000001    1    1    2    0    0 -0.10799664348E+03  0.12482420940E+02  0.36544387624E+03  0.42688676779E+03  0.19200000000E+03 0.  0.
   -5000001    1    1    2    0    0  0.10799664348E+03 -0.12482420940E+02  0.16768985152E+03  0.27713349155E+03  0.19200000000E+03 0.  0.
<mgrwt>
<rscale>  0 0.45979664E+03</rscale>
<asrwt>0</asrwt>
<pdfrwt beam="1">  1        2 0.88368139E-01 0.45979664E+03</pdfrwt>
<pdfrwt beam="2">  1       -2 0.12206181E-01 0.45979664E+03</pdfrwt>
<totfact> 0.25711007E+03</totfact>
</mgrwt>
</event>
<event>
 4    1  0.5626910E-005  0.8106553E+03  0.7818608E-02  0.9544721E-01
          2   -1    0    0  501    0  0.00000000000E+00  0.00000000000E+00  0.19418841755E+04  0.19418841755E+04  0.25500000000E-02 0.  1.
         -2   -1    0    0    0  501 -0.00000000000E+00 -0.00000000000E+00 -0.84603657294E+02  0.84603657332E+02  0.25500000000E-02 0. -1.
    5000001    1    1    2    0    0 -0.22302144072E+03  0.27813955394E+03  0.88348217538E+03  0.97185643421E+03  0.19200000000E+03 0.  0.
   -5000001    1    1    2    0    0  0.22302144072E+03 -0.27813955394E+03  0.97379834285E+03  0.10546313987E+04  0.19200000000E+03 0.  0.
<mgrwt>
<rscale>  0 0.81065530E+03</rscale>
<asrwt>0</asrwt>
<pdfrwt beam="1">  1        2 0.27741202E+00 0.81065530E+03</pdfrwt>
<pdfrwt beam="2">  1       -2 0.12086237E-01 0.81065530E+03</pdfrwt>
<totfact> 0.43864783E+02</totfact>
</mgrwt>
</event>
<event>
 4    1  0.5626910E-005  0.7715556E+03  0.7818608E-02  0.9602127E-01
          2   -1    0    0  501    0  0.00000000000E+00  0.00000000000E+00  0.35617314019E+03  0.35617314020E+03  0.25500000000E-02 0.  1.
         -2   -1    0    0    0  501 -0.00000000000E+00 -0.00000000000E+00 -0.41784318482E+03  0.41784318482E+03  0.25500000000E-02 0. -1.
    5000001    1    1    2    0    0 -0.75026555092E+02 -0.31279537843E+03  0.61603230121E+02  0.37964310964E+03  0.19200000000E+03 0.  0.
   -5000001    1    1    2    0    0  0.75026555092E+02  0.31279537843E+03 -0.12327327475E+03  0.39437321538E+03  0.19200000000E+03 0.  0.
<mgrwt>
<rscale>  0 0.77155562E+03</rscale>
<asrwt>0</asrwt>
<pdfrwt beam="1">  1        2 0.50881877E-01 0.77155562E+03</pdfrwt>
<pdfrwt beam="2">  1       -2 0.59691883E-01 0.77155562E+03</pdfrwt>
<totfact> 0.25985249E+02</totfact>
</mgrwt>
</event>
<event>
 4    1  0.5626910E-005  0.1468306E+04  0.7818608E-02  0.8905807E-01
          2   -1    0    0  501    0  0.00000000000E+00  0.00000000000E+00  0.76842671452E+03  0.76842671452E+03  0.25500000000E-02 0.  1.
         -2   -1    0    0    0  501 -0.00000000000E+00 -0.00000000000E+00 -0.70140806233E+03  0.70140806234E+03  0.25500000000E-02 0. -1.
    5000001    1    1    2    0    0  0.38884748495E+03  0.17981025180E+03 -0.53150953424E+03  0.70915476322E+03  0.19200000000E+03 0.  0.
   -5000001    1    1    2    0    0 -0.38884748495E+03 -0.17981025180E+03  0.59852818643E+03  0.76068001364E+03  0.19200000000E+03 0.  0.
<mgrwt>
<rscale>  0 0.14683061E+04</rscale>
<asrwt>0</asrwt>
<pdfrwt beam="1">  1        2 0.10977525E+00 0.14683061E+04</pdfrwt>
<pdfrwt beam="2">  1       -2 0.10020115E+00 0.14683061E+04</pdfrwt>
<totfact> 0.31936331E+01</totfact>
</mgrwt>
</event>
<event>
 4    1  0.5626910E-005  0.8472350E+03  0.7818608E-02  0.9494056E-01
         -2   -1    0    0    0  501 -0.00000000000E+00  0.00000000000E+00  0.85151589559E+02  0.85151589597E+02  0.25500000000E-02 0. -1.
          2   -1    0    0  501    0  0.00000000000E+00 -0.00000000000E+00 -0.21074390067E+04  0.21074390067E+04  0.25500000000E-02 0.  1.
    5000001    1    1    2    0    0 -0.10313687500E+03 -0.32895018580E+03 -0.61238017151E+03  0.72850457389E+03  0.19200000000E+03 0.  0.
   -5000001    1    1    2    0    0  0.10313687500E+03  0.32895018580E+03 -0.14099072456E+04  0.14640860224E+04  0.19200000000E+03 0.  0.
<mgrwt>
<rscale>  0 0.84723499E+03</rscale>
<asrwt>0</asrwt>
<pdfrwt beam="1">  1        2 0.30106268E+00 0.84723499E+03</pdfrwt>
<pdfrwt beam="2">  1       -2 0.12164514E-01 0.84723499E+03</pdfrwt>
<totfact> 0.35676823E+02</totfact>
</mgrwt>
</event>
<event>
 4    1  0.5626910E-005  0.4716565E+03  0.7818608E-02  0.1021454E+00
          2   -1    0    0  501    0  0.00000000000E+00  0.00000000000E+00  0.56750385467E+02  0.56750385524E+02  0.25500000000E-02 0.  1.
         -2   -1    0    0    0  501 -0.00000000000E+00 -0.00000000000E+00 -0.97999287040E+03  0.97999287041E+03  0.25500000000E-02 0. -1.
    5000001    1    1    2    0    0  0.77748378191E+02  0.11215052760E+03 -0.48653074885E+03  0.54055408678E+03  0.19200000000E+03 0.  0.
   -5000001    1    1    2    0    0 -0.77748378191E+02 -0.11215052760E+03 -0.43671173608E+03  0.49618916915E+03  0.19200000000E+03 0.  0.
<mgrwt>
<rscale>  0 0.47165654E+03</rscale>
<asrwt>0</asrwt>
<pdfrwt beam="1">  1        2 0.81071985E-02 0.47165654E+03</pdfrwt>
<pdfrwt beam="2">  1       -2 0.13999897E+00 0.47165654E+03</pdfrwt>
<totfact> 0.31731167E+02</totfact>
</mgrwt>
</event>
<event>
 4    1  0.5626910E-005  0.8423768E+03  0.7818608E-02  0.9500626E-01
         -2   -1    0    0    0  501 -0.00000000000E+00  0.00000000000E+00  0.16747100957E+04  0.16747100957E+04  0.25500000000E-02 0. -1.
          2   -1    0    0  501    0  0.00000000000E+00 -0.00000000000E+00 -0.10592857977E+03  0.10592857980E+03  0.25500000000E-02 0.  1.
    5000001    1    1    2    0    0  0.24535943993E+03 -0.13355137105E+03  0.25594064410E+03  0.42474325983E+03  0.19200000000E+03 0.  0.
   -5000001    1    1    2    0    0 -0.24535943993E+03  0.13355137105E+03  0.13128408719E+04  0.13558954157E+04  0.19200000000E+03 0.  0.
<mgrwt>
<rscale>  0 0.84237679E+03</rscale>
<asrwt>0</asrwt>
<pdfrwt beam="1">  1        2 0.15132655E-01 0.84237679E+03</pdfrwt>
<pdfrwt beam="2">  1       -2 0.23924429E+00 0.84237679E+03</pdfrwt>
<totfact> 0.30257813E+01</totfact>
</mgrwt>
</event>
<event>
 4    1  0.5626910E-005  0.4216977E+03  0.7818608E-02  0.1036515E+00
          2   -1    0    0  501    0  0.00000000000E+00  0.00000000000E+00  0.29204377526E+03  0.29204377528E+03  0.25500000000E-02 0. -1.
         -2   -1    0    0    0  501 -0.00000000000E+00 -0.00000000000E+00 -0.15222800837E+03  0.15222800839E+03  0.25500000000E-02 0.  1.
    5000001    1    1    2    0    0  0.36199085681E+02  0.76482108815E+02  0.91839448898E+02  0.22903792513E+03  0.19200000000E+03 0.  0.
   -5000001    1    1    2    0    0 -0.36199085681E+02 -0.76482108815E+02  0.47976317998E+02  0.21523385854E+03  0.19200000000E+03 0.  0.
<mgrwt>
<rscale>  0 0.42169772E+03</rscale>
<asrwt>0</asrwt>
<pdfrwt beam="1">  1        2 0.41720539E-01 0.42169772E+03</pdfrwt>
<pdfrwt beam="2">  1       -2 0.21746858E-01 0.42169772E+03</pdfrwt>
<totfact> 0.22358195E+03</totfact>
</mgrwt>
</event>
<event>
 4    1  0.5626910E-005  0.5513460E+03  0.7818608E-02  0.1001183E+00
         -2   -1    0    0    0  501 -0.00000000000E+00  0.00000000000E+00  0.47010767245E+02  0.47010767314E+02  0.25500000000E-02 0. -1.
          2   -1    0    0  501    0  0.00000000000E+00 -0.00000000000E+00 -0.16165571814E+04  0.16165571814E+04  0.25500000000E-02 0.  1.
    5000001    1    1    2    0    0 -0.15021300284E+03  0.11832119096E+03 -0.93766779768E+03  0.97603726838E+03  0.19200000000E+03 0.  0.
   -5000001    1    1    2    0    0  0.15021300284E+03 -0.11832119096E+03 -0.63187861649E+03  0.68753068036E+03  0.19200000000E+03 0.  0.
<mgrwt>
<rscale>  0 0.55134597E+03</rscale>
<asrwt>0</asrwt>
<pdfrwt beam="1">  1        2 0.23093670E+00 0.55134597E+03</pdfrwt>
<pdfrwt beam="2">  1       -2 0.67158249E-02 0.55134597E+03</pdfrwt>
<totfact> 0.16778952E+03</totfact>
</mgrwt>
</event>
<event>
 4    1  0.5626910E-005  0.6754718E+03  0.7818608E-02  0.9760123E-01
          2   -1    0    0  501    0  0.00000000000E+00  0.00000000000E+00  0.20093524585E+04  0.20093524585E+04  0.25500000000E-02 0.  1.
         -2   -1    0    0    0  501 -0.00000000000E+00 -0.00000000000E+00 -0.56767310874E+02  0.56767310931E+02  0.25500000000E-02 0. -1.
    5000001    1    1    2    0    0  0.22142992237E+03  0.84801729587E+02  0.53325497708E+03  0.61436749136E+03  0.19200000000E+03 0.  0.
   -5000001    1    1    2    0    0 -0.22142992237E+03 -0.84801729587E+02  0.14193301706E+04  0.14517522781E+04  0.19200000000E+03 0.  0.
<mgrwt>
<rscale>  0 0.67547179E+03</rscale>
<asrwt>0</asrwt>
<pdfrwt beam="1">  1        2 0.28705038E+00 0.67547179E+03</pdfrwt>
<pdfrwt beam="2">  1       -2 0.81096149E-02 0.67547179E+03</pdfrwt>
<totfact> 0.78257794E+02</totfact>
</mgrwt>
</event>
<event>
 4    1  0.5626910E-005  0.6544946E+03  0.7818608E-02  0.9798382E-01
         -2   -1    0    0    0  501 -0.00000000000E+00  0.00000000000E+00  0.71450974882E+02  0.71450974927E+02  0.25500000000E-02 0. -1.
          2   -1    0    0  501    0  0.00000000000E+00 -0.00000000000E+00 -0.14988008548E+04  0.14988008548E+04  0.25500000000E-02 0.  1.
    5000001    1    1    2    0    0  0.25195031303E+03 -0.56068802277E+02 -0.85770806137E+03  0.91605119364E+03  0.19200000000E+03 0.  0.
   -5000001    1    1    2    0    0 -0.25195031303E+03  0.56068802277E+02 -0.56964181852E+03  0.65420063606E+03  0.19200000000E+03 0.  0.
<mgrwt>
<rscale>  0 0.65449456E+03</rscale>
<asrwt>0</asrwt>
<pdfrwt beam="1">  1        2 0.21411439E+00 0.65449456E+03</pdfrwt>
<pdfrwt beam="2">  1       -2 0.10207283E-01 0.65449456E+03</pdfrwt>
<totfact> 0.98467995E+02</totfact>
</mgrwt>
</event>
<event>
 4    1  0.5626910E-005  0.4126347E+03  0.7818608E-02  0.1039490E+00
          2   -1    0    0  501    0  0.00000000000E+00  0.00000000000E+00  0.53278783510E+03  0.53278783510E+03  0.25500000000E-02 0.  1.
         -2   -1    0    0    0  501 -0.00000000000E+00 -0.00000000000E+00 -0.79894552224E+02  0.79894552265E+02  0.25500000000E-02 0. -1.
    5000001    1    1    2    0    0 -0.71454982058E+02  0.24416744655E+02  0.22781850035E+03  0.30735526835E+03  0.19200000000E+03 0.  0.
   -5000001    1    1    2    0    0  0.71454982058E+02 -0.24416744655E+02  0.22507478252E+03  0.30532711901E+03  0.19200000000E+03 0.  0.
<mgrwt>
<rscale>  0 0.41263468E+03</rscale>
<asrwt>0</asrwt>
<pdfrwt beam="1">  1        2 0.76112546E-01 0.41263468E+03</pdfrwt>
<pdfrwt beam="2">  1       -2 0.11413508E-01 0.41263468E+03</pdfrwt>
<totfact> 0.34033309E+03</totfact>
</mgrwt>
</event>
<event>
 4    1  0.5626910E-005  0.5758097E+03  0.7818608E-02  0.9956904E-01
         -2   -1    0    0    0  501 -0.00000000000E+00  0.00000000000E+00  0.71731066759E+02  0.71731066805E+02  0.25500000000E-02 0. -1.
          2   -1    0    0  501    0  0.00000000000E+00 -0.00000000000E+00 -0.11555552241E+04  0.11555552241E+04  0.25500000000E-02 0.  1.
    5000001    1    1    2    0    0 -0.12725755229E+03  0.16908910957E+03 -0.46686959285E+03  0.54737265946E+03  0.19200000000E+03 0.  0.
   -5000001    1    1    2    0    0  0.12725755229E+03 -0.16908910957E+03 -0.61695456451E+03  0.67991363148E+03  0.19200000000E+03 0.  0.
<mgrwt>
<rscale>  0 0.57580972E+03</rscale>
<asrwt>0</asrwt>
<pdfrwt beam="1">  1        2 0.16507931E+00 0.57580972E+03</pdfrwt>
<pdfrwt beam="2">  1       -2 0.10247296E-01 0.57580972E+03</pdfrwt>
<totfact> 0.15057682E+03</totfact>
</mgrwt>
</event>
<event>
 4    1  0.5626910E-005  0.5212183E+03  0.7818608E-02  0.1008384E+00
         -2   -1    0    0    0  501 -0.00000000000E+00  0.00000000000E+00  0.10271407471E+03  0.10271407474E+03  0.25500000000E-02 0. -1.
          2   -1    0    0  501    0  0.00000000000E+00 -0.00000000000E+00 -0.66122523748E+03  0.66122523749E+03  0.25500000000E-02 0.  1.
    5000001    1    1    2    0    0 -0.23139103995E+02  0.16480237559E+03 -0.36418788038E+03  0.44406311866E+03  0.19200000000E+03 0.  0.
   -5000001    1    1    2    0    0  0.23139103995E+02 -0.16480237559E+03 -0.19432328239E+03  0.31987619357E+03  0.19200000000E+03 0.  0.
<mgrwt>
<rscale>  0 0.52121834E+03</rscale>
<asrwt>0</asrwt>
<pdfrwt beam="1">  1        2 0.94460746E-01 0.52121834E+03</pdfrwt>
<pdfrwt beam="2">  1       -2 0.14673440E-01 0.52121834E+03</pdfrwt>
<totfact> 0.17523085E+03</totfact>
</mgrwt>
</event>
<event>
 4    1  0.5626910E-005  0.4647875E+03  0.7818608E-02  0.1023402E+00
         -2   -1    0    0    0  501 -0.00000000000E+00  0.00000000000E+00  0.25977958738E+03  0.25977958739E+03  0.25500000000E-02 0. -1.
          2   -1    0    0  501    0  0.00000000000E+00 -0.00000000000E+00 -0.20789494073E+03  0.20789494074E+03  0.25500000000E-02 0.  1.
    5000001    1    1    2    0    0  0.85335931425E+02 -0.90507908754E+02 -0.15164328795E+02  0.22927681873E+03  0.19200000000E+03 0.  0.
   -5000001    1    1    2    0    0 -0.85335931425E+02  0.90507908754E+02  0.67048975447E+02  0.23839770940E+03  0.19200000000E+03 0.  0.
<mgrwt>
<rscale>  0 0.46478753E+03</rscale>
<asrwt>0</asrwt>
<pdfrwt beam="1">  1        2 0.29699277E-01 0.46478753E+03</pdfrwt>
<pdfrwt beam="2">  1       -2 0.37111369E-01 0.46478753E+03</pdfrwt>
<totfact> 0.12297719E+03</totfact>
</mgrwt>
</event>
<event>
 4    1  0.5626910E-005  0.5258595E+03  0.7818608E-02  0.1007241E+00
         -2   -1    0    0    0  501 -0.00000000000E+00  0.00000000000E+00  0.25178333390E+02  0.25178333519E+02  0.25500000000E-02 0. -1.
          2   -1    0    0  501    0  0.00000000000E+00 -0.00000000000E+00 -0.27456964548E+04  0.27456964548E+04  0.25500000000E-02 0.  1.
    5000001    1    1    2    0    0  0.13002997453E+03 -0.10150771417E+03 -0.17349472793E+04  0.17533161928E+04  0.19200000000E+03 0.  0.
   -5000001    1    1    2    0    0 -0.13002997453E+03  0.10150771417E+03 -0.98557084212E+03  0.10175585954E+04  0.19200000000E+03 0.  0.
<mgrwt>
<rscale>  0 0.52585953E+03</rscale>
<asrwt>0</asrwt>
<pdfrwt beam="1">  1        2 0.39224216E+00 0.52585953E+03</pdfrwt>
<pdfrwt beam="2">  1       -2 0.35969065E-02 0.52585953E+03</pdfrwt>
<totfact> 0.11823247E+03</totfact>
</mgrwt>
</event>
<event>
 4    1  0.5626910E-005  0.4203752E+03  0.7818608E-02  0.1036944E+00
         -2   -1    0    0    0  501 -0.00000000000E+00  0.00000000000E+00  0.13432982341E+04  0.13432982341E+04  0.25500000000E-02 0. -1.
          2   -1    0    0  501    0  0.00000000000E+00 -0.00000000000E+00 -0.32888317601E+02  0.32888317700E+02  0.25500000000E-02 0.  1.
    5000001    1    1    2    0    0 -0.45345018260E+02 -0.51756861960E+02  0.48892510064E+03  0.52976098146E+03  0.19200000000E+03 0.  0.
   -5000001    1    1    2    0    0  0.45345018260E+02  0.51756861960E+02  0.82148481583E+03  0.84642557031E+03  0.19200000000E+03 0.  0.
<mgrwt>
<rscale>  0 0.42037516E+03</rscale>
<asrwt>0</asrwt>
<pdfrwt beam="1">  1        2 0.46983321E-02 0.42037516E+03</pdfrwt>
<pdfrwt beam="2">  1       -2 0.19189971E+00 0.42037516E+03</pdfrwt>
<totfact> 0.27767008E+02</totfact>
</mgrwt>
</event>
<event>
 4    1  0.5626910E-005  0.6060299E+03  0.7818608E-02  0.9892974E-01
          2   -1    0    0  501    0  0.00000000000E+00  0.00000000000E+00  0.87625066592E+03  0.87625066592E+03  0.25500000000E-02 0.  1.
         -2   -1    0    0    0  501 -0.00000000000E+00 -0.00000000000E+00 -0.10478516130E+03  0.10478516133E+03  0.25500000000E-02 0. -1.
    5000001    1    1    2    0    0  0.14986899370E+03 -0.13300417200E+03  0.18877674884E+03  0.33563594257E+03  0.19200000000E+03 0.  0.
   -5000001    1    1    2    0    0 -0.14986899370E+03  0.13300417200E+03  0.58268875577E+03  0.64539988468E+03  0.19200000000E+03 0.  0.
<mgrwt>
<rscale>  0 0.60602992E+03</rscale>
<asrwt>0</asrwt>
<pdfrwt beam="1">  1        2 0.12517867E+00 0.60602992E+03</pdfrwt>
<pdfrwt beam="2">  1       -2 0.14969309E-01 0.60602992E+03</pdfrwt>
<totfact> 0.11889603E+03</totfact>
</mgrwt>
</event>
<event>
 4    1  0.5626910E-005  0.6064876E+03  0.7818608E-02  0.9892037E-01
          2   -1    0    0  501    0  0.00000000000E+00  0.00000000000E+00  0.41980251574E+03  0.41980251575E+03  0.25500000000E-02 0.  1.
         -2   -1    0    0    0  501 -0.00000000000E+00 -0.00000000000E+00 -0.21904774702E+03  0.21904774704E+03  0.25500000000E-02 0. -1.
    5000001    1    1    2    0    0  0.58698813652E+02  0.22326753127E+03  0.14505347157E+03  0.33346431722E+03  0.19200000000E+03 0.  0.
   -5000001    1    1    2    0    0 -0.58698813652E+02 -0.22326753127E+03  0.55701297146E+02  0.30538594557E+03  0.19200000000E+03 0.  0.
<mgrwt>
<rscale>  0 0.60648758E+03</rscale>
<asrwt>0</asrwt>
<pdfrwt beam="1">  1        2 0.59971788E-01 0.60648758E+03</pdfrwt>
<pdfrwt beam="2">  1       -2 0.31292535E-01 0.60648758E+03</pdfrwt>
<totfact> 0.77900839E+02</totfact>
</mgrwt>
</event>
<event>
 4    1  0.5626910E-005  0.7010287E+03  0.7818608E-02  0.9715475E-01
         -2   -1    0    0    0  501 -0.00000000000E+00  0.00000000000E+00  0.67765376977E+02  0.67765377025E+02  0.25500000000E-02 0. -1.
          2   -1    0    0  501    0  0.00000000000E+00 -0.00000000000E+00 -0.18130250529E+04  0.18130250529E+04  0.25500000000E-02 0.  1.
    5000001    1    1    2    0    0  0.16573972383E+03  0.21715369004E+03 -0.58653971827E+03  0.67492090075E+03  0.19200000000E+03 0.  0.
   -5000001    1    1    2    0    0 -0.16573972383E+03 -0.21715369004E+03 -0.11587199577E+04  0.12058695292E+04  0.19200000000E+03 0.  0.
<mgrwt>
<rscale>  0 0.70102875E+03</rscale>
<asrwt>0</asrwt>
<pdfrwt beam="1">  1        2 0.25900355E+00 0.70102875E+03</pdfrwt>
<pdfrwt beam="2">  1       -2 0.96807693E-02 0.70102875E+03</pdfrwt>
<totfact> 0.73834558E+02</totfact>
</mgrwt>
</event>
<event>
 4    1  0.5626910E-005  0.4335606E+03  0.7818608E-02  0.1032741E+00
         -2   -1    0    0    0  501 -0.00000000000E+00  0.00000000000E+00  0.58348820318E+02  0.58348820374E+02  0.25500000000E-02 0. -1.
          2   -1    0    0  501    0  0.00000000000E+00 -0.00000000000E+00 -0.80539230311E+03  0.80539230311E+03  0.25500000000E-02 0.  1.
    5000001    1    1    2    0    0 -0.82491659276E+02  0.55804442136E+02 -0.40243830685E+03  0.45688029114E+03  0.19200000000E+03 0.  0.
   -5000001    1    1    2    0    0  0.82491659276E+02 -0.55804442136E+02 -0.34460517594E+03  0.40686083235E+03  0.19200000000E+03 0.  0.
<mgrwt>
<rscale>  0 0.43356056E+03</rscale>
<asrwt>0</asrwt>
<pdfrwt beam="1">  1        2 0.11505604E+00 0.43356056E+03</pdfrwt>
<pdfrwt beam="2">  1       -2 0.83355462E-02 0.43356056E+03</pdfrwt>
<totfact> 0.34471927E+03</totfact>
</mgrwt>
</event>
<event>
 4    1  0.5626910E-005  0.4864581E+03  0.7818608E-02  0.1017375E+00
          2   -1    0    0  501    0  0.00000000000E+00  0.00000000000E+00  0.90731527214E+03  0.90731527214E+03  0.25500000000E-02 0.  1.
         -2   -1    0    0    0  501 -0.00000000000E+00 -0.00000000000E+00 -0.65203761223E+02  0.65203761273E+02  0.25500000000E-02 0. -1.
    5000001    1    1    2    0    0  0.97546196480E+02  0.11259696268E+03  0.44134839784E+03  0.50383106765E+03  0.19200000000E+03 0.  0.
   -5000001    1    1    2    0    0 -0.97546196480E+02 -0.11259696268E+03  0.40076311307E+03  0.46868796576E+03  0.19200000000E+03 0.  0.
<mgrwt>
<rscale>  0 0.48645809E+03</rscale>
<asrwt>0</asrwt>
<pdfrwt beam="1">  1        2 0.12961647E+00 0.48645809E+03</pdfrwt>
<pdfrwt beam="2">  1       -2 0.93148230E-02 0.48645809E+03</pdfrwt>
<totfact> 0.24757522E+03</totfact>
</mgrwt>
</event>
<event>
 4    1  0.5626910E-005  0.6742895E+03  0.7818608E-02  0.9762240E-01
         -2   -1    0    0    0  501 -0.00000000000E+00  0.00000000000E+00  0.15885226508E+03  0.15885226510E+03  0.25500000000E-02 0. -1.
          2   -1    0    0  501    0  0.00000000000E+00 -0.00000000000E+00 -0.71554899275E+03  0.71554899276E+03  0.25500000000E-02 0.  1.
    5000001    1    1    2    0    0 -0.20726513442E+03 -0.13967264326E+03 -0.43361126717E+03  0.53605038405E+03  0.19200000000E+03 0.  0.
   -5000001    1    1    2    0    0  0.20726513442E+03  0.13967264326E+03 -0.12308546050E+03  0.33835087381E+03  0.19200000000E+03 0.  0.
<mgrwt>
<rscale>  0 0.67428949E+03</rscale>
<asrwt>0</asrwt>
<pdfrwt beam="1">  1        2 0.10222128E+00 0.67428949E+03</pdfrwt>
<pdfrwt beam="2">  1       -2 0.22693181E-01 0.67428949E+03</pdfrwt>
<totfact> 0.74965679E+02</totfact>
</mgrwt>
</event>
<event>
 4    1  0.5626910E-005  0.7329237E+03  0.7818608E-02  0.9662528E-01
         -2   -1    0    0    0  501 -0.00000000000E+00  0.00000000000E+00  0.19782619820E+04  0.19782619820E+04  0.25500000000E-02 0. -1.
          2   -1    0    0  501    0  0.00000000000E+00 -0.00000000000E+00 -0.67884979443E+02  0.67884979490E+02  0.25500000000E-02 0.  1.
    5000001    1    1    2    0    0  0.22132136683E+03  0.21951476345E+03  0.91013852116E+03  0.98101274533E+03  0.19200000000E+03 0.  0.
   -5000001    1    1    2    0    0 -0.22132136683E+03 -0.21951476345E+03  0.10002384814E+04  0.10651342162E+04  0.19200000000E+03 0.  0.
<mgrwt>
<rscale>  0 0.73292366E+03</rscale>
<asrwt>0</asrwt>
<pdfrwt beam="1">  1        2 0.96978537E-02 0.73292366E+03</pdfrwt>
<pdfrwt beam="2">  1       -2 0.28260887E+00 0.73292366E+03</pdfrwt>
<totfact> 0.29135806E+01</totfact>
</mgrwt>
</event>
<event>
 4    1  0.5626910E-005  0.5200560E+03  0.7818608E-02  0.1008673E+00
          2   -1    0    0  501    0  0.00000000000E+00  0.00000000000E+00  0.89723277904E+03  0.89723277905E+03  0.25500000000E-02 0.  1.
         -2   -1    0    0    0  501 -0.00000000000E+00 -0.00000000000E+00 -0.75359009062E+02  0.75359009106E+02  0.25500000000E-02 0. -1.
    5000001    1    1    2    0    0  0.11953536504E+03 -0.80422797170E+01  0.65041464117E+03  0.68866289809E+03  0.19200000000E+03 0.  0.
   -5000001    1    1    2    0    0 -0.11953536504E+03  0.80422797170E+01  0.17145912881E+03  0.28392889006E+03  0.19200000000E+03 0.  0.
<mgrwt>
<rscale>  0 0.52005605E+03</rscale>
<asrwt>0</asrwt>
<pdfrwt beam="1">  1        2 0.12817610E+00 0.52005605E+03</pdfrwt>
<pdfrwt beam="2">  1       -2 0.10765573E-01 0.52005605E+03</pdfrwt>
<totfact> 0.19891157E+03</totfact>
</mgrwt>
</event>
<event>
 4    1  0.5626910E-005  0.8309702E+03  0.7818608E-02  0.9516240E-01
          2   -1    0    0  501    0  0.00000000000E+00  0.00000000000E+00  0.95122662750E+03  0.95122662751E+03  0.25500000000E-02 0.  1.
         -2   -1    0    0    0  501 -0.00000000000E+00 -0.00000000000E+00 -0.18147922908E+03  0.18147922910E+03  0.25500000000E-02 0. -1.
    5000001    1    1    2    0    0  0.93416906579E+02 -0.33142160153E+03  0.20611939770E+03  0.44487773883E+03  0.19200000000E+03 0.  0.
   -5000001    1    1    2    0    0 -0.93416906579E+02  0.33142160153E+03  0.56362800072E+03  0.68782811777E+03  0.19200000000E+03 0.  0.
<mgrwt>
<rscale>  0 0.83097022E+03</rscale>
<asrwt>0</asrwt>
<pdfrwt beam="1">  1        2 0.13588951E+00 0.83097022E+03</pdfrwt>
<pdfrwt beam="2">  1       -2 0.25925605E-01 0.83097022E+03</pdfrwt>
<totfact> 0.40502582E+02</totfact>
</mgrwt>
</event>
<event>
 4    1  0.5626910E-005  0.1055142E+04  0.7818608E-02  0.9250051E-01
         -2   -1    0    0    0  501 -0.00000000000E+00  0.00000000000E+00  0.56312951519E+03  0.56312951519E+03  0.25500000000E-02 0. -1.
          2   -1    0    0  501    0  0.00000000000E+00 -0.00000000000E+00 -0.49425782698E+03  0.49425782699E+03  0.25500000000E-02 0.  1.
    5000001    1    1    2    0    0 -0.41001282432E+03 -0.11724977221E+03  0.27910523227E+03  0.54462992561E+03  0.19200000000E+03 0.  0.
   -5000001    1    1    2    0    0  0.41001282432E+03  0.11724977221E+03 -0.21023354407E+03  0.51275741657E+03  0.19200000000E+03 0.  0.
<mgrwt>
<rscale>  0 0.10551420E+04</rscale>
<asrwt>0</asrwt>
<pdfrwt beam="1">  1        2 0.70608261E-01 0.10551420E+04</pdfrwt>
<pdfrwt beam="2">  1       -2 0.80447073E-01 0.10551420E+04</pdfrwt>
<totfact> 0.92553933E+01</totfact>
</mgrwt>
</event>
<event>
 4    1  0.5626910E-005  0.9639490E+03  0.7818608E-02  0.9348993E-01
          2   -1    0    0  501    0  0.00000000000E+00  0.00000000000E+00  0.15530421852E+04  0.15530421852E+04  0.25500000000E-02 0.  1.
         -2   -1    0    0    0  501 -0.00000000000E+00 -0.00000000000E+00 -0.14957700667E+03  0.14957700669E+03  0.25500000000E-02 0. -1.
    5000001    1    1    2    0    0  0.18306428224E+03  0.37539896763E+03  0.95768396289E+03  0.10622897388E+04  0.19200000000E+03 0.  0.
   -5000001    1    1    2    0    0 -0.18306428224E+03 -0.37539896763E+03  0.44578121569E+03  0.64032945316E+03  0.19200000000E+03 0.  0.
<mgrwt>
<rscale>  0 0.96394896E+03</rscale>
<asrwt>0</asrwt>
<pdfrwt beam="1">  1        2 0.22186319E+00 0.96394896E+03</pdfrwt>
<pdfrwt beam="2">  1       -2 0.21368142E-01 0.96394896E+03</pdfrwt>
<totfact> 0.25998902E+02</totfact>
</mgrwt>
</event>
<event>
 4    1  0.5626910E-005  0.1316325E+04  0.7818608E-02  0.9016719E-01
          2   -1    0    0  501    0  0.00000000000E+00  0.00000000000E+00  0.20843949162E+04  0.20843949162E+04  0.25500000000E-02 0.  1.
         -2   -1    0    0    0  501 -0.00000000000E+00 -0.00000000000E+00 -0.20781948366E+03  0.20781948367E+03  0.25500000000E-02 0. -1.
    5000001    1    1    2    0    0  0.41042256421E+03  0.47735346562E+03  0.93990530814E+03  0.11474314797E+04  0.19200000000E+03 0.  0.
   -5000001    1    1    2    0    0 -0.41042256421E+03 -0.47735346562E+03  0.93667012442E+03  0.11447829202E+04  0.19200000000E+03 0.  0.
<mgrwt>
<rscale>  0 0.13163250E+04</rscale>
<asrwt>0</asrwt>
<pdfrwt beam="1">  1        2 0.29777072E+00 0.13163250E+04</pdfrwt>
<pdfrwt beam="2">  1       -2 0.29688496E-01 0.13163250E+04</pdfrwt>
<totfact> 0.74377387E+01</totfact>
</mgrwt>
</event>
<event>
 4    1  0.5626910E-005  0.3979875E+03  0.7818608E-02  0.1044479E+00
          2   -1    0    0  501    0  0.00000000000E+00  0.00000000000E+00  0.42224216269E+03  0.42224216270E+03  0.25500000000E-02 0.  1.
         -2   -1    0    0    0  501 -0.00000000000E+00 -0.00000000000E+00 -0.93781515225E+02  0.93781515259E+02  0.25500000000E-02 0. -1.
    5000001    1    1    2    0    0 -0.36457470239E+02 -0.36034613522E+02  0.17763408611E+03  0.26654363443E+03  0.19200000000E+03 0.  0.
   -5000001    1    1    2    0    0  0.36457470239E+02  0.36034613522E+02  0.15082656135E+03  0.24948004353E+03  0.19200000000E+03 0.  0.
<mgrwt>
<rscale>  0 0.39798749E+03</rscale>
<asrwt>0</asrwt>
<pdfrwt beam="1">  1        2 0.60320309E-01 0.39798749E+03</pdfrwt>
<pdfrwt beam="2">  1       -2 0.13397359E-01 0.39798749E+03</pdfrwt>
<totfact> 0.33919603E+03</totfact>
</mgrwt>
</event>
<event>
 4    1  0.5626910E-005  0.5735119E+03  0.7818608E-02  0.9961937E-01
          2   -1    0    0  501    0  0.00000000000E+00  0.00000000000E+00  0.49484285408E+03  0.49484285409E+03  0.25500000000E-02 0.  1.
         -2   -1    0    0    0  501 -0.00000000000E+00 -0.00000000000E+00 -0.16617188993E+03  0.16617188995E+03  0.25500000000E-02 0. -1.
    5000001    1    1    2    0    0  0.14244552147E+03 -0.15403808568E+03  0.12204193266E+03  0.30947809576E+03  0.19200000000E+03 0.  0.
   -5000001    1    1    2    0    0 -0.14244552147E+03  0.15403808568E+03  0.20662903149E+03  0.35153664828E+03  0.19200000000E+03 0.  0.
<mgrwt>
<rscale>  0 0.57351189E+03</rscale>
<asrwt>0</asrwt>
<pdfrwt beam="1">  1        2 0.70691837E-01 0.57351189E+03</pdfrwt>
<pdfrwt beam="2">  1       -2 0.23738841E-01 0.57351189E+03</pdfrwt>
<totfact> 0.10707145E+03</totfact>
</mgrwt>
</event>
<event>
 4    1  0.5626910E-005  0.5077556E+03  0.7818608E-02  0.1011774E+00
          2   -1    0    0  501    0  0.00000000000E+00  0.00000000000E+00  0.11648432292E+04  0.11648432292E+04  0.25500000000E-02 0.  1.
         -2   -1    0    0    0  501 -0.00000000000E+00 -0.00000000000E+00 -0.55332703655E+02  0.55332703713E+02  0.25500000000E-02 0. -1.
    5000001    1    1    2    0    0 -0.12929073433E+03 -0.93091786594E+02  0.66766795741E+03  0.71275990071E+03  0.19200000000E+03 0.  0.
   -5000001    1    1    2    0    0  0.12929073433E+03  0.93091786594E+02  0.44184256811E+03  0.50741603218E+03  0.19200000000E+03 0.  0.
<mgrwt>
<rscale>  0 0.50775555E+03</rscale>
<asrwt>0</asrwt>
<pdfrwt beam="1">  1        2 0.16640618E+00 0.50775555E+03</pdfrwt>
<pdfrwt beam="2">  1       -2 0.79046719E-02 0.50775555E+03</pdfrwt>
<totfact> 0.22583222E+03</totfact>
</mgrwt>
</event>
<event>
 4    1  0.5626910E-005  0.6068831E+03  0.7818608E-02  0.9891228E-01
         -2   -1    0    0    0  501 -0.00000000000E+00  0.00000000000E+00  0.15991657256E+03  0.15991657258E+03  0.25500000000E-02 0. -1.
          2   -1    0    0  501    0  0.00000000000E+00 -0.00000000000E+00 -0.57577997863E+03  0.57577997863E+03  0.25500000000E-02 0.  1.
    5000001    1    1    2    0    0  0.39926740113E+02 -0.15984720400E+03 -0.48384585983E+01  0.25304680176E+03  0.19200000000E+03 0.  0.
   -5000001    1    1    2    0    0 -0.39926740113E+02  0.15984720400E+03 -0.41102494747E+03  0.48264974945E+03  0.19200000000E+03 0.  0.
<mgrwt>
<rscale>  0 0.60688306E+03</rscale>
<asrwt>0</asrwt>
<pdfrwt beam="1">  1        2 0.82254281E-01 0.60688306E+03</pdfrwt>
<pdfrwt beam="2">  1       -2 0.22845225E-01 0.60688306E+03</pdfrwt>
<totfact> 0.96265668E+02</totfact>
</mgrwt>
</event>
<event>
 4    1  0.5626910E-005  0.4282713E+03  0.7818608E-02  0.1034407E+00
          2   -1    0    0  501    0  0.00000000000E+00  0.00000000000E+00  0.49254292496E+03  0.49254292497E+03  0.25500000000E-02 0.  1.
         -2   -1    0    0    0  501 -0.00000000000E+00 -0.00000000000E+00 -0.93096598272E+02  0.93096598307E+02  0.25500000000E-02 0. -1.
    5000001    1    1    2    0    0  0.29207795043E+02 -0.88769351955E+02  0.22164410193E+03  0.30777134542E+03  0.19200000000E+03 0.  0.
   -5000001    1    1    2    0    0 -0.29207795043E+02  0.88769351955E+02  0.17780222475E+03  0.27786817786E+03  0.19200000000E+03 0.  0.
<mgrwt>
<rscale>  0 0.42827127E+03</rscale>
<asrwt>0</asrwt>
<pdfrwt beam="1">  1        2 0.70363276E-01 0.42827127E+03</pdfrwt>
<pdfrwt beam="2">  1       -2 0.13299514E-01 0.42827127E+03</pdfrwt>
<totfact> 0.28967945E+03</totfact>
</mgrwt>
</event>
<event>
 4    1  0.5626910E-005  0.5516742E+03  0.7818608E-02  0.1001107E+00
          2   -1    0    0  501    0  0.00000000000E+00  0.00000000000E+00  0.14363283069E+04  0.14363283069E+04  0.25500000000E-02 0.  1.
         -2   -1    0    0    0  501 -0.00000000000E+00 -0.00000000000E+00 -0.52972635116E+02  0.52972635178E+02  0.25500000000E-02 0. -1.
    5000001    1    1    2    0    0 -0.13774092607E+03  0.11172558622E+03  0.92959424934E+03  0.96564208573E+03  0.19200000000E+03 0.  0.
   -5000001    1    1    2    0    0  0.13774092607E+03 -0.11172558622E+03  0.45376142242E+03  0.52365885632E+03  0.19200000000E+03 0.  0.
<mgrwt>
<rscale>  0 0.55167416E+03</rscale>
<asrwt>0</asrwt>
<pdfrwt beam="1">  1        2 0.20518975E+00 0.55167416E+03</pdfrwt>
<pdfrwt beam="2">  1       -2 0.75675195E-02 0.55167416E+03</pdfrwt>
<totfact> 0.17226600E+03</totfact>
</mgrwt>
</event>
<event>
 4    1  0.5626910E-005  0.8418073E+03  0.7818608E-02  0.9501399E-01
         -2   -1    0    0    0  501 -0.00000000000E+00  0.00000000000E+00  0.32869132990E+03  0.32869132991E+03  0.25500000000E-02 0. -1.
          2   -1    0    0  501    0  0.00000000000E+00 -0.00000000000E+00 -0.53898560394E+03  0.53898560394E+03  0.25500000000E-02 0.  1.
    5000001    1    1    2    0    0  0.17657775137E+03  0.30287390139E+03  0.30751504868E+02  0.40090143112E+03  0.19200000000E+03 0.  0.
   -5000001    1    1    2    0    0 -0.17657775137E+03 -0.30287390139E+03 -0.24104577891E+03  0.46677550273E+03  0.19200000000E+03 0.  0.
<mgrwt>
<rscale>  0 0.84180733E+03</rscale>
<asrwt>0</asrwt>
<pdfrwt beam="1">  1        2 0.76997943E-01 0.84180733E+03</pdfrwt>
<pdfrwt beam="2">  1       -2 0.46955905E-01 0.84180733E+03</pdfrwt>
<totfact> 0.26586707E+02</totfact>
</mgrwt>
</event>
<event>
 4    1  0.5626910E-005  0.4570349E+03  0.7818608E-02  0.1025645E+00
         -2   -1    0    0    0  501 -0.00000000000E+00  0.00000000000E+00  0.37938623406E+03  0.37938623407E+03  0.25500000000E-02 0. -1.
          2   -1    0    0  501    0  0.00000000000E+00 -0.00000000000E+00 -0.13764398439E+03  0.13764398442E+03  0.25500000000E-02 0.  1.
    5000001    1    1    2    0    0 -0.96267206955E+02  0.77542090185E+02  0.13073863307E+03  0.26312875377E+03  0.19200000000E+03 0.  0.
   -5000001    1    1    2    0    0  0.96267206955E+02 -0.77542090185E+02  0.11100361660E+03  0.25390146471E+03  0.19200000000E+03 0.  0.
<mgrwt>
<rscale>  0 0.45703493E+03</rscale>
<asrwt>0</asrwt>
<pdfrwt beam="1">  1        2 0.19663426E-01 0.45703493E+03</pdfrwt>
<pdfrwt beam="2">  1       -2 0.54198033E-01 0.45703493E+03</pdfrwt>
<totfact> 0.93133549E+02</totfact>
</mgrwt>
</event>
<event>
 4    1  0.5626910E-005  0.1276080E+04  0.7818608E-02  0.9048752E-01
         -2   -1    0    0    0  501 -0.00000000000E+00  0.00000000000E+00  0.14259862674E+04  0.14259862674E+04  0.25500000000E-02 0. -1.
          2   -1    0    0  501    0  0.00000000000E+00 -0.00000000000E+00 -0.28548305313E+03  0.28548305314E+03  0.25500000000E-02 0.  1.
    5000001    1    1    2    0    0  0.59075244968E+03  0.29391162247E+02  0.37879135384E+03  0.72814777825E+03  0.19200000000E+03 0.  0.
   -5000001    1    1    2    0    0 -0.59075244968E+03 -0.29391162247E+02  0.76171186046E+03  0.98332154232E+03  0.19200000000E+03 0.  0.
<mgrwt>
<rscale>  0 0.12760798E+04</rscale>
<asrwt>0</asrwt>
<pdfrwt beam="1">  1        2 0.40783294E-01 0.12760798E+04</pdfrwt>
<pdfrwt beam="2">  1       -2 0.20371232E+00 0.12760798E+04</pdfrwt>
<totfact> 0.15575638E+01</totfact>
</mgrwt>
</event>
<event>
 4    1  0.5626910E-005  0.5247167E+03  0.7818608E-02  0.1007522E+00
         -2   -1    0    0    0  501 -0.00000000000E+00  0.00000000000E+00  0.10645802862E+03  0.10645802865E+03  0.25500000000E-02 0. -1.
          2   -1    0    0  501    0  0.00000000000E+00 -0.00000000000E+00 -0.64656379762E+03  0.64656379763E+03  0.25500000000E-02 0.  1.
    5000001    1    1    2    0    0  0.96472540161E+02 -0.35043325615E+02 -0.48015157939E+03  0.52720444314E+03  0.19200000000E+03 0.  0.
   -5000001    1    1    2    0    0 -0.96472540161E+02  0.35043325615E+02 -0.59954189609E+02  0.22581738314E+03  0.19200000000E+03 0.  0.
<mgrwt>
<rscale>  0 0.52471671E+03</rscale>
<asrwt>0</asrwt>
<pdfrwt beam="1">  1        2 0.92366255E-01 0.52471671E+03</pdfrwt>
<pdfrwt beam="2">  1       -2 0.15208290E-01 0.52471671E+03</pdfrwt>
<totfact> 0.16949860E+03</totfact>
</mgrwt>
</event>
<event>
 4    1  0.5626910E-005  0.5258544E+03  0.7818608E-02  0.1007242E+00
         -2   -1    0    0    0  501 -0.00000000000E+00  0.00000000000E+00  0.60928911993E+02  0.60928912046E+02  0.25500000000E-02 0. -1.
          2   -1    0    0  501    0  0.00000000000E+00 -0.00000000000E+00 -0.11346125888E+04  0.11346125888E+04  0.25500000000E-02 0.  1.
    5000001    1    1    2    0    0  0.30070455631E+01 -0.96967929961E+02 -0.19313457748E+03  0.28909650081E+03  0.19200000000E+03 0.  0.
   -5000001    1    1    2    0    0 -0.30070455631E+01  0.96967929961E+02 -0.88054909937E+03  0.90644500008E+03  0.19200000000E+03 0.  0.
<mgrwt>
<rscale>  0 0.52585439E+03</rscale>
<asrwt>0</asrwt>
<pdfrwt beam="1">  1        2 0.16208750E+00 0.52585439E+03</pdfrwt>
<pdfrwt beam="2">  1       -2 0.87041310E-02 0.52585439E+03</pdfrwt>
<totfact> 0.20147399E+03</totfact>
</mgrwt>
</event>
<event>
 4    1  0.5626910E-005  0.8830052E+03  0.7818608E-02  0.9447079E-01
          2   -1    0    0  501    0  0.00000000000E+00  0.00000000000E+00  0.60061642378E+03  0.60061642378E+03  0.25500000000E-02 0.  1.
         -2   -1    0    0    0  501 -0.00000000000E+00 -0.00000000000E+00 -0.32454083211E+03  0.32454083212E+03  0.25500000000E-02 0. -1.
    5000001    1    1    2    0    0  0.13582479863E+03  0.31010698566E+03  0.35642458630E+03  0.52774729199E+03  0.19200000000E+03 0.  0.
   -5000001    1    1    2    0    0 -0.13582479863E+03 -0.31010698566E+03 -0.80348994633E+02  0.39740996392E+03  0.19200000000E+03 0.  0.
<mgrwt>
<rscale>  0 0.88300522E+03</rscale>
<asrwt>0</asrwt>
<pdfrwt beam="1">  1        2 0.85802346E-01 0.88300522E+03</pdfrwt>
<pdfrwt beam="2">  1       -2 0.46362976E-01 0.88300522E+03</pdfrwt>
<totfact> 0.23976437E+02</totfact>
</mgrwt>
</event>
<event>
 4    1  0.5626910E-005  0.4521945E+03  0.7818608E-02  0.1027070E+00
          2   -1    0    0  501    0  0.00000000000E+00  0.00000000000E+00  0.83366382587E+03  0.83366382587E+03  0.25500000000E-02 0. -1.
         -2   -1    0    0    0  501 -0.00000000000E+00 -0.00000000000E+00 -0.61319649290E+02  0.61319649343E+02  0.25500000000E-02 0.  1.
    5000001    1    1    2    0    0  0.11070981833E+03 -0.35896030561E+02  0.33340553748E+03  0.40195577034E+03  0.19200000000E+03 0.  0.
   -5000001    1    1    2    0    0 -0.11070981833E+03  0.35896030561E+02  0.43893863909E+03  0.49302770487E+03  0.19200000000E+03 0.  0.
<mgrwt>
<rscale>  0 0.45219453E+03</rscale>
<asrwt>0</asrwt>
<pdfrwt beam="1">  1        2 0.11909481E+00 0.45219453E+03</pdfrwt>
<pdfrwt beam="2">  1       -2 0.87599514E-02 0.45219453E+03</pdfrwt>
<totfact> 0.30496703E+03</totfact>
</mgrwt>
</event>
<event>
 4    1  0.5626910E-005  0.2051222E+04  0.7818608E-02  0.8583040E-01
         -2   -1    0    0    0  501 -0.00000000000E+00  0.00000000000E+00  0.77216555315E+03  0.77216555315E+03  0.25500000000E-02 0. -1.
          2   -1    0    0  501    0  0.00000000000E+00 -0.00000000000E+00 -0.13622443126E+04  0.13622443126E+04  0.25500000000E-02 0.  1.
    5000001    1    1    2    0    0  0.45235131226E+03 -0.58109453242E+03  0.42039172700E+03  0.86941691348E+03  0.19200000000E+03 0.  0.
   -5000001    1    1    2    0    0 -0.45235131226E+03  0.58109453242E+03 -0.10104704865E+04  0.12649929523E+04  0.19200000000E+03 0.  0.
<mgrwt>
<rscale>  0 0.20512222E+04</rscale>
<asrwt>0</asrwt>
<pdfrwt beam="1">  1        2 0.19460633E+00 0.20512222E+04</pdfrwt>
<pdfrwt beam="2">  1       -2 0.11030937E+00 0.20512222E+04</pdfrwt>
<totfact> 0.10520042E+01</totfact>
</mgrwt>
</event>
<event>
 4    1  0.5626910E-005  0.1817695E+04  0.7818608E-02  0.8696946E-01
         -2   -1    0    0    0  501 -0.00000000000E+00  0.00000000000E+00  0.25527712398E+03  0.25527712400E+03  0.25500000000E-02 0. -1.
          2   -1    0    0  501    0  0.00000000000E+00 -0.00000000000E+00 -0.32357138253E+04  0.32357138253E+04  0.25500000000E-02 0.  1.
    5000001    1    1    2    0    0 -0.16179179254E+03  0.85879519141E+03 -0.11839270441E+04  0.14839989928E+04  0.19200000000E+03 0.  0.
   -5000001    1    1    2    0    0  0.16179179254E+03 -0.85879519141E+03 -0.17965096572E+04  0.20069919565E+04  0.19200000000E+03 0.  0.
<mgrwt>
<rscale>  0 0.18176949E+04</rscale>
<asrwt>0</asrwt>
<pdfrwt beam="1">  1        2 0.46224481E+00 0.18176949E+04</pdfrwt>
<pdfrwt beam="2">  1       -2 0.36468162E-01 0.18176949E+04</pdfrwt>
<totfact> 0.11611745E+01</totfact>
</mgrwt>
</event>
<event>
 4    1  0.5626910E-005  0.1173202E+04  0.7818608E-02  0.9136641E-01
          2   -1    0    0  501    0  0.00000000000E+00  0.00000000000E+00  0.12034023860E+04  0.12034023860E+04  0.25500000000E-02 0.  1.
         -2   -1    0    0    0  501 -0.00000000000E+00 -0.00000000000E+00 -0.28594008597E+03  0.28594008598E+03  0.25500000000E-02 0. -1.
    5000001    1    1    2    0    0  0.14661993909E+03  0.37884110233E+03 -0.20009631911E+02  0.44975812691E+03  0.19200000000E+03 0.  0.
   -5000001    1    1    2    0    0 -0.14661993909E+03 -0.37884110233E+03  0.93747193193E+03  0.10395843451E+04  0.19200000000E+03 0.  0.
<mgrwt>
<rscale>  0 0.11732024E+04</rscale>
<asrwt>0</asrwt>
<pdfrwt beam="1">  1        2 0.17191463E+00 0.11732024E+04</pdfrwt>
<pdfrwt beam="2">  1       -2 0.40848584E-01 0.11732024E+04</pdfrwt>
<totfact> 0.11925389E+02</totfact>
</mgrwt>
</event>
<event>
 4    1  0.5626910E-005  0.1182284E+04  0.7818608E-02  0.9128506E-01
         -2   -1    0    0    0  501 -0.00000000000E+00  0.00000000000E+00  0.15692698320E+03  0.15692698322E+03  0.25500000000E-02 0. -1.
          2   -1    0    0  501    0  0.00000000000E+00 -0.00000000000E+00 -0.22268253011E+04  0.22268253011E+04  0.25500000000E-02 0.  1.
    5000001    1    1    2    0    0 -0.51820795307E+03 -0.28941181547E+02 -0.14540522171E+04  0.15557984846E+04  0.19200000000E+03 0.  0.
   -5000001    1    1    2    0    0  0.51820795307E+03  0.28941181547E+02 -0.61584610084E+03  0.82795379976E+03  0.19200000000E+03 0.  0.
<mgrwt>
<rscale>  0 0.11822842E+04</rscale>
<asrwt>0</asrwt>
<pdfrwt beam="1">  1        2 0.31811788E+00 0.11822842E+04</pdfrwt>
<pdfrwt beam="2">  1       -2 0.22418142E-01 0.11822842E+04</pdfrwt>
<totfact> 0.10587530E+02</totfact>
</mgrwt>
</event>
<event>
 4    1  0.5626910E-005  0.6540578E+03  0.7818608E-02  0.9799195E-01
          2   -1    0    0  501    0  0.00000000000E+00  0.00000000000E+00  0.35334907143E+04  0.35334907143E+04  0.25500000000E-02 0.  1.
         -2   -1    0    0    0  501 -0.00000000000E+00 -0.00000000000E+00 -0.30266929953E+02  0.30266930061E+02  0.25500000000E-02 0. -1.
    5000001    1    1    2    0    0  0.22037236684E+03 -0.12727228934E+03  0.21490936618E+04  0.21726089806E+04  0.19200000000E+03 0.  0.
   -5000001    1    1    2    0    0 -0.22037236684E+03  0.12727228934E+03  0.13541301226E+04  0.13911486637E+04  0.19200000000E+03 0.  0.
<mgrwt>
<rscale>  0 0.65405784E+03</rscale>
<asrwt>0</asrwt>
<pdfrwt beam="1">  1        2 0.50478418E+00 0.65405784E+03</pdfrwt>
<pdfrwt beam="2">  1       -2 0.43238489E-02 0.65405784E+03</pdfrwt>
<totfact> 0.32000964E+02</totfact>
</mgrwt>
</event>
<event>
 4    1  0.5626910E-005  0.7540165E+03  0.7818608E-02  0.9629070E-01
         -2   -1    0    0    0  501 -0.00000000000E+00  0.00000000000E+00  0.85384074717E+02  0.85384074755E+02  0.25500000000E-02 0. -1.
          2   -1    0    0  501    0  0.00000000000E+00 -0.00000000000E+00 -0.16646571463E+04  0.16646571463E+04  0.25500000000E-02 0.  1.
    5000001    1    1    2    0    0  0.31548577992E+03  0.75762344302E+02 -0.78965224411E+03  0.87503478604E+03  0.19200000000E+03 0.  0.
   -5000001    1    1    2    0    0 -0.31548577992E+03 -0.75762344302E+02 -0.78962082746E+03  0.87500643501E+03  0.19200000000E+03 0.  0.
<mgrwt>
<rscale>  0 0.75401647E+03</rscale>
<asrwt>0</asrwt>
<pdfrwt beam="1">  1        2 0.23780814E+00 0.75401647E+03</pdfrwt>
<pdfrwt beam="2">  1       -2 0.12197726E-01 0.75401647E+03</pdfrwt>
<totfact> 0.60023613E+02</totfact>
</mgrwt>
</event>
<event>
 4    1  0.5626910E-005  0.6243417E+03  0.7818608E-02  0.9856153E-01
         -2   -1    0    0    0  501 -0.00000000000E+00  0.00000000000E+00  0.14014737472E+03  0.14014737474E+03  0.25500000000E-02 0. -1.
          2   -1    0    0  501    0  0.00000000000E+00 -0.00000000000E+00 -0.69534408551E+03  0.69534408551E+03  0.25500000000E-02 0.  1.
    5000001    1    1    2    0    0 -0.31664799246E+02  0.17864243007E+03 -0.50020138299E+03  0.56566880847E+03  0.19200000000E+03 0.  0.
   -5000001    1    1    2    0    0  0.31664799246E+02 -0.17864243007E+03 -0.54995327795E+02  0.26982265178E+03  0.19200000000E+03 0.  0.
<mgrwt>
<rscale>  0 0.62434173E+03</rscale>
<asrwt>0</asrwt>
<pdfrwt beam="1">  1        2 0.99334868E-01 0.62434173E+03</pdfrwt>
<pdfrwt beam="2">  1       -2 0.20021054E-01 0.62434173E+03</pdfrwt>
<totfact> 0.96900714E+02</totfact>
</mgrwt>
</event>
<event>
 4    1  0.5626910E-005  0.1315918E+04  0.7818608E-02  0.9017037E-01
         -2   -1    0    0    0  501 -0.00000000000E+00  0.00000000000E+00  0.19349792993E+03  0.19349792994E+03  0.25500000000E-02 0. -1.
          2   -1    0    0  501    0  0.00000000000E+00 -0.00000000000E+00 -0.22372846440E+04  0.22372846440E+04  0.25500000000E-02 0.  1.
    5000001    1    1    2    0    0 -0.40360795187E+03 -0.39485658788E+03 -0.50853105771E+03  0.78375949147E+03  0.19200000000E+03 0.  0.
   -5000001    1    1    2    0    0  0.40360795187E+03  0.39485658788E+03 -0.15352556563E+04  0.16470230824E+04  0.19200000000E+03 0.  0.
<mgrwt>
<rscale>  0 0.13159179E+04</rscale>
<asrwt>0</asrwt>
<pdfrwt beam="1">  1        2 0.31961208E+00 0.13159179E+04</pdfrwt>
<pdfrwt beam="2">  1       -2 0.27642563E-01 0.13159179E+04</pdfrwt>
<totfact> 0.70826722E+01</totfact>
</mgrwt>
</event>
<event>
 4    1  0.5626910E-005  0.7143697E+03  0.7818608E-02  0.9692969E-01
          2   -1    0    0  501    0  0.00000000000E+00  0.00000000000E+00  0.10357724580E+04  0.10357724580E+04  0.25500000000E-02 0.  1.
         -2   -1    0    0    0  501 -0.00000000000E+00 -0.00000000000E+00 -0.12317474632E+03  0.12317474635E+03  0.25500000000E-02 0. -1.
    5000001    1    1    2    0    0 -0.71923823110E+02 -0.81405008716E+02  0.91204863557E+03  0.93834776358E+03  0.19200000000E+03 0.  0.
   -5000001    1    1    2    0    0  0.71923823110E+02  0.81405008716E+02  0.54907609466E+00  0.22059944075E+03  0.19200000000E+03 0.  0.
<mgrwt>
<rscale>  0 0.71436968E+03</rscale>
<asrwt>0</asrwt>
<pdfrwt beam="1">  1        2 0.14796749E+00 0.71436968E+03</pdfrwt>
<pdfrwt beam="2">  1       -2 0.17596393E-01 0.71436968E+03</pdfrwt>
<totfact> 0.71514388E+02</totfact>
</mgrwt>
</event>
<event>
 4    1  0.5626910E-005  0.5295548E+03  0.7818608E-02  0.1006340E+00
         -2   -1    0    0    0  501 -0.00000000000E+00  0.00000000000E+00  0.97471379634E+02  0.97471379667E+02  0.25500000000E-02 0. -1.
          2   -1    0    0  501    0  0.00000000000E+00 -0.00000000000E+00 -0.71925813605E+03  0.71925813606E+03  0.25500000000E-02 0.  1.
    5000001    1    1    2    0    0 -0.17236946352E+03 -0.29368088781E+02 -0.39057742649E+03  0.46902925567E+03  0.19200000000E+03 0.  0.
   -5000001    1    1    2    0    0  0.17236946352E+03  0.29368088781E+02 -0.23120932993E+03  0.34770026005E+03  0.19200000000E+03 0.  0.
<mgrwt>
<rscale>  0 0.52955484E+03</rscale>
<asrwt>0</asrwt>
<pdfrwt beam="1">  1        2 0.10275116E+00 0.52955484E+03</pdfrwt>
<pdfrwt beam="2">  1       -2 0.13924483E-01 0.52955484E+03</pdfrwt>
<totfact> 0.17269813E+03</totfact>
</mgrwt>
</event>
<event>
 4    1  0.5626910E-005  0.8957825E+03  0.7818608E-02  0.9430869E-01
         -2   -1    0    0    0  501 -0.00000000000E+00  0.00000000000E+00  0.10977302738E+03  0.10977302741E+03  0.25500000000E-02 0. -1.
          2   -1    0    0  501    0  0.00000000000E+00 -0.00000000000E+00 -0.18274668839E+04  0.18274668839E+04  0.25500000000E-02 0.  1.
    5000001    1    1    2    0    0  0.34488785881E+03  0.20061852270E+03 -0.71301579198E+03  0.83931576085E+03  0.19200000000E+03 0.  0.
   -5000001    1    1    2    0    0 -0.34488785881E+03 -0.20061852270E+03 -0.10046780646E+04  0.10979241505E+04  0.19200000000E+03 0.  0.
<mgrwt>
<rscale>  0 0.89578250E+03</rscale>
<asrwt>0</asrwt>
<pdfrwt beam="1">  1        2 0.26106668E+00 0.89578250E+03</pdfrwt>
<pdfrwt beam="2">  1       -2 0.15681862E-01 0.89578250E+03</pdfrwt>
<totfact> 0.32216533E+02</totfact>
</mgrwt>
</event>
<event>
 4    1  0.5626910E-005  0.5872110E+03  0.7818608E-02  0.9932300E-01
          2   -1    0    0  501    0  0.00000000000E+00  0.00000000000E+00  0.85619156567E+03  0.85619156568E+03  0.25500000000E-02 0.  1.
         -2   -1    0    0    0  501 -0.00000000000E+00 -0.00000000000E+00 -0.10068329978E+03  0.10068329982E+03  0.25500000000E-02 0. -1.
    5000001    1    1    2    0    0  0.57615215881E+02  0.13946083492E+03  0.11212983150E+03  0.26871162366E+03  0.19200000000E+03 0.  0.
   -5000001    1    1    2    0    0 -0.57615215881E+02 -0.13946083492E+03  0.64337843439E+03  0.68816324183E+03  0.19200000000E+03 0.  0.
<mgrwt>
<rscale>  0 0.58721101E+03</rscale>
<asrwt>0</asrwt>
<pdfrwt beam="1">  1        2 0.12231309E+00 0.58721101E+03</pdfrwt>
<pdfrwt beam="2">  1       -2 0.14383328E-01 0.58721101E+03</pdfrwt>
<totfact> 0.13112114E+03</totfact>
</mgrwt>
</event>
<event>
 4    1  0.5626910E-005  0.4597961E+03  0.7818608E-02  0.1024840E+00
         -2   -1    0    0    0  501 -0.00000000000E+00  0.00000000000E+00  0.28836453181E+02  0.28836453294E+02  0.25500000000E-02 0. -1.
          2   -1    0    0  501    0  0.00000000000E+00 -0.00000000000E+00 -0.18328576719E+04  0.18328576719E+04  0.25500000000E-02 0.  1.
    5000001    1    1    2    0    0 -0.42769761362E+02  0.89159203081E+02 -0.58292569418E+03  0.62164699060E+03  0.19200000000E+03 0.  0.
   -5000001    1    1    2    0    0  0.42769761362E+02 -0.89159203081E+02 -0.12210955245E+04  0.12400471346E+04  0.19200000000E+03 0.  0.
<mgrwt>
<rscale>  0 0.45979611E+03</rscale>
<asrwt>0</asrwt>
<pdfrwt beam="1">  1        2 0.26183674E+00 0.45979611E+03</pdfrwt>
<pdfrwt beam="2">  1       -2 0.41194945E-02 0.45979611E+03</pdfrwt>
<totfact> 0.27906879E+03</totfact>
</mgrwt>
</event>
<event>
 4    1  0.5626910E-005  0.7423266E+03  0.7818608E-02  0.9647466E-01
          2   -1    0    0  501    0  0.00000000000E+00  0.00000000000E+00  0.21304016835E+03  0.21304016837E+03  0.25500000000E-02 0.  1.
         -2   -1    0    0    0  501 -0.00000000000E+00 -0.00000000000E+00 -0.64664890477E+03  0.64664890477E+03  0.25500000000E-02 0. -1.
    5000001    1    1    2    0    0 -0.20735348654E+03 -0.21303681798E+03 -0.34637736732E+03  0.49519837923E+03  0.19200000000E+03 0.  0.
   -5000001    1    1    2    0    0  0.20735348654E+03  0.21303681798E+03 -0.87231369094E+02  0.36449069391E+03  0.19200000000E+03 0.  0.
<mgrwt>
<rscale>  0 0.74232659E+03</rscale>
<asrwt>0</asrwt>
<pdfrwt beam="1">  1        2 0.30434310E-01 0.74232659E+03</pdfrwt>
<pdfrwt beam="2">  1       -2 0.92378414E-01 0.74232659E+03</pdfrwt>
<totfact> 0.17573742E+02</totfact>
</mgrwt>
</event>
<event>
 4    1  0.5626910E-005  0.4838493E+03  0.7818608E-02  0.1018083E+00
         -2   -1    0    0    0  501 -0.00000000000E+00  0.00000000000E+00  0.26604768347E+02  0.26604768470E+02  0.25500000000E-02 0. -1.
          2   -1    0    0  501    0  0.00000000000E+00 -0.00000000000E+00 -0.21998890437E+04  0.21998890437E+04  0.25500000000E-02 0.  1.
    5000001    1    1    2    0    0  0.51951136430E+00 -0.78514947484E+02 -0.16595154700E+04  0.16724295089E+04  0.19200000000E+03 0.  0.
   -5000001    1    1    2    0    0 -0.51951136430E+00  0.78514947484E+02 -0.51376880533E+03  0.55406430331E+03  0.19200000000E+03 0.  0.
<mgrwt>
<rscale>  0 0.48384931E+03</rscale>
<asrwt>0</asrwt>
<pdfrwt beam="1">  1        2 0.31426975E+00 0.48384931E+03</pdfrwt>
<pdfrwt beam="2">  1       -2 0.38006826E-02 0.48384931E+03</pdfrwt>
<totfact> 0.20690996E+03</totfact>
</mgrwt>
</event>
<event>
 4    1  0.5626910E-005  0.4292781E+03  0.7818608E-02  0.1034088E+00
         -2   -1    0    0    0  501 -0.00000000000E+00  0.00000000000E+00  0.48238162207E+02  0.48238162274E+02  0.25500000000E-02 0. -1.
          2   -1    0    0  501    0  0.00000000000E+00 -0.00000000000E+00 -0.95505132315E+03  0.95505132315E+03  0.25500000000E-02 0.  1.
    5000001    1    1    2    0    0  0.71855855297E+01 -0.45743843646E+02 -0.64980812350E+03  0.67916031188E+03  0.19200000000E+03 0.  0.
   -5000001    1    1    2    0    0 -0.71855855297E+01  0.45743843646E+02 -0.25700503744E+03  0.32412917354E+03  0.19200000000E+03 0.  0.
<mgrwt>
<rscale>  0 0.42927809E+03</rscale>
<asrwt>0</asrwt>
<pdfrwt beam="1">  1        2 0.13643589E+00 0.42927809E+03</pdfrwt>
<pdfrwt beam="2">  1       -2 0.68911666E-02 0.42927809E+03</pdfrwt>
<totfact> 0.37223889E+03</totfact>
</mgrwt>
</event>
<event>
 4    1  0.5626910E-005  0.6039983E+03  0.7818608E-02  0.9897145E-01
          2   -1    0    0  501    0  0.00000000000E+00  0.00000000000E+00  0.28566363552E+03  0.28566363553E+03  0.25500000000E-02 0.  1.
         -2   -1    0    0    0  501 -0.00000000000E+00 -0.00000000000E+00 -0.31926876147E+03  0.31926876148E+03  0.25500000000E-02 0. -1.
    5000001    1    1    2    0    0  0.16345835570E+03 -0.14716111081E+03  0.60546721824E+02  0.29816930108E+03  0.19200000000E+03 0.  0.
   -5000001    1    1    2    0    0 -0.16345835570E+03  0.14716111081E+03 -0.94151847773E+02  0.30676309593E+03  0.19200000000E+03 0.  0.
<mgrwt>
<rscale>  0 0.60399826E+03</rscale>
<asrwt>0</asrwt>
<pdfrwt beam="1">  1        2 0.40809091E-01 0.60399826E+03</pdfrwt>
<pdfrwt beam="2">  1       -2 0.45609823E-01 0.60399826E+03</pdfrwt>
<totfact> 0.57818150E+02</totfact>
</mgrwt>
</event>
<event>
 4    1  0.5626910E-005  0.4709228E+03  0.7818608E-02  0.1021660E+00
         -2   -1    0    0    0  501 -0.00000000000E+00  0.00000000000E+00  0.70933086510E+02  0.70933086556E+02  0.25500000000E-02 0. -1.
          2   -1    0    0  501    0  0.00000000000E+00 -0.00000000000E+00 -0.78161078683E+03  0.78161078684E+03  0.25500000000E-02 0.  1.
    5000001    1    1    2    0    0 -0.71586743775E+02  0.11174710523E+03 -0.41160574448E+03  0.47317583022E+03  0.19200000000E+03 0.  0.
   -5000001    1    1    2    0    0  0.71586743775E+02 -0.11174710523E+03 -0.29907195584E+03  0.37936804318E+03  0.19200000000E+03 0.  0.
<mgrwt>
<rscale>  0 0.47092278E+03</rscale>
<asrwt>0</asrwt>
<pdfrwt beam="1">  1        2 0.11165868E+00 0.47092278E+03</pdfrwt>
<pdfrwt beam="2">  1       -2 0.10133299E-01 0.47092278E+03</pdfrwt>
<totfact> 0.26211874E+03</totfact>
</mgrwt>
</event>
<event>
 4    1  0.5626910E-005  0.7638941E+03  0.7818608E-02  0.9613801E-01
         -2   -1    0    0    0  501 -0.00000000000E+00  0.00000000000E+00  0.42369949919E+03  0.42369949920E+03  0.25500000000E-02 0. -1.
          2   -1    0    0  501    0  0.00000000000E+00 -0.00000000000E+00 -0.34430903286E+03  0.34430903287E+03  0.25500000000E-02 0.  1.
    5000001    1    1    2    0    0 -0.31038189323E+03  0.36216499940E+02 -0.67514049881E+02  0.37292184361E+03  0.19200000000E+03 0.  0.
   -5000001    1    1    2    0    0  0.31038189323E+03 -0.36216499940E+02  0.14690451621E+03  0.39508668846E+03  0.19200000000E+03 0.  0.
<mgrwt>
<rscale>  0 0.76389414E+03</rscale>
<asrwt>0</asrwt>
<pdfrwt beam="1">  1        2 0.49187005E-01 0.76389414E+03</pdfrwt>
<pdfrwt beam="2">  1       -2 0.60528500E-01 0.76389414E+03</pdfrwt>
<totfact> 0.26208436E+02</totfact>
</mgrwt>
</event>
<event>
 4    1  0.5626910E-005  0.6244371E+03  0.7818608E-02  0.9855965E-01
         -2   -1    0    0    0  501 -0.00000000000E+00  0.00000000000E+00  0.87606004353E+02  0.87606004390E+02  0.25500000000E-02 0. -1.
          2   -1    0    0  501    0  0.00000000000E+00 -0.00000000000E+00 -0.11127138554E+04  0.11127138554E+04  0.25500000000E-02 0.  1.
    5000001    1    1    2    0    0  0.93894205532E+02  0.22266968200E+03 -0.42201432107E+03  0.52283649098E+03  0.19200000000E+03 0.  0.
   -5000001    1    1    2    0    0 -0.93894205532E+02 -0.22266968200E+03 -0.60309352999E+03  0.67748336882E+03  0.19200000000E+03 0.  0.
<mgrwt>
<rscale>  0 0.62443707E+03</rscale>
<asrwt>0</asrwt>
<pdfrwt beam="1">  1        2 0.15895911E+00 0.62443707E+03</pdfrwt>
<pdfrwt beam="2">  1       -2 0.12515144E-01 0.62443707E+03</pdfrwt>
<totfact> 0.11471401E+03</totfact>
</mgrwt>
</event>
<event>
 4    1  0.5626910E-005  0.5692748E+03  0.7818608E-02  0.9971285E-01
          2   -1    0    0  501    0  0.00000000000E+00  0.00000000000E+00  0.12642756768E+04  0.12642756768E+04  0.25500000000E-02 0.  1.
         -2   -1    0    0    0  501 -0.00000000000E+00 -0.00000000000E+00 -0.64082895675E+02  0.64082895726E+02  0.25500000000E-02 0. -1.
    5000001    1    1    2    0    0  0.19946529411E+03 -0.16206392226E+02  0.74960661028E+03  0.79926411209E+03  0.19200000000E+03 0.  0.
   -5000001    1    1    2    0    0 -0.19946529411E+03  0.16206392226E+02  0.45058617084E+03  0.52909446043E+03  0.19200000000E+03 0.  0.
<mgrwt>
<rscale>  0 0.56927479E+03</rscale>
<asrwt>0</asrwt>
<pdfrwt beam="1">  1        2 0.18061079E+00 0.56927479E+03</pdfrwt>
<pdfrwt beam="2">  1       -2 0.91547005E-02 0.56927479E+03</pdfrwt>
<totfact> 0.15713031E+03</totfact>
</mgrwt>
</event>
<event>
 4    1  0.5626910E-005  0.5306575E+03  0.7818608E-02  0.1006073E+00
         -2   -1    0    0    0  501 -0.00000000000E+00  0.00000000000E+00  0.29926565620E+02  0.29926565729E+02  0.25500000000E-02 0. -1.
          2   -1    0    0  501    0  0.00000000000E+00 -0.00000000000E+00 -0.23524034555E+04  0.23524034555E+04  0.25500000000E-02 0.  1.
    5000001    1    1    2    0    0  0.15910587506E+03  0.46594826653E+02 -0.81205722102E+03  0.85075653836E+03  0.19200000000E+03 0.  0.
   -5000001    1    1    2    0    0 -0.15910587506E+03 -0.46594826653E+02 -0.15104196688E+04  0.15315734829E+04  0.19200000000E+03 0.  0.
<mgrwt>
<rscale>  0 0.53065754E+03</rscale>
<asrwt>0</asrwt>
<pdfrwt beam="1">  1        2 0.33605752E+00 0.53065754E+03</pdfrwt>
<pdfrwt beam="2">  1       -2 0.42752251E-02 0.53065754E+03</pdfrwt>
<totfact> 0.14447459E+03</totfact>
</mgrwt>
</event>
<event>
 4    1  0.5626910E-005  0.6016293E+03  0.7818608E-02  0.9902032E-01
          2   -1    0    0  501    0  0.00000000000E+00  0.00000000000E+00  0.96553867439E+03  0.96553867440E+03  0.25500000000E-02 0.  1.
         -2   -1    0    0    0  501 -0.00000000000E+00 -0.00000000000E+00 -0.93719141112E+02  0.93719141146E+02  0.25500000000E-02 0. -1.
    5000001    1    1    2    0    0 -0.28130005393E+02  0.22833644115E+03  0.48237980967E+03  0.56787596210E+03  0.19200000000E+03 0.  0.
   -5000001    1    1    2    0    0  0.28130005393E+02 -0.22833644115E+03  0.38943972362E+03  0.49138185344E+03  0.19200000000E+03 0.  0.
<mgrwt>
<rscale>  0 0.60162931E+03</rscale>
<asrwt>0</asrwt>
<pdfrwt beam="1">  1        2 0.13793410E+00 0.60162931E+03</pdfrwt>
<pdfrwt beam="2">  1       -2 0.13388448E-01 0.60162931E+03</pdfrwt>
<totfact> 0.12571701E+03</totfact>
</mgrwt>
</event>
<event>
 4    1  0.5626910E-005  0.5158477E+03  0.7818608E-02  0.1009723E+00
          2   -1    0    0  501    0  0.00000000000E+00  0.00000000000E+00  0.86583987366E+03  0.86583987366E+03  0.25500000000E-02 0.  1.
         -2   -1    0    0    0  501 -0.00000000000E+00 -0.00000000000E+00 -0.76832578423E+02  0.76832578465E+02  0.25500000000E-02 0. -1.
    5000001    1    1    2    0    0 -0.94312595943E+02 -0.79381366391E+02  0.17472262931E+03  0.28738173964E+03  0.19200000000E+03 0.  0.
   -5000001    1    1    2    0    0  0.94312595943E+02  0.79381366391E+02  0.61428466592E+03  0.65529071249E+03  0.19200000000E+03 0.  0.
<mgrwt>
<rscale>  0 0.51584769E+03</rscale>
<asrwt>0</asrwt>
<pdfrwt beam="1">  1        2 0.12369141E+00 0.51584769E+03</pdfrwt>
<pdfrwt beam="2">  1       -2 0.10976083E-01 0.51584769E+03</pdfrwt>
<totfact> 0.20201792E+03</totfact>
</mgrwt>
</event>
<event>
 4    1  0.5626910E-005  0.5869838E+03  0.7818608E-02  0.9932785E-01
         -2   -1    0    0    0  501 -0.00000000000E+00  0.00000000000E+00  0.43790944658E+02  0.43790944732E+02  0.25500000000E-02 0. -1.
          2   -1    0    0  501    0  0.00000000000E+00 -0.00000000000E+00 -0.19670162794E+04  0.19670162794E+04  0.25500000000E-02 0.  1.
    5000001    1    1    2    0    0  0.27445529388E+02 -0.13779198964E+03 -0.15503242583E+04  0.15684735239E+04  0.19200000000E+03 0.  0.
   -5000001    1    1    2    0    0 -0.27445529388E+02  0.13779198964E+03 -0.37290107642E+03  0.44233370015E+03  0.19200000000E+03 0.  0.
<mgrwt>
<rscale>  0 0.58698382E+03</rscale>
<asrwt>0</asrwt>
<pdfrwt beam="1">  1        2 0.28100227E+00 0.58698382E+03</pdfrwt>
<pdfrwt beam="2">  1       -2 0.62558505E-02 0.58698382E+03</pdfrwt>
<totfact> 0.12459333E+03</totfact>
</mgrwt>
</event>
<event>
 4    1  0.5626910E-005  0.5144569E+03  0.7818608E-02  0.1010073E+00
         -2   -1    0    0    0  501 -0.00000000000E+00  0.00000000000E+00  0.18340942223E+03  0.18340942225E+03  0.25500000000E-02 0. -1.
          2   -1    0    0  501    0  0.00000000000E+00 -0.00000000000E+00 -0.36075832871E+03  0.36075832872E+03  0.25500000000E-02 0.  1.
    5000001    1    1    2    0    0  0.15732876900E+03 -0.67350070394E+02 -0.84702161497E+02  0.27078927176E+03  0.19200000000E+03 0.  0.
   -5000001    1    1    2    0    0 -0.15732876900E+03  0.67350070394E+02 -0.92646744980E+02  0.27337847921E+03  0.19200000000E+03 0.  0.
<mgrwt>
<rscale>  0 0.51445690E+03</rscale>
<asrwt>0</asrwt>
<pdfrwt beam="1">  1        2 0.51536904E-01 0.51445690E+03</pdfrwt>
<pdfrwt beam="2">  1       -2 0.26201346E-01 0.51445690E+03</pdfrwt>
<totfact> 0.12762256E+03</totfact>
</mgrwt>
</event>
<event>
 4    1  0.5626910E-005  0.6399849E+03  0.7818608E-02  0.9825755E-01
         -2   -1    0    0    0  501 -0.00000000000E+00  0.00000000000E+00  0.41492062640E+03  0.41492062641E+03  0.25500000000E-02 0. -1.
          2   -1    0    0  501    0  0.00000000000E+00 -0.00000000000E+00 -0.24678254491E+03  0.24678254492E+03  0.25500000000E-02 0.  1.
    5000001    1    1    2    0    0 -0.62208069092E+02 -0.22357477904E+03  0.19578980090E+03  0.35923971359E+03  0.19200000000E+03 0.  0.
   -5000001    1    1    2    0    0  0.62208069092E+02  0.22357477904E+03 -0.27651719404E+02  0.30246345774E+03  0.19200000000E+03 0.  0.
<mgrwt>
<rscale>  0 0.63998490E+03</rscale>
<asrwt>0</asrwt>
<pdfrwt beam="1">  1        2 0.35254650E-01 0.63998490E+03</pdfrwt>
<pdfrwt beam="2">  1       -2 0.59274375E-01 0.63998490E+03</pdfrwt>
<totfact> 0.39778646E+02</totfact>
</mgrwt>
</event>
<event>
 4    1  0.5626910E-005  0.6086284E+03  0.7818608E-02  0.9887665E-01
          2   -1    0    0  501    0  0.00000000000E+00  0.00000000000E+00  0.19213778941E+04  0.19213778941E+04  0.25500000000E-02 0.  1.
         -2   -1    0    0    0  501 -0.00000000000E+00 -0.00000000000E+00 -0.48198293206E+02  0.48198293274E+02  0.25500000000E-02 0. -1.
    5000001    1    1    2    0    0  0.10652006562E+03 -0.19618421608E+03  0.68784489669E+03  0.74821746366E+03  0.19200000000E+03 0.  0.
   -5000001    1    1    2    0    0 -0.10652006562E+03  0.19618421608E+03  0.11853347042E+04  0.12213587237E+04  0.19200000000E+03 0.  0.
<mgrwt>
<rscale>  0 0.60862841E+03</rscale>
<asrwt>0</asrwt>
<pdfrwt beam="1">  1        2 0.27448246E+00 0.60862841E+03</pdfrwt>
<pdfrwt beam="2">  1       -2 0.68854730E-02 0.60862841E+03</pdfrwt>
<totfact> 0.11281786E+03</totfact>
</mgrwt>
</event>
<event>
 4    1  0.5626910E-005  0.6202588E+03  0.7818608E-02  0.9864245E-01
         -2   -1    0    0    0  501 -0.00000000000E+00  0.00000000000E+00  0.42662751122E+03  0.42662751123E+03  0.25500000000E-02 0. -1.
          2   -1    0    0  501    0  0.00000000000E+00 -0.00000000000E+00 -0.22544311586E+03  0.22544311588E+03  0.25500000000E-02 0.  1.
    5000001    1    1    2    0    0 -0.24093428120E+03 -0.35087910110E+02  0.10687764787E+03  0.32797457357E+03  0.19200000000E+03 0.  0.
   -5000001    1    1    2    0    0  0.24093428120E+03  0.35087910110E+02  0.94306747483E+02  0.32409605353E+03  0.19200000000E+03 0.  0.
<mgrwt>
<rscale>  0 0.62025877E+03</rscale>
<asrwt>0</asrwt>
<pdfrwt beam="1">  1        2 0.32206159E-01 0.62025877E+03</pdfrwt>
<pdfrwt beam="2">  1       -2 0.60946787E-01 0.62025877E+03</pdfrwt>
<totfact> 0.41519927E+02</totfact>
</mgrwt>
</event>
<event>
 4    1  0.5626910E-005  0.5043512E+03  0.7818608E-02  0.1012649E+00
         -2   -1    0    0    0  501 -0.00000000000E+00  0.00000000000E+00  0.15879690073E+03  0.15879690075E+03  0.25500000000E-02 0. -1.
          2   -1    0    0  501    0  0.00000000000E+00 -0.00000000000E+00 -0.40046463662E+03  0.40046463663E+03  0.25500000000E-02 0.  1.
    5000001    1    1    2    0    0  0.12471204255E+03  0.88341287121E+02 -0.18521793515E+03  0.30745237041E+03  0.19200000000E+03 0.  0.
   -5000001    1    1    2    0    0 -0.12471204255E+03 -0.88341287121E+02 -0.56449800738E+02  0.25180916697E+03  0.19200000000E+03 0.  0.
<mgrwt>
<rscale>  0 0.50435124E+03</rscale>
<asrwt>0</asrwt>
<pdfrwt beam="1">  1        2 0.57209233E-01 0.50435124E+03</pdfrwt>
<pdfrwt beam="2">  1       -2 0.22685272E-01 0.50435124E+03</pdfrwt>
<totfact> 0.14704157E+03</totfact>
</mgrwt>
</event>
<event>
 4    1  0.5626910E-005  0.6846407E+03  0.7818608E-02  0.9743865E-01
         -2   -1    0    0    0  501 -0.00000000000E+00  0.00000000000E+00  0.15311569894E+03  0.15311569896E+03  0.25500000000E-02 0. -1.
          2   -1    0    0  501    0  0.00000000000E+00 -0.00000000000E+00 -0.76532464746E+03  0.76532464747E+03  0.25500000000E-02 0.  1.
    5000001    1    1    2    0    0 -0.14674984666E+02 -0.28184918882E+03 -0.27151326616E+03  0.43616255469E+03  0.19200000000E+03 0.  0.
   -5000001    1    1    2    0    0  0.14674984666E+02  0.28184918882E+03 -0.34069568237E+03  0.48227779173E+03  0.19200000000E+03 0.  0.
<mgrwt>
<rscale>  0 0.68464069E+03</rscale>
<asrwt>0</asrwt>
<pdfrwt beam="1">  1        2 0.10933209E+00 0.68464069E+03</pdfrwt>
<pdfrwt beam="2">  1       -2 0.21873672E-01 0.68464069E+03</pdfrwt>
<totfact> 0.73541519E+02</totfact>
</mgrwt>
</event>
<event>
 4    1  0.5626910E-005  0.6716476E+03  0.7818608E-02  0.9766986E-01
         -2   -1    0    0    0  501 -0.00000000000E+00  0.00000000000E+00  0.17453145800E+03  0.17453145801E+03  0.25500000000E-02 0. -1.
          2   -1    0    0  501    0  0.00000000000E+00 -0.00000000000E+00 -0.64617353963E+03  0.64617353963E+03  0.25500000000E-02 0.  1.
    5000001    1    1    2    0    0 -0.50423158952E+02 -0.25408323803E+03 -0.12111054219E+03  0.34443076262E+03  0.19200000000E+03 0.  0.
   -5000001    1    1    2    0    0  0.50423158952E+02  0.25408323803E+03 -0.35053153944E+03  0.47627423503E+03  0.19200000000E+03 0.  0.
<mgrwt>
<rscale>  0 0.67164756E+03</rscale>
<asrwt>0</asrwt>
<pdfrwt beam="1">  1        2 0.92310505E-01 0.67164756E+03</pdfrwt>
<pdfrwt beam="2">  1       -2 0.24933066E-01 0.67164756E+03</pdfrwt>
<totfact> 0.71750104E+02</totfact>
</mgrwt>
</event>
<event>
 4    1  0.5626910E-005  0.5234851E+03  0.7818608E-02  0.1007824E+00
         -2   -1    0    0    0  501 -0.00000000000E+00  0.00000000000E+00  0.48784779966E+02  0.48784780033E+02  0.25500000000E-02 0. -1.
          2   -1    0    0  501    0  0.00000000000E+00 -0.00000000000E+00 -0.14043141296E+04  0.14043141296E+04  0.25500000000E-02 0.  1.
    5000001    1    1    2    0    0  0.14569267653E+03  0.96954553346E+02 -0.58917241277E+03  0.64390579542E+03  0.19200000000E+03 0.  0.
   -5000001    1    1    2    0    0 -0.14569267653E+03 -0.96954553346E+02 -0.76635693682E+03  0.80919311417E+03  0.19200000000E+03 0.  0.
<mgrwt>
<rscale>  0 0.52348507E+03</rscale>
<asrwt>0</asrwt>
<pdfrwt beam="1">  1        2 0.20061628E+00 0.52348507E+03</pdfrwt>
<pdfrwt beam="2">  1       -2 0.69692552E-02 0.52348507E+03</pdfrwt>
<totfact> 0.20411272E+03</totfact>
</mgrwt>
</event>
<event>
 4    1  0.5626910E-005  0.4785447E+03  0.7818608E-02  0.1019536E+00
          2   -1    0    0  501    0  0.00000000000E+00  0.00000000000E+00  0.37797483505E+03  0.37797483506E+03  0.25500000000E-02 0.  1.
         -2   -1    0    0    0  501 -0.00000000000E+00 -0.00000000000E+00 -0.15146844231E+03  0.15146844233E+03  0.25500000000E-02 0. -1.
    5000001    1    1    2    0    0 -0.11749623198E+03  0.76657804280E+02  0.14263903214E+03  0.27729348528E+03  0.19200000000E+03 0.  0.
   -5000001    1    1    2    0    0  0.11749623198E+03 -0.76657804280E+02  0.83867360596E+02  0.25214979211E+03  0.19200000000E+03 0.  0.
<mgrwt>
<rscale>  0 0.47854471E+03</rscale>
<asrwt>0</asrwt>
<pdfrwt beam="1">  1        2 0.53996405E-01 0.47854471E+03</pdfrwt>
<pdfrwt beam="2">  1       -2 0.21638349E-01 0.47854471E+03</pdfrwt>
<totfact> 0.17025837E+03</totfact>
</mgrwt>
</event>
<event>
 4    1  0.5626910E-005  0.5515463E+03  0.7818608E-02  0.1001137E+00
         -2   -1    0    0    0  501 -0.00000000000E+00  0.00000000000E+00  0.22955104115E+03  0.22955104116E+03  0.25500000000E-02 0. -1.
          2   -1    0    0  501    0  0.00000000000E+00 -0.00000000000E+00 -0.33130250308E+03  0.33130250309E+03  0.25500000000E-02 0.  1.
    5000001    1    1    2    0    0 -0.10765834462E+03  0.96498264137E+02  0.86626649703E+02  0.25548074406E+03  0.19200000000E+03 0.  0.
   -5000001    1    1    2    0    0  0.10765834462E+03 -0.96498264137E+02 -0.18837811163E+03  0.30537280018E+03  0.19200000000E+03 0.  0.
<mgrwt>
<rscale>  0 0.55154632E+03</rscale>
<asrwt>0</asrwt>
<pdfrwt beam="1">  1        2 0.47328929E-01 0.55154632E+03</pdfrwt>
<pdfrwt beam="2">  1       -2 0.32793006E-01 0.55154632E+03</pdfrwt>
<totfact> 0.92826877E+02</totfact>
</mgrwt>
</event>
<event>
 4    1  0.5626910E-005  0.4381850E+03  0.7818608E-02  0.1031305E+00
          2   -1    0    0  501    0  0.00000000000E+00  0.00000000000E+00  0.22380540975E+04  0.22380540975E+04  0.25500000000E-02 0.  1.
         -2   -1    0    0    0  501 -0.00000000000E+00 -0.00000000000E+00 -0.21447883337E+02  0.21447883489E+02  0.25500000000E-02 0. -1.
    5000001    1    1    2    0    0  0.72449450544E+02  0.30642748968E+02  0.74552484551E+03  0.77385993321E+03  0.19200000000E+03 0.  0.
   -5000001    1    1    2    0    0 -0.72449450544E+02 -0.30642748968E+02  0.14710813687E+04  0.14856420478E+04  0.19200000000E+03 0.  0.
<mgrwt>
<rscale>  0 0.43818500E+03</rscale>
<asrwt>0</asrwt>
<pdfrwt beam="1">  1        2 0.31972206E+00 0.43818500E+03</pdfrwt>
<pdfrwt beam="2">  1       -2 0.30639829E-02 0.43818500E+03</pdfrwt>
<totfact> 0.27517428E+03</totfact>
</mgrwt>
</event>
<event>
 4    1  0.5626910E-005  0.5056257E+03  0.7818608E-02  0.1012321E+00
         -2   -1    0    0    0  501 -0.00000000000E+00  0.00000000000E+00  0.27892182123E+02  0.27892182240E+02  0.25500000000E-02 0. -1.
          2   -1    0    0  501    0  0.00000000000E+00 -0.00000000000E+00 -0.22914781894E+04  0.22914781894E+04  0.25500000000E-02 0.  1.
    5000001    1    1    2    0    0  0.14578203966E+03 -0.37592600113E+02 -0.82804603381E+03  0.86324378989E+03  0.19200000000E+03 0.  0.
   -5000001    1    1    2    0    0 -0.14578203966E+03  0.37592600113E+02 -0.14355399735E+04  0.14561265818E+04  0.19200000000E+03 0.  0.
<mgrwt>
<rscale>  0 0.50562566E+03</rscale>
<asrwt>0</asrwt>
<pdfrwt beam="1">  1        2 0.32735391E+00 0.50562566E+03</pdfrwt>
<pdfrwt beam="2">  1       -2 0.39845989E-02 0.50562566E+03</pdfrwt>
<totfact> 0.17298670E+03</totfact>
</mgrwt>
</event>
<event>
 4    1  0.5626910E-005  0.6373303E+03  0.7818608E-02  0.9830848E-01
         -2   -1    0    0    0  501 -0.00000000000E+00  0.00000000000E+00  0.65503509251E+02  0.65503509301E+02  0.25500000000E-02 0. -1.
          2   -1    0    0  501    0  0.00000000000E+00 -0.00000000000E+00 -0.15502601222E+04  0.15502601222E+04  0.25500000000E-02 0.  1.
    5000001    1    1    2    0    0 -0.22551116208E+03 -0.41580028866E+02 -0.46351376294E+03  0.55162776531E+03  0.19200000000E+03 0.  0.
   -5000001    1    1    2    0    0  0.22551116208E+03  0.41580028866E+02 -0.10212428500E+04  0.10641358662E+04  0.19200000000E+03 0.  0.
<mgrwt>
<rscale>  0 0.63733030E+03</rscale>
<asrwt>0</asrwt>
<pdfrwt beam="1">  1        2 0.22146571E+00 0.63733030E+03</pdfrwt>
<pdfrwt beam="2">  1       -2 0.93576451E-02 0.63733030E+03</pdfrwt>
<totfact> 0.10665384E+03</totfact>
</mgrwt>
</event>
<event>
 4    1  0.5626910E-005  0.5130144E+03  0.7818608E-02  0.1010437E+00
         -2   -1    0    0    0  501 -0.00000000000E+00  0.00000000000E+00  0.75579943603E+02  0.75579943646E+02  0.25500000000E-02 0. -1.
          2   -1    0    0  501    0  0.00000000000E+00 -0.00000000000E+00 -0.87054775716E+03  0.87054775716E+03  0.25500000000E-02 0.  1.
    5000001    1    1    2    0    0  0.98504832094E+02  0.10222559860E+03 -0.22468751211E+03  0.32787459958E+03  0.19200000000E+03 0.  0.
   -5000001    1    1    2    0    0 -0.98504832094E+02 -0.10222559860E+03 -0.57028030145E+03  0.61825310123E+03  0.19200000000E+03 0.  0.
<mgrwt>
<rscale>  0 0.51301443E+03</rscale>
<asrwt>0</asrwt>
<pdfrwt beam="1">  1        2 0.12436396E+00 0.51301443E+03</pdfrwt>
<pdfrwt beam="2">  1       -2 0.10797135E-01 0.51301443E+03</pdfrwt>
<totfact> 0.20602399E+03</totfact>
</mgrwt>
</event>
<event>
 4    1  0.5626910E-005  0.1269937E+04  0.7818608E-02  0.9053751E-01
         -2   -1    0    0    0  501 -0.00000000000E+00  0.00000000000E+00  0.16070823640E+03  0.16070823643E+03  0.25500000000E-02 0. -1.
          2   -1    0    0  501    0  0.00000000000E+00 -0.00000000000E+00 -0.25088022876E+04  0.25088022876E+04  0.25500000000E-02 0.  1.
    5000001    1    1    2    0    0 -0.41564168700E+03  0.29046135876E+03 -0.47942030741E+03  0.72376352773E+03  0.19200000000E+03 0.  0.
   -5000001    1    1    2    0    0  0.41564168700E+03 -0.29046135876E+03 -0.18686737437E+04  0.19457469963E+04  0.19200000000E+03 0.  0.
<mgrwt>
<rscale>  0 0.12699373E+04</rscale>
<asrwt>0</asrwt>
<pdfrwt beam="1">  1        2 0.35840030E+00 0.12699373E+04</pdfrwt>
<pdfrwt beam="2">  1       -2 0.22958321E-01 0.12699373E+04</pdfrwt>
<totfact> 0.71952292E+01</totfact>
</mgrwt>
</event>
<event>
 4    1  0.5626910E-005  0.5257302E+03  0.7818608E-02  0.1007273E+00
         -2   -1    0    0    0  501 -0.00000000000E+00  0.00000000000E+00  0.28514260632E+02  0.28514260746E+02  0.25500000000E-02 0. -1.
          2   -1    0    0  501    0  0.00000000000E+00 -0.00000000000E+00 -0.24232804108E+04  0.24232804108E+04  0.25500000000E-02 0.  1.
    5000001    1    1    2    0    0  0.14174500225E+03 -0.26140939234E+02 -0.69815889849E+03  0.73828506818E+03  0.19200000000E+03 0.  0.
   -5000001    1    1    2    0    0 -0.14174500225E+03  0.26140939234E+02 -0.16966072517E+04  0.17135096034E+04  0.19200000000E+03 0.  0.
<mgrwt>
<rscale>  0 0.52573016E+03</rscale>
<asrwt>0</asrwt>
<pdfrwt beam="1">  1        2 0.34618279E+00 0.52573016E+03</pdfrwt>
<pdfrwt beam="2">  1       -2 0.40734673E-02 0.52573016E+03</pdfrwt>
<totfact> 0.14329514E+03</totfact>
</mgrwt>
</event>
<event>
 4    1  0.5626910E-005  0.7760794E+03  0.7818608E-02  0.9595301E-01
         -2   -1    0    0    0  501 -0.00000000000E+00  0.00000000000E+00  0.11169049695E+03  0.11169049698E+03  0.25500000000E-02 0. -1.
          2   -1    0    0  501    0  0.00000000000E+00 -0.00000000000E+00 -0.13481434400E+04  0.13481434400E+04  0.25500000000E-02 0.  1.
    5000001    1    1    2    0    0 -0.78560470257E+01  0.33169131986E+03 -0.73155736579E+03  0.82590618631E+03  0.19200000000E+03 0.  0.
   -5000001    1    1    2    0    0  0.78560470257E+01 -0.33169131986E+03 -0.50489557730E+03  0.63392775071E+03  0.19200000000E+03 0.  0.
<mgrwt>
<rscale>  0 0.77607941E+03</rscale>
<asrwt>0</asrwt>
<pdfrwt beam="1">  1        2 0.19259191E+00 0.77607941E+03</pdfrwt>
<pdfrwt beam="2">  1       -2 0.15955786E-01 0.77607941E+03</pdfrwt>
<totfact> 0.56046971E+02</totfact>
</mgrwt>
</event>
<event>
 4    1  0.5626910E-005  0.4292441E+03  0.7818608E-02  0.1034099E+00
          2   -1    0    0  501    0  0.00000000000E+00  0.00000000000E+00  0.13778889993E+03  0.13778889995E+03  0.25500000000E-02 0.  1.
         -2   -1    0    0    0  501 -0.00000000000E+00 -0.00000000000E+00 -0.33429850532E+03  0.33429850533E+03  0.25500000000E-02 0. -1.
    5000001    1    1    2    0    0  0.79997077391E+02  0.46786211208E+02 -0.12542127925E+03  0.24735193397E+03  0.19200000000E+03 0.  0.
   -5000001    1    1    2    0    0 -0.79997077391E+02 -0.46786211208E+02 -0.71088326142E+02  0.22473547131E+03  0.19200000000E+03 0.  0.
<mgrwt>
<rscale>  0 0.42924410E+03</rscale>
<asrwt>0</asrwt>
<pdfrwt beam="1">  1        2 0.19684129E-01 0.42924410E+03</pdfrwt>
<pdfrwt beam="2">  1       -2 0.47756929E-01 0.42924410E+03</pdfrwt>
<totfact> 0.12009470E+03</totfact>
</mgrwt>
</event>
<event>
 4    1  0.5626910E-005  0.8250043E+03  0.7818608E-02  0.9524513E-01
         -2   -1    0    0    0  501 -0.00000000000E+00  0.00000000000E+00  0.13572725641E+03  0.13572725644E+03  0.25500000000E-02 0. -1.
          2   -1    0    0  501    0  0.00000000000E+00 -0.00000000000E+00 -0.12536760006E+04  0.12536760006E+04  0.25500000000E-02 0.  1.
    5000001    1    1    2    0    0 -0.30204773051E+03  0.20371331054E+03 -0.51904768142E+03  0.66257561077E+03  0.19200000000E+03 0.  0.
   -5000001    1    1    2    0    0  0.30204773051E+03 -0.20371331054E+03 -0.59890106278E+03  0.72682764628E+03  0.19200000000E+03 0.  0.
<mgrwt>
<rscale>  0 0.82500425E+03</rscale>
<asrwt>0</asrwt>
<pdfrwt beam="1">  1        2 0.17909657E+00 0.82500425E+03</pdfrwt>
<pdfrwt beam="2">  1       -2 0.19389609E-01 0.82500425E+03</pdfrwt>
<totfact> 0.45040381E+02</totfact>
</mgrwt>
</event>
<event>
 4    1  0.5626910E-005  0.6825118E+03  0.7818608E-02  0.9747616E-01
         -2   -1    0    0    0  501 -0.00000000000E+00  0.00000000000E+00  0.10612661125E+04  0.10612661125E+04  0.25500000000E-02 0. -1.
          2   -1    0    0  501    0  0.00000000000E+00 -0.00000000000E+00 -0.10973268506E+03  0.10973268509E+03  0.25500000000E-02 0.  1.
    5000001    1    1    2    0    0  0.12546791005E+03 -0.25109023342E+03  0.42714556050E+03  0.54599068822E+03  0.19200000000E+03 0.  0.
   -5000001    1    1    2    0    0 -0.12546791005E+03  0.25109023342E+03  0.52438786690E+03  0.62500810933E+03  0.19200000000E+03 0.  0.
<mgrwt>
<rscale>  0 0.68251177E+03</rscale>
<asrwt>0</asrwt>
<pdfrwt beam="1">  1        2 0.15676097E-01 0.68251177E+03</pdfrwt>
<pdfrwt beam="2">  1       -2 0.15160945E+00 0.68251177E+03</pdfrwt>
<totfact> 0.11226006E+02</totfact>
</mgrwt>
</event>
<event>
 4    1  0.5626910E-005  0.4242801E+03  0.7818608E-02  0.1035682E+00
          2   -1    0    0  501    0  0.00000000000E+00  0.00000000000E+00  0.10971212391E+04  0.10971212391E+04  0.25500000000E-02 0.  1.
         -2   -1    0    0    0  501 -0.00000000000E+00 -0.00000000000E+00 -0.41019536738E+02  0.41019536817E+02  0.25500000000E-02 0. -1.
    5000001    1    1    2    0    0  0.56688241606E+02 -0.15171098301E+02  0.71187087880E+03  0.73964036331E+03  0.19200000000E+03 0.  0.
   -5000001    1    1    2    0    0 -0.56688241606E+02  0.15171098301E+02  0.34423082360E+03  0.39850041264E+03  0.19200000000E+03 0.  0.
<mgrwt>
<rscale>  0 0.42428012E+03</rscale>
<asrwt>0</asrwt>
<pdfrwt beam="1">  1        2 0.15673162E+00 0.42428012E+03</pdfrwt>
<pdfrwt beam="2">  1       -2 0.58599332E-02 0.42428012E+03</pdfrwt>
<totfact> 0.39450875E+03</totfact>
</mgrwt>
</event>
<event>
 4    1  0.5626910E-005  0.4701150E+03  0.7818608E-02  0.1021888E+00
         -2   -1    0    0    0  501 -0.00000000000E+00  0.00000000000E+00  0.34933533555E+03  0.34933533556E+03  0.25500000000E-02 0. -1.
          2   -1    0    0  501    0  0.00000000000E+00 -0.00000000000E+00 -0.15816330371E+03  0.15816330373E+03  0.25500000000E-02 0.  1.
    5000001    1    1    2    0    0 -0.68031708529E+02  0.11512497684E+03  0.11986819292E+03  0.26289628627E+03  0.19200000000E+03 0.  0.
   -5000001    1    1    2    0    0  0.68031708529E+02 -0.11512497684E+03  0.71303838919E+02  0.24460235302E+03  0.19200000000E+03 0.  0.
<mgrwt>
<rscale>  0 0.47011501E+03</rscale>
<asrwt>0</asrwt>
<pdfrwt beam="1">  1        2 0.22594758E-01 0.47011501E+03</pdfrwt>
<pdfrwt beam="2">  1       -2 0.49905047E-01 0.47011501E+03</pdfrwt>
<totfact> 0.93802755E+02</totfact>
</mgrwt>
</event>
<event>
 4    1  0.5626910E-005  0.5550751E+03  0.7818608E-02  0.1000326E+00
         -2   -1    0    0    0  501 -0.00000000000E+00  0.00000000000E+00  0.22599169837E+03  0.22599169838E+03  0.25500000000E-02 0. -1.
          2   -1    0    0  501    0  0.00000000000E+00 -0.00000000000E+00 -0.34084035000E+03  0.34084035001E+03  0.25500000000E-02 0.  1.
    5000001    1    1    2    0    0 -0.64156409200E+02  0.18122225259E+03  0.39236763867E+00  0.27170149728E+03  0.19200000000E+03 0.  0.
   -5000001    1    1    2    0    0  0.64156409200E+02 -0.18122225259E+03 -0.11524101928E+03  0.29513055111E+03  0.19200000000E+03 0.  0.
<mgrwt>
<rscale>  0 0.55507509E+03</rscale>
<asrwt>0</asrwt>
<pdfrwt beam="1">  1        2 0.48691478E-01 0.55507509E+03</pdfrwt>
<pdfrwt beam="2">  1       -2 0.32284528E-01 0.55507509E+03</pdfrwt>
<totfact> 0.92634075E+02</totfact>
</mgrwt>
</event>
<event>
 4    1  0.5626910E-005  0.5623475E+03  0.7818608E-02  0.9986757E-01
          2   -1    0    0  501    0  0.00000000000E+00  0.00000000000E+00  0.92609687961E+03  0.92609687962E+03  0.25500000000E-02 0.  1.
         -2   -1    0    0    0  501 -0.00000000000E+00 -0.00000000000E+00 -0.85367619952E+02  0.85367619990E+02  0.25500000000E-02 0. -1.
    5000001    1    1    2    0    0  0.30189436099E+02  0.17629970596E+03  0.60203415677E+03  0.65673595478E+03  0.19200000000E+03 0.  0.
   -5000001    1    1    2    0    0 -0.30189436099E+02 -0.17629970596E+03  0.23869510289E+03  0.35472854483E+03  0.19200000000E+03 0.  0.
<mgrwt>
<rscale>  0 0.56234753E+03</rscale>
<asrwt>0</asrwt>
<pdfrwt beam="1">  1        2 0.13229955E+00 0.56234753E+03</pdfrwt>
<pdfrwt beam="2">  1       -2 0.12195374E-01 0.56234753E+03</pdfrwt>
<totfact> 0.15541408E+03</totfact>
</mgrwt>
</event>
<event>
 4    1  0.5626910E-005  0.5294877E+03  0.7818608E-02  0.1006356E+00
         -2   -1    0    0    0  501 -0.00000000000E+00  0.00000000000E+00  0.15656536440E+03  0.15656536442E+03  0.25500000000E-02 0. -1.
          2   -1    0    0  501    0  0.00000000000E+00 -0.00000000000E+00 -0.44766808959E+03  0.44766808960E+03  0.25500000000E-02 0.  1.
    5000001    1    1    2    0    0  0.17487550448E+03  0.46413740526E+02 -0.17080287480E+03  0.31428219711E+03  0.19200000000E+03 0.  0.
   -5000001    1    1    2    0    0 -0.17487550448E+03 -0.46413740526E+02 -0.12029985039E+03  0.28995125691E+03  0.19200000000E+03 0.  0.
<mgrwt>
<rscale>  0 0.52948774E+03</rscale>
<asrwt>0</asrwt>
<pdfrwt beam="1">  1        2 0.63952584E-01 0.52948774E+03</pdfrwt>
<pdfrwt beam="2">  1       -2 0.22366481E-01 0.52948774E+03</pdfrwt>
<totfact> 0.13321392E+03</totfact>
</mgrwt>
</event>
<event>
 4    1  0.5626910E-005  0.5773842E+03  0.7818608E-02  0.9953470E-01
         -2   -1    0    0    0  501 -0.00000000000E+00  0.00000000000E+00  0.43115304051E+02  0.43115304127E+02  0.25500000000E-02 0. -1.
          2   -1    0    0  501    0  0.00000000000E+00 -0.00000000000E+00 -0.19330286869E+04  0.19330286869E+04  0.25500000000E-02 0.  1.
    5000001    1    1    2    0    0  0.19757384384E+03  0.86058957139E+02 -0.92398328569E+03  0.96801378095E+03  0.19200000000E+03 0.  0.
   -5000001    1    1    2    0    0 -0.19757384384E+03 -0.86058957139E+02 -0.96593009711E+03  0.10081302100E+04  0.19200000000E+03 0.  0.
<mgrwt>
<rscale>  0 0.57738417E+03</rscale>
<asrwt>0</asrwt>
<pdfrwt beam="1">  1        2 0.27614690E+00 0.57738417E+03</pdfrwt>
<pdfrwt beam="2">  1       -2 0.61593304E-02 0.57738417E+03</pdfrwt>
<totfact> 0.13284809E+03</totfact>
</mgrwt>
</event>
<event>
 4    1  0.5626910E-005  0.7770270E+03  0.7818608E-02  0.9593878E-01
          2   -1    0    0  501    0  0.00000000000E+00  0.00000000000E+00  0.27579075932E+04  0.27579075932E+04  0.25500000000E-02 0.  1.
         -2   -1    0    0    0  501 -0.00000000000E+00 -0.00000000000E+00 -0.54730887971E+02  0.54730888030E+02  0.25500000000E-02 0. -1.
    5000001    1    1    2    0    0  0.23110234582E+03  0.12108850569E+03  0.57517222847E+03  0.66011954437E+03  0.19200000000E+03 0.  0.
   -5000001    1    1    2    0    0 -0.23110234582E+03 -0.12108850569E+03  0.21280044768E+04  0.21525189369E+04  0.19200000000E+03 0.  0.
<mgrwt>
<rscale>  0 0.77702698E+03</rscale>
<asrwt>0</asrwt>
<pdfrwt beam="1">  1        2 0.39398705E+00 0.77702698E+03</pdfrwt>
<pdfrwt beam="2">  1       -2 0.78186933E-02 0.77702698E+03</pdfrwt>
<totfact> 0.33972262E+02</totfact>
</mgrwt>
</event>
<event>
 4    1  0.5626910E-005  0.7092738E+03  0.7818608E-02  0.9701503E-01
          2   -1    0    0  501    0  0.00000000000E+00  0.00000000000E+00  0.41524472011E+03  0.41524472012E+03  0.25500000000E-02 0.  1.
         -2   -1    0    0    0  501 -0.00000000000E+00 -0.00000000000E+00 -0.30287520413E+03  0.30287520414E+03  0.25500000000E-02 0. -1.
    5000001    1    1    2    0    0 -0.20703594844E+03  0.60576048625E+02  0.26459172370E+03  0.39167093569E+03  0.19200000000E+03 0.  0.
   -5000001    1    1    2    0    0  0.20703594844E+03 -0.60576048625E+02 -0.15222220772E+03  0.32644898857E+03  0.19200000000E+03 0.  0.
<mgrwt>
<rscale>  0 0.70927380E+03</rscale>
<asrwt>0</asrwt>
<pdfrwt beam="1">  1        2 0.59320674E-01 0.70927380E+03</pdfrwt>
<pdfrwt beam="2">  1       -2 0.43267886E-01 0.70927380E+03</pdfrwt>
<totfact> 0.42295846E+02</totfact>
</mgrwt>
</event>
<event>
 4    1  0.5626910E-005  0.8328972E+03  0.7818608E-02  0.9513584E-01
         -2   -1    0    0    0  501 -0.00000000000E+00  0.00000000000E+00  0.23675350020E+03  0.23675350021E+03  0.25500000000E-02 0. -1.
          2   -1    0    0  501    0  0.00000000000E+00 -0.00000000000E+00 -0.73253166517E+03  0.73253166518E+03  0.25500000000E-02 0.  1.
    5000001    1    1    2    0    0  0.84902105882E+02 -0.31540110847E+03 -0.46727653335E+02  0.38175083549E+03  0.19200000000E+03 0.  0.
   -5000001    1    1    2    0    0 -0.84902105882E+02  0.31540110847E+03 -0.44905051164E+03  0.58753432990E+03  0.19200000000E+03 0.  0.
<mgrwt>
<rscale>  0 0.83289720E+03</rscale>
<asrwt>0</asrwt>
<pdfrwt beam="1">  1        2 0.10464738E+00 0.83289720E+03</pdfrwt>
<pdfrwt beam="2">  1       -2 0.33821929E-01 0.83289720E+03</pdfrwt>
<totfact> 0.34871013E+02</totfact>
</mgrwt>
</event>
<event>
 4    1  0.5626910E-005  0.5843284E+03  0.7818608E-02  0.9938464E-01
          2   -1    0    0  501    0  0.00000000000E+00  0.00000000000E+00  0.59379599528E+03  0.59379599529E+03  0.25500000000E-02 0.  1.
         -2   -1    0    0    0  501 -0.00000000000E+00 -0.00000000000E+00 -0.14375295856E+03  0.14375295858E+03  0.25500000000E-02 0. -1.
    5000001    1    1    2    0    0  0.14569665658E+03  0.15929476818E+03  0.17009563425E+03  0.33525939763E+03  0.19200000000E+03 0.  0.
   -5000001    1    1    2    0    0 -0.14569665658E+03 -0.15929476818E+03  0.27994740247E+03  0.40228955624E+03  0.19200000000E+03 0.  0.
<mgrwt>
<rscale>  0 0.58432844E+03</rscale>
<asrwt>0</asrwt>
<pdfrwt beam="1">  1        2 0.84828000E-01 0.58432844E+03</pdfrwt>
<pdfrwt beam="2">  1       -2 0.20536137E-01 0.58432844E+03</pdfrwt>
<totfact> 0.11204017E+03</totfact>
</mgrwt>
</event>
<event>
 4    1  0.5626910E-005  0.6282084E+03  0.7818608E-02  0.9848551E-01
         -2   -1    0    0    0  501 -0.00000000000E+00  0.00000000000E+00  0.16558236246E+03  0.16558236248E+03  0.25500000000E-02 0. -1.
          2   -1    0    0  501    0  0.00000000000E+00 -0.00000000000E+00 -0.59584506337E+03  0.59584506337E+03  0.25500000000E-02 0.  1.
    5000001    1    1    2    0    0  0.16104776648E+03  0.18306922075E+03 -0.15641560540E+03  0.34753498283E+03  0.19200000000E+03 0.  0.
   -5000001    1    1    2    0    0 -0.16104776648E+03 -0.18306922075E+03 -0.27384709550E+03  0.41389244302E+03  0.19200000000E+03 0.  0.
<mgrwt>
<rscale>  0 0.62820835E+03</rscale>
<asrwt>0</asrwt>
<pdfrwt beam="1">  1        2 0.85120723E-01 0.62820835E+03</pdfrwt>
<pdfrwt beam="2">  1       -2 0.23654623E-01 0.62820835E+03</pdfrwt>
<totfact> 0.86897315E+02</totfact>
</mgrwt>
</event>
<event>
 4    1  0.5626910E-005  0.4708900E+03  0.7818608E-02  0.1021669E+00
          2   -1    0    0  501    0  0.00000000000E+00  0.00000000000E+00  0.28528036869E+02  0.28528036983E+02  0.25500000000E-02 0.  1.
         -2   -1    0    0    0  501 -0.00000000000E+00 -0.00000000000E+00 -0.19431529247E+04  0.19431529247E+04  0.25500000000E-02 0. -1.
    5000001    1    1    2    0    0  0.14018241072E+02  0.92625073852E+02 -0.54292494889E+03  0.58344444082E+03  0.19200000000E+03 0.  0.
   -5000001    1    1    2    0    0 -0.14018241072E+02 -0.92625073852E+02 -0.13716999389E+04  0.13882365208E+04  0.19200000000E+03 0.  0.
<mgrwt>
<rscale>  0 0.47088996E+03</rscale>
<asrwt>0</asrwt>
<pdfrwt beam="1">  1        2 0.40754351E-02 0.47088996E+03</pdfrwt>
<pdfrwt beam="2">  1       -2 0.27759319E+00 0.47088996E+03</pdfrwt>
<totfact> 0.10061016E+02</totfact>
</mgrwt>
</event>
<event>
 4    1  0.5626910E-005  0.6035840E+03  0.7818608E-02  0.9897998E-01
         -2   -1    0    0    0  501 -0.00000000000E+00  0.00000000000E+00  0.66008001308E+02  0.66008001357E+02  0.25500000000E-02 0.  1.
          2   -1    0    0  501    0  0.00000000000E+00 -0.00000000000E+00 -0.13798087369E+04  0.13798087369E+04  0.25500000000E-02 0. -1.
    5000001    1    1    2    0    0  0.11763423768E+03  0.39365531467E+02 -0.18490015016E+03  0.29400599394E+03  0.19200000000E+03 0.  0.
   -5000001    1    1    2    0    0 -0.11763423768E+03 -0.39365531467E+02 -0.11289005854E+04  0.11518107443E+04  0.19200000000E+03 0.  0.
<mgrwt>
<rscale>  0 0.60358402E+03</rscale>
<asrwt>0</asrwt>
<pdfrwt beam="1">  1        2 0.19711552E+00 0.60358402E+03</pdfrwt>
<pdfrwt beam="2">  1       -2 0.94297153E-02 0.60358402E+03</pdfrwt>
<totfact> 0.12962484E+03</totfact>
</mgrwt>
</event>
<event>
 4    1  0.5626910E-005  0.7460559E+03  0.7818608E-02  0.9641558E-01
         -2   -1    0    0    0  501 -0.00000000000E+00  0.00000000000E+00  0.19789003669E+03  0.19789003671E+03  0.25500000000E-02 0. -1.
          2   -1    0    0  501    0  0.00000000000E+00 -0.00000000000E+00 -0.70316756700E+03  0.70316756700E+03  0.25500000000E-02 0.  1.
    5000001    1    1    2    0    0  0.15965022072E+03  0.26122303993E+03 -0.36438239705E+03  0.51319021897E+03  0.19200000000E+03 0.  0.
   -5000001    1    1    2    0    0 -0.15965022072E+03 -0.26122303993E+03 -0.14089513326E+03  0.38786738474E+03  0.19200000000E+03 0.  0.
<mgrwt>
<rscale>  0 0.74605591E+03</rscale>
<asrwt>0</asrwt>
<pdfrwt beam="1">  1        2 0.10045251E+00 0.74605591E+03</pdfrwt>
<pdfrwt beam="2">  1       -2 0.28270006E-01 0.74605591E+03</pdfrwt>
<totfact> 0.51417684E+02</totfact>
</mgrwt>
</event>
<event>
 4    1  0.5626910E-005  0.5371830E+03  0.7818608E-02  0.1004505E+00
         -2   -1    0    0    0  501 -0.00000000000E+00  0.00000000000E+00  0.42540624194E+02  0.42540624271E+02  0.25500000000E-02 0. -1.
          2   -1    0    0  501    0  0.00000000000E+00 -0.00000000000E+00 -0.16958234317E+04  0.16958234317E+04  0.25500000000E-02 0.  1.
    5000001    1    1    2    0    0 -0.89309683683E+02 -0.12564925600E+03 -0.11738743277E+04  0.11994202318E+04  0.19200000000E+03 0.  0.
   -5000001    1    1    2    0    0  0.89309683683E+02  0.12564925600E+03 -0.47940847972E+03  0.53894382412E+03  0.19200000000E+03 0.  0.
<mgrwt>
<rscale>  0 0.53718298E+03</rscale>
<asrwt>0</asrwt>
<pdfrwt beam="1">  1        2 0.24226045E+00 0.53718298E+03</pdfrwt>
<pdfrwt beam="2">  1       -2 0.60772331E-02 0.53718298E+03</pdfrwt>
<totfact> 0.17893201E+03</totfact>
</mgrwt>
</event>
<event>
 4    1  0.5626910E-005  0.5453656E+03  0.7818608E-02  0.1002572E+00
          2   -1    0    0  501    0  0.00000000000E+00  0.00000000000E+00  0.23575429304E+04  0.23575429304E+04  0.25500000000E-02 0.  1.
         -2   -1    0    0    0  501 -0.00000000000E+00 -0.00000000000E+00 -0.31539582761E+02  0.31539582864E+02  0.25500000000E-02 0. -1.
    5000001    1    1    2    0    0 -0.13608147130E+03 -0.10355568175E+03  0.15608977698E+04  0.15819316654E+04  0.19200000000E+03 0.  0.
   -5000001    1    1    2    0    0  0.13608147130E+03  0.10355568175E+03  0.76510557779E+03  0.80715084788E+03  0.19200000000E+03 0.  0.
<mgrwt>
<rscale>  0 0.54536564E+03</rscale>
<asrwt>0</asrwt>
<pdfrwt beam="1">  1        2 0.33679192E+00 0.54536564E+03</pdfrwt>
<pdfrwt beam="2">  1       -2 0.45056538E-02 0.54536564E+03</pdfrwt>
<totfact> 0.13234647E+03</totfact>
</mgrwt>
</event>
<event>
 4    1  0.5626910E-005  0.6540896E+03  0.7818608E-02  0.9799136E-01
         -2   -1    0    0    0  501 -0.00000000000E+00  0.00000000000E+00  0.24189570435E+03  0.24189570436E+03  0.25500000000E-02 0. -1.
          2   -1    0    0  501    0  0.00000000000E+00 -0.00000000000E+00 -0.44216698292E+03  0.44216698293E+03  0.25500000000E-02 0.  1.
    5000001    1    1    2    0    0 -0.14452938240E+02  0.22661388666E+03  0.42233079965E+02  0.30035041884E+03  0.19200000000E+03 0.  0.
   -5000001    1    1    2    0    0  0.14452938240E+02 -0.22661388666E+03 -0.24250435853E+03  0.38371226845E+03  0.19200000000E+03 0.  0.
<mgrwt>
<rscale>  0 0.65408958E+03</rscale>
<asrwt>0</asrwt>
<pdfrwt beam="1">  1        2 0.63166712E-01 0.65408958E+03</pdfrwt>
<pdfrwt beam="2">  1       -2 0.34556529E-01 0.65408958E+03</pdfrwt>
<totfact> 0.60963092E+02</totfact>
</mgrwt>
</event>
<event>
 4    1  0.5626910E-005  0.1656507E+04  0.7818608E-02  0.8786566E-01
         -2   -1    0    0    0  501 -0.00000000000E+00  0.00000000000E+00  0.19570507764E+04  0.19570507764E+04  0.25500000000E-02 0. -1.
          2   -1    0    0  501    0  0.00000000000E+00 -0.00000000000E+00 -0.35052927460E+03  0.35052927461E+03  0.25500000000E-02 0.  1.
    5000001    1    1    2    0    0  0.68428260090E+03 -0.36163658107E+03  0.11151147580E+04  0.13709006595E+04  0.19200000000E+03 0.  0.
   -5000001    1    1    2    0    0 -0.68428260090E+03  0.36163658107E+03  0.49140674384E+03  0.93667939155E+03  0.19200000000E+03 0.  0.
<mgrwt>
<rscale>  0 0.16565067E+04</rscale>
<asrwt>0</asrwt>
<pdfrwt beam="1">  1        2 0.50075613E-01 0.16565067E+04</pdfrwt>
<pdfrwt beam="2">  1       -2 0.27957867E+00 0.16565067E+04</pdfrwt>
<totfact> 0.40707060E+00</totfact>
</mgrwt>
</event>
<event>
 4    1  0.5626910E-005  0.9489738E+03  0.7818608E-02  0.9366351E-01
         -2   -1    0    0    0  501 -0.00000000000E+00  0.00000000000E+00  0.67320512938E+03  0.67320512939E+03  0.25500000000E-02 0. -1.
          2   -1    0    0  501    0  0.00000000000E+00 -0.00000000000E+00 -0.33442678380E+03  0.33442678381E+03  0.25500000000E-02 0.  1.
    5000001    1    1    2    0    0 -0.34292084672E+03  0.16030775271E+03 -0.55806496044E+02  0.42810237992E+03  0.19200000000E+03 0.  0.
   -5000001    1    1    2    0    0  0.34292084672E+03 -0.16030775271E+03  0.39458484163E+03  0.57952953327E+03  0.19200000000E+03 0.  0.
<mgrwt>
<rscale>  0 0.94897382E+03</rscale>
<asrwt>0</asrwt>
<pdfrwt beam="1">  1        2 0.47775255E-01 0.94897382E+03</pdfrwt>
<pdfrwt beam="2">  1       -2 0.96172160E-01 0.94897382E+03</pdfrwt>
<totfact> 0.95831466E+01</totfact>
</mgrwt>
</event>
<event>
 4    1  0.5626910E-005  0.5633990E+03  0.7818608E-02  0.9984393E-01
          2   -1    0    0  501    0  0.00000000000E+00  0.00000000000E+00  0.65954474793E+03  0.65954474794E+03  0.25500000000E-02 0.  1.
         -2   -1    0    0    0  501 -0.00000000000E+00 -0.00000000000E+00 -0.12031726274E+03  0.12031726277E+03  0.25500000000E-02 0. -1.
    5000001    1    1    2    0    0  0.81288399546E+02 -0.18053782803E+03  0.34899674005E+03  0.44481955422E+03  0.19200000000E+03 0.  0.
   -5000001    1    1    2    0    0 -0.81288399546E+02  0.18053782803E+03  0.19023074514E+03  0.33504245649E+03  0.19200000000E+03 0.  0.
<mgrwt>
<rscale>  0 0.56339904E+03</rscale>
<asrwt>0</asrwt>
<pdfrwt beam="1">  1        2 0.94220673E-01 0.56339904E+03</pdfrwt>
<pdfrwt beam="2">  1       -2 0.17188181E-01 0.56339904E+03</pdfrwt>
<totfact> 0.13451115E+03</totfact>
</mgrwt>
</event>
<event>
 4    1  0.5626910E-005  0.7962522E+03  0.7818608E-02  0.9565458E-01
         -2   -1    0    0    0  501 -0.00000000000E+00  0.00000000000E+00  0.84934344402E+03  0.84934344402E+03  0.25500000000E-02 0. -1.
          2   -1    0    0  501    0  0.00000000000E+00 -0.00000000000E+00 -0.18661992160E+03  0.18661992162E+03  0.25500000000E-02 0.  1.
    5000001    1    1    2    0    0  0.27284106029E+03  0.13808468755E+03  0.54957677741E+03  0.65757756910E+03  0.19200000000E+03 0.  0.
   -5000001    1    1    2    0    0 -0.27284106029E+03 -0.13808468755E+03  0.11314674501E+03  0.37838579654E+03  0.19200000000E+03 0.  0.
<mgrwt>
<rscale>  0 0.79625224E+03</rscale>
<asrwt>0</asrwt>
<pdfrwt beam="1">  1        2 0.26659989E-01 0.79625224E+03</pdfrwt>
<pdfrwt beam="2">  1       -2 0.12133477E+00 0.79625224E+03</pdfrwt>
<totfact> 0.10595284E+02</totfact>
</mgrwt>
</event>
<event>
 4    1  0.5626910E-005  0.5962412E+03  0.7818608E-02  0.9913235E-01
         -2   -1    0    0    0  501 -0.00000000000E+00  0.00000000000E+00  0.11794968451E+03  0.11794968454E+03  0.25500000000E-02 0. -1.
          2   -1    0    0  501    0  0.00000000000E+00 -0.00000000000E+00 -0.75350674126E+03  0.75350674126E+03  0.25500000000E-02 0.  1.
    5000001    1    1    2    0    0 -0.17938103963E+03 -0.77533764651E+02 -0.48961777682E+03  0.56105134294E+03  0.19200000000E+03 0.  0.
   -5000001    1    1    2    0    0  0.17938103963E+03  0.77533764651E+02 -0.14593927992E+03  0.31040508286E+03  0.19200000000E+03 0.  0.
<mgrwt>
<rscale>  0 0.59624117E+03</rscale>
<asrwt>0</asrwt>
<pdfrwt beam="1">  1        2 0.10764382E+00 0.59624117E+03</pdfrwt>
<pdfrwt beam="2">  1       -2 0.16849955E-01 0.59624117E+03</pdfrwt>
<totfact> 0.11815495E+03</totfact>
</mgrwt>
</event>
<event>
 4    1  0.5626910E-005  0.7519632E+03  0.7818608E-02  0.9632275E-01
         -2   -1    0    0    0  501 -0.00000000000E+00  0.00000000000E+00  0.34287777884E+03  0.34287777885E+03  0.25500000000E-02 0. -1.
          2   -1    0    0  501    0  0.00000000000E+00 -0.00000000000E+00 -0.41228146243E+03  0.41228146244E+03  0.25500000000E-02 0.  1.
    5000001    1    1    2    0    0 -0.10869251621E+03 -0.29070617521E+03  0.56092653735E+02  0.36923505953E+03  0.19200000000E+03 0.  0.
   -5000001    1    1    2    0    0  0.10869251621E+03  0.29070617521E+03 -0.12549633732E+03  0.38592418176E+03  0.19200000000E+03 0.  0.
<mgrwt>
<rscale>  0 0.75196317E+03</rscale>
<asrwt>0</asrwt>
<pdfrwt beam="1">  1        2 0.58897351E-01 0.75196317E+03</pdfrwt>
<pdfrwt beam="2">  1       -2 0.48982540E-01 0.75196317E+03</pdfrwt>
<totfact> 0.33227462E+02</totfact>
</mgrwt>
</event>
<event>
 4    1  0.5626910E-005  0.4849719E+03  0.7818608E-02  0.1017778E+00
         -2   -1    0    0    0  501 -0.00000000000E+00  0.00000000000E+00  0.32294182116E+02  0.32294182216E+02  0.25500000000E-02 0. -1.
          2   -1    0    0  501    0  0.00000000000E+00 -0.00000000000E+00 -0.18207439457E+04  0.18207439457E+04  0.25500000000E-02 0.  1.
    5000001    1    1    2    0    0  0.12117183423E+03 -0.85151450679E+02 -0.89970054176E+03  0.93180386767E+03  0.19200000000E+03 0.  0.
   -5000001    1    1    2    0    0 -0.12117183423E+03  0.85151450679E+02 -0.88874922187E+03  0.92123426029E+03  0.19200000000E+03 0.  0.
<mgrwt>
<rscale>  0 0.48497190E+03</rscale>
<asrwt>0</asrwt>
<pdfrwt beam="1">  1        2 0.26010621E+00 0.48497190E+03</pdfrwt>
<pdfrwt beam="2">  1       -2 0.46134558E-02 0.48497190E+03</pdfrwt>
<totfact> 0.23771373E+03</totfact>
</mgrwt>
</event>
<event>
 4    1  0.5626910E-005  0.4308453E+03  0.7818608E-02  0.1033593E+00
          2   -1    0    0  501    0  0.00000000000E+00  0.00000000000E+00  0.33102527983E+04  0.33102527983E+04  0.25500000000E-02 0.  1.
         -2   -1    0    0    0  501 -0.00000000000E+00 -0.00000000000E+00 -0.14019148594E+02  0.14019148826E+02  0.25500000000E-02 0. -1.
    5000001    1    1    2    0    0  0.58336111213E+02 -0.78356023171E+02  0.16511838609E+04  0.16651771409E+04  0.19200000000E+03 0.  0.
   -5000001    1    1    2    0    0 -0.58336111213E+02  0.78356023171E+02  0.16450497888E+04  0.16590948061E+04  0.19200000000E+03 0.  0.
<mgrwt>
<rscale>  0 0.43084534E+03</rscale>
<asrwt>0</asrwt>
<pdfrwt beam="1">  1        2 0.47289362E+00 0.43084534E+03</pdfrwt>
<pdfrwt beam="2">  1       -2 0.20027340E-02 0.43084534E+03</pdfrwt>
<totfact> 0.14224659E+03</totfact>
</mgrwt>
</event>
<event>
 4    1  0.5626910E-005  0.8582308E+03  0.7818608E-02  0.9479356E-01
         -2   -1    0    0    0  501 -0.00000000000E+00  0.00000000000E+00  0.49881204687E+02  0.49881204752E+02  0.25500000000E-02 0. -1.
          2   -1    0    0  501    0  0.00000000000E+00 -0.00000000000E+00 -0.36915714616E+04  0.36915714616E+04  0.25500000000E-02 0.  1.
    5000001    1    1    2    0    0  0.22392165652E+03  0.29893735498E+03 -0.22051632398E+04  0.22447969540E+04  0.19200000000E+03 0.  0.
   -5000001    1    1    2    0    0 -0.22392165652E+03 -0.29893735498E+03 -0.14365270170E+04  0.14966557123E+04  0.19200000000E+03 0.  0.
<mgrwt>
<rscale>  0 0.85823081E+03</rscale>
<asrwt>0</asrwt>
<pdfrwt beam="1">  1        2 0.52736718E+00 0.85823081E+03</pdfrwt>
<pdfrwt beam="2">  1       -2 0.71258887E-02 0.85823081E+03</pdfrwt>
<totfact> 0.11426621E+02</totfact>
</mgrwt>
</event>
<event>
 4    1  0.5626910E-005  0.4997260E+03  0.7818608E-02  0.1013850E+00
         -2   -1    0    0    0  501 -0.00000000000E+00  0.00000000000E+00  0.32307737310E+02  0.32307737411E+02  0.25500000000E-02 0.  1.
          2   -1    0    0  501    0  0.00000000000E+00 -0.00000000000E+00 -0.19324016081E+04  0.19324016081E+04  0.25500000000E-02 0. -1.
    5000001    1    1    2    0    0 -0.11791546681E+03  0.10508459355E+03 -0.85209674089E+03  0.88762586992E+03  0.19200000000E+03 0.  0.
   -5000001    1    1    2    0    0  0.11791546681E+03 -0.10508459355E+03 -0.10479971299E+04  0.10770834756E+04  0.19200000000E+03 0.  0.
<mgrwt>
<rscale>  0 0.49972602E+03</rscale>
<asrwt>0</asrwt>
<pdfrwt beam="1">  1        2 0.27605730E+00 0.49972602E+03</pdfrwt>
<pdfrwt beam="2">  1       -2 0.46153923E-02 0.49972602E+03</pdfrwt>
<totfact> 0.20880558E+03</totfact>
</mgrwt>
</event>
<event>
 4    1  0.5626910E-005  0.8109927E+03  0.7818608E-02  0.9544241E-01
         -2   -1    0    0    0  501 -0.00000000000E+00  0.00000000000E+00  0.18831074716E+03  0.18831074718E+03  0.25500000000E-02 0. -1.
          2   -1    0    0  501    0  0.00000000000E+00 -0.00000000000E+00 -0.87316998061E+03  0.87316998061E+03  0.25500000000E-02 0.  1.
    5000001    1    1    2    0    0 -0.22409247010E+03  0.26384693158E+03 -0.45751051848E+03  0.60498968006E+03  0.19200000000E+03 0.  0.
   -5000001    1    1    2    0    0  0.22409247010E+03 -0.26384693158E+03 -0.22734871497E+03  0.45649104773E+03  0.19200000000E+03 0.  0.
<mgrwt>
<rscale>  0 0.81099270E+03</rscale>
<asrwt>0</asrwt>
<pdfrwt beam="1">  1        2 0.12473857E+00 0.81099270E+03</pdfrwt>
<pdfrwt beam="2">  1       -2 0.26901536E-01 0.81099270E+03</pdfrwt>
<totfact> 0.42575120E+02</totfact>
</mgrwt>
</event>
<event>
 4    1  0.5626910E-005  0.7829268E+03  0.7818608E-02  0.9585064E-01
         -2   -1    0    0    0  501 -0.00000000000E+00  0.00000000000E+00  0.12376569760E+03  0.12376569762E+03  0.25500000000E-02 0. -1.
          2   -1    0    0  501    0  0.00000000000E+00 -0.00000000000E+00 -0.12381751227E+04  0.12381751227E+04  0.25500000000E-02 0.  1.
    5000001    1    1    2    0    0  0.76003201757E+02  0.33255746010E+03 -0.56232291808E+03  0.68515838691E+03  0.19200000000E+03 0.  0.
   -5000001    1    1    2    0    0 -0.76003201757E+02 -0.33255746010E+03 -0.55208650702E+03  0.67678243342E+03  0.19200000000E+03 0.  0.
<mgrwt>
<rscale>  0 0.78292684E+03</rscale>
<asrwt>0</asrwt>
<pdfrwt beam="1">  1        2 0.17688215E+00 0.78292684E+03</pdfrwt>
<pdfrwt beam="2">  1       -2 0.17680815E-01 0.78292684E+03</pdfrwt>
<totfact> 0.54017680E+02</totfact>
</mgrwt>
</event>
<event>
 4    1  0.5626910E-005  0.8206607E+03  0.7818608E-02  0.9530584E-01
         -2   -1    0    0    0  501 -0.00000000000E+00  0.00000000000E+00  0.10006384316E+03  0.10006384319E+03  0.25500000000E-02 0. -1.
          2   -1    0    0  501    0  0.00000000000E+00 -0.00000000000E+00 -0.16826358079E+04  0.16826358079E+04  0.25500000000E-02 0.  1.
    5000001    1    1    2    0    0  0.26782804968E+03  0.19100334076E+03 -0.11228183903E+04  0.11856640662E+04  0.19200000000E+03 0.  0.
   -5000001    1    1    2    0    0 -0.26782804968E+03 -0.19100334076E+03 -0.45975357446E+03  0.59703558487E+03  0.19200000000E+03 0.  0.
<mgrwt>
<rscale>  0 0.82066072E+03</rscale>
<asrwt>0</asrwt>
<pdfrwt beam="1">  1        2 0.24037653E+00 0.82066072E+03</pdfrwt>
<pdfrwt beam="2">  1       -2 0.14294836E-01 0.82066072E+03</pdfrwt>
<totfact> 0.44916190E+02</totfact>
</mgrwt>
</event>
<event>
 4    1  0.5626910E-005  0.4842620E+03  0.7818608E-02  0.1017970E+00
         -2   -1    0    0    0  501 -0.00000000000E+00  0.00000000000E+00  0.23652865968E+03  0.23652865970E+03  0.25500000000E-02 0. -1.
          2   -1    0    0  501    0  0.00000000000E+00 -0.00000000000E+00 -0.24786606457E+03  0.24786606459E+03  0.25500000000E-02 0.  1.
    5000001    1    1    2    0    0  0.37425375560E+02  0.12267471733E+03 -0.78583690666E+02  0.24390395947E+03  0.19200000000E+03 0.  0.
   -5000001    1    1    2    0    0 -0.37425375560E+02 -0.12267471733E+03  0.67246285774E+02  0.24049076481E+03  0.19200000000E+03 0.  0.
<mgrwt>
<rscale>  0 0.48426203E+03</rscale>
<asrwt>0</asrwt>
<pdfrwt beam="1">  1        2 0.35409438E-01 0.48426203E+03</pdfrwt>
<pdfrwt beam="2">  1       -2 0.33789809E-01 0.48426203E+03</pdfrwt>
<totfact> 0.12080111E+03</totfact>
</mgrwt>
</event>
<event>
 4    1  0.5626910E-005  0.5813314E+03  0.7818608E-02  0.9944913E-01
         -2   -1    0    0    0  501 -0.00000000000E+00  0.00000000000E+00  0.11568157747E+03  0.11568157750E+03  0.25500000000E-02 0. -1.
          2   -1    0    0  501    0  0.00000000000E+00 -0.00000000000E+00 -0.73033705737E+03  0.73033705738E+03  0.25500000000E-02 0.  1.
    5000001    1    1    2    0    0 -0.13637416153E+03 -0.11460219807E+03 -0.12387198973E+03  0.28972374009E+03  0.19200000000E+03 0.  0.
   -5000001    1    1    2    0    0  0.13637416153E+03  0.11460219807E+03 -0.49078349018E+03  0.55629489479E+03  0.19200000000E+03 0.  0.
<mgrwt>
<rscale>  0 0.58133138E+03</rscale>
<asrwt>0</asrwt>
<pdfrwt beam="1">  1        2 0.10433386E+00 0.58133138E+03</pdfrwt>
<pdfrwt beam="2">  1       -2 0.16525940E-01 0.58133138E+03</pdfrwt>
<totfact> 0.12699094E+03</totfact>
</mgrwt>
</event>
<event>
 4    1  0.5626910E-005  0.7447191E+03  0.7818608E-02  0.9643672E-01
          2   -1    0    0  501    0  0.00000000000E+00  0.00000000000E+00  0.64739119884E+03  0.64739119884E+03  0.25500000000E-02 0.  1.
         -2   -1    0    0    0  501 -0.00000000000E+00 -0.00000000000E+00 -0.21416975904E+03  0.21416975906E+03  0.25500000000E-02 0. -1.
    5000001    1    1    2    0    0 -0.28777993552E+03 -0.99442279104E+02  0.32685948851E+03  0.48621721832E+03  0.19200000000E+03 0.  0.
   -5000001    1    1    2    0    0  0.28777993552E+03  0.99442279104E+02  0.10636195128E+03  0.37534373958E+03  0.19200000000E+03 0.  0.
<mgrwt>
<rscale>  0 0.74471905E+03</rscale>
<asrwt>0</asrwt>
<pdfrwt beam="1">  1        2 0.92484456E-01 0.74471905E+03</pdfrwt>
<pdfrwt beam="2">  1       -2 0.30595680E-01 0.74471905E+03</pdfrwt>
<totfact> 0.49140511E+02</totfact>
</mgrwt>
</event>
<event>
 4    1  0.5626910E-005  0.5131373E+03  0.7818608E-02  0.1010406E+00
         -2   -1    0    0    0  501 -0.00000000000E+00  0.00000000000E+00  0.34798155365E+03  0.34798155366E+03  0.25500000000E-02 0. -1.
          2   -1    0    0  501    0  0.00000000000E+00 -0.00000000000E+00 -0.18916945168E+03  0.18916945170E+03  0.25500000000E-02 0.  1.
    5000001    1    1    2    0    0  0.18444896125E+02 -0.16918037868E+03  0.80583400006E+02  0.26892359338E+03  0.19200000000E+03 0.  0.
   -5000001    1    1    2    0    0 -0.18444896125E+02  0.16918037868E+03  0.78228701969E+02  0.26822741197E+03  0.19200000000E+03 0.  0.
<mgrwt>
<rscale>  0 0.51313733E+03</rscale>
<asrwt>0</asrwt>
<pdfrwt beam="1">  1        2 0.27024208E-01 0.51313733E+03</pdfrwt>
<pdfrwt beam="2">  1       -2 0.49711650E-01 0.51313733E+03</pdfrwt>
<totfact> 0.77107215E+02</totfact>
</mgrwt>
</event>
<event>
 4    1  0.5626910E-005  0.4842067E+03  0.7818608E-02  0.1017985E+00
         -2   -1    0    0    0  501 -0.00000000000E+00  0.00000000000E+00  0.21395744586E+03  0.21395744588E+03  0.25500000000E-02 0. -1.
          2   -1    0    0  501    0  0.00000000000E+00 -0.00000000000E+00 -0.27395186114E+03  0.27395186115E+03  0.25500000000E-02 0.  1.
    5000001    1    1    2    0    0 -0.10232343790E+03 -0.66011031628E+02  0.53840559775E+02  0.23364577488E+03  0.19200000000E+03 0.  0.
   -5000001    1    1    2    0    0  0.10232343790E+03  0.66011031628E+02 -0.11383497505E+03  0.25426353216E+03  0.19200000000E+03 0.  0.
<mgrwt>
<rscale>  0 0.48420673E+03</rscale>
<asrwt>0</asrwt>
<pdfrwt beam="1">  1        2 0.39135980E-01 0.48420673E+03</pdfrwt>
<pdfrwt beam="2">  1       -2 0.30565349E-01 0.48420673E+03</pdfrwt>
<totfact> 0.13036735E+03</totfact>
</mgrwt>
</event>
<event>
 4    1  0.5626910E-005  0.4131807E+03  0.7818608E-02  0.1039309E+00
          2   -1    0    0  501    0  0.00000000000E+00  0.00000000000E+00  0.69437670297E+03  0.69437670297E+03  0.25500000000E-02 0.  1.
         -2   -1    0    0    0  501 -0.00000000000E+00 -0.00000000000E+00 -0.61464569477E+02  0.61464569530E+02  0.25500000000E-02 0. -1.
    5000001    1    1    2    0    0 -0.30799772559E+02 -0.58999462309E+02  0.38456006887E+03  0.43494828326E+03  0.19200000000E+03 0.  0.
   -5000001    1    1    2    0    0  0.30799772559E+02  0.58999462309E+02  0.24835206462E+03  0.32089298924E+03  0.19200000000E+03 0.  0.
<mgrwt>
<rscale>  0 0.41318066E+03</rscale>
<asrwt>0</asrwt>
<pdfrwt beam="1">  1        2 0.99196662E-01 0.41318066E+03</pdfrwt>
<pdfrwt beam="2">  1       -2 0.87806537E-02 0.41318066E+03</pdfrwt>
<totfact> 0.38086731E+03</totfact>
</mgrwt>
</event>
<event>
 4    1  0.5626910E-005  0.5003220E+03  0.7818608E-02  0.1013695E+00
          2   -1    0    0  501    0  0.00000000000E+00  0.00000000000E+00  0.11118093787E+04  0.11118093787E+04  0.25500000000E-02 0.  1.
         -2   -1    0    0    0  501 -0.00000000000E+00 -0.00000000000E+00 -0.56287105194E+02  0.56287105251E+02  0.25500000000E-02 0. -1.
    5000001    1    1    2    0    0  0.93649390674E+01  0.15769753917E+03  0.46338483383E+03  0.52587614527E+03  0.19200000000E+03 0.  0.
   -5000001    1    1    2    0    0 -0.93649390674E+01 -0.15769753917E+03  0.59213743964E+03  0.64222033864E+03  0.19200000000E+03 0.  0.
<mgrwt>
<rscale>  0 0.50032202E+03</rscale>
<asrwt>0</asrwt>
<pdfrwt beam="1">  1        2 0.15882993E+00 0.50032202E+03</pdfrwt>
<pdfrwt beam="2">  1       -2 0.80410143E-02 0.50032202E+03</pdfrwt>
<totfact> 0.23562124E+03</totfact>
</mgrwt>
</event>
<event>
 4    1  0.5626910E-005  0.5943517E+03  0.7818608E-02  0.9917194E-01
          2   -1    0    0  501    0  0.00000000000E+00  0.00000000000E+00  0.20080997932E+04  0.20080997932E+04  0.25500000000E-02 0.  1.
         -2   -1    0    0    0  501 -0.00000000000E+00 -0.00000000000E+00 -0.43978628047E+02  0.43978628121E+02  0.25500000000E-02 0. -1.
    5000001    1    1    2    0    0 -0.55948843683E+02  0.19819272059E+03  0.13103122763E+04  0.13402212090E+04  0.19200000000E+03 0.  0.
   -5000001    1    1    2    0    0  0.55948843683E+02 -0.19819272059E+03  0.65380888884E+03  0.71185721232E+03  0.19200000000E+03 0.  0.
<mgrwt>
<rscale>  0 0.59435166E+03</rscale>
<asrwt>0</asrwt>
<pdfrwt beam="1">  1        2 0.28687145E+00 0.59435166E+03</pdfrwt>
<pdfrwt beam="2">  1       -2 0.62826601E-02 0.59435166E+03</pdfrwt>
<totfact> 0.11797438E+03</totfact>
</mgrwt>
</event>
<event>
 4    1  0.5626910E-005  0.1105860E+04  0.7818608E-02  0.9199500E-01
          2   -1    0    0  501    0  0.00000000000E+00  0.00000000000E+00  0.43404101286E+03  0.43404101287E+03  0.25500000000E-02 0.  1.
         -2   -1    0    0    0  501 -0.00000000000E+00 -0.00000000000E+00 -0.70438346161E+03  0.70438346162E+03  0.25500000000E-02 0. -1.
    5000001    1    1    2    0    0  0.48445788073E+03  0.84940137325E+02 -0.30417958731E+03  0.60934677029E+03  0.19200000000E+03 0.  0.
   -5000001    1    1    2    0    0 -0.48445788073E+03 -0.84940137325E+02  0.33837138560E+02  0.52907770420E+03  0.19200000000E+03 0.  0.
<mgrwt>
<rscale>  0 0.11058595E+04</rscale>
<asrwt>0</asrwt>
<pdfrwt beam="1">  1        2 0.62005859E-01 0.11058595E+04</pdfrwt>
<pdfrwt beam="2">  1       -2 0.10062621E+00 0.11058595E+04</pdfrwt>
<totfact> 0.63777098E+01</totfact>
</mgrwt>
</event>
<event>
 4    1  0.5626910E-005  0.4920259E+03  0.7818608E-02  0.1015881E+00
         -2   -1    0    0    0  501 -0.00000000000E+00  0.00000000000E+00  0.67801177522E+02  0.67801177570E+02  0.25500000000E-02 0. -1.
          2   -1    0    0  501    0  0.00000000000E+00 -0.00000000000E+00 -0.89264485615E+03  0.89264485615E+03  0.25500000000E-02 0.  1.
    5000001    1    1    2    0    0 -0.94422361336E+01 -0.15216142608E+03 -0.37260262246E+03  0.44602575001E+03  0.19200000000E+03 0.  0.
   -5000001    1    1    2    0    0  0.94422361336E+01  0.15216142608E+03 -0.45224105616E+03  0.51442028371E+03  0.19200000000E+03 0.  0.
<mgrwt>
<rscale>  0 0.49202590E+03</rscale>
<asrwt>0</asrwt>
<pdfrwt beam="1">  1        2 0.12752069E+00 0.49202590E+03</pdfrwt>
<pdfrwt beam="2">  1       -2 0.96858830E-02 0.49202590E+03</pdfrwt>
<totfact> 0.23760718E+03</totfact>
</mgrwt>
</event>
<event>
 4    1  0.5626910E-005  0.5096468E+03  0.7818608E-02  0.1011291E+00
         -2   -1    0    0    0  501 -0.00000000000E+00  0.00000000000E+00  0.59074785634E+03  0.59074785635E+03  0.25500000000E-02 0. -1.
          2   -1    0    0  501    0  0.00000000000E+00 -0.00000000000E+00 -0.10991993819E+03  0.10991993822E+03  0.25500000000E-02 0.  1.
    5000001    1    1    2    0    0 -0.37694895096E+02 -0.14910413475E+03  0.33179512019E+03  0.41304352058E+03  0.19200000000E+03 0.  0.
   -5000001    1    1    2    0    0  0.37694895096E+02  0.14910413475E+03  0.14903279797E+03  0.28762427399E+03  0.19200000000E+03 0.  0.
<mgrwt>
<rscale>  0 0.50964681E+03</rscale>
<asrwt>0</asrwt>
<pdfrwt beam="1">  1        2 0.15702848E-01 0.50964681E+03</pdfrwt>
<pdfrwt beam="2">  1       -2 0.84392553E-01 0.50964681E+03</pdfrwt>
<totfact> 0.46885259E+02</totfact>
</mgrwt>
</event>
<event>
 4    1  0.5626910E-005  0.8978516E+03  0.7818608E-02  0.9428271E-01
          2   -1    0    0  501    0  0.00000000000E+00  0.00000000000E+00  0.25663721219E+03  0.25663721220E+03  0.25500000000E-02 0.  1.
         -2   -1    0    0    0  501 -0.00000000000E+00 -0.00000000000E+00 -0.78528905598E+03  0.78528905599E+03  0.25500000000E-02 0. -1.
    5000001    1    1    2    0    0 -0.30235677738E+03  0.26889960922E+03 -0.22867536831E+03  0.50287478038E+03  0.19200000000E+03 0.  0.
   -5000001    1    1    2    0    0  0.30235677738E+03 -0.26889960922E+03 -0.29997647548E+03  0.53905148781E+03  0.19200000000E+03 0.  0.
<mgrwt>
<rscale>  0 0.89785164E+03</rscale>
<asrwt>0</asrwt>
<pdfrwt beam="1">  1        2 0.36662459E-01 0.89785164E+03</pdfrwt>
<pdfrwt beam="2">  1       -2 0.11218415E+00 0.89785164E+03</pdfrwt>
<totfact> 0.89242954E+01</totfact>
</mgrwt>
</event>
<event>
 4    1  0.5626910E-005  0.6214383E+03  0.7818608E-02  0.9861900E-01
         -2   -1    0    0    0  501 -0.00000000000E+00  0.00000000000E+00  0.36161518141E+03  0.36161518142E+03  0.25500000000E-02 0. -1.
          2   -1    0    0  501    0  0.00000000000E+00 -0.00000000000E+00 -0.26698655612E+03  0.26698655614E+03  0.25500000000E-02 0.  1.
    5000001    1    1    2    0    0 -0.16235083458E+03 -0.16684965716E+03 -0.27605582431E+02  0.30302255653E+03  0.19200000000E+03 0.  0.
   -5000001    1    1    2    0    0  0.16235083458E+03  0.16684965716E+03  0.12223420772E+03  0.32557918103E+03  0.19200000000E+03 0.  0.
<mgrwt>
<rscale>  0 0.62143831E+03</rscale>
<asrwt>0</asrwt>
<pdfrwt beam="1">  1        2 0.38140936E-01 0.62143831E+03</pdfrwt>
<pdfrwt beam="2">  1       -2 0.51659312E-01 0.62143831E+03</pdfrwt>
<totfact> 0.48466122E+02</totfact>
</mgrwt>
</event>
<event>
 4    1  0.5626910E-005  0.5435618E+03  0.7818608E-02  0.1002995E+00
          2   -1    0    0  501    0  0.00000000000E+00  0.00000000000E+00  0.34906945412E+03  0.34906945413E+03  0.25500000000E-02 0.  1.
         -2   -1    0    0    0  501 -0.00000000000E+00 -0.00000000000E+00 -0.21160503996E+03  0.21160503997E+03  0.25500000000E-02 0. -1.
    5000001    1    1    2    0    0 -0.95876582954E+02 -0.11474211683E+03 -0.56084779717E+02  0.24973500966E+03  0.19200000000E+03 0.  0.
   -5000001    1    1    2    0    0  0.95876582954E+02  0.11474211683E+03  0.19354919388E+03  0.31093948444E+03  0.19200000000E+03 0.  0.
<mgrwt>
<rscale>  0 0.54356179E+03</rscale>
<asrwt>0</asrwt>
<pdfrwt beam="1">  1        2 0.49867065E-01 0.54356179E+03</pdfrwt>
<pdfrwt beam="2">  1       -2 0.30229292E-01 0.54356179E+03</pdfrwt>
<totfact> 0.10195346E+03</totfact>
</mgrwt>
</event>
<event>
 4    1  0.5626910E-005  0.8221803E+03  0.7818608E-02  0.9528456E-01
         -2   -1    0    0    0  501 -0.00000000000E+00  0.00000000000E+00  0.30905230293E+03  0.30905230294E+03  0.25500000000E-02 0. -1.
          2   -1    0    0  501    0  0.00000000000E+00 -0.00000000000E+00 -0.54681723647E+03  0.54681723647E+03  0.25500000000E-02 0.  1.
    5000001    1    1    2    0    0 -0.31621035229E+03 -0.62369899239E+02  0.56088552122E+02  0.37932692615E+03  0.19200000000E+03 0.  0.
   -5000001    1    1    2    0    0  0.31621035229E+03  0.62369899239E+02 -0.29385348566E+03  0.47654261326E+03  0.19200000000E+03 0.  0.
<mgrwt>
<rscale>  0 0.82218034E+03</rscale>
<asrwt>0</asrwt>
<pdfrwt beam="1">  1        2 0.78116748E-01 0.82218034E+03</pdfrwt>
<pdfrwt beam="2">  1       -2 0.44150329E-01 0.82218034E+03</pdfrwt>
<totfact> 0.29591765E+02</totfact>
</mgrwt>
</event>
<event>
 4    1  0.5626910E-005  0.6610068E+03  0.7818608E-02  0.9786342E-01
          2   -1    0    0  501    0  0.00000000000E+00  0.00000000000E+00  0.17575779733E+04  0.17575779733E+04  0.25500000000E-02 0.  1.
         -2   -1    0    0    0  501 -0.00000000000E+00 -0.00000000000E+00 -0.62149438369E+02  0.62149438421E+02  0.25500000000E-02 0. -1.
    5000001    1    1    2    0    0 -0.16857590790E+02  0.26129567033E+03  0.10176164602E+04  0.10681605056E+04  0.19200000000E+03 0.  0.
   -5000001    1    1    2    0    0  0.16857590790E+02 -0.26129567033E+03  0.67781207476E+03  0.75156690613E+03  0.19200000000E+03 0.  0.
<mgrwt>
<rscale>  0 0.66100676E+03</rscale>
<asrwt>0</asrwt>
<pdfrwt beam="1">  1        2 0.25108259E+00 0.66100676E+03</pdfrwt>
<pdfrwt beam="2">  1       -2 0.88784903E-02 0.66100676E+03</pdfrwt>
<totfact> 0.90788098E+02</totfact>
</mgrwt>
</event>
<event>
 4    1  0.5626910E-005  0.4804720E+03  0.7818608E-02  0.1019006E+00
          2   -1    0    0  501    0  0.00000000000E+00  0.00000000000E+00  0.28894582227E+03  0.28894582228E+03  0.25500000000E-02 0.  1.
         -2   -1    0    0    0  501 -0.00000000000E+00 -0.00000000000E+00 -0.19973754073E+03  0.19973754075E+03  0.25500000000E-02 0. -1.
    5000001    1    1    2    0    0  0.13175546031E+02 -0.14100409176E+03  0.15952163664E+02  0.23911131389E+03  0.19200000000E+03 0.  0.
   -5000001    1    1    2    0    0 -0.13175546031E+02  0.14100409176E+03  0.73256117873E+02  0.24957204914E+03  0.19200000000E+03 0.  0.
<mgrwt>
<rscale>  0 0.48047197E+03</rscale>
<asrwt>0</asrwt>
<pdfrwt beam="1">  1        2 0.41277974E-01 0.48047197E+03</pdfrwt>
<pdfrwt beam="2">  1       -2 0.28533935E-01 0.48047197E+03</pdfrwt>
<totfact> 0.13948494E+03</totfact>
</mgrwt>
</event>
<event>
 4    1  0.5626910E-005  0.6993009E+03  0.7818608E-02  0.9718428E-01
          2   -1    0    0  501    0  0.00000000000E+00  0.00000000000E+00  0.50092080805E+03  0.50092080806E+03  0.25500000000E-02 0.  1.
         -2   -1    0    0    0  501 -0.00000000000E+00 -0.00000000000E+00 -0.24406143652E+03  0.24406143653E+03  0.25500000000E-02 0. -1.
    5000001    1    1    2    0    0  0.14016229565E+03  0.17657847772E+03  0.32649413143E+03  0.44078094988E+03  0.19200000000E+03 0.  0.
   -5000001    1    1    2    0    0 -0.14016229565E+03 -0.17657847772E+03 -0.69634759899E+02  0.30420129471E+03  0.19200000000E+03 0.  0.
<mgrwt>
<rscale>  0 0.69930094E+03</rscale>
<asrwt>0</asrwt>
<pdfrwt beam="1">  1        2 0.71560116E-01 0.69930094E+03</pdfrwt>
<pdfrwt beam="2">  1       -2 0.34865919E-01 0.69930094E+03</pdfrwt>
<totfact> 0.51987523E+02</totfact>
</mgrwt>
</event>
<event>
 4    1  0.5626910E-005  0.4756821E+03  0.7818608E-02  0.1020329E+00
          2   -1    0    0  501    0  0.00000000000E+00  0.00000000000E+00  0.82548522661E+03  0.82548522661E+03  0.25500000000E-02 0.  1.
         -2   -1    0    0    0  501 -0.00000000000E+00 -0.00000000000E+00 -0.68527415417E+02  0.68527415465E+02  0.25500000000E-02 0. -1.
    5000001    1    1    2    0    0 -0.25993298618E+01 -0.10689074516E+03  0.20754366653E+03  0.30227596900E+03  0.19200000000E+03 0.  0.
   -5000001    1    1    2    0    0  0.25993298618E+01  0.10689074516E+03  0.54941414466E+03  0.59173667308E+03  0.19200000000E+03 0.  0.
<mgrwt>
<rscale>  0 0.47568212E+03</rscale>
<asrwt>0</asrwt>
<pdfrwt beam="1">  1        2 0.11792646E+00 0.47568212E+03</pdfrwt>
<pdfrwt beam="2">  1       -2 0.97896309E-02 0.47568212E+03</pdfrwt>
<totfact> 0.25857492E+03</totfact>
</mgrwt>
</event>
<event>
 4    1  0.5626910E-005  0.4289694E+03  0.7818608E-02  0.1034186E+00
         -2   -1    0    0    0  501 -0.00000000000E+00  0.00000000000E+00  0.48808052270E+02  0.48808052336E+02  0.25500000000E-02 0. -1.
          2   -1    0    0  501    0  0.00000000000E+00 -0.00000000000E+00 -0.94254276273E+03  0.94254276273E+03  0.25500000000E-02 0.  1.
    5000001    1    1    2    0    0  0.86042347557E+02  0.38577286637E+02 -0.48327460374E+03  0.52849771545E+03  0.19200000000E+03 0.  0.
   -5000001    1    1    2    0    0 -0.86042347557E+02 -0.38577286637E+02 -0.41046010672E+03  0.46285309962E+03  0.19200000000E+03 0.  0.
<mgrwt>
<rscale>  0 0.42896935E+03</rscale>
<asrwt>0</asrwt>
<pdfrwt beam="1">  1        2 0.13464895E+00 0.42896935E+03</pdfrwt>
<pdfrwt beam="2">  1       -2 0.69725795E-02 0.42896935E+03</pdfrwt>
<totfact> 0.37202014E+03</totfact>
</mgrwt>
</event>
<event>
 4    1  0.5626910E-005  0.4890492E+03  0.7818608E-02  0.1016677E+00
         -2   -1    0    0    0  501 -0.00000000000E+00  0.00000000000E+00  0.14005247941E+03  0.14005247943E+03  0.25500000000E-02 0. -1.
          2   -1    0    0  501    0  0.00000000000E+00 -0.00000000000E+00 -0.42692766701E+03  0.42692766702E+03  0.25500000000E-02 0.  1.
    5000001    1    1    2    0    0 -0.21472418460E+02 -0.83348909956E+02  0.99445793935E+00  0.21041172613E+03  0.19200000000E+03 0.  0.
   -5000001    1    1    2    0    0  0.21472418460E+02  0.83348909956E+02 -0.28786964554E+03  0.35656842032E+03  0.19200000000E+03 0.  0.
<mgrwt>
<rscale>  0 0.48904919E+03</rscale>
<asrwt>0</asrwt>
<pdfrwt beam="1">  1        2 0.60989666E-01 0.48904919E+03</pdfrwt>
<pdfrwt beam="2">  1       -2 0.20007497E-01 0.48904919E+03</pdfrwt>
<totfact> 0.17062334E+03</totfact>
</mgrwt>
</event>
<event>
 4    1  0.5626910E-005  0.4412048E+03  0.7818608E-02  0.1030378E+00
          2   -1    0    0  501    0  0.00000000000E+00  0.00000000000E+00  0.22840284463E+03  0.22840284464E+03  0.25500000000E-02 0.  1.
         -2   -1    0    0    0  501 -0.00000000000E+00 -0.00000000000E+00 -0.21306840042E+03  0.21306840044E+03  0.25500000000E-02 0. -1.
    5000001    1    1    2    0    0  0.88587447299E+02 -0.23038952946E+02  0.66208099668E+02  0.22276903203E+03  0.19200000000E+03 0.  0.
   -5000001    1    1    2    0    0 -0.88587447299E+02  0.23038952946E+02 -0.50873655463E+02  0.21870221305E+03  0.19200000000E+03 0.  0.
<mgrwt>
<rscale>  0 0.44120484E+03</rscale>
<asrwt>0</asrwt>
<pdfrwt beam="1">  1        2 0.32628978E-01 0.44120484E+03</pdfrwt>
<pdfrwt beam="2">  1       -2 0.30438343E-01 0.44120484E+03</pdfrwt>
<totfact> 0.16046183E+03</totfact>
</mgrwt>
</event>
<event>
 4    1  0.5626910E-005  0.8359207E+03  0.7818608E-02  0.9509431E-01
         -2   -1    0    0    0  501 -0.00000000000E+00  0.00000000000E+00  0.80856449551E+02  0.80856449591E+02  0.25500000000E-02 0. -1.
          2   -1    0    0  501    0  0.00000000000E+00 -0.00000000000E+00 -0.21605063411E+04  0.21605063411E+04  0.25500000000E-02 0.  1.
    5000001    1    1    2    0    0  0.19540037661E+02 -0.34963196459E+03 -0.13704267745E+04  0.14274305125E+04  0.19200000000E+03 0.  0.
   -5000001    1    1    2    0    0 -0.19540037661E+02  0.34963196459E+03 -0.70922311703E+03  0.81393227818E+03  0.19200000000E+03 0.  0.
<mgrwt>
<rscale>  0 0.83592074E+03</rscale>
<asrwt>0</asrwt>
<pdfrwt beam="1">  1        2 0.30864373E+00 0.83592074E+03</pdfrwt>
<pdfrwt beam="2">  1       -2 0.11550923E-01 0.83592074E+03</pdfrwt>
<totfact> 0.36555138E+02</totfact>
</mgrwt>
</event>
<event>
 4    1  0.5626910E-005  0.4627978E+03  0.7818608E-02  0.1023973E+00
          2   -1    0    0  501    0  0.00000000000E+00  0.00000000000E+00  0.46426042677E+03  0.46426042678E+03  0.25500000000E-02 0.  1.
         -2   -1    0    0    0  501 -0.00000000000E+00 -0.00000000000E+00 -0.11533494330E+03  0.11533494333E+03  0.25500000000E-02 0. -1.
    5000001    1    1    2    0    0  0.81374508024E+02 -0.18736536046E+02  0.29786170747E+03  0.36408579362E+03  0.19200000000E+03 0.  0.
   -5000001    1    1    2    0    0 -0.81374508024E+02  0.18736536046E+02  0.51063775997E+02  0.21550957649E+03  0.19200000000E+03 0.  0.
<mgrwt>
<rscale>  0 0.46279780E+03</rscale>
<asrwt>0</asrwt>
<pdfrwt beam="1">  1        2 0.66322918E-01 0.46279780E+03</pdfrwt>
<pdfrwt beam="2">  1       -2 0.16476421E-01 0.46279780E+03</pdfrwt>
<totfact> 0.21661833E+03</totfact>
</mgrwt>
</event>
<event>
 4    1  0.5626910E-005  0.5166364E+03  0.7818608E-02  0.1009526E+00
         -2   -1    0    0    0  501 -0.00000000000E+00  0.00000000000E+00  0.24110116181E+02  0.24110116316E+02  0.25500000000E-02 0. -1.
          2   -1    0    0  501    0  0.00000000000E+00 -0.00000000000E+00 -0.27676470264E+04  0.27676470264E+04  0.25500000000E-02 0.  1.
    5000001    1    1    2    0    0  0.16416630319E+03 -0.53916026966E+02 -0.13858373097E+04  0.14097044236E+04  0.19200000000E+03 0.  0.
   -5000001    1    1    2    0    0 -0.16416630319E+03  0.53916026966E+02 -0.13576996005E+04  0.13820527191E+04  0.19200000000E+03 0.  0.
<mgrwt>
<rscale>  0 0.51663640E+03</rscale>
<asrwt>0</asrwt>
<pdfrwt beam="1">  1        2 0.39537794E+00 0.51663640E+03</pdfrwt>
<pdfrwt beam="2">  1       -2 0.34443041E-02 0.51663640E+03</pdfrwt>
<totfact> 0.12309291E+03</totfact>
</mgrwt>
</event>
<event>
 4    1  0.5626910E-005  0.5044152E+03  0.7818608E-02  0.1012633E+00
         -2   -1    0    0    0  501 -0.00000000000E+00  0.00000000000E+00  0.97287979481E+02  0.97287979515E+02  0.25500000000E-02 0. -1.
          2   -1    0    0  501    0  0.00000000000E+00 -0.00000000000E+00 -0.65381850695E+03  0.65381850695E+03  0.25500000000E-02 0.  1.
    5000001    1    1    2    0    0  0.10288827721E+01  0.10437488203E+03 -0.46573069608E+03  0.51445530017E+03  0.19200000000E+03 0.  0.
   -5000001    1    1    2    0    0 -0.10288827721E+01 -0.10437488203E+03 -0.90799831388E+02  0.23665118630E+03  0.19200000000E+03 0.  0.
<mgrwt>
<rscale>  0 0.50441523E+03</rscale>
<asrwt>0</asrwt>
<pdfrwt beam="1">  1        2 0.93402641E-01 0.50441523E+03</pdfrwt>
<pdfrwt beam="2">  1       -2 0.13898283E-01 0.50441523E+03</pdfrwt>
<totfact> 0.19444077E+03</totfact>
</mgrwt>
</event>
<event>
 4    1  0.5626910E-005  0.5344603E+03  0.7818608E-02  0.1005156E+00
          2   -1    0    0  501    0  0.00000000000E+00  0.00000000000E+00  0.29873211883E+04  0.29873211883E+04  0.25500000000E-02 0.  1.
         -2   -1    0    0    0  501 -0.00000000000E+00 -0.00000000000E+00 -0.23905014244E+02  0.23905014380E+02  0.25500000000E-02 0. -1.
    5000001    1    1    2    0    0  0.90873474668E+02  0.12241039275E+03  0.88264033559E+03  0.91605690579E+03  0.19200000000E+03 0.  0.
   -5000001    1    1    2    0    0 -0.90873474668E+02 -0.12241039275E+03  0.20807758385E+04  0.20951692969E+04  0.19200000000E+03 0.  0.
<mgrwt>
<rscale>  0 0.53446031E+03</rscale>
<asrwt>0</asrwt>
<pdfrwt beam="1">  1        2 0.42676024E+00 0.53446031E+03</pdfrwt>
<pdfrwt beam="2">  1       -2 0.34150015E-02 0.53446031E+03</pdfrwt>
<totfact> 0.95103197E+02</totfact>
</mgrwt>
</event>
<event>
 4    1  0.5626910E-005  0.4720256E+03  0.7818608E-02  0.1021350E+00
          2   -1    0    0  501    0  0.00000000000E+00  0.00000000000E+00  0.15935522139E+04  0.15935522139E+04  0.25500000000E-02 0.  1.
         -2   -1    0    0    0  501 -0.00000000000E+00 -0.00000000000E+00 -0.34954640457E+02  0.34954640550E+02  0.25500000000E-02 0. -1.
    5000001    1    1    2    0    0  0.43171820370E+02 -0.66609881445E+02  0.11656009282E+04  0.11839722151E+04  0.19200000000E+03 0.  0.
   -5000001    1    1    2    0    0 -0.43171820370E+02  0.66609881445E+02  0.39299664521E+03  0.44453463928E+03  0.19200000000E+03 0.  0.
<mgrwt>
<rscale>  0 0.47202561E+03</rscale>
<asrwt>0</asrwt>
<pdfrwt beam="1">  1        2 0.22765032E+00 0.47202561E+03</pdfrwt>
<pdfrwt beam="2">  1       -2 0.49935199E-02 0.47202561E+03</pdfrwt>
<totfact> 0.27405870E+03</totfact>
</mgrwt>
</event>
<event>
 4    1  0.5626910E-005  0.7563792E+03  0.7818608E-02  0.9625395E-01
         -2   -1    0    0    0  501 -0.00000000000E+00  0.00000000000E+00  0.20566451469E+03  0.20566451471E+03  0.25500000000E-02 0. -1.
          2   -1    0    0  501    0  0.00000000000E+00 -0.00000000000E+00 -0.69544018751E+03  0.69544018752E+03  0.25500000000E-02 0.  1.
    5000001    1    1    2    0    0 -0.31920116898E+03 -0.60175661511E+02 -0.21444747812E+03  0.43400716283E+03  0.19200000000E+03 0.  0.
   -5000001    1    1    2    0    0  0.31920116898E+03  0.60175661511E+02 -0.27532819470E+03  0.46709753940E+03  0.19200000000E+03 0.  0.
<mgrwt>
<rscale>  0 0.75637919E+03</rscale>
<asrwt>0</asrwt>
<pdfrwt beam="1">  1        2 0.99348597E-01 0.75637919E+03</pdfrwt>
<pdfrwt beam="2">  1       -2 0.29380645E-01 0.75637919E+03</pdfrwt>
<totfact> 0.48533727E+02</totfact>
</mgrwt>
</event>
<event>
 4    1  0.5626910E-005  0.6031360E+03  0.7818608E-02  0.9898921E-01
         -2   -1    0    0    0  501 -0.00000000000E+00  0.00000000000E+00  0.73117705548E+02  0.73117705592E+02  0.25500000000E-02 0. -1.
          2   -1    0    0  501    0  0.00000000000E+00 -0.00000000000E+00 -0.12437924243E+04  0.12437924243E+04  0.25500000000E-02 0.  1.
    5000001    1    1    2    0    0  0.53288182054E+02 -0.15940051506E+03 -0.23441397492E+03  0.34649973475E+03  0.19200000000E+03 0.  0.
   -5000001    1    1    2    0    0 -0.53288182054E+02  0.15940051506E+03 -0.93626074379E+03  0.97041039509E+03  0.19200000000E+03 0.  0.
<mgrwt>
<rscale>  0 0.60313597E+03</rscale>
<asrwt>0</asrwt>
<pdfrwt beam="1">  1        2 0.17768462E+00 0.60313597E+03</pdfrwt>
<pdfrwt beam="2">  1       -2 0.10445387E-01 0.60313597E+03</pdfrwt>
<totfact> 0.13017187E+03</totfact>
</mgrwt>
</event>
<event>
 4    1  0.5626910E-005  0.7060894E+03  0.7818608E-02  0.9706875E-01
          2   -1    0    0  501    0  0.00000000000E+00  0.00000000000E+00  0.29622033117E+03  0.29622033118E+03  0.25500000000E-02 0.  1.
         -2   -1    0    0    0  501 -0.00000000000E+00 -0.00000000000E+00 -0.42076978722E+03  0.42076978723E+03  0.25500000000E-02 0. -1.
    5000001    1    1    2    0    0  0.28021554622E+03  0.50671760167E+02  0.20769154105E+02  0.34406937873E+03  0.19200000000E+03 0.  0.
   -5000001    1    1    2    0    0 -0.28021554622E+03 -0.50671760167E+02 -0.14531861016E+03  0.37292073967E+03  0.19200000000E+03 0.  0.
<mgrwt>
<rscale>  0 0.70608942E+03</rscale>
<asrwt>0</asrwt>
<pdfrwt beam="1">  1        2 0.42317190E-01 0.70608942E+03</pdfrwt>
<pdfrwt beam="2">  1       -2 0.60109970E-01 0.70608942E+03</pdfrwt>
<totfact> 0.31481378E+02</totfact>
</mgrwt>
</event>
<event>
 4    1  0.5626910E-005  0.9447079E+03  0.7818608E-02  0.9371358E-01
          2   -1    0    0  501    0  0.00000000000E+00  0.00000000000E+00  0.49732953519E+03  0.49732953520E+03  0.25500000000E-02 0.  1.
         -2   -1    0    0    0  501 -0.00000000000E+00 -0.00000000000E+00 -0.44863258614E+03  0.44863258615E+03  0.25500000000E-02 0. -1.
    5000001    1    1    2    0    0  0.73506709940E+02 -0.33595819536E+03  0.28543031649E+03  0.48642122796E+03  0.19200000000E+03 0.  0.
   -5000001    1    1    2    0    0 -0.73506709940E+02  0.33595819536E+03 -0.23673336745E+03  0.45954089339E+03  0.19200000000E+03 0.  0.
<mgrwt>
<rscale>  0 0.94470786E+03</rscale>
<asrwt>0</asrwt>
<pdfrwt beam="1">  1        2 0.71047077E-01 0.94470786E+03</pdfrwt>
<pdfrwt beam="2">  1       -2 0.64090369E-01 0.94470786E+03</pdfrwt>
<totfact> 0.15229631E+02</totfact>
</mgrwt>
</event>
<event>
 4    1  0.5626910E-005  0.5969274E+03  0.7818608E-02  0.9911801E-01
         -2   -1    0    0    0  501 -0.00000000000E+00  0.00000000000E+00  0.75011458909E+02  0.75011458953E+02  0.25500000000E-02 0. -1.
          2   -1    0    0  501    0  0.00000000000E+00 -0.00000000000E+00 -0.11875594943E+04  0.11875594943E+04  0.25500000000E-02 0.  1.
    5000001    1    1    2    0    0 -0.10826079816E+03  0.52059615653E+02 -0.96742333166E+03  0.99358064929E+03  0.19200000000E+03 0.  0.
   -5000001    1    1    2    0    0  0.10826079816E+03 -0.52059615653E+02 -0.14512470375E+03  0.26899030399E+03  0.19200000000E+03 0.  0.
<mgrwt>
<rscale>  0 0.59692737E+03</rscale>
<asrwt>0</asrwt>
<pdfrwt beam="1">  1        2 0.16965135E+00 0.59692737E+03</pdfrwt>
<pdfrwt beam="2">  1       -2 0.10715923E-01 0.59692737E+03</pdfrwt>
<totfact> 0.13423470E+03</totfact>
</mgrwt>
</event>
<event>
 4    1  0.5626910E-005  0.7513355E+03  0.7818608E-02  0.9633258E-01
         -2   -1    0    0    0  501 -0.00000000000E+00  0.00000000000E+00  0.47535313186E+02  0.47535313254E+02  0.25500000000E-02 0. -1.
          2   -1    0    0  501    0  0.00000000000E+00 -0.00000000000E+00 -0.29688718274E+04  0.29688718274E+04  0.25500000000E-02 0.  1.
    5000001    1    1    2    0    0 -0.12780152728E+03 -0.29447579331E+03 -0.13208410595E+04  0.13727834235E+04  0.19200000000E+03 0.  0.
   -5000001    1    1    2    0    0  0.12780152728E+03  0.29447579331E+03 -0.16004954547E+04  0.16436237172E+04  0.19200000000E+03 0.  0.
<mgrwt>
<rscale>  0 0.75133548E+03</rscale>
<asrwt>0</asrwt>
<pdfrwt beam="1">  1        2 0.42412443E+00 0.75133548E+03</pdfrwt>
<pdfrwt beam="2">  1       -2 0.67907609E-02 0.75133548E+03</pdfrwt>
<totfact> 0.32819151E+02</totfact>
</mgrwt>
</event>
<event>
 4    1  0.5626910E-005  0.4346275E+03  0.7818608E-02  0.1032408E+00
          2   -1    0    0  501    0  0.00000000000E+00  0.00000000000E+00  0.11391697761E+04  0.11391697761E+04  0.25500000000E-02 0.  1.
         -2   -1    0    0    0  501 -0.00000000000E+00 -0.00000000000E+00 -0.41455862835E+02  0.41455862913E+02  0.25500000000E-02 0. -1.
    5000001    1    1    2    0    0 -0.85250583436E+02 -0.46419737690E+02  0.63208780579E+03  0.66769862083E+03  0.19200000000E+03 0.  0.
   -5000001    1    1    2    0    0  0.85250583436E+02  0.46419737690E+02  0.46562610743E+03  0.51292701814E+03  0.19200000000E+03 0.  0.
<mgrwt>
<rscale>  0 0.43462750E+03</rscale>
<asrwt>0</asrwt>
<pdfrwt beam="1">  1        2 0.16273854E+00 0.43462750E+03</pdfrwt>
<pdfrwt beam="2">  1       -2 0.59222662E-02 0.43462750E+03</pdfrwt>
<totfact> 0.36730126E+03</totfact>
</mgrwt>
</event>
<event>
 4    1  0.5626910E-005  0.4534057E+03  0.7818608E-02  0.1026711E+00
         -2   -1    0    0    0  501 -0.00000000000E+00  0.00000000000E+00  0.41887645999E+03  0.41887645999E+03  0.25500000000E-02 0. -1.
          2   -1    0    0  501    0  0.00000000000E+00 -0.00000000000E+00 -0.12269534482E+03  0.12269534485E+03  0.25500000000E-02 0.  1.
    5000001    1    1    2    0    0 -0.11369509501E+03 -0.34555957010E+02  0.17226171940E+03  0.28400490976E+03  0.19200000000E+03 0.  0.
   -5000001    1    1    2    0    0  0.11369509501E+03  0.34555957010E+02  0.12391939577E+03  0.25756689508E+03  0.19200000000E+03 0.  0.
<mgrwt>
<rscale>  0 0.45340574E+03</rscale>
<asrwt>0</asrwt>
<pdfrwt beam="1">  1        2 0.17527906E-01 0.45340574E+03</pdfrwt>
<pdfrwt beam="2">  1       -2 0.59839496E-01 0.45340574E+03</pdfrwt>
<totfact> 0.86826286E+02</totfact>
</mgrwt>
</event>
<event>
 4    1  0.5626910E-005  0.6015935E+03  0.7818608E-02  0.9902106E-01
         -2   -1    0    0    0  501 -0.00000000000E+00  0.00000000000E+00  0.55832547452E+02  0.55832547510E+02  0.25500000000E-02 0. -1.
          2   -1    0    0  501    0  0.00000000000E+00 -0.00000000000E+00 -0.16205363231E+04  0.16205363231E+04  0.25500000000E-02 0.  1.
    5000001    1    1    2    0    0  0.86907381686E+02 -0.17284811030E+03 -0.11368606570E+04  0.11690789176E+04  0.19200000000E+03 0.  0.
   -5000001    1    1    2    0    0 -0.86907381686E+02  0.17284811030E+03 -0.42784311872E+03  0.50728995305E+03  0.19200000000E+03 0.  0.
<mgrwt>
<rscale>  0 0.60159345E+03</rscale>
<asrwt>0</asrwt>
<pdfrwt beam="1">  1        2 0.23150516E+00 0.60159345E+03</pdfrwt>
<pdfrwt beam="2">  1       -2 0.79760792E-02 0.60159345E+03</pdfrwt>
<totfact> 0.12695599E+03</totfact>
</mgrwt>
</event>
<event>
 4    1  0.5626910E-005  0.4553463E+03  0.7818608E-02  0.1026140E+00
          2   -1    0    0  501    0  0.00000000000E+00  0.00000000000E+00  0.20084529324E+04  0.20084529324E+04  0.25500000000E-02 0.  1.
         -2   -1    0    0    0  501 -0.00000000000E+00 -0.00000000000E+00 -0.25808449553E+02  0.25808449679E+02  0.25500000000E-02 0. -1.
    5000001    1    1    2    0    0  0.79344610765E+02  0.70651179855E+02  0.72016645371E+03  0.75285515042E+03  0.19200000000E+03 0.  0.
   -5000001    1    1    2    0    0 -0.79344610765E+02 -0.70651179855E+02  0.12624780291E+04  0.12814062316E+04  0.19200000000E+03 0.  0.
<mgrwt>
<rscale>  0 0.45534627E+03</rscale>
<asrwt>0</asrwt>
<pdfrwt beam="1">  1        2 0.28692197E+00 0.45534627E+03</pdfrwt>
<pdfrwt beam="2">  1       -2 0.36869198E-02 0.45534627E+03</pdfrwt>
<totfact> 0.27026561E+03</totfact>
</mgrwt>
</event>
<event>
 4    1  0.5626910E-005  0.6277307E+03  0.7818608E-02  0.9849487E-01
         -2   -1    0    0    0  501 -0.00000000000E+00  0.00000000000E+00  0.24899528688E+02  0.24899528819E+02  0.25500000000E-02 0. -1.
          2   -1    0    0  501    0  0.00000000000E+00 -0.00000000000E+00 -0.39563584180E+04  0.39563584180E+04  0.25500000000E-02 0.  1.
    5000001    1    1    2    0    0 -0.76029732325E+02  0.12375550780E+03 -0.32429046563E+04  0.32518288017E+04  0.19200000000E+03 0.  0.
   -5000001    1    1    2    0    0  0.76029732325E+02 -0.12375550780E+03 -0.68855423304E+03  0.72942914511E+03  0.19200000000E+03 0.  0.
<mgrwt>
<rscale>  0 0.62773071E+03</rscale>
<asrwt>0</asrwt>
<pdfrwt beam="1">  1        2 0.56519366E+00 0.62773071E+03</pdfrwt>
<pdfrwt beam="2">  1       -2 0.35570781E-02 0.62773071E+03</pdfrwt>
<totfact> 0.23513435E+02</totfact>
</mgrwt>
</event>
<event>
 4    1  0.5626910E-005  0.6187534E+03  0.7818608E-02  0.9867245E-01
         -2   -1    0    0    0  501 -0.00000000000E+00  0.00000000000E+00  0.94876839680E+02  0.94876839715E+02  0.25500000000E-02 0. -1.
          2   -1    0    0  501    0  0.00000000000E+00 -0.00000000000E+00 -0.10088232020E+04  0.10088232020E+04  0.25500000000E-02 0.  1.
    5000001    1    1    2    0    0 -0.53293412631E+02  0.23239354963E+03 -0.53680475907E+03  0.61795655114E+03  0.19200000000E+03 0.  0.
   -5000001    1    1    2    0    0  0.53293412631E+02 -0.23239354963E+03 -0.37714160326E+03  0.48574349059E+03  0.19200000000E+03 0.  0.
<mgrwt>
<rscale>  0 0.61875345E+03</rscale>
<asrwt>0</asrwt>
<pdfrwt beam="1">  1        2 0.14411759E+00 0.61875345E+03</pdfrwt>
<pdfrwt beam="2">  1       -2 0.13553835E-01 0.61875345E+03</pdfrwt>
<totfact> 0.11581680E+03</totfact>
</mgrwt>
</event>
<event>
 4    1  0.5626910E-005  0.4205301E+03  0.7818608E-02  0.1036894E+00
          2   -1    0    0  501    0  0.00000000000E+00  0.00000000000E+00  0.92784438221E+03  0.92784438221E+03  0.25500000000E-02 0.  1.
         -2   -1    0    0    0  501 -0.00000000000E+00 -0.00000000000E+00 -0.47649573020E+02  0.47649573088E+02  0.25500000000E-02 0. -1.
    5000001    1    1    2    0    0  0.29866204957E+02  0.47270842103E+02  0.28939218665E+03  0.35176463780E+03  0.19200000000E+03 0.  0.
   -5000001    1    1    2    0    0 -0.29866204957E+02 -0.47270842103E+02  0.59080262254E+03  0.62372931750E+03  0.19200000000E+03 0.  0.
<mgrwt>
<rscale>  0 0.42053009E+03</rscale>
<asrwt>0</asrwt>
<pdfrwt beam="1">  1        2 0.13254921E+00 0.42053009E+03</pdfrwt>
<pdfrwt beam="2">  1       -2 0.68070813E-02 0.42053009E+03</pdfrwt>
<totfact> 0.39443675E+03</totfact>
</mgrwt>
</event>
<event>
 4    1  0.5626910E-005  0.7053951E+03  0.7818608E-02  0.9708050E-01
          2   -1    0    0  501    0  0.00000000000E+00  0.00000000000E+00  0.20807562536E+03  0.20807562537E+03  0.25500000000E-02 0.  1.
         -2   -1    0    0    0  501 -0.00000000000E+00 -0.00000000000E+00 -0.59783827237E+03  0.59783827238E+03  0.25500000000E-02 0. -1.
    5000001    1    1    2    0    0 -0.28222476815E+03  0.65075151058E+01 -0.29603228944E+03  0.45187640335E+03  0.19200000000E+03 0.  0.
   -5000001    1    1    2    0    0  0.28222476815E+03 -0.65075151058E+01 -0.93730357569E+02  0.35403749440E+03  0.19200000000E+03 0.  0.
<mgrwt>
<rscale>  0 0.70539513E+03</rscale>
<asrwt>0</asrwt>
<pdfrwt beam="1">  1        2 0.29725090E-01 0.70539513E+03</pdfrwt>
<pdfrwt beam="2">  1       -2 0.85405466E-01 0.70539513E+03</pdfrwt>
<totfact> 0.21639225E+02</totfact>
</mgrwt>
</event>
<event>
 4    1  0.5626910E-005  0.5384243E+03  0.7818608E-02  0.1004209E+00
          2   -1    0    0  501    0  0.00000000000E+00  0.00000000000E+00  0.31826859559E+03  0.31826859560E+03  0.25500000000E-02 0.  1.
         -2   -1    0    0    0  501 -0.00000000000E+00 -0.00000000000E+00 -0.22771701869E+03  0.22771701870E+03  0.25500000000E-02 0. -1.
    5000001    1    1    2    0    0 -0.94615976323E+02  0.16142935749E+03  0.20446104562E+02  0.26887481032E+03  0.19200000000E+03 0.  0.
   -5000001    1    1    2    0    0  0.94615976323E+02 -0.16142935749E+03  0.70105472339E+02  0.27711080399E+03  0.19200000000E+03 0.  0.
<mgrwt>
<rscale>  0 0.53842428E+03</rscale>
<asrwt>0</asrwt>
<pdfrwt beam="1">  1        2 0.45466942E-01 0.53842428E+03</pdfrwt>
<pdfrwt beam="2">  1       -2 0.32531003E-01 0.53842428E+03</pdfrwt>
<totfact> 0.98490998E+02</totfact>
</mgrwt>
</event>
<event>
 4    1  0.5626910E-005  0.5667068E+03  0.7818608E-02  0.9976993E-01
         -2   -1    0    0    0  501 -0.00000000000E+00  0.00000000000E+00  0.56092136381E+03  0.56092136381E+03  0.25500000000E-02 0. -1.
          2   -1    0    0  501    0  0.00000000000E+00 -0.00000000000E+00 -0.14313798066E+03  0.14313798068E+03  0.25500000000E-02 0.  1.
    5000001    1    1    2    0    0  0.92987799810E+02  0.18210582915E+03  0.15895078906E+03  0.32239512600E+03  0.19200000000E+03 0.  0.
   -5000001    1    1    2    0    0 -0.92987799810E+02 -0.18210582915E+03  0.25883259408E+03  0.38166421850E+03  0.19200000000E+03 0.  0.
<mgrwt>
<rscale>  0 0.56670681E+03</rscale>
<asrwt>0</asrwt>
<pdfrwt beam="1">  1        2 0.20448283E-01 0.56670681E+03</pdfrwt>
<pdfrwt beam="2">  1       -2 0.80131624E-01 0.56670681E+03</pdfrwt>
<totfact> 0.38507451E+02</totfact>
</mgrwt>
</event>
<event>
 4    1  0.5626910E-005  0.8536984E+03  0.7818608E-02  0.9485386E-01
         -2   -1    0    0    0  501 -0.00000000000E+00  0.00000000000E+00  0.11909150957E+03  0.11909150960E+03  0.25500000000E-02 0. -1.
          2   -1    0    0  501    0  0.00000000000E+00 -0.00000000000E+00 -0.15299181206E+04  0.15299181206E+04  0.25500000000E-02 0.  1.
    5000001    1    1    2    0    0  0.22526057402E+03  0.23493540877E+03 -0.10888228127E+04  0.11525346372E+04  0.19200000000E+03 0.  0.
   -5000001    1    1    2    0    0 -0.22526057402E+03 -0.23493540877E+03 -0.32200379825E+03  0.49647499291E+03  0.19200000000E+03 0.  0.
<mgrwt>
<rscale>  0 0.85369844E+03</rscale>
<asrwt>0</asrwt>
<pdfrwt beam="1">  1        2 0.21855972E+00 0.85369844E+03</pdfrwt>
<pdfrwt beam="2">  1       -2 0.17013074E-01 0.85369844E+03</pdfrwt>
<totfact> 0.40027194E+02</totfact>
</mgrwt>
</event>
<event>
 4    1  0.5626910E-005  0.4583991E+03  0.7818608E-02  0.1025247E+00
         -2   -1    0    0    0  501 -0.00000000000E+00  0.00000000000E+00  0.31651797186E+02  0.31651797289E+02  0.25500000000E-02 0. -1.
          2   -1    0    0  501    0  0.00000000000E+00 -0.00000000000E+00 -0.16596979424E+04  0.16596979424E+04  0.25500000000E-02 0.  1.
    5000001    1    1    2    0    0 -0.84626234866E+02 -0.91903945932E+02 -0.78532691324E+03  0.81805274620E+03  0.19200000000E+03 0.  0.
   -5000001    1    1    2    0    0  0.84626234866E+02  0.91903945932E+02 -0.84271923202E+03  0.87329699353E+03  0.19200000000E+03 0.  0.
<mgrwt>
<rscale>  0 0.45839905E+03</rscale>
<asrwt>0</asrwt>
<pdfrwt beam="1">  1        2 0.23709965E+00 0.45839905E+03</pdfrwt>
<pdfrwt beam="2">  1       -2 0.45216864E-02 0.45839905E+03</pdfrwt>
<totfact> 0.29559315E+03</totfact>
</mgrwt>
</event>
<event>
 4    1  0.5626910E-005  0.9098563E+03  0.7818608E-02  0.9413344E-01
         -2   -1    0    0    0  501 -0.00000000000E+00  0.00000000000E+00  0.10868520930E+03  0.10868520933E+03  0.25500000000E-02 0. -1.
          2   -1    0    0  501    0  0.00000000000E+00 -0.00000000000E+00 -0.19042113724E+04  0.19042113724E+04  0.25500000000E-02 0.  1.
    5000001    1    1    2    0    0 -0.25918081710E+03 -0.13302962057E+03 -0.25191598086E+03  0.43034548599E+03  0.19200000000E+03 0.  0.
   -5000001    1    1    2    0    0  0.25918081710E+03  0.13302962057E+03 -0.15436101823E+04  0.15825510957E+04  0.19200000000E+03 0.  0.
<mgrwt>
<rscale>  0 0.90985628E+03</rscale>
<asrwt>0</asrwt>
<pdfrwt beam="1">  1        2 0.27203017E+00 0.90985628E+03</pdfrwt>
<pdfrwt beam="2">  1       -2 0.15526460E-01 0.90985628E+03</pdfrwt>
<totfact> 0.29915470E+02</totfact>
</mgrwt>
</event>
<event>
 4    1  0.5626910E-005  0.5906763E+03  0.7818608E-02  0.9924941E-01
          2   -1    0    0  501    0  0.00000000000E+00  0.00000000000E+00  0.13074939405E+04  0.13074939405E+04  0.25500000000E-02 0.  1.
         -2   -1    0    0    0  501 -0.00000000000E+00 -0.00000000000E+00 -0.66711310717E+02  0.66711310766E+02  0.25500000000E-02 0. -1.
    5000001    1    1    2    0    0  0.11914349915E+03  0.14724531291E+03  0.90038643973E+03  0.93991281320E+03  0.19200000000E+03 0.  0.
   -5000001    1    1    2    0    0 -0.11914349915E+03 -0.14724531291E+03  0.34039619006E+03  0.43429243808E+03  0.19200000000E+03 0.  0.
<mgrwt>
<rscale>  0 0.59067634E+03</rscale>
<asrwt>0</asrwt>
<pdfrwt beam="1">  1        2 0.18678484E+00 0.59067634E+03</pdfrwt>
<pdfrwt beam="2">  1       -2 0.95301876E-02 0.59067634E+03</pdfrwt>
<totfact> 0.13942010E+03</totfact>
</mgrwt>
</event>
<event>
 4    1  0.5626910E-005  0.5690338E+03  0.7818608E-02  0.9971819E-01
         -2   -1    0    0    0  501 -0.00000000000E+00  0.00000000000E+00  0.10900935464E+03  0.10900935467E+03  0.25500000000E-02 0.  1.
          2   -1    0    0  501    0  0.00000000000E+00 -0.00000000000E+00 -0.74259560250E+03  0.74259560251E+03  0.25500000000E-02 0. -1.
    5000001    1    1    2    0    0  0.87913595390E+02  0.18534090250E+03 -0.38381950466E+03  0.47566948877E+03  0.19200000000E+03 0.  0.
   -5000001    1    1    2    0    0 -0.87913595390E+02 -0.18534090250E+03 -0.24976674320E+03  0.37593546840E+03  0.19200000000E+03 0.  0.
<mgrwt>
<rscale>  0 0.56903380E+03</rscale>
<asrwt>0</asrwt>
<pdfrwt beam="1">  1        2 0.10608508E+00 0.56903380E+03</pdfrwt>
<pdfrwt beam="2">  1       -2 0.15572765E-01 0.56903380E+03</pdfrwt>
<totfact> 0.13758391E+03</totfact>
</mgrwt>
</event>
<event>
 4    1  0.5626910E-005  0.6821018E+03  0.7818608E-02  0.9748340E-01
         -2   -1    0    0    0  501 -0.00000000000E+00  0.00000000000E+00  0.79055576473E+02  0.79055576514E+02  0.25500000000E-02 0. -1.
          2   -1    0    0  501    0  0.00000000000E+00 -0.00000000000E+00 -0.14713158507E+04  0.14713158507E+04  0.25500000000E-02 0.  1.
    5000001    1    1    2    0    0  0.19607967874E+03  0.10153938700E+03 -0.29791757425E+03  0.41758396590E+03  0.19200000000E+03 0.  0.
   -5000001    1    1    2    0    0 -0.19607967874E+03 -0.10153938700E+03 -0.10943426999E+04  0.11327874613E+04  0.19200000000E+03 0.  0.
<mgrwt>
<rscale>  0 0.68210182E+03</rscale>
<asrwt>0</asrwt>
<pdfrwt beam="1">  1        2 0.21018796E+00 0.68210182E+03</pdfrwt>
<pdfrwt beam="2">  1       -2 0.11293655E-01 0.68210182E+03</pdfrwt>
<totfact> 0.86185399E+02</totfact>
</mgrwt>
</event>
<event>
 4    1  0.5626910E-005  0.6091401E+03  0.7818608E-02  0.9886623E-01
          2   -1    0    0  501    0  0.00000000000E+00  0.00000000000E+00  0.51145497227E+03  0.51145497227E+03  0.25500000000E-02 0.  1.
         -2   -1    0    0    0  501 -0.00000000000E+00 -0.00000000000E+00 -0.18137065791E+03  0.18137065793E+03  0.25500000000E-02 0. -1.
    5000001    1    1    2    0    0 -0.86109439138E+02 -0.18260681051E+03  0.25098550613E+02  0.27973919997E+03  0.19200000000E+03 0.  0.
   -5000001    1    1    2    0    0  0.86109439138E+02  0.18260681051E+03  0.30498576374E+03  0.41308643023E+03  0.19200000000E+03 0.  0.
<mgrwt>
<rscale>  0 0.60914013E+03</rscale>
<asrwt>0</asrwt>
<pdfrwt beam="1">  1        2 0.73064995E-01 0.60914013E+03</pdfrwt>
<pdfrwt beam="2">  1       -2 0.25910095E-01 0.60914013E+03</pdfrwt>
<totfact> 0.88111116E+02</totfact>
</mgrwt>
</event>
<event>
 4    1  0.5626910E-005  0.4706190E+03  0.7818608E-02  0.1021746E+00
         -2   -1    0    0    0  501 -0.00000000000E+00  0.00000000000E+00  0.16024142718E+02  0.16024142921E+02  0.25500000000E-02 0. -1.
          2   -1    0    0  501    0  0.00000000000E+00 -0.00000000000E+00 -0.34554454957E+04  0.34554454957E+04  0.25500000000E-02 0.  1.
    5000001    1    1    2    0    0 -0.44725308608E+02 -0.99947729829E+02 -0.11242457949E+04  0.11457672142E+04  0.19200000000E+03 0.  0.
   -5000001    1    1    2    0    0  0.44725308608E+02  0.99947729829E+02 -0.23151755581E+04  0.23257024244E+04  0.19200000000E+03 0.  0.
<mgrwt>
<rscale>  0 0.47061896E+03</rscale>
<asrwt>0</asrwt>
<pdfrwt beam="1">  1        2 0.49363459E+00 0.47061896E+03</pdfrwt>
<pdfrwt beam="2">  1       -2 0.22891655E-02 0.47061896E+03</pdfrwt>
<totfact> 0.95669176E+02</totfact>
</mgrwt>
</event>
<event>
 4    1  0.5626910E-005  0.5819362E+03  0.7818608E-02  0.9943608E-01
         -2   -1    0    0    0  501 -0.00000000000E+00  0.00000000000E+00  0.81537131274E+02  0.81537131314E+02  0.25500000000E-02 0. -1.
          2   -1    0    0  501    0  0.00000000000E+00 -0.00000000000E+00 -0.10383297270E+04  0.10383297270E+04  0.25500000000E-02 0.  1.
    5000001    1    1    2    0    0  0.16757851572E+03 -0.69398473175E+02 -0.24349787753E+03  0.35924075962E+03  0.19200000000E+03 0.  0.
   -5000001    1    1    2    0    0 -0.16757851572E+03  0.69398473175E+02 -0.71329471821E+03  0.76062609871E+03  0.19200000000E+03 0.  0.
<mgrwt>
<rscale>  0 0.58193617E+03</rscale>
<asrwt>0</asrwt>
<pdfrwt beam="1">  1        2 0.14833281E+00 0.58193617E+03</pdfrwt>
<pdfrwt beam="2">  1       -2 0.11648162E-01 0.58193617E+03</pdfrwt>
<totfact> 0.14294004E+03</totfact>
</mgrwt>
</event>
<event>
 4    1  0.5626910E-005  0.6389874E+03  0.7818608E-02  0.9827666E-01
         -2   -1    0    0    0  501 -0.00000000000E+00  0.00000000000E+00  0.84915970247E+02  0.84915970285E+02  0.25500000000E-02 0. -1.
          2   -1    0    0  501    0  0.00000000000E+00 -0.00000000000E+00 -0.12020849808E+04  0.12020849808E+04  0.25500000000E-02 0.  1.
    5000001    1    1    2    0    0  0.73912591308E+02  0.24066353380E+03 -0.47241840308E+03  0.56870480500E+03  0.19200000000E+03 0.  0.
   -5000001    1    1    2    0    0 -0.73912591308E+02 -0.24066353380E+03 -0.64475060746E+03  0.71829614608E+03  0.19200000000E+03 0.  0.
<mgrwt>
<rscale>  0 0.63898736E+03</rscale>
<asrwt>0</asrwt>
<pdfrwt beam="1">  1        2 0.17172641E+00 0.63898736E+03</pdfrwt>
<pdfrwt beam="2">  1       -2 0.12130854E-01 0.63898736E+03</pdfrwt>
<totfact> 0.10736309E+03</totfact>
</mgrwt>
</event>
<event>
 4    1  0.5626910E-005  0.4646715E+03  0.7818608E-02  0.1023435E+00
         -2   -1    0    0    0  501 -0.00000000000E+00  0.00000000000E+00  0.10999117262E+03  0.10999117265E+03  0.25500000000E-02 0. -1.
          2   -1    0    0  501    0  0.00000000000E+00 -0.00000000000E+00 -0.49076574299E+03  0.49076574300E+03  0.25500000000E-02 0.  1.
    5000001    1    1    2    0    0 -0.10068246808E+03 -0.77375985472E+02 -0.14966932175E+03  0.27457040696E+03  0.19200000000E+03 0.  0.
   -5000001    1    1    2    0    0  0.10068246808E+03  0.77375985472E+02 -0.23110524863E+03  0.32618650869E+03  0.19200000000E+03 0.  0.
<mgrwt>
<rscale>  0 0.46467149E+03</rscale>
<asrwt>0</asrwt>
<pdfrwt beam="1">  1        2 0.70109391E-01 0.46467149E+03</pdfrwt>
<pdfrwt beam="2">  1       -2 0.15713025E-01 0.46467149E+03</pdfrwt>
<totfact> 0.22050871E+03</totfact>
</mgrwt>
</event>
<event>
 4    1  0.5626910E-005  0.5506027E+03  0.7818608E-02  0.1001355E+00
          2   -1    0    0  501    0  0.00000000000E+00  0.00000000000E+00  0.18882632368E+04  0.18882632368E+04  0.25500000000E-02 0.  1.
         -2   -1    0    0    0  501 -0.00000000000E+00 -0.00000000000E+00 -0.40137851286E+02  0.40137851367E+02  0.25500000000E-02 0. -1.
    5000001    1    1    2    0    0 -0.50258293685E+01  0.19197750497E+03  0.76563397765E+03  0.81236691779E+03  0.19200000000E+03 0.  0.
   -5000001    1    1    2    0    0  0.50258293685E+01 -0.19197750497E+03  0.10824914079E+04  0.11160341704E+04  0.19200000000E+03 0.  0.
<mgrwt>
<rscale>  0 0.55060268E+03</rscale>
<asrwt>0</asrwt>
<pdfrwt beam="1">  1        2 0.26975187E+00 0.55060268E+03</pdfrwt>
<pdfrwt beam="2">  1       -2 0.57339793E-02 0.55060268E+03</pdfrwt>
<totfact> 0.15665124E+03</totfact>
</mgrwt>
</event>
<event>
 4    1  0.5626910E-005  0.5602741E+03  0.7818608E-02  0.9991435E-01
          2   -1    0    0  501    0  0.00000000000E+00  0.00000000000E+00  0.48002233877E+04  0.48002233877E+04  0.25500000000E-02 0.  1.
         -2   -1    0    0    0  501 -0.00000000000E+00 -0.00000000000E+00 -0.16348567614E+02  0.16348567813E+02  0.25500000000E-02 0. -1.
    5000001    1    1    2    0    0 -0.16145677321E+03  0.31786039185E+02  0.34283485570E+04  0.34376614828E+04  0.19200000000E+03 0.  0.
   -5000001    1    1    2    0    0  0.16145677321E+03 -0.31786039185E+02  0.13555262631E+04  0.13789104728E+04  0.19200000000E+03 0.  0.
<mgrwt>
<rscale>  0 0.56027414E+03</rscale>
<asrwt>0</asrwt>
<pdfrwt beam="1">  1        2 0.68574685E+00 0.56027414E+03</pdfrwt>
<pdfrwt beam="2">  1       -2 0.23355074E-02 0.56027414E+03</pdfrwt>
<totfact> 0.10495148E+02</totfact>
</mgrwt>
</event>
<event>
 4    1  0.5626910E-005  0.5365256E+03  0.7818608E-02  0.1004662E+00
         -2   -1    0    0    0  501 -0.00000000000E+00  0.00000000000E+00  0.34659962604E+02  0.34659962698E+02  0.25500000000E-02 0. -1.
          2   -1    0    0  501    0  0.00000000000E+00 -0.00000000000E+00 -0.20763126619E+04  0.20763126619E+04  0.25500000000E-02 0.  1.
    5000001    1    1    2    0    0 -0.13726554281E+03 -0.91428486089E+02 -0.13705327542E+04  0.13937090901E+04  0.19200000000E+03 0.  0.
   -5000001    1    1    2    0    0  0.13726554281E+03  0.91428486089E+02 -0.67111994508E+03  0.71726353455E+03  0.19200000000E+03 0.  0.
<mgrwt>
<rscale>  0 0.53652556E+03</rscale>
<asrwt>0</asrwt>
<pdfrwt beam="1">  1        2 0.29661602E+00 0.53652556E+03</pdfrwt>
<pdfrwt beam="2">  1       -2 0.49514245E-02 0.53652556E+03</pdfrwt>
<totfact> 0.15850271E+03</totfact>
</mgrwt>
</event>
<event>
 4    1  0.5626910E-005  0.5812094E+03  0.7818608E-02  0.9945176E-01
         -2   -1    0    0    0  501 -0.00000000000E+00  0.00000000000E+00  0.98430033017E+02  0.98430033050E+02  0.25500000000E-02 0. -1.
          2   -1    0    0  501    0  0.00000000000E+00 -0.00000000000E+00 -0.85798092951E+03  0.85798092951E+03  0.25500000000E-02 0.  1.
    5000001    1    1    2    0    0  0.81103470524E+02 -0.19652332551E+03 -0.29936359696E+03  0.41434496930E+03  0.19200000000E+03 0.  0.
   -5000001    1    1    2    0    0 -0.81103470524E+02  0.19652332551E+03 -0.46018729953E+03  0.54206599326E+03  0.19200000000E+03 0.  0.
<mgrwt>
<rscale>  0 0.58120940E+03</rscale>
<asrwt>0</asrwt>
<pdfrwt beam="1">  1        2 0.12256870E+00 0.58120940E+03</pdfrwt>
<pdfrwt beam="2">  1       -2 0.14061434E-01 0.58120940E+03</pdfrwt>
<totfact> 0.13582159E+03</totfact>
</mgrwt>
</event>
<event>
 4    1  0.5626910E-005  0.5266871E+03  0.7818608E-02  0.1007039E+00
          2   -1    0    0  501    0  0.00000000000E+00  0.00000000000E+00  0.48518570765E+03  0.48518570766E+03  0.25500000000E-02 0.  1.
         -2   -1    0    0    0  501 -0.00000000000E+00 -0.00000000000E+00 -0.14293460474E+03  0.14293460476E+03  0.25500000000E-02 0. -1.
    5000001    1    1    2    0    0  0.13628686294E+03  0.78154335959E+02  0.27647642826E+03  0.37146389410E+03  0.19200000000E+03 0.  0.
   -5000001    1    1    2    0    0 -0.13628686294E+03 -0.78154335959E+02  0.65774674650E+02  0.25665641832E+03  0.19200000000E+03 0.  0.
<mgrwt>
<rscale>  0 0.52668711E+03</rscale>
<asrwt>0</asrwt>
<pdfrwt beam="1">  1        2 0.69312244E-01 0.52668711E+03</pdfrwt>
<pdfrwt beam="2">  1       -2 0.20419229E-01 0.52668711E+03</pdfrwt>
<totfact> 0.14276412E+03</totfact>
</mgrwt>
</event>
<event>
 4    1  0.5626910E-005  0.6234847E+03  0.7818608E-02  0.9857846E-01
         -2   -1    0    0    0  501 -0.00000000000E+00  0.00000000000E+00  0.29802944525E+03  0.29802944526E+03  0.25500000000E-02 0. -1.
          2   -1    0    0  501    0  0.00000000000E+00 -0.00000000000E+00 -0.32608622660E+03  0.32608622661E+03  0.25500000000E-02 0.  1.
    5000001    1    1    2    0    0  0.15149424278E+03  0.89796407665E+02  0.15733304052E+03  0.30435437579E+03  0.19200000000E+03 0.  0.
   -5000001    1    1    2    0    0 -0.15149424278E+03 -0.89796407665E+02 -0.18538982187E+03  0.31976129609E+03  0.19200000000E+03 0.  0.
<mgrwt>
<rscale>  0 0.62348471E+03</rscale>
<asrwt>0</asrwt>
<pdfrwt beam="1">  1        2 0.46583747E-01 0.62348471E+03</pdfrwt>
<pdfrwt beam="2">  1       -2 0.42575635E-01 0.62348471E+03</pdfrwt>
<totfact> 0.57221553E+02</totfact>
</mgrwt>
</event>
<event>
 4    1  0.5626910E-005  0.6514113E+03  0.7818608E-02  0.9804135E-01
          2   -1    0    0  501    0  0.00000000000E+00  0.00000000000E+00  0.28166609251E+03  0.28166609253E+03  0.25500000000E-02 0.  1.
         -2   -1    0    0    0  501 -0.00000000000E+00 -0.00000000000E+00 -0.37663098068E+03  0.37663098068E+03  0.25500000000E-02 0. -1.
    5000001    1    1    2    0    0 -0.24669496945E+03  0.87165990767E+02 -0.75412586757E+02  0.33317769454E+03  0.19200000000E+03 0.  0.
   -5000001    1    1    2    0    0  0.24669496945E+03 -0.87165990767E+02 -0.19552301404E+02  0.32511937867E+03  0.19200000000E+03 0.  0.
<mgrwt>
<rscale>  0 0.65141132E+03</rscale>
<asrwt>0</asrwt>
<pdfrwt beam="1">  1        2 0.40238014E-01 0.65141132E+03</pdfrwt>
<pdfrwt beam="2">  1       -2 0.53804425E-01 0.65141132E+03</pdfrwt>
<totfact> 0.41992866E+02</totfact>
</mgrwt>
</event>
<event>
 4    1  0.5626910E-005  0.6307459E+03  0.7818608E-02  0.9843594E-01
         -2   -1    0    0    0  501 -0.00000000000E+00  0.00000000000E+00  0.21601640981E+03  0.21601640982E+03  0.25500000000E-02 0. -1.
          2   -1    0    0  501    0  0.00000000000E+00 -0.00000000000E+00 -0.46042846888E+03  0.46042846888E+03  0.25500000000E-02 0.  1.
    5000001    1    1    2    0    0  0.18157664553E+03 -0.74254458075E+02 -0.28873787664E+03  0.39839347905E+03  0.19200000000E+03 0.  0.
   -5000001    1    1    2    0    0 -0.18157664553E+03  0.74254458075E+02  0.44325817569E+02  0.27805139965E+03  0.19200000000E+03 0.  0.
<mgrwt>
<rscale>  0 0.63074592E+03</rscale>
<asrwt>0</asrwt>
<pdfrwt beam="1">  1        2 0.65775495E-01 0.63074592E+03</pdfrwt>
<pdfrwt beam="2">  1       -2 0.30859487E-01 0.63074592E+03</pdfrwt>
<totfact> 0.72052131E+02</totfact>
</mgrwt>
</event>
<event>
 4    1  0.5626910E-005  0.5058281E+03  0.7818608E-02  0.1012269E+00
         -2   -1    0    0    0  501 -0.00000000000E+00  0.00000000000E+00  0.18075481558E+03  0.18075481559E+03  0.25500000000E-02 0. -1.
          2   -1    0    0  501    0  0.00000000000E+00 -0.00000000000E+00 -0.35387999893E+03  0.35387999894E+03  0.25500000000E-02 0.  1.
    5000001    1    1    2    0    0 -0.29138861136E+02 -0.13007260516E+03  0.15549673695E+02  0.23425146359E+03  0.19200000000E+03 0.  0.
   -5000001    1    1    2    0    0  0.29138861136E+02  0.13007260516E+03 -0.18867485705E+03  0.30038335095E+03  0.19200000000E+03 0.  0.
<mgrwt>
<rscale>  0 0.50582809E+03</rscale>
<asrwt>0</asrwt>
<pdfrwt beam="1">  1        2 0.50554286E-01 0.50582809E+03</pdfrwt>
<pdfrwt beam="2">  1       -2 0.25822117E-01 0.50582809E+03</pdfrwt>
<totfact> 0.13381835E+03</totfact>
</mgrwt>
</event>
<event>
 4    1  0.5626910E-005  0.5787097E+03  0.7818608E-02  0.9950588E-01
         -2   -1    0    0    0  501 -0.00000000000E+00  0.00000000000E+00  0.36615006880E+03  0.36615006881E+03  0.25500000000E-02 0. -1.
          2   -1    0    0  501    0  0.00000000000E+00 -0.00000000000E+00 -0.22866643673E+03  0.22866643674E+03  0.25500000000E-02 0.  1.
    5000001    1    1    2    0    0  0.20235333666E+02 -0.17940029323E+03  0.19151635813E+03  0.32578589498E+03  0.19200000000E+03 0.  0.
   -5000001    1    1    2    0    0 -0.20235333666E+02  0.17940029323E+03 -0.54032726052E+02  0.26903061057E+03  0.19200000000E+03 0.  0.
<mgrwt>
<rscale>  0 0.57870971E+03</rscale>
<asrwt>0</asrwt>
<pdfrwt beam="1">  1        2 0.32666634E-01 0.57870971E+03</pdfrwt>
<pdfrwt beam="2">  1       -2 0.52307152E-01 0.57870971E+03</pdfrwt>
<totfact> 0.56175120E+02</totfact>
</mgrwt>
</event>
<event>
 4    1  0.5626910E-005  0.5193486E+03  0.7818608E-02  0.1008848E+00
          2   -1    0    0  501    0  0.00000000000E+00  0.00000000000E+00  0.90910457209E+03  0.90910457210E+03  0.25500000000E-02 0.  1.
         -2   -1    0    0    0  501 -0.00000000000E+00 -0.00000000000E+00 -0.74172696485E+02  0.74172696528E+02  0.25500000000E-02 0. -1.
    5000001    1    1    2    0    0 -0.59595050341E+02 -0.15682783625E+03  0.51060726725E+03  0.57072788754E+03  0.19200000000E+03 0.  0.
   -5000001    1    1    2    0    0  0.59595050341E+02  0.15682783625E+03  0.32432460836E+03  0.41254938108E+03  0.19200000000E+03 0.  0.
<mgrwt>
<rscale>  0 0.51934858E+03</rscale>
<asrwt>0</asrwt>
<pdfrwt beam="1">  1        2 0.12987208E+00 0.51934858E+03</pdfrwt>
<pdfrwt beam="2">  1       -2 0.10596100E-01 0.51934858E+03</pdfrwt>
<totfact> 0.20056116E+03</totfact>
</mgrwt>
</event>
<event>
 4    1  0.5626910E-005  0.4687171E+03  0.7818608E-02  0.1022283E+00
         -2   -1    0    0    0  501 -0.00000000000E+00  0.00000000000E+00  0.34308530672E+02  0.34308530767E+02  0.25500000000E-02 0. -1.
          2   -1    0    0  501    0  0.00000000000E+00 -0.00000000000E+00 -0.16008827206E+04  0.16008827206E+04  0.25500000000E-02 0.  1.
    5000001    1    1    2    0    0 -0.80237900434E+02 -0.94444617283E+02 -0.96463086142E+03  0.99132971569E+03  0.19200000000E+03 0.  0.
   -5000001    1    1    2    0    0  0.80237900434E+02  0.94444617283E+02 -0.60194332855E+03  0.64386153572E+03  0.19200000000E+03 0.  0.
<mgrwt>
<rscale>  0 0.46871712E+03</rscale>
<asrwt>0</asrwt>
<pdfrwt beam="1">  1        2 0.22869748E+00 0.46871712E+03</pdfrwt>
<pdfrwt beam="2">  1       -2 0.49012197E-02 0.46871712E+03</pdfrwt>
<totfact> 0.27965730E+03</totfact>
</mgrwt>
</event>
<event>
 4    1  0.5626910E-005  0.8383470E+03  0.7818608E-02  0.9506112E-01
          2   -1    0    0  501    0  0.00000000000E+00  0.00000000000E+00  0.41874990599E+03  0.41874990600E+03  0.25500000000E-02 0.  1.
         -2   -1    0    0    0  501 -0.00000000000E+00 -0.00000000000E+00 -0.41959752692E+03  0.41959752692E+03  0.25500000000E-02 0. -1.
    5000001    1    1    2    0    0  0.58240776295E+02  0.31291066001E+03 -0.19416950502E+03  0.41936960530E+03  0.19200000000E+03 0.  0.
   -5000001    1    1    2    0    0 -0.58240776295E+02 -0.31291066001E+03  0.19332188410E+03  0.41897782762E+03  0.19200000000E+03 0.  0.
<mgrwt>
<rscale>  0 0.83834700E+03</rscale>
<asrwt>0</asrwt>
<pdfrwt beam="1">  1        2 0.59821415E-01 0.83834700E+03</pdfrwt>
<pdfrwt beam="2">  1       -2 0.59942504E-01 0.83834700E+03</pdfrwt>
<totfact> 0.21441733E+02</totfact>
</mgrwt>
</event>
<event>
 4    1  0.5626910E-005  0.6326193E+03  0.7818608E-02  0.9839951E-01
          2   -1    0    0  501    0  0.00000000000E+00  0.00000000000E+00  0.17724078835E+04  0.17724078835E+04  0.25500000000E-02 0.  1.
         -2   -1    0    0    0  501 -0.00000000000E+00 -0.00000000000E+00 -0.56449648622E+02  0.56449648680E+02  0.25500000000E-02 0. -1.
    5000001    1    1    2    0    0 -0.63304360184E+02 -0.23387464048E+03  0.66441608751E+03  0.73281479708E+03  0.19200000000E+03 0.  0.
   -5000001    1    1    2    0    0  0.63304360184E+02  0.23387464048E+03  0.10515421474E+04  0.10960427351E+04  0.19200000000E+03 0.  0.
<mgrwt>
<rscale>  0 0.63261932E+03</rscale>
<asrwt>0</asrwt>
<pdfrwt beam="1">  1        2 0.25320109E+00 0.63261932E+03</pdfrwt>
<pdfrwt beam="2">  1       -2 0.80642366E-02 0.63261932E+03</pdfrwt>
<totfact> 0.10424746E+03</totfact>
</mgrwt>
</event>
<event>
 4    1  0.5626910E-005  0.6554474E+03  0.7818608E-02  0.9796611E-01
          2   -1    0    0  501    0  0.00000000000E+00  0.00000000000E+00  0.22748108239E+04  0.22748108240E+04  0.25500000000E-02 0.  1.
         -2   -1    0    0    0  501 -0.00000000000E+00 -0.00000000000E+00 -0.47213962885E+02  0.47213962954E+02  0.25500000000E-02 0. -1.
    5000001    1    1    2    0    0 -0.66196114177E+01 -0.22822590728E+03  0.63314538652E+03  0.69990568256E+03  0.19200000000E+03 0.  0.
   -5000001    1    1    2    0    0  0.66196114177E+01  0.22822590728E+03  0.15944514745E+04  0.16221191043E+04  0.19200000000E+03 0.  0.
<mgrwt>
<rscale>  0 0.65544743E+03</rscale>
<asrwt>0</asrwt>
<pdfrwt beam="1">  1        2 0.32497305E+00 0.65544743E+03</pdfrwt>
<pdfrwt beam="2">  1       -2 0.67448503E-02 0.65544743E+03</pdfrwt>
<totfact> 0.77131773E+02</totfact>
</mgrwt>
</event>
<event>
 4    1  0.5626910E-005  0.6570390E+03  0.7818608E-02  0.9793660E-01
          2   -1    0    0  501    0  0.00000000000E+00  0.00000000000E+00  0.10329376330E+04  0.10329376330E+04  0.25500000000E-02 0.  1.
         -2   -1    0    0    0  501 -0.00000000000E+00 -0.00000000000E+00 -0.10448361422E+03  0.10448361425E+03  0.25500000000E-02 0. -1.
    5000001    1    1    2    0    0  0.21311594447E+03 -0.15408431450E+03  0.53969871706E+03  0.63031665610E+03  0.19200000000E+03 0.  0.
   -5000001    1    1    2    0    0 -0.21311594447E+03  0.15408431450E+03  0.38875530170E+03  0.50710459115E+03  0.19200000000E+03 0.  0.
<mgrwt>
<rscale>  0 0.65703899E+03</rscale>
<asrwt>0</asrwt>
<pdfrwt beam="1">  1        2 0.14756252E+00 0.65703899E+03</pdfrwt>
<pdfrwt beam="2">  1       -2 0.14926231E-01 0.65703899E+03</pdfrwt>
<totfact> 0.95179342E+02</totfact>
</mgrwt>
</event>
<event>
 4    1  0.5626910E-005  0.4998000E+03  0.7818608E-02  0.1013831E+00
         -2   -1    0    0    0  501 -0.00000000000E+00  0.00000000000E+00  0.14071473775E+03  0.14071473777E+03  0.25500000000E-02 0. -1.
          2   -1    0    0  501    0  0.00000000000E+00 -0.00000000000E+00 -0.44380579250E+03  0.44380579251E+03  0.25500000000E-02 0.  1.
    5000001    1    1    2    0    0 -0.77575223486E+02 -0.13924354651E+03 -0.13588392369E+03  0.28413926385E+03  0.19200000000E+03 0.  0.
   -5000001    1    1    2    0    0  0.77575223486E+02  0.13924354651E+03 -0.16720713106E+03  0.30038126643E+03  0.19200000000E+03 0.  0.
<mgrwt>
<rscale>  0 0.49980002E+03</rscale>
<asrwt>0</asrwt>
<pdfrwt beam="1">  1        2 0.63400827E-01 0.49980002E+03</pdfrwt>
<pdfrwt beam="2">  1       -2 0.20102106E-01 0.49980002E+03</pdfrwt>
<totfact> 0.16210764E+03</totfact>
</mgrwt>
</event>
<event>
 4    1  0.5626910E-005  0.7408813E+03  0.7818608E-02  0.9649766E-01
          2   -1    0    0  501    0  0.00000000000E+00  0.00000000000E+00  0.51754657634E+03  0.51754657635E+03  0.25500000000E-02 0.  1.
         -2   -1    0    0    0  501 -0.00000000000E+00 -0.00000000000E+00 -0.26514766408E+03  0.26514766409E+03  0.25500000000E-02 0. -1.
    5000001    1    1    2    0    0 -0.11887395771E+03 -0.25197312049E+03 -0.33111754000E+02  0.33997332178E+03  0.19200000000E+03 0.  0.
   -5000001    1    1    2    0    0  0.11887395771E+03  0.25197312049E+03  0.28551066626E+03  0.44272091866E+03  0.19200000000E+03 0.  0.
<mgrwt>
<rscale>  0 0.74088127E+03</rscale>
<asrwt>0</asrwt>
<pdfrwt beam="1">  1        2 0.73935224E-01 0.74088127E+03</pdfrwt>
<pdfrwt beam="2">  1       -2 0.37878238E-01 0.74088127E+03</pdfrwt>
<totfact> 0.42683662E+02</totfact>
</mgrwt>
</event>
<event>
 4    1  0.5626910E-005  0.4933666E+03  0.7818608E-02  0.1015525E+00
         -2   -1    0    0    0  501 -0.00000000000E+00  0.00000000000E+00  0.82351777324E+02  0.82351777364E+02  0.25500000000E-02 0. -1.
          2   -1    0    0  501    0  0.00000000000E+00 -0.00000000000E+00 -0.73893544871E+03  0.73893544872E+03  0.25500000000E-02 0.  1.
    5000001    1    1    2    0    0 -0.14102539006E+03 -0.50697139404E+01 -0.22202991103E+03  0.32569179301E+03  0.19200000000E+03 0.  0.
   -5000001    1    1    2    0    0  0.14102539006E+03  0.50697139404E+01 -0.43455376036E+03  0.49559543307E+03  0.19200000000E+03 0.  0.
<mgrwt>
<rscale>  0 0.49336659E+03</rscale>
<asrwt>0</asrwt>
<pdfrwt beam="1">  1        2 0.10556220E+00 0.49336659E+03</pdfrwt>
<pdfrwt beam="2">  1       -2 0.11764540E-01 0.49336659E+03</pdfrwt>
<totfact> 0.22062738E+03</totfact>
</mgrwt>
</event>
<event>
 4    1  0.5626910E-005  0.6145054E+03  0.7818608E-02  0.9875761E-01
          2   -1    0    0  501    0  0.00000000000E+00  0.00000000000E+00  0.34774129198E+04  0.34774129198E+04  0.25500000000E-02 0.  1.
         -2   -1    0    0    0  501 -0.00000000000E+00 -0.00000000000E+00 -0.27147836054E+02  0.27147836173E+02  0.25500000000E-02 0. -1.
    5000001    1    1    2    0    0 -0.11986372775E+03  0.20523635979E+03  0.15402479009E+04  0.15702601290E+04  0.19200000000E+03 0.  0.
   -5000001    1    1    2    0    0  0.11986372775E+03 -0.20523635979E+03  0.19100171829E+04  0.19343006270E+04  0.19200000000E+03 0.  0.
<mgrwt>
<rscale>  0 0.61450545E+03</rscale>
<asrwt>0</asrwt>
<pdfrwt beam="1">  1        2 0.49677303E+00 0.61450545E+03</pdfrwt>
<pdfrwt beam="2">  1       -2 0.38782642E-02 0.61450545E+03</pdfrwt>
<totfact> 0.41046077E+02</totfact>
</mgrwt>
</event>
<event>
 4    1  0.5626910E-005  0.7720224E+03  0.7818608E-02  0.9601420E-01
          2   -1    0    0  501    0  0.00000000000E+00  0.00000000000E+00  0.22483370075E+04  0.22483370075E+04  0.25500000000E-02 0.  1.
         -2   -1    0    0    0  501 -0.00000000000E+00 -0.00000000000E+00 -0.66273263862E+02  0.66273263911E+02  0.25500000000E-02 0. -1.
    5000001    1    1    2    0    0  0.33133280922E+03  0.48500292983E+02  0.10989203412E+04  0.11647418706E+04  0.19200000000E+03 0.  0.
   -5000001    1    1    2    0    0 -0.33133280922E+03 -0.48500292983E+02  0.10831434025E+04  0.11498684008E+04  0.19200000000E+03 0.  0.
<mgrwt>
<rscale>  0 0.77202236E+03</rscale>
<asrwt>0</asrwt>
<pdfrwt beam="1">  1        2 0.32119098E+00 0.77202236E+03</pdfrwt>
<pdfrwt beam="2">  1       -2 0.94676098E-02 0.77202236E+03</pdfrwt>
<totfact> 0.45871402E+02</totfact>
</mgrwt>
</event>
<event>
 4    1  0.5626910E-005  0.5682143E+03  0.7818608E-02  0.9973638E-01
         -2   -1    0    0    0  501 -0.00000000000E+00  0.00000000000E+00  0.28734113664E+02  0.28734113777E+02  0.25500000000E-02 0. -1.
          2   -1    0    0  501    0  0.00000000000E+00 -0.00000000000E+00 -0.28090957963E+04  0.28090957963E+04  0.25500000000E-02 0.  1.
    5000001    1    1    2    0    0 -0.20662945764E+03 -0.21165419749E+02 -0.12571815093E+04  0.12886089613E+04  0.19200000000E+03 0.  0.
   -5000001    1    1    2    0    0  0.20662945764E+03  0.21165419749E+02 -0.15231801734E+04  0.15492209488E+04  0.19200000000E+03 0.  0.
<mgrwt>
<rscale>  0 0.56821432E+03</rscale>
<asrwt>0</asrwt>
<pdfrwt beam="1">  1        2 0.40129922E+00 0.56821432E+03</pdfrwt>
<pdfrwt beam="2">  1       -2 0.41048752E-02 0.56821432E+03</pdfrwt>
<totfact> 0.89129355E+02</totfact>
</mgrwt>
</event>
<event>
 4    1  0.5626910E-005  0.7606277E+03  0.7818608E-02  0.9618823E-01
         -2   -1    0    0    0  501 -0.00000000000E+00  0.00000000000E+00  0.20266858619E+03  0.20266858620E+03  0.25500000000E-02 0. -1.
          2   -1    0    0  501    0  0.00000000000E+00 -0.00000000000E+00 -0.71367066173E+03  0.71367066173E+03  0.25500000000E-02 0.  1.
    5000001    1    1    2    0    0  0.18711131091E+03 -0.32909011595E+02  0.67040842869E+02  0.27830221043E+03  0.19200000000E+03 0.  0.
   -5000001    1    1    2    0    0 -0.18711131091E+03  0.32909011595E+02 -0.57804291841E+03  0.63803703751E+03  0.19200000000E+03 0.  0.
<mgrwt>
<rscale>  0 0.76062770E+03</rscale>
<asrwt>0</asrwt>
<pdfrwt beam="1">  1        2 0.10195295E+00 0.76062770E+03</pdfrwt>
<pdfrwt beam="2">  1       -2 0.28952656E-01 0.76062770E+03</pdfrwt>
<totfact> 0.48291367E+02</totfact>
</mgrwt>
</event>
<event>
 4    1  0.5626910E-005  0.5099897E+03  0.7818608E-02  0.1011204E+00
         -2   -1    0    0    0  501 -0.00000000000E+00  0.00000000000E+00  0.23740660901E+02  0.23740661038E+02  0.25500000000E-02 0. -1.
          2   -1    0    0  501    0  0.00000000000E+00 -0.00000000000E+00 -0.27388610410E+04  0.27388610410E+04  0.25500000000E-02 0.  1.
    5000001    1    1    2    0    0 -0.14789641397E+02  0.16240992390E+03 -0.15716955398E+04  0.15917558188E+04  0.19200000000E+03 0.  0.
   -5000001    1    1    2    0    0  0.14789641397E+02 -0.16240992390E+03 -0.11434248403E+04  0.11708458832E+04  0.19200000000E+03 0.  0.
<mgrwt>
<rscale>  0 0.50998969E+03</rscale>
<asrwt>0</asrwt>
<pdfrwt beam="1">  1        2 0.39126566E+00 0.50998969E+03</pdfrwt>
<pdfrwt beam="2">  1       -2 0.33915247E-02 0.50998969E+03</pdfrwt>
<totfact> 0.13054025E+03</totfact>
</mgrwt>
</event>
<event>
 4    1  0.5626910E-005  0.1973557E+04  0.7818608E-02  0.8619084E-01
         -2   -1    0    0    0  501 -0.00000000000E+00  0.00000000000E+00  0.56729817807E+03  0.56729817808E+03  0.25500000000E-02 0. -1.
          2   -1    0    0  501    0  0.00000000000E+00 -0.00000000000E+00 -0.17164376838E+04  0.17164376838E+04  0.25500000000E-02 0.  1.
    5000001    1    1    2    0    0 -0.54737694879E+03  0.72257398891E+03 -0.18192789604E+03  0.94429680338E+03  0.19200000000E+03 0.  0.
   -5000001    1    1    2    0    0  0.54737694879E+03 -0.72257398891E+03 -0.96721160971E+03  0.13394390585E+04  0.19200000000E+03 0.  0.
<mgrwt>
<rscale>  0 0.19735572E+04</rscale>
<asrwt>0</asrwt>
<pdfrwt beam="1">  1        2 0.24520538E+00 0.19735572E+04</pdfrwt>
<pdfrwt beam="2">  1       -2 0.81042598E-01 0.19735572E+04</pdfrwt>
<totfact> 0.14111172E+01</totfact>
</mgrwt>
</event>
<event>
 4    1  0.5626910E-005  0.5178418E+03  0.7818608E-02  0.1009224E+00
          2   -1    0    0  501    0  0.00000000000E+00  0.00000000000E+00  0.67349882817E+03  0.67349882817E+03  0.25500000000E-02 0.  1.
         -2   -1    0    0    0  501 -0.00000000000E+00 -0.00000000000E+00 -0.99539939219E+02  0.99539939252E+02  0.25500000000E-02 0. -1.
    5000001    1    1    2    0    0  0.71884079213E+02 -0.15735975928E+03  0.31042261438E+03  0.40392525819E+03  0.19200000000E+03 0.  0.
   -5000001    1    1    2    0    0 -0.71884079213E+02  0.15735975928E+03  0.26353627457E+03  0.36911350924E+03  0.19200000000E+03 0.  0.
<mgrwt>
<rscale>  0 0.51784180E+03</rscale>
<asrwt>0</asrwt>
<pdfrwt beam="1">  1        2 0.96214115E-01 0.51784180E+03</pdfrwt>
<pdfrwt beam="2">  1       -2 0.14219992E-01 0.51784180E+03</pdfrwt>
<totfact> 0.18063422E+03</totfact>
</mgrwt>
</event>
<event>
 4    1  0.5626910E-005  0.5460607E+03  0.7818608E-02  0.1002410E+00
         -2   -1    0    0    0  501 -0.00000000000E+00  0.00000000000E+00  0.45038797737E+02  0.45038797809E+02  0.25500000000E-02 0. -1.
          2   -1    0    0  501    0  0.00000000000E+00 -0.00000000000E+00 -0.16551412450E+04  0.16551412450E+04  0.25500000000E-02 0.  1.
    5000001    1    1    2    0    0 -0.16598636988E+03  0.96276595413E+02 -0.89640655173E+03  0.93660523370E+03  0.19200000000E+03 0.  0.
   -5000001    1    1    2    0    0  0.16598636988E+03 -0.96276595413E+02 -0.71369589553E+03  0.76357480911E+03  0.19200000000E+03 0.  0.
<mgrwt>
<rscale>  0 0.54606070E+03</rscale>
<asrwt>0</asrwt>
<pdfrwt beam="1">  1        2 0.23644871E+00 0.54606070E+03</pdfrwt>
<pdfrwt beam="2">  1       -2 0.64341150E-02 0.54606070E+03</pdfrwt>
<totfact> 0.17155424E+03</totfact>
</mgrwt>
</event>
<event>
 4    1  0.5626910E-005  0.5512384E+03  0.7818608E-02  0.1001208E+00
          2   -1    0    0  501    0  0.00000000000E+00  0.00000000000E+00  0.27106961074E+04  0.27106961074E+04  0.25500000000E-02 0.  1.
         -2   -1    0    0    0  501 -0.00000000000E+00 -0.00000000000E+00 -0.28024515960E+02  0.28024516076E+02  0.25500000000E-02 0. -1.
    5000001    1    1    2    0    0 -0.79460082593E+02 -0.13965094508E+03  0.76867197027E+03  0.80841628452E+03  0.19200000000E+03 0.  0.
   -5000001    1    1    2    0    0  0.79460082593E+02  0.13965094508E+03  0.19139996211E+04  0.19303043389E+04  0.19200000000E+03 0.  0.
<mgrwt>
<rscale>  0 0.55123841E+03</rscale>
<asrwt>0</asrwt>
<pdfrwt beam="1">  1        2 0.38724243E+00 0.55123841E+03</pdfrwt>
<pdfrwt beam="2">  1       -2 0.40035010E-02 0.55123841E+03</pdfrwt>
<totfact> 0.10448184E+03</totfact>
</mgrwt>
</event>
<event>
 4    1  0.5626910E-005  0.4226035E+03  0.7818608E-02  0.1036222E+00
         -2   -1    0    0    0  501 -0.00000000000E+00  0.00000000000E+00  0.10296353497E+03  0.10296353500E+03  0.25500000000E-02 0. -1.
          2   -1    0    0  501    0  0.00000000000E+00 -0.00000000000E+00 -0.43363349159E+03  0.43363349160E+03  0.25500000000E-02 0.  1.
    5000001    1    1    2    0    0 -0.67284394199E+02 -0.19390992269E+02 -0.97178895925E+02  0.22629833870E+03  0.19200000000E+03 0.  0.
   -5000001    1    1    2    0    0  0.67284394199E+02  0.19390992269E+02 -0.23349106070E+03  0.31029868790E+03  0.19200000000E+03 0.  0.
<mgrwt>
<rscale>  0 0.42260354E+03</rscale>
<asrwt>0</asrwt>
<pdfrwt beam="1">  1        2 0.61947641E-01 0.42260354E+03</pdfrwt>
<pdfrwt beam="2">  1       -2 0.14709077E-01 0.42260354E+03</pdfrwt>
<totfact> 0.28241875E+03</totfact>
</mgrwt>
</event>
<event>
 4    1  0.5626910E-005  0.9004800E+03  0.7818608E-02  0.9424982E-01
          2   -1    0    0  501    0  0.00000000000E+00  0.00000000000E+00  0.82857683990E+03  0.82857683991E+03  0.25500000000E-02 0.  1.
         -2   -1    0    0    0  501 -0.00000000000E+00 -0.00000000000E+00 -0.24465569029E+03  0.24465569030E+03  0.25500000000E-02 0. -1.
    5000001    1    1    2    0    0 -0.22784150475E+03  0.30869688529E+03  0.12921144404E+03  0.44806820412E+03  0.19200000000E+03 0.  0.
   -5000001    1    1    2    0    0  0.22784150475E+03 -0.30869688529E+03  0.45470970558E+03  0.62516432609E+03  0.19200000000E+03 0.  0.
<mgrwt>
<rscale>  0 0.90047996E+03</rscale>
<asrwt>0</asrwt>
<pdfrwt beam="1">  1        2 0.11836812E+00 0.90047996E+03</pdfrwt>
<pdfrwt beam="2">  1       -2 0.34950813E-01 0.90047996E+03</pdfrwt>
<totfact> 0.27903647E+02</totfact>
</mgrwt>
</event>
<event>
 4    1  0.5626910E-005  0.5695717E+03  0.7818608E-02  0.9970627E-01
         -2   -1    0    0    0  501 -0.00000000000E+00  0.00000000000E+00  0.50851403964E+03  0.50851403965E+03  0.25500000000E-02 0. -1.
          2   -1    0    0  501    0  0.00000000000E+00 -0.00000000000E+00 -0.15949012408E+03  0.15949012410E+03  0.25500000000E-02 0.  1.
    5000001    1    1    2    0    0 -0.16222498554E+03  0.12906911930E+03  0.21619544788E+03  0.35578119002E+03  0.19200000000E+03 0.  0.
   -5000001    1    1    2    0    0  0.16222498554E+03 -0.12906911930E+03  0.13282846769E+03  0.31222297372E+03  0.19200000000E+03 0.  0.
<mgrwt>
<rscale>  0 0.56957165E+03</rscale>
<asrwt>0</asrwt>
<pdfrwt beam="1">  1        2 0.22784303E-01 0.56957165E+03</pdfrwt>
<pdfrwt beam="2">  1       -2 0.72644864E-01 0.56957165E+03</pdfrwt>
<totfact> 0.42201038E+02</totfact>
</mgrwt>
</event>
<event>
 4    1  0.5626910E-005  0.9721087E+03  0.7818608E-02  0.9339676E-01
          2   -1    0    0  501    0  0.00000000000E+00  0.00000000000E+00  0.16344732066E+04  0.16344732066E+04  0.25500000000E-02 0.  1.
         -2   -1    0    0    0  501 -0.00000000000E+00 -0.00000000000E+00 -0.14454128056E+03  0.14454128058E+03  0.25500000000E-02 0. -1.
    5000001    1    1    2    0    0  0.32921839390E+03 -0.10954430591E+03  0.23059247022E+03  0.45871733471E+03  0.19200000000E+03 0.  0.
   -5000001    1    1    2    0    0 -0.32921839390E+03  0.10954430591E+03  0.12593394559E+04  0.13202971525E+04  0.19200000000E+03 0.  0.
<mgrwt>
<rscale>  0 0.97210874E+03</rscale>
<asrwt>0</asrwt>
<pdfrwt beam="1">  1        2 0.23349617E+00 0.97210874E+03</pdfrwt>
<pdfrwt beam="2">  1       -2 0.20648755E-01 0.97210874E+03</pdfrwt>
<totfact> 0.25031162E+02</totfact>
</mgrwt>
</event>
<event>
 4    1  0.5626910E-005  0.1644879E+04  0.7818608E-02  0.8793442E-01
         -2   -1    0    0    0  501 -0.00000000000E+00  0.00000000000E+00  0.71407690607E+03  0.71407690607E+03  0.25500000000E-02 0. -1.
          2   -1    0    0  501    0  0.00000000000E+00 -0.00000000000E+00 -0.94724678508E+03  0.94724678509E+03  0.25500000000E-02 0.  1.
    5000001    1    1    2    0    0  0.67032948974E+03 -0.43593595031E+03 -0.12941134796E+03  0.83246205593E+03  0.19200000000E+03 0.  0.
   -5000001    1    1    2    0    0 -0.67032948974E+03  0.43593595031E+03 -0.10375853106E+03  0.82886163523E+03  0.19200000000E+03 0.  0.
<mgrwt>
<rscale>  0 0.16448794E+04</rscale>
<asrwt>0</asrwt>
<pdfrwt beam="1">  1        2 0.13532097E+00 0.16448794E+04</pdfrwt>
<pdfrwt beam="2">  1       -2 0.10201099E+00 0.16448794E+04</pdfrwt>
<totfact> 0.22879532E+01</totfact>
</mgrwt>
</event>
<event>
 4    1  0.5626910E-005  0.4915769E+03  0.7818608E-02  0.1016001E+00
          2   -1    0    0  501    0  0.00000000000E+00  0.00000000000E+00  0.33907852811E+03  0.33907852812E+03  0.25500000000E-02 0.  1.
         -2   -1    0    0    0  501 -0.00000000000E+00 -0.00000000000E+00 -0.17816509754E+03  0.17816509756E+03  0.25500000000E-02 0. -1.
    5000001    1    1    2    0    0 -0.59271330428E+02 -0.11957920031E+03  0.16014532924E+03  0.28341277712E+03  0.19200000000E+03 0.  0.
   -5000001    1    1    2    0    0  0.59271330428E+02  0.11957920031E+03  0.76810133668E+00  0.23383084856E+03  0.19200000000E+03 0.  0.
<mgrwt>
<rscale>  0 0.49157689E+03</rscale>
<asrwt>0</asrwt>
<pdfrwt beam="1">  1        2 0.48439790E-01 0.49157689E+03</pdfrwt>
<pdfrwt beam="2">  1       -2 0.25452157E-01 0.49157689E+03</pdfrwt>
<totfact> 0.14392006E+03</totfact>
</mgrwt>
</event>
<event>
 4    1  0.5626910E-005  0.4420721E+03  0.7818608E-02  0.1030113E+00
         -2   -1    0    0    0  501 -0.00000000000E+00  0.00000000000E+00  0.62337501164E+02  0.62337501216E+02  0.25500000000E-02 0. -1.
          2   -1    0    0  501    0  0.00000000000E+00 -0.00000000000E+00 -0.78374877844E+03  0.78374877845E+03  0.25500000000E-02 0.  1.
    5000001    1    1    2    0    0  0.65411399550E+02  0.40253619901E+02 -0.51011246587E+03  0.55043413134E+03  0.19200000000E+03 0.  0.
   -5000001    1    1    2    0    0 -0.65411399550E+02 -0.40253619901E+02 -0.21129881141E+03  0.29565214832E+03  0.19200000000E+03 0.  0.
<mgrwt>
<rscale>  0 0.44207212E+03</rscale>
<asrwt>0</asrwt>
<pdfrwt beam="1">  1        2 0.11196411E+00 0.44207212E+03</pdfrwt>
<pdfrwt beam="2">  1       -2 0.89053578E-02 0.44207212E+03</pdfrwt>
<totfact> 0.32120678E+03</totfact>
</mgrwt>
</event>
<event>
 4    1  0.5626910E-005  0.5332213E+03  0.7818608E-02  0.1005454E+00
          2   -1    0    0  501    0  0.00000000000E+00  0.00000000000E+00  0.38720667999E+03  0.38720668000E+03  0.25500000000E-02 0.  1.
         -2   -1    0    0    0  501 -0.00000000000E+00 -0.00000000000E+00 -0.18357443480E+03  0.18357443482E+03  0.25500000000E-02 0. -1.
    5000001    1    1    2    0    0  0.98141274772E+02  0.36099612412E+02 -0.61517478924E+02  0.22711955452E+03  0.19200000000E+03 0.  0.
   -5000001    1    1    2    0    0 -0.98141274772E+02 -0.36099612412E+02  0.26514972412E+03  0.34366156030E+03  0.19200000000E+03 0.  0.
<mgrwt>
<rscale>  0 0.53322133E+03</rscale>
<asrwt>0</asrwt>
<pdfrwt beam="1">  1        2 0.55315238E-01 0.53322133E+03</pdfrwt>
<pdfrwt beam="2">  1       -2 0.26224920E-01 0.53322133E+03</pdfrwt>
<totfact> 0.11784531E+03</totfact>
</mgrwt>
</event>
<event>
 4    1  0.5626910E-005  0.7353608E+03  0.7818608E-02  0.9658601E-01
         -2   -1    0    0    0  501 -0.00000000000E+00  0.00000000000E+00  0.65065053385E+03  0.65065053386E+03  0.25500000000E-02 0. -1.
          2   -1    0    0  501    0  0.00000000000E+00 -0.00000000000E+00 -0.20777496832E+03  0.20777496833E+03  0.25500000000E-02 0.  1.
    5000001    1    1    2    0    0 -0.27647745705E+03  0.14764721702E+03  0.23222611241E+03  0.43477862441E+03  0.19200000000E+03 0.  0.
   -5000001    1    1    2    0    0  0.27647745705E+03 -0.14764721702E+03  0.21064945312E+03  0.42364687778E+03  0.19200000000E+03 0.  0.
<mgrwt>
<rscale>  0 0.73536085E+03</rscale>
<asrwt>0</asrwt>
<pdfrwt beam="1">  1        2 0.29682138E-01 0.73536085E+03</pdfrwt>
<pdfrwt beam="2">  1       -2 0.92950077E-01 0.73536085E+03</pdfrwt>
<totfact> 0.17824868E+02</totfact>
</mgrwt>
</event>
<event>
 4    1  0.5626910E-005  0.1419335E+04  0.7818608E-02  0.8939941E-01
          2   -1    0    0  501    0  0.00000000000E+00  0.00000000000E+00  0.11044738963E+04  0.11044738963E+04  0.25500000000E-02 0.  1.
         -2   -1    0    0    0  501 -0.00000000000E+00 -0.00000000000E+00 -0.45598908980E+03  0.45598908981E+03  0.25500000000E-02 0. -1.
    5000001    1    1    2    0    0 -0.66843082246E+03 -0.12434629406E+03  0.39801326234E+03  0.81088860040E+03  0.19200000000E+03 0.  0.
   -5000001    1    1    2    0    0  0.66843082246E+03  0.12434629406E+03  0.25047154414E+03  0.74957438569E+03  0.19200000000E+03 0.  0.
<mgrwt>
<rscale>  0 0.14193351E+04</rscale>
<asrwt>0</asrwt>
<pdfrwt beam="1">  1        2 0.15778198E+00 0.14193351E+04</pdfrwt>
<pdfrwt beam="2">  1       -2 0.65141299E-01 0.14193351E+04</pdfrwt>
<totfact> 0.51362161E+01</totfact>
</mgrwt>
</event>
<event>
 4    1  0.5626910E-005  0.8394740E+03  0.7818608E-02  0.9504575E-01
         -2   -1    0    0    0  501 -0.00000000000E+00  0.00000000000E+00  0.25634645579E+03  0.25634645580E+03  0.25500000000E-02 0. -1.
          2   -1    0    0  501    0  0.00000000000E+00 -0.00000000000E+00 -0.68726963412E+03  0.68726963413E+03  0.25500000000E-02 0.  1.
    5000001    1    1    2    0    0 -0.23353461568E+03  0.77335785445E+02 -0.53099103905E+03  0.61590155381E+03  0.19200000000E+03 0.  0.
   -5000001    1    1    2    0    0  0.23353461568E+03 -0.77335785445E+02  0.10006786072E+03  0.32771453612E+03  0.19200000000E+03 0.  0.
<mgrwt>
<rscale>  0 0.83947397E+03</rscale>
<asrwt>0</asrwt>
<pdfrwt beam="1">  1        2 0.98181376E-01 0.83947397E+03</pdfrwt>
<pdfrwt beam="2">  1       -2 0.36620923E-01 0.83947397E+03</pdfrwt>
<totfact> 0.32424721E+02</totfact>
</mgrwt>
</event>
<event>
 4    1  0.5626910E-005  0.7177579E+03  0.7818608E-02  0.9687337E-01
          2   -1    0    0  501    0  0.00000000000E+00  0.00000000000E+00  0.29200942557E+03  0.29200942558E+03  0.25500000000E-02 0. -1.
         -2   -1    0    0    0  501 -0.00000000000E+00 -0.00000000000E+00 -0.44106147286E+03  0.44106147287E+03  0.25500000000E-02 0.  1.
    5000001    1    1    2    0    0  0.29126402303E+03  0.75612016531E+02 -0.36609895659E+02  0.35882613146E+03  0.19200000000E+03 0.  0.
   -5000001    1    1    2    0    0 -0.29126402303E+03 -0.75612016531E+02 -0.11244215163E+03  0.37424476699E+03  0.19200000000E+03 0.  0.
<mgrwt>
<rscale>  0 0.71775792E+03</rscale>
<asrwt>0</asrwt>
<pdfrwt beam="1">  1        2 0.41715632E-01 0.71775792E+03</pdfrwt>
<pdfrwt beam="2">  1       -2 0.63008782E-01 0.71775792E+03</pdfrwt>
<totfact> 0.28937210E+02</totfact>
</mgrwt>
</event>
<event>
 4    1  0.5626910E-005  0.6677917E+03  0.7818608E-02  0.9773955E-01
          2   -1    0    0  501    0  0.00000000000E+00  0.00000000000E+00  0.11897932519E+03  0.11897932522E+03  0.25500000000E-02 0.  1.
         -2   -1    0    0    0  501 -0.00000000000E+00 -0.00000000000E+00 -0.93702367762E+03  0.93702367762E+03  0.25500000000E-02 0. -1.
    5000001    1    1    2    0    0  0.17282763020E+03 -0.14985626581E+01 -0.74354408915E+03  0.78714258426E+03  0.19200000000E+03 0.  0.
   -5000001    1    1    2    0    0 -0.17282763020E+03  0.14985626581E+01 -0.74500263280E+02  0.26886041858E+03  0.19200000000E+03 0.  0.
<mgrwt>
<rscale>  0 0.66779172E+03</rscale>
<asrwt>0</asrwt>
<pdfrwt beam="1">  1        2 0.16997047E-01 0.66779172E+03</pdfrwt>
<pdfrwt beam="2">  1       -2 0.13386052E+00 0.66779172E+03</pdfrwt>
<totfact> 0.14078430E+02</totfact>
</mgrwt>
</event>
<event>
 4    1  0.5626910E-005  0.4563176E+03  0.7818608E-02  0.1025855E+00
         -2   -1    0    0    0  501 -0.00000000000E+00  0.00000000000E+00  0.96381994158E+02  0.96381994192E+02  0.25500000000E-02 0. -1.
          2   -1    0    0  501    0  0.00000000000E+00 -0.00000000000E+00 -0.54010538598E+03  0.54010538598E+03  0.25500000000E-02 0.  1.
    5000001    1    1    2    0    0  0.55582334820E+02 -0.10764656364E+03 -0.19020001720E+03  0.29617093907E+03  0.19200000000E+03 0.  0.
   -5000001    1    1    2    0    0 -0.55582334820E+02  0.10764656364E+03 -0.25352337461E+03  0.34031644110E+03  0.19200000000E+03 0.  0.
<mgrwt>
<rscale>  0 0.45631758E+03</rscale>
<asrwt>0</asrwt>
<pdfrwt beam="1">  1        2 0.77157911E-01 0.45631758E+03</pdfrwt>
<pdfrwt beam="2">  1       -2 0.13768857E-01 0.45631758E+03</pdfrwt>
<totfact> 0.24660657E+03</totfact>
</mgrwt>
</event>
<event>
 4    1  0.5626910E-005  0.1243268E+04  0.7818608E-02  0.9075805E-01
          2   -1    0    0  501    0  0.00000000000E+00  0.00000000000E+00  0.30239427419E+04  0.30239427419E+04  0.25500000000E-02 0.  1.
         -2   -1    0    0    0  501 -0.00000000000E+00 -0.00000000000E+00 -0.12778979411E+03  0.12778979413E+03  0.25500000000E-02 0. -1.
    5000001    1    1    2    0    0  0.44244408602E+03 -0.11917429354E+03  0.50088860278E+03  0.70548754340E+03  0.19200000000E+03 0.  0.
   -5000001    1    1    2    0    0 -0.44244408602E+03  0.11917429354E+03  0.23952643450E+04  0.24462449926E+04  0.19200000000E+03 0.  0.
<mgrwt>
<rscale>  0 0.12432683E+04</rscale>
<asrwt>0</asrwt>
<pdfrwt beam="1">  1        2 0.43199180E+00 0.12432683E+04</pdfrwt>
<pdfrwt beam="2">  1       -2 0.18255686E-01 0.12432683E+04</pdfrwt>
<totfact> 0.57026404E+01</totfact>
</mgrwt>
</event>
<event>
 4    1  0.5626910E-005  0.5734149E+03  0.7818608E-02  0.9962150E-01
          2   -1    0    0  501    0  0.00000000000E+00  0.00000000000E+00  0.26256273316E+03  0.26256273318E+03  0.25500000000E-02 0.  1.
         -2   -1    0    0    0  501 -0.00000000000E+00 -0.00000000000E+00 -0.31307244447E+03  0.31307244448E+03  0.25500000000E-02 0. -1.
    5000001    1    1    2    0    0 -0.20023040716E+03  0.66466798453E+02  0.36159437833E+01  0.28528429031E+03  0.19200000000E+03 0.  0.
   -5000001    1    1    2    0    0  0.20023040716E+03 -0.66466798453E+02 -0.54125655093E+02  0.29035088735E+03  0.19200000000E+03 0.  0.
<mgrwt>
<rscale>  0 0.57341488E+03</rscale>
<asrwt>0</asrwt>
<pdfrwt beam="1">  1        2 0.37508962E-01 0.57341488E+03</pdfrwt>
<pdfrwt beam="2">  1       -2 0.44724635E-01 0.57341488E+03</pdfrwt>
<totfact> 0.66016666E+02</totfact>
</mgrwt>
</event>
<event>
 4    1  0.5626910E-005  0.4290095E+03  0.7818608E-02  0.1034173E+00
         -2   -1    0    0    0  501 -0.00000000000E+00  0.00000000000E+00  0.32994364916E+02  0.32994365015E+02  0.25500000000E-02 0. -1.
          2   -1    0    0  501    0  0.00000000000E+00 -0.00000000000E+00 -0.13945498172E+04  0.13945498172E+04  0.25500000000E-02 0.  1.
    5000001    1    1    2    0    0  0.83365798896E+02  0.23631635727E+02 -0.81553160450E+03  0.84229692423E+03  0.19200000000E+03 0.  0.
   -5000001    1    1    2    0    0 -0.83365798896E+02 -0.23631635727E+02 -0.54602384782E+03  0.58524725802E+03  0.19200000000E+03 0.  0.
<mgrwt>
<rscale>  0 0.42900949E+03</rscale>
<asrwt>0</asrwt>
<pdfrwt beam="1">  1        2 0.19922137E+00 0.42900949E+03</pdfrwt>
<pdfrwt beam="2">  1       -2 0.47134816E-02 0.42900949E+03</pdfrwt>
<totfact> 0.37960324E+03</totfact>
</mgrwt>
</event>
<event>
 4    1  0.5626910E-005  0.5076570E+03  0.7818608E-02  0.1011799E+00
          2   -1    0    0  501    0  0.00000000000E+00  0.00000000000E+00  0.31156784153E+03  0.31156784154E+03  0.25500000000E-02 0.  1.
         -2   -1    0    0    0  501 -0.00000000000E+00 -0.00000000000E+00 -0.20678931927E+03  0.20678931929E+03  0.25500000000E-02 0. -1.
    5000001    1    1    2    0    0 -0.10452879388E+03  0.89641071231E+02 -0.42318706503E+02  0.24003471274E+03  0.19200000000E+03 0.  0.
   -5000001    1    1    2    0    0  0.10452879388E+03 -0.89641071231E+02  0.14709722876E+03  0.27832244809E+03  0.19200000000E+03 0.  0.
<mgrwt>
<rscale>  0 0.50765698E+03</rscale>
<asrwt>0</asrwt>
<pdfrwt beam="1">  1        2 0.44509692E-01 0.50765698E+03</pdfrwt>
<pdfrwt beam="2">  1       -2 0.29541331E-01 0.50765698E+03</pdfrwt>
<totfact> 0.12053195E+03</totfact>
</mgrwt>
</event>
<event>
 4    1  0.5626910E-005  0.6822137E+03  0.7818608E-02  0.9748142E-01
          2   -1    0    0  501    0  0.00000000000E+00  0.00000000000E+00  0.15933927559E+04  0.15933927560E+04  0.25500000000E-02 0.  1.
         -2   -1    0    0    0  501 -0.00000000000E+00 -0.00000000000E+00 -0.73022723672E+02  0.73022723716E+02  0.25500000000E-02 0. -1.
    5000001    1    1    2    0    0  0.25583267079E+03  0.11843805814E+03  0.76862895228E+03  0.84091164538E+03  0.19200000000E+03 0.  0.
   -5000001    1    1    2    0    0 -0.25583267079E+03 -0.11843805814E+03  0.75174108000E+03  0.82550383429E+03  0.19200000000E+03 0.  0.
<mgrwt>
<rscale>  0 0.68221369E+03</rscale>
<asrwt>0</asrwt>
<pdfrwt beam="1">  1        2 0.22762752E+00 0.68221369E+03</pdfrwt>
<pdfrwt beam="2">  1       -2 0.10431819E-01 0.68221369E+03</pdfrwt>
<totfact> 0.84764867E+02</totfact>
</mgrwt>
</event>
<event>
 4    1  0.5626910E-005  0.4710716E+03  0.7818608E-02  0.1021618E+00
          2   -1    0    0  501    0  0.00000000000E+00  0.00000000000E+00  0.12880941645E+04  0.12880941645E+04  0.25500000000E-02 0.  1.
         -2   -1    0    0    0  501 -0.00000000000E+00 -0.00000000000E+00 -0.43069139961E+02  0.43069140037E+02  0.25500000000E-02 0. -1.
    5000001    1    1    2    0    0 -0.57801462563E+02  0.54610299739E+02  0.30924375078E+03  0.37258420700E+03  0.19200000000E+03 0.  0.
   -5000001    1    1    2    0    0  0.57801462563E+02 -0.54610299739E+02  0.93578127371E+03  0.95857909749E+03  0.19200000000E+03 0.  0.
<mgrwt>
<rscale>  0 0.47107158E+03</rscale>
<asrwt>0</asrwt>
<pdfrwt beam="1">  1        2 0.18401347E+00 0.47107158E+03</pdfrwt>
<pdfrwt beam="2">  1       -2 0.61527337E-02 0.47107158E+03</pdfrwt>
<totfact> 0.28644005E+03</totfact>
</mgrwt>
</event>
<event>
 4    1  0.5626910E-005  0.7238713E+03  0.7818608E-02  0.9677258E-01
         -2   -1    0    0    0  501 -0.00000000000E+00  0.00000000000E+00  0.13800707073E+03  0.13800707076E+03  0.25500000000E-02 0. -1.
          2   -1    0    0  501    0  0.00000000000E+00 -0.00000000000E+00 -0.94920800260E+03  0.94920800261E+03  0.25500000000E-02 0.  1.
    5000001    1    1    2    0    0  0.23236629608E+03  0.15247278233E+03 -0.60080349656E+03  0.68925386208E+03  0.19200000000E+03 0.  0.
   -5000001    1    1    2    0    0 -0.23236629608E+03 -0.15247278233E+03 -0.21039743531E+03  0.39796121129E+03  0.19200000000E+03 0.  0.
<mgrwt>
<rscale>  0 0.72387130E+03</rscale>
<asrwt>0</asrwt>
<pdfrwt beam="1">  1        2 0.13560114E+00 0.72387130E+03</pdfrwt>
<pdfrwt beam="2">  1       -2 0.19715296E-01 0.72387130E+03</pdfrwt>
<totfact> 0.66382416E+02</totfact>
</mgrwt>
</event>
<event>
 4    1  0.5626910E-005  0.4679039E+03  0.7818608E-02  0.1022513E+00
          2   -1    0    0  501    0  0.00000000000E+00  0.00000000000E+00  0.27723475271E+03  0.27723475272E+03  0.25500000000E-02 0.  1.
         -2   -1    0    0    0  501 -0.00000000000E+00 -0.00000000000E+00 -0.19742662030E+03  0.19742662032E+03  0.25500000000E-02 0. -1.
    5000001    1    1    2    0    0 -0.13063805874E+03 -0.16198274525E+02  0.16312373253E+02  0.23336405038E+03  0.19200000000E+03 0.  0.
   -5000001    1    1    2    0    0  0.13063805874E+03  0.16198274525E+02  0.63495759160E+02  0.24129732266E+03  0.19200000000E+03 0.  0.
<mgrwt>
<rscale>  0 0.46790392E+03</rscale>
<asrwt>0</asrwt>
<pdfrwt beam="1">  1        2 0.39604965E-01 0.46790392E+03</pdfrwt>
<pdfrwt beam="2">  1       -2 0.28203803E-01 0.46790392E+03</pdfrwt>
<totfact> 0.14906656E+03</totfact>
</mgrwt>
</event>
<event>
 4    1  0.5626910E-005  0.7025979E+03  0.7818608E-02  0.9712800E-01
         -2   -1    0    0    0  501 -0.00000000000E+00  0.00000000000E+00  0.34672464721E+02  0.34672464815E+02  0.25500000000E-02 0. -1.
          2   -1    0    0  501    0  0.00000000000E+00 -0.00000000000E+00 -0.35593363861E+04  0.35593363861E+04  0.25500000000E-02 0.  1.
    5000001    1    1    2    0    0  0.23269902204E+03  0.17555575384E+03 -0.15591111709E+04  0.15977046976E+04  0.19200000000E+03 0.  0.
   -5000001    1    1    2    0    0 -0.23269902204E+03 -0.17555575384E+03 -0.19655527505E+04  0.19963041533E+04  0.19200000000E+03 0.  0.
<mgrwt>
<rscale>  0 0.70259794E+03</rscale>
<asrwt>0</asrwt>
<pdfrwt beam="1">  1        2 0.50847639E+00 0.70259794E+03</pdfrwt>
<pdfrwt beam="2">  1       -2 0.49532115E-02 0.70259794E+03</pdfrwt>
<totfact> 0.24866859E+02</totfact>
</mgrwt>
</event>
<event>
 4    1  0.5626910E-005  0.4445273E+03  0.7818608E-02  0.1029367E+00
          2   -1    0    0  501    0  0.00000000000E+00  0.00000000000E+00  0.35942435392E+03  0.35942435393E+03  0.25500000000E-02 0.  1.
         -2   -1    0    0    0  501 -0.00000000000E+00 -0.00000000000E+00 -0.13744513637E+03  0.13744513639E+03  0.25500000000E-02 0. -1.
    5000001    1    1    2    0    0 -0.88308567244E+02  0.13041832817E+02  0.18654008691E+03  0.28218734287E+03  0.19200000000E+03 0.  0.
   -5000001    1    1    2    0    0  0.88308567244E+02 -0.13041832817E+02  0.35439130642E+02  0.21468214745E+03  0.19200000000E+03 0.  0.
<mgrwt>
<rscale>  0 0.44452730E+03</rscale>
<asrwt>0</asrwt>
<pdfrwt beam="1">  1        2 0.51346336E-01 0.44452730E+03</pdfrwt>
<pdfrwt beam="2">  1       -2 0.19635020E-01 0.44452730E+03</pdfrwt>
<totfact> 0.21290842E+03</totfact>
</mgrwt>
</event>
<event>
 4    1  0.5626910E-005  0.7147913E+03  0.7818608E-02  0.9692266E-01
         -2   -1    0    0    0  501 -0.00000000000E+00  0.00000000000E+00  0.11170096942E+03  0.11170096945E+03  0.25500000000E-02 0. -1.
          2   -1    0    0  501    0  0.00000000000E+00 -0.00000000000E+00 -0.11435143191E+04  0.11435143191E+04  0.25500000000E-02 0.  1.
    5000001    1    1    2    0    0 -0.16901487111E+03  0.24907513665E+03 -0.48741695315E+03  0.60418849424E+03  0.19200000000E+03 0.  0.
   -5000001    1    1    2    0    0  0.16901487111E+03 -0.24907513665E+03 -0.54439639649E+03  0.65102679427E+03  0.19200000000E+03 0.  0.
<mgrwt>
<rscale>  0 0.71479132E+03</rscale>
<asrwt>0</asrwt>
<pdfrwt beam="1">  1        2 0.16335918E+00 0.71479132E+03</pdfrwt>
<pdfrwt beam="2">  1       -2 0.15957282E-01 0.71479132E+03</pdfrwt>
<totfact> 0.73049833E+02</totfact>
</mgrwt>
</event>
<event>
 4    1  0.5626910E-005  0.6158975E+03  0.7818608E-02  0.9872962E-01
         -2   -1    0    0    0  501 -0.00000000000E+00  0.00000000000E+00  0.30026775061E+02  0.30026775169E+02  0.25500000000E-02 0. -1.
          2   -1    0    0  501    0  0.00000000000E+00 -0.00000000000E+00 -0.31582624041E+04  0.31582624041E+04  0.25500000000E-02 0.  1.
    5000001    1    1    2    0    0 -0.10599192804E+03 -0.15505234880E+03 -0.78429775121E+03  0.82901295661E+03  0.19200000000E+03 0.  0.
   -5000001    1    1    2    0    0  0.10599192804E+03  0.15505234880E+03 -0.23439378778E+04  0.23592762226E+04  0.19200000000E+03 0.  0.
<mgrwt>
<rscale>  0 0.61589751E+03</rscale>
<asrwt>0</asrwt>
<pdfrwt beam="1">  1        2 0.45118013E+00 0.61589751E+03</pdfrwt>
<pdfrwt beam="2">  1       -2 0.42895413E-02 0.61589751E+03</pdfrwt>
<totfact> 0.53591174E+02</totfact>
</mgrwt>
</event>
<event>
 4    1  0.5626910E-005  0.7495720E+03  0.7818608E-02  0.9636022E-01
          2   -1    0    0  501    0  0.00000000000E+00  0.00000000000E+00  0.12278954086E+04  0.12278954086E+04  0.25500000000E-02 0. -1.
         -2   -1    0    0    0  501 -0.00000000000E+00 -0.00000000000E+00 -0.11439453931E+03  0.11439453934E+03  0.25500000000E-02 0.  1.
    5000001    1    1    2    0    0 -0.89877299975E+02 -0.28516575074E+03  0.34333564823E+03  0.49410606330E+03  0.19200000000E+03 0.  0.
   -5000001    1    1    2    0    0  0.89877299975E+02  0.28516575074E+03  0.77016522105E+03  0.84818388463E+03  0.19200000000E+03 0.  0.
<mgrwt>
<rscale>  0 0.74957196E+03</rscale>
<asrwt>0</asrwt>
<pdfrwt beam="1">  1        2 0.17541363E+00 0.74957196E+03</pdfrwt>
<pdfrwt beam="2">  1       -2 0.16342077E-01 0.74957196E+03</pdfrwt>
<totfact> 0.62738495E+02</totfact>
</mgrwt>
</event>
<event>
 4    1  0.5626910E-005  0.4928118E+03  0.7818608E-02  0.1015672E+00
         -2   -1    0    0    0  501 -0.00000000000E+00  0.00000000000E+00  0.39502787450E+02  0.39502787532E+02  0.25500000000E-02 0. -1.
          2   -1    0    0  501    0  0.00000000000E+00 -0.00000000000E+00 -0.15370023489E+04  0.15370023489E+04  0.25500000000E-02 0.  1.
    5000001    1    1    2    0    0 -0.73504003066E+02  0.65214215227E+02 -0.36759667024E+03  0.42620070894E+03  0.19200000000E+03 0.  0.
   -5000001    1    1    2    0    0  0.73504003066E+02 -0.65214215227E+02 -0.11299028912E+04  0.11503044275E+04  0.19200000000E+03 0.  0.
<mgrwt>
<rscale>  0 0.49281184E+03</rscale>
<asrwt>0</asrwt>
<pdfrwt beam="1">  1        2 0.21957173E+00 0.49281184E+03</pdfrwt>
<pdfrwt beam="2">  1       -2 0.56432563E-02 0.49281184E+03</pdfrwt>
<totfact> 0.24232518E+03</totfact>
</mgrwt>
</event>
<event>
 4    1  0.5626910E-005  0.8628703E+03  0.7818608E-02  0.9473224E-01
          2   -1    0    0  501    0  0.00000000000E+00  0.00000000000E+00  0.86931878454E+03  0.86931878454E+03  0.25500000000E-02 0.  1.
         -2   -1    0    0    0  501 -0.00000000000E+00 -0.00000000000E+00 -0.21411741477E+03  0.21411741478E+03  0.25500000000E-02 0. -1.
    5000001    1    1    2    0    0 -0.26847134113E+03 -0.17324597127E+03  0.60033676904E+03  0.70665356705E+03  0.19200000000E+03 0.  0.
   -5000001    1    1    2    0    0  0.26847134113E+03  0.17324597127E+03  0.54864600732E+02  0.37678263227E+03  0.19200000000E+03 0.  0.
<mgrwt>
<rscale>  0 0.86287030E+03</rscale>
<asrwt>0</asrwt>
<pdfrwt beam="1">  1        2 0.12418840E+00 0.86287030E+03</pdfrwt>
<pdfrwt beam="2">  1       -2 0.30588202E-01 0.86287030E+03</pdfrwt>
<totfact> 0.33724564E+02</totfact>
</mgrwt>
</event>
<event>
 4    1  0.5626910E-005  0.5626863E+03  0.7818608E-02  0.9985995E-01
         -2   -1    0    0    0  501 -0.00000000000E+00  0.00000000000E+00  0.18498639922E+02  0.18498640098E+02  0.25500000000E-02 0.  1.
          2   -1    0    0  501    0  0.00000000000E+00 -0.00000000000E+00 -0.42789073346E+04  0.42789073346E+04  0.25500000000E-02 0. -1.
    5000001    1    1    2    0    0 -0.11797986456E+03 -0.61995290745E+02 -0.33262973092E+04  0.33344985310E+04  0.19200000000E+03 0.  0.
   -5000001    1    1    2    0    0  0.11797986456E+03  0.61995290745E+02 -0.93411138551E+03  0.96290744366E+03  0.19200000000E+03 0.  0.
<mgrwt>
<rscale>  0 0.56268629E+03</rscale>
<asrwt>0</asrwt>
<pdfrwt beam="1">  1        2 0.61127184E+00 0.56268629E+03</pdfrwt>
<pdfrwt beam="2">  1       -2 0.26426656E-02 0.56268629E+03</pdfrwt>
<totfact> 0.22370529E+02</totfact>
</mgrwt>
</event>
<event>
 4    1  0.5626910E-005  0.7381517E+03  0.7818608E-02  0.9654124E-01
          2   -1    0    0  501    0  0.00000000000E+00  0.00000000000E+00  0.12638990345E+04  0.12638990345E+04  0.25500000000E-02 0.  1.
         -2   -1    0    0    0  501 -0.00000000000E+00 -0.00000000000E+00 -0.10777520206E+03  0.10777520209E+03  0.25500000000E-02 0. -1.
    5000001    1    1    2    0    0  0.87480125672E+02  0.26424449260E+03  0.85290188797E+03  0.91748763194E+03  0.19200000000E+03 0.  0.
   -5000001    1    1    2    0    0 -0.87480125672E+02 -0.26424449260E+03  0.30322194451E+03  0.45418660470E+03  0.19200000000E+03 0.  0.
<mgrwt>
<rscale>  0 0.73815168E+03</rscale>
<asrwt>0</asrwt>
<pdfrwt beam="1">  1        2 0.18055698E+00 0.73815168E+03</pdfrwt>
<pdfrwt beam="2">  1       -2 0.15396459E-01 0.73815168E+03</pdfrwt>
<totfact> 0.66332705E+02</totfact>
</mgrwt>
</event>
<event>
 4    1  0.5626910E-005  0.9197240E+03  0.7818608E-02  0.9401256E-01
         -2   -1    0    0    0  501 -0.00000000000E+00  0.00000000000E+00  0.15942294307E+03  0.15942294309E+03  0.25500000000E-02 0. -1.
          2   -1    0    0  501    0  0.00000000000E+00 -0.00000000000E+00 -0.13264908143E+04  0.13264908143E+04  0.25500000000E-02 0.  1.
    5000001    1    1    2    0    0  0.20873406558E+02 -0.28754332971E+03 -0.94849937596E+02  0.35913420364E+03  0.19200000000E+03 0.  0.
   -5000001    1    1    2    0    0 -0.20873406558E+02  0.28754332971E+03 -0.10722179337E+04  0.11267795538E+04  0.19200000000E+03 0.  0.
<mgrwt>
<rscale>  0 0.91972402E+03</rscale>
<asrwt>0</asrwt>
<pdfrwt beam="1">  1        2 0.18949868E+00 0.91972402E+03</pdfrwt>
<pdfrwt beam="2">  1       -2 0.22774707E-01 0.91972402E+03</pdfrwt>
<totfact> 0.30765203E+02</totfact>
</mgrwt>
</event>
<event>
 4    1  0.5626910E-005  0.4731104E+03  0.7818608E-02  0.1021046E+00
          2   -1    0    0  501    0  0.00000000000E+00  0.00000000000E+00  0.11172986301E+04  0.11172986301E+04  0.25500000000E-02 0.  1.
         -2   -1    0    0    0  501 -0.00000000000E+00 -0.00000000000E+00 -0.50083628947E+02  0.50083629012E+02  0.25500000000E-02 0. -1.
    5000001    1    1    2    0    0  0.73629378134E+01  0.13798135054E+03  0.53642527664E+03  0.58626712629E+03  0.19200000000E+03 0.  0.
   -5000001    1    1    2    0    0 -0.73629378134E+01 -0.13798135054E+03  0.53078972451E+03  0.58111513282E+03  0.19200000000E+03 0.  0.
<mgrwt>
<rscale>  0 0.47311043E+03</rscale>
<asrwt>0</asrwt>
<pdfrwt beam="1">  1        2 0.15961410E+00 0.47311043E+03</pdfrwt>
<pdfrwt beam="2">  1       -2 0.71548037E-02 0.47311043E+03</pdfrwt>
<totfact> 0.28134856E+03</totfact>
</mgrwt>
</event>
<event>
 4    1  0.5626910E-005  0.4675292E+03  0.7818608E-02  0.1022620E+00
          2   -1    0    0  501    0  0.00000000000E+00  0.00000000000E+00  0.14898676559E+04  0.14898676559E+04  0.25500000000E-02 0.  1.
         -2   -1    0    0    0  501 -0.00000000000E+00 -0.00000000000E+00 -0.36678347804E+02  0.36678347893E+02  0.25500000000E-02 0. -1.
    5000001    1    1    2    0    0 -0.79420411242E+02  0.80854741241E+02  0.95601062148E+03  0.98166460631E+03  0.19200000000E+03 0.  0.
   -5000001    1    1    2    0    0  0.79420411242E+02 -0.80854741241E+02  0.49717868666E+03  0.54488139753E+03  0.19200000000E+03 0.  0.
<mgrwt>
<rscale>  0 0.46752918E+03</rscale>
<asrwt>0</asrwt>
<pdfrwt beam="1">  1        2 0.21283821E+00 0.46752918E+03</pdfrwt>
<pdfrwt beam="2">  1       -2 0.52397647E-02 0.46752918E+03</pdfrwt>
<totfact> 0.28761535E+03</totfact>
</mgrwt>
</event>
<event>
 4    1  0.5626910E-005  0.8995317E+03  0.7818608E-02  0.9426167E-01
         -2   -1    0    0    0  501 -0.00000000000E+00  0.00000000000E+00  0.33863118443E+03  0.33863118444E+03  0.25500000000E-02 0. -1.
          2   -1    0    0  501    0  0.00000000000E+00 -0.00000000000E+00 -0.59737360953E+03  0.59737360953E+03  0.25500000000E-02 0.  1.
    5000001    1    1    2    0    0 -0.23076106732E+03  0.31894652370E+03 -0.23012382948E+02  0.43860132802E+03  0.19200000000E+03 0.  0.
   -5000001    1    1    2    0    0  0.23076106732E+03 -0.31894652370E+03 -0.23573004216E+03  0.49740346595E+03  0.19200000000E+03 0.  0.
<mgrwt>
<rscale>  0 0.89953173E+03</rscale>
<asrwt>0</asrwt>
<pdfrwt beam="1">  1        2 0.85339087E-01 0.89953173E+03</pdfrwt>
<pdfrwt beam="2">  1       -2 0.48375884E-01 0.89953173E+03</pdfrwt>
<totfact> 0.22134827E+02</totfact>
</mgrwt>
</event>
<event>
 4    1  0.5626910E-005  0.7591377E+03  0.7818608E-02  0.9621123E-01
         -2   -1    0    0    0  501 -0.00000000000E+00  0.00000000000E+00  0.62773542601E+02  0.62773542653E+02  0.25500000000E-02 0. -1.
          2   -1    0    0  501    0  0.00000000000E+00 -0.00000000000E+00 -0.22951149626E+04  0.22951149626E+04  0.25500000000E-02 0.  1.
    5000001    1    1    2    0    0 -0.30397518919E+03  0.11681781211E+03 -0.10103300561E+04  0.10787391432E+04  0.19200000000E+03 0.  0.
   -5000001    1    1    2    0    0  0.30397518919E+03 -0.11681781211E+03 -0.12220113639E+04  0.12791493620E+04  0.19200000000E+03 0.  0.
<mgrwt>
<rscale>  0 0.75913766E+03</rscale>
<asrwt>0</asrwt>
<pdfrwt beam="1">  1        2 0.32787351E+00 0.75913766E+03</pdfrwt>
<pdfrwt beam="2">  1       -2 0.89676504E-02 0.75913766E+03</pdfrwt>
<totfact> 0.47451333E+02</totfact>
</mgrwt>
</event>
<event>
 4    1  0.5626910E-005  0.4885607E+03  0.7818608E-02  0.1016809E+00
          2   -1    0    0  501    0  0.00000000000E+00  0.00000000000E+00  0.13541473426E+04  0.13541473426E+04  0.25500000000E-02 0. -1.
         -2   -1    0    0    0  501 -0.00000000000E+00 -0.00000000000E+00 -0.44066764373E+02  0.44066764447E+02  0.25500000000E-02 0.  1.
    5000001    1    1    2    0    0 -0.13077886013E+03  0.19018046656E+02  0.86425501479E+03  0.89513436251E+03  0.19200000000E+03 0.  0.
   -5000001    1    1    2    0    0  0.13077886013E+03 -0.19018046656E+02  0.44582556346E+03  0.50307974457E+03  0.19200000000E+03 0.  0.
<mgrwt>
<rscale>  0 0.48856071E+03</rscale>
<asrwt>0</asrwt>
<pdfrwt beam="1">  1        2 0.19344961E+00 0.48856071E+03</pdfrwt>
<pdfrwt beam="2">  1       -2 0.62952524E-02 0.48856071E+03</pdfrwt>
<totfact> 0.25469422E+03</totfact>
</mgrwt>
</event>
<event>
 4    1  0.5626910E-005  0.4111538E+03  0.7818608E-02  0.1039985E+00
          2   -1    0    0  501    0  0.00000000000E+00  0.00000000000E+00  0.79161102475E+03  0.79161102476E+03  0.25500000000E-02 0.  1.
         -2   -1    0    0    0  501 -0.00000000000E+00 -0.00000000000E+00 -0.53387164147E+02  0.53387164208E+02  0.25500000000E-02 0. -1.
    5000001    1    1    2    0    0 -0.15429825758E+02 -0.67540065515E+02  0.41937493232E+03  0.46641084231E+03  0.19200000000E+03 0.  0.
   -5000001    1    1    2    0    0  0.15429825758E+02  0.67540065515E+02  0.31884892829E+03  0.37858734665E+03  0.19200000000E+03 0.  0.
<mgrwt>
<rscale>  0 0.41115383E+03</rscale>
<asrwt>0</asrwt>
<pdfrwt beam="1">  1        2 0.11308730E+00 0.41115383E+03</pdfrwt>
<pdfrwt beam="2">  1       -2 0.76267373E-02 0.41115383E+03</pdfrwt>
<totfact> 0.40515580E+03</totfact>
</mgrwt>
</event>
<event>
 4    1  0.5626910E-005  0.5643400E+03  0.7818608E-02  0.9982282E-01
          2   -1    0    0  501    0  0.00000000000E+00  0.00000000000E+00  0.20439303339E+04  0.20439303339E+04  0.25500000000E-02 0.  1.
         -2   -1    0    0    0  501 -0.00000000000E+00 -0.00000000000E+00 -0.38954321909E+02  0.38954321992E+02  0.25500000000E-02 0. -1.
    5000001    1    1    2    0    0 -0.17003762576E+03  0.83687162595E+02  0.69724956355E+03  0.74762108667E+03  0.19200000000E+03 0.  0.
   -5000001    1    1    2    0    0  0.17003762576E+03 -0.83687162595E+02  0.13077264485E+04  0.13352635693E+04  0.19200000000E+03 0.  0.
<mgrwt>
<rscale>  0 0.56434004E+03</rscale>
<asrwt>0</asrwt>
<pdfrwt beam="1">  1        2 0.29199015E+00 0.56434004E+03</pdfrwt>
<pdfrwt beam="2">  1       -2 0.55649012E-02 0.56434004E+03</pdfrwt>
<totfact> 0.13705462E+03</totfact>
</mgrwt>
</event>
<event>
 4    1  0.5626910E-005  0.6276755E+03  0.7818608E-02  0.9849595E-01
         -2   -1    0    0    0  501 -0.00000000000E+00  0.00000000000E+00  0.69310015802E+02  0.69310015849E+02  0.25500000000E-02 0. -1.
          2   -1    0    0  501    0  0.00000000000E+00 -0.00000000000E+00 -0.14210665448E+04  0.14210665448E+04  0.25500000000E-02 0.  1.
    5000001    1    1    2    0    0 -0.21340862058E+03 -0.97305429193E+02 -0.48270699850E+03  0.56998388775E+03  0.19200000000E+03 0.  0.
   -5000001    1    1    2    0    0  0.21340862058E+03  0.97305429193E+02 -0.86904953053E+03  0.92039267294E+03  0.19200000000E+03 0.  0.
<mgrwt>
<rscale>  0 0.62767554E+03</rscale>
<asrwt>0</asrwt>
<pdfrwt beam="1">  1        2 0.20300949E+00 0.62767554E+03</pdfrwt>
<pdfrwt beam="2">  1       -2 0.99014317E-02 0.62767554E+03</pdfrwt>
<totfact> 0.11379090E+03</totfact>
</mgrwt>
</event>
<event>
 4    1  0.5626910E-005  0.1320795E+04  0.7818608E-02  0.9013235E-01
          2   -1    0    0  501    0  0.00000000000E+00  0.00000000000E+00  0.21203564188E+04  0.21203564188E+04  0.25500000000E-02 0.  1.
         -2   -1    0    0    0  501 -0.00000000000E+00 -0.00000000000E+00 -0.20568458040E+03  0.20568458042E+03  0.25500000000E-02 0. -1.
    5000001    1    1    2    0    0  0.29791916221E+03 -0.44767262233E+03  0.15416736441E+04  0.16440158846E+04  0.19200000000E+03 0.  0.
   -5000001    1    1    2    0    0 -0.29791916221E+03  0.44767262233E+03  0.37299819433E+03  0.68202511462E+03  0.19200000000E+03 0.  0.
<mgrwt>
<rscale>  0 0.13207946E+04</rscale>
<asrwt>0</asrwt>
<pdfrwt beam="1">  1        2 0.30290807E+00 0.13207946E+04</pdfrwt>
<pdfrwt beam="2">  1       -2 0.29383511E-01 0.13207946E+04</pdfrwt>
<totfact> 0.72638021E+01</totfact>
</mgrwt>
</event>
<event>
 4    1  0.5626910E-005  0.4223284E+03  0.7818608E-02  0.1036311E+00
         -2   -1    0    0    0  501 -0.00000000000E+00  0.00000000000E+00  0.13721536170E+02  0.13721536407E+02  0.25500000000E-02 0. -1.
          2   -1    0    0  501    0  0.00000000000E+00 -0.00000000000E+00 -0.32496592421E+04  0.32496592421E+04  0.25500000000E-02 0.  1.
    5000001    1    1    2    0    0 -0.64434571740E+02  0.59061328568E+02 -0.15462011785E+04  0.15605262378E+04  0.19200000000E+03 0.  0.
   -5000001    1    1    2    0    0  0.64434571740E+02 -0.59061328568E+02 -0.16897365274E+04  0.17028545406E+04  0.19200000000E+03 0.  0.
<mgrwt>
<rscale>  0 0.42232839E+03</rscale>
<asrwt>0</asrwt>
<pdfrwt beam="1">  1        2 0.46423654E+00 0.42232839E+03</pdfrwt>
<pdfrwt beam="2">  1       -2 0.19602215E-02 0.42232839E+03</pdfrwt>
<totfact> 0.15901763E+03</totfact>
</mgrwt>
</event>
<event>
 4    1  0.5626910E-005  0.6741050E+03  0.7818608E-02  0.9762570E-01
         -2   -1    0    0    0  501 -0.00000000000E+00  0.00000000000E+00  0.11642147021E+04  0.11642147021E+04  0.25500000000E-02 0. -1.
          2   -1    0    0  501    0  0.00000000000E+00 -0.00000000000E+00 -0.97580285977E+02  0.97580286010E+02  0.25500000000E-02 0.  1.
    5000001    1    1    2    0    0  0.98323579559E+02  0.25786918733E+03  0.57825460945E+03  0.66888447240E+03  0.19200000000E+03 0.  0.
   -5000001    1    1    2    0    0 -0.98323579559E+02 -0.25786918733E+03  0.48837980667E+03  0.59291051571E+03  0.19200000000E+03 0.  0.
<mgrwt>
<rscale>  0 0.67410505E+03</rscale>
<asrwt>0</asrwt>
<pdfrwt beam="1">  1        2 0.13940040E-01 0.67410505E+03</pdfrwt>
<pdfrwt beam="2">  1       -2 0.16631640E+00 0.67410505E+03</pdfrwt>
<totfact> 0.10095512E+02</totfact>
</mgrwt>
</event>
<event>
 4    1  0.5626910E-005  0.6239773E+03  0.7818608E-02  0.9856873E-01
          2   -1    0    0  501    0  0.00000000000E+00  0.00000000000E+00  0.49287507642E+03  0.49287507643E+03  0.25500000000E-02 0.  1.
         -2   -1    0    0    0  501 -0.00000000000E+00 -0.00000000000E+00 -0.19748800360E+03  0.19748800362E+03  0.25500000000E-02 0. -1.
    5000001    1    1    2    0    0  0.11377936545E+02 -0.23907486093E+03  0.85237099590E+02  0.31845817577E+03  0.19200000000E+03 0.  0.
   -5000001    1    1    2    0    0 -0.11377936545E+02  0.23907486093E+03  0.21014997323E+03  0.37190490427E+03  0.19200000000E+03 0.  0.
<mgrwt>
<rscale>  0 0.62397729E+03</rscale>
<asrwt>0</asrwt>
<pdfrwt beam="1">  1        2 0.70410724E-01 0.62397729E+03</pdfrwt>
<pdfrwt beam="2">  1       -2 0.28212573E-01 0.62397729E+03</pdfrwt>
<totfact> 0.78710423E+02</totfact>
</mgrwt>
</event>
<event>
 4    1  0.5626910E-005  0.5182564E+03  0.7818608E-02  0.1009121E+00
         -2   -1    0    0    0  501 -0.00000000000E+00  0.00000000000E+00  0.10332301171E+03  0.10332301175E+03  0.25500000000E-02 0. -1.
          2   -1    0    0  501    0  0.00000000000E+00 -0.00000000000E+00 -0.64987860251E+03  0.64987860251E+03  0.25500000000E-02 0.  1.
    5000001    1    1    2    0    0  0.16231395500E+03 -0.61484187042E+02 -0.29150483308E+03  0.38982713214E+03  0.19200000000E+03 0.  0.
   -5000001    1    1    2    0    0 -0.16231395500E+03  0.61484187042E+02 -0.25505075771E+03  0.36337448211E+03  0.19200000000E+03 0.  0.
<mgrwt>
<rscale>  0 0.51825636E+03</rscale>
<asrwt>0</asrwt>
<pdfrwt beam="1">  1        2 0.92839798E-01 0.51825636E+03</pdfrwt>
<pdfrwt beam="2">  1       -2 0.14760431E-01 0.51825636E+03</pdfrwt>
<totfact> 0.17713304E+03</totfact>
</mgrwt>
</event>
<event>
 4    1  0.5626910E-005  0.6509846E+03  0.7818608E-02  0.9804933E-01
          2   -1    0    0  501    0  0.00000000000E+00  0.00000000000E+00  0.22993871421E+04  0.22993871421E+04  0.25500000000E-02 0.  1.
         -2   -1    0    0    0  501 -0.00000000000E+00 -0.00000000000E+00 -0.46075419766E+02  0.46075419837E+02  0.25500000000E-02 0. -1.
    5000001    1    1    2    0    0 -0.49730257095E+02  0.25007015548E+03  0.13565974384E+04  0.13936386874E+04  0.19200000000E+03 0.  0.
   -5000001    1    1    2    0    0  0.49730257095E+02 -0.25007015548E+03  0.89671428391E+03  0.95182387451E+03  0.19200000000E+03 0.  0.
<mgrwt>
<rscale>  0 0.65098457E+03</rscale>
<asrwt>0</asrwt>
<pdfrwt beam="1">  1        2 0.32848392E+00 0.65098457E+03</pdfrwt>
<pdfrwt beam="2">  1       -2 0.65822021E-02 0.65098457E+03</pdfrwt>
<totfact> 0.77917721E+02</totfact>
</mgrwt>
</event>
<event>
 4    1  0.5626910E-005  0.7481909E+03  0.7818608E-02  0.9638193E-01
          2   -1    0    0  501    0  0.00000000000E+00  0.00000000000E+00  0.14261959788E+04  0.14261959788E+04  0.25500000000E-02 0.  1.
         -2   -1    0    0    0  501 -0.00000000000E+00 -0.00000000000E+00 -0.98126351088E+02  0.98126351121E+02  0.25500000000E-02 0. -1.
    5000001    1    1    2    0    0  0.60061469135E+02  0.21174916750E+03  0.18780887621E+03  0.34724813029E+03  0.19200000000E+03 0.  0.
   -5000001    1    1    2    0    0 -0.60061469135E+02 -0.21174916750E+03  0.11402607515E+04  0.11770741996E+04  0.19200000000E+03 0.  0.
<mgrwt>
<rscale>  0 0.74819090E+03</rscale>
<asrwt>0</asrwt>
<pdfrwt beam="1">  1        2 0.20374228E+00 0.74819090E+03</pdfrwt>
<pdfrwt beam="2">  1       -2 0.14018050E-01 0.74819090E+03</pdfrwt>
<totfact> 0.63425479E+02</totfact>
</mgrwt>
</event>
<event>
 4    1  0.5626910E-005  0.9112209E+03  0.7818608E-02  0.9411662E-01
         -2   -1    0    0    0  501 -0.00000000000E+00  0.00000000000E+00  0.32924258231E+03  0.32924258232E+03  0.25500000000E-02 0. -1.
          2   -1    0    0  501    0  0.00000000000E+00 -0.00000000000E+00 -0.63048004833E+03  0.63048004834E+03  0.25500000000E-02 0.  1.
    5000001    1    1    2    0    0  0.35992223983E+03 -0.16410582617E+03 -0.24926145711E+02  0.44040896182E+03  0.19200000000E+03 0.  0.
   -5000001    1    1    2    0    0 -0.35992223983E+03  0.16410582617E+03 -0.27631132032E+03  0.51931366884E+03  0.19200000000E+03 0.  0.
<mgrwt>
<rscale>  0 0.91122089E+03</rscale>
<asrwt>0</asrwt>
<pdfrwt beam="1">  1        2 0.90068578E-01 0.91122089E+03</pdfrwt>
<pdfrwt beam="2">  1       -2 0.47034655E-01 0.91122089E+03</pdfrwt>
<totfact> 0.21953425E+02</totfact>
</mgrwt>
</event>
<event>
 4    1  0.5626910E-005  0.4889406E+03  0.7818608E-02  0.1016707E+00
         -2   -1    0    0    0  501 -0.00000000000E+00  0.00000000000E+00  0.13183220056E+03  0.13183220059E+03  0.25500000000E-02 0. -1.
          2   -1    0    0  501    0  0.00000000000E+00 -0.00000000000E+00 -0.45334694629E+03  0.45334694630E+03  0.25500000000E-02 0.  1.
    5000001    1    1    2    0    0 -0.31318047268E+02  0.12827670595E+03 -0.72272862748E+02  0.24397356427E+03  0.19200000000E+03 0.  0.
   -5000001    1    1    2    0    0  0.31318047268E+02 -0.12827670595E+03 -0.24924188298E+03  0.34120558261E+03  0.19200000000E+03 0.  0.
<mgrwt>
<rscale>  0 0.48894059E+03</rscale>
<asrwt>0</asrwt>
<pdfrwt beam="1">  1        2 0.64763849E-01 0.48894059E+03</pdfrwt>
<pdfrwt beam="2">  1       -2 0.18833172E-01 0.48894059E+03</pdfrwt>
<totfact> 0.17717540E+03</totfact>
</mgrwt>
</event>
<event>
 4    1  0.5626910E-005  0.8606765E+03  0.7818608E-02  0.9476118E-01
          2   -1    0    0  501    0  0.00000000000E+00  0.00000000000E+00  0.15019828773E+04  0.15019828773E+04  0.25500000000E-02 0.  1.
         -2   -1    0    0    0  501 -0.00000000000E+00 -0.00000000000E+00 -0.12329769123E+03  0.12329769125E+03  0.25500000000E-02 0. -1.
    5000001    1    1    2    0    0 -0.32046831331E+03  0.71132658763E+02  0.30899905640E+03  0.49000429777E+03  0.19200000000E+03 0.  0.
   -5000001    1    1    2    0    0  0.32046831331E+03 -0.71132658763E+02  0.10696861297E+04  0.11352762708E+04  0.19200000000E+03 0.  0.
<mgrwt>
<rscale>  0 0.86067653E+03</rscale>
<asrwt>0</asrwt>
<pdfrwt beam="1">  1        2 0.21456898E+00 0.86067653E+03</pdfrwt>
<pdfrwt beam="2">  1       -2 0.17613956E-01 0.86067653E+03</pdfrwt>
<totfact> 0.38989273E+02</totfact>
</mgrwt>
</event>
<event>
 4    1  0.5626910E-005  0.4949620E+03  0.7818608E-02  0.1015102E+00
          2   -1    0    0  501    0  0.00000000000E+00  0.00000000000E+00  0.16575933269E+04  0.16575933269E+04  0.25500000000E-02 0.  1.
         -2   -1    0    0    0  501 -0.00000000000E+00 -0.00000000000E+00 -0.36949253814E+02  0.36949253902E+02  0.25500000000E-02 0. -1.
    5000001    1    1    2    0    0 -0.42206127683E+02 -0.10458636194E+03  0.11800557099E+04  0.12008809861E+04  0.19200000000E+03 0.  0.
   -5000001    1    1    2    0    0  0.42206127683E+02  0.10458636194E+03  0.44058836328E+03  0.49366159479E+03  0.19200000000E+03 0.  0.
<mgrwt>
<rscale>  0 0.49496196E+03</rscale>
<asrwt>0</asrwt>
<pdfrwt beam="1">  1        2 0.23679910E+00 0.49496196E+03</pdfrwt>
<pdfrwt beam="2">  1       -2 0.52784636E-02 0.49496196E+03</pdfrwt>
<totfact> 0.23325239E+03</totfact>
</mgrwt>
</event>
<event>
 4    1  0.5626910E-005  0.7009368E+03  0.7818608E-02  0.9715631E-01
         -2   -1    0    0    0  501 -0.00000000000E+00  0.00000000000E+00  0.96111879828E+02  0.96111879862E+02  0.25500000000E-02 0. -1.
          2   -1    0    0  501    0  0.00000000000E+00 -0.00000000000E+00 -0.12779700078E+04  0.12779700078E+04  0.25500000000E-02 0.  1.
    5000001    1    1    2    0    0 -0.24112088936E+03  0.16680754716E+03 -0.59140427282E+03  0.68744967451E+03  0.19200000000E+03 0.  0.
   -5000001    1    1    2    0    0  0.24112088936E+03 -0.16680754716E+03 -0.59045385516E+03  0.68663221316E+03  0.19200000000E+03 0.  0.
<mgrwt>
<rscale>  0 0.70093680E+03</rscale>
<asrwt>0</asrwt>
<pdfrwt beam="1">  1        2 0.18256713E+00 0.70093680E+03</pdfrwt>
<pdfrwt beam="2">  1       -2 0.13730269E-01 0.70093680E+03</pdfrwt>
<totfact> 0.79137190E+02</totfact>
</mgrwt>
</event>
<event>
 4    1  0.5626910E-005  0.8785074E+03  0.7818608E-02  0.9452854E-01
          2   -1    0    0  501    0  0.00000000000E+00  0.00000000000E+00  0.33286797918E+03  0.33286797919E+03  0.25500000000E-02 0.  1.
         -2   -1    0    0    0  501 -0.00000000000E+00 -0.00000000000E+00 -0.57964069340E+03  0.57964069340E+03  0.25500000000E-02 0. -1.
    5000001    1    1    2    0    0  0.12077650501E+03 -0.11719183281E+03  0.24788137534E+03  0.35585118530E+03  0.19200000000E+03 0.  0.
   -5000001    1    1    2    0    0 -0.12077650501E+03  0.11719183281E+03 -0.49465408956E+03  0.55665748729E+03  0.19200000000E+03 0.  0.
<mgrwt>
<rscale>  0 0.87850743E+03</rscale>
<asrwt>0</asrwt>
<pdfrwt beam="1">  1        2 0.47552569E-01 0.87850743E+03</pdfrwt>
<pdfrwt beam="2">  1       -2 0.82805813E-01 0.87850743E+03</pdfrwt>
<totfact> 0.13644981E+02</totfact>
</mgrwt>
</event>
<event>
 4    1  0.5626910E-005  0.8286974E+03  0.7818608E-02  0.9519383E-01
         -2   -1    0    0    0  501 -0.00000000000E+00  0.00000000000E+00  0.97752166788E+02  0.97752166822E+02  0.25500000000E-02 0. -1.
          2   -1    0    0  501    0  0.00000000000E+00 -0.00000000000E+00 -0.17563276761E+04  0.17563276761E+04  0.25500000000E-02 0.  1.
    5000001    1    1    2    0    0  0.16199240555E+03  0.32094776989E+03 -0.66228208266E+03  0.77764424222E+03  0.19200000000E+03 0.  0.
   -5000001    1    1    2    0    0 -0.16199240555E+03 -0.32094776989E+03 -0.99629342662E+03  0.10764356007E+04  0.19200000000E+03 0.  0.
<mgrwt>
<rscale>  0 0.82869738E+03</rscale>
<asrwt>0</asrwt>
<pdfrwt beam="1">  1        2 0.25090393E+00 0.82869738E+03</pdfrwt>
<pdfrwt beam="2">  1       -2 0.13964596E-01 0.82869738E+03</pdfrwt>
<totfact> 0.42801391E+02</totfact>
</mgrwt>
</event>
<event>
 4    1  0.5626910E-005  0.6054943E+03  0.7818608E-02  0.9894072E-01
         -2   -1    0    0    0  501 -0.00000000000E+00  0.00000000000E+00  0.13057187501E+03  0.13057187504E+03  0.25500000000E-02 0. -1.
          2   -1    0    0  501    0  0.00000000000E+00 -0.00000000000E+00 -0.70195701614E+03  0.70195701615E+03  0.25500000000E-02 0.  1.
    5000001    1    1    2    0    0 -0.12079251461E+03 -0.17087647355E+03 -0.42991401944E+03  0.51524718817E+03  0.19200000000E+03 0.  0.
   -5000001    1    1    2    0    0  0.12079251461E+03  0.17087647355E+03 -0.14147112168E+03  0.31728170302E+03  0.19200000000E+03 0.  0.
<mgrwt>
<rscale>  0 0.60549432E+03</rscale>
<asrwt>0</asrwt>
<pdfrwt beam="1">  1        2 0.10027957E+00 0.60549432E+03</pdfrwt>
<pdfrwt beam="2">  1       -2 0.18653125E-01 0.60549432E+03</pdfrwt>
<totfact> 0.10833308E+03</totfact>
</mgrwt>
</event>
<event>
 4    1  0.5626910E-005  0.8102294E+03  0.7818608E-02  0.9545327E-01
          2   -1    0    0  501    0  0.00000000000E+00  0.00000000000E+00  0.23677138086E+04  0.23677138086E+04  0.25500000000E-02 0.  1.
         -2   -1    0    0    0  501 -0.00000000000E+00 -0.00000000000E+00 -0.69314932579E+02  0.69314932626E+02  0.25500000000E-02 0. -1.
    5000001    1    1    2    0    0  0.30698761100E+03 -0.15783368412E+02  0.60476294099E+03  0.70504802873E+03  0.19200000000E+03 0.  0.
   -5000001    1    1    2    0    0 -0.30698761100E+03  0.15783368412E+02  0.16936359350E+04  0.17319807125E+04  0.19200000000E+03 0.  0.
<mgrwt>
<rscale>  0 0.81022941E+03</rscale>
<asrwt>0</asrwt>
<pdfrwt beam="1">  1        2 0.33824496E+00 0.81022941E+03</pdfrwt>
<pdfrwt beam="2">  1       -2 0.99021294E-02 0.81022941E+03</pdfrwt>
<totfact> 0.36954728E+02</totfact>
</mgrwt>
</event>
<event>
 4    1  0.5626910E-005  0.4466665E+03  0.7818608E-02  0.1028721E+00
         -2   -1    0    0    0  501 -0.00000000000E+00  0.00000000000E+00  0.38801633982E+03  0.38801633983E+03  0.25500000000E-02 0. -1.
          2   -1    0    0  501    0  0.00000000000E+00 -0.00000000000E+00 -0.12854543860E+03  0.12854543862E+03  0.25500000000E-02 0.  1.
    5000001    1    1    2    0    0  0.15327213651E+02  0.93509903410E+02  0.56276481732E+02  0.22138217613E+03  0.19200000000E+03 0.  0.
   -5000001    1    1    2    0    0 -0.15327213651E+02 -0.93509903410E+02  0.20319441949E+03  0.29517960232E+03  0.19200000000E+03 0.  0.
<mgrwt>
<rscale>  0 0.44666646E+03</rscale>
<asrwt>0</asrwt>
<pdfrwt beam="1">  1        2 0.18363634E-01 0.44666646E+03</pdfrwt>
<pdfrwt beam="2">  1       -2 0.55430907E-01 0.44666646E+03</pdfrwt>
<totfact> 0.96324189E+02</totfact>
</mgrwt>
</event>
<event>
 4    1  0.5626910E-005  0.8263714E+03  0.7818608E-02  0.9522611E-01
          2   -1    0    0  501    0  0.00000000000E+00  0.00000000000E+00  0.95753616307E+03  0.95753616308E+03  0.25500000000E-02 0.  1.
         -2   -1    0    0    0  501 -0.00000000000E+00 -0.00000000000E+00 -0.17829343203E+03  0.17829343204E+03  0.25500000000E-02 0. -1.
    5000001    1    1    2    0    0 -0.15793924663E+03  0.16939385357E+03  0.32762291465E+00  0.30083748202E+03  0.19200000000E+03 0.  0.
   -5000001    1    1    2    0    0  0.15793924663E+03 -0.16939385357E+03  0.77891510814E+03  0.83499211310E+03  0.19200000000E+03 0.  0.
<mgrwt>
<rscale>  0 0.82637137E+03</rscale>
<asrwt>0</asrwt>
<pdfrwt beam="1">  1        2 0.13679088E+00 0.82637137E+03</pdfrwt>
<pdfrwt beam="2">  1       -2 0.25470490E-01 0.82637137E+03</pdfrwt>
<totfact> 0.41449893E+02</totfact>
</mgrwt>
</event>
<event>
 4    1  0.5626910E-005  0.4172734E+03  0.7818608E-02  0.1037957E+00
         -2   -1    0    0    0  501 -0.00000000000E+00  0.00000000000E+00  0.26422562822E+03  0.26422562823E+03  0.25500000000E-02 0. -1.
          2   -1    0    0  501    0  0.00000000000E+00 -0.00000000000E+00 -0.16474280495E+03  0.16474280497E+03  0.25500000000E-02 0.  1.
    5000001    1    1    2    0    0 -0.21630257044E+02 -0.61384486330E+02  0.10041124816E+03  0.22623514744E+03  0.19200000000E+03 0.  0.
   -5000001    1    1    2    0    0  0.21630257044E+02  0.61384486330E+02 -0.92842488750E+00  0.20273328576E+03  0.19200000000E+03 0.  0.
<mgrwt>
<rscale>  0 0.41727339E+03</rscale>
<asrwt>0</asrwt>
<pdfrwt beam="1">  1        2 0.23534687E-01 0.41727339E+03</pdfrwt>
<pdfrwt beam="2">  1       -2 0.37746518E-01 0.41727339E+03</pdfrwt>
<totfact> 0.15464975E+03</totfact>
</mgrwt>
</event>
<event>
 4    1  0.5626910E-005  0.4699180E+03  0.7818608E-02  0.1021943E+00
         -2   -1    0    0    0  501 -0.00000000000E+00  0.00000000000E+00  0.18781061582E+02  0.18781061756E+02  0.25500000000E-02 0. -1.
          2   -1    0    0  501    0  0.00000000000E+00 -0.00000000000E+00 -0.29394361057E+04  0.29394361057E+04  0.25500000000E-02 0.  1.
    5000001    1    1    2    0    0 -0.12055842039E+03  0.34203028970E+02 -0.17836295264E+04  0.17983054433E+04  0.19200000000E+03 0.  0.
   -5000001    1    1    2    0    0  0.12055842039E+03 -0.34203028970E+02 -0.11370255177E+04  0.11599117241E+04  0.19200000000E+03 0.  0.
<mgrwt>
<rscale>  0 0.46991800E+03</rscale>
<asrwt>0</asrwt>
<pdfrwt beam="1">  1        2 0.41991915E+00 0.46991800E+03</pdfrwt>
<pdfrwt beam="2">  1       -2 0.26830107E-02 0.46991800E+03</pdfrwt>
<totfact> 0.14626329E+03</totfact>
</mgrwt>
</event>
<event>
 4    1  0.5626910E-005  0.4841439E+03  0.7818608E-02  0.1018002E+00
         -2   -1    0    0    0  501 -0.00000000000E+00  0.00000000000E+00  0.79932086478E+02  0.79932086518E+02  0.25500000000E-02 0. -1.
          2   -1    0    0  501    0  0.00000000000E+00 -0.00000000000E+00 -0.73310760711E+03  0.73310760711E+03  0.25500000000E-02 0.  1.
    5000001    1    1    2    0    0 -0.37564315165E+02  0.10431733159E+03 -0.16340999917E+03  0.27542696178E+03  0.19200000000E+03 0.  0.
   -5000001    1    1    2    0    0  0.37564315165E+02 -0.10431733159E+03 -0.48976552145E+03  0.53761273185E+03  0.19200000000E+03 0.  0.
<mgrwt>
<rscale>  0 0.48414387E+03</rscale>
<asrwt>0</asrwt>
<pdfrwt beam="1">  1        2 0.10472965E+00 0.48414387E+03</pdfrwt>
<pdfrwt beam="2">  1       -2 0.11418870E-01 0.48414387E+03</pdfrwt>
<totfact> 0.23389387E+03</totfact>
</mgrwt>
</event>
<event>
 4    1  0.5626910E-005  0.5288210E+03  0.7818608E-02  0.1006518E+00
         -2   -1    0    0    0  501 -0.00000000000E+00  0.00000000000E+00  0.35970459408E+02  0.35970459498E+02  0.25500000000E-02 0. -1.
          2   -1    0    0  501    0  0.00000000000E+00 -0.00000000000E+00 -0.19436203382E+04  0.19436203382E+04  0.25500000000E-02 0.  1.
    5000001    1    1    2    0    0  0.16846886734E+03 -0.48823554145E+01 -0.69874222850E+03  0.74398272731E+03  0.19200000000E+03 0.  0.
   -5000001    1    1    2    0    0 -0.16846886734E+03  0.48823554145E+01 -0.12089076503E+04  0.12356080704E+04  0.19200000000E+03 0.  0.
<mgrwt>
<rscale>  0 0.52882102E+03</rscale>
<asrwt>0</asrwt>
<pdfrwt beam="1">  1        2 0.27765998E+00 0.52882102E+03</pdfrwt>
<pdfrwt beam="2">  1       -2 0.51386383E-02 0.52882102E+03</pdfrwt>
<totfact> 0.17442343E+03</totfact>
</mgrwt>
</event>
<event>
 4    1  0.5626910E-005  0.5123571E+03  0.7818608E-02  0.1010603E+00
         -2   -1    0    0    0  501 -0.00000000000E+00  0.00000000000E+00  0.46269110650E+02  0.46269110720E+02  0.25500000000E-02 0. -1.
          2   -1    0    0  501    0  0.00000000000E+00 -0.00000000000E+00 -0.14183856751E+04  0.14183856751E+04  0.25500000000E-02 0.  1.
    5000001    1    1    2    0    0  0.61370262965E+02 -0.15031559862E+03 -0.82617216429E+03  0.86358875249E+03  0.19200000000E+03 0.  0.
   -5000001    1    1    2    0    0 -0.61370262965E+02  0.15031559862E+03 -0.54594440012E+03  0.60106603330E+03  0.19200000000E+03 0.  0.
<mgrwt>
<rscale>  0 0.51235708E+03</rscale>
<asrwt>0</asrwt>
<pdfrwt beam="1">  1        2 0.20262650E+00 0.51235708E+03</pdfrwt>
<pdfrwt beam="2">  1       -2 0.66098738E-02 0.51235708E+03</pdfrwt>
<totfact> 0.21812297E+03</totfact>
</mgrwt>
</event>
<event>
 4    1  0.5626910E-005  0.6424711E+03  0.7818608E-02  0.9821010E-01
          2   -1    0    0  501    0  0.00000000000E+00  0.00000000000E+00  0.14025118002E+04  0.14025118002E+04  0.25500000000E-02 0.  1.
         -2   -1    0    0    0  501 -0.00000000000E+00 -0.00000000000E+00 -0.73576766653E+02  0.73576766697E+02  0.25500000000E-02 0. -1.
    5000001    1    1    2    0    0  0.47958400099E+02  0.24388902384E+03  0.81938254744E+03  0.87751559710E+03  0.19200000000E+03 0.  0.
   -5000001    1    1    2    0    0 -0.47958400099E+02 -0.24388902384E+03  0.50955248612E+03  0.59857296982E+03  0.19200000000E+03 0.  0.
<mgrwt>
<rscale>  0 0.64247112E+03</rscale>
<asrwt>0</asrwt>
<pdfrwt beam="1">  1        2 0.20035883E+00 0.64247112E+03</pdfrwt>
<pdfrwt beam="2">  1       -2 0.10510967E-01 0.64247112E+03</pdfrwt>
<totfact> 0.10557173E+03</totfact>
</mgrwt>
</event>
<event>
 4    1  0.5626910E-005  0.6303786E+03  0.7818608E-02  0.9844310E-01
         -2   -1    0    0    0  501 -0.00000000000E+00  0.00000000000E+00  0.40956258760E+03  0.40956258760E+03  0.25500000000E-02 0. -1.
          2   -1    0    0  501    0  0.00000000000E+00 -0.00000000000E+00 -0.24256192177E+03  0.24256192178E+03  0.25500000000E-02 0.  1.
    5000001    1    1    2    0    0 -0.17840310614E+03  0.14183378801E+03  0.18968523367E+03  0.35325483659E+03  0.19200000000E+03 0.  0.
   -5000001    1    1    2    0    0  0.17840310614E+03 -0.14183378801E+03 -0.22684567838E+02  0.29886967280E+03  0.19200000000E+03 0.  0.
<mgrwt>
<rscale>  0 0.63037858E+03</rscale>
<asrwt>0</asrwt>
<pdfrwt beam="1">  1        2 0.34651703E-01 0.63037858E+03</pdfrwt>
<pdfrwt beam="2">  1       -2 0.58508941E-01 0.63037858E+03</pdfrwt>
<totfact> 0.41679443E+02</totfact>
</mgrwt>
</event>
<event>
 4    1  0.5626910E-005  0.5763079E+03  0.7818608E-02  0.9955816E-01
         -2   -1    0    0    0  501 -0.00000000000E+00  0.00000000000E+00  0.41490002598E+02  0.41490002677E+02  0.25500000000E-02 0. -1.
          2   -1    0    0  501    0  0.00000000000E+00 -0.00000000000E+00 -0.20012701276E+04  0.20012701276E+04  0.25500000000E-02 0.  1.
    5000001    1    1    2    0    0 -0.15619160461E+03 -0.14749375008E+03 -0.99512724000E+03  0.10359982855E+04  0.19200000000E+03 0.  0.
   -5000001    1    1    2    0    0  0.15619160461E+03  0.14749375008E+03 -0.96465288500E+03  0.10067618448E+04  0.19200000000E+03 0.  0.
<mgrwt>
<rscale>  0 0.57630791E+03</rscale>
<asrwt>0</asrwt>
<pdfrwt beam="1">  1        2 0.28589567E+00 0.57630791E+03</pdfrwt>
<pdfrwt beam="2">  1       -2 0.59271445E-02 0.57630791E+03</pdfrwt>
<totfact> 0.13039670E+03</totfact>
</mgrwt>
</event>
<event>
 4    1  0.5626910E-005  0.6076416E+03  0.7818608E-02  0.9889678E-01
         -2   -1    0    0    0  501 -0.00000000000E+00  0.00000000000E+00  0.27541416056E+03  0.27541416057E+03  0.25500000000E-02 0. -1.
          2   -1    0    0  501    0  0.00000000000E+00 -0.00000000000E+00 -0.33515736680E+03  0.33515736681E+03  0.25500000000E-02 0.  1.
    5000001    1    1    2    0    0 -0.18955018194E+03 -0.13558963081E+03 -0.63638180489E+02  0.30858975594E+03  0.19200000000E+03 0.  0.
   -5000001    1    1    2    0    0  0.18955018194E+03  0.13558963081E+03  0.38949742482E+01  0.30198177144E+03  0.19200000000E+03 0.  0.
<mgrwt>
<rscale>  0 0.60764162E+03</rscale>
<asrwt>0</asrwt>
<pdfrwt beam="1">  1        2 0.47879624E-01 0.60764162E+03</pdfrwt>
<pdfrwt beam="2">  1       -2 0.39344880E-01 0.60764162E+03</pdfrwt>
<totfact> 0.64767403E+02</totfact>
</mgrwt>
</event>
<event>
 4    1  0.5626910E-005  0.6098562E+03  0.7818608E-02  0.9885166E-01
         -2   -1    0    0    0  501 -0.00000000000E+00  0.00000000000E+00  0.82081344089E+03  0.82081344089E+03  0.25500000000E-02 0. -1.
          2   -1    0    0  501    0  0.00000000000E+00 -0.00000000000E+00 -0.11327927409E+03  0.11327927412E+03  0.25500000000E-02 0.  1.
    5000001    1    1    2    0    0 -0.19337459819E+03 -0.63848165937E+02  0.16839927703E+03  0.32663839337E+03  0.19200000000E+03 0.  0.
   -5000001    1    1    2    0    0  0.19337459819E+03  0.63848165937E+02  0.53913488977E+03  0.60745432164E+03  0.19200000000E+03 0.  0.
<mgrwt>
<rscale>  0 0.60985622E+03</rscale>
<asrwt>0</asrwt>
<pdfrwt beam="1">  1        2 0.16182753E-01 0.60985622E+03</pdfrwt>
<pdfrwt beam="2">  1       -2 0.11725907E+00 0.60985622E+03</pdfrwt>
<totfact> 0.20826099E+02</totfact>
</mgrwt>
</event>
<event>
 4    1  0.5626910E-005  0.6122455E+03  0.7818608E-02  0.9880321E-01
          2   -1    0    0  501    0  0.00000000000E+00  0.00000000000E+00  0.15394304659E+04  0.15394304660E+04  0.25500000000E-02 0.  1.
         -2   -1    0    0    0  501 -0.00000000000E+00 -0.00000000000E+00 -0.60873905109E+02  0.60873905162E+02  0.25500000000E-02 0. -1.
    5000001    1    1    2    0    0 -0.19458757755E+03 -0.31076124925E+02  0.10901265502E+04  0.11243086526E+04  0.19200000000E+03 0.  0.
   -5000001    1    1    2    0    0  0.19458757755E+03  0.31076124925E+02  0.38843001068E+03  0.47599571855E+03  0.19200000000E+03 0.  0.
<mgrwt>
<rscale>  0 0.61224552E+03</rscale>
<asrwt>0</asrwt>
<pdfrwt beam="1">  1        2 0.21991869E+00 0.61224552E+03</pdfrwt>
<pdfrwt beam="2">  1       -2 0.86962700E-02 0.61224552E+03</pdfrwt>
<totfact> 0.12169114E+03</totfact>
</mgrwt>
</event>
<event>
 4    1  0.5626910E-005  0.4366048E+03  0.7818608E-02  0.1031794E+00
          2   -1    0    0  501    0  0.00000000000E+00  0.00000000000E+00  0.21273291962E+04  0.21273291962E+04  0.25500000000E-02 0.  1.
         -2   -1    0    0    0  501 -0.00000000000E+00 -0.00000000000E+00 -0.22401769781E+02  0.22401769926E+02  0.25500000000E-02 0. -1.
    5000001    1    1    2    0    0  0.31866663064E+02 -0.83298982259E+02  0.13147535563E+04  0.13316888219E+04  0.19200000000E+03 0.  0.
   -5000001    1    1    2    0    0 -0.31866663064E+02  0.83298982259E+02  0.79017387019E+03  0.81804214426E+03  0.19200000000E+03 0.  0.
<mgrwt>
<rscale>  0 0.43660481E+03</rscale>
<asrwt>0</asrwt>
<pdfrwt beam="1">  1        2 0.30390389E+00 0.43660481E+03</pdfrwt>
<pdfrwt beam="2">  1       -2 0.32002558E-02 0.43660481E+03</pdfrwt>
<totfact> 0.29256177E+03</totfact>
</mgrwt>
</event>
<event>
 4    1  0.5626910E-005  0.1290761E+04  0.7818608E-02  0.9036924E-01
          2   -1    0    0  501    0  0.00000000000E+00  0.00000000000E+00  0.17967714456E+04  0.17967714456E+04  0.25500000000E-02 0.  1.
         -2   -1    0    0    0  501 -0.00000000000E+00 -0.00000000000E+00 -0.23181362374E+03  0.23181362375E+03  0.25500000000E-02 0. -1.
    5000001    1    1    2    0    0 -0.34475809278E+03 -0.47230272226E+03  0.47722815201E+03  0.77880595341E+03  0.19200000000E+03 0.  0.
   -5000001    1    1    2    0    0  0.34475809278E+03  0.47230272226E+03  0.10877296699E+04  0.12497791160E+04  0.19200000000E+03 0.  0.
<mgrwt>
<rscale>  0 0.12907612E+04</rscale>
<asrwt>0</asrwt>
<pdfrwt beam="1">  1        2 0.25668165E+00 0.12907612E+04</pdfrwt>
<pdfrwt beam="2">  1       -2 0.33116231E-01 0.12907612E+04</pdfrwt>
<totfact> 0.85308736E+01</totfact>
</mgrwt>
</event>
<event>
 4    1  0.5626910E-005  0.1019198E+04  0.7818608E-02  0.9287736E-01
         -2   -1    0    0    0  501 -0.00000000000E+00  0.00000000000E+00  0.15127509002E+03  0.15127509004E+03  0.25500000000E-02 0. -1.
          2   -1    0    0  501    0  0.00000000000E+00 -0.00000000000E+00 -0.17166799048E+04  0.17166799048E+04  0.25500000000E-02 0.  1.
    5000001    1    1    2    0    0 -0.46575065647E+03 -0.73981208744E+02 -0.82070815655E+03  0.96582750607E+03  0.19200000000E+03 0.  0.
   -5000001    1    1    2    0    0  0.46575065647E+03  0.73981208744E+02 -0.74469665825E+03  0.90212748880E+03  0.19200000000E+03 0.  0.
<mgrwt>
<rscale>  0 0.10191975E+04</rscale>
<asrwt>0</asrwt>
<pdfrwt beam="1">  1        2 0.24523997E+00 0.10191975E+04</pdfrwt>
<pdfrwt beam="2">  1       -2 0.21610728E-01 0.10191975E+04</pdfrwt>
<totfact> 0.20876638E+02</totfact>
</mgrwt>
</event>
<event>
 4    1  0.5626910E-005  0.6978126E+03  0.7818608E-02  0.9720980E-01
         -2   -1    0    0    0  501 -0.00000000000E+00  0.00000000000E+00  0.10286350625E+03  0.10286350628E+03  0.25500000000E-02 0. -1.
          2   -1    0    0  501    0  0.00000000000E+00 -0.00000000000E+00 -0.11834673482E+04  0.11834673482E+04  0.25500000000E-02 0.  1.
    5000001    1    1    2    0    0 -0.27288890915E+03 -0.61552909384E+02 -0.69022271063E+03  0.76910890494E+03  0.19200000000E+03 0.  0.
   -5000001    1    1    2    0    0  0.27288890915E+03  0.61552909384E+02 -0.39038113131E+03  0.51722194953E+03  0.19200000000E+03 0.  0.
<mgrwt>
<rscale>  0 0.69781259E+03</rscale>
<asrwt>0</asrwt>
<pdfrwt beam="1">  1        2 0.16906676E+00 0.69781259E+03</pdfrwt>
<pdfrwt beam="2">  1       -2 0.14694787E-01 0.69781259E+03</pdfrwt>
<totfact> 0.79737859E+02</totfact>
</mgrwt>
</event>
<event>
 4    1  0.5626910E-005  0.4797185E+03  0.7818608E-02  0.1019213E+00
         -2   -1    0    0    0  501 -0.00000000000E+00  0.00000000000E+00  0.20711352774E+02  0.20711352931E+02  0.25500000000E-02 0. -1.
          2   -1    0    0  501    0  0.00000000000E+00 -0.00000000000E+00 -0.27778218890E+04  0.27778218890E+04  0.25500000000E-02 0.  1.
    5000001    1    1    2    0    0 -0.84434147457E+02 -0.65595986463E+02 -0.81789789340E+03  0.84690785964E+03  0.19200000000E+03 0.  0.
   -5000001    1    1    2    0    0  0.84434147457E+02  0.65595986463E+02 -0.19392126428E+04  0.19516253823E+04  0.19200000000E+03 0.  0.
<mgrwt>
<rscale>  0 0.47971846E+03</rscale>
<asrwt>0</asrwt>
<pdfrwt beam="1">  1        2 0.39683146E+00 0.47971846E+03</pdfrwt>
<pdfrwt beam="2">  1       -2 0.29587665E-02 0.47971846E+03</pdfrwt>
<totfact> 0.15355492E+03</totfact>
</mgrwt>
</event>
<event>
 4    1  0.5626910E-005  0.6218730E+03  0.7818608E-02  0.9861038E-01
         -2   -1    0    0    0  501 -0.00000000000E+00  0.00000000000E+00  0.35371307000E+02  0.35371307092E+02  0.25500000000E-02 0. -1.
          2   -1    0    0  501    0  0.00000000000E+00 -0.00000000000E+00 -0.27333311623E+04  0.27333311623E+04  0.25500000000E-02 0.  1.
    5000001    1    1    2    0    0 -0.11492523078E+02 -0.23293016320E+03 -0.16770244607E+04  0.17040139614E+04  0.19200000000E+03 0.  0.
   -5000001    1    1    2    0    0  0.11492523078E+02  0.23293016320E+03 -0.10209353946E+04  0.10646885080E+04  0.19200000000E+03 0.  0.
<mgrwt>
<rscale>  0 0.62187296E+03</rscale>
<asrwt>0</asrwt>
<pdfrwt beam="1">  1        2 0.39047575E+00 0.62187296E+03</pdfrwt>
<pdfrwt beam="2">  1       -2 0.50530456E-02 0.62187296E+03</pdfrwt>
<totfact> 0.70566020E+02</totfact>
</mgrwt>
</event>
<event>
 4    1  0.5626910E-005  0.6977228E+03  0.7818608E-02  0.9721134E-01
          2   -1    0    0  501    0  0.00000000000E+00  0.00000000000E+00  0.25285485355E+03  0.25285485356E+03  0.25500000000E-02 0. -1.
         -2   -1    0    0    0  501 -0.00000000000E+00 -0.00000000000E+00 -0.48132069243E+03  0.48132069244E+03  0.25500000000E-02 0.  1.
    5000001    1    1    2    0    0  0.23032751945E+03  0.11208578170E+03  0.31670237240E+02  0.32168461667E+03  0.19200000000E+03 0.  0.
   -5000001    1    1    2    0    0 -0.23032751945E+03 -0.11208578170E+03 -0.26013607612E+03  0.41249092933E+03  0.19200000000E+03 0.  0.
<mgrwt>
<rscale>  0 0.69772279E+03</rscale>
<asrwt>0</asrwt>
<pdfrwt beam="1">  1        2 0.36122122E-01 0.69772279E+03</pdfrwt>
<pdfrwt beam="2">  1       -2 0.68760098E-01 0.69772279E+03</pdfrwt>
<totfact> 0.28162192E+02</totfact>
</mgrwt>
</event>
<event>
 4    1  0.5626910E-005  0.4564370E+03  0.7818608E-02  0.1025820E+00
          2   -1    0    0  501    0  0.00000000000E+00  0.00000000000E+00  0.63461796977E+03  0.63461796978E+03  0.25500000000E-02 0.  1.
         -2   -1    0    0    0  501 -0.00000000000E+00 -0.00000000000E+00 -0.82070938621E+02  0.82070938661E+02  0.25500000000E-02 0. -1.
    5000001    1    1    2    0    0  0.11647405548E+03 -0.25104393071E+02  0.22604596259E+03  0.31962042074E+03  0.19200000000E+03 0.  0.
   -5000001    1    1    2    0    0 -0.11647405548E+03  0.25104393071E+02  0.32650106857E+03  0.39706848770E+03  0.19200000000E+03 0.  0.
<mgrwt>
<rscale>  0 0.45643704E+03</rscale>
<asrwt>0</asrwt>
<pdfrwt beam="1">  1        2 0.90659710E-01 0.45643704E+03</pdfrwt>
<pdfrwt beam="2">  1       -2 0.11724420E-01 0.45643704E+03</pdfrwt>
<totfact> 0.26644447E+03</totfact>
</mgrwt>
</event>
<event>
 4    1  0.5626910E-005  0.6106580E+03  0.7818608E-02  0.9883538E-01
          2   -1    0    0  501    0  0.00000000000E+00  0.00000000000E+00  0.16474435027E+04  0.16474435027E+04  0.25500000000E-02 0.  1.
         -2   -1    0    0    0  501 -0.00000000000E+00 -0.00000000000E+00 -0.56588162885E+02  0.56588162943E+02  0.25500000000E-02 0. -1.
    5000001    1    1    2    0    0 -0.12220376378E+03  0.62490414861E+02  0.13359682690E+04  0.13566554565E+04  0.19200000000E+03 0.  0.
   -5000001    1    1    2    0    0  0.12220376378E+03 -0.62490414861E+02  0.25488707086E+03  0.34737620921E+03  0.19200000000E+03 0.  0.
<mgrwt>
<rscale>  0 0.61065801E+03</rscale>
<asrwt>0</asrwt>
<pdfrwt beam="1">  1        2 0.23534906E+00 0.61065801E+03</pdfrwt>
<pdfrwt beam="2">  1       -2 0.80840238E-02 0.61065801E+03</pdfrwt>
<totfact> 0.12033766E+03</totfact>
</mgrwt>
</event>
<event>
 4    1  0.5626910E-005  0.4506129E+03  0.7818608E-02  0.1027539E+00
         -2   -1    0    0    0  501 -0.00000000000E+00  0.00000000000E+00  0.33883986703E+02  0.33883986799E+02  0.25500000000E-02 0. -1.
          2   -1    0    0  501    0  0.00000000000E+00 -0.00000000000E+00 -0.14981411216E+04  0.14981411216E+04  0.25500000000E-02 0.  1.
    5000001    1    1    2    0    0  0.10546337467E+03  0.37954516976E+02 -0.85639485911E+03  0.88478202031E+03  0.19200000000E+03 0.  0.
   -5000001    1    1    2    0    0 -0.10546337467E+03 -0.37954516976E+02 -0.60786227580E+03  0.64724308810E+03  0.19200000000E+03 0.  0.
<mgrwt>
<rscale>  0 0.45061289E+03</rscale>
<asrwt>0</asrwt>
<pdfrwt beam="1">  1        2 0.21402012E+00 0.45061289E+03</pdfrwt>
<pdfrwt beam="2">  1       -2 0.48405705E-02 0.45061289E+03</pdfrwt>
<totfact> 0.32187039E+03</totfact>
</mgrwt>
</event>
<event>
 4    1  0.5626910E-005  0.8145045E+03  0.7818608E-02  0.9539257E-01
         -2   -1    0    0    0  501 -0.00000000000E+00  0.00000000000E+00  0.79241988598E+02  0.79241988639E+02  0.25500000000E-02 0. -1.
          2   -1    0    0  501    0  0.00000000000E+00 -0.00000000000E+00 -0.20930116283E+04  0.20930116283E+04  0.25500000000E-02 0.  1.
    5000001    1    1    2    0    0  0.34129938060E+03  0.25279290519E+02 -0.71636824161E+03  0.81680583207E+03  0.19200000000E+03 0.  0.
   -5000001    1    1    2    0    0 -0.34129938060E+03 -0.25279290519E+02 -0.12974013981E+04  0.13554477848E+04  0.19200000000E+03 0.  0.
<mgrwt>
<rscale>  0 0.81450452E+03</rscale>
<asrwt>0</asrwt>
<pdfrwt beam="1">  1        2 0.29900163E+00 0.81450452E+03</pdfrwt>
<pdfrwt beam="2">  1       -2 0.11320285E-01 0.81450452E+03</pdfrwt>
<totfact> 0.40955895E+02</totfact>
</mgrwt>
</event>
<event>
 4    1  0.5626910E-005  0.1180409E+04  0.7818608E-02  0.9130180E-01
         -2   -1    0    0    0  501 -0.00000000000E+00  0.00000000000E+00  0.47014876088E+03  0.47014876088E+03  0.25500000000E-02 0. -1.
          2   -1    0    0  501    0  0.00000000000E+00 -0.00000000000E+00 -0.74091678903E+03  0.74091678904E+03  0.25500000000E-02 0.  1.
    5000001    1    1    2    0    0  0.19587941466E+03 -0.44432911778E+03 -0.41762875037E+03  0.66863658524E+03  0.19200000000E+03 0.  0.
   -5000001    1    1    2    0    0 -0.19587941466E+03  0.44432911778E+03  0.14686072221E+03  0.54242896468E+03  0.19200000000E+03 0.  0.
<mgrwt>
<rscale>  0 0.11804086E+04</rscale>
<asrwt>0</asrwt>
<pdfrwt beam="1">  1        2 0.10584526E+00 0.11804086E+04</pdfrwt>
<pdfrwt beam="2">  1       -2 0.67164109E-01 0.11804086E+04</pdfrwt>
<totfact> 0.84340230E+01</totfact>
</mgrwt>
</event>
<event>
 4    1  0.5626910E-005  0.5448726E+03  0.7818608E-02  0.1002688E+00
         -2   -1    0    0    0  501 -0.00000000000E+00  0.00000000000E+00  0.11786941215E+03  0.11786941218E+03  0.25500000000E-02 0. -1.
          2   -1    0    0  501    0  0.00000000000E+00 -0.00000000000E+00 -0.62969294317E+03  0.62969294317E+03  0.25500000000E-02 0.  1.
    5000001    1    1    2    0    0  0.16188496404E+03 -0.32711409812E+02 -0.11815939683E+03  0.27946810368E+03  0.19200000000E+03 0.  0.
   -5000001    1    1    2    0    0 -0.16188496404E+03  0.32711409812E+02 -0.39366413418E+03  0.46809425168E+03  0.19200000000E+03 0.  0.
<mgrwt>
<rscale>  0 0.54487260E+03</rscale>
<asrwt>0</asrwt>
<pdfrwt beam="1">  1        2 0.89956133E-01 0.54487260E+03</pdfrwt>
<pdfrwt beam="2">  1       -2 0.16838488E-01 0.54487260E+03</pdfrwt>
<totfact> 0.14723762E+03</totfact>
</mgrwt>
</event>
<event>
 4    1  0.5626910E-005  0.5432205E+03  0.7818608E-02  0.1003075E+00
          2   -1    0    0  501    0  0.00000000000E+00  0.00000000000E+00  0.19718673095E+04  0.19718673095E+04  0.25500000000E-02 0.  1.
         -2   -1    0    0    0  501 -0.00000000000E+00 -0.00000000000E+00 -0.37412319041E+02  0.37412319128E+02  0.25500000000E-02 0. -1.
    5000001    1    1    2    0    0 -0.14429233725E+02 -0.15283892317E+03  0.13944412535E+04  0.14159443311E+04  0.19200000000E+03 0.  0.
   -5000001    1    1    2    0    0  0.14429233725E+02  0.15283892317E+03  0.54001373691E+03  0.59333529751E+03  0.19200000000E+03 0.  0.
<mgrwt>
<rscale>  0 0.54322050E+03</rscale>
<asrwt>0</asrwt>
<pdfrwt beam="1">  1        2 0.28169543E+00 0.54322050E+03</pdfrwt>
<pdfrwt beam="2">  1       -2 0.53446151E-02 0.54322050E+03</pdfrwt>
<totfact> 0.15875052E+03</totfact>
</mgrwt>
</event>
<event>
 4    1  0.5626910E-005  0.1586930E+04  0.7818608E-02  0.8828618E-01
          2   -1    0    0  501    0  0.00000000000E+00  0.00000000000E+00  0.26204698545E+04  0.26204698545E+04  0.25500000000E-02 0.  1.
         -2   -1    0    0    0  501 -0.00000000000E+00 -0.00000000000E+00 -0.24025709657E+03  0.24025709658E+03  0.25500000000E-02 0. -1.
    5000001    1    1    2    0    0 -0.67774343082E+03  0.35538744470E+03  0.13418540015E+04  0.15566221620E+04  0.19200000000E+03 0.  0.
   -5000001    1    1    2    0    0  0.67774343082E+03 -0.35538744470E+03  0.10383587564E+04  0.13041047891E+04  0.19200000000E+03 0.  0.
<mgrwt>
<rscale>  0 0.15869297E+04</rscale>
<asrwt>0</asrwt>
<pdfrwt beam="1">  1        2 0.37435283E+00 0.15869297E+04</pdfrwt>
<pdfrwt beam="2">  1       -2 0.34322443E-01 0.15869297E+04</pdfrwt>
<totfact> 0.29139847E+01</totfact>
</mgrwt>
</event>
<event>
 4    1  0.5626910E-005  0.7754925E+03  0.7818608E-02  0.9596184E-01
          2   -1    0    0  501    0  0.00000000000E+00  0.00000000000E+00  0.41311965428E+04  0.41311965428E+04  0.25500000000E-02 0.  1.
         -2   -1    0    0    0  501 -0.00000000000E+00 -0.00000000000E+00 -0.36393126256E+02  0.36393126346E+02  0.25500000000E-02 0. -1.
    5000001    1    1    2    0    0  0.17408005641E+03  0.26237780315E+03  0.14039155431E+04  0.14515470470E+04  0.19200000000E+03 0.  0.
   -5000001    1    1    2    0    0 -0.17408005641E+03 -0.26237780315E+03  0.26908878734E+04  0.27160426221E+04  0.19200000000E+03 0.  0.
<mgrwt>
<rscale>  0 0.77549251E+03</rscale>
<asrwt>0</asrwt>
<pdfrwt beam="1">  1        2 0.59017066E+00 0.77549251E+03</pdfrwt>
<pdfrwt beam="2">  1       -2 0.51990204E-02 0.77549251E+03</pdfrwt>
<totfact> 0.97512839E+01</totfact>
</mgrwt>
</event>
<event>
 4    1  0.5626910E-005  0.5721445E+03  0.7818608E-02  0.9964944E-01
          2   -1    0    0  501    0  0.00000000000E+00  0.00000000000E+00  0.33948298564E+04  0.33948298564E+04  0.25500000000E-02 0. -1.
         -2   -1    0    0    0  501 -0.00000000000E+00 -0.00000000000E+00 -0.24106461095E+02  0.24106461230E+02  0.25500000000E-02 0.  1.
    5000001    1    1    2    0    0 -0.16165945051E+03  0.11926007042E+03  0.20913803776E+04  0.21097612723E+04  0.19200000000E+03 0.  0.
   -5000001    1    1    2    0    0  0.16165945051E+03 -0.11926007042E+03  0.12793430177E+04  0.13091750453E+04  0.19200000000E+03 0.  0.
<mgrwt>
<rscale>  0 0.57214451E+03</rscale>
<asrwt>0</asrwt>
<pdfrwt beam="1">  1        2 0.48497500E+00 0.57214451E+03</pdfrwt>
<pdfrwt beam="2">  1       -2 0.34437851E-02 0.57214451E+03</pdfrwt>
<totfact> 0.55307314E+02</totfact>
</mgrwt>
</event>
<event>
 4    1  0.5626910E-005  0.5025219E+03  0.7818608E-02  0.1013123E+00
         -2   -1    0    0    0  501 -0.00000000000E+00  0.00000000000E+00  0.19040436115E+02  0.19040436285E+02  0.25500000000E-02 0. -1.
          2   -1    0    0  501    0  0.00000000000E+00 -0.00000000000E+00 -0.33156843481E+04  0.33156843481E+04  0.25500000000E-02 0.  1.
    5000001    1    1    2    0    0 -0.75795609769E+02 -0.10217511423E+03 -0.23146795330E+04  0.23261105023E+04  0.19200000000E+03 0.  0.
   -5000001    1    1    2    0    0  0.75795609769E+02  0.10217511423E+03 -0.98196437894E+03  0.10086142820E+04  0.19200000000E+03 0.  0.
<mgrwt>
<rscale>  0 0.50252194E+03</rscale>
<asrwt>0</asrwt>
<pdfrwt beam="1">  1        2 0.47366882E+00 0.50252194E+03</pdfrwt>
<pdfrwt beam="2">  1       -2 0.27200644E-02 0.50252194E+03</pdfrwt>
<totfact> 0.88544863E+02</totfact>
</mgrwt>
</event>
<event>
 4    1  0.5626910E-005  0.1248871E+04  0.7818608E-02  0.9071123E-01
         -2   -1    0    0    0  501 -0.00000000000E+00  0.00000000000E+00  0.12199980603E+03  0.12199980606E+03  0.25500000000E-02 0. -1.
          2   -1    0    0  501    0  0.00000000000E+00 -0.00000000000E+00 -0.31960702252E+04  0.31960702252E+04  0.25500000000E-02 0.  1.
    5000001    1    1    2    0    0 -0.45191838372E+03  0.36082140145E+03 -0.18997094048E+04  0.19950393811E+04  0.19200000000E+03 0.  0.
   -5000001    1    1    2    0    0  0.45191838372E+03 -0.36082140145E+03 -0.11743610144E+04  0.13230306502E+04  0.19200000000E+03 0.  0.
<mgrwt>
<rscale>  0 0.12488714E+04</rscale>
<asrwt>0</asrwt>
<pdfrwt beam="1">  1        2 0.45658141E+00 0.12488714E+04</pdfrwt>
<pdfrwt beam="2">  1       -2 0.17428546E-01 0.12488714E+04</pdfrwt>
<totfact> 0.49391097E+01</totfact>
</mgrwt>
</event>
<event>
 4    1  0.5626910E-005  0.5391568E+03  0.7818608E-02  0.1004035E+00
          2   -1    0    0  501    0  0.00000000000E+00  0.00000000000E+00  0.79645898111E+03  0.79645898111E+03  0.25500000000E-02 0.  1.
         -2   -1    0    0    0  501 -0.00000000000E+00 -0.00000000000E+00 -0.91244524442E+02  0.91244524478E+02  0.25500000000E-02 0. -1.
    5000001    1    1    2    0    0  0.52293809104E+02 -0.17287687102E+03  0.44556283842E+03  0.51769807609E+03  0.19200000000E+03 0.  0.
   -5000001    1    1    2    0    0 -0.52293809104E+02  0.17287687102E+03  0.25965161825E+03  0.37000542950E+03  0.19200000000E+03 0.  0.
<mgrwt>
<rscale>  0 0.53915683E+03</rscale>
<asrwt>0</asrwt>
<pdfrwt beam="1">  1        2 0.11377986E+00 0.53915683E+03</pdfrwt>
<pdfrwt beam="2">  1       -2 0.13034932E-01 0.53915683E+03</pdfrwt>
<totfact> 0.16966590E+03</totfact>
</mgrwt>
</event>
<event>
 4    1  0.5626910E-005  0.7560890E+03  0.7818608E-02  0.9625846E-01
          2   -1    0    0  501    0  0.00000000000E+00  0.00000000000E+00  0.26000739594E+04  0.26000739594E+04  0.25500000000E-02 0.  1.
         -2   -1    0    0    0  501 -0.00000000000E+00 -0.00000000000E+00 -0.54966767524E+02  0.54966767583E+02  0.25500000000E-02 0. -1.
    5000001    1    1    2    0    0 -0.56013750662E+02  0.15395882156E+03  0.28423736080E+03  0.38012594791E+03  0.19200000000E+03 0.  0.
   -5000001    1    1    2    0    0  0.56013750662E+02 -0.15395882156E+03  0.22608698310E+04  0.22749147791E+04  0.19200000000E+03 0.  0.
<mgrwt>
<rscale>  0 0.75608904E+03</rscale>
<asrwt>0</asrwt>
<pdfrwt beam="1">  1        2 0.37143924E+00 0.75608904E+03</pdfrwt>
<pdfrwt beam="2">  1       -2 0.78523932E-02 0.75608904E+03</pdfrwt>
<totfact> 0.40920399E+02</totfact>
</mgrwt>
</event>
<event>
 4    1  0.5626910E-005  0.5890931E+03  0.7818608E-02  0.9928296E-01
          2   -1    0    0  501    0  0.00000000000E+00  0.00000000000E+00  0.61447687153E+03  0.61447687154E+03  0.25500000000E-02 0.  1.
         -2   -1    0    0    0  501 -0.00000000000E+00 -0.00000000000E+00 -0.14118948545E+03  0.14118948547E+03  0.25500000000E-02 0. -1.
    5000001    1    1    2    0    0 -0.20388412180E+03  0.43519799675E+02  0.33951262353E+03  0.44226183378E+03  0.19200000000E+03 0.  0.
   -5000001    1    1    2    0    0  0.20388412180E+03 -0.43519799675E+02  0.13377476255E+03  0.31340452323E+03  0.19200000000E+03 0.  0.
<mgrwt>
<rscale>  0 0.58909311E+03</rscale>
<asrwt>0</asrwt>
<pdfrwt beam="1">  1        2 0.87782410E-01 0.58909311E+03</pdfrwt>
<pdfrwt beam="2">  1       -2 0.20169926E-01 0.58909311E+03</pdfrwt>
<totfact> 0.11104051E+03</totfact>
</mgrwt>
</event>
<event>
 4    1  0.5626910E-005  0.4574152E+03  0.7818608E-02  0.1025534E+00
          2   -1    0    0  501    0  0.00000000000E+00  0.00000000000E+00  0.10120142885E+04  0.10120142885E+04  0.25500000000E-02 0.  1.
         -2   -1    0    0    0  501 -0.00000000000E+00 -0.00000000000E+00 -0.51686187863E+02  0.51686187926E+02  0.25500000000E-02 0. -1.
    5000001    1    1    2    0    0  0.10617622485E+03 -0.63960373069E+02  0.50081232690E+03  0.55049187716E+03  0.19200000000E+03 0.  0.
   -5000001    1    1    2    0    0 -0.10617622485E+03  0.63960373069E+02  0.45951577373E+03  0.51320859926E+03  0.19200000000E+03 0.  0.
<mgrwt>
<rscale>  0 0.45741518E+03</rscale>
<asrwt>0</asrwt>
<pdfrwt beam="1">  1        2 0.14457348E+00 0.45741518E+03</pdfrwt>
<pdfrwt beam="2">  1       -2 0.73837407E-02 0.45741518E+03</pdfrwt>
<totfact> 0.30852765E+03</totfact>
</mgrwt>
</event>
<event>
 4    1  0.5626910E-005  0.1246946E+04  0.7818608E-02  0.9072729E-01
          2   -1    0    0  501    0  0.00000000000E+00  0.00000000000E+00  0.17635566708E+04  0.17635566708E+04  0.25500000000E-02 0.  1.
         -2   -1    0    0    0  501 -0.00000000000E+00 -0.00000000000E+00 -0.22041749150E+03  0.22041749151E+03  0.25500000000E-02 0. -1.
    5000001    1    1    2    0    0 -0.56475261102E+03  0.13079386433E+03  0.57156179065E+03  0.83642060420E+03  0.19200000000E+03 0.  0.
   -5000001    1    1    2    0    0  0.56475261102E+03 -0.13079386433E+03  0.97157738863E+03  0.11475535581E+04  0.19200000000E+03 0.  0.
<mgrwt>
<rscale>  0 0.12469462E+04</rscale>
<asrwt>0</asrwt>
<pdfrwt beam="1">  1        2 0.25193666E+00 0.12469462E+04</pdfrwt>
<pdfrwt beam="2">  1       -2 0.31488213E-01 0.12469462E+04</pdfrwt>
<totfact> 0.97893447E+01</totfact>
</mgrwt>
</event>
<event>
 4    1  0.5626910E-005  0.7626595E+03  0.7818608E-02  0.9615696E-01
          2   -1    0    0  501    0  0.00000000000E+00  0.00000000000E+00  0.31945730473E+04  0.31945730473E+04  0.25500000000E-02 0.  1.
         -2   -1    0    0    0  501 -0.00000000000E+00 -0.00000000000E+00 -0.45518564013E+02  0.45518564085E+02  0.25500000000E-02 0. -1.
    5000001    1    1    2    0    0  0.27939954273E+03 -0.79894151946E+02  0.22340745011E+04  0.22610617100E+04  0.19200000000E+03 0.  0.
   -5000001    1    1    2    0    0 -0.27939954273E+03  0.79894151946E+02  0.91497998218E+03  0.97902990137E+03  0.19200000000E+03 0.  0.
<mgrwt>
<rscale>  0 0.76265950E+03</rscale>
<asrwt>0</asrwt>
<pdfrwt beam="1">  1        2 0.45636769E+00 0.76265950E+03</pdfrwt>
<pdfrwt beam="2">  1       -2 0.65026504E-02 0.76265950E+03</pdfrwt>
<totfact> 0.26317578E+02</totfact>
</mgrwt>
</event>
<event>
 4    1  0.5626910E-005  0.5918868E+03  0.7818608E-02  0.9922383E-01
         -2   -1    0    0    0  501 -0.00000000000E+00  0.00000000000E+00  0.29622881572E+03  0.29622881573E+03  0.25500000000E-02 0. -1.
          2   -1    0    0  501    0  0.00000000000E+00 -0.00000000000E+00 -0.29565827392E+03  0.29565827393E+03  0.25500000000E-02 0.  1.
    5000001    1    1    2    0    0  0.55386211182E+02 -0.21079194535E+03 -0.56438857327E+02  0.29588886635E+03  0.19200000000E+03 0.  0.
   -5000001    1    1    2    0    0 -0.55386211182E+02  0.21079194535E+03  0.57009399130E+02  0.29599822331E+03  0.19200000000E+03 0.  0.
<mgrwt>
<rscale>  0 0.59188681E+03</rscale>
<asrwt>0</asrwt>
<pdfrwt beam="1">  1        2 0.42236896E-01 0.59188681E+03</pdfrwt>
<pdfrwt beam="2">  1       -2 0.42318403E-01 0.59188681E+03</pdfrwt>
<totfact> 0.64552579E+02</totfact>
</mgrwt>
</event>
<event>
 4    1  0.5626910E-005  0.6255890E+03  0.7818608E-02  0.9853695E-01
         -2   -1    0    0    0  501 -0.00000000000E+00  0.00000000000E+00  0.34722297778E+03  0.34722297779E+03  0.25500000000E-02 0. -1.
          2   -1    0    0  501    0  0.00000000000E+00 -0.00000000000E+00 -0.28177969483E+03  0.28177969484E+03  0.25500000000E-02 0.  1.
    5000001    1    1    2    0    0  0.12990028106E+03  0.20984994778E+03  0.24596634476E+02  0.31365598676E+03  0.19200000000E+03 0.  0.
   -5000001    1    1    2    0    0 -0.12990028106E+03 -0.20984994778E+03  0.40846648469E+02  0.31534668587E+03  0.19200000000E+03 0.  0.
<mgrwt>
<rscale>  0 0.62558895E+03</rscale>
<asrwt>0</asrwt>
<pdfrwt beam="1">  1        2 0.40254242E-01 0.62558895E+03</pdfrwt>
<pdfrwt beam="2">  1       -2 0.49603282E-01 0.62558895E+03</pdfrwt>
<totfact> 0.49579728E+02</totfact>
</mgrwt>
</event>
<event>
 4    1  0.5626910E-005  0.7383042E+03  0.7818608E-02  0.9653880E-01
         -2   -1    0    0    0  501 -0.00000000000E+00  0.00000000000E+00  0.54592833751E+02  0.54592833811E+02  0.25500000000E-02 0. -1.
          2   -1    0    0  501    0  0.00000000000E+00 -0.00000000000E+00 -0.24961750692E+04  0.24961750692E+04  0.25500000000E-02 0.  1.
    5000001    1    1    2    0    0 -0.57711281053E+02  0.25009000802E+03 -0.58812273834E+03  0.66979695388E+03  0.19200000000E+03 0.  0.
   -5000001    1    1    2    0    0  0.57711281053E+02 -0.25009000802E+03 -0.18534594971E+04  0.18809709492E+04  0.19200000000E+03 0.  0.
<mgrwt>
<rscale>  0 0.73830419E+03</rscale>
<asrwt>0</asrwt>
<pdfrwt beam="1">  1        2 0.35659637E+00 0.73830419E+03</pdfrwt>
<pdfrwt beam="2">  1       -2 0.77989778E-02 0.73830419E+03</pdfrwt>
<totfact> 0.46903405E+02</totfact>
</mgrwt>
</event>
<event>
 4    1  0.5626910E-005  0.8958571E+03  0.7818608E-02  0.9430775E-01
         -2   -1    0    0    0  501 -0.00000000000E+00  0.00000000000E+00  0.59190913658E+02  0.59190913713E+02  0.25500000000E-02 0. -1.
          2   -1    0    0  501    0  0.00000000000E+00 -0.00000000000E+00 -0.33897095334E+04  0.33897095334E+04  0.25500000000E-02 0.  1.
    5000001    1    1    2    0    0 -0.67693940399E+02 -0.33651871108E+03 -0.24904958980E+04  0.25213609679E+04  0.19200000000E+03 0.  0.
   -5000001    1    1    2    0    0  0.67693940399E+02  0.33651871108E+03 -0.84002272177E+03  0.92753947925E+03  0.19200000000E+03 0.  0.
<mgrwt>
<rscale>  0 0.89585714E+03</rscale>
<asrwt>0</asrwt>
<pdfrwt beam="1">  1        2 0.48424410E+00 0.89585714E+03</pdfrwt>
<pdfrwt beam="2">  1       -2 0.84558470E-02 0.89585714E+03</pdfrwt>
<totfact> 0.13176016E+02</totfact>
</mgrwt>
</event>
<event>
 4    1  0.5626910E-005  0.4428067E+03  0.7818608E-02  0.1029889E+00
          2   -1    0    0  501    0  0.00000000000E+00  0.00000000000E+00  0.12703644087E+03  0.12703644090E+03  0.25500000000E-02 0.  1.
         -2   -1    0    0    0  501 -0.00000000000E+00 -0.00000000000E+00 -0.38586920960E+03  0.38586920961E+03  0.25500000000E-02 0. -1.
    5000001    1    1    2    0    0  0.68364456162E+02 -0.66495824850E+02 -0.65341466794E+02  0.22411805120E+03  0.19200000000E+03 0.  0.
   -5000001    1    1    2    0    0 -0.68364456162E+02  0.66495824850E+02 -0.19349130194E+03  0.28878759931E+03  0.19200000000E+03 0.  0.
<mgrwt>
<rscale>  0 0.44280673E+03</rscale>
<asrwt>0</asrwt>
<pdfrwt beam="1">  1        2 0.18148063E-01 0.44280673E+03</pdfrwt>
<pdfrwt beam="2">  1       -2 0.55124172E-01 0.44280673E+03</pdfrwt>
<totfact> 0.98786738E+02</totfact>
</mgrwt>
</event>
<event>
 4    1  0.5626910E-005  0.5939924E+03  0.7818608E-02  0.9917949E-01
          2   -1    0    0  501    0  0.00000000000E+00  0.00000000000E+00  0.16922535747E+04  0.16922535747E+04  0.25500000000E-02 0.  1.
         -2   -1    0    0    0  501 -0.00000000000E+00 -0.00000000000E+00 -0.52123836495E+02  0.52123836557E+02  0.25500000000E-02 0. -1.
    5000001    1    1    2    0    0  0.19065382442E+03 -0.11284552338E+03  0.95966643967E+03  0.10034473919E+04  0.19200000000E+03 0.  0.
   -5000001    1    1    2    0    0 -0.19065382442E+03  0.11284552338E+03  0.68046329854E+03  0.74093001935E+03  0.19200000000E+03 0.  0.
<mgrwt>
<rscale>  0 0.59399242E+03</rscale>
<asrwt>0</asrwt>
<pdfrwt beam="1">  1        2 0.24175054E+00 0.59399242E+03</pdfrwt>
<pdfrwt beam="2">  1       -2 0.74462615E-02 0.59399242E+03</pdfrwt>
<totfact> 0.13020327E+03</totfact>
</mgrwt>
</event>
<event>
 4    1  0.5626910E-005  0.4561341E+03  0.7818608E-02  0.1025908E+00
          2   -1    0    0  501    0  0.00000000000E+00  0.00000000000E+00  0.26035898076E+04  0.26035898076E+04  0.25500000000E-02 0.  1.
         -2   -1    0    0    0  501 -0.00000000000E+00 -0.00000000000E+00 -0.19978020314E+02  0.19978020476E+02  0.25500000000E-02 0. -1.
    5000001    1    1    2    0    0  0.23909339433E+02 -0.11552370848E+03  0.14937885980E+04  0.15106904909E+04  0.19200000000E+03 0.  0.
   -5000001    1    1    2    0    0 -0.23909339433E+02  0.11552370848E+03  0.10898231893E+04  0.11128773372E+04  0.19200000000E+03 0.  0.
<mgrwt>
<rscale>  0 0.45613406E+03</rscale>
<asrwt>0</asrwt>
<pdfrwt beam="1">  1        2 0.37194181E+00 0.45613406E+03</pdfrwt>
<pdfrwt beam="2">  1       -2 0.28539998E-02 0.45613406E+03</pdfrwt>
<totfact> 0.19998836E+03</totfact>
</mgrwt>
</event>
<event>
 4    1  0.5626910E-005  0.5254205E+03  0.7818608E-02  0.1007349E+00
          2   -1    0    0  501    0  0.00000000000E+00  0.00000000000E+00  0.32552241889E+03  0.32552241890E+03  0.25500000000E-02 0.  1.
         -2   -1    0    0    0  501 -0.00000000000E+00 -0.00000000000E+00 -0.21201822197E+03  0.21201822199E+03  0.25500000000E-02 0. -1.
    5000001    1    1    2    0    0  0.26749472686E+02 -0.11298846322E+03 -0.83040838929E+02  0.23925239401E+03  0.19200000000E+03 0.  0.
   -5000001    1    1    2    0    0 -0.26749472686E+02  0.11298846322E+03  0.19654503585E+03  0.29828824688E+03  0.19200000000E+03 0.  0.
<mgrwt>
<rscale>  0 0.52542053E+03</rscale>
<asrwt>0</asrwt>
<pdfrwt beam="1">  1        2 0.46503202E-01 0.52542053E+03</pdfrwt>
<pdfrwt beam="2">  1       -2 0.30288318E-01 0.52542053E+03</pdfrwt>
<totfact> 0.10970797E+03</totfact>
</mgrwt>
</event>
<event>
 4    1  0.5626910E-005  0.3964668E+03  0.7818608E-02  0.1045010E+00
         -2   -1    0    0    0  501 -0.00000000000E+00  0.00000000000E+00  0.24433843798E+02  0.24433843931E+02  0.25500000000E-02 0.  1.
          2   -1    0    0  501    0  0.00000000000E+00 -0.00000000000E+00 -0.16082806554E+04  0.16082806554E+04  0.25500000000E-02 0. -1.
    5000001    1    1    2    0    0  0.18395904525E+02 -0.41646349710E+02 -0.71382469212E+03  0.74059605645E+03  0.19200000000E+03 0.  0.
   -5000001    1    1    2    0    0 -0.18395904525E+02  0.41646349710E+02 -0.87002211950E+03  0.89211844291E+03  0.19200000000E+03 0.  0.
<mgrwt>
<rscale>  0 0.39646679E+03</rscale>
<asrwt>0</asrwt>
<pdfrwt beam="1">  1        2 0.22975431E+00 0.39646679E+03</pdfrwt>
<pdfrwt beam="2">  1       -2 0.34905501E-02 0.39646679E+03</pdfrwt>
<totfact> 0.46564091E+03</totfact>
</mgrwt>
</event>
<event>
 4    1  0.5626910E-005  0.8013741E+03  0.7818608E-02  0.9558030E-01
         -2   -1    0    0    0  501 -0.00000000000E+00  0.00000000000E+00  0.11862816729E+04  0.11862816729E+04  0.25500000000E-02 0. -1.
          2   -1    0    0  501    0  0.00000000000E+00 -0.00000000000E+00 -0.13533895589E+03  0.13533895591E+03  0.25500000000E-02 0.  1.
    5000001    1    1    2    0    0 -0.28542715301E+03 -0.20451457447E+03  0.49285016286E+03  0.63487018663E+03  0.19200000000E+03 0.  0.
   -5000001    1    1    2    0    0  0.28542715301E+03  0.20451457447E+03  0.55809255417E+03  0.68675044221E+03  0.19200000000E+03 0.  0.
<mgrwt>
<rscale>  0 0.80137413E+03</rscale>
<asrwt>0</asrwt>
<pdfrwt beam="1">  1        2 0.19334138E-01 0.80137413E+03</pdfrwt>
<pdfrwt beam="2">  1       -2 0.16946880E+00 0.80137413E+03</pdfrwt>
<totfact> 0.64246043E+01</totfact>
</mgrwt>
</event>
<event>
 4    1  0.5626910E-005  0.5412493E+03  0.7818608E-02  0.1003540E+00
          2   -1    0    0  501    0  0.00000000000E+00  0.00000000000E+00  0.32329621373E+04  0.32329621373E+04  0.25500000000E-02 0.  1.
         -2   -1    0    0    0  501 -0.00000000000E+00 -0.00000000000E+00 -0.22653438121E+02  0.22653438264E+02  0.25500000000E-02 0. -1.
    5000001    1    1    2    0    0  0.76655175770E+02 -0.12244728358E+03  0.85618749599E+03  0.88926395492E+03  0.19200000000E+03 0.  0.
   -5000001    1    1    2    0    0 -0.76655175770E+02  0.12244728358E+03  0.23541212032E+04  0.23663516206E+04  0.19200000000E+03 0.  0.
<mgrwt>
<rscale>  0 0.54124933E+03</rscale>
<asrwt>0</asrwt>
<pdfrwt beam="1">  1        2 0.46185134E+00 0.54124933E+03</pdfrwt>
<pdfrwt beam="2">  1       -2 0.32362082E-02 0.54124933E+03</pdfrwt>
<totfact> 0.75498515E+02</totfact>
</mgrwt>
</event>
<event>
 4    1  0.5626910E-005  0.7240366E+03  0.7818608E-02  0.9676987E-01
          2   -1    0    0  501    0  0.00000000000E+00  0.00000000000E+00  0.68500976867E+03  0.68500976868E+03  0.25500000000E-02 0.  1.
         -2   -1    0    0    0  501 -0.00000000000E+00 -0.00000000000E+00 -0.19132173335E+03  0.19132173336E+03  0.25500000000E-02 0. -1.
    5000001    1    1    2    0    0  0.21786048423E+03  0.13904104838E+03  0.44718258766E+03  0.55102801238E+03  0.19200000000E+03 0.  0.
   -5000001    1    1    2    0    0 -0.21786048423E+03 -0.13904104838E+03  0.46505447668E+02  0.32530348966E+03  0.19200000000E+03 0.  0.
<mgrwt>
<rscale>  0 0.72403662E+03</rscale>
<asrwt>0</asrwt>
<pdfrwt beam="1">  1        2 0.97858539E-01 0.72403662E+03</pdfrwt>
<pdfrwt beam="2">  1       -2 0.27331676E-01 0.72403662E+03</pdfrwt>
<totfact> 0.56522135E+02</totfact>
</mgrwt>
</event>
<event>
 4    1  0.5626910E-005  0.6268012E+03  0.7818608E-02  0.9851311E-01
          2   -1    0    0  501    0  0.00000000000E+00  0.00000000000E+00  0.11778076728E+04  0.11778076728E+04  0.25500000000E-02 0.  1.
         -2   -1    0    0    0  501 -0.00000000000E+00 -0.00000000000E+00 -0.83392178201E+02  0.83392178240E+02  0.25500000000E-02 0. -1.
    5000001    1    1    2    0    0  0.14059612882E+03  0.98475581526E+02  0.18788083900E+03  0.31879134439E+03  0.19200000000E+03 0.  0.
   -5000001    1    1    2    0    0 -0.14059612882E+03 -0.98475581526E+02  0.90653465556E+03  0.94240850660E+03  0.19200000000E+03 0.  0.
<mgrwt>
<rscale>  0 0.62680124E+03</rscale>
<asrwt>0</asrwt>
<pdfrwt beam="1">  1        2 0.16825825E+00 0.62680124E+03</pdfrwt>
<pdfrwt beam="2">  1       -2 0.11913167E-01 0.62680124E+03</pdfrwt>
<totfact> 0.11419745E+03</totfact>
</mgrwt>
</event>
<event>
 4    1  0.5626910E-005  0.7821387E+03  0.7818608E-02  0.9586237E-01
          2   -1    0    0  501    0  0.00000000000E+00  0.00000000000E+00  0.11104608687E+04  0.11104608687E+04  0.25500000000E-02 0.  1.
         -2   -1    0    0    0  501 -0.00000000000E+00 -0.00000000000E+00 -0.13772230535E+03  0.13772230537E+03  0.25500000000E-02 0. -1.
    5000001    1    1    2    0    0  0.33667351267E+03 -0.31137197612E+02  0.55317941829E+03  0.67615830101E+03  0.19200000000E+03 0.  0.
   -5000001    1    1    2    0    0 -0.33667351267E+03  0.31137197612E+02  0.41955914510E+03  0.57202487310E+03  0.19200000000E+03 0.  0.
<mgrwt>
<rscale>  0 0.78213869E+03</rscale>
<asrwt>0</asrwt>
<pdfrwt beam="1">  1        2 0.15863727E+00 0.78213869E+03</pdfrwt>
<pdfrwt beam="2">  1       -2 0.19674615E-01 0.78213869E+03</pdfrwt>
<totfact> 0.53085030E+02</totfact>
</mgrwt>
</event>
<event>
 4    1  0.5626910E-005  0.6308243E+03  0.7818608E-02  0.9843442E-01
         -2   -1    0    0    0  501 -0.00000000000E+00  0.00000000000E+00  0.32298911153E+02  0.32298911253E+02  0.25500000000E-02 0. -1.
          2   -1    0    0  501    0  0.00000000000E+00 -0.00000000000E+00 -0.30801289336E+04  0.30801289336E+04  0.25500000000E-02 0.  1.
    5000001    1    1    2    0    0  0.75048261882E+02  0.23551296949E+03 -0.13314161054E+04  0.13677102932E+04  0.19200000000E+03 0.  0.
   -5000001    1    1    2    0    0 -0.75048261882E+02 -0.23551296949E+03 -0.17164139170E+04  0.17447175516E+04  0.19200000000E+03 0.  0.
<mgrwt>
<rscale>  0 0.63082426E+03</rscale>
<asrwt>0</asrwt>
<pdfrwt beam="1">  1        2 0.44001823E+00 0.63082426E+03</pdfrwt>
<pdfrwt beam="2">  1       -2 0.46141321E-02 0.63082426E+03</pdfrwt>
<totfact> 0.52827834E+02</totfact>
</mgrwt>
</event>
<event>
 4    1  0.5626910E-005  0.5927270E+03  0.7818608E-02  0.9920611E-01
         -2   -1    0    0    0  501 -0.00000000000E+00  0.00000000000E+00  0.15662232426E+03  0.15662232428E+03  0.25500000000E-02 0. -1.
          2   -1    0    0  501    0  0.00000000000E+00 -0.00000000000E+00 -0.56078426254E+03  0.56078426255E+03  0.25500000000E-02 0.  1.
    5000001    1    1    2    0    0  0.19315297356E+03  0.71132225458E+02 -0.89841277699E+02  0.29547135203E+03  0.19200000000E+03 0.  0.
   -5000001    1    1    2    0    0 -0.19315297356E+03 -0.71132225458E+02 -0.31432066058E+03  0.42193523479E+03  0.19200000000E+03 0.  0.
<mgrwt>
<rscale>  0 0.59272704E+03</rscale>
<asrwt>0</asrwt>
<pdfrwt beam="1">  1        2 0.80112036E-01 0.59272704E+03</pdfrwt>
<pdfrwt beam="2">  1       -2 0.22374618E-01 0.59272704E+03</pdfrwt>
<totfact> 0.10301263E+03</totfact>
</mgrwt>
</event>
<event>
 4    1  0.5626910E-005  0.4447849E+03  0.7818608E-02  0.1029289E+00
          2   -1    0    0  501    0  0.00000000000E+00  0.00000000000E+00  0.24599210013E+04  0.24599210013E+04  0.25500000000E-02 0.  1.
         -2   -1    0    0    0  501 -0.00000000000E+00 -0.00000000000E+00 -0.20105687155E+02  0.20105687316E+02  0.25500000000E-02 0. -1.
    5000001    1    1    2    0    0 -0.10492705678E+03 -0.39767687386E+02  0.12299534791E+04  0.12498962825E+04  0.19200000000E+03 0.  0.
   -5000001    1    1    2    0    0  0.10492705678E+03  0.39767687386E+02  0.12098618350E+04  0.12301304061E+04  0.19200000000E+03 0.  0.
<mgrwt>
<rscale>  0 0.44478490E+03</rscale>
<asrwt>0</asrwt>
<pdfrwt beam="1">  1        2 0.35141674E+00 0.44478490E+03</pdfrwt>
<pdfrwt beam="2">  1       -2 0.28722455E-02 0.44478490E+03</pdfrwt>
<totfact> 0.23461739E+03</totfact>
</mgrwt>
</event>
