<event>
 8    1  0.1378634E-029  0.1467266E+04  0.7818608E-02  0.8906518E-01
          4   -1    0    0  501    0  0.00000000000E+00  0.00000000000E+00  0.10593768373E+04  0.10593775985E+04  0.12700000000E+01 0.  1.
         -4   -1    0    0    0  501 -0.00000000000E+00 -0.00000000000E+00 -0.50804884953E+03  0.50805043688E+03  0.12700000000E+01 0. -1.
     200001    2    1    2    0    0  0.99720671245E+01  0.21191713358E+03  0.33517896057E+03  0.80471661187E+03  0.70015396605E+03 0.  0.
    5000001    2    3    3    0    0  0.48132924629E+02  0.49006826165E+02  0.32772690679E+02  0.19689626721E+03  0.18159196938E+03 0.  0.
        -13    1    4    4    0    0  0.46567793421E+02  0.10130437844E+03  0.64438901238E+02  0.12877701515E+03  0.10566000000E+00 0. -1.
     200003    1    4    4    0    0  0.15651312077E+01 -0.52297552272E+02 -0.31666210560E+02  0.68119252055E+02  0.30000000000E+02 0. -1.
     200000    1    3    3    0    0 -0.38160857504E+02  0.16291030742E+03  0.30240626990E+03  0.60782034466E+03  0.50000000000E+03 0.  1.
    -200001    1    1    2    0    0 -0.99720671245E+01 -0.21191713358E+03  0.21614902716E+03  0.76271142352E+03  0.70000000000E+03 0. -1.
<mgrwt>
<rscale>  0 0.14672655E+04</rscale>
<asrwt>0</asrwt>
<pdfrwt beam="1">  1        4 0.15133972E+00 0.14672655E+04</pdfrwt>
<pdfrwt beam="2">  1       -4 0.72578575E-01 0.14672655E+04</pdfrwt>
<totfact> 0.97855916E-01</totfact>
</mgrwt>
</event>
<event>
 8    1  0.1378634E-029  0.1432314E+04  0.7818608E-02  0.8930754E-01
          4   -1    0    0  501    0  0.00000000000E+00  0.00000000000E+00  0.47929520568E+03  0.47929688825E+03  0.12700000000E+01 0.  1.
         -4   -1    0    0    0  501 -0.00000000000E+00 -0.00000000000E+00 -0.10700697728E+04  0.10700705264E+04  0.12700000000E+01 0. -1.
     200001    2    1    2    0    0  0.93272354873E+02  0.11504558273E+03 -0.32873295573E+03  0.78739561442E+03  0.69999377078E+03 0.  0.
    5000001    2    3    3    0    0  0.81844383586E+02  0.62568715115E+02 -0.18476173453E+03  0.26431614369E+03  0.15847011716E+03 0.  0.
        -13    1    4    4    0    0 -0.18161357775E+02  0.64697715048E+02 -0.13013626606E+03  0.14646190002E+03  0.10566000000E+00 0. -1.
     200003    1    4    4    0    0  0.10000574136E+03 -0.21289999324E+01 -0.54625468474E+02  0.11785424367E+03  0.30000000000E+02 0. -1.
     200000    1    3    3    0    0  0.11427971287E+02  0.52476867619E+02 -0.14397122119E+03  0.52307947073E+03  0.50000000000E+03 0.  1.
    -200001    1    1    2    0    0 -0.93272354873E+02 -0.11504558273E+03 -0.26204161138E+03  0.76197180026E+03  0.70000000000E+03 0. -1.
<mgrwt>
<rscale>  0 0.14323145E+04</rscale>
<asrwt>0</asrwt>
<pdfrwt beam="1">  1        4 0.68470918E-01 0.14323145E+04</pdfrwt>
<pdfrwt beam="2">  1       -4 0.15286728E+00 0.14323145E+04</pdfrwt>
<totfact> 0.10863212E+00</totfact>
</mgrwt>
</event>
<event>
 8    1  0.1378634E-029  0.1826574E+04  0.7818608E-02  0.8692294E-01
          4   -1    0    0  501    0  0.00000000000E+00  0.00000000000E+00  0.14476775923E+04  0.14476781494E+04  0.12700000000E+01 0.  1.
         -4   -1    0    0    0  501 -0.00000000000E+00 -0.00000000000E+00 -0.57615840626E+03  0.57615980596E+03  0.12700000000E+01 0. -1.
     200001    2    1    2    0    0  0.45775569349E+03 -0.35578965930E+03  0.50121021650E+03  0.10423822561E+04  0.70655681312E+03 0.  0.
    5000001    2    3    3    0    0  0.18645756034E+03 -0.90484237922E+02  0.80378400050E+02  0.28667790824E+03  0.18102407785E+03 0.  0.
        -13    1    4    4    0    0  0.57371422053E+02  0.54232055834E+02  0.23633238065E+02  0.82408355486E+02  0.10566000000E+00 0. -1.
     200003    1    4    4    0    0  0.12908613828E+03 -0.14471629376E+03  0.56745161985E+02  0.20426955276E+03  0.30000000000E+02 0. -1.
     200000    1    3    3    0    0  0.27129813315E+03 -0.26530542138E+03  0.42083181645E+03  0.75570434788E+03  0.50000000000E+03 0. -1.
    -200001    1    1    2    0    0 -0.45775569349E+03  0.35578965930E+03  0.37030896956E+03  0.98145569922E+03  0.70000000000E+03 0.  1.
<mgrwt>
<rscale>  0 0.18265745E+04</rscale>
<asrwt>0</asrwt>
<pdfrwt beam="1">  1        4 0.20681122E+00 0.18265745E+04</pdfrwt>
<pdfrwt beam="2">  1       -4 0.82308484E-01 0.18265745E+04</pdfrwt>
<totfact> 0.29302672E-01</totfact>
</mgrwt>
</event>
<event>
 8    1  0.1378634E-029  0.1469381E+04  0.7818608E-02  0.8905073E-01
          4   -1    0    0  501    0  0.00000000000E+00  0.00000000000E+00  0.12903189269E+04  0.12903195519E+04  0.12700000000E+01 0.  1.
         -4   -1    0    0    0  501 -0.00000000000E+00 -0.00000000000E+00 -0.41832130222E+03  0.41832323004E+03  0.12700000000E+01 0. -1.
     200001    2    1    2    0    0 -0.18181296834E+03 -0.60312980639E+02  0.57067118177E+03  0.92283667588E+03  0.69947717729E+03 0.  0.
    5000001    2    3    3    0    0  0.79309508615E+02  0.34292640252E+02  0.78522880017E+01  0.12040270435E+03  0.83481551594E+02 0.  0.
        -13    1    4    4    0    0  0.34094186785E+02 -0.20804606895E+02 -0.97060777060E+01  0.41103094154E+02  0.10566000000E+00 0. -1.
     200003    1    4    4    0    0  0.45215321830E+02  0.55097247147E+02  0.17558365708E+02  0.79299610199E+02  0.30000000000E+02 0. -1.
     200000    1    3    3    0    0 -0.26112247695E+03 -0.94605620890E+02  0.56281889377E+03  0.80243397153E+03  0.50000000000E+03 0.  1.
    -200001    1    1    2    0    0  0.18181296834E+03  0.60312980639E+02  0.30132644287E+03  0.78580610602E+03  0.70000000000E+03 0. -1.
<mgrwt>
<rscale>  0 0.14693809E+04</rscale>
<asrwt>0</asrwt>
<pdfrwt beam="1">  1        4 0.18433146E+00 0.14693809E+04</pdfrwt>
<pdfrwt beam="2">  1       -4 0.59760369E-01 0.14693809E+04</pdfrwt>
<totfact> 0.86384043E-01</totfact>
</mgrwt>
</event>
<event>
 8    1  0.1378634E-029  0.1478706E+04  0.7818608E-02  0.8898738E-01
         -4   -1    0    0    0  501 -0.00000000000E+00  0.00000000000E+00  0.60189514551E+03  0.60189648536E+03  0.12700000000E+01 0. -1.
          4   -1    0    0  501    0  0.00000000000E+00 -0.00000000000E+00 -0.90819952409E+03  0.90820041205E+03  0.12700000000E+01 0.  1.
     200001    2    1    2    0    0 -0.90509350233E+00 -0.22377877548E+03 -0.24973318494E+03  0.77302291232E+03  0.69650556333E+03 0.  0.
    5000001    2    3    3    0    0  0.83554759729E+01 -0.34532766822E+02 -0.53647302304E+02  0.20350602643E+03  0.19306564631E+03 0.  0.
        -13    1    4    4    0    0 -0.69350288602E+02 -0.18432934808E+02 -0.86623525869E+02  0.11248503017E+03  0.10566000000E+00 0. -1.
     200003    1    4    4    0    0  0.77705764575E+02 -0.16099832014E+02  0.32976223565E+02  0.91020996258E+02  0.30000000000E+02 0. -1.
     200000    1    3    3    0    0 -0.92605694752E+01 -0.18924600866E+03 -0.19608588263E+03  0.56951688589E+03  0.50000000000E+03 0. -1.
    -200001    1    1    2    0    0  0.90509350233E+00  0.22377877548E+03 -0.56571193643E+02  0.73707398509E+03  0.70000000000E+03 0. -1.
<mgrwt>
<rscale>  0 0.14787056E+04</rscale>
<asrwt>0</asrwt>
<pdfrwt beam="1">  1        4 0.12974295E+00 0.14787056E+04</pdfrwt>
<pdfrwt beam="2">  1       -4 0.85985181E-01 0.14787056E+04</pdfrwt>
<totfact> 0.99530912E-01</totfact>
</mgrwt>
</event>
<event>
 8    1  0.1378634E-029  0.2428741E+04  0.7818608E-02  0.8428821E-01
          4   -1    0    0  501    0  0.00000000000E+00  0.00000000000E+00  0.11799016958E+04  0.11799023793E+04  0.12700000000E+01 0.  1.
         -4   -1    0    0    0  501 -0.00000000000E+00 -0.00000000000E+00 -0.12498447844E+04  0.12498454296E+04  0.12700000000E+01 0. -1.
     200001    2    1    2    0    0  0.17111288847E+03  0.95327054000E+03 -0.25059817208E+03  0.12211781575E+04  0.70033727980E+03 0.  0.
    5000001    2    3    3    0    0 -0.66445787966E+02  0.23331831583E+03 -0.57314377121E+02  0.29267185422E+03  0.15336035077E+03 0.  0.
        -13    1    4    4    0    0 -0.75960952987E+02  0.31161188344E+02 -0.10306162236E+02  0.82748499574E+02  0.10566000000E+00 0. -1.
     200003    1    4    4    0    0  0.95151650214E+01  0.20215712749E+03 -0.47008214885E+02  0.20992335464E+03  0.30000000000E+02 0.  1.
     200000    1    3    3    0    0  0.23755867644E+03  0.71995222417E+03 -0.19328379496E+03  0.92850630328E+03  0.50000000000E+03 0. -1.
    -200001    1    1    2    0    0 -0.17111288847E+03 -0.95327054000E+03  0.18065508354E+03  0.12085696514E+04  0.70000000000E+03 0.  1.
<mgrwt>
<rscale>  0 0.24287409E+04</rscale>
<asrwt>0</asrwt>
<pdfrwt beam="1">  1        4 0.16855748E+00 0.24287409E+04</pdfrwt>
<pdfrwt beam="2">  1       -4 0.17854935E+00 0.24287409E+04</pdfrwt>
<totfact> 0.72088961E-02</totfact>
</mgrwt>
</event>
<event>
 8    1  0.1378634E-029  0.2074907E+04  0.7818608E-02  0.8572378E-01
          4   -1    0    0  501    0  0.00000000000E+00  0.00000000000E+00  0.85071547194E+03  0.85071641991E+03  0.12700000000E+01 0.  1.
         -4   -1    0    0    0  501 -0.00000000000E+00 -0.00000000000E+00 -0.12651802045E+04  0.12651808420E+04  0.12700000000E+01 0. -1.
     200001    2    1    2    0    0  0.71489977029E+03 -0.26934268914E+03 -0.26801483011E+03  0.10694390737E+04  0.69874231112E+03 0.  0.
    5000001    2    3    3    0    0  0.17001347186E+03 -0.96327646157E+02 -0.10474812701E+03  0.29259204903E+03  0.19093019934E+03 0.  0.
        -13    1    4    4    0    0 -0.39635524116E+02 -0.31137599763E+02 -0.90044931930E+01  0.51201728024E+02  0.10566000000E+00 0. -1.
     200003    1    4    4    0    0  0.20964899597E+03 -0.65190046395E+02 -0.95743633814E+02  0.24139032101E+03  0.30000000000E+02 0. -1.
     200000    1    3    3    0    0  0.54488629843E+03 -0.17301504298E+03 -0.16326670311E+03  0.77684702462E+03  0.50000000000E+03 0. -1.
    -200001    1    1    2    0    0 -0.71489977029E+03  0.26934268914E+03 -0.14644990249E+03  0.10464581882E+04  0.70000000000E+03 0.  1.
<mgrwt>
<rscale>  0 0.20749073E+04</rscale>
<asrwt>0</asrwt>
<pdfrwt beam="1">  1        4 0.12153089E+00 0.20749073E+04</pdfrwt>
<pdfrwt beam="2">  1       -4 0.18074014E+00 0.20749073E+04</pdfrwt>
<totfact> 0.16969134E-01</totfact>
</mgrwt>
</event>
<event>
 8    1  0.1378634E-029  0.1519804E+04  0.7818608E-02  0.8871389E-01
          4   -1    0    0  501    0  0.00000000000E+00  0.00000000000E+00  0.63327289180E+03  0.63327416526E+03  0.12700000000E+01 0.  1.
         -4   -1    0    0    0  501 -0.00000000000E+00 -0.00000000000E+00 -0.91184889737E+03  0.91184978178E+03  0.12700000000E+01 0. -1.
     200001    2    1    2    0    0  0.25150253363E+03  0.14629774225E+03 -0.19121510473E+03  0.78204565434E+03  0.70026825958E+03 0.  0.
    5000001    2    3    3    0    0  0.69061305332E+01  0.97636011499E+02  0.38323013183E+02  0.17799010058E+03  0.14363612772E+03 0.  0.
        -13    1    4    4    0    0 -0.47433946577E+01  0.93440933849E+01  0.76018414515E+02  0.76737359764E+02  0.10566000000E+00 0. -1.
     200003    1    4    4    0    0  0.11649525191E+02  0.88291918114E+02 -0.37695401332E+02  0.10125274082E+03  0.30000000000E+02 0. -1.
     200000    1    3    3    0    0  0.24459640310E+03  0.48661730752E+02 -0.22953811792E+03  0.60405555376E+03  0.50000000000E+03 0. -1.
    -200001    1    1    2    0    0 -0.25150253363E+03 -0.14629774225E+03 -0.87360900837E+02  0.76307829271E+03  0.70000000000E+03 0.  1.
<mgrwt>
<rscale>  0 0.15198037E+04</rscale>
<asrwt>0</asrwt>
<pdfrwt beam="1">  1        4 0.90467710E-01 0.15198037E+04</pdfrwt>
<pdfrwt beam="2">  1       -4 0.13026428E+00 0.15198037E+04</pdfrwt>
<totfact> 0.87342502E-01</totfact>
</mgrwt>
</event>
<event>
 8    1  0.1378634E-029  0.1932385E+04  0.7818608E-02  0.8638902E-01
         -4   -1    0    0    0  501 -0.00000000000E+00  0.00000000000E+00  0.67494877551E+03  0.67494997034E+03  0.12700000000E+01 0. -1.
          4   -1    0    0  501    0  0.00000000000E+00 -0.00000000000E+00 -0.13831063909E+04  0.13831069740E+04  0.12700000000E+01 0.  1.
     200001    2    1    2    0    0 -0.21859173993E+03 -0.38015717194E+03 -0.88828353526E+03  0.12126297321E+04  0.69937214994E+03 0.  0.
    5000001    2    3    3    0    0 -0.38236728448E+02  0.79414823468E+01 -0.32038233188E+03  0.34334251124E+03  0.11710733068E+03 0.  0.
        -13    1    4    4    0    0  0.25312381784E+02  0.35161384606E+02 -0.74625375004E+02  0.86290192939E+02  0.10566000000E+00 0. -1.
     200003    1    4    4    0    0 -0.63549110232E+02 -0.27219902260E+02 -0.24575695687E+03  0.25705231830E+03  0.30000000000E+02 0. -1.
     200000    1    3    3    0    0 -0.18035501148E+03 -0.38809865428E+03 -0.56790120339E+03  0.86928722091E+03  0.50000000000E+03 0.  1.
    -200001    1    1    2    0    0  0.21859173993E+03  0.38015717194E+03  0.18012591985E+03  0.84542721221E+03  0.70000000000E+03 0. -1.
<mgrwt>
<rscale>  0 0.19323848E+04</rscale>
<asrwt>0</asrwt>
<pdfrwt beam="1">  1        4 0.19758675E+00 0.19323848E+04</pdfrwt>
<pdfrwt beam="2">  1       -4 0.96421381E-01 0.19323848E+04</pdfrwt>
<totfact> 0.23145324E-01</totfact>
</mgrwt>
</event>
<event>
 8    1  0.1378634E-029  0.1663362E+04  0.7818608E-02  0.8782541E-01
         -4   -1    0    0    0  501 -0.00000000000E+00  0.00000000000E+00  0.45937447276E+03  0.45937622830E+03  0.12700000000E+01 0.  1.
          4   -1    0    0  501    0  0.00000000000E+00 -0.00000000000E+00 -0.15057238667E+04  0.15057244023E+04  0.12700000000E+01 0. -1.
     200001    2    1    2    0    0  0.23979556334E+03 -0.33418322212E+03 -0.73267167054E+03  0.10947133304E+04  0.70171871915E+03 0.  0.
    5000001    2    3    3    0    0  0.25306571046E+02 -0.14429368204E+03 -0.22299674751E+03  0.32540708942E+03  0.18628240720E+03 0.  0.
        -13    1    4    4    0    0  0.78832797095E+02 -0.71464569468E+02 -0.30576103787E+02  0.11070999898E+03  0.10566000000E+00 0. -1.
     200003    1    4    4    0    0 -0.53526226049E+02 -0.72829112569E+02 -0.19242064373E+03  0.21469709044E+03  0.30000000000E+02 0. -1.
     200000    1    3    3    0    0  0.21448899229E+03 -0.18988954009E+03 -0.50967492303E+03  0.76930624098E+03  0.50000000000E+03 0.  1.
    -200001    1    1    2    0    0 -0.23979556334E+03  0.33418322212E+03 -0.31367772337E+03  0.87038730016E+03  0.70000000000E+03 0.  1.
<mgrwt>
<rscale>  0 0.16633621E+04</rscale>
<asrwt>0</asrwt>
<pdfrwt beam="1">  1        4 0.21510357E+00 0.16633621E+04</pdfrwt>
<pdfrwt beam="2">  1       -4 0.65625089E-01 0.16633621E+04</pdfrwt>
<totfact> 0.43493413E-01</totfact>
</mgrwt>
</event>
<event>
 8    1  0.1378634E-029  0.1461191E+04  0.7818608E-02  0.8910679E-01
         -4   -1    0    0    0  501 -0.00000000000E+00  0.00000000000E+00  0.19308603583E+04  0.19308607759E+04  0.12700000000E+01 0. -1.
          4   -1    0    0  501    0  0.00000000000E+00 -0.00000000000E+00 -0.27643956177E+03  0.27644247903E+03  0.12700000000E+01 0.  1.
     200001    2    1    2    0    0  0.13582180771E+03 -0.12642891069E+03  0.97637756560E+03  0.12152475832E+04  0.69934376737E+03 0.  0.
    5000001    2    3    3    0    0  0.37648643657E+02 -0.66008814483E+02  0.45319935835E+03  0.48244201914E+03  0.14692195026E+03 0.  0.
        -13    1    4    4    0    0 -0.30001011482E+02 -0.65762490140E+02  0.11192787809E+03  0.13323898400E+03  0.10566000000E+00 0. -1.
     200003    1    4    4    0    0  0.67649655139E+02 -0.24632434296E+00  0.34127148026E+03  0.34920303514E+03  0.30000000000E+02 0. -1.
     200000    1    3    3    0    0  0.98173164054E+02 -0.60420096204E+02  0.52317820725E+03  0.73280556405E+03  0.50000000000E+03 0.  1.
    -200001    1    1    2    0    0 -0.13582180771E+03  0.12642891069E+03  0.67804323090E+03  0.99205567176E+03  0.70000000000E+03 0.  1.
<mgrwt>
<rscale>  0 0.14611911E+04</rscale>
<asrwt>0</asrwt>
<pdfrwt beam="1">  1        4 0.39491604E-01 0.14611911E+04</pdfrwt>
<pdfrwt beam="2">  1       -4 0.27583743E+00 0.14611911E+04</pdfrwt>
<totfact> 0.53465417E-01</totfact>
</mgrwt>
</event>
<event>
 8    1  0.1378634E-029  0.1433189E+04  0.7818608E-02  0.8930139E-01
          4   -1    0    0  501    0  0.00000000000E+00  0.00000000000E+00  0.81063378080E+03  0.81063477564E+03  0.12700000000E+01 0.  1.
         -4   -1    0    0    0  501 -0.00000000000E+00 -0.00000000000E+00 -0.63346206840E+03  0.63346334149E+03  0.12700000000E+01 0. -1.
     200001    2    1    2    0    0 -0.99444469156E+02  0.26619196959E+02 -0.25232784767E+02  0.70818686938E+03  0.70021008593E+03 0.  0.
    5000001    2    3    3    0    0 -0.73182271103E+02 -0.25062868943E+02  0.57199823419E+02  0.19813209401E+03  0.17320714383E+03 0.  0.
        -13    1    4    4    0    0 -0.68689132568E+02 -0.54676394383E+01 -0.49919887209E+02  0.85088767278E+02  0.10566000000E+00 0. -1.
     200003    1    4    4    0    0 -0.44931385353E+01 -0.19595229505E+02  0.10711971063E+03  0.11304332673E+03  0.30000000000E+02 0. -1.
     200000    1    3    3    0    0 -0.26262198053E+02  0.51682065903E+02 -0.82432608187E+02  0.51005477537E+03  0.50000000000E+03 0. -1.
    -200001    1    1    2    0    0  0.99444469156E+02 -0.26619196959E+02  0.20240449717E+03  0.73591124775E+03  0.70000000000E+03 0.  1.
<mgrwt>
<rscale>  0 0.14331886E+04</rscale>
<asrwt>0</asrwt>
<pdfrwt beam="1">  1        4 0.11580499E+00 0.14331886E+04</pdfrwt>
<pdfrwt beam="2">  1       -4 0.90494743E-01 0.14331886E+04</pdfrwt>
<totfact> 0.11792481E+00</totfact>
</mgrwt>
</event>
<event>
 8    1  0.1378634E-029  0.2008070E+04  0.7818608E-02  0.8602857E-01
          4   -1    0    0  501    0  0.00000000000E+00  0.00000000000E+00  0.10307388684E+04  0.10307396508E+04  0.12700000000E+01 0.  1.
         -4   -1    0    0    0  501 -0.00000000000E+00 -0.00000000000E+00 -0.97802183119E+03  0.97802265576E+03  0.12700000000E+01 0. -1.
     200001    2    1    2    0    0 -0.67241942041E+03 -0.26321799783E+03  0.69524789492E+02  0.10029223134E+04  0.69252283643E+03 0.  0.
    5000001    2    3    3    0    0 -0.28130809508E+03 -0.17061119997E+03  0.91601072181E+02  0.36102555370E+03  0.11707377200E+03 0.  0.
        -13    1    4    4    0    0 -0.94815425789E+02 -0.21379749122E+01  0.38806263415E+02  0.10247181636E+03  0.10566000000E+00 0. -1.
     200003    1    4    4    0    0 -0.18649266929E+03 -0.16847322506E+03  0.52794808766E+02  0.25855373734E+03  0.30000000000E+02 0. -1.
     200000    1    3    3    0    0 -0.39111132533E+03 -0.92606797854E+02 -0.22076282689E+02  0.64189675967E+03  0.50000000000E+03 0.  1.
    -200001    1    1    2    0    0  0.67241942041E+03  0.26321799783E+03 -0.16807752302E+02  0.10058399932E+04  0.70000000000E+03 0. -1.
<mgrwt>
<rscale>  0 0.20080704E+04</rscale>
<asrwt>0</asrwt>
<pdfrwt beam="1">  1        4 0.14724852E+00 0.20080704E+04</pdfrwt>
<pdfrwt beam="2">  1       -4 0.13971752E+00 0.20080704E+04</pdfrwt>
<totfact> 0.21056644E-01</totfact>
</mgrwt>
</event>
<event>
 8    1  0.1378634E-029  0.1734409E+04  0.7818608E-02  0.8741979E-01
         -4   -1    0    0    0  501 -0.00000000000E+00  0.00000000000E+00  0.19056710985E+04  0.19056715217E+04  0.12700000000E+01 0. -1.
          4   -1    0    0  501    0  0.00000000000E+00 -0.00000000000E+00 -0.39463305432E+03  0.39463509786E+03  0.12700000000E+01 0.  1.
     200001    2    1    2    0    0 -0.38994389767E+03  0.50152212564E+02  0.32576622054E+03  0.86871981335E+03  0.70283639341E+03 0.  0.
    5000001    2    3    3    0    0 -0.11953456761E+03  0.24623698245E+02  0.24859195957E+02  0.22504446950E+03  0.18743584039E+03 0.  0.
        -13    1    4    4    0    0 -0.11948273631E+03  0.91167713961E+02  0.22881004981E+02  0.15202377412E+03  0.10566000000E+00 0. -1.
     200003    1    4    4    0    0 -0.51831292823E-01 -0.66544015716E+02  0.19781909761E+01  0.73020695379E+02  0.30000000000E+02 0. -1.
     200000    1    3    3    0    0 -0.27040933006E+03  0.25528514320E+02  0.30090702459E+03  0.64367534384E+03  0.50000000000E+03 0. -1.
    -200001    1    1    2    0    0  0.38994389767E+03 -0.50152212564E+02  0.11852718236E+04  0.14315868062E+04  0.70000000000E+03 0. -1.
<mgrwt>
<rscale>  0 0.17344090E+04</rscale>
<asrwt>0</asrwt>
<pdfrwt beam="1">  1        4 0.56376327E-01 0.17344090E+04</pdfrwt>
<pdfrwt beam="2">  1       -4 0.27223890E+00 0.17344090E+04</pdfrwt>
<totfact> 0.26363910E-01</totfact>
</mgrwt>
</event>
<event>
 8    1  0.1378634E-029  0.1488770E+04  0.7818608E-02  0.8891955E-01
         -4   -1    0    0    0  501 -0.00000000000E+00  0.00000000000E+00  0.50423679998E+03  0.50423839933E+03  0.12700000000E+01 0. -1.
          4   -1    0    0  501    0  0.00000000000E+00 -0.00000000000E+00 -0.10989028555E+04  0.10989035893E+04  0.12700000000E+01 0.  1.
     200001    2    1    2    0    0 -0.15139754873E+03  0.33582143018E+02 -0.81978731946E+02  0.72172422743E+03  0.70008311640E+03 0.  0.
    5000001    2    3    3    0    0 -0.39726588903E+02 -0.82872908299E+02  0.16073434676E+02  0.18726523964E+03  0.16236931323E+03 0.  0.
        -13    1    4    4    0    0 -0.88668230157E+02 -0.77675492907E+02 -0.19573737956E+02  0.11949342919E+03  0.10566000000E+00 0. -1.
     200003    1    4    4    0    0  0.48941641254E+02 -0.51974153923E+01  0.35647172632E+02  0.67771810453E+02  0.30000000000E+02 0. -1.
     200000    1    3    3    0    0 -0.11167095983E+03  0.11645505132E+03 -0.98052166622E+02  0.53445898779E+03  0.50000000000E+03 0.  1.
    -200001    1    1    2    0    0  0.15139754873E+03 -0.33582143018E+02 -0.51268732352E+03  0.88141776122E+03  0.70000000000E+03 0. -1.
<mgrwt>
<rscale>  0 0.14887701E+04</rscale>
<asrwt>0</asrwt>
<pdfrwt beam="1">  1        4 0.15698629E+00 0.14887701E+04</pdfrwt>
<pdfrwt beam="2">  1       -4 0.72033995E-01 0.14887701E+04</pdfrwt>
<totfact> 0.90031321E-01</totfact>
</mgrwt>
</event>
<event>
 8    1  0.1378634E-029  0.2161870E+04  0.7818608E-02  0.8534468E-01
         -4   -1    0    0    0  501 -0.00000000000E+00  0.00000000000E+00  0.11772847091E+04  0.11772853941E+04  0.12700000000E+01 0. -1.
          4   -1    0    0  501    0  0.00000000000E+00 -0.00000000000E+00 -0.99246933792E+03  0.99247015049E+03  0.12700000000E+01 0.  1.
     200001    2    1    2    0    0  0.69446859256E+03 -0.31469538440E+03 -0.22135618910E+03  0.10578674444E+04  0.69911741246E+03 0.  0.
    5000001    2    3    3    0    0  0.12799013805E+03 -0.63454252077E+02  0.69059892595E+01  0.22954168234E+03  0.17953766651E+03 0.  0.
        -13    1    4    4    0    0  0.21292699361E+02  0.59890460387E+02 -0.20363127156E+00  0.63563345737E+02  0.10566000000E+00 0. -1.
     200003    1    4    4    0    0  0.10669743869E+03 -0.12334471246E+03  0.71096205310E+01  0.16597833660E+03  0.30000000000E+02 0. -1.
     200000    1    3    3    0    0  0.56647845451E+03 -0.25124113233E+03 -0.22826217836E+03  0.82832576204E+03  0.50000000000E+03 0.  1.
    -200001    1    1    2    0    0 -0.69446859256E+03  0.31469538440E+03  0.40617156026E+03  0.11118881002E+04  0.70000000000E+03 0. -1.
<mgrwt>
<rscale>  0 0.21618701E+04</rscale>
<asrwt>0</asrwt>
<pdfrwt beam="1">  1        4 0.14178144E+00 0.21618701E+04</pdfrwt>
<pdfrwt beam="2">  1       -4 0.16818364E+00 0.21618701E+04</pdfrwt>
<totfact> 0.13939282E-01</totfact>
</mgrwt>
</event>
<event>
 8    1  0.1378634E-029  0.1937190E+04  0.7818608E-02  0.8636563E-01
          4   -1    0    0  501    0  0.00000000000E+00  0.00000000000E+00  0.54223784063E+03  0.54223932789E+03  0.12700000000E+01 0.  1.
         -4   -1    0    0    0  501 -0.00000000000E+00 -0.00000000000E+00 -0.17301885951E+04  0.17301890612E+04  0.12700000000E+01 0. -1.
     200001    2    1    2    0    0  0.24905683629E+03 -0.11113565291E+03  0.12330363596E+03  0.76121413643E+03  0.69990194585E+03 0.  0.
    5000001    2    3    3    0    0  0.86006315047E+02 -0.49772259844E+01 -0.25732059456E+02  0.20437778471E+03  0.18353822761E+03 0.  0.
        -13    1    4    4    0    0  0.29352568959E+02 -0.73820558836E+02  0.40656150391E+02  0.89241144883E+02  0.10566000000E+00 0. -1.
     200003    1    4    4    0    0  0.56653746088E+02  0.68843332851E+02 -0.66388209847E+02  0.11513663983E+03  0.30000000000E+02 0. -1.
     200000    1    3    3    0    0  0.16305052124E+03 -0.10615842693E+03  0.14903569542E+03  0.55683635172E+03  0.50000000000E+03 0.  1.
    -200001    1    1    2    0    0 -0.24905683629E+03  0.11113565291E+03 -0.13112543904E+04  0.15112142527E+04  0.70000000000E+03 0. -1.
<mgrwt>
<rscale>  0 0.19371897E+04</rscale>
<asrwt>0</asrwt>
<pdfrwt beam="1">  1        4 0.77462689E-01 0.19371897E+04</pdfrwt>
<pdfrwt beam="2">  1       -4 0.24716994E+00 0.19371897E+04</pdfrwt>
<totfact> 0.18482353E-01</totfact>
</mgrwt>
</event>
<event>
 8    1  0.1378634E-029  0.1465751E+04  0.7818608E-02  0.8907553E-01
          4   -1    0    0  501    0  0.00000000000E+00  0.00000000000E+00  0.40644188785E+03  0.40644387202E+03  0.12700000000E+01 0.  1.
         -4   -1    0    0    0  501 -0.00000000000E+00 -0.00000000000E+00 -0.13214783824E+04  0.13214789927E+04  0.12700000000E+01 0. -1.
     200001    2    1    2    0    0 -0.20655624191E+03 -0.41072536056E+02 -0.39782548821E+03  0.83245669595E+03  0.70026180624E+03 0.  0.
    5000001    2    3    3    0    0 -0.10573982425E+03 -0.40869400500E+02 -0.17219503809E+03  0.27471742770E+03  0.18156903813E+03 0.  0.
        -13    1    4    4    0    0  0.10978721007E+02 -0.49486190820E+02  0.14154093766E+02  0.52628556233E+02  0.10566000000E+00 0. -1.
     200003    1    4    4    0    0 -0.11671854526E+03  0.86167903197E+01 -0.18634913186E+03  0.22208887146E+03  0.30000000000E+02 0. -1.
     200000    1    3    3    0    0 -0.10081641766E+03 -0.20313555567E+00 -0.22563045012E+03  0.55773926826E+03  0.50000000000E+03 0.  1.
    -200001    1    1    2    0    0  0.20655624191E+03  0.41072536056E+02 -0.51721100638E+03  0.89546616877E+03  0.70000000000E+03 0. -1.
<mgrwt>
<rscale>  0 0.14657509E+04</rscale>
<asrwt>0</asrwt>
<pdfrwt beam="1">  1        4 0.58063313E-01 0.14657509E+04</pdfrwt>
<pdfrwt beam="2">  1       -4 0.18878281E+00 0.14657509E+04</pdfrwt>
<totfact> 0.85711021E-01</totfact>
</mgrwt>
</event>
<event>
 8    1  0.1378634E-029  0.1963462E+04  0.7818608E-02  0.8623896E-01
         -4   -1    0    0    0  501 -0.00000000000E+00  0.00000000000E+00  0.75193120934E+03  0.75193228185E+03  0.12700000000E+01 0. -1.
          4   -1    0    0  501    0  0.00000000000E+00 -0.00000000000E+00 -0.12817584079E+04  0.12817590371E+04  0.12700000000E+01 0.  1.
     200001    2    1    2    0    0 -0.34473541586E+03  0.15749363165E+03 -0.85991730962E+03  0.11719452819E+04  0.70025082182E+03 0.  0.
    5000001    2    3    3    0    0 -0.18929867419E+03  0.22841413350E+02 -0.32730510004E+03  0.41302001131E+03  0.16462436947E+03 0.  0.
        -13    1    4    4    0    0 -0.33139825809E+02  0.43857879287E+02 -0.78101125714E+01  0.55522703938E+02  0.10566000000E+00 0. -1.
     200003    1    4    4    0    0 -0.15615884838E+03 -0.21016465936E+02 -0.31949498746E+03  0.35749730738E+03  0.30000000000E+02 0. -1.
     200000    1    3    3    0    0 -0.15543674167E+03  0.13465221830E+03 -0.53261220958E+03  0.75892527060E+03  0.50000000000E+03 0.  1.
    -200001    1    1    2    0    0  0.34473541586E+03 -0.15749363165E+03  0.33009011103E+03  0.86174603704E+03  0.70000000000E+03 0. -1.
<mgrwt>
<rscale>  0 0.19634621E+04</rscale>
<asrwt>0</asrwt>
<pdfrwt beam="1">  1        4 0.18310847E+00 0.19634621E+04</pdfrwt>
<pdfrwt beam="2">  1       -4 0.10741887E+00 0.19634621E+04</pdfrwt>
<totfact> 0.22331214E-01</totfact>
</mgrwt>
</event>
<event>
 8    1  0.1378634E-029  0.1443692E+04  0.7818608E-02  0.8922785E-01
          4   -1    0    0  501    0  0.00000000000E+00  0.00000000000E+00  0.87238878940E+03  0.87238971381E+03  0.12700000000E+01 0.  1.
         -4   -1    0    0    0  501 -0.00000000000E+00 -0.00000000000E+00 -0.59727976412E+03  0.59728111432E+03  0.12700000000E+01 0. -1.
     200001    2    1    2    0    0 -0.12847154017E+02 -0.27008889274E+02  0.31736699248E+03  0.76775896383E+03  0.69845364138E+03 0.  0.
    5000001    2    3    3    0    0  0.18565649878E+02 -0.99269188445E+02  0.42849183783E+02  0.19193925040E+03  0.15749783542E+03 0.  0.
        -13    1    4    4    0    0 -0.51833441178E+02 -0.41736353768E+01  0.46590239359E+02  0.69819670754E+02  0.10566000000E+00 0. -1.
     200003    1    4    4    0    0  0.70399091056E+02 -0.95095553069E+02 -0.37410555765E+01  0.12211957964E+03  0.30000000000E+02 0. -1.
     200000    1    3    3    0    0 -0.31412803894E+02  0.72260299172E+02  0.27451780870E+03  0.57581971343E+03  0.50000000000E+03 0.  1.
    -200001    1    1    2    0    0  0.12847154017E+02  0.27008889274E+02 -0.42257967204E+02  0.70191186431E+03  0.70000000000E+03 0. -1.
<mgrwt>
<rscale>  0 0.14436923E+04</rscale>
<asrwt>0</asrwt>
<pdfrwt beam="1">  1        4 0.12462713E+00 0.14436923E+04</pdfrwt>
<pdfrwt beam="2">  1       -4 0.85325844E-01 0.14436923E+04</pdfrwt>
<totfact> 0.11243483E+00</totfact>
</mgrwt>
</event>
<event>
 8    1  0.1378634E-029  0.1502187E+04  0.7818608E-02  0.8883000E-01
         -4   -1    0    0    0  501 -0.00000000000E+00  0.00000000000E+00  0.11842066398E+04  0.11842073208E+04  0.12700000000E+01 0. -1.
          4   -1    0    0  501    0  0.00000000000E+00 -0.00000000000E+00 -0.47638593617E+03  0.47638762902E+03  0.12700000000E+01 0.  1.
     200001    2    1    2    0    0 -0.25125797932E+03  0.11064329110E+03  0.36524435040E+03  0.83431953093E+03  0.69807817196E+03 0.  0.
    5000001    2    3    3    0    0 -0.45778222482E+02  0.13434240808E+03  0.12175114135E+03  0.24096253766E+03  0.15197393156E+03 0.  0.
        -13    1    4    4    0    0  0.28812591531E+02  0.75443228167E+02 -0.35772991052E+01  0.80837208882E+02  0.10566000000E+00 0. -1.
     200003    1    4    4    0    0 -0.74590814013E+02  0.58899179911E+02  0.12532844046E+03  0.16012532878E+03  0.30000000000E+02 0. -1.
     200000    1    3    3    0    0 -0.20547975683E+03 -0.23699116976E+02  0.24349320905E+03  0.59335699327E+03  0.50000000000E+03 0. -1.
    -200001    1    1    2    0    0  0.25125797932E+03 -0.11064329110E+03  0.34257635320E+03  0.82627541886E+03  0.70000000000E+03 0. -1.
<mgrwt>
<rscale>  0 0.15021869E+04</rscale>
<asrwt>0</asrwt>
<pdfrwt beam="1">  1        4 0.68055302E-01 0.15021869E+04</pdfrwt>
<pdfrwt beam="2">  1       -4 0.16917255E+00 0.15021869E+04</pdfrwt>
<totfact> 0.82996947E-01</totfact>
</mgrwt>
</event>
<event>
 8    1  0.1378634E-029  0.1430969E+04  0.7818608E-02  0.8931701E-01
          4   -1    0    0  501    0  0.00000000000E+00  0.00000000000E+00  0.59223337710E+03  0.59223473881E+03  0.12700000000E+01 0.  1.
         -4   -1    0    0    0  501 -0.00000000000E+00 -0.00000000000E+00 -0.86438343214E+03  0.86438436511E+03  0.12700000000E+01 0. -1.
     200001    2    1    2    0    0  0.25336287829E+01 -0.92059808902E+02 -0.16650526559E+02  0.70577861704E+03  0.69954613039E+03 0.  0.
    5000001    2    3    3    0    0  0.60803385255E+02 -0.75252338625E+02  0.48696537420E+02  0.19789271022E+03  0.16562066862E+03 0.  0.
        -13    1    4    4    0    0  0.25565547893E+02 -0.96850213218E+02 -0.29566977317E+02  0.10444030999E+03  0.10566000000E+00 0. -1.
     200003    1    4    4    0    0  0.35237837362E+02  0.21597874593E+02  0.78263514737E+02  0.93452400225E+02  0.30000000000E+02 0. -1.
     200000    1    3    3    0    0 -0.58269756472E+02 -0.16807470277E+02 -0.65347063979E+02  0.50788590682E+03  0.50000000000E+03 0.  1.
    -200001    1    1    2    0    0 -0.25336287829E+01  0.92059808902E+02 -0.25549952848E+03  0.75084048688E+03  0.70000000000E+03 0. -1.
<mgrwt>
<rscale>  0 0.14309694E+04</rscale>
<asrwt>0</asrwt>
<pdfrwt beam="1">  1        4 0.84604933E-01 0.14309694E+04</pdfrwt>
<pdfrwt beam="2">  1       -4 0.12348351E+00 0.14309694E+04</pdfrwt>
<totfact> 0.11743822E+00</totfact>
</mgrwt>
</event>
<event>
 8    1  0.1378634E-029  0.1972321E+04  0.7818608E-02  0.8619672E-01
         -4   -1    0    0    0  501 -0.00000000000E+00  0.00000000000E+00  0.24064566851E+04  0.24064570202E+04  0.12700000000E+01 0. -1.
          4   -1    0    0  501    0  0.00000000000E+00 -0.00000000000E+00 -0.40412501687E+03  0.40412701241E+03  0.12700000000E+01 0.  1.
     200001    2    1    2    0    0 -0.40808775801E+03 -0.36048850162E+02  0.20120339647E+03  0.83526173256E+03  0.69953142695E+03 0.  0.
    5000001    2    3    3    0    0 -0.10068935712E+03  0.10611140977E+03  0.31936148802E+02  0.20808176038E+03  0.14449956221E+03 0.  0.
        -13    1    4    4    0    0 -0.10017115890E+02  0.17869901246E+02 -0.50242977269E+02  0.54259044502E+02  0.10566000000E+00 0. -1.
     200003    1    4    4    0    0 -0.90672241233E+02  0.88241508529E+02  0.82179126071E+02  0.15382271588E+03  0.30000000000E+02 0. -1.
     200000    1    3    3    0    0 -0.30739840088E+03 -0.14216025994E+03  0.16926724767E+03  0.62717997218E+03  0.50000000000E+03 0.  1.
    -200001    1    1    2    0    0  0.40808775801E+03  0.36048850162E+02  0.18011282718E+04  0.19753223001E+04  0.70000000000E+03 0. -1.
<mgrwt>
<rscale>  0 0.19723211E+04</rscale>
<asrwt>0</asrwt>
<pdfrwt beam="1">  1        4 0.57732313E-01 0.19723211E+04</pdfrwt>
<pdfrwt beam="2">  1       -4 0.34377969E+00 0.19723211E+04</pdfrwt>
<totfact> 0.87240153E-02</totfact>
</mgrwt>
</event>
<event>
 8    1  0.1378634E-029  0.1847421E+04  0.7818608E-02  0.8681480E-01
         -4   -1    0    0    0  501 -0.00000000000E+00  0.00000000000E+00  0.69225759051E+03  0.69225875546E+03  0.12700000000E+01 0. -1.
          4   -1    0    0  501    0  0.00000000000E+00 -0.00000000000E+00 -0.12325461438E+04  0.12325467981E+04  0.12700000000E+01 0.  1.
     200001    2    1    2    0    0 -0.18982483620E+03 -0.35080474587E+03 -0.73986762539E+03  0.10947879368E+04  0.70146923325E+03 0.  0.
    5000001    2    3    3    0    0 -0.64453664711E+02  0.85826770279E+02 -0.15468852588E+03  0.20103204724E+03  0.70461582350E+02 0.  0.
        -13    1    4    4    0    0 -0.56799194689E+01 -0.56706501029E+01  0.16970479477E+01  0.82041997498E+01  0.10566000000E+00 0. -1.
     200003    1    4    4    0    0 -0.58773745242E+02  0.91497420382E+02 -0.15638557382E+03  0.19282784749E+03  0.30000000000E+02 0. -1.
     200000    1    3    3    0    0 -0.12537117149E+03 -0.43663151615E+03 -0.58517909951E+03  0.89375588951E+03  0.50000000000E+03 0.  1.
    -200001    1    1    2    0    0  0.18982483620E+03  0.35080474587E+03  0.19957907211E+03  0.83001761679E+03  0.70000000000E+03 0. -1.
<mgrwt>
<rscale>  0 0.18474211E+04</rscale>
<asrwt>0</asrwt>
<pdfrwt beam="1">  1        4 0.17607815E+00 0.18474211E+04</pdfrwt>
<pdfrwt beam="2">  1       -4 0.98894072E-01 0.18474211E+04</pdfrwt>
<totfact> 0.30780767E-01</totfact>
</mgrwt>
</event>
<event>
 8    1  0.1378634E-029  0.1456484E+04  0.7818608E-02  0.8913917E-01
          4   -1    0    0  501    0  0.00000000000E+00  0.00000000000E+00  0.70159028566E+03  0.70159143512E+03  0.12700000000E+01 0.  1.
         -4   -1    0    0    0  501 -0.00000000000E+00 -0.00000000000E+00 -0.75590405129E+03  0.75590511816E+03  0.12700000000E+01 0. -1.
     200001    2    1    2    0    0  0.75019558774E+02 -0.16779779500E+03  0.58302148351E+02  0.72505790173E+03  0.69894619689E+03 0.  0.
    5000001    2    3    3    0    0  0.60008298446E+02  0.15915979623E+02 -0.19405179129E+01  0.18876948328E+03  0.17825778501E+03 0.  0.
        -13    1    4    4    0    0 -0.49406235333E+02 -0.32090859547E+02 -0.24006788228E+02  0.63617107772E+02  0.10566000000E+00 0. -1.
     200003    1    4    4    0    0  0.10941453378E+03  0.48006839171E+02  0.22066270315E+02  0.12515237551E+03  0.30000000000E+02 0. -1.
     200000    1    3    3    0    0  0.15011260328E+02 -0.18371377463E+03  0.60242666264E+02  0.53628841845E+03  0.50000000000E+03 0.  1.
    -200001    1    1    2    0    0 -0.75019558774E+02  0.16779779500E+03 -0.11261591398E+03  0.73243865155E+03  0.70000000000E+03 0. -1.
<mgrwt>
<rscale>  0 0.14564842E+04</rscale>
<asrwt>0</asrwt>
<pdfrwt beam="1">  1        4 0.10022734E+00 0.14564842E+04</pdfrwt>
<pdfrwt beam="2">  1       -4 0.10798645E+00 0.14564842E+04</pdfrwt>
<totfact> 0.10980446E+00</totfact>
</mgrwt>
</event>
<event>
 8    1  0.1378634E-029  0.1655467E+04  0.7818608E-02  0.8787179E-01
          4   -1    0    0  501    0  0.00000000000E+00  0.00000000000E+00  0.10853057106E+04  0.10853064537E+04  0.12700000000E+01 0. -1.
         -4   -1    0    0    0  501 -0.00000000000E+00 -0.00000000000E+00 -0.63128846126E+03  0.63128973873E+03  0.12700000000E+01 0.  1.
     200001    2    1    2    0    0 -0.72586521102E+02 -0.43511893763E+03  0.24744759383E+03  0.86379591363E+03  0.70022551780E+03 0.  0.
    5000001    2    3    3    0    0 -0.52135268508E+02 -0.18097811048E+03  0.14987886906E+03  0.29412454361E+03  0.16903966715E+03 0.  0.
        -13    1    4    4    0    0  0.45404607372E+02 -0.72058591998E+01  0.56725165534E+01  0.46321608192E+02  0.10566000000E+00 0. -1.
     200003    1    4    4    0    0 -0.97539875880E+02 -0.17377225128E+03  0.14420635250E+03  0.24780293542E+03  0.30000000000E+02 0. -1.
     200000    1    3    3    0    0 -0.20451252594E+02 -0.25414082715E+03  0.97568724778E+02  0.56967137001E+03  0.50000000000E+03 0.  1.
    -200001    1    1    2    0    0  0.72586521102E+02  0.43511893763E+03  0.20656965555E+03  0.85280027880E+03  0.70000000000E+03 0.  1.
<mgrwt>
<rscale>  0 0.16554670E+04</rscale>
<asrwt>0</asrwt>
<pdfrwt beam="1">  1        4 0.15504382E+00 0.16554670E+04</pdfrwt>
<pdfrwt beam="2">  1       -4 0.90184211E-01 0.16554670E+04</pdfrwt>
<totfact> 0.55209223E-01</totfact>
</mgrwt>
</event>
<event>
 8    1  0.1378634E-029  0.1456473E+04  0.7818608E-02  0.8913925E-01
          4   -1    0    0  501    0  0.00000000000E+00  0.00000000000E+00  0.17248432437E+03  0.17248899980E+03  0.12700000000E+01 0.  1.
         -4   -1    0    0    0  501 -0.00000000000E+00 -0.00000000000E+00 -0.30746012969E+04  0.30746015592E+04  0.12700000000E+01 0. -1.
     200001    2    1    2    0    0  0.19190090622E+03 -0.55958666768E+02 -0.14961248787E+04  0.16638119675E+04  0.69994519822E+03 0.  0.
    5000001    2    3    3    0    0  0.23127531220E+02 -0.50424530312E+02 -0.24338526569E+03  0.30444755108E+03  0.17428255175E+03 0.  0.
        -13    1    4    4    0    0 -0.34188829503E+02 -0.36190576120E+02 -0.23194331029E+03  0.23722635649E+03  0.10566000000E+00 0. -1.
     200003    1    4    4    0    0  0.57316360723E+02 -0.14233954192E+02 -0.11441955404E+02  0.67221194589E+02  0.30000000000E+02 0. -1.
     200000    1    3    3    0    0  0.16877337500E+03 -0.55341364558E+01 -0.12527396130E+04  0.13593644164E+04  0.50000000000E+03 0. -1.
    -200001    1    1    2    0    0 -0.19190090622E+03  0.55958666768E+02 -0.14059920938E+04  0.15832785914E+04  0.70000000000E+03 0.  1.
<mgrwt>
<rscale>  0 0.14564732E+04</rscale>
<asrwt>0</asrwt>
<pdfrwt beam="1">  1        4 0.24640972E-01 0.14564732E+04</pdfrwt>
<pdfrwt beam="2">  1       -4 0.43922908E+00 0.14564732E+04</pdfrwt>
<totfact> 0.11110868E-01</totfact>
</mgrwt>
</event>
<event>
 8    1  0.1378634E-029  0.1707686E+04  0.7818608E-02  0.8756993E-01
         -4   -1    0    0    0  501 -0.00000000000E+00  0.00000000000E+00  0.10172287024E+04  0.10172294952E+04  0.12700000000E+01 0. -1.
          4   -1    0    0  501    0  0.00000000000E+00 -0.00000000000E+00 -0.71669876329E+03  0.71669988852E+03  0.12700000000E+01 0.  1.
     200001    2    1    2    0    0  0.24414481550E+03 -0.34900407146E+03  0.39305312303E+03  0.90932579871E+03  0.70069402584E+03 0.  0.
    5000001    2    3    3    0    0 -0.70054994440E+01 -0.18820756449E+03  0.10899251411E+03  0.26154309834E+03  0.14510086080E+03 0.  0.
        -13    1    4    4    0    0 -0.50336893415E+02 -0.16666299249E+02  0.29666420535E+01  0.53107254669E+02  0.10566000000E+00 0. -1.
     200003    1    4    4    0    0  0.43331393971E+02 -0.17154126524E+03  0.10602587206E+03  0.20843584368E+03  0.30000000000E+02 0. -1.
     200000    1    3    3    0    0  0.25115031495E+03 -0.16079650697E+03  0.28406060892E+03  0.64778270036E+03  0.50000000000E+03 0. -1.
    -200001    1    1    2    0    0 -0.24414481550E+03  0.34900407146E+03 -0.92523183914E+02  0.82460358500E+03  0.70000000000E+03 0.  1.
<mgrwt>
<rscale>  0 0.17076864E+04</rscale>
<asrwt>0</asrwt>
<pdfrwt beam="1">  1        4 0.10238568E+00 0.17076864E+04</pdfrwt>
<pdfrwt beam="2">  1       -4 0.14531852E+00 0.17076864E+04</pdfrwt>
<totfact> 0.48442701E-01</totfact>
</mgrwt>
</event>
<event>
 8    1  0.1378634E-029  0.2032193E+04  0.7818608E-02  0.8591716E-01
          4   -1    0    0  501    0  0.00000000000E+00  0.00000000000E+00  0.73906970889E+03  0.73907080005E+03  0.12700000000E+01 0.  1.
         -4   -1    0    0    0  501 -0.00000000000E+00 -0.00000000000E+00 -0.13969589693E+04  0.13969595466E+04  0.12700000000E+01 0. -1.
     200001    2    1    2    0    0 -0.34181795821E+02 -0.68778810498E+03 -0.52310842234E+02  0.98236397674E+03  0.69862843206E+03 0.  0.
    5000001    2    3    3    0    0 -0.25843708596E+02 -0.13229130175E+03  0.50219682553E+02  0.22793788321E+03  0.17681848403E+03 0.  0.
        -13    1    4    4    0    0  0.62338993803E+01 -0.48394571287E+02 -0.63416647958E+02  0.80016113588E+02  0.10566000000E+00 0. -1.
     200003    1    4    4    0    0 -0.32077607976E+02 -0.83896730459E+02  0.11363633051E+03  0.14792176962E+03  0.30000000000E+02 0. -1.
     200000    1    3    3    0    0 -0.83380872249E+01 -0.55549680323E+03 -0.10253052479E+03  0.75442609354E+03  0.50000000000E+03 0.  1.
    -200001    1    1    2    0    0  0.34181795821E+02  0.68778810498E+03 -0.60557841822E+03  0.11536663699E+04  0.70000000000E+03 0. -1.
<mgrwt>
<rscale>  0 0.20321927E+04</rscale>
<asrwt>0</asrwt>
<pdfrwt beam="1">  1        4 0.10558151E+00 0.20321927E+04</pdfrwt>
<pdfrwt beam="2">  1       -4 0.19956569E+00 0.20321927E+04</pdfrwt>
<totfact> 0.17928543E-01</totfact>
</mgrwt>
</event>
<event>
 8    1  0.1378634E-029  0.1494934E+04  0.7818608E-02  0.8887829E-01
          4   -1    0    0  501    0  0.00000000000E+00  0.00000000000E+00  0.28657244049E+03  0.28657525460E+03  0.12700000000E+01 0.  1.
         -4   -1    0    0    0  501 -0.00000000000E+00 -0.00000000000E+00 -0.19496051032E+04  0.19496055169E+04  0.12700000000E+01 0. -1.
     200001    2    1    2    0    0 -0.22872761789E+03  0.12679430629E+03 -0.86002074166E+03  0.11392663424E+04  0.69992785597E+03 0.  0.
    5000001    2    3    3    0    0 -0.75367710774E+02  0.91949111365E+02 -0.36517848753E+03  0.41843189179E+03  0.16611739647E+03 0.  0.
        -13    1    4    4    0    0 -0.14958584795E+02 -0.43528542177E+02 -0.45402387048E+02  0.64652000409E+02  0.10566000000E+00 0. -1.
     200003    1    4    4    0    0 -0.60409125979E+02  0.13547765354E+03 -0.31977610048E+03  0.35377989138E+03  0.30000000000E+02 0. -1.
     200000    1    3    3    0    0 -0.15335990712E+03  0.34845194926E+02 -0.49484225414E+03  0.72083445062E+03  0.50000000000E+03 0.  1.
    -200001    1    1    2    0    0  0.22872761789E+03 -0.12679430629E+03 -0.80301192109E+03  0.10969144291E+04  0.70000000000E+03 0.  1.
<mgrwt>
<rscale>  0 0.14949337E+04</rscale>
<asrwt>0</asrwt>
<pdfrwt beam="1">  1        4 0.40939152E-01 0.14949337E+04</pdfrwt>
<pdfrwt beam="2">  1       -4 0.27851524E+00 0.14949337E+04</pdfrwt>
<totfact> 0.47740126E-01</totfact>
</mgrwt>
</event>
<event>
 8    1  0.1378634E-029  0.1569021E+04  0.7818608E-02  0.8839809E-01
          4   -1    0    0  501    0  0.00000000000E+00  0.00000000000E+00  0.33514689846E+03  0.33514930471E+03  0.12700000000E+01 0.  1.
         -4   -1    0    0    0  501 -0.00000000000E+00 -0.00000000000E+00 -0.18363688938E+04  0.18363693329E+04  0.12700000000E+01 0. -1.
     200001    2    1    2    0    0 -0.28720644104E+03  0.81636153704E+02 -0.10129849030E+04  0.12673463866E+04  0.70062575486E+03 0.  0.
    5000001    2    3    3    0    0 -0.15233509654E+03 -0.74809249589E+01 -0.46113155946E+03  0.50532654030E+03  0.13946559191E+03 0.  0.
        -13    1    4    4    0    0 -0.13445094999E+03  0.42834019256E+02 -0.36515579099E+03  0.39147231577E+03  0.10566000000E+00 0. -1.
     200003    1    4    4    0    0 -0.17884146546E+02 -0.50314944215E+02 -0.95975768470E+02  0.11385422453E+03  0.30000000000E+02 0. -1.
     200000    1    3    3    0    0 -0.13487134450E+03  0.89117078663E+02 -0.55185334358E+03  0.76201984626E+03  0.50000000000E+03 0. -1.
    -200001    1    1    2    0    0  0.28720644104E+03 -0.81636153704E+02 -0.48823709229E+03  0.90417225110E+03  0.70000000000E+03 0.  1.
<mgrwt>
<rscale>  0 0.15690206E+04</rscale>
<asrwt>0</asrwt>
<pdfrwt beam="1">  1        4 0.47878333E-01 0.15690206E+04</pdfrwt>
<pdfrwt beam="2">  1       -4 0.26233861E+00 0.15690206E+04</pdfrwt>
<totfact> 0.43342033E-01</totfact>
</mgrwt>
</event>
<event>
 8    1  0.1378634E-029  0.1523539E+04  0.7818608E-02  0.8868949E-01
         -4   -1    0    0    0  501 -0.00000000000E+00  0.00000000000E+00  0.18941582750E+04  0.18941587008E+04  0.12700000000E+01 0. -1.
          4   -1    0    0  501    0  0.00000000000E+00 -0.00000000000E+00 -0.30635738157E+03  0.30636001394E+03  0.12700000000E+01 0.  1.
     200001    2    1    2    0    0 -0.18785980882E+03  0.23545839009E+03  0.82587429825E+03  0.11228990704E+04  0.69864297368E+03 0.  0.
    5000001    2    3    3    0    0 -0.12570181674E+03  0.10894717171E+03  0.23297245080E+03  0.33460895567E+03  0.17325287133E+03 0.  0.
        -13    1    4    4    0    0 -0.49968722519E+02  0.95811826976E+02  0.25066349259E+02  0.11092841136E+03  0.10566000000E+00 0. -1.
     200003    1    4    4    0    0 -0.75733094219E+02  0.13135344738E+02  0.20790610154E+03  0.22368054430E+03  0.30000000000E+02 0. -1.
     200000    1    3    3    0    0 -0.62157992080E+02  0.12651121838E+03  0.59290184744E+03  0.78829011478E+03  0.50000000000E+03 0.  1.
    -200001    1    1    2    0    0  0.18785980882E+03 -0.23545839009E+03  0.76192659520E+03  0.10776196443E+04  0.70000000000E+03 0. -1.
<mgrwt>
<rscale>  0 0.15235390E+04</rscale>
<asrwt>0</asrwt>
<pdfrwt beam="1">  1        4 0.43765559E-01 0.15235390E+04</pdfrwt>
<pdfrwt beam="2">  1       -4 0.27059426E+00 0.15235390E+04</pdfrwt>
<totfact> 0.46536688E-01</totfact>
</mgrwt>
</event>
<event>
 8    1  0.1378634E-029  0.1550704E+04  0.7818608E-02  0.8851418E-01
         -4   -1    0    0    0  501 -0.00000000000E+00  0.00000000000E+00  0.14656555445E+03  0.14657105666E+03  0.12700000000E+01 0. -1.
          4   -1    0    0  501    0  0.00000000000E+00 -0.00000000000E+00 -0.41016360249E+04  0.41016362216E+04  0.12700000000E+01 0.  1.
     200001    2    1    2    0    0  0.26137105735E+03 -0.30566645566E+02 -0.14176786598E+04  0.16029083631E+04  0.70018089702E+03 0.  0.
    5000001    2    3    3    0    0  0.14004319516E+03  0.79526890639E+02 -0.50190283277E+03  0.54674246597E+03  0.14520415871E+03 0.  0.
        -13    1    4    4    0    0  0.42146397938E+02  0.34238661965E+02 -0.30611390976E+02  0.62335168676E+02  0.10566000000E+00 0. -1.
     200003    1    4    4    0    0  0.97896797224E+02  0.45288228673E+02 -0.47129144179E+03  0.48440729729E+03  0.30000000000E+02 0. -1.
     200000    1    3    3    0    0  0.12132786219E+03 -0.11009353620E+03 -0.91577582705E+03  0.10561658971E+04  0.50000000000E+03 0. -1.
    -200001    1    1    2    0    0 -0.26137105735E+03  0.30566645566E+02 -0.25373918107E+04  0.26452989151E+04  0.70000000000E+03 0. -1.
<mgrwt>
<rscale>  0 0.15507039E+04</rscale>
<asrwt>0</asrwt>
<pdfrwt beam="1">  1        4 0.58594834E+00 0.15507039E+04</pdfrwt>
<pdfrwt beam="2">  1       -4 0.20938346E-01 0.15507039E+04</pdfrwt>
<totfact> 0.95177566E-03</totfact>
</mgrwt>
</event>
<event>
 8    1  0.1378634E-029  0.1435015E+04  0.7818608E-02  0.8928856E-01
          4   -1    0    0  501    0  0.00000000000E+00  0.00000000000E+00  0.10629645927E+04  0.10629653513E+04  0.12700000000E+01 0.  1.
         -4   -1    0    0    0  501 -0.00000000000E+00 -0.00000000000E+00 -0.48431985769E+03  0.48432152281E+03  0.12700000000E+01 0. -1.
     200001    2    1    2    0    0  0.64102545037E+02 -0.14538103584E+03  0.26105258494E+03  0.76236040904E+03  0.69842691766E+03 0.  0.
    5000001    2    3    3    0    0 -0.50547435630E+02 -0.10167435842E+03  0.14505843911E+03  0.23462038442E+03  0.14529988170E+03 0.  0.
        -13    1    4    4    0    0 -0.49223655794E+02 -0.13250691470E+03  0.11222684814E+03  0.18048802548E+03  0.10566000000E+00 0. -1.
     200003    1    4    4    0    0 -0.13237798360E+01  0.30832556278E+02  0.32831590963E+02  0.54132358944E+02  0.30000000000E+02 0. -1.
     200000    1    3    3    0    0  0.11464998067E+03 -0.43706677416E+02  0.11599414583E+03  0.52774002462E+03  0.50000000000E+03 0. -1.
    -200001    1    1    2    0    0 -0.64102545037E+02  0.14538103584E+03  0.31759215003E+03  0.78492646510E+03  0.70000000000E+03 0. -1.
<mgrwt>
<rscale>  0 0.14350146E+04</rscale>
<asrwt>0</asrwt>
<pdfrwt beam="1">  1        4 0.15185226E+00 0.14350146E+04</pdfrwt>
<pdfrwt beam="2">  1       -4 0.69188724E-01 0.14350146E+04</pdfrwt>
<totfact> 0.10805447E+00</totfact>
</mgrwt>
</event>
<event>
 8    1  0.1378634E-029  0.1794572E+04  0.7818608E-02  0.8709191E-01
          4   -1    0    0  501    0  0.00000000000E+00  0.00000000000E+00  0.95463702207E+03  0.95463786684E+03  0.12700000000E+01 0.  1.
         -4   -1    0    0    0  501 -0.00000000000E+00 -0.00000000000E+00 -0.84337876928E+03  0.84337972550E+03  0.12700000000E+01 0. -1.
     200001    2    1    2    0    0 -0.54882433028E+02  0.51875440279E+03 -0.15198872405E+03  0.88619678611E+03  0.70008996536E+03 0.  0.
    5000001    2    3    3    0    0 -0.54425484882E+01  0.15737371047E+03  0.75299536943E+02  0.22687875924E+03  0.14494083293E+03 0.  0.
        -13    1    4    4    0    0  0.29916947709E+02 -0.16236888784E+02  0.77905492589E+01  0.34919394889E+02  0.10566000000E+00 0. -1.
     200003    1    4    4    0    0 -0.35359496197E+02  0.17361059925E+03  0.67508987684E+02  0.19195936435E+03  0.30000000000E+02 0. -1.
     200000    1    3    3    0    0 -0.49439884540E+02  0.36138069232E+03 -0.22728826099E+03  0.65931802687E+03  0.50000000000E+03 0. -1.
    -200001    1    1    2    0    0  0.54882433028E+02 -0.51875440279E+03  0.26324697684E+03  0.91182080623E+03  0.70000000000E+03 0. -1.
<mgrwt>
<rscale>  0 0.17945721E+04</rscale>
<asrwt>0</asrwt>
<pdfrwt beam="1">  1        4 0.13637685E+00 0.17945721E+04</pdfrwt>
<pdfrwt beam="2">  1       -4 0.12048281E+00 0.17945721E+04</pdfrwt>
<totfact> 0.38186912E-01</totfact>
</mgrwt>
</event>
<event>
 8    1  0.1378634E-029  0.3191861E+04  0.7818608E-02  0.8190970E-01
         -4   -1    0    0    0  501 -0.00000000000E+00  0.00000000000E+00  0.11159008119E+04  0.11159015346E+04  0.12700000000E+01 0. -1.
          4   -1    0    0  501    0  0.00000000000E+00 -0.00000000000E+00 -0.22824538631E+04  0.22824542165E+04  0.12700000000E+01 0.  1.
     200001    2    1    2    0    0  0.21274043383E+03 -0.13458689344E+04 -0.10759495512E+03  0.15360953154E+04  0.70099248420E+03 0.  0.
    5000001    2    3    3    0    0  0.17268036263E+03 -0.53178037219E+03 -0.69783865276E+02  0.57913414852E+03  0.13385702167E+03 0.  0.
        -13    1    4    4    0    0  0.25614713109E+02 -0.10325079571E+03 -0.65753158072E+02  0.12506130218E+03  0.10566000000E+00 0. -1.
     200003    1    4    4    0    0  0.14706564952E+03 -0.42852957648E+03 -0.40307072045E+01  0.45407284634E+03  0.30000000000E+02 0. -1.
     200000    1    3    3    0    0  0.40060071206E+02 -0.81408856219E+03 -0.37811089845E+02  0.95696116688E+03  0.50000000000E+03 0.  1.
    -200001    1    1    2    0    0 -0.21274043383E+03  0.13458689344E+04 -0.10589580961E+04  0.18622604356E+04  0.70000000000E+03 0.  1.
<mgrwt>
<rscale>  0 0.31918609E+04</rscale>
<asrwt>0</asrwt>
<pdfrwt beam="1">  1        4 0.32606491E+00 0.31918609E+04</pdfrwt>
<pdfrwt beam="2">  1       -4 0.15941448E+00 0.31918609E+04</pdfrwt>
<totfact> 0.90335069E-03</totfact>
</mgrwt>
</event>
<event>
 8    1  0.1378634E-029  0.1461389E+04  0.7818608E-02  0.8910542E-01
         -4   -1    0    0    0  501 -0.00000000000E+00  0.00000000000E+00  0.11657181276E+04  0.11657188195E+04  0.12700000000E+01 0. -1.
          4   -1    0    0  501    0  0.00000000000E+00 -0.00000000000E+00 -0.45801192675E+03  0.45801368751E+03  0.12700000000E+01 0.  1.
     200001    2    1    2    0    0 -0.18458926043E+03  0.58874018957E+02  0.26689519236E+03  0.77411277413E+03  0.70034148684E+03 0.  0.
    5000001    2    3    3    0    0 -0.26870800754E+02  0.58938858319E+02  0.18551579580E+03  0.24354918425E+03  0.14388976928E+03 0.  0.
        -13    1    4    4    0    0 -0.74292322580E+02  0.40804833037E+02  0.56985131699E+02  0.10213569402E+03  0.10566000000E+00 0. -1.
     200003    1    4    4    0    0  0.47421521826E+02  0.18134025281E+02  0.12853066410E+03  0.14141349023E+03  0.30000000000E+02 0. -1.
     200000    1    3    3    0    0 -0.15771845967E+03 -0.64839361925E-01  0.81379396565E+02  0.53056358989E+03  0.50000000000E+03 0.  1.
    -200001    1    1    2    0    0  0.18458926043E+03 -0.58874018957E+02  0.44081100853E+03  0.84961973283E+03  0.70000000000E+03 0.  1.
<mgrwt>
<rscale>  0 0.14613895E+04</rscale>
<asrwt>0</asrwt>
<pdfrwt beam="1">  1        4 0.65430450E-01 0.14613895E+04</pdfrwt>
<pdfrwt beam="2">  1       -4 0.16653134E+00 0.14613895E+04</pdfrwt>
<totfact> 0.94790022E-01</totfact>
</mgrwt>
</event>
<event>
 8    1  0.1378634E-029  0.1458775E+04  0.7818608E-02  0.8912339E-01
          4   -1    0    0  501    0  0.00000000000E+00  0.00000000000E+00  0.67956841983E+03  0.67956960654E+03  0.12700000000E+01 0.  1.
         -4   -1    0    0    0  501 -0.00000000000E+00 -0.00000000000E+00 -0.78285646312E+03  0.78285749325E+03  0.12700000000E+01 0. -1.
     200001    2    1    2    0    0 -0.16483575481E+03 -0.67686286062E+02  0.57417786952E+02  0.72244154368E+03  0.69776265477E+03 0.  0.
    5000001    2    3    3    0    0 -0.12793524674E+03 -0.68196062701E+01  0.90755327213E+02  0.21630145260E+03  0.14878123064E+03 0.  0.
        -13    1    4    4    0    0  0.13066841730E+02  0.33835254678E+02  0.48709885042E+02  0.60730806654E+02  0.10566000000E+00 0. -1.
     200003    1    4    4    0    0 -0.14100208847E+03 -0.40654860948E+02  0.42045442171E+02  0.15557064595E+03  0.30000000000E+02 0. -1.
     200000    1    3    3    0    0 -0.36900508066E+02 -0.60866679792E+02 -0.33337540261E+02  0.50614009108E+03  0.50000000000E+03 0.  1.
    -200001    1    1    2    0    0  0.16483575481E+03  0.67686286062E+02 -0.16070583024E+03  0.73998555611E+03  0.70000000000E+03 0.  1.
<mgrwt>
<rscale>  0 0.14587750E+04</rscale>
<asrwt>0</asrwt>
<pdfrwt beam="1">  1        4 0.97081361E-01 0.14587750E+04</pdfrwt>
<pdfrwt beam="2">  1       -4 0.11183680E+00 0.14587750E+04</pdfrwt>
<totfact> 0.10873917E+00</totfact>
</mgrwt>
</event>
<event>
 8    1  0.1378634E-029  0.1903126E+04  0.7818608E-02  0.8653302E-01
         -4   -1    0    0    0  501 -0.00000000000E+00  0.00000000000E+00  0.10039567490E+04  0.10039575523E+04  0.12700000000E+01 0. -1.
          4   -1    0    0  501    0  0.00000000000E+00 -0.00000000000E+00 -0.90190214900E+03  0.90190304316E+03  0.12700000000E+01 0.  1.
     200001    2    1    2    0    0 -0.24878130387E+03  0.54430209728E+03  0.29101483979E+03  0.96572077472E+03  0.69983574322E+03 0.  0.
    5000001    2    3    3    0    0  0.26960272339E+02  0.11516339557E+03 -0.24028620076E+02  0.18505066273E+03  0.14027440689E+03 0.  0.
        -13    1    4    4    0    0  0.27982926495E+02  0.87120325302E+02 -0.75898400133E+02  0.11888470702E+03  0.10566000000E+00 0. -1.
     200003    1    4    4    0    0 -0.10226541565E+01  0.28043070268E+02  0.51869780057E+02  0.66165955708E+02  0.30000000000E+02 0. -1.
     200000    1    3    3    0    0 -0.27574157621E+03  0.42913870170E+03  0.31504345987E+03  0.78067011199E+03  0.50000000000E+03 0. -1.
    -200001    1    1    2    0    0  0.24878130387E+03 -0.54430209728E+03 -0.18896023980E+03  0.94013982071E+03  0.70000000000E+03 0.  1.
<mgrwt>
<rscale>  0 0.19031262E+04</rscale>
<asrwt>0</asrwt>
<pdfrwt beam="1">  1        4 0.12884328E+00 0.19031262E+04</pdfrwt>
<pdfrwt beam="2">  1       -4 0.14342251E+00 0.19031262E+04</pdfrwt>
<totfact> 0.28032398E-01</totfact>
</mgrwt>
</event>
<event>
 8    1  0.1378634E-029  0.1665066E+04  0.7818608E-02  0.8781543E-01
          4   -1    0    0  501    0  0.00000000000E+00  0.00000000000E+00  0.32438753859E+03  0.32439002465E+03  0.12700000000E+01 0.  1.
         -4   -1    0    0    0  501 -0.00000000000E+00 -0.00000000000E+00 -0.21366649102E+04  0.21366652876E+04  0.12700000000E+01 0. -1.
     200001    2    1    2    0    0 -0.39662529653E+03 -0.50719858082E+02 -0.59995036885E+03  0.10051635266E+04  0.70037785542E+03 0.  0.
    5000001    2    3    3    0    0  0.23386282817E+01 -0.63549980131E+02 -0.13945194267E+03  0.21687701411E+03  0.15344290722E+03 0.  0.
        -13    1    4    4    0    0 -0.13756829526E+02 -0.91720643220E+02 -0.27838531945E+02  0.96834507156E+02  0.10566000000E+00 0. -1.
     200003    1    4    4    0    0  0.16095457808E+02  0.28170663089E+02 -0.11161341073E+03  0.12004250695E+03  0.30000000000E+02 0. -1.
     200000    1    3    3    0    0 -0.39896392482E+03  0.12830122049E+02 -0.46049842617E+03  0.78828651253E+03  0.50000000000E+03 0.  1.
    -200001    1    1    2    0    0  0.39662529653E+03  0.50719858082E+02 -0.12123270027E+04  0.14558917856E+04  0.70000000000E+03 0. -1.
<mgrwt>
<rscale>  0 0.16650658E+04</rscale>
<asrwt>0</asrwt>
<pdfrwt beam="1">  1        4 0.46341283E-01 0.16650658E+04</pdfrwt>
<pdfrwt beam="2">  1       -4 0.30523804E+00 0.16650658E+04</pdfrwt>
<totfact> 0.24964243E-01</totfact>
</mgrwt>
</event>
<event>
 8    1  0.1378634E-029  0.1484392E+04  0.7818608E-02  0.8894899E-01
          4   -1    0    0  501    0  0.00000000000E+00  0.00000000000E+00  0.78666442967E+03  0.78666545482E+03  0.12700000000E+01 0.  1.
         -4   -1    0    0    0  501 -0.00000000000E+00 -0.00000000000E+00 -0.70023879659E+03  0.70023994827E+03  0.12700000000E+01 0. -1.
     200001    2    1    2    0    0 -0.25489101997E+02  0.23749044805E+03  0.79270952275E+02  0.74724156276E+03  0.70358699676E+03 0.  0.
    5000001    2    3    3    0    0 -0.37558007907E+02  0.13574741027E+03  0.48465931562E+02  0.23592340982E+03  0.18295612978E+03 0.  0.
        -13    1    4    4    0    0 -0.82009294254E+01  0.17358073860E+03  0.29133953580E+02  0.17619967784E+03  0.10566000000E+00 0. -1.
     200003    1    4    4    0    0 -0.29357078481E+02 -0.37833328323E+02  0.19331977981E+02  0.59723731980E+02  0.30000000000E+02 0. -1.
     200000    1    3    3    0    0  0.12068905909E+02  0.10174303777E+03  0.30805020714E+02  0.51131815294E+03  0.50000000000E+03 0. -1.
    -200001    1    1    2    0    0  0.25489101997E+02 -0.23749044805E+03  0.71546807992E+01  0.73966384033E+03  0.70000000000E+03 0. -1.
<mgrwt>
<rscale>  0 0.14843916E+04</rscale>
<asrwt>0</asrwt>
<pdfrwt beam="1">  1        4 0.11238079E+00 0.14843916E+04</pdfrwt>
<pdfrwt beam="2">  1       -4 0.10003427E+00 0.14843916E+04</pdfrwt>
<totfact> 0.99913296E-01</totfact>
</mgrwt>
</event>
<event>
 8    1  0.1378634E-029  0.2309145E+04  0.7818608E-02  0.8474324E-01
         -4   -1    0    0    0  501 -0.00000000000E+00  0.00000000000E+00  0.14421880595E+04  0.14421886187E+04  0.12700000000E+01 0. -1.
          4   -1    0    0  501    0  0.00000000000E+00 -0.00000000000E+00 -0.92431487384E+03  0.92431574632E+03  0.12700000000E+01 0.  1.
     200001    2    1    2    0    0  0.33031891203E+03  0.66340124351E+03  0.81301211733E+03  0.13052226952E+04  0.70242849294E+03 0.  0.
    5000001    2    3    3    0    0  0.11152360492E+03  0.22525584516E+03  0.30724312669E+03  0.44171528449E+03  0.19374298290E+03 0.  0.
        -13    1    4    4    0    0  0.26086539214E+02  0.21578287052E+03  0.16524509926E+03  0.27303609420E+03  0.10566000000E+00 0. -1.
     200003    1    4    4    0    0  0.85437065710E+02  0.94729746318E+01  0.14199802743E+03  0.16867919029E+03  0.30000000000E+02 0. -1.
     200000    1    3    3    0    0  0.21879530710E+03  0.43814539836E+03  0.50576899064E+03  0.86350741074E+03  0.50000000000E+03 0. -1.
    -200001    1    1    2    0    0 -0.33031891203E+03 -0.66340124351E+03 -0.29513893170E+03  0.10612816697E+04  0.70000000000E+03 0.  1.
<mgrwt>
<rscale>  0 0.23091449E+04</rscale>
<asrwt>0</asrwt>
<pdfrwt beam="1">  1        4 0.13204508E+00 0.23091449E+04</pdfrwt>
<pdfrwt beam="2">  1       -4 0.20602697E+00 0.23091449E+04</pdfrwt>
<totfact> 0.91196824E-02</totfact>
</mgrwt>
</event>
<event>
 8    1  0.1378634E-029  0.1910459E+04  0.7818608E-02  0.8649668E-01
          4   -1    0    0  501    0  0.00000000000E+00  0.00000000000E+00  0.17681772653E+04  0.17681777214E+04  0.12700000000E+01 0.  1.
         -4   -1    0    0    0  501 -0.00000000000E+00 -0.00000000000E+00 -0.51604623262E+03  0.51604779537E+03  0.12700000000E+01 0. -1.
     200001    2    1    2    0    0 -0.40023289341E+03  0.31824721234E+03  0.14872232293E+03  0.88102259563E+03  0.70186524884E+03 0.  0.
    5000001    2    3    3    0    0  0.62687826898E+01 -0.56108487577E+02  0.30032821465E+02  0.12638824676E+03  0.10901632235E+03 0.  0.
        -13    1    4    4    0    0 -0.17900515686E+02 -0.28712216086E+01  0.53594367704E+02  0.56577732271E+02  0.10566000000E+00 0. -1.
     200003    1    4    4    0    0  0.24169298376E+02 -0.53237265968E+02 -0.23561546239E+02  0.69810514487E+02  0.30000000000E+02 0. -1.
     200000    1    3    3    0    0 -0.40650167610E+03  0.37435569992E+03  0.11868950147E+03  0.75463434887E+03  0.50000000000E+03 0. -1.
    -200001    1    1    2    0    0  0.40023289341E+03 -0.31824721234E+03  0.11034087098E+04  0.14032029211E+04  0.70000000000E+03 0.  1.
<mgrwt>
<rscale>  0 0.19104591E+04</rscale>
<asrwt>0</asrwt>
<pdfrwt beam="1">  1        4 0.25259690E+00 0.19104591E+04</pdfrwt>
<pdfrwt beam="2">  1       -4 0.73721034E-01 0.19104591E+04</pdfrwt>
<totfact> 0.19153276E-01</totfact>
</mgrwt>
</event>
<event>
 8    1  0.1378634E-029  0.1763182E+04  0.7818608E-02  0.8726128E-01
         -4   -1    0    0    0  501 -0.00000000000E+00  0.00000000000E+00  0.52664251306E+03  0.52664404437E+03  0.12700000000E+01 0. -1.
          4   -1    0    0  501    0  0.00000000000E+00 -0.00000000000E+00 -0.14757645059E+04  0.14757650524E+04  0.12700000000E+01 0.  1.
     200001    2    1    2    0    0 -0.14261483057E+03 -0.29027906953E+03 -0.95960690772E+03  0.12312341091E+04  0.70035068782E+03 0.  0.
    5000001    2    3    3    0    0  0.61196769338E+01 -0.11976079489E+03 -0.32273523503E+03  0.39051776978E+03  0.18429866561E+03 0.  0.
        -13    1    4    4    0    0  0.26075512487E+02  0.44511142331E+02 -0.70521494221E+02  0.87375433929E+02  0.10566000000E+00 0. -1.
     200003    1    4    4    0    0 -0.19955835553E+02 -0.16427193722E+03 -0.25221374081E+03  0.30314233585E+03  0.30000000000E+02 0. -1.
     200000    1    3    3    0    0 -0.14873450750E+03 -0.17051827464E+03 -0.63687167269E+03  0.84071633931E+03  0.50000000000E+03 0.  1.
    -200001    1    1    2    0    0  0.14261483057E+03  0.29027906953E+03  0.10484914896E+02  0.77117498763E+03  0.70000000000E+03 0. -1.
<mgrwt>
<rscale>  0 0.17631817E+04</rscale>
<asrwt>0</asrwt>
<pdfrwt beam="1">  1        4 0.21082365E+00 0.17631817E+04</pdfrwt>
<pdfrwt beam="2">  1       -4 0.75234794E-01 0.17631817E+04</pdfrwt>
<totfact> 0.33986563E-01</totfact>
</mgrwt>
</event>
<event>
 8    1  0.1378634E-029  0.1911058E+04  0.7818608E-02  0.8649372E-01
          4   -1    0    0  501    0  0.00000000000E+00  0.00000000000E+00  0.56014084715E+03  0.56014228688E+03  0.12700000000E+01 0.  1.
         -4   -1    0    0    0  501 -0.00000000000E+00 -0.00000000000E+00 -0.16300066089E+04  0.16300071036E+04  0.12700000000E+01 0. -1.
     200001    2    1    2    0    0 -0.63026710950E+03 -0.96690740483E+02 -0.39307631113E+03  0.10262637909E+04  0.70151454260E+03 0.  0.
    5000001    2    3    3    0    0 -0.27825074897E+03  0.19872931589E+02 -0.11094390898E+03  0.34281569477E+03  0.16551627391E+03 0.  0.
        -13    1    4    4    0    0 -0.23925871966E+03 -0.29308609563E+02 -0.12547572403E+03  0.27174969736E+03  0.10566000000E+00 0. -1.
     200003    1    4    4    0    0 -0.38992029301E+02  0.49181541152E+02  0.14531815049E+02  0.71065997409E+02  0.30000000000E+02 0. -1.
     200000    1    3    3    0    0 -0.35201636053E+03 -0.11656367207E+03 -0.28213240214E+03  0.68344809610E+03  0.50000000000E+03 0. -1.
    -200001    1    1    2    0    0  0.63026710950E+03  0.96690740483E+02 -0.67678945062E+03  0.11638855997E+04  0.70000000000E+03 0. -1.
<mgrwt>
<rscale>  0 0.19110577E+04</rscale>
<asrwt>0</asrwt>
<pdfrwt beam="1">  1        4 0.80020260E-01 0.19110577E+04</pdfrwt>
<pdfrwt beam="2">  1       -4 0.23285822E+00 0.19110577E+04</pdfrwt>
<totfact> 0.21147972E-01</totfact>
</mgrwt>
</event>
<event>
 8    1  0.1378634E-029  0.1618960E+04  0.7818608E-02  0.8808984E-01
          4   -1    0    0  501    0  0.00000000000E+00  0.00000000000E+00  0.44156089172E+03  0.44156271808E+03  0.12700000000E+01 0.  1.
         -4   -1    0    0    0  501 -0.00000000000E+00 -0.00000000000E+00 -0.14839534781E+04  0.14839540216E+04  0.12700000000E+01 0. -1.
     200001    2    1    2    0    0 -0.23306351270E+03 -0.12900102340E+03 -0.88478630628E+03  0.11601412733E+04  0.70151343621E+03 0.  0.
    5000001    2    3    3    0    0  0.37692720561E+02 -0.68055969214E+02 -0.31825123935E+03  0.35516598201E+03  0.13713740300E+03 0.  0.
        -13    1    4    4    0    0  0.75040488039E+02 -0.77753070479E+02 -0.23442787328E+03  0.25813379040E+03  0.10566000000E+00 0. -1.
     200003    1    4    4    0    0 -0.37347767478E+02  0.96971012649E+01 -0.83823366077E+02  0.97032191612E+02  0.30000000000E+02 0. -1.
     200000    1    3    3    0    0 -0.27075623326E+03 -0.60945054188E+02 -0.56653506693E+03  0.80497529126E+03  0.50000000000E+03 0.  1.
    -200001    1    1    2    0    0  0.23306351270E+03  0.12900102340E+03 -0.15760628011E+03  0.76537546637E+03  0.70000000000E+03 0.  1.
<mgrwt>
<rscale>  0 0.16189603E+04</rscale>
<asrwt>0</asrwt>
<pdfrwt beam="1">  1        4 0.63080297E-01 0.16189603E+04</pdfrwt>
<pdfrwt beam="2">  1       -4 0.21199352E+00 0.16189603E+04</pdfrwt>
<totfact> 0.49814465E-01</totfact>
</mgrwt>
</event>
<event>
 8    1  0.1378634E-029  0.2012221E+04  0.7818608E-02  0.8600928E-01
          4   -1    0    0  501    0  0.00000000000E+00  0.00000000000E+00  0.12866763965E+04  0.12866770233E+04  0.12700000000E+01 0.  1.
         -4   -1    0    0    0  501 -0.00000000000E+00 -0.00000000000E+00 -0.78672186650E+03  0.78672289158E+03  0.12700000000E+01 0. -1.
     200001    2    1    2    0    0  0.28230758881E+03 -0.36554650522E+03 -0.32256930146E+03  0.89872239506E+03  0.70023507979E+03 0.  0.
    5000001    2    3    3    0    0  0.12203331621E+03 -0.19141115605E+03 -0.16388780646E+03  0.32323062350E+03  0.16151923085E+03 0.  0.
        -13    1    4    4    0    0  0.32944973547E+02 -0.15653194659E+03 -0.15472344862E+03  0.22254657557E+03  0.10566000000E+00 0. -1.
     200003    1    4    4    0    0  0.89088342663E+02 -0.34879209467E+02 -0.91643578440E+01  0.10068404792E+03  0.30000000000E+02 0. -1.
     200000    1    3    3    0    0  0.16027427260E+03 -0.17413534916E+03 -0.15868149500E+03  0.57549177156E+03  0.50000000000E+03 0. -1.
    -200001    1    1    2    0    0 -0.28230758881E+03  0.36554650522E+03  0.82252383145E+03  0.11746775198E+04  0.70000000000E+03 0.  1.
<mgrwt>
<rscale>  0 0.20122208E+04</rscale>
<asrwt>0</asrwt>
<pdfrwt beam="1">  1        4 0.18381103E+00 0.20122208E+04</pdfrwt>
<pdfrwt beam="2">  1       -4 0.11238896E+00 0.20122208E+04</pdfrwt>
<totfact> 0.19703300E-01</totfact>
</mgrwt>
</event>
<event>
 8    1  0.1378634E-029  0.1761821E+04  0.7818608E-02  0.8726871E-01
          4   -1    0    0  501    0  0.00000000000E+00  0.00000000000E+00  0.11799209852E+04  0.11799216687E+04  0.12700000000E+01 0.  1.
         -4   -1    0    0    0  501 -0.00000000000E+00 -0.00000000000E+00 -0.65767214050E+03  0.65767336672E+03  0.12700000000E+01 0. -1.
     200001    2    1    2    0    0  0.32605616935E+03 -0.18221615263E+03  0.66005766940E+03  0.10322959456E+04  0.70031667158E+03 0.  0.
    5000001    2    3    3    0    0  0.35360391984E+02 -0.63433621194E+02  0.11151610039E+03  0.22637338251E+03  0.18312532879E+03 0.  0.
        -13    1    4    4    0    0  0.20116230391E+02  0.60858748028E+02  0.59630730111E+02  0.87545902670E+02  0.10566000000E+00 0. -1.
     200003    1    4    4    0    0  0.15244161594E+02 -0.12429236922E+03  0.51885370280E+02  0.13882747984E+03  0.30000000000E+02 0. -1.
     200000    1    3    3    0    0  0.29069577736E+03 -0.11878253143E+03  0.54854156901E+03  0.80592256308E+03  0.50000000000E+03 0.  1.
    -200001    1    1    2    0    0 -0.32605616935E+03  0.18221615263E+03 -0.13780882472E+03  0.80529908979E+03  0.70000000000E+03 0. -1.
<mgrwt>
<rscale>  0 0.17618206E+04</rscale>
<asrwt>0</asrwt>
<pdfrwt beam="1">  1        4 0.16856027E+00 0.17618206E+04</pdfrwt>
<pdfrwt beam="2">  1       -4 0.93953301E-01 0.17618206E+04</pdfrwt>
<totfact> 0.39551733E-01</totfact>
</mgrwt>
</event>
<event>
 8    1  0.1378634E-029  0.1577707E+04  0.7818608E-02  0.8834362E-01
          4   -1    0    0  501    0  0.00000000000E+00  0.00000000000E+00  0.40578004188E+03  0.40578202928E+03  0.12700000000E+01 0.  1.
         -4   -1    0    0    0  501 -0.00000000000E+00 -0.00000000000E+00 -0.15335579974E+04  0.15335585233E+04  0.12700000000E+01 0. -1.
     200001    2    1    2    0    0  0.22430137324E+03  0.47886138585E+01 -0.21051650758E+03  0.76388208848E+03  0.69918853557E+03 0.  0.
    5000001    2    3    3    0    0  0.66458742052E+02 -0.10384573934E+03  0.19314738994E+02  0.18118309172E+03  0.13135277541E+03 0.  0.
        -13    1    4    4    0    0  0.45451829440E+02 -0.12820918388E+03  0.11561897002E+02  0.13651795581E+03  0.10566000000E+00 0. -1.
     200003    1    4    4    0    0  0.21006912612E+02  0.24363444541E+02  0.77528419913E+01  0.44665135915E+02  0.30000000000E+02 0. -1.
     200000    1    3    3    0    0  0.15784263119E+03  0.10863435320E+03 -0.22983124657E+03  0.58269899675E+03  0.50000000000E+03 0.  1.
    -200001    1    1    2    0    0 -0.22430137324E+03 -0.47886138585E+01 -0.91726144793E+03  0.11754584641E+04  0.70000000000E+03 0. -1.
<mgrwt>
<rscale>  0 0.15777068E+04</rscale>
<asrwt>0</asrwt>
<pdfrwt beam="1">  1        4 0.57968758E-01 0.15777068E+04</pdfrwt>
<pdfrwt beam="2">  1       -4 0.21907989E+00 0.15777068E+04</pdfrwt>
<totfact> 0.53981576E-01</totfact>
</mgrwt>
</event>
<event>
 8    1  0.1378634E-029  0.1514445E+04  0.7818608E-02  0.8874903E-01
          4   -1    0    0  501    0  0.00000000000E+00  0.00000000000E+00  0.87826490479E+03  0.87826582302E+03  0.12700000000E+01 0.  1.
         -4   -1    0    0    0  501 -0.00000000000E+00 -0.00000000000E+00 -0.65286058173E+03  0.65286181699E+03  0.12700000000E+01 0. -1.
     200001    2    1    2    0    0  0.81907064806E+02  0.24727718585E+03 -0.13300953100E+02  0.74701350114E+03  0.69999820116E+03 0.  0.
    5000001    2    3    3    0    0 -0.32667168216E+02  0.32049216922E+02 -0.19536381779E+02  0.19069595329E+03  0.18408959830E+03 0.  0.
        -13    1    4    4    0    0 -0.66677079925E+02  0.68607536155E+02 -0.65963337246E+02  0.11620671250E+03  0.10566000000E+00 0. -1.
     200003    1    4    4    0    0  0.34009911709E+02 -0.36558319232E+02  0.46426955467E+02  0.74489240790E+02  0.30000000000E+02 0. -1.
     200000    1    3    3    0    0  0.11457423302E+03  0.21522796893E+03  0.62354286791E+01  0.55631754786E+03  0.50000000000E+03 0.  1.
    -200001    1    1    2    0    0 -0.81907064806E+02 -0.24727718585E+03  0.23870527616E+03  0.78411413887E+03  0.70000000000E+03 0.  1.
<mgrwt>
<rscale>  0 0.15144454E+04</rscale>
<asrwt>0</asrwt>
<pdfrwt beam="1">  1        4 0.12546657E+00 0.15144454E+04</pdfrwt>
<pdfrwt beam="2">  1       -4 0.93265951E-01 0.15144454E+04</pdfrwt>
<totfact> 0.89497166E-01</totfact>
</mgrwt>
</event>
<event>
 8    1  0.1378634E-029  0.1583444E+04  0.7818608E-02  0.8830784E-01
          4   -1    0    0  501    0  0.00000000000E+00  0.00000000000E+00  0.51598008905E+03  0.51598165200E+03  0.12700000000E+01 0.  1.
         -4   -1    0    0    0  501 -0.00000000000E+00 -0.00000000000E+00 -0.12148173766E+04  0.12148180404E+04  0.12700000000E+01 0. -1.
     200001    2    1    2    0    0 -0.23752067058E+03  0.13571385313E+02 -0.65388713971E+03  0.99011030594E+03  0.70437899955E+03 0.  0.
    5000001    2    3    3    0    0 -0.37184700055E+02  0.67888045218E+02 -0.33002221394E+03  0.35925906296E+03  0.11899968076E+03 0.  0.
        -13    1    4    4    0    0 -0.60723458718E+02  0.13899675992E+02 -0.84403847063E+02  0.10490262148E+03  0.10566000000E+00 0. -1.
     200003    1    4    4    0    0  0.23538758663E+02  0.53988369225E+02 -0.24561836688E+03  0.25435644147E+03  0.30000000000E+02 0. -1.
     200000    1    3    3    0    0 -0.20033597053E+03 -0.54316659905E+02 -0.32386492577E+03  0.63085124299E+03  0.50000000000E+03 0.  1.
    -200001    1    1    2    0    0  0.23752067058E+03 -0.13571385313E+02 -0.44950147814E+02  0.74068938648E+03  0.70000000000E+03 0.  1.
<mgrwt>
<rscale>  0 0.15834437E+04</rscale>
<asrwt>0</asrwt>
<pdfrwt beam="1">  1        4 0.73711601E-01 0.15834437E+04</pdfrwt>
<pdfrwt beam="2">  1       -4 0.17354550E+00 0.15834437E+04</pdfrwt>
<totfact> 0.64348783E-01</totfact>
</mgrwt>
</event>
<event>
 8    1  0.1378634E-029  0.1592056E+04  0.7818608E-02  0.8825443E-01
          4   -1    0    0  501    0  0.00000000000E+00  0.00000000000E+00  0.22234722977E+04  0.22234726604E+04  0.12700000000E+01 0.  1.
         -4   -1    0    0    0  501 -0.00000000000E+00 -0.00000000000E+00 -0.28498514310E+03  0.28498797289E+03  0.12700000000E+01 0. -1.
     200001    2    1    2    0    0  0.63542333036E+02  0.95974906529E+02  0.15378469502E+04  0.16937451098E+04  0.70039306391E+03 0.  0.
    5000001    2    3    3    0    0  0.32331959242E+02 -0.10380887437E+02  0.38729343632E+03  0.43435675404E+03  0.19369167651E+03 0.  0.
        -13    1    4    4    0    0  0.33650074349E+02 -0.88551971307E+02  0.11241921162E+03  0.14700975965E+03  0.10566000000E+00 0. -1.
     200003    1    4    4    0    0 -0.13181151071E+01  0.78171083870E+02  0.27487422470E+03  0.28734699439E+03  0.30000000000E+02 0. -1.
     200000    1    3    3    0    0  0.31210373794E+02  0.10635579397E+03  0.11505535139E+04  0.12593883558E+04  0.50000000000E+03 0.  1.
    -200001    1    1    2    0    0 -0.63542333036E+02 -0.95974906529E+02  0.40064020434E+03  0.81471552342E+03  0.70000000000E+03 0. -1.
<mgrwt>
<rscale>  0 0.15920560E+04</rscale>
<asrwt>0</asrwt>
<pdfrwt beam="1">  1        4 0.31763914E+00 0.15920560E+04</pdfrwt>
<pdfrwt beam="2">  1       -4 0.40712390E-01 0.15920560E+04</pdfrwt>
<totfact> 0.27361682E-01</totfact>
</mgrwt>
</event>
<event>
 8    1  0.1378634E-029  0.1811516E+04  0.7818608E-02  0.8700199E-01
         -4   -1    0    0    0  501 -0.00000000000E+00  0.00000000000E+00  0.38155627862E+04  0.38155629976E+04  0.12700000000E+01 0. -1.
          4   -1    0    0  501    0  0.00000000000E+00 -0.00000000000E+00 -0.21501137255E+03  0.21501512325E+03  0.12700000000E+01 0.  1.
     200001    2    1    2    0    0  0.85482451164E+02  0.13841640240E+03  0.57645456980E+03  0.92226216664E+03  0.70128545049E+03 0.  0.
    5000001    2    3    3    0    0 -0.17314466949E+02  0.68347920573E+02  0.12642806249E+03  0.23815643228E+03  0.18911161317E+03 0.  0.
        -13    1    4    4    0    0 -0.61009295941E+02  0.60960003307E+02  0.15508406738E+03  0.17745234660E+03  0.10566000000E+00 0. -1.
     200003    1    4    4    0    0  0.43694828992E+02  0.73879172663E+01 -0.28656004884E+02  0.60704085679E+02  0.30000000000E+02 0. -1.
     200000    1    3    3    0    0  0.10279691811E+03  0.70068481829E+02  0.45002650730E+03  0.68410573437E+03  0.50000000000E+03 0.  1.
    -200001    1    1    2    0    0 -0.85482451164E+02 -0.13841640240E+03  0.30240968439E+04  0.31083159542E+04  0.70000000000E+03 0. -1.
<mgrwt>
<rscale>  0 0.18115158E+04</rscale>
<asrwt>0</asrwt>
<pdfrwt beam="1">  1        4 0.30716195E-01 0.18115158E+04</pdfrwt>
<pdfrwt beam="2">  1       -4 0.54508065E+00 0.18115158E+04</pdfrwt>
<totfact> 0.10123741E-02</totfact>
</mgrwt>
</event>
<event>
 8    1  0.1378634E-029  0.1923927E+04  0.7818608E-02  0.8643037E-01
         -4   -1    0    0    0  501 -0.00000000000E+00  0.00000000000E+00  0.55710496164E+03  0.55710640921E+03  0.12700000000E+01 0. -1.
          4   -1    0    0  501    0  0.00000000000E+00 -0.00000000000E+00 -0.16610371501E+04  0.16610376356E+04  0.12700000000E+01 0.  1.
     200001    2    1    2    0    0  0.77223657163E+02  0.64568479750E+03 -0.42635417491E+03  0.10468267029E+04  0.70085370267E+03 0.  0.
    5000001    2    3    3    0    0  0.14676137389E+02  0.23917697013E+03 -0.15592807643E+03  0.34519212519E+03  0.19345031978E+03 0.  0.
        -13    1    4    4    0    0 -0.33400937778E+02  0.11135985555E+03 -0.16860407464E+03  0.20480230766E+03  0.10566000000E+00 0. -1.
     200003    1    4    4    0    0  0.48077075168E+02  0.12781711457E+03  0.12675998208E+02  0.14038981753E+03  0.30000000000E+02 0. -1.
     200000    1    3    3    0    0  0.62547519774E+02  0.40650782737E+03 -0.27042609848E+03  0.70163457774E+03  0.50000000000E+03 0.  1.
    -200001    1    1    2    0    0 -0.77223657163E+02 -0.64568479750E+03 -0.67757801354E+03  0.11713173419E+04  0.70000000000E+03 0. -1.
<mgrwt>
<rscale>  0 0.19239274E+04</rscale>
<asrwt>0</asrwt>
<pdfrwt beam="1">  1        4 0.23729116E+00 0.19239274E+04</pdfrwt>
<pdfrwt beam="2">  1       -4 0.79586562E-01 0.19239274E+04</pdfrwt>
<totfact> 0.20059551E-01</totfact>
</mgrwt>
</event>
<event>
 8    1  0.1378634E-029  0.1720206E+04  0.7818608E-02  0.8749924E-01
         -4   -1    0    0    0  501 -0.00000000000E+00  0.00000000000E+00  0.75608198731E+03  0.75608305393E+03  0.12700000000E+01 0. -1.
          4   -1    0    0  501    0  0.00000000000E+00 -0.00000000000E+00 -0.97843241683E+03  0.97843324106E+03  0.12700000000E+01 0.  1.
     200001    2    1    2    0    0 -0.13388417510E+03 -0.30403202854E+03  0.26503715651E+03  0.81914363550E+03  0.70027934036E+03 0.  0.
    5000001    2    3    3    0    0 -0.20101517497E+02 -0.77297291182E+02  0.88234327505E+02  0.23125387148E+03  0.19827787142E+03 0.  0.
        -13    1    4    4    0    0 -0.36504172473E+02 -0.46741008877E+02 -0.54984049164E+02  0.80873563946E+02  0.10566000000E+00 0. -1.
     200003    1    4    4    0    0  0.16402654976E+02 -0.30556282305E+02  0.14321837667E+03  0.15038030753E+03  0.30000000000E+02 0. -1.
     200000    1    3    3    0    0 -0.11378265760E+03 -0.22673473735E+03  0.17680282900E+03  0.58788976402E+03  0.50000000000E+03 0. -1.
    -200001    1    1    2    0    0  0.13388417510E+03  0.30403202854E+03 -0.48738758603E+03  0.91537265949E+03  0.70000000000E+03 0. -1.
<mgrwt>
<rscale>  0 0.17202055E+04</rscale>
<asrwt>0</asrwt>
<pdfrwt beam="1">  1        4 0.13977619E+00 0.17202055E+04</pdfrwt>
<pdfrwt beam="2">  1       -4 0.10801185E+00 0.17202055E+04</pdfrwt>
<totfact> 0.47102471E-01</totfact>
</mgrwt>
</event>
<event>
 8    1  0.1378634E-029  0.1695271E+04  0.7818608E-02  0.8764066E-01
          4   -1    0    0  501    0  0.00000000000E+00  0.00000000000E+00  0.22170282164E+04  0.22170285801E+04  0.12700000000E+01 0.  1.
         -4   -1    0    0    0  501 -0.00000000000E+00 -0.00000000000E+00 -0.32407441667E+03  0.32407690513E+03  0.12700000000E+01 0. -1.
     200001    2    1    2    0    0 -0.94817399723E+02  0.32482430890E+03  0.14534939982E+04  0.16480063373E+04  0.69912725165E+03 0.  0.
    5000001    2    3    3    0    0 -0.63312633797E+02  0.43629596263E+02  0.31505263583E+03  0.37281546834E+03  0.18390535290E+03 0.  0.
        -13    1    4    4    0    0 -0.40770810131E+02  0.22913923699E+01 -0.10780093743E+02  0.42234239935E+02  0.10566000000E+00 0. -1.
     200003    1    4    4    0    0 -0.22541823666E+02  0.41338203893E+02  0.32583272957E+03  0.33058122840E+03  0.30000000000E+02 0. -1.
     200000    1    3    3    0    0 -0.31504765926E+02  0.28119471264E+03  0.11384413624E+04  0.12751908690E+04  0.50000000000E+03 0.  1.
    -200001    1    1    2    0    0  0.94817399723E+02 -0.32482430890E+03  0.43945980147E+03  0.89309914794E+03  0.70000000000E+03 0. -1.
<mgrwt>
<rscale>  0 0.16952708E+04</rscale>
<asrwt>0</asrwt>
<pdfrwt beam="1">  1        4 0.31671853E+00 0.16952708E+04</pdfrwt>
<pdfrwt beam="2">  1       -4 0.46296547E-01 0.16952708E+04</pdfrwt>
<totfact> 0.21141453E-01</totfact>
</mgrwt>
</event>
<event>
 8    1  0.1378634E-029  0.1617159E+04  0.7818608E-02  0.8810075E-01
         -4   -1    0    0    0  501 -0.00000000000E+00  0.00000000000E+00  0.16997472230E+04  0.16997476975E+04  0.12700000000E+01 0. -1.
          4   -1    0    0  501    0  0.00000000000E+00 -0.00000000000E+00 -0.38464437839E+03  0.38464647500E+03  0.12700000000E+01 0.  1.
     200001    2    1    2    0    0  0.55282935215E+02  0.31928434394E+03  0.97025038755E+03  0.12394551733E+04  0.69990329105E+03 0.  0.
    5000001    2    3    3    0    0  0.21930454238E+02  0.18693233941E+03  0.37148767597E+03  0.44752952913E+03  0.16387477446E+03 0.  0.
        -13    1    4    4    0    0  0.25340530695E+02  0.16488771482E+03  0.15460520765E+03  0.22744863682E+03  0.10566000000E+00 0. -1.
     200003    1    4    4    0    0 -0.34100764571E+01  0.22044624591E+02  0.21688246832E+03  0.22008089231E+03  0.30000000000E+02 0. -1.
     200000    1    3    3    0    0  0.33352480977E+02  0.13235200453E+03  0.59876271157E+03  0.79192564415E+03  0.50000000000E+03 0. -1.
    -200001    1    1    2    0    0 -0.55282935215E+02 -0.31928434394E+03  0.34485245711E+03  0.84493899921E+03  0.70000000000E+03 0.  1.
<mgrwt>
<rscale>  0 0.16171591E+04</rscale>
<asrwt>0</asrwt>
<pdfrwt beam="1">  1        4 0.54949382E-01 0.16171591E+04</pdfrwt>
<pdfrwt beam="2">  1       -4 0.24282121E+00 0.16171591E+04</pdfrwt>
<totfact> 0.42743857E-01</totfact>
</mgrwt>
</event>
<event>
 8    1  0.1378634E-029  0.1514505E+04  0.7818608E-02  0.8874864E-01
          4   -1    0    0  501    0  0.00000000000E+00  0.00000000000E+00  0.10134686401E+04  0.10134694358E+04  0.12700000000E+01 0.  1.
         -4   -1    0    0    0  501 -0.00000000000E+00 -0.00000000000E+00 -0.56580907574E+03  0.56581050104E+03  0.12700000000E+01 0. -1.
     200001    2    1    2    0    0 -0.25750548467E+03  0.12254319602E+03  0.26704040622E+03  0.80213825749E+03  0.70056355604E+03 0.  0.
    5000001    2    3    3    0    0 -0.10952569984E+03 -0.11320869152E+02  0.84317858855E+02  0.23362692605E+03  0.18801063334E+03 0.  0.
        -13    1    4    4    0    0  0.25324404096E+02  0.36330046524E+02 -0.25250751862E+02  0.50978518583E+02  0.10566000000E+00 0. -1.
     200003    1    4    4    0    0 -0.13485010394E+03 -0.47650915676E+02  0.10956861072E+03  0.18264840747E+03  0.30000000000E+02 0. -1.
     200000    1    3    3    0    0 -0.14797978483E+03  0.13386406517E+03  0.18272254736E+03  0.56851133144E+03  0.50000000000E+03 0.  1.
    -200001    1    1    2    0    0  0.25750548467E+03 -0.12254319602E+03  0.18061915812E+03  0.77714167937E+03  0.70000000000E+03 0.  1.
<mgrwt>
<rscale>  0 0.15145052E+04</rscale>
<asrwt>0</asrwt>
<pdfrwt beam="1">  1        4 0.14478139E+00 0.15145052E+04</pdfrwt>
<pdfrwt beam="2">  1       -4 0.80830027E-01 0.15145052E+04</pdfrwt>
<totfact> 0.86107965E-01</totfact>
</mgrwt>
</event>
<event>
 8    1  0.1378634E-029  0.1795490E+04  0.7818608E-02  0.8708702E-01
          4   -1    0    0  501    0  0.00000000000E+00  0.00000000000E+00  0.10321654990E+04  0.10321662803E+04  0.12700000000E+01 0.  1.
         -4   -1    0    0    0  501 -0.00000000000E+00 -0.00000000000E+00 -0.78082829482E+03  0.78082932763E+03  0.12700000000E+01 0. -1.
     200001    2    1    2    0    0 -0.52175732965E+03  0.20276041909E+03  0.17908279099E+03  0.91379418509E+03  0.69971899223E+03 0.  0.
    5000001    2    3    3    0    0 -0.83838124016E+02  0.16350803278E+02  0.64495644075E+02  0.21404280798E+03  0.18536034025E+03 0.  0.
        -13    1    4    4    0    0 -0.13152366724E+03  0.23643988566E+02  0.79168293685E+01  0.13386635347E+03  0.10566000000E+00 0. -1.
     200003    1    4    4    0    0  0.47685543224E+02 -0.72931852884E+01  0.56578814706E+02  0.80176454510E+02  0.30000000000E+02 0. -1.
     200000    1    3    3    0    0 -0.43791920563E+03  0.18640961581E+03  0.11458714692E+03  0.69975137711E+03  0.50000000000E+03 0. -1.
    -200001    1    1    2    0    0  0.52175732965E+03 -0.20276041909E+03  0.72254413151E+02  0.89920142282E+03  0.70000000000E+03 0. -1.
<mgrwt>
<rscale>  0 0.17954895E+04</rscale>
<asrwt>0</asrwt>
<pdfrwt beam="1">  1        4 0.14745234E+00 0.17954895E+04</pdfrwt>
<pdfrwt beam="2">  1       -4 0.11154703E+00 0.17954895E+04</pdfrwt>
<totfact> 0.37619265E-01</totfact>
</mgrwt>
</event>
<event>
 8    1  0.1378634E-029  0.1693302E+04  0.7818608E-02  0.8765194E-01
          4   -1    0    0  501    0  0.00000000000E+00  0.00000000000E+00  0.89039438048E+03  0.89039528620E+03  0.12700000000E+01 0.  1.
         -4   -1    0    0    0  501 -0.00000000000E+00 -0.00000000000E+00 -0.80505476555E+03  0.80505576728E+03  0.12700000000E+01 0. -1.
     200001    2    1    2    0    0  0.19134605707E+03  0.21464606086E+02  0.47900469053E+03  0.86959014835E+03  0.69976245233E+03 0.  0.
    5000001    2    3    3    0    0  0.62782238526E+01  0.25042049559E+02  0.17169781610E+03  0.25420375261E+03  0.18566875732E+03 0.  0.
        -13    1    4    4    0    0 -0.19349570384E+02 -0.53776992049E+02  0.15405158811E+03  0.16431151423E+03  0.10566000000E+00 0. -1.
     200003    1    4    4    0    0  0.25627794237E+02  0.78819041607E+02  0.17646227998E+02  0.89892238374E+02  0.30000000000E+02 0.  1.
     200000    1    3    3    0    0  0.18506783322E+03 -0.35774434727E+01  0.30730687443E+03  0.61538639574E+03  0.50000000000E+03 0.  1.
    -200001    1    1    2    0    0 -0.19134605707E+03 -0.21464606086E+02 -0.39366507560E+03  0.82586090513E+03  0.70000000000E+03 0. -1.
<mgrwt>
<rscale>  0 0.16933019E+04</rscale>
<asrwt>0</asrwt>
<pdfrwt beam="1">  1        4 0.12719934E+00 0.16933019E+04</pdfrwt>
<pdfrwt beam="2">  1       -4 0.11500796E+00 0.16933019E+04</pdfrwt>
<totfact> 0.51575070E-01</totfact>
</mgrwt>
</event>
<event>
 8    1  0.1378634E-029  0.1858278E+04  0.7818608E-02  0.8675907E-01
          4   -1    0    0  501    0  0.00000000000E+00  0.00000000000E+00  0.79126090348E+03  0.79126192268E+03  0.12700000000E+01 0.  1.
         -4   -1    0    0    0  501 -0.00000000000E+00 -0.00000000000E+00 -0.10910401873E+04  0.10910409265E+04  0.12700000000E+01 0. -1.
     200001    2    1    2    0    0  0.40254555732E+03 -0.39811913400E+03  0.80933366826E+02  0.90481428506E+03  0.70113972217E+03 0.  0.
    5000001    2    3    3    0    0  0.45831886933E+02 -0.17027046357E+03  0.16123062604E+02  0.24651341555E+03  0.17151186045E+03 0.  0.
        -13    1    4    4    0    0 -0.49547086127E+02 -0.23860638469E+02 -0.30913610144E+02  0.63086498302E+02  0.10566000000E+00 0. -1.
     200003    1    4    4    0    0  0.95378973061E+02 -0.14640982511E+03  0.47036672747E+02  0.18342691725E+03  0.30000000000E+02 0. -1.
     200000    1    3    3    0    0  0.35671367039E+03 -0.22784867042E+03  0.64810304222E+02  0.65830086950E+03  0.50000000000E+03 0.  1.
    -200001    1    1    2    0    0 -0.40254555732E+03  0.39811913400E+03 -0.38071265067E+03  0.97748856411E+03  0.70000000000E+03 0. -1.
<mgrwt>
<rscale>  0 0.18582778E+04</rscale>
<asrwt>0</asrwt>
<pdfrwt beam="1">  1        4 0.11303740E+00 0.18582778E+04</pdfrwt>
<pdfrwt beam="2">  1       -4 0.15586301E+00 0.18582778E+04</pdfrwt>
<totfact> 0.31241661E-01</totfact>
</mgrwt>
</event>
<event>
 8    1  0.1378634E-029  0.1530704E+04  0.7818608E-02  0.8864288E-01
         -4   -1    0    0    0  501 -0.00000000000E+00  0.00000000000E+00  0.97423039206E+03  0.97423121984E+03  0.12700000000E+01 0. -1.
          4   -1    0    0  501    0  0.00000000000E+00 -0.00000000000E+00 -0.60125589873E+03  0.60125724001E+03  0.12700000000E+01 0.  1.
     200001    2    1    2    0    0 -0.30989963981E+01  0.28731956051E+03  0.70074019322E+02  0.76043580463E+03  0.70056413778E+03 0.  0.
    5000001    2    3    3    0    0 -0.87710148073E+02  0.13340590054E+01 -0.42472005184E+02  0.16746585455E+03  0.13618403515E+03 0.  0.
        -13    1    4    4    0    0 -0.85030200154E+02  0.41354805296E+02  0.98117257228E+01  0.95061222299E+02  0.10566000000E+00 0. -1.
     200003    1    4    4    0    0 -0.26799479194E+01 -0.40020746290E+02 -0.52283730907E+02  0.72404632255E+02  0.30000000000E+02 0. -1.
     200000    1    3    3    0    0  0.84611151675E+02  0.28598550150E+03  0.11254602451E+03  0.59296995007E+03  0.50000000000E+03 0.  1.
    -200001    1    1    2    0    0  0.30989963981E+01 -0.28731956051E+03  0.30290047400E+03  0.81505265522E+03  0.70000000000E+03 0. -1.
<mgrwt>
<rscale>  0 0.15307037E+04</rscale>
<asrwt>0</asrwt>
<pdfrwt beam="1">  1        4 0.85893856E-01 0.15307037E+04</pdfrwt>
<pdfrwt beam="2">  1       -4 0.13917592E+00 0.15307037E+04</pdfrwt>
<totfact> 0.83014714E-01</totfact>
</mgrwt>
</event>
<event>
 8    1  0.1378634E-029  0.1458892E+04  0.7818608E-02  0.8912259E-01
          4   -1    0    0  501    0  0.00000000000E+00  0.00000000000E+00  0.45246851731E+03  0.45247029964E+03  0.12700000000E+01 0.  1.
         -4   -1    0    0    0  501 -0.00000000000E+00 -0.00000000000E+00 -0.11759706315E+04  0.11759713173E+04  0.12700000000E+01 0. -1.
     200001    2    1    2    0    0 -0.18181813013E+03 -0.82941604885E+02 -0.30888407071E+03  0.79067955986E+03  0.69987688558E+03 0.  0.
    5000001    2    3    3    0    0  0.18428767353E+02  0.13596596034E+02 -0.52326304804E+02  0.18632839419E+03  0.17735766524E+03 0.  0.
        -13    1    4    4    0    0 -0.92718702618E+01 -0.36517867781E+02 -0.99439673278E+02  0.10633805542E+03  0.10566000000E+00 0. -1.
     200003    1    4    4    0    0  0.27700637615E+02  0.50114463815E+02  0.47113368474E+02  0.79990338771E+02  0.30000000000E+02 0. -1.
     200000    1    3    3    0    0 -0.20024689748E+03 -0.96538200919E+02 -0.25655776591E+03  0.60435116566E+03  0.50000000000E+03 0. -1.
    -200001    1    1    2    0    0  0.18181813013E+03  0.82941604885E+02 -0.41461804345E+03  0.83776205704E+03  0.70000000000E+03 0. -1.
<mgrwt>
<rscale>  0 0.14588923E+04</rscale>
<asrwt>0</asrwt>
<pdfrwt beam="1">  1        4 0.64638536E-01 0.14588923E+04</pdfrwt>
<pdfrwt beam="2">  1       -4 0.16799598E+00 0.14588923E+04</pdfrwt>
<totfact> 0.95014880E-01</totfact>
</mgrwt>
</event>
<event>
 8    1  0.1378634E-029  0.1617337E+04  0.7818608E-02  0.8809968E-01
          4   -1    0    0  501    0  0.00000000000E+00  0.00000000000E+00  0.11706452084E+04  0.11706458973E+04  0.12700000000E+01 0.  1.
         -4   -1    0    0    0  501 -0.00000000000E+00 -0.00000000000E+00 -0.55861720579E+03  0.55861864945E+03  0.12700000000E+01 0. -1.
     200001    2    1    2    0    0 -0.21691660152E+03 -0.57965998647E+02  0.66644793761E+03  0.99212521235E+03  0.69981905835E+03 0.  0.
    5000001    2    3    3    0    0 -0.56700014755E+02 -0.42245466977E+02  0.15971429234E+03  0.26226531001E+03  0.19563963429E+03 0.  0.
        -13    1    4    4    0    0 -0.33486602000E+02  0.72287889067E+02  0.30038563109E+02  0.85142338804E+02  0.10566000000E+00 0. -1.
     200003    1    4    4    0    0 -0.23213412755E+02 -0.11453335604E+03  0.12967572923E+03  0.17712297121E+03  0.30000000000E+02 0. -1.
     200000    1    3    3    0    0 -0.16021658676E+03 -0.15720531670E+02  0.50673364528E+03  0.72985990234E+03  0.50000000000E+03 0.  1.
    -200001    1    1    2    0    0  0.21691660152E+03  0.57965998647E+02 -0.54419934984E+02  0.73713933441E+03  0.70000000000E+03 0. -1.
<mgrwt>
<rscale>  0 0.16173366E+04</rscale>
<asrwt>0</asrwt>
<pdfrwt beam="1">  1        4 0.16723518E+00 0.16173366E+04</pdfrwt>
<pdfrwt beam="2">  1       -4 0.79802610E-01 0.16173366E+04</pdfrwt>
<totfact> 0.59560464E-01</totfact>
</mgrwt>
</event>
<event>
 8    1  0.1378634E-029  0.1730654E+04  0.7818608E-02  0.8744072E-01
          4   -1    0    0  501    0  0.00000000000E+00  0.00000000000E+00  0.19452262294E+04  0.19452266440E+04  0.12700000000E+01 0.  1.
         -4   -1    0    0    0  501 -0.00000000000E+00 -0.00000000000E+00 -0.38493610396E+03  0.38493819898E+03  0.12700000000E+01 0. -1.
     200001    2    1    2    0    0  0.41062632645E+03  0.51898292052E+02  0.38281585070E+03  0.89916761013E+03  0.70046199246E+03 0.  0.
    5000001    2    3    3    0    0  0.19154387042E+03 -0.95567747343E+01  0.19650320032E+03  0.31909326019E+03  0.16256264860E+03 0.  0.
        -13    1    4    4    0    0  0.17683316580E+03  0.41894661277E+02  0.10797338258E+03  0.21138446887E+03  0.10566000000E+00 0. -1.
     200003    1    4    4    0    0  0.14710704627E+02 -0.51451436011E+02  0.88529817743E+02  0.10770879132E+03  0.30000000000E+02 0. -1.
     200000    1    3    3    0    0  0.21908245602E+03  0.61455066786E+02  0.18631265037E+03  0.58007434994E+03  0.50000000000E+03 0. -1.
    -200001    1    1    2    0    0 -0.41062632645E+03 -0.51898292052E+02  0.11774742748E+04  0.14309972329E+04  0.70000000000E+03 0.  1.
<mgrwt>
<rscale>  0 0.17306539E+04</rscale>
<asrwt>0</asrwt>
<pdfrwt beam="1">  1        4 0.27788964E+00 0.17306539E+04</pdfrwt>
<pdfrwt beam="2">  1       -4 0.54991052E-01 0.17306539E+04</pdfrwt>
<totfact> 0.25656264E-01</totfact>
</mgrwt>
</event>
<event>
 8    1  0.1378634E-029  0.1856944E+04  0.7818608E-02  0.8676590E-01
         -4   -1    0    0    0  501 -0.00000000000E+00  0.00000000000E+00  0.22985552873E+04  0.22985556382E+04  0.12700000000E+01 0. -1.
          4   -1    0    0  501    0  0.00000000000E+00 -0.00000000000E+00 -0.37504310370E+03  0.37504525398E+03  0.12700000000E+01 0.  1.
     200001    2    1    2    0    0 -0.77499993241E+01 -0.31103401689E+02  0.18363777302E+04  0.19674706655E+04  0.70542906606E+03 0.  0.
    5000001    2    3    3    0    0 -0.60863713307E+02  0.30470827425E+01  0.66807278153E+03  0.69510131053E+03  0.18201899395E+03 0.  0.
        -13    1    4    4    0    0 -0.54505501474E+02  0.21167115677E+02  0.52753030484E+02  0.78751443582E+02  0.10566000000E+00 0. -1.
     200003    1    4    4    0    0 -0.63582118330E+01 -0.18120032934E+02  0.61531975105E+03  0.61634986694E+03  0.30000000000E+02 0. -1.
     200000    1    3    3    0    0  0.53113713983E+02 -0.34150484432E+02  0.11683049487E+04  0.12723693549E+04  0.50000000000E+03 0. -1.
    -200001    1    1    2    0    0  0.77499993241E+01  0.31103401689E+02  0.87134453386E+02  0.70613022670E+03  0.70000000000E+03 0.  1.
<mgrwt>
<rscale>  0 0.18569444E+04</rscale>
<asrwt>0</asrwt>
<pdfrwt beam="1">  1        4 0.53577767E-01 0.18569444E+04</pdfrwt>
<pdfrwt beam="2">  1       -4 0.32836521E+00 0.18569444E+04</pdfrwt>
<totfact> 0.12971360E-01</totfact>
</mgrwt>
</event>
<event>
 8    1  0.1378634E-029  0.1675057E+04  0.7818608E-02  0.8775719E-01
         -4   -1    0    0    0  501 -0.00000000000E+00  0.00000000000E+00  0.44518732979E+03  0.44518914127E+03  0.12700000000E+01 0. -1.
          4   -1    0    0  501    0  0.00000000000E+00 -0.00000000000E+00 -0.15756332796E+04  0.15756337914E+04  0.12700000000E+01 0.  1.
     200001    2    1    2    0    0  0.44623364532E+02 -0.43856382037E+03 -0.72642992743E+03  0.11001935743E+04  0.69885334106E+03 0.  0.
    5000001    2    3    3    0    0  0.17068265156E+02 -0.19951110881E+03 -0.38260468937E+03  0.44741392028E+03  0.11703358286E+03 0.  0.
        -13    1    4    4    0    0 -0.33553283693E+02 -0.71742099714E+02 -0.21190396313E+03  0.22622124673E+03  0.10566000000E+00 0. -1.
     200003    1    4    4    0    0  0.50621548849E+02 -0.12776900909E+03 -0.17070072624E+03  0.22119267355E+03  0.30000000000E+02 0. -1.
     200000    1    3    3    0    0  0.27555099376E+02 -0.23905271156E+03 -0.34382523806E+03  0.65277965404E+03  0.50000000000E+03 0. -1.
    -200001    1    1    2    0    0 -0.44623364532E+02  0.43856382037E+03 -0.40401602239E+03  0.92062935840E+03  0.70000000000E+03 0. -1.
<mgrwt>
<rscale>  0 0.16750574E+04</rscale>
<asrwt>0</asrwt>
<pdfrwt beam="1">  1        4 0.22509063E+00 0.16750574E+04</pdfrwt>
<pdfrwt beam="2">  1       -4 0.63598357E-01 0.16750574E+04</pdfrwt>
<totfact> 0.40180200E-01</totfact>
</mgrwt>
</event>
<event>
 8    1  0.1378634E-029  0.1586131E+04  0.7818608E-02  0.8829114E-01
         -4   -1    0    0    0  501 -0.00000000000E+00  0.00000000000E+00  0.78706785308E+03  0.78706887770E+03  0.12700000000E+01 0. -1.
          4   -1    0    0  501    0  0.00000000000E+00 -0.00000000000E+00 -0.79910684105E+03  0.79910785024E+03  0.12700000000E+01 0.  1.
     200001    2    1    2    0    0 -0.26854988607E+02 -0.16210544010E+03  0.32866541198E+03  0.79051420383E+03  0.69992313099E+03 0.  0.
    5000001    2    3    3    0    0 -0.10894367323E+03 -0.90435994381E+02  0.15776401757E+03  0.25099372395E+03  0.13439111283E+03 0.  0.
        -13    1    4    4    0    0  0.96740308337E+01 -0.51657969044E+01 -0.17632666882E+02  0.20765221781E+02  0.10566000000E+00 0. -1.
     200003    1    4    4    0    0 -0.11861770406E+03 -0.85270197477E+02  0.17539668446E+03  0.23022850217E+03  0.30000000000E+02 0. -1.
     200000    1    3    3    0    0  0.82088684622E+02 -0.71669445719E+02  0.17090139441E+03  0.53952047987E+03  0.50000000000E+03 0. -1.
    -200001    1    1    2    0    0  0.26854988607E+02  0.16210544010E+03 -0.34070439995E+03  0.79566252411E+03  0.70000000000E+03 0.  1.
<mgrwt>
<rscale>  0 0.15861310E+04</rscale>
<asrwt>0</asrwt>
<pdfrwt beam="1">  1        4 0.11415826E+00 0.15861310E+04</pdfrwt>
<pdfrwt beam="2">  1       -4 0.11243841E+00 0.15861310E+04</pdfrwt>
<totfact> 0.71953242E-01</totfact>
</mgrwt>
</event>
<event>
 8    1  0.1762719E-029  0.1498375E+04  0.7818608E-02  0.8885534E-01
          4   -1    0    0  501    0  0.00000000000E+00  0.00000000000E+00  0.40282830229E+03  0.40283030425E+03  0.12700000000E+01 0.  1.
         -4   -1    0    0    0  501 -0.00000000000E+00 -0.00000000000E+00 -0.13933475218E+04  0.13933481006E+04  0.12700000000E+01 0. -1.
     200001    2    1    2    0    0 -0.15149048132E+03  0.59926675999E+02 -0.26218268377E+03  0.77294105128E+03  0.70863074775E+03 0.  0.
    5000001    2    3    3    0    0  0.21127629654E+02 -0.98944727044E+00 -0.39128913311E+02  0.19565362648E+03  0.19053061160E+03 0.  0.
        -13    1    4    4    0    0 -0.52489566357E+02  0.36062020197E+02 -0.77169205179E+02  0.10005359198E+03  0.10566000000E+00 0. -1.
     200003    1    4    4    0    0  0.73617196012E+02 -0.37051467467E+02  0.38040291868E+02  0.95600034496E+02  0.30000000000E+02 0. -1.
     200000    1    3    3    0    0 -0.17261811098E+03  0.60916123270E+02 -0.22305377046E+03  0.57728742480E+03  0.50000000000E+03 0.  1.
    -200001    1    1    2    0    0  0.15149048132E+03 -0.59926675999E+02 -0.72833653573E+03  0.10232373536E+04  0.70000000000E+03 0.  1.
<mgrwt>
<rscale>  0 0.14983753E+04</rscale>
<asrwt>0</asrwt>
<pdfrwt beam="1">  1        4 0.57547085E-01 0.14983753E+04</pdfrwt>
<pdfrwt beam="2">  1       -4 0.19904983E+00 0.14983753E+04</pdfrwt>
<totfact> 0.74401971E-01</totfact>
</mgrwt>
</event>
<event>
 8    1  0.1378634E-029  0.1676827E+04  0.7818608E-02  0.8774692E-01
         -4   -1    0    0    0  501 -0.00000000000E+00  0.00000000000E+00  0.39187774611E+03  0.39187980401E+03  0.12700000000E+01 0. -1.
          4   -1    0    0  501    0  0.00000000000E+00 -0.00000000000E+00 -0.17937593976E+04  0.17937598472E+04  0.12700000000E+01 0.  1.
     200001    2    1    2    0    0  0.20465511368E+03  0.90529634897E+01 -0.16262687729E+03  0.74768343938E+03  0.70044082734E+03 0.  0.
    5000001    2    3    3    0    0  0.64189204127E+01 -0.42914851930E+02 -0.22007496873E+02  0.18931792083E+03  0.18295917078E+03 0.  0.
        -13    1    4    4    0    0 -0.37423174357E+02 -0.10149572805E+03 -0.21197032054E+02  0.11023249123E+03  0.10566000000E+00 0. -1.
     200003    1    4    4    0    0  0.43842094769E+02  0.58580876121E+02 -0.81046481918E+00  0.79085429594E+02  0.30000000000E+02 0. -1.
     200000    1    3    3    0    0  0.19823619327E+03  0.51967815420E+02 -0.14061938041E+03  0.55836551855E+03  0.50000000000E+03 0. -1.
    -200001    1    1    2    0    0 -0.20465511368E+03 -0.90529634897E+01 -0.12392547742E+04  0.14379562118E+04  0.70000000000E+03 0.  1.
<mgrwt>
<rscale>  0 0.16768269E+04</rscale>
<asrwt>0</asrwt>
<pdfrwt beam="1">  1        4 0.25625152E+00 0.16768269E+04</pdfrwt>
<pdfrwt beam="2">  1       -4 0.55982715E-01 0.16768269E+04</pdfrwt>
<totfact> 0.33751535E-01</totfact>
</mgrwt>
</event>
<event>
 8    1  0.1378634E-029  0.1662315E+04  0.7818608E-02  0.8783154E-01
         -4   -1    0    0    0  501 -0.00000000000E+00  0.00000000000E+00  0.12817544511E+04  0.12817550803E+04  0.12700000000E+01 0. -1.
          4   -1    0    0  501    0  0.00000000000E+00 -0.00000000000E+00 -0.53896505792E+03  0.53896655421E+03  0.12700000000E+01 0.  1.
     200001    2    1    2    0    0 -0.12065376742E+03  0.42712010505E+03  0.43373569845E+03  0.93612958055E+03  0.70087304110E+03 0.  0.
    5000001    2    3    3    0    0 -0.16153524655E+02  0.15333621655E+03  0.11813031824E+03  0.27621695425E+03  0.19638763215E+03 0.  0.
        -13    1    4    4    0    0  0.23857890933E+02  0.18325876606E+03  0.61013346879E+02  0.19461658192E+03  0.10566000000E+00 0. -1.
     200003    1    4    4    0    0 -0.40011415588E+02 -0.29922549505E+02  0.57116971363E+02  0.81600372327E+02  0.30000000000E+02 0. -1.
     200000    1    3    3    0    0 -0.10450024276E+03  0.27378388850E+03  0.31560538020E+03  0.65991262630E+03  0.50000000000E+03 0. -1.
    -200001    1    1    2    0    0  0.12065376742E+03 -0.42712010505E+03  0.30905369478E+03  0.88459205399E+03  0.70000000000E+03 0.  1.
<mgrwt>
<rscale>  0 0.16623150E+04</rscale>
<asrwt>0</asrwt>
<pdfrwt beam="1">  1        4 0.76995161E-01 0.16623150E+04</pdfrwt>
<pdfrwt beam="2">  1       -4 0.18310793E+00 0.16623150E+04</pdfrwt>
<totfact> 0.49740830E-01</totfact>
</mgrwt>
</event>
<event>
 8    1  0.1378634E-029  0.1698687E+04  0.7818608E-02  0.8762114E-01
         -4   -1    0    0    0  501 -0.00000000000E+00  0.00000000000E+00  0.10762007583E+04  0.10762015077E+04  0.12700000000E+01 0. -1.
          4   -1    0    0  501    0  0.00000000000E+00 -0.00000000000E+00 -0.67030468882E+03  0.67030589193E+03  0.12700000000E+01 0.  1.
     200001    2    1    2    0    0 -0.42149801871E+03 -0.14961598900E+01 -0.33715262305E+02  0.81864914463E+03  0.70098993203E+03 0.  0.
    5000001    2    3    3    0    0 -0.19263416436E+03 -0.46803192323E+02 -0.22114203777E+02  0.26677418091E+03  0.17714673438E+03 0.  0.
        -13    1    4    4    0    0 -0.29890372935E+02  0.50697765005E+02  0.32310777504E+02  0.67139372038E+02  0.10566000000E+00 0. -1.
     200003    1    4    4    0    0 -0.16274379142E+03 -0.97500957328E+02 -0.54424981281E+02  0.19963480887E+03  0.30000000000E+02 0. -1.
     200000    1    3    3    0    0 -0.22886385436E+03  0.45307032433E+02 -0.11601058528E+02  0.55187496372E+03  0.50000000000E+03 0.  1.
    -200001    1    1    2    0    0  0.42149801871E+03  0.14961598900E+01  0.43961133182E+03  0.92785825498E+03  0.70000000000E+03 0. -1.
<mgrwt>
<rscale>  0 0.16986867E+04</rscale>
<asrwt>0</asrwt>
<pdfrwt beam="1">  1        4 0.95757953E-01 0.16986867E+04</pdfrwt>
<pdfrwt beam="2">  1       -4 0.15374310E+00 0.16986867E+04</pdfrwt>
<totfact> 0.48919319E-01</totfact>
</mgrwt>
</event>
<event>
 8    1  0.1378634E-029  0.1932834E+04  0.7818608E-02  0.8638683E-01
          4   -1    0    0  501    0  0.00000000000E+00  0.00000000000E+00  0.23393188562E+04  0.23393192010E+04  0.12700000000E+01 0.  1.
         -4   -1    0    0    0  501 -0.00000000000E+00 -0.00000000000E+00 -0.39924360826E+03  0.39924562820E+03  0.12700000000E+01 0. -1.
     200001    2    1    2    0    0  0.22169529190E+03  0.45263501383E+03  0.15868507281E+04  0.18064731922E+04  0.70087295772E+03 0.  0.
    5000001    2    3    3    0    0  0.43000410828E+02  0.17422816181E+03  0.42727966946E+03  0.50108157446E+03  0.19055272401E+03 0.  0.
        -13    1    4    4    0    0  0.85519656691E+02  0.91635062448E+02  0.36342590623E+03  0.38443334511E+03  0.10566000000E+00 0. -1.
     200003    1    4    4    0    0 -0.42519245863E+02  0.82593099366E+02  0.63853763237E+02  0.11664822935E+03  0.30000000000E+02 0. -1.
     200000    1    3    3    0    0  0.17869488107E+03  0.27840685202E+03  0.11595710586E+04  0.13053916178E+04  0.50000000000E+03 0.  1.
    -200001    1    1    2    0    0 -0.22169529190E+03 -0.45263501383E+03  0.35322451989E+03  0.93209163694E+03  0.70000000000E+03 0. -1.
<mgrwt>
<rscale>  0 0.19328335E+04</rscale>
<asrwt>0</asrwt>
<pdfrwt beam="1">  1        4 0.33418856E+00 0.19328335E+04</pdfrwt>
<pdfrwt beam="2">  1       -4 0.57034973E-01 0.19328335E+04</pdfrwt>
<totfact> 0.10357811E-01</totfact>
</mgrwt>
</event>
<event>
 8    1  0.1378634E-029  0.1481654E+04  0.7818608E-02  0.8896745E-01
          4   -1    0    0  501    0  0.00000000000E+00  0.00000000000E+00  0.32530969589E+03  0.32531217490E+03  0.12700000000E+01 0.  1.
         -4   -1    0    0    0  501 -0.00000000000E+00 -0.00000000000E+00 -0.16870753962E+04  0.16870758743E+04  0.12700000000E+01 0. -1.
     200001    2    1    2    0    0  0.11766948030E+03 -0.20313467242E+03 -0.68043348247E+03  0.10077371681E+04  0.70529048918E+03 0.  0.
    5000001    2    3    3    0    0 -0.12139170754E+01 -0.24082568676E+02 -0.18822096951E+03  0.27393469061E+03  0.19756426207E+03 0.  0.
        -13    1    4    4    0    0 -0.65361956098E+01  0.65453739548E+02 -0.28628215521E+01  0.65841634132E+02  0.10566000000E+00 0. -1.
     200003    1    4    4    0    0  0.53222785345E+01 -0.89536308224E+02 -0.18535814796E+03  0.20809305648E+03  0.30000000000E+02 0. -1.
     200000    1    3    3    0    0  0.11888339737E+03 -0.17905210374E+03 -0.49221251295E+03  0.73380247746E+03  0.50000000000E+03 0. -1.
    -200001    1    1    2    0    0 -0.11766948030E+03  0.20313467242E+03 -0.68133221788E+03  0.10046508811E+04  0.70000000000E+03 0. -1.
<mgrwt>
<rscale>  0 0.14816544E+04</rscale>
<asrwt>0</asrwt>
<pdfrwt beam="1">  1        4 0.46473026E-01 0.14816544E+04</pdfrwt>
<pdfrwt beam="2">  1       -4 0.24101098E+00 0.14816544E+04</pdfrwt>
<totfact> 0.62906376E-01</totfact>
</mgrwt>
</event>
<event>
 8    1  0.1378634E-029  0.1864579E+04  0.7818608E-02  0.8672691E-01
         -4   -1    0    0    0  501 -0.00000000000E+00  0.00000000000E+00  0.54654473405E+03  0.54654620959E+03  0.12700000000E+01 0. -1.
          4   -1    0    0  501    0  0.00000000000E+00 -0.00000000000E+00 -0.15902844628E+04  0.15902849699E+04  0.12700000000E+01 0.  1.
     200001    2    1    2    0    0  0.54929586194E+03  0.28126013438E+03 -0.48718376633E+03  0.10502826318E+04  0.69635650166E+03 0.  0.
    5000001    2    3    3    0    0  0.76269172019E+02  0.37474900336E+02 -0.17486890751E+03  0.25609999492E+03  0.16669348467E+03 0.  0.
        -13    1    4    4    0    0  0.60090615054E+02  0.26853434879E+02  0.11089478242E+02  0.66745611647E+02  0.10566000000E+00 0. -1.
     200003    1    4    4    0    0  0.16178556965E+02  0.10621465457E+02 -0.18595838576E+03  0.18935438328E+03  0.30000000000E+02 0. -1.
     200000    1    3    3    0    0  0.47302668992E+03  0.24378523404E+03 -0.31231485882E+03  0.79418263690E+03  0.50000000000E+03 0. -1.
    -200001    1    1    2    0    0 -0.54929586194E+03 -0.28126013438E+03 -0.55655596242E+03  0.10865485477E+04  0.70000000000E+03 0. -1.
<mgrwt>
<rscale>  0 0.18645790E+04</rscale>
<asrwt>0</asrwt>
<pdfrwt beam="1">  1        4 0.22718363E+00 0.18645790E+04</pdfrwt>
<pdfrwt beam="2">  1       -4 0.78077961E-01 0.18645790E+04</pdfrwt>
<totfact> 0.24372167E-01</totfact>
</mgrwt>
</event>
<event>
 8    1  0.1378634E-029  0.1606527E+04  0.7818608E-02  0.8816548E-01
         -4   -1    0    0    0  501 -0.00000000000E+00  0.00000000000E+00  0.16628887267E+04  0.16628892116E+04  0.12700000000E+01 0. -1.
          4   -1    0    0  501    0  0.00000000000E+00 -0.00000000000E+00 -0.38801738411E+03  0.38801946249E+03  0.12700000000E+01 0.  1.
     200001    2    1    2    0    0  0.30734070154E+03 -0.11696058710E+03  0.91465446698E+03  0.11977414671E+04  0.69989552233E+03 0.  0.
    5000001    2    3    3    0    0  0.18960988011E+03 -0.51958901843E+02  0.10937015667E+03  0.24036558172E+03  0.84629472337E+02 0.  0.
        -13    1    4    4    0    0  0.43664993021E+01 -0.11078416230E+02  0.30502608802E+02  0.32744738968E+02  0.10566000000E+00 0. -1.
     200003    1    4    4    0    0  0.18524338081E+03 -0.40880485614E+02  0.78867547868E+02  0.20762084275E+03  0.30000000000E+02 0. -1.
     200000    1    3    3    0    0  0.11773082143E+03 -0.65001685254E+02  0.80528431031E+03  0.95737588534E+03  0.50000000000E+03 0. -1.
    -200001    1    1    2    0    0 -0.30734070154E+03  0.11696058710E+03  0.36021687558E+03  0.85316720706E+03  0.70000000000E+03 0.  1.
<mgrwt>
<rscale>  0 0.16065271E+04</rscale>
<asrwt>0</asrwt>
<pdfrwt beam="1">  1        4 0.55431238E-01 0.16065271E+04</pdfrwt>
<pdfrwt beam="2">  1       -4 0.23755571E+00 0.16065271E+04</pdfrwt>
<totfact> 0.45294855E-01</totfact>
</mgrwt>
</event>
<event>
 8    1  0.1378634E-029  0.1405801E+04  0.7818608E-02  0.8949630E-01
         -4   -1    0    0    0  501 -0.00000000000E+00  0.00000000000E+00  0.16671042165E+04  0.16671047003E+04  0.12700000000E+01 0. -1.
          4   -1    0    0  501    0  0.00000000000E+00 -0.00000000000E+00 -0.29636179108E+03  0.29636451223E+03  0.12700000000E+01 0.  1.
     200001    2    1    2    0    0 -0.32563973884E+02 -0.56165229562E+02  0.67062129871E+03  0.97130766441E+03  0.69963612488E+03 0.  0.
    5000001    2    3    3    0    0 -0.73599029921E+02 -0.68125453489E+02  0.20313071093E+03  0.28546921955E+03  0.17370289280E+03 0.  0.
        -13    1    4    4    0    0 -0.12063453981E+03 -0.12792732790E+02  0.11157741344E+03  0.16482074069E+03  0.10566000000E+00 0. -1.
     200003    1    4    4    0    0  0.47035509886E+02 -0.55332720699E+02  0.91553297491E+02  0.12064847886E+03  0.30000000000E+02 0. -1.
     200000    1    3    3    0    0  0.41035056037E+02  0.11960223927E+02  0.46749058778E+03  0.68583844485E+03  0.50000000000E+03 0.  1.
    -200001    1    1    2    0    0  0.32563973884E+02  0.56165229562E+02  0.70012112673E+03  0.99216154808E+03  0.70000000000E+03 0.  1.
<mgrwt>
<rscale>  0 0.14058010E+04</rscale>
<asrwt>0</asrwt>
<pdfrwt beam="1">  1        4 0.42337629E-01 0.14058010E+04</pdfrwt>
<pdfrwt beam="2">  1       -4 0.23815797E+00 0.14058010E+04</pdfrwt>
<totfact> 0.79750979E-01</totfact>
</mgrwt>
</event>
<event>
 8    1  0.1378634E-029  0.1600464E+04  0.7818608E-02  0.8820263E-01
          4   -1    0    0  501    0  0.00000000000E+00  0.00000000000E+00  0.11526126260E+04  0.11526133257E+04  0.12700000000E+01 0.  1.
         -4   -1    0    0    0  501 -0.00000000000E+00 -0.00000000000E+00 -0.55558082339E+03  0.55558227494E+03  0.12700000000E+01 0. -1.
     200001    2    1    2    0    0  0.92414005627E+02 -0.12932349440E+03  0.67286079324E+03  0.98638194706E+03  0.70352170100E+03 0.  0.
    5000001    2    3    3    0    0  0.65766705369E+02 -0.24535800426E+02  0.27995074525E+03  0.34134795941E+03  0.18226010147E+03 0.  0.
        -13    1    4    4    0    0  0.71855991394E+02 -0.74195211148E+02  0.25988386904E+03  0.27965666344E+03  0.10566000000E+00 0. -1.
     200003    1    4    4    0    0 -0.60892860247E+01  0.49659410722E+02  0.20066876217E+02  0.61691295971E+02  0.30000000000E+02 0. -1.
     200000    1    3    3    0    0  0.26647300258E+02 -0.10478769397E+03  0.39291004799E+03  0.64503398766E+03  0.50000000000E+03 0.  1.
    -200001    1    1    2    0    0 -0.92414005627E+02  0.12932349440E+03 -0.75828990623E+02  0.72181365355E+03  0.70000000000E+03 0. -1.
<mgrwt>
<rscale>  0 0.16004641E+04</rscale>
<asrwt>0</asrwt>
<pdfrwt beam="1">  1        4 0.16465910E+00 0.16004641E+04</pdfrwt>
<pdfrwt beam="2">  1       -4 0.79368844E-01 0.16004641E+04</pdfrwt>
<totfact> 0.63034025E-01</totfact>
</mgrwt>
</event>
<event>
 8    1  0.1378634E-029  0.1704411E+04  0.7818608E-02  0.8758853E-01
          4   -1    0    0  501    0  0.00000000000E+00  0.00000000000E+00  0.79651760942E+03  0.79651862189E+03  0.12700000000E+01 0.  1.
         -4   -1    0    0    0  501 -0.00000000000E+00 -0.00000000000E+00 -0.91178446241E+03  0.91178534688E+03  0.12700000000E+01 0. -1.
     200001    2    1    2    0    0  0.41427933643E+03 -0.17594997863E+03  0.12193665688E+03  0.84294203949E+03  0.70220863714E+03 0.  0.
    5000001    2    3    3    0    0  0.89781442684E+02 -0.17242345484E+02 -0.32976834667E+02  0.20695054133E+03  0.18271028708E+03 0.  0.
        -13    1    4    4    0    0 -0.54019179446E+02 -0.10540109166E+02  0.44357917345E+01  0.55216420217E+02  0.10566000000E+00 0. -1.
     200003    1    4    4    0    0  0.14380062213E+03 -0.67022363178E+01 -0.37412626401E+02  0.15173412112E+03  0.30000000000E+02 0. -1.
     200000    1    3    3    0    0  0.32449789374E+03 -0.15870763315E+03  0.15491349155E+03  0.63599149816E+03  0.50000000000E+03 0.  1.
    -200001    1    1    2    0    0 -0.41427933643E+03  0.17594997863E+03 -0.23720350987E+03  0.86536192929E+03  0.70000000000E+03 0. -1.
<mgrwt>
<rscale>  0 0.17044107E+04</rscale>
<asrwt>0</asrwt>
<pdfrwt beam="1">  1        4 0.11378836E+00 0.17044107E+04</pdfrwt>
<pdfrwt beam="2">  1       -4 0.13025506E+00 0.17044107E+04</pdfrwt>
<totfact> 0.49802337E-01</totfact>
</mgrwt>
</event>
<event>
 8    1  0.1378634E-029  0.1698853E+04  0.7818608E-02  0.8762019E-01
          4   -1    0    0  501    0  0.00000000000E+00  0.00000000000E+00  0.71112602242E+03  0.71112715646E+03  0.12700000000E+01 0.  1.
         -4   -1    0    0    0  501 -0.00000000000E+00 -0.00000000000E+00 -0.10146218241E+04  0.10146226190E+04  0.12700000000E+01 0. -1.
     200001    2    1    2    0    0 -0.41717176484E+03  0.24168228310E+03 -0.14609061846E+03  0.86133147445E+03  0.69864642898E+03 0.  0.
    5000001    2    3    3    0    0 -0.16855329864E+03  0.12966252034E+03 -0.11187236029E+03  0.29077870899E+03  0.16375056927E+03 0.  0.
        -13    1    4    4    0    0 -0.18466048035E+03  0.12379072333E+03 -0.12350873539E+03  0.25431880597E+03  0.10566000000E+00 0. -1.
     200003    1    4    4    0    0  0.16107181712E+02  0.58717970088E+01  0.11636375093E+02  0.36459903018E+02  0.30000000000E+02 0. -1.
     200000    1    3    3    0    0 -0.24861846620E+03  0.11201976275E+03 -0.34218258165E+02  0.57055276546E+03  0.50000000000E+03 0.  1.
    -200001    1    1    2    0    0  0.41717176484E+03 -0.24168228310E+03 -0.15740518325E+03  0.86441830097E+03  0.70000000000E+03 0. -1.
<mgrwt>
<rscale>  0 0.16988533E+04</rscale>
<asrwt>0</asrwt>
<pdfrwt beam="1">  1        4 0.10158957E+00 0.16988533E+04</pdfrwt>
<pdfrwt beam="2">  1       -4 0.14494611E+00 0.16988533E+04</pdfrwt>
<totfact> 0.49727875E-01</totfact>
</mgrwt>
</event>
<event>
 8    1  0.1378634E-029  0.1585715E+04  0.7818608E-02  0.8829372E-01
          4   -1    0    0  501    0  0.00000000000E+00  0.00000000000E+00  0.13346514744E+04  0.13346520786E+04  0.12700000000E+01 0.  1.
         -4   -1    0    0    0  501 -0.00000000000E+00 -0.00000000000E+00 -0.47100020567E+03  0.47100191788E+03  0.12700000000E+01 0. -1.
     200001    2    1    2    0    0 -0.28430189092E+03 -0.34710118034E+02  0.16312290845E+03  0.77474549377E+03  0.70113418072E+03 0.  0.
    5000001    2    3    3    0    0 -0.11052319803E+03 -0.11159445106E+00  0.55031550329E+02  0.23337701146E+03  0.19804284433E+03 0.  0.
        -13    1    4    4    0    0 -0.58411911697E+02  0.94891217266E+02  0.86848599237E+01  0.11176641937E+03  0.10566000000E+00 0. -1.
     200003    1    4    4    0    0 -0.52111286334E+02 -0.95002811717E+02  0.46346690405E+02  0.12161059209E+03  0.30000000000E+02 0. -1.
     200000    1    3    3    0    0 -0.17377869289E+03 -0.34598523583E+02  0.10809135812E+03  0.54136848231E+03  0.50000000000E+03 0. -1.
    -200001    1    1    2    0    0  0.28430189092E+03  0.34710118034E+02  0.70052836026E+03  0.10309085027E+04  0.70000000000E+03 0.  1.
<mgrwt>
<rscale>  0 0.15857152E+04</rscale>
<asrwt>0</asrwt>
<pdfrwt beam="1">  1        4 0.19066466E+00 0.15857152E+04</pdfrwt>
<pdfrwt beam="2">  1       -4 0.67285910E-01 0.15857152E+04</pdfrwt>
<totfact> 0.59962800E-01</totfact>
</mgrwt>
</event>
<event>
 8    1  0.1378634E-029  0.1484448E+04  0.7818608E-02  0.8894861E-01
          4   -1    0    0  501    0  0.00000000000E+00  0.00000000000E+00  0.61883458140E+03  0.61883588457E+03  0.12700000000E+01 0.  1.
         -4   -1    0    0    0  501 -0.00000000000E+00 -0.00000000000E+00 -0.89021392500E+03  0.89021483091E+03  0.12700000000E+01 0. -1.
     200001    2    1    2    0    0  0.19762787762E+03 -0.94806975871E+02 -0.25370169566E+03  0.77532212811E+03  0.69908133381E+03 0.  0.
    5000001    2    3    3    0    0  0.13059278866E+03 -0.16760605728E+02 -0.13102790217E+03  0.25031374851E+03  0.16778935363E+03 0.  0.
        -13    1    4    4    0    0 -0.23398923646E+02  0.12447289191E+02  0.17941595579E+02  0.32005572202E+02  0.10566000000E+00 0. -1.
     200003    1    4    4    0    0  0.15399171230E+03 -0.29207894919E+02 -0.14896949775E+03  0.21830817631E+03  0.30000000000E+02 0. -1.
     200000    1    3    3    0    0  0.67035088961E+02 -0.78046370143E+02 -0.12267379349E+03  0.52500837960E+03  0.50000000000E+03 0.  1.
    -200001    1    1    2    0    0 -0.19762787762E+03  0.94806975871E+02 -0.17677647944E+02  0.73372858737E+03  0.70000000000E+03 0. -1.
<mgrwt>
<rscale>  0 0.14844485E+04</rscale>
<asrwt>0</asrwt>
<pdfrwt beam="1">  1        4 0.88405098E-01 0.14844485E+04</pdfrwt>
<pdfrwt beam="2">  1       -4 0.12717358E+00 0.14844485E+04</pdfrwt>
<totfact> 0.98175141E-01</totfact>
</mgrwt>
</event>
<event>
 8    1  0.1378634E-029  0.1852086E+04  0.7818608E-02  0.8679081E-01
          4   -1    0    0  501    0  0.00000000000E+00  0.00000000000E+00  0.79882084352E+03  0.79882185307E+03  0.12700000000E+01 0.  1.
         -4   -1    0    0    0  501 -0.00000000000E+00 -0.00000000000E+00 -0.10735243443E+04  0.10735250955E+04  0.12700000000E+01 0. -1.
     200001    2    1    2    0    0 -0.60360614122E+02  0.49923501883E+03  0.20520985909E+03  0.88584006023E+03  0.69980177070E+03 0.  0.
    5000001    2    3    3    0    0 -0.35732823051E+02  0.10779902921E+03  0.91300845606E+02  0.24023652445E+03  0.19099810975E+03 0.  0.
        -13    1    4    4    0    0  0.15981233891E+02 -0.10872315577E+02  0.10489629339E+03  0.10666232050E+03  0.10566000000E+00 0. -1.
     200003    1    4    4    0    0 -0.51714056942E+02  0.11867134479E+03 -0.13595447784E+02  0.13357420395E+03  0.30000000000E+02 0. -1.
     200000    1    3    3    0    0 -0.24627791070E+02  0.39143598962E+03  0.11390901349E+03  0.64560353578E+03  0.50000000000E+03 0.  1.
    -200001    1    1    2    0    0  0.60360614122E+02 -0.49923501883E+03 -0.47991335983E+03  0.98650688832E+03  0.70000000000E+03 0. -1.
<mgrwt>
<rscale>  0 0.18520856E+04</rscale>
<asrwt>0</asrwt>
<pdfrwt beam="1">  1        4 0.11411739E+00 0.18520856E+04</pdfrwt>
<pdfrwt beam="2">  1       -4 0.15336075E+00 0.18520856E+04</pdfrwt>
<totfact> 0.31899886E-01</totfact>
</mgrwt>
</event>
<event>
 8    1  0.1378634E-029  0.1626551E+04  0.7818608E-02  0.8804401E-01
          4   -1    0    0  501    0  0.00000000000E+00  0.00000000000E+00  0.10692643544E+04  0.10692651086E+04  0.12700000000E+01 0.  1.
         -4   -1    0    0    0  501 -0.00000000000E+00 -0.00000000000E+00 -0.61857058701E+03  0.61857189074E+03  0.12700000000E+01 0. -1.
     200001    2    1    2    0    0 -0.29932019808E+03 -0.74712808824E+02 -0.61258430461E+02  0.76736449151E+03  0.69994362826E+03 0.  0.
    5000001    2    3    3    0    0 -0.17923348998E+02 -0.12805155507E+01  0.72440388188E+02  0.17368792765E+03  0.15683430815E+03 0.  0.
        -13    1    4    4    0    0 -0.68445309571E+02 -0.34830466644E+02  0.31812216952E+01  0.76863861108E+02  0.10566000000E+00 0. -1.
     200003    1    4    4    0    0  0.50521960574E+02  0.33549951093E+02  0.69259166493E+02  0.96824066543E+02  0.30000000000E+02 0. -1.
     200000    1    3    3    0    0 -0.28139684908E+03 -0.73432293273E+02 -0.13369881865E+03  0.59367656386E+03  0.50000000000E+03 0. -1.
    -200001    1    1    2    0    0  0.29932019808E+03  0.74712808824E+02  0.51195219781E+03  0.92047250781E+03  0.70000000000E+03 0. -1.
<mgrwt>
<rscale>  0 0.16265512E+04</rscale>
<asrwt>0</asrwt>
<pdfrwt beam="1">  1        4 0.15275220E+00 0.16265512E+04</pdfrwt>
<pdfrwt beam="2">  1       -4 0.88367373E-01 0.16265512E+04</pdfrwt>
<totfact> 0.60371145E-01</totfact>
</mgrwt>
</event>
<event>
 8    1  0.1378634E-029  0.1464189E+04  0.7818608E-02  0.8908622E-01
          4   -1    0    0  501    0  0.00000000000E+00  0.00000000000E+00  0.30869188153E+03  0.30869449399E+03  0.12700000000E+01 0.  1.
         -4   -1    0    0    0  501 -0.00000000000E+00 -0.00000000000E+00 -0.17362271265E+04  0.17362275910E+04  0.12700000000E+01 0. -1.
     200001    2    1    2    0    0 -0.13156524295E+03 -0.12188423105E+03 -0.88394318184E+03  0.11406779199E+04  0.69830178959E+03 0.  0.
    5000001    2    3    3    0    0 -0.60154671563E+02 -0.26425878285E+02 -0.15119822366E+03  0.24562097170E+03  0.18207648763E+03 0.  0.
        -13    1    4    4    0    0 -0.52321539970E+02  0.66167599139E+02 -0.11243659788E+03  0.14056206610E+03  0.10566000000E+00 0. -1.
     200003    1    4    4    0    0 -0.78331315935E+01 -0.92593477424E+02 -0.38761625783E+02  0.10505890560E+03  0.30000000000E+02 0. -1.
     200000    1    3    3    0    0 -0.71410571382E+02 -0.95458352769E+02 -0.73274495818E+03  0.89505694822E+03  0.50000000000E+03 0. -1.
    -200001    1    1    2    0    0  0.13156524295E+03  0.12188423105E+03 -0.54359206312E+03  0.90424416504E+03  0.70000000000E+03 0.  1.
<mgrwt>
<rscale>  0 0.14641890E+04</rscale>
<asrwt>0</asrwt>
<pdfrwt beam="1">  1        4 0.44099061E-01 0.14641890E+04</pdfrwt>
<pdfrwt beam="2">  1       -4 0.24803266E+00 0.14641890E+04</pdfrwt>
<totfact> 0.63444881E-01</totfact>
</mgrwt>
</event>
<event>
 8    1  0.1378634E-029  0.1813105E+04  0.7818608E-02  0.8699361E-01
         -4   -1    0    0    0  501 -0.00000000000E+00  0.00000000000E+00  0.72702434454E+03  0.72702545379E+03  0.12700000000E+01 0. -1.
          4   -1    0    0  501    0  0.00000000000E+00 -0.00000000000E+00 -0.11304106498E+04  0.11304113632E+04  0.12700000000E+01 0.  1.
     200001    2    1    2    0    0  0.38509627786E+03 -0.40079441206E+02 -0.63873296681E+03  0.10235941724E+04  0.69989979431E+03 0.  0.
    5000001    2    3    3    0    0  0.41352120238E+02  0.33277597682E+01 -0.24704939110E+03  0.30008864066E+03  0.16522323921E+03 0.  0.
        -13    1    4    4    0    0  0.24243383608E+02 -0.78146394217E+02 -0.12193134773E+03  0.14683959037E+03  0.10566000000E+00 0. -1.
     200003    1    4    4    0    0  0.17108736630E+02  0.81474153985E+02 -0.12511804337E+03  0.15324905029E+03  0.30000000000E+02 0. -1.
     200000    1    3    3    0    0  0.34374415762E+03 -0.43407200974E+02 -0.39168357571E+03  0.72350553175E+03  0.50000000000E+03 0. -1.
    -200001    1    1    2    0    0 -0.38509627786E+03  0.40079441206E+02  0.23534666156E+03  0.83384264459E+03  0.70000000000E+03 0. -1.
<mgrwt>
<rscale>  0 0.18131054E+04</rscale>
<asrwt>0</asrwt>
<pdfrwt beam="1">  1        4 0.16148736E+00 0.18131054E+04</pdfrwt>
<pdfrwt beam="2">  1       -4 0.10386075E+00 0.18131054E+04</pdfrwt>
<totfact> 0.34955087E-01</totfact>
</mgrwt>
</event>
<event>
 8    1  0.1378634E-029  0.1676315E+04  0.7818608E-02  0.8774990E-01
          4   -1    0    0  501    0  0.00000000000E+00  0.00000000000E+00  0.55655372712E+03  0.55655517612E+03  0.12700000000E+01 0.  1.
         -4   -1    0    0    0  501 -0.00000000000E+00 -0.00000000000E+00 -0.12622424070E+04  0.12622430459E+04  0.12700000000E+01 0. -1.
     200001    2    1    2    0    0 -0.38203874952E+03 -0.12575892276E+03 -0.59790327959E+03  0.10043127370E+04  0.69956188377E+03 0.  0.
    5000001    2    3    3    0    0 -0.72808804057E+02 -0.14577221767E+03 -0.21204229396E+03  0.30081263655E+03  0.13775211971E+03 0.  0.
        -13    1    4    4    0    0 -0.52624881652E+02 -0.12208329923E+03 -0.21981772721E+03  0.25689210669E+03  0.10566000000E+00 0. -1.
     200003    1    4    4    0    0 -0.20183922405E+02 -0.23688918436E+02  0.77754332513E+01  0.43920529853E+02  0.30000000000E+02 0. -1.
     200000    1    3    3    0    0 -0.30922994546E+03  0.20013294914E+02 -0.38586098563E+03  0.70350010048E+03  0.50000000000E+03 0.  1.
    -200001    1    1    2    0    0  0.38203874952E+03  0.12575892276E+03 -0.10778540031E+03  0.81448548502E+03  0.70000000000E+03 0.  1.
<mgrwt>
<rscale>  0 0.16763145E+04</rscale>
<asrwt>0</asrwt>
<pdfrwt beam="1">  1        4 0.79507825E-01 0.16763145E+04</pdfrwt>
<pdfrwt beam="2">  1       -4 0.18032049E+00 0.16763145E+04</pdfrwt>
<totfact> 0.48308519E-01</totfact>
</mgrwt>
</event>
<event>
 8    1  0.1378634E-029  0.1930814E+04  0.7818608E-02  0.8639669E-01
         -4   -1    0    0    0  501 -0.00000000000E+00  0.00000000000E+00  0.13198005683E+04  0.13198011793E+04  0.12700000000E+01 0. -1.
          4   -1    0    0  501    0  0.00000000000E+00 -0.00000000000E+00 -0.70617400580E+03  0.70617514780E+03  0.12700000000E+01 0.  1.
     200001    2    1    2    0    0  0.47733328990E+03  0.37519678162E+03  0.59189742173E+03  0.10991042485E+04  0.69933389496E+03 0.  0.
    5000001    2    3    3    0    0  0.54901892855E+02  0.13257238113E+03  0.14207779026E+03  0.26865100732E+03  0.17719371087E+03 0.  0.
        -13    1    4    4    0    0  0.68837120750E+02  0.16829700883E+02 -0.13296663022E+02  0.72101320629E+02  0.10566000000E+00 0. -1.
     200003    1    4    4    0    0 -0.13935227895E+02  0.11574268025E+03  0.15537445328E+03  0.19654968669E+03  0.30000000000E+02 0. -1.
     200000    1    3    3    0    0  0.42243139705E+03  0.24262440048E+03  0.44981963148E+03  0.83045324118E+03  0.50000000000E+03 0. -1.
    -200001    1    1    2    0    0 -0.47733328990E+03 -0.37519678162E+03  0.21729140758E+02  0.92687207863E+03  0.70000000000E+03 0.  1.
<mgrwt>
<rscale>  0 0.19308140E+04</rscale>
<asrwt>0</asrwt>
<pdfrwt beam="1">  1        4 0.10088213E+00 0.19308140E+04</pdfrwt>
<pdfrwt beam="2">  1       -4 0.18854306E+00 0.19308140E+04</pdfrwt>
<totfact> 0.23913433E-01</totfact>
</mgrwt>
</event>
<event>
 8    1  0.1378634E-029  0.1588078E+04  0.7818608E-02  0.8827906E-01
         -4   -1    0    0    0  501 -0.00000000000E+00  0.00000000000E+00  0.98034664305E+03  0.98034746567E+03  0.12700000000E+01 0. -1.
          4   -1    0    0  501    0  0.00000000000E+00 -0.00000000000E+00 -0.64313599122E+03  0.64313724515E+03  0.12700000000E+01 0.  1.
     200001    2    1    2    0    0 -0.66919722548E+01 -0.37226156403E+03  0.23668841441E+03  0.82427999690E+03  0.69627053164E+03 0.  0.
    5000001    2    3    3    0    0  0.52129944002E+02 -0.93513367021E+02 -0.34749972533E+02  0.18801010678E+03  0.15059202763E+03 0.  0.
        -13    1    4    4    0    0  0.88442666309E+02 -0.73476711807E+02 -0.61348676512E+02  0.13032499252E+03  0.10566000000E+00 0. -1.
     200003    1    4    4    0    0 -0.36312722307E+02 -0.20036655214E+02  0.26598703979E+02  0.57685114257E+02  0.30000000000E+02 0. -1.
     200000    1    3    3    0    0 -0.58821916257E+02 -0.27874819701E+03  0.27143838694E+03  0.63626989012E+03  0.50000000000E+03 0.  1.
    -200001    1    1    2    0    0  0.66919722548E+01  0.37226156403E+03  0.10052223742E+03  0.79920471393E+03  0.70000000000E+03 0. -1.
<mgrwt>
<rscale>  0 0.15880780E+04</rscale>
<asrwt>0</asrwt>
<pdfrwt beam="1">  1        4 0.91876718E-01 0.15880780E+04</pdfrwt>
<pdfrwt beam="2">  1       -4 0.14004967E+00 0.15880780E+04</pdfrwt>
<totfact> 0.69579124E-01</totfact>
</mgrwt>
</event>
<event>
 8    1  0.1378634E-029  0.1840641E+04  0.7818608E-02  0.8684980E-01
          4   -1    0    0  501    0  0.00000000000E+00  0.00000000000E+00  0.53316757851E+03  0.53316909107E+03  0.12700000000E+01 0.  1.
         -4   -1    0    0    0  501 -0.00000000000E+00 -0.00000000000E+00 -0.15885964715E+04  0.15885969792E+04  0.12700000000E+01 0. -1.
     200001    2    1    2    0    0 -0.34611012874E+03  0.15548288899E+03  0.42496541681E+01  0.79629039211E+03  0.70006655327E+03 0.  0.
    5000001    2    3    3    0    0 -0.85430668696E+02  0.29046970526E+02  0.62077016484E+02  0.21552897276E+03  0.18562612013E+03 0.  0.
        -13    1    4    4    0    0 -0.16018333997E+01 -0.62764074806E+02 -0.17149971593E+02  0.65084772767E+02  0.10566000000E+00 0. -1.
     200003    1    4    4    0    0 -0.83828835296E+02  0.91811045331E+02  0.79226988077E+02  0.15044419999E+03  0.30000000000E+02 0. -1.
     200000    1    3    3    0    0 -0.26067946005E+03  0.12643591847E+03 -0.57827362316E+02  0.58076141935E+03  0.50000000000E+03 0.  1.
    -200001    1    1    2    0    0  0.34611012874E+03 -0.15548288899E+03 -0.10596785472E+04  0.13254756782E+04  0.70000000000E+03 0. -1.
<mgrwt>
<rscale>  0 0.18406415E+04</rscale>
<asrwt>0</asrwt>
<pdfrwt beam="1">  1        4 0.76166942E-01 0.18406415E+04</pdfrwt>
<pdfrwt beam="2">  1       -4 0.22694250E+00 0.18406415E+04</pdfrwt>
<totfact> 0.25912714E-01</totfact>
</mgrwt>
</event>
<event>
 8    1  0.1378634E-029  0.1969877E+04  0.7818608E-02  0.8620835E-01
         -4   -1    0    0    0  501 -0.00000000000E+00  0.00000000000E+00  0.16358283942E+04  0.16358288872E+04  0.12700000000E+01 0. -1.
          4   -1    0    0  501    0  0.00000000000E+00 -0.00000000000E+00 -0.59303382856E+03  0.59303518843E+03  0.12700000000E+01 0.  1.
     200001    2    1    2    0    0 -0.49955395668E+03  0.39717151965E+03  0.21534660630E+03  0.97110038675E+03  0.69954444366E+03 0.  0.
    5000001    2    3    3    0    0 -0.16829074191E+02  0.17748035637E+03  0.66532676443E+02  0.22716953975E+03  0.12408427830E+03 0.  0.
        -13    1    4    4    0    0 -0.85889484227E+01 -0.12875736591E+02  0.25718781757E+02  0.30017020620E+02  0.10566000000E+00 0. -1.
     200003    1    4    4    0    0 -0.82401257679E+01  0.19035609297E+03  0.40813894686E+02  0.19715251913E+03  0.30000000000E+02 0. -1.
     200000    1    3    3    0    0 -0.48272488249E+03  0.21969116327E+03  0.14881392986E+03  0.74393084700E+03  0.50000000000E+03 0. -1.
    -200001    1    1    2    0    0  0.49955395668E+03 -0.39717151965E+03  0.82744795935E+03  0.12577636889E+04  0.70000000000E+03 0. -1.
<mgrwt>
<rscale>  0 0.19698768E+04</rscale>
<asrwt>0</asrwt>
<pdfrwt beam="1">  1        4 0.84719250E-01 0.19698768E+04</pdfrwt>
<pdfrwt beam="2">  1       -4 0.23368990E+00 0.19698768E+04</pdfrwt>
<totfact> 0.18253898E-01</totfact>
</mgrwt>
</event>
<event>
 8    1  0.1378634E-029  0.1438331E+04  0.7818608E-02  0.8926531E-01
          4   -1    0    0  501    0  0.00000000000E+00  0.00000000000E+00  0.86074141835E+03  0.86074235527E+03  0.12700000000E+01 0.  1.
         -4   -1    0    0    0  501 -0.00000000000E+00 -0.00000000000E+00 -0.60087419631E+03  0.60087553844E+03  0.12700000000E+01 0. -1.
     200001    2    1    2    0    0 -0.12427257737E+03 -0.49927765914E+02  0.31992748369E+02  0.71337780453E+03  0.69996278527E+03 0.  0.
    5000001    2    3    3    0    0 -0.25109208178E+02 -0.15013903082E+02  0.17712642541E+02  0.20224546058E+03  0.19933288489E+03 0.  0.
        -13    1    4    4    0    0  0.76639102975E+02  0.18670451931E+02 -0.25429035321E+02  0.82878132710E+02  0.10566000000E+00 0. -1.
     200003    1    4    4    0    0 -0.10174831115E+03 -0.33684355013E+02  0.43141677862E+02  0.11936732787E+03  0.30000000000E+02 0. -1.
     200000    1    3    3    0    0 -0.99163369197E+02 -0.34913862832E+02  0.14280105827E+02  0.51113234395E+03  0.50000000000E+03 0. -1.
    -200001    1    1    2    0    0  0.12427257737E+03  0.49927765914E+02  0.22787447367E+03  0.74824008917E+03  0.70000000000E+03 0.  1.
<mgrwt>
<rscale>  0 0.14383309E+04</rscale>
<asrwt>0</asrwt>
<pdfrwt beam="1">  1        4 0.12296322E+00 0.14383309E+04</pdfrwt>
<pdfrwt beam="2">  1       -4 0.85839334E-01 0.14383309E+04</pdfrwt>
<totfact> 0.11475024E+00</totfact>
</mgrwt>
</event>
<event>
 8    1  0.1378634E-029  0.1461894E+04  0.7818608E-02  0.8910196E-01
          4   -1    0    0  501    0  0.00000000000E+00  0.00000000000E+00  0.22437200202E+04  0.22437203796E+04  0.12700000000E+01 0.  1.
         -4   -1    0    0    0  501 -0.00000000000E+00 -0.00000000000E+00 -0.23812204410E+03  0.23812543078E+03  0.12700000000E+01 0. -1.
     200001    2    1    2    0    0  0.39450860336E+02 -0.16633415072E+03  0.81163288334E+03  0.10872935300E+04  0.70301910569E+03 0.  0.
    5000001    2    3    3    0    0  0.94683379360E+02 -0.19318829336E+02  0.32742880923E+03  0.37376867319E+03  0.15216844763E+03 0.  0.
        -13    1    4    4    0    0  0.30988474965E+02 -0.70810078800E+02  0.23173796595E+03  0.24428845422E+03  0.10566000000E+00 0. -1.
     200003    1    4    4    0    0  0.63694904395E+02  0.51491249463E+02  0.95690843283E+02  0.12948021897E+03  0.30000000000E+02 0. -1.
     200000    1    3    3    0    0 -0.55232519025E+02 -0.14701532138E+03  0.48420407411E+03  0.71352485679E+03  0.50000000000E+03 0.  1.
    -200001    1    1    2    0    0 -0.39450860336E+02  0.16633415072E+03  0.11939650927E+04  0.13945522804E+04  0.70000000000E+03 0.  1.
<mgrwt>
<rscale>  0 0.14618945E+04</rscale>
<asrwt>0</asrwt>
<pdfrwt beam="1">  1        4 0.32053171E+00 0.14618945E+04</pdfrwt>
<pdfrwt beam="2">  1       -4 0.34017702E-01 0.14618945E+04</pdfrwt>
<totfact> 0.37964276E-01</totfact>
</mgrwt>
</event>
<event>
 8    1  0.1378634E-029  0.2257412E+04  0.7818608E-02  0.8494905E-01
         -4   -1    0    0    0  501 -0.00000000000E+00  0.00000000000E+00  0.16222005116E+04  0.16222010087E+04  0.12700000000E+01 0. -1.
          4   -1    0    0  501    0  0.00000000000E+00 -0.00000000000E+00 -0.78533755063E+03  0.78533857751E+03  0.12700000000E+01 0.  1.
     200001    2    1    2    0    0  0.64917205776E+02  0.61266121610E+03  0.10965334219E+04  0.14395536578E+04  0.70025793744E+03 0.  0.
    5000001    2    3    3    0    0 -0.22027418356E+02  0.23749146625E+03  0.20059516659E+03  0.34364441600E+03  0.14479523504E+03 0.  0.
        -13    1    4    4    0    0 -0.69878094498E+02  0.10679879926E+03  0.51894352131E+02  0.13777505783E+03  0.10566000000E+00 0. -1.
     200003    1    4    4    0    0  0.47850676142E+02  0.13069266699E+03  0.14870081446E+03  0.20586935817E+03  0.30000000000E+02 0. -1.
     200000    1    3    3    0    0  0.86944624132E+02  0.37516974985E+03  0.89593825536E+03  0.10959092418E+04  0.50000000000E+03 0. -1.
    -200001    1    1    2    0    0 -0.64917205776E+02 -0.61266121610E+03 -0.25967046099E+03  0.96798592842E+03  0.70000000000E+03 0.  1.
<mgrwt>
<rscale>  0 0.22574116E+04</rscale>
<asrwt>0</asrwt>
<pdfrwt beam="1">  1        4 0.11219119E+00 0.22574116E+04</pdfrwt>
<pdfrwt beam="2">  1       -4 0.23174304E+00 0.22574116E+04</pdfrwt>
<totfact> 0.94187816E-02</totfact>
</mgrwt>
</event>
<event>
 8    1  0.1378634E-029  0.1516930E+04  0.7818608E-02  0.8873272E-01
          4   -1    0    0  501    0  0.00000000000E+00  0.00000000000E+00  0.76107634592E+03  0.76107740554E+03  0.12700000000E+01 0.  1.
         -4   -1    0    0    0  501 -0.00000000000E+00 -0.00000000000E+00 -0.75586021281E+03  0.75586127974E+03  0.12700000000E+01 0. -1.
     200001    2    1    2    0    0  0.50883906177E+02 -0.28673020147E+03  0.13501470893E+02  0.75873552835E+03  0.70049549029E+03 0.  0.
    5000001    2    3    3    0    0 -0.64744273986E+02 -0.75638782748E+02 -0.51400487136E+02  0.20003907475E+03  0.16571232567E+03 0.  0.
        -13    1    4    4    0    0  0.35231673064E+01  0.28578610395E+02  0.35122233728E+02  0.45417311084E+02  0.10566000000E+00 0. -1.
     200003    1    4    4    0    0 -0.68267441292E+02 -0.10421739314E+03 -0.86522720864E+02  0.15462176367E+03  0.30000000000E+02 0. -1.
     200000    1    3    3    0    0  0.11562818016E+03 -0.21109141873E+03  0.64901958029E+02  0.55869645360E+03  0.50000000000E+03 0.  1.
    -200001    1    1    2    0    0 -0.50883906177E+02  0.28673020147E+03 -0.82853377840E+01  0.75820315692E+03  0.70000000000E+03 0. -1.
<mgrwt>
<rscale>  0 0.15169297E+04</rscale>
<asrwt>0</asrwt>
<pdfrwt beam="1">  1        4 0.10872534E+00 0.15169297E+04</pdfrwt>
<pdfrwt beam="2">  1       -4 0.10798018E+00 0.15169297E+04</pdfrwt>
<totfact> 0.89877465E-01</totfact>
</mgrwt>
</event>
<event>
 8    1  0.1378634E-029  0.1619824E+04  0.7818608E-02  0.8808461E-01
         -4   -1    0    0    0  501 -0.00000000000E+00  0.00000000000E+00  0.10011832328E+04  0.10011840383E+04  0.12700000000E+01 0. -1.
          4   -1    0    0  501    0  0.00000000000E+00 -0.00000000000E+00 -0.65518060964E+03  0.65518184052E+03  0.12700000000E+01 0.  1.
     200001    2    1    2    0    0 -0.25111745669E+03  0.31827013499E+03  0.21824767544E+03  0.83741705106E+03  0.69948510612E+03 0.  0.
    5000001    2    3    3    0    0 -0.45473344274E+02  0.11303291680E+02  0.70122342988E+02  0.19830887713E+03  0.17948169356E+03 0.  0.
        -13    1    4    4    0    0 -0.50427823972E+02 -0.74935884653E+02  0.15067135192E+02  0.91571731261E+02  0.10566000000E+00 0. -1.
     200003    1    4    4    0    0  0.49544796981E+01  0.86239176333E+02  0.55055207796E+02  0.10673714587E+03  0.30000000000E+02 0. -1.
     200000    1    3    3    0    0 -0.20564411242E+03  0.30696684331E+03  0.14812533245E+03  0.63910817392E+03  0.50000000000E+03 0. -1.
    -200001    1    1    2    0    0  0.25111745669E+03 -0.31827013499E+03  0.12775494776E+03  0.81894882780E+03  0.70000000000E+03 0.  1.
<mgrwt>
<rscale>  0 0.16198241E+04</rscale>
<asrwt>0</asrwt>
<pdfrwt beam="1">  1        4 0.93597376E-01 0.16198241E+04</pdfrwt>
<pdfrwt beam="2">  1       -4 0.14302632E+00 0.16198241E+04</pdfrwt>
<totfact> 0.62904857E-01</totfact>
</mgrwt>
</event>
<event>
 8    1  0.1378634E-029  0.1534026E+04  0.7818608E-02  0.8862136E-01
         -4   -1    0    0    0  501 -0.00000000000E+00  0.00000000000E+00  0.14722546998E+04  0.14722552475E+04  0.12700000000E+01 0. -1.
          4   -1    0    0  501    0  0.00000000000E+00 -0.00000000000E+00 -0.39959562911E+03  0.39959764727E+03  0.12700000000E+01 0.  1.
     200001    2    1    2    0    0 -0.21968810639E+03 -0.20968297002E+03  0.43884720448E+03  0.87991172027E+03  0.69959127681E+03 0.  0.
    5000001    2    3    3    0    0 -0.11960712599E+03 -0.26275320370E+02  0.75160098646E+02  0.22728404730E+03  0.17610434600E+03 0.  0.
        -13    1    4    4    0    0 -0.92602181127E+02 -0.28869744001E+02  0.12808769874E+03  0.16067076834E+03  0.10566000000E+00 0. -1.
     200003    1    4    4    0    0 -0.27004944864E+02  0.25944236309E+01 -0.52927600094E+02  0.66613278952E+02  0.30000000000E+02 0. -1.
     200000    1    3    3    0    0 -0.10008098040E+03 -0.18340764965E+03  0.36368710583E+03  0.65262767298E+03  0.50000000000E+03 0. -1.
    -200001    1    1    2    0    0  0.21968810639E+03  0.20968297002E+03  0.63381186617E+03  0.99194117452E+03  0.70000000000E+03 0.  1.
<mgrwt>
<rscale>  0 0.15340260E+04</rscale>
<asrwt>0</asrwt>
<pdfrwt beam="1">  1        4 0.57085272E-01 0.15340260E+04</pdfrwt>
<pdfrwt beam="2">  1       -4 0.21032229E+00 0.15340260E+04</pdfrwt>
<totfact> 0.63713167E-01</totfact>
</mgrwt>
</event>
<event>
 8    1  0.1378634E-029  0.1601677E+04  0.7818608E-02  0.8819518E-01
         -4   -1    0    0    0  501 -0.00000000000E+00  0.00000000000E+00  0.45130232169E+03  0.45130410863E+03  0.12700000000E+01 0. -1.
          4   -1    0    0  501    0  0.00000000000E+00 -0.00000000000E+00 -0.14210875060E+04  0.14210880735E+04  0.12700000000E+01 0.  1.
     200001    2    1    2    0    0 -0.99925093984E+02  0.32193127578E+03 -0.25041572914E+03  0.81356396954E+03  0.69681670789E+03 0.  0.
    5000001    2    3    3    0    0  0.15565194049E+02  0.10373944920E+03 -0.14586191192E+03  0.24622176195E+03  0.16836065491E+03 0.  0.
        -13    1    4    4    0    0  0.78403883386E+02  0.91264944852E+01 -0.75830717100E+02  0.10945670675E+03  0.10566000000E+00 0. -1.
     200003    1    4    4    0    0 -0.62838689337E+02  0.94612954711E+02 -0.70031194818E+02  0.13676505520E+03  0.30000000000E+02 0. -1.
     200000    1    3    3    0    0 -0.11549028803E+03  0.21819182658E+03 -0.10455381722E+03  0.56734220759E+03  0.50000000000E+03 0. -1.
    -200001    1    1    2    0    0  0.99925093984E+02 -0.32193127578E+03 -0.71936945517E+03  0.10588282126E+04  0.70000000000E+03 0.  1.
<mgrwt>
<rscale>  0 0.16016770E+04</rscale>
<asrwt>0</asrwt>
<pdfrwt beam="1">  1        4 0.20301267E+00 0.16016770E+04</pdfrwt>
<pdfrwt beam="2">  1       -4 0.64471929E-01 0.16016770E+04</pdfrwt>
<totfact> 0.54418747E-01</totfact>
</mgrwt>
</event>
<event>
 8    1  0.1378634E-029  0.1812431E+04  0.7818608E-02  0.8699717E-01
          4   -1    0    0  501    0  0.00000000000E+00  0.00000000000E+00  0.40462322311E+03  0.40462521619E+03  0.12700000000E+01 0.  1.
         -4   -1    0    0    0  501 -0.00000000000E+00 -0.00000000000E+00 -0.20295998427E+04  0.20296002401E+04  0.12700000000E+01 0. -1.
     200001    2    1    2    0    0 -0.28538565702E+03 -0.39019293409E+03 -0.39410695819E+03  0.93798496006E+03  0.70057118964E+03 0.  0.
    5000001    2    3    3    0    0 -0.98859129231E+02 -0.15667642904E+03 -0.21746627374E+03  0.32927810524E+03  0.16374327322E+03 0.  0.
        -13    1    4    4    0    0 -0.22698004307E+02  0.18030787775E+02  0.10315560724E+02  0.30768988680E+02  0.10566000000E+00 0. -1.
     200003    1    4    4    0    0 -0.76161124924E+02 -0.17470721681E+03 -0.22778183447E+03  0.29850911656E+03  0.30000000000E+02 0. -1.
     200000    1    3    3    0    0 -0.18652652779E+03 -0.23351650505E+03 -0.17664068445E+03  0.60870685482E+03  0.50000000000E+03 0.  1.
    -200001    1    1    2    0    0  0.28538565702E+03  0.39019293409E+03 -0.12308696614E+04  0.14962404962E+04  0.70000000000E+03 0.  1.
<mgrwt>
<rscale>  0 0.18124306E+04</rscale>
<asrwt>0</asrwt>
<pdfrwt beam="1">  1        4 0.57803489E-01 0.18124306E+04</pdfrwt>
<pdfrwt beam="2">  1       -4 0.28994300E+00 0.18124306E+04</pdfrwt>
<totfact> 0.19299115E-01</totfact>
</mgrwt>
</event>
<event>
 8    1  0.1378634E-029  0.1648529E+04  0.7818608E-02  0.8791277E-01
         -4   -1    0    0    0  501 -0.00000000000E+00  0.00000000000E+00  0.22136210222E+04  0.22136213865E+04  0.12700000000E+01 0. -1.
          4   -1    0    0  501    0  0.00000000000E+00 -0.00000000000E+00 -0.30692145462E+03  0.30692408215E+03  0.12700000000E+01 0.  1.
     200001    2    1    2    0    0 -0.29410585843E+03 -0.31360484439E+03  0.10444863060E+04  0.13296391067E+04  0.70152851431E+03 0.  0.
    5000001    2    3    3    0    0 -0.12018403918E+03  0.17302719236E+02  0.14393652378E+03  0.23385695453E+03  0.13866421649E+03 0.  0.
        -13    1    4    4    0    0 -0.98051485348E+02  0.21514387842E+02  0.16326185058E+03  0.19165439124E+03  0.10566000000E+00 0. -1.
     200003    1    4    4    0    0 -0.22132553837E+02 -0.42116686069E+01 -0.19325326801E+02  0.42202563284E+02  0.30000000000E+02 0. -1.
     200000    1    3    3    0    0 -0.17392181925E+03 -0.33090756363E+03  0.90054978218E+03  0.10957821522E+04  0.50000000000E+03 0.  1.
    -200001    1    1    2    0    0  0.29410585843E+03  0.31360484439E+03  0.86221326157E+03  0.11909063619E+04  0.70000000000E+03 0. -1.
<mgrwt>
<rscale>  0 0.16485285E+04</rscale>
<asrwt>0</asrwt>
<pdfrwt beam="1">  1        4 0.43846135E-01 0.16485285E+04</pdfrwt>
<pdfrwt beam="2">  1       -4 0.31623179E+00 0.16485285E+04</pdfrwt>
<totfact> 0.23901508E-01</totfact>
</mgrwt>
</event>
<event>
 8    1  0.1378634E-029  0.1731958E+04  0.7818608E-02  0.8743345E-01
         -4   -1    0    0    0  501 -0.00000000000E+00  0.00000000000E+00  0.23656031483E+04  0.23656034892E+04  0.12700000000E+01 0. -1.
          4   -1    0    0  501    0  0.00000000000E+00 -0.00000000000E+00 -0.31700809884E+03  0.31701064277E+03  0.12700000000E+01 0.  1.
     200001    2    1    2    0    0 -0.25207531494E+03 -0.98374883542E+02  0.16864728124E+04  0.18493362091E+04  0.70896705522E+03 0.  0.
    5000001    2    3    3    0    0 -0.61846503030E+02  0.52014398299E+02  0.50477609167E+03  0.54349890046E+03  0.18455802479E+03 0.  0.
        -13    1    4    4    0    0 -0.18245330841E+02 -0.59247979367E+02  0.28383098305E+03  0.29052237997E+03  0.10566000000E+00 0. -1.
     200003    1    4    4    0    0 -0.43601172190E+02  0.11126237767E+03  0.22094510861E+03  0.25297652049E+03  0.30000000000E+02 0. -1.
     200000    1    3    3    0    0 -0.19022881191E+03 -0.15038928184E+03  0.11816967207E+04  0.13058373087E+04  0.50000000000E+03 0. -1.
    -200001    1    1    2    0    0  0.25207531494E+03  0.98374883542E+02  0.36212223707E+03  0.83327792284E+03  0.70000000000E+03 0.  1.
<mgrwt>
<rscale>  0 0.17319575E+04</rscale>
<asrwt>0</asrwt>
<pdfrwt beam="1">  1        4 0.45287077E-01 0.17319575E+04</pdfrwt>
<pdfrwt beam="2">  1       -4 0.33794352E+00 0.17319575E+04</pdfrwt>
<totfact> 0.16166122E-01</totfact>
</mgrwt>
</event>
<event>
 8    1  0.1378634E-029  0.1713936E+04  0.7818608E-02  0.8753456E-01
          4   -1    0    0  501    0  0.00000000000E+00  0.00000000000E+00  0.71427813417E+03  0.71427926322E+03  0.12700000000E+01 0.  1.
         -4   -1    0    0    0  501 -0.00000000000E+00 -0.00000000000E+00 -0.10281599480E+04  0.10281607324E+04  0.12700000000E+01 0. -1.
     200001    2    1    2    0    0  0.12369178192E+03 -0.39910056822E+03  0.11130922554E+03  0.82300085110E+03  0.70025690768E+03 0.  0.
    5000001    2    3    3    0    0  0.11555564588E+02 -0.76259138915E+00 -0.18559106777E+02  0.16109945455E+03  0.15960727174E+03 0.  0.
        -13    1    4    4    0    0 -0.61446363245E+02 -0.27494695209E+02 -0.35440605999E+02  0.76076681962E+02  0.10566000000E+00 0. -1.
     200003    1    4    4    0    0  0.73001927833E+02  0.26732103820E+02  0.16881499222E+02  0.85022772585E+02  0.30000000000E+02 0. -1.
     200000    1    3    3    0    0  0.11213621733E+03 -0.39833797684E+03  0.12986833232E+03  0.66190139656E+03  0.50000000000E+03 0. -1.
    -200001    1    1    2    0    0 -0.12369178192E+03  0.39910056822E+03 -0.42519103940E+03  0.91943914451E+03  0.70000000000E+03 0. -1.
<mgrwt>
<rscale>  0 0.17139356E+04</rscale>
<asrwt>0</asrwt>
<pdfrwt beam="1">  1        4 0.10203987E+00 0.17139356E+04</pdfrwt>
<pdfrwt beam="2">  1       -4 0.14688013E+00 0.17139356E+04</pdfrwt>
<totfact> 0.47454441E-01</totfact>
</mgrwt>
</event>
<event>
 8    1  0.1378634E-029  0.2296562E+04  0.7818608E-02  0.8479278E-01
         -4   -1    0    0    0  501 -0.00000000000E+00  0.00000000000E+00  0.12883328110E+04  0.12883334369E+04  0.12700000000E+01 0. -1.
          4   -1    0    0  501    0  0.00000000000E+00 -0.00000000000E+00 -0.10234523131E+04  0.10234531011E+04  0.12700000000E+01 0.  1.
     200001    2    1    2    0    0  0.97070895657E+02  0.68258338098E+03  0.73045719075E+03  0.12245402514E+04  0.70042008038E+03 0.  0.
    5000001    2    3    3    0    0  0.81963055693E+02  0.27381219383E+03  0.21441348223E+03  0.39772513338E+03  0.17470283447E+03 0.  0.
        -13    1    4    4    0    0  0.58707612808E+02  0.10784344839E+03 -0.14555567034E+01  0.12279626611E+03  0.10566000000E+00 0. -1.
     200003    1    4    4    0    0  0.23255442885E+02  0.16596874544E+03  0.21586903894E+03  0.27492886727E+03  0.30000000000E+02 0. -1.
     200000    1    3    3    0    0  0.15107839964E+02  0.40877118715E+03  0.51604370852E+03  0.82681511801E+03  0.50000000000E+03 0. -1.
    -200001    1    1    2    0    0 -0.97070895657E+02 -0.68258338098E+03 -0.46557669286E+03  0.10872462866E+04  0.70000000000E+03 0.  1.
<mgrwt>
<rscale>  0 0.22965616E+04</rscale>
<asrwt>0</asrwt>
<pdfrwt beam="1">  1        4 0.14620757E+00 0.22965616E+04</pdfrwt>
<pdfrwt beam="2">  1       -4 0.18404765E+00 0.22965616E+04</pdfrwt>
<totfact> 0.98290606E-02</totfact>
</mgrwt>
</event>
<event>
 8    1  0.1378634E-029  0.2001859E+04  0.7818608E-02  0.8605752E-01
         -4   -1    0    0    0  501 -0.00000000000E+00  0.00000000000E+00  0.19282801846E+04  0.19282806028E+04  0.12700000000E+01 0. -1.
          4   -1    0    0  501    0  0.00000000000E+00 -0.00000000000E+00 -0.51955986540E+03  0.51956141758E+03  0.12700000000E+01 0.  1.
     200001    2    1    2    0    0 -0.12001951032E+03 -0.39030709912E+03  0.14225335350E+04  0.16373266785E+04  0.70035182552E+03 0.  0.
    5000001    2    3    3    0    0 -0.29915133848E+02 -0.15892794437E+03  0.43620796495E+03  0.50397181704E+03  0.19379679291E+03 0.  0.
        -13    1    4    4    0    0  0.22808368343E+02 -0.16896305473E+03  0.21510736240E+03  0.27448119070E+03  0.10566000000E+00 0. -1.
     200003    1    4    4    0    0 -0.52723502191E+02  0.10035110359E+02  0.22110060256E+03  0.22949062633E+03  0.30000000000E+02 0. -1.
     200000    1    3    3    0    0 -0.90104376469E+02 -0.23137915475E+03  0.98632557004E+03  0.11333548615E+04  0.50000000000E+03 0. -1.
    -200001    1    1    2    0    0  0.12001951032E+03  0.39030709912E+03 -0.13813215809E+02  0.81051534187E+03  0.70000000000E+03 0.  1.
<mgrwt>
<rscale>  0 0.20018585E+04</rscale>
<asrwt>0</asrwt>
<pdfrwt beam="1">  1        4 0.74222979E-01 0.20018585E+04</pdfrwt>
<pdfrwt beam="2">  1       -4 0.27546874E+00 0.20018585E+04</pdfrwt>
<totfact> 0.13512496E-01</totfact>
</mgrwt>
</event>
<event>
 8    1  0.1378634E-029  0.1658436E+04  0.7818608E-02  0.8785431E-01
         -4   -1    0    0    0  501 -0.00000000000E+00  0.00000000000E+00  0.43618555132E+03  0.43618740019E+03  0.12700000000E+01 0. -1.
          4   -1    0    0  501    0  0.00000000000E+00 -0.00000000000E+00 -0.15763942864E+04  0.15763947980E+04  0.12700000000E+01 0.  1.
     200001    2    1    2    0    0  0.10825640910E+03  0.23490719608E+03 -0.12613674127E+03  0.75351792281E+03  0.69640357668E+03 0.  0.
    5000001    2    3    3    0    0 -0.62893948392E+01  0.63972997920E+02 -0.28807330270E+02  0.20414350081E+03  0.19160533838E+03 0.  0.
        -13    1    4    4    0    0  0.30961090431E+02  0.87113333304E+02  0.53022387621E+02  0.10657723356E+03  0.10566000000E+00 0. -1.
     200003    1    4    4    0    0 -0.37250485270E+02 -0.23140335385E+02 -0.81829717891E+02  0.97566267248E+02  0.30000000000E+02 0. -1.
     200000    1    3    3    0    0  0.11454580394E+03  0.17093419816E+03 -0.97329411003E+02  0.54937442200E+03  0.50000000000E+03 0. -1.
    -200001    1    1    2    0    0 -0.10825640910E+03 -0.23490719608E+03 -0.10140719939E+04  0.12590642754E+04  0.70000000000E+03 0.  1.
<mgrwt>
<rscale>  0 0.16584364E+04</rscale>
<asrwt>0</asrwt>
<pdfrwt beam="1">  1        4 0.22519935E+00 0.16584364E+04</pdfrwt>
<pdfrwt beam="2">  1       -4 0.62312391E-01 0.16584364E+04</pdfrwt>
<totfact> 0.41988606E-01</totfact>
</mgrwt>
</event>
<event>
 8    1  0.1378634E-029  0.1674104E+04  0.7818608E-02  0.8776273E-01
          4   -1    0    0  501    0  0.00000000000E+00  0.00000000000E+00  0.29665207466E+04  0.29665210184E+04  0.12700000000E+01 0.  1.
         -4   -1    0    0    0  501 -0.00000000000E+00 -0.00000000000E+00 -0.23618583818E+03  0.23618925263E+03  0.12700000000E+01 0. -1.
     200001    2    1    2    0    0  0.44983163073E+03  0.57982247503E+02  0.15079865552E+04  0.17228974675E+04  0.69902918094E+03 0.  0.
    5000001    2    3    3    0    0  0.80062725331E+02  0.10458844277E+03  0.32741930250E+03  0.38774196383E+03  0.16059778490E+03 0.  0.
        -13    1    4    4    0    0  0.11953353304E+03  0.59102574961E+02  0.26156710473E+03  0.29359622158E+03  0.10566000000E+00 0. -1.
     200003    1    4    4    0    0 -0.39470807706E+02  0.45485867808E+02  0.65852197773E+02  0.94145742245E+02  0.30000000000E+02 0. -1.
     200000    1    3    3    0    0  0.36976890540E+03 -0.46606195266E+02  0.11805672527E+04  0.13351555036E+04  0.50000000000E+03 0. -1.
    -200001    1    1    2    0    0 -0.44983163073E+03 -0.57982247503E+02  0.12223483532E+04  0.14798128036E+04  0.70000000000E+03 0.  1.
<mgrwt>
<rscale>  0 0.16741040E+04</rscale>
<asrwt>0</asrwt>
<pdfrwt beam="1">  1        4 0.42378891E+00 0.16741040E+04</pdfrwt>
<pdfrwt beam="2">  1       -4 0.33741100E-01 0.16741040E+04</pdfrwt>
<totfact> 0.76833432E-02</totfact>
</mgrwt>
</event>
<event>
 8    1  0.1378634E-029  0.1617662E+04  0.7818608E-02  0.8809771E-01
          4   -1    0    0  501    0  0.00000000000E+00  0.00000000000E+00  0.16408504530E+04  0.16408509444E+04  0.12700000000E+01 0.  1.
         -4   -1    0    0    0  501 -0.00000000000E+00 -0.00000000000E+00 -0.39869863136E+03  0.39870065406E+03  0.12700000000E+01 0. -1.
     200001    2    1    2    0    0  0.36942700554E+03 -0.11566402804E+03  0.77421719846E+03  0.11128276421E+04  0.69937015297E+03 0.  0.
    5000001    2    3    3    0    0  0.73423762654E+02  0.35567682348E+01  0.20762678229E+03  0.29254950773E+03  0.19254255173E+03 0.  0.
        -13    1    4    4    0    0 -0.24200015410E+02  0.76434217034E+02  0.90567023051E+02  0.12095547572E+03  0.10566000000E+00 0. -1.
     200003    1    4    4    0    0  0.97623778063E+02 -0.72877448799E+02  0.11705975924E+03  0.17159403200E+03  0.30000000000E+02 0. -1.
     200000    1    3    3    0    0  0.29600324289E+03 -0.11922079627E+03  0.56659041617E+03  0.82027813439E+03  0.50000000000E+03 0.  1.
    -200001    1    1    2    0    0 -0.36942700554E+03  0.11566402804E+03  0.46793462313E+03  0.92672395638E+03  0.70000000000E+03 0. -1.
<mgrwt>
<rscale>  0 0.16176618E+04</rscale>
<asrwt>0</asrwt>
<pdfrwt beam="1">  1        4 0.23440739E+00 0.16176618E+04</pdfrwt>
<pdfrwt beam="2">  1       -4 0.56957126E-01 0.16176618E+04</pdfrwt>
<totfact> 0.44701070E-01</totfact>
</mgrwt>
</event>
<event>
 8    1  0.1378634E-029  0.1631009E+04  0.7818608E-02  0.8801721E-01
         -4   -1    0    0    0  501 -0.00000000000E+00  0.00000000000E+00  0.25997201829E+04  0.25997204931E+04  0.12700000000E+01 0. -1.
          4   -1    0    0  501    0  0.00000000000E+00 -0.00000000000E+00 -0.25581324005E+03  0.25581639252E+03  0.12700000000E+01 0.  1.
     200001    2    1    2    0    0 -0.33640907203E+02 -0.33038269326E+03  0.72711202790E+03  0.10626871341E+04  0.70023396743E+03 0.  0.
    5000001    2    3    3    0    0  0.50735023319E+02 -0.94279822120E+02  0.17302098021E+03  0.27536207251E+03  0.18554051832E+03 0.  0.
        -13    1    4    4    0    0 -0.67086212894E+02 -0.15018905279E+02  0.48539120558E+02  0.84155717957E+02  0.10566000000E+00 0. -1.
     200003    1    4    4    0    0  0.11782123621E+03 -0.79260916841E+02  0.12448185965E+03  0.19120635456E+03  0.30000000000E+02 0. -1.
     200000    1    3    3    0    0 -0.84375930522E+02 -0.23610287114E+03  0.55409104769E+03  0.78732506155E+03  0.50000000000E+03 0.  1.
    -200001    1    1    2    0    0  0.33640907203E+02  0.33038269326E+03  0.16167949149E+04  0.17928497515E+04  0.70000000000E+03 0. -1.
<mgrwt>
<rscale>  0 0.16310092E+04</rscale>
<asrwt>0</asrwt>
<pdfrwt beam="1">  1        4 0.36544994E-01 0.16310092E+04</pdfrwt>
<pdfrwt beam="2">  1       -4 0.37138886E+00 0.16310092E+04</pdfrwt>
<totfact> 0.15204710E-01</totfact>
</mgrwt>
</event>
<event>
 8    1  0.1378634E-029  0.1563664E+04  0.7818608E-02  0.8843187E-01
         -4   -1    0    0    0  501 -0.00000000000E+00  0.00000000000E+00  0.14872571266E+04  0.14872576689E+04  0.12700000000E+01 0. -1.
          4   -1    0    0  501    0  0.00000000000E+00 -0.00000000000E+00 -0.41099720759E+03  0.41099916977E+03  0.12700000000E+01 0.  1.
     200001    2    1    2    0    0 -0.11663395879E+03  0.10730485679E+03  0.16237615567E+03  0.73623216352E+03  0.70039558111E+03 0.  0.
    5000001    2    3    3    0    0  0.45597521401E+00 -0.13898691392E+02  0.70286759275E+02  0.20061960796E+03  0.18738894587E+03 0.  0.
        -13    1    4    4    0    0 -0.69939802712E+02  0.29125923005E+02  0.82473424138E+02  0.11199005423E+03  0.10566000000E+00 0. -1.
     200003    1    4    4    0    0  0.70395777926E+02 -0.43024614397E+02 -0.12186664863E+02  0.88629553730E+02  0.30000000000E+02 0. -1.
     200000    1    3    3    0    0 -0.11708993400E+03  0.12120354818E+03  0.92089396394E+02  0.53561255555E+03  0.50000000000E+03 0.  1.
    -200001    1    1    2    0    0  0.11663395879E+03 -0.10730485679E+03  0.91388376337E+03  0.11620246751E+04  0.70000000000E+03 0. -1.
<mgrwt>
<rscale>  0 0.15636635E+04</rscale>
<asrwt>0</asrwt>
<pdfrwt beam="1">  1        4 0.58714066E-01 0.15636635E+04</pdfrwt>
<pdfrwt beam="2">  1       -4 0.21246548E+00 0.15636635E+04</pdfrwt>
<totfact> 0.57981945E-01</totfact>
</mgrwt>
</event>
<event>
 8    1  0.1378634E-029  0.1653145E+04  0.7818608E-02  0.8788548E-01
         -4   -1    0    0    0  501 -0.00000000000E+00  0.00000000000E+00  0.47983954932E+03  0.47984122998E+03  0.12700000000E+01 0. -1.
          4   -1    0    0  501    0  0.00000000000E+00 -0.00000000000E+00 -0.14238513035E+04  0.14238518699E+04  0.12700000000E+01 0.  1.
     200001    2    1    2    0    0  0.16859106731E+03  0.62516683210E+02 -0.10338261958E+02  0.72298251987E+03  0.70018966054E+03 0.  0.
    5000001    2    3    3    0    0  0.34493113177E+02  0.37331491700E+01  0.71616346214E+01  0.20169180294E+03  0.19855624670E+03 0.  0.
        -13    1    4    4    0    0 -0.80281346595E+02 -0.12257340959E+02  0.10840152252E+02  0.81932027214E+02  0.10566000000E+00 0. -1.
     200003    1    4    4    0    0  0.11477445977E+03  0.15990490129E+02 -0.36785176306E+01  0.11975977573E+03  0.30000000000E+02 0. -1.
     200000    1    3    3    0    0  0.13409795413E+03  0.58783534040E+02 -0.17499896579E+02  0.52129071693E+03  0.50000000000E+03 0. -1.
    -200001    1    1    2    0    0 -0.16859106731E+03 -0.62516683210E+02 -0.93367349225E+03  0.11807105800E+04  0.70000000000E+03 0.  1.
<mgrwt>
<rscale>  0 0.16531453E+04</rscale>
<asrwt>0</asrwt>
<pdfrwt beam="1">  1        4 0.20340749E+00 0.16531453E+04</pdfrwt>
<pdfrwt beam="2">  1       -4 0.68548669E-01 0.16531453E+04</pdfrwt>
<totfact> 0.47112020E-01</totfact>
</mgrwt>
</event>
<event>
 8    1  0.1378634E-029  0.1437789E+04  0.7818608E-02  0.8926910E-01
         -4   -1    0    0    0  501 -0.00000000000E+00  0.00000000000E+00  0.15357288792E+04  0.15357294044E+04  0.12700000000E+01 0. -1.
          4   -1    0    0  501    0  0.00000000000E+00 -0.00000000000E+00 -0.33652219255E+03  0.33652458897E+03  0.12700000000E+01 0.  1.
     200001    2    1    2    0    0  0.42990781950E+02  0.10577943240E+03  0.44191263671E+03  0.83469350171E+03  0.69884831520E+03 0.  0.
    5000001    2    3    3    0    0  0.86065883287E+02 -0.23175488953E+02 -0.24965294751E+02  0.13722677205E+03  0.10130884202E+03 0.  0.
        -13    1    4    4    0    0  0.96469061293E+02 -0.17923116325E+02 -0.28212624598E+01  0.98160524507E+02  0.10566000000E+00 0. -1.
     200003    1    4    4    0    0 -0.10403178006E+02 -0.52523726278E+01 -0.22144032291E+02  0.39066247541E+02  0.30000000000E+02 0. -1.
     200000    1    3    3    0    0 -0.43075101337E+02  0.12895492136E+03  0.46687793146E+03  0.69746672966E+03  0.50000000000E+03 0. -1.
    -200001    1    1    2    0    0 -0.42990781950E+02 -0.10577943240E+03  0.75729404998E+03  0.10375604916E+04  0.70000000000E+03 0.  1.
<mgrwt>
<rscale>  0 0.14377894E+04</rscale>
<asrwt>0</asrwt>
<pdfrwt beam="1">  1        4 0.48074808E-01 0.14377894E+04</pdfrwt>
<pdfrwt beam="2">  1       -4 0.21939004E+00 0.14377894E+04</pdfrwt>
<totfact> 0.80492256E-01</totfact>
</mgrwt>
</event>
<event>
 8    1  0.1378634E-029  0.1488025E+04  0.7818608E-02  0.8892456E-01
          4   -1    0    0  501    0  0.00000000000E+00  0.00000000000E+00  0.17039779589E+04  0.17039784321E+04  0.12700000000E+01 0.  1.
         -4   -1    0    0    0  501 -0.00000000000E+00 -0.00000000000E+00 -0.32485832208E+03  0.32486080453E+03  0.12700000000E+01 0. -1.
     200001    2    1    2    0    0  0.16019695243E+03 -0.39640205720E+02  0.43333763511E+03  0.84067342157E+03  0.70122456193E+03 0.  0.
    5000001    2    3    3    0    0  0.83843364763E+02 -0.20618383826E+02  0.16658723358E+03  0.26853054014E+03  0.19210027857E+03 0.  0.
        -13    1    4    4    0    0  0.88851448526E+02 -0.95103870290E+02  0.10381112470E+03  0.16648149094E+03  0.10566000000E+00 0. -1.
     200003    1    4    4    0    0 -0.50080837623E+01  0.74485486463E+02  0.62776108884E+02  0.10204904920E+03  0.30000000000E+02 0. -1.
     200000    1    3    3    0    0  0.76353587664E+02 -0.19021821893E+02  0.26675040153E+03  0.57214288143E+03  0.50000000000E+03 0. -1.
    -200001    1    1    2    0    0 -0.16019695243E+03  0.39640205720E+02  0.94578200166E+03  0.11881658151E+04  0.70000000000E+03 0.  1.
<mgrwt>
<rscale>  0 0.14880248E+04</rscale>
<asrwt>0</asrwt>
<pdfrwt beam="1">  1        4 0.24342563E+00 0.14880248E+04</pdfrwt>
<pdfrwt beam="2">  1       -4 0.46408543E-01 0.14880248E+04</pdfrwt>
<totfact> 0.60912568E-01</totfact>
</mgrwt>
</event>
<event>
 8    1  0.1378634E-029  0.1642972E+04  0.7818608E-02  0.8794575E-01
         -4   -1    0    0    0  501 -0.00000000000E+00  0.00000000000E+00  0.61133914261E+03  0.61134046176E+03  0.12700000000E+01 0. -1.
          4   -1    0    0  501    0  0.00000000000E+00 -0.00000000000E+00 -0.11038673553E+04  0.11038680859E+04  0.12700000000E+01 0.  1.
     200001    2    1    2    0    0 -0.19456107632E+03  0.79922723207E+01 -0.64641605894E+03  0.97251119470E+03  0.70000458121E+03 0.  0.
    5000001    2    3    3    0    0 -0.13586120349E+03  0.10666822365E+02 -0.21248926506E+03  0.30787197622E+03  0.17624249846E+03 0.  0.
        -13    1    4    4    0    0 -0.51065470436E+02  0.88803906045E+02 -0.11423464419E+03  0.15343852546E+03  0.10566000000E+00 0. -1.
     200003    1    4    4    0    0 -0.84795733049E+02 -0.78137083680E+02 -0.98254620873E+02  0.15443345076E+03  0.30000000000E+02 0. -1.
     200000    1    3    3    0    0 -0.58699872834E+02 -0.26745500438E+01 -0.43392679389E+03  0.66463921848E+03  0.50000000000E+03 0.  1.
    -200001    1    1    2    0    0  0.19456107632E+03 -0.79922723207E+01  0.15388784624E+03  0.74269735294E+03  0.70000000000E+03 0. -1.
<mgrwt>
<rscale>  0 0.16429718E+04</rscale>
<asrwt>0</asrwt>
<pdfrwt beam="1">  1        4 0.15769548E+00 0.16429718E+04</pdfrwt>
<pdfrwt beam="2">  1       -4 0.87334310E-01 0.16429718E+04</pdfrwt>
<totfact> 0.56850651E-01</totfact>
</mgrwt>
</event>
<event>
 8    1  0.1378634E-029  0.1875445E+04  0.7818608E-02  0.8667176E-01
          4   -1    0    0  501    0  0.00000000000E+00  0.00000000000E+00  0.12553932795E+04  0.12553939218E+04  0.12700000000E+01 0.  1.
         -4   -1    0    0    0  501 -0.00000000000E+00 -0.00000000000E+00 -0.70043519634E+03  0.70043634770E+03  0.12700000000E+01 0. -1.
     200001    2    1    2    0    0 -0.54193779648E+03 -0.14824979087E+03 -0.53015686301E+01  0.89773506914E+03  0.70016110431E+03 0.  0.
    5000001    2    3    3    0    0 -0.15916098985E+03  0.46856384778E+02 -0.69700652449E+02  0.23536678377E+03  0.15169574966E+03 0.  0.
        -13    1    4    4    0    0 -0.54003946720E+02  0.54066300183E+02  0.34773650046E+02  0.83957185389E+02  0.10566000000E+00 0. -1.
     200003    1    4    4    0    0 -0.10515704313E+03 -0.72099154051E+01 -0.10447430249E+03  0.15140959838E+03  0.30000000000E+02 0. -1.
     200000    1    3    3    0    0 -0.38277680662E+03 -0.19510617565E+03  0.64399083819E+02  0.66236828537E+03  0.50000000000E+03 0. -1.
    -200001    1    1    2    0    0  0.54193779648E+03  0.14824979087E+03  0.56025965174E+03  0.10580952004E+04  0.70000000000E+03 0.  1.
<mgrwt>
<rscale>  0 0.18754449E+04</rscale>
<asrwt>0</asrwt>
<pdfrwt beam="1">  1        4 0.17934203E+00 0.18754449E+04</pdfrwt>
<pdfrwt beam="2">  1       -4 0.10006230E+00 0.18754449E+04</pdfrwt>
<totfact> 0.28334598E-01</totfact>
</mgrwt>
</event>
<event>
 8    1  0.1378634E-029  0.1501957E+04  0.7818608E-02  0.8883152E-01
         -4   -1    0    0    0  501 -0.00000000000E+00  0.00000000000E+00  0.45296521163E+03  0.45296699201E+03  0.12700000000E+01 0. -1.
          4   -1    0    0  501    0  0.00000000000E+00 -0.00000000000E+00 -0.12450553543E+04  0.12450560021E+04  0.12700000000E+01 0.  1.
     200001    2    1    2    0    0  0.40408974278E+02  0.25261276254E+03 -0.29795491017E+03  0.80381064735E+03  0.70134751393E+03 0.  0.
    5000001    2    3    3    0    0 -0.12873263826E+02  0.10639276809E+03 -0.38735787916E+02  0.21950436036E+03  0.18760746501E+03 0.  0.
        -13    1    4    4    0    0 -0.26637671554E+02  0.18741099881E+02  0.69269688258E+02  0.76544727095E+02  0.10566000000E+00 0. -1.
     200003    1    4    4    0    0  0.13764407728E+02  0.87651668206E+02 -0.10800547617E+03  0.14295963326E+03  0.30000000000E+02 0. -1.
     200000    1    3    3    0    0  0.53282238104E+02  0.14621999445E+03 -0.25921912225E+03  0.58430628699E+03  0.50000000000E+03 0. -1.
    -200001    1    1    2    0    0 -0.40408974278E+02 -0.25261276254E+03 -0.49413523255E+03  0.89421234673E+03  0.70000000000E+03 0. -1.
<mgrwt>
<rscale>  0 0.15019572E+04</rscale>
<asrwt>0</asrwt>
<pdfrwt beam="1">  1        4 0.17786522E+00 0.15019572E+04</pdfrwt>
<pdfrwt beam="2">  1       -4 0.64709490E-01 0.15019572E+04</pdfrwt>
<totfact> 0.80435107E-01</totfact>
</mgrwt>
</event>
<event>
 8    1  0.1378634E-029  0.2062857E+04  0.7818608E-02  0.8577784E-01
         -4   -1    0    0    0  501 -0.00000000000E+00  0.00000000000E+00  0.60354243670E+03  0.60354377289E+03  0.12700000000E+01 0. -1.
          4   -1    0    0  501    0  0.00000000000E+00 -0.00000000000E+00 -0.17626645881E+04  0.17626650456E+04  0.12700000000E+01 0.  1.
     200001    2    1    2    0    0  0.33930744053E+03  0.64805751243E+03 -0.80539209289E+03  0.12937196424E+04  0.69996143547E+03 0.  0.
    5000001    2    3    3    0    0  0.10096338236E+03  0.19285088440E+03 -0.10470830623E+03  0.29123336658E+03  0.16268981598E+03 0.  0.
        -13    1    4    4    0    0  0.14062039397E+03  0.15384851318E+03 -0.76496284017E+02  0.22202511759E+03  0.10566000000E+00 0. -1.
     200003    1    4    4    0    0 -0.39657011610E+02  0.39002371222E+02 -0.28212022215E+02  0.69208248990E+02  0.30000000000E+02 0. -1.
     200000    1    3    3    0    0  0.23834405817E+03  0.45520662803E+03 -0.70068378666E+03  0.10024862758E+04  0.50000000000E+03 0.  1.
    -200001    1    1    2    0    0 -0.33930744053E+03 -0.64805751243E+03 -0.35373005851E+03  0.10724891761E+04  0.70000000000E+03 0. -1.
<mgrwt>
<rscale>  0 0.20628572E+04</rscale>
<asrwt>0</asrwt>
<pdfrwt beam="1">  1        4 0.25180935E+00 0.20628572E+04</pdfrwt>
<pdfrwt beam="2">  1       -4 0.86220477E-01 0.20628572E+04</pdfrwt>
<totfact> 0.13405312E-01</totfact>
</mgrwt>
</event>
<event>
 8    1  0.1378634E-029  0.1587658E+04  0.7818608E-02  0.8828166E-01
          4   -1    0    0  501    0  0.00000000000E+00  0.00000000000E+00  0.23306035955E+04  0.23306039415E+04  0.12700000000E+01 0. -1.
         -4   -1    0    0    0  501 -0.00000000000E+00 -0.00000000000E+00 -0.27038482978E+03  0.27038781237E+03  0.12700000000E+01 0.  1.
     200001    2    1    2    0    0 -0.26734536374E+03  0.55613108999E+02  0.14492534752E+04  0.16325678035E+04  0.70026826029E+03 0.  0.
    5000001    2    3    3    0    0 -0.10926251327E+03  0.29441765351E+02  0.32133077281E+03  0.38842763885E+03  0.18659434801E+03 0.  0.
        -13    1    4    4    0    0  0.49095855058E+02 -0.56468054822E+01  0.46273835627E+02  0.67702056274E+02  0.10566000000E+00 0. -1.
     200003    1    4    4    0    0 -0.15835836833E+03  0.35088570833E+02  0.27505693719E+03  0.32072558258E+03  0.30000000000E+02 0. -1.
     200000    1    3    3    0    0 -0.15808285047E+03  0.26171343648E+02  0.11279227024E+04  0.12441401647E+04  0.50000000000E+03 0. -1.
    -200001    1    1    2    0    0  0.26734536374E+03 -0.55613108999E+02  0.61096529052E+03  0.96842395035E+03  0.70000000000E+03 0.  1.
<mgrwt>
<rscale>  0 0.15876576E+04</rscale>
<asrwt>0</asrwt>
<pdfrwt beam="1">  1        4 0.33294359E+00 0.15876576E+04</pdfrwt>
<pdfrwt beam="2">  1       -4 0.38626644E-01 0.15876576E+04</pdfrwt>
<totfact> 0.24342056E-01</totfact>
</mgrwt>
</event>
<event>
 8    1  0.1378634E-029  0.1905170E+04  0.7818608E-02  0.8652287E-01
          4   -1    0    0  501    0  0.00000000000E+00  0.00000000000E+00  0.19535622697E+04  0.19535626825E+04  0.12700000000E+01 0.  1.
         -4   -1    0    0    0  501 -0.00000000000E+00 -0.00000000000E+00 -0.46449272264E+03  0.46449445883E+03  0.12700000000E+01 0. -1.
     200001    2    1    2    0    0  0.65809362116E+02  0.46602237937E+03  0.13059203548E+04  0.15548935666E+04  0.70054143350E+03 0.  0.
    5000001    2    3    3    0    0  0.98005299230E+02  0.26271903321E+03  0.39530576548E+03  0.49584316210E+03  0.10472566107E+03 0.  0.
        -13    1    4    4    0    0  0.56397864931E+02  0.21994515328E+03  0.34140633691E+03  0.41001815529E+03  0.10566000000E+00 0. -1.
     200003    1    4    4    0    0  0.41607434299E+02  0.42773879926E+02  0.53899428572E+02  0.85825006806E+02  0.30000000000E+02 0. -1.
     200000    1    3    3    0    0 -0.32195937114E+02  0.20330334616E+03  0.91061458931E+03  0.10590504045E+04  0.50000000000E+03 0.  1.
    -200001    1    1    2    0    0 -0.65809362116E+02 -0.46602237937E+03  0.18314919227E+03  0.86316357479E+03  0.70000000000E+03 0. -1.
<mgrwt>
<rscale>  0 0.19051699E+04</rscale>
<asrwt>0</asrwt>
<pdfrwt beam="1">  1        4 0.27908048E+00 0.19051699E+04</pdfrwt>
<pdfrwt beam="2">  1       -4 0.66356257E-01 0.19051699E+04</pdfrwt>
<totfact> 0.16583838E-01</totfact>
</mgrwt>
</event>
<event>
 8    1  0.1378634E-029  0.1578234E+04  0.7818608E-02  0.8834032E-01
         -4   -1    0    0    0  501 -0.00000000000E+00  0.00000000000E+00  0.76131937093E+03  0.76132043021E+03  0.12700000000E+01 0. -1.
          4   -1    0    0  501    0  0.00000000000E+00 -0.00000000000E+00 -0.81792791262E+03  0.81792889859E+03  0.12700000000E+01 0.  1.
     200001    2    1    2    0    0 -0.59772927358E+02 -0.35407433258E+03  0.32812949135E+02  0.78745539167E+03  0.70004847576E+03 0.  0.
    5000001    2    3    3    0    0  0.41066756608E+02 -0.12725123998E+03  0.65492190021E+02  0.22827269346E+03  0.17303132390E+03 0.  0.
        -13    1    4    4    0    0 -0.64112498004E+02 -0.33342089805E+02  0.37526161010E+02  0.81426846169E+02  0.10566000000E+00 0. -1.
     200003    1    4    4    0    0  0.10517925461E+03 -0.93909150173E+02  0.27966029011E+02  0.14684584729E+03  0.30000000000E+02 0. -1.
     200000    1    3    3    0    0 -0.10083968397E+03 -0.22682309261E+03 -0.32679240887E+02  0.55918269822E+03  0.50000000000E+03 0. -1.
    -200001    1    1    2    0    0  0.59772927358E+02  0.35407433258E+03 -0.89421490827E+02  0.79179393712E+03  0.70000000000E+03 0.  1.
<mgrwt>
<rscale>  0 0.15782344E+04</rscale>
<asrwt>0</asrwt>
<pdfrwt beam="1">  1        4 0.11684699E+00 0.15782344E+04</pdfrwt>
<pdfrwt beam="2">  1       -4 0.10876006E+00 0.15782344E+04</pdfrwt>
<totfact> 0.73735489E-01</totfact>
</mgrwt>
</event>
<event>
 8    1  0.1378634E-029  0.1515062E+04  0.7818608E-02  0.8874498E-01
          4   -1    0    0  501    0  0.00000000000E+00  0.00000000000E+00  0.60933148650E+03  0.60933281000E+03  0.12700000000E+01 0.  1.
         -4   -1    0    0    0  501 -0.00000000000E+00 -0.00000000000E+00 -0.94177287409E+03  0.94177373040E+03  0.12700000000E+01 0. -1.
     200001    2    1    2    0    0 -0.64082417639E+02 -0.19560340127E+03 -0.37502581071E+03  0.82022988875E+03  0.69983245485E+03 0.  0.
    5000001    2    3    3    0    0 -0.33508220460E+02 -0.22135079043E+02 -0.12411338522E+03  0.23372917637E+03  0.19393925063E+03 0.  0.
        -13    1    4    4    0    0  0.48608787737E+02 -0.43960631055E+01  0.28819048268E+02  0.56680581535E+02  0.10566000000E+00 0. -1.
     200003    1    4    4    0    0 -0.82117008196E+02 -0.17739015938E+02 -0.15293243349E+03  0.17704859484E+03  0.30000000000E+02 0. -1.
     200000    1    3    3    0    0 -0.30574197179E+02 -0.17346832223E+03 -0.25091242549E+03  0.58650071238E+03  0.50000000000E+03 0. -1.
    -200001    1    1    2    0    0  0.64082417639E+02  0.19560340127E+03  0.42584423126E+02  0.73087665165E+03  0.70000000000E+03 0.  1.
<mgrwt>
<rscale>  0 0.15150624E+04</rscale>
<asrwt>0</asrwt>
<pdfrwt beam="1">  1        4 0.87047511E-01 0.15150624E+04</pdfrwt>
<pdfrwt beam="2">  1       -4 0.13453914E+00 0.15150624E+04</pdfrwt>
<totfact> 0.87968632E-01</totfact>
</mgrwt>
</event>
<event>
 8    1  0.1378634E-029  0.1434947E+04  0.7818608E-02  0.8928904E-01
         -4   -1    0    0    0  501 -0.00000000000E+00  0.00000000000E+00  0.70092825157E+03  0.70092940212E+03  0.12700000000E+01 0. -1.
          4   -1    0    0  501    0  0.00000000000E+00 -0.00000000000E+00 -0.73440649965E+03  0.73440759774E+03  0.12700000000E+01 0.  1.
     200001    2    1    2    0    0 -0.42746993482E+01 -0.14671143522E+03 -0.78666620904E+02  0.71868889422E+03  0.69913001020E+03 0.  0.
    5000001    2    3    3    0    0 -0.64459527625E+02 -0.25042914339E+02  0.39452252566E+02  0.18729684423E+03  0.16953303326E+03 0.  0.
        -13    1    4    4    0    0 -0.39271590029E+02  0.58720058568E+02 -0.24607560324E+02  0.74805389183E+02  0.10566000000E+00 0. -1.
     200003    1    4    4    0    0 -0.25187937596E+02 -0.83762972908E+02  0.64059812890E+02  0.11249145505E+03  0.30000000000E+02 0. -1.
     200000    1    3    3    0    0  0.60184828277E+02 -0.12166852088E+03 -0.11811887347E+03  0.53139204999E+03  0.50000000000E+03 0.  1.
    -200001    1    1    2    0    0  0.42746993482E+01  0.14671143522E+03  0.45188372832E+02  0.71664810564E+03  0.70000000000E+03 0. -1.
<mgrwt>
<rscale>  0 0.14349465E+04</rscale>
<asrwt>0</asrwt>
<pdfrwt beam="1">  1        4 0.10491537E+00 0.14349465E+04</pdfrwt>
<pdfrwt beam="2">  1       -4 0.10013277E+00 0.14349465E+04</pdfrwt>
<totfact> 0.11818326E+00</totfact>
</mgrwt>
</event>
<event>
 8    1  0.1378634E-029  0.1824774E+04  0.7818608E-02  0.8693235E-01
         -4   -1    0    0    0  501 -0.00000000000E+00  0.00000000000E+00  0.67136409271E+03  0.67136529392E+03  0.12700000000E+01 0. -1.
          4   -1    0    0  501    0  0.00000000000E+00 -0.00000000000E+00 -0.12399360520E+04  0.12399367024E+04  0.12700000000E+01 0.  1.
     200001    2    1    2    0    0 -0.23645362329E+03  0.21913875921E+03  0.22950666141E+03  0.80185997594E+03  0.69740519185E+03 0.  0.
    5000001    2    3    3    0    0 -0.63382018790E+02  0.22561219390E+02  0.35540858704E+02  0.20501892334E+03  0.19037677738E+03 0.  0.
        -13    1    4    4    0    0 -0.11968928452E+03  0.42751843944E+02  0.49962916103E+02  0.13656335211E+03  0.10566000000E+00 0. -1.
     200003    1    4    4    0    0  0.56307265727E+02 -0.20190624554E+02 -0.14422057399E+02  0.68455571236E+02  0.30000000000E+02 0. -1.
     200000    1    3    3    0    0 -0.17307160450E+03  0.19657753982E+03  0.19396580271E+03  0.59684105260E+03  0.50000000000E+03 0. -1.
    -200001    1    1    2    0    0  0.23645362329E+03 -0.21913875921E+03 -0.79807862073E+03  0.11094420204E+04  0.70000000000E+03 0.  1.
<mgrwt>
<rscale>  0 0.18247743E+04</rscale>
<asrwt>0</asrwt>
<pdfrwt beam="1">  1        4 0.17713385E+00 0.18247743E+04</pdfrwt>
<pdfrwt beam="2">  1       -4 0.95909288E-01 0.18247743E+04</pdfrwt>
<totfact> 0.32592342E-01</totfact>
</mgrwt>
</event>
<event>
 8    1  0.1378634E-029  0.2098462E+04  0.7818608E-02  0.8561921E-01
         -4   -1    0    0    0  501 -0.00000000000E+00  0.00000000000E+00  0.24847245580E+04  0.24847248826E+04  0.12700000000E+01 0. -1.
          4   -1    0    0  501    0  0.00000000000E+00 -0.00000000000E+00 -0.44306012067E+03  0.44306194085E+03  0.12700000000E+01 0.  1.
     200001    2    1    2    0    0  0.43085359660E+03 -0.18043837014E+03  0.14556607073E+03  0.85332741360E+03  0.69913186648E+03 0.  0.
    5000001    2    3    3    0    0  0.20724809715E+03 -0.11944350321E+02  0.50903411920E+02  0.27250844604E+03  0.16904216795E+03 0.  0.
        -13    1    4    4    0    0  0.12036784101E+03 -0.70812937299E+02  0.78118518171E+02  0.16001688437E+03  0.10566000000E+00 0. -1.
     200003    1    4    4    0    0  0.86880256139E+02  0.58868586978E+02 -0.27215106251E+02  0.11249156167E+03  0.30000000000E+02 0. -1.
     200000    1    3    3    0    0  0.22360549946E+03 -0.16849401982E+03  0.94662658809E+02  0.58081896756E+03  0.50000000000E+03 0.  1.
    -200001    1    1    2    0    0 -0.43085359660E+03  0.18043837014E+03  0.18960983666E+04  0.20744594098E+04  0.70000000000E+03 0. -1.
<mgrwt>
<rscale>  0 0.20984618E+04</rscale>
<asrwt>0</asrwt>
<pdfrwt beam="1">  1        4 0.63294457E-01 0.20984618E+04</pdfrwt>
<pdfrwt beam="2">  1       -4 0.35496080E+00 0.20984618E+04</pdfrwt>
<totfact> 0.59812677E-02</totfact>
</mgrwt>
</event>
<event>
 8    1  0.1378634E-029  0.1767918E+04  0.7818608E-02  0.8723549E-01
         -4   -1    0    0    0  501 -0.00000000000E+00  0.00000000000E+00  0.79956361820E+03  0.79956462681E+03  0.12700000000E+01 0. -1.
          4   -1    0    0  501    0  0.00000000000E+00 -0.00000000000E+00 -0.97726090931E+03  0.97726173452E+03  0.12700000000E+01 0.  1.
     200001    2    1    2    0    0  0.33194514706E+02  0.14072902459E+03  0.43386916069E+03  0.83612446428E+03  0.69996795427E+03 0.  0.
    5000001    2    3    3    0    0 -0.68038268682E+02  0.16050399957E+02  0.10641185580E+03  0.21723746135E+03  0.17601650552E+03 0.  0.
        -13    1    4    4    0    0  0.45994369567E+02 -0.36521306097E+02  0.20691560839E+02  0.62269090927E+02  0.10566000000E+00 0. -1.
     200003    1    4    4    0    0 -0.11403263825E+03  0.52571706054E+02  0.85720294961E+02  0.15496837042E+03  0.30000000000E+02 0. -1.
     200000    1    3    3    0    0  0.10123278339E+03  0.12467862463E+03  0.32745730489E+03  0.61888700293E+03  0.50000000000E+03 0. -1.
    -200001    1    1    2    0    0 -0.33194514706E+02 -0.14072902459E+03 -0.61156645179E+03  0.94070189706E+03  0.70000000000E+03 0.  1.
<mgrwt>
<rscale>  0 0.17679184E+04</rscale>
<asrwt>0</asrwt>
<pdfrwt beam="1">  1        4 0.13960883E+00 0.17679184E+04</pdfrwt>
<pdfrwt beam="2">  1       -4 0.11422351E+00 0.17679184E+04</pdfrwt>
<totfact> 0.41077949E-01</totfact>
</mgrwt>
</event>
<event>
 8    1  0.1378634E-029  0.2092471E+04  0.7818608E-02  0.8564567E-01
          4   -1    0    0  501    0  0.00000000000E+00  0.00000000000E+00  0.10445575892E+04  0.10445583612E+04  0.12700000000E+01 0.  1.
         -4   -1    0    0    0  501 -0.00000000000E+00 -0.00000000000E+00 -0.10479146673E+04  0.10479154368E+04  0.12700000000E+01 0. -1.
     200001    2    1    2    0    0 -0.43302621393E+02  0.34057926228E+03 -0.69982182833E+03  0.10470396781E+04  0.69905088878E+03 0.  0.
    5000001    2    3    3    0    0 -0.25822781437E+02  0.21193134882E+03 -0.27511539596E+03  0.37828607311E+03  0.14775032777E+03 0.  0.
        -13    1    4    4    0    0 -0.57335798642E+02  0.41451946717E+02 -0.13852092889E+03  0.15554329493E+03  0.10566000000E+00 0. -1.
     200003    1    4    4    0    0  0.31513017205E+02  0.17047940211E+03 -0.13659446707E+03  0.22274277818E+03  0.30000000000E+02 0. -1.
     200000    1    3    3    0    0 -0.17479839956E+02  0.12864791346E+03 -0.42470643237E+03  0.66875360496E+03  0.50000000000E+03 0. -1.
    -200001    1    1    2    0    0  0.43302621393E+02 -0.34057926228E+03  0.69646475026E+03  0.10454341200E+04  0.70000000000E+03 0.  1.
<mgrwt>
<rscale>  0 0.20924711E+04</rscale>
<asrwt>0</asrwt>
<pdfrwt beam="1">  1        4 0.14922262E+00 0.20924711E+04</pdfrwt>
<pdfrwt beam="2">  1       -4 0.14970221E+00 0.20924711E+04</pdfrwt>
<totfact> 0.16825566E-01</totfact>
</mgrwt>
</event>
<event>
 8    1  0.1378634E-029  0.2429422E+04  0.7818608E-02  0.8428570E-01
          4   -1    0    0  501    0  0.00000000000E+00  0.00000000000E+00  0.52028724805E+03  0.52028879805E+03  0.12700000000E+01 0.  1.
         -4   -1    0    0    0  501 -0.00000000000E+00 -0.00000000000E+00 -0.28359709312E+04  0.28359712156E+04  0.12700000000E+01 0. -1.
     200001    2    1    2    0    0  0.28105024734E+03 -0.22010990293E+02 -0.24727007794E+04  0.25854629627E+04  0.70063960921E+03 0.  0.
    5000001    2    3    3    0    0  0.38052459957E+02 -0.62545948178E+02 -0.88206377992E+03  0.89999060414E+03  0.16305394918E+03 0.  0.
        -13    1    4    4    0    0 -0.32115991437E+02  0.22068167214E+02 -0.71249831053E+02  0.81209546848E+02  0.10566000000E+00 0. -1.
     200003    1    4    4    0    0  0.70168451394E+02 -0.84614115392E+02 -0.81081394887E+03  0.81878105729E+03  0.30000000000E+02 0. -1.
     200000    1    3    3    0    0  0.24299778738E+03  0.40534957885E+02 -0.15906369994E+04  0.16854723586E+04  0.50000000000E+03 0. -1.
    -200001    1    1    2    0    0 -0.28105024734E+03  0.22010990293E+02  0.15701709620E+03  0.77079705093E+03  0.70000000000E+03 0.  1.
<mgrwt>
<rscale>  0 0.24294218E+04</rscale>
<asrwt>0</asrwt>
<pdfrwt beam="1">  1        4 0.74326883E-01 0.24294218E+04</pdfrwt>
<pdfrwt beam="2">  1       -4 0.40513883E+00 0.24294218E+04</pdfrwt>
<totfact> 0.18579124E-02</totfact>
</mgrwt>
</event>
<event>
 8    1  0.1378634E-029  0.1461316E+04  0.7818608E-02  0.8910593E-01
          4   -1    0    0  501    0  0.00000000000E+00  0.00000000000E+00  0.63947609004E+03  0.63947735115E+03  0.12700000000E+01 0.  1.
         -4   -1    0    0    0  501 -0.00000000000E+00 -0.00000000000E+00 -0.83483837297E+03  0.83483933896E+03  0.12700000000E+01 0. -1.
     200001    2    1    2    0    0 -0.78159731588E+02  0.13470313203E+03 -0.23829090234E+03  0.75591795418E+03  0.70026817856E+03 0.  0.
    5000001    2    3    3    0    0 -0.53362438277E+01  0.10242747118E+03 -0.68880165554E+02  0.22202191900E+03  0.18447057477E+03 0.  0.
        -13    1    4    4    0    0  0.36971105177E+02  0.16004533660E+02  0.51263412997E+02  0.65199358830E+02  0.10566000000E+00 0. -1.
     200003    1    4    4    0    0 -0.42307349004E+02  0.86422937523E+02 -0.12014357855E+03  0.15682256017E+03  0.30000000000E+02 0. -1.
     200000    1    3    3    0    0 -0.72823487760E+02  0.32275660844E+02 -0.16941073679E+03  0.53389603519E+03  0.50000000000E+03 0.  1.
    -200001    1    1    2    0    0  0.78159731588E+02 -0.13470313203E+03  0.42928619416E+02  0.71839873593E+03  0.70000000000E+03 0.  1.
<mgrwt>
<rscale>  0 0.14613156E+04</rscale>
<asrwt>0</asrwt>
<pdfrwt beam="1">  1        4 0.91353887E-01 0.14613156E+04</pdfrwt>
<pdfrwt beam="2">  1       -4 0.11926278E+00 0.14613156E+04</pdfrwt>
<totfact> 0.10707263E+00</totfact>
</mgrwt>
</event>
<event>
 8    1  0.1378634E-029  0.1693751E+04  0.7818608E-02  0.8764936E-01
          4   -1    0    0  501    0  0.00000000000E+00  0.00000000000E+00  0.15573603785E+04  0.15573608963E+04  0.12700000000E+01 0. -1.
         -4   -1    0    0    0  501 -0.00000000000E+00 -0.00000000000E+00 -0.46052019566E+03  0.46052194683E+03  0.12700000000E+01 0.  1.
     200001    2    1    2    0    0 -0.11347989102E+03  0.32850014952E+03  0.15916033763E+03  0.79721354887E+03  0.69959087725E+03 0.  0.
    5000001    2    3    3    0    0 -0.26359865592E+02  0.52406344391E+02 -0.73820420197E+01  0.19591989991E+03  0.18678555937E+03 0.  0.
        -13    1    4    4    0    0  0.27749776907E+02 -0.53981892500E+02 -0.34613627114E+02  0.69872807174E+02  0.10566000000E+00 0. -1.
     200003    1    4    4    0    0 -0.54109642499E+02  0.10638823689E+03  0.27231585094E+02  0.12604709273E+03  0.30000000000E+02 0. -1.
     200000    1    3    3    0    0 -0.87120025429E+02  0.27609380513E+03  0.16654237965E+03  0.60129364896E+03  0.50000000000E+03 0.  1.
    -200001    1    1    2    0    0  0.11347989102E+03 -0.32850014952E+03  0.93767984519E+03  0.12206692943E+04  0.70000000000E+03 0. -1.
<mgrwt>
<rscale>  0 0.16937511E+04</rscale>
<asrwt>0</asrwt>
<pdfrwt beam="1">  1        4 0.22248022E+00 0.16937511E+04</pdfrwt>
<pdfrwt beam="2">  1       -4 0.65788760E-01 0.16937511E+04</pdfrwt>
<totfact> 0.38715135E-01</totfact>
</mgrwt>
</event>
<event>
 8    1  0.1378634E-029  0.1445971E+04  0.7818608E-02  0.8921198E-01
          4   -1    0    0  501    0  0.00000000000E+00  0.00000000000E+00  0.22505222557E+04  0.22505226140E+04  0.12700000000E+01 0.  1.
         -4   -1    0    0    0  501 -0.00000000000E+00 -0.00000000000E+00 -0.23225867230E+03  0.23226214448E+03  0.12700000000E+01 0. -1.
     200001    2    1    2    0    0 -0.10585293601E+03 -0.11168244374E+03  0.11795670323E+04  0.13795668665E+04  0.69867627933E+03 0.  0.
    5000001    2    3    3    0    0 -0.13165534882E+02 -0.13322360568E+03  0.36871814510E+03  0.42221066645E+03  0.15616310680E+03 0.  0.
        -13    1    4    4    0    0  0.52641291486E+02 -0.42464912766E+02  0.53271923275E+02  0.86094618642E+02  0.10566000000E+00 0. -1.
     200003    1    4    4    0    0 -0.65806826368E+02 -0.90758692914E+02  0.31544622182E+03  0.33611604781E+03  0.30000000000E+02 0. -1.
     200000    1    3    3    0    0 -0.92687401129E+02  0.21541161938E+02  0.81084888717E+03  0.95735620007E+03  0.50000000000E+03 0.  1.
    -200001    1    1    2    0    0  0.10585293601E+03  0.11168244374E+03  0.83869655111E+03  0.11032178920E+04  0.70000000000E+03 0. -1.
<mgrwt>
<rscale>  0 0.14459710E+04</rscale>
<asrwt>0</asrwt>
<pdfrwt beam="1">  1        4 0.32150348E+00 0.14459710E+04</pdfrwt>
<pdfrwt beam="2">  1       -4 0.33180081E-01 0.14459710E+04</pdfrwt>
<totfact> 0.39366078E-01</totfact>
</mgrwt>
</event>
<event>
 8    1  0.1378634E-029  0.1493375E+04  0.7818608E-02  0.8888870E-01
          4   -1    0    0  501    0  0.00000000000E+00  0.00000000000E+00  0.13742647870E+04  0.13742653738E+04  0.12700000000E+01 0.  1.
         -4   -1    0    0    0  501 -0.00000000000E+00 -0.00000000000E+00 -0.40570063274E+03  0.40570262053E+03  0.12700000000E+01 0. -1.
     200001    2    1    2    0    0  0.79933553511E+02  0.12687085747E+03  0.23029155299E+03  0.75160423516E+03  0.69956353499E+03 0.  0.
    5000001    2    3    3    0    0  0.57822640844E+02  0.11244253006E+03  0.36487682289E+02  0.21470851960E+03  0.16965145761E+03 0.  0.
        -13    1    4    4    0    0  0.73149519869E+02  0.21032107860E+02  0.77845924864E+02  0.10887240697E+03  0.10566000000E+00 0. -1.
     200003    1    4    4    0    0 -0.15326879025E+02  0.91410422200E+02 -0.41358242575E+02  0.10583611263E+03  0.30000000000E+02 0. -1.
     200000    1    3    3    0    0  0.22110912667E+02  0.14428327412E+02  0.19380387070E+03  0.53689571556E+03  0.50000000000E+03 0. -1.
    -200001    1    1    2    0    0 -0.79933553511E+02 -0.12687085747E+03  0.73827260129E+03  0.10283637592E+04  0.70000000000E+03 0.  1.
<mgrwt>
<rscale>  0 0.14933752E+04</rscale>
<asrwt>0</asrwt>
<pdfrwt beam="1">  1        4 0.19632372E+00 0.14933752E+04</pdfrwt>
<pdfrwt beam="2">  1       -4 0.57957418E-01 0.14933752E+04</pdfrwt>
<totfact> 0.76427084E-01</totfact>
</mgrwt>
</event>
<event>
 8    1  0.1378634E-029  0.1781680E+04  0.7818608E-02  0.8716103E-01
          4   -1    0    0  501    0  0.00000000000E+00  0.00000000000E+00  0.78660427447E+03  0.78660529970E+03  0.12700000000E+01 0.  1.
         -4   -1    0    0    0  501 -0.00000000000E+00 -0.00000000000E+00 -0.10088865816E+04  0.10088873809E+04  0.12700000000E+01 0. -1.
     200001    2    1    2    0    0  0.22229887307E+02 -0.31049106232E+03  0.34775276429E+03  0.84059014618E+03  0.69911439773E+03 0.  0.
    5000001    2    3    3    0    0  0.59906578133E+02 -0.62925935286E+02  0.14546468013E+03  0.24592343772E+03  0.17824110811E+03 0.  0.
        -13    1    4    4    0    0  0.42219274461E+02  0.40940192927E+02  0.11972786721E+03  0.13339167847E+03  0.10566000000E+00 0. -1.
     200003    1    4    4    0    0  0.17687303672E+02 -0.10386612821E+03  0.25736812917E+02  0.11253175925E+03  0.30000000000E+02 0. -1.
     200000    1    3    3    0    0 -0.37676690826E+02 -0.24756512703E+03  0.20228808416E+03  0.59466670846E+03  0.50000000000E+03 0.  1.
    -200001    1    1    2    0    0 -0.22229887307E+02  0.31049106232E+03 -0.57003507142E+03  0.95490253446E+03  0.70000000000E+03 0. -1.
<mgrwt>
<rscale>  0 0.17816803E+04</rscale>
<asrwt>0</asrwt>
<pdfrwt beam="1">  1        4 0.11237217E+00 0.17816803E+04</pdfrwt>
<pdfrwt beam="2">  1       -4 0.14412678E+00 0.17816803E+04</pdfrwt>
<totfact> 0.39286385E-01</totfact>
</mgrwt>
</event>
<event>
 8    1  0.1378634E-029  0.1852100E+04  0.7818608E-02  0.8679074E-01
         -4   -1    0    0    0  501 -0.00000000000E+00  0.00000000000E+00  0.11613481920E+04  0.11613488864E+04  0.12700000000E+01 0. -1.
          4   -1    0    0  501    0  0.00000000000E+00 -0.00000000000E+00 -0.73842360134E+03  0.73842469347E+03  0.12700000000E+01 0.  1.
     200001    2    1    2    0    0  0.29863099654E+03 -0.22558615228E+02 -0.32988695817E+03  0.82906606087E+03  0.69916790895E+03 0.  0.
    5000001    2    3    3    0    0  0.51676885948E+02 -0.22861179555E+02 -0.77731111679E+02  0.21704564029E+03  0.19461127967E+03 0.  0.
        -13    1    4    4    0    0  0.20934228859E+02  0.66831871567E+02 -0.93012068412E+02  0.11643022387E+03  0.10566000000E+00 0. -1.
     200003    1    4    4    0    0  0.30742657088E+02 -0.89693051122E+02  0.15280956733E+02  0.10061541643E+03  0.30000000000E+02 0. -1.
     200000    1    3    3    0    0  0.24695411059E+03  0.30256432712E+00 -0.25215584649E+03  0.61202042057E+03  0.50000000000E+03 0.  1.
    -200001    1    1    2    0    0 -0.29863099654E+03  0.22558615228E+02  0.75281154882E+03  0.10707075190E+04  0.70000000000E+03 0. -1.
<mgrwt>
<rscale>  0 0.18521000E+04</rscale>
<asrwt>0</asrwt>
<pdfrwt beam="1">  1        4 0.10548921E+00 0.18521000E+04</pdfrwt>
<pdfrwt beam="2">  1       -4 0.16590701E+00 0.18521000E+04</pdfrwt>
<totfact> 0.31151903E-01</totfact>
</mgrwt>
</event>
<event>
 8    1  0.1378634E-029  0.1439774E+04  0.7818608E-02  0.8925521E-01
          4   -1    0    0  501    0  0.00000000000E+00  0.00000000000E+00  0.78575110127E+03  0.78575212761E+03  0.12700000000E+01 0.  1.
         -4   -1    0    0    0  501 -0.00000000000E+00 -0.00000000000E+00 -0.65954215069E+03  0.65954337343E+03  0.12700000000E+01 0. -1.
     200001    2    1    2    0    0 -0.11978650662E+03  0.11108148981E+02  0.18204917480E+03  0.73284176305E+03  0.69960199363E+03 0.  0.
    5000001    2    3    3    0    0 -0.90556110205E+02  0.27346367292E+02  0.11682464006E+03  0.22749798329E+03  0.17076036712E+03 0.  0.
        -13    1    4    4    0    0  0.48653892218E+02  0.13881743462E+01  0.16566788630E+02  0.51415930465E+02  0.10566000000E+00 0. -1.
     200003    1    4    4    0    0 -0.13921000242E+03  0.25958192946E+02  0.10025785143E+03  0.17608205283E+03  0.30000000000E+02 0. -1.
     200000    1    3    3    0    0 -0.29230396411E+02 -0.16238218312E+02  0.65224534742E+02  0.50534377976E+03  0.50000000000E+03 0.  1.
    -200001    1    1    2    0    0  0.11978650662E+03 -0.11108148981E+02 -0.55840224223E+02  0.71245373799E+03  0.70000000000E+03 0. -1.
<mgrwt>
<rscale>  0 0.14397744E+04</rscale>
<asrwt>0</asrwt>
<pdfrwt beam="1">  1        4 0.11225032E+00 0.14397744E+04</pdfrwt>
<pdfrwt beam="2">  1       -4 0.94220468E-01 0.14397744E+04</pdfrwt>
<totfact> 0.11577741E+00</totfact>
</mgrwt>
</event>
<event>
 8    1  0.1378634E-029  0.1697513E+04  0.7818608E-02  0.8762784E-01
          4   -1    0    0  501    0  0.00000000000E+00  0.00000000000E+00  0.38039305375E+03  0.38039517378E+03  0.12700000000E+01 0.  1.
         -4   -1    0    0    0  501 -0.00000000000E+00 -0.00000000000E+00 -0.18937910989E+04  0.18937915247E+04  0.12700000000E+01 0. -1.
     200001    2    1    2    0    0 -0.29844329202E+03 -0.25703216036E+03 -0.38881023229E+03  0.89222010020E+03  0.69982096315E+03 0.  0.
    5000001    2    3    3    0    0 -0.76405474762E+02  0.16741169469E+02 -0.15840409797E+03  0.23850791954E+03  0.16023765506E+03 0.  0.
        -13    1    4    4    0    0 -0.14333358071E+02  0.73502032627E+02 -0.11966582924E+03  0.14116627007E+03  0.10566000000E+00 0. -1.
     200003    1    4    4    0    0 -0.62072116692E+02 -0.56760863158E+02 -0.38738268728E+02  0.97341649468E+02  0.30000000000E+02 0. -1.
     200000    1    3    3    0    0 -0.22203781726E+03 -0.27377332983E+03 -0.23040613432E+03  0.65371218067E+03  0.50000000000E+03 0.  1.
    -200001    1    1    2    0    0  0.29844329202E+03  0.25703216036E+03 -0.11245878129E+04  0.13819665983E+04  0.70000000000E+03 0. -1.
<mgrwt>
<rscale>  0 0.16975133E+04</rscale>
<asrwt>0</asrwt>
<pdfrwt beam="1">  1        4 0.54342048E-01 0.16975133E+04</pdfrwt>
<pdfrwt beam="2">  1       -4 0.27054176E+00 0.16975133E+04</pdfrwt>
<totfact> 0.29286472E-01</totfact>
</mgrwt>
</event>
<event>
 8    1  0.1378634E-029  0.2081570E+04  0.7818608E-02  0.8569406E-01
          4   -1    0    0  501    0  0.00000000000E+00  0.00000000000E+00  0.70968014763E+03  0.70968128399E+03  0.12700000000E+01 0.  1.
         -4   -1    0    0    0  501 -0.00000000000E+00 -0.00000000000E+00 -0.15263660373E+04  0.15263665657E+04  0.12700000000E+01 0. -1.
     200001    2    1    2    0    0  0.72669402564E+03  0.21592273583E+03 -0.53478227400E+03  0.11663859950E+04  0.70693519789E+03 0.  0.
    5000001    2    3    3    0    0  0.88916321840E+02  0.30888395462E+02 -0.16100364929E+03  0.25495384346E+03  0.17383636543E+03 0.  0.
        -13    1    4    4    0    0 -0.42517752568E+02 -0.22955105581E+02 -0.64677358473E+02  0.80733314182E+02  0.10566000000E+00 0. -1.
     200003    1    4    4    0    0  0.13143407441E+03  0.53843501043E+02 -0.96326290818E+02  0.17422052928E+03  0.30000000000E+02 0. -1.
     200000    1    3    3    0    0  0.63777770380E+03  0.18503434037E+03 -0.37377862471E+03  0.91143215154E+03  0.50000000000E+03 0. -1.
    -200001    1    1    2    0    0 -0.72669402564E+03 -0.21592273583E+03 -0.28190361568E+03  0.10696618546E+04  0.70000000000E+03 0.  1.
<mgrwt>
<rscale>  0 0.20815701E+04</rscale>
<asrwt>0</asrwt>
<pdfrwt beam="1">  1        4 0.10138300E+00 0.20815701E+04</pdfrwt>
<pdfrwt beam="2">  1       -4 0.21805241E+00 0.20815701E+04</pdfrwt>
<totfact> 0.14925270E-01</totfact>
</mgrwt>
</event>
<event>
 8    1  0.1378634E-029  0.1974321E+04  0.7818608E-02  0.8618721E-01
          4   -1    0    0  501    0  0.00000000000E+00  0.00000000000E+00  0.14023451534E+04  0.14023457284E+04  0.12700000000E+01 0.  1.
         -4   -1    0    0    0  501 -0.00000000000E+00 -0.00000000000E+00 -0.69489594734E+03  0.69489710787E+03  0.12700000000E+01 0. -1.
     200001    2    1    2    0    0  0.59968960663E+03 -0.23936919098E+02 -0.20636836811E+02  0.92237693496E+03  0.70010908487E+03 0.  0.
    5000001    2    3    3    0    0  0.54849423800E+02  0.17687521858E+02 -0.22110329141E+02  0.18171129509E+03  0.17090588166E+03 0.  0.
        -13    1    4    4    0    0 -0.22151031877E+02 -0.41938113892E+02 -0.56861600669E+02  0.74045434733E+02  0.10566000000E+00 0. -1.
     200003    1    4    4    0    0  0.77000455678E+02  0.59625635750E+02  0.34751271527E+02  0.10766586035E+03  0.30000000000E+02 0. -1.
     200000    1    3    3    0    0  0.54484018283E+03 -0.41624440956E+02  0.14734923305E+01  0.74066563987E+03  0.50000000000E+03 0. -1.
    -200001    1    1    2    0    0 -0.59968960663E+03  0.23936919098E+02  0.72808604284E+03  0.11748659014E+04  0.70000000000E+03 0.  1.
<mgrwt>
<rscale>  0 0.19743209E+04</rscale>
<asrwt>0</asrwt>
<pdfrwt beam="1">  1        4 0.20033515E+00 0.19743209E+04</pdfrwt>
<pdfrwt beam="2">  1       -4 0.99270973E-01 0.19743209E+04</pdfrwt>
<totfact> 0.20644311E-01</totfact>
</mgrwt>
</event>
<event>
 8    1  0.1378634E-029  0.1471999E+04  0.7818608E-02  0.8903290E-01
         -4   -1    0    0    0  501 -0.00000000000E+00  0.00000000000E+00  0.26870633484E+03  0.26870933606E+03  0.12700000000E+01 0. -1.
          4   -1    0    0  501    0  0.00000000000E+00 -0.00000000000E+00 -0.20159234104E+04  0.20159238104E+04  0.12700000000E+01 0.  1.
     200001    2    1    2    0    0 -0.10915369360E+03  0.12495639842E+03 -0.11161592372E+04  0.13276782752E+04  0.69956381362E+03 0.  0.
    5000001    2    3    3    0    0  0.52579035767E+02  0.10685023519E+03 -0.15625434287E+03  0.23319085406E+03  0.12562255763E+03 0.  0.
        -13    1    4    4    0    0  0.47945406912E+02  0.16854017064E+02 -0.12210717857E+03  0.13226108331E+03  0.10566000000E+00 0. -1.
     200003    1    4    4    0    0  0.46336288552E+01  0.89996218129E+02 -0.34147164305E+02  0.10092977075E+03  0.30000000000E+02 0. -1.
     200000    1    3    3    0    0 -0.16173272937E+03  0.18106163223E+02 -0.95990489435E+03  0.10944874212E+04  0.50000000000E+03 0.  1.
    -200001    1    1    2    0    0  0.10915369360E+03 -0.12495639842E+03 -0.63105783834E+03  0.95695487128E+03  0.70000000000E+03 0. -1.
<mgrwt>
<rscale>  0 0.14719990E+04</rscale>
<asrwt>0</asrwt>
<pdfrwt beam="1">  1        4 0.28798929E+00 0.14719990E+04</pdfrwt>
<pdfrwt beam="2">  1       -4 0.38386863E-01 0.14719990E+04</pdfrwt>
<totfact> 0.47586750E-01</totfact>
</mgrwt>
</event>
<event>
 8    1  0.1378634E-029  0.1677604E+04  0.7818608E-02  0.8774241E-01
         -4   -1    0    0    0  501 -0.00000000000E+00  0.00000000000E+00  0.52273227786E+03  0.52273382062E+03  0.12700000000E+01 0. -1.
          4   -1    0    0  501    0  0.00000000000E+00 -0.00000000000E+00 -0.13459797719E+04  0.13459803711E+04  0.12700000000E+01 0.  1.
     200001    2    1    2    0    0 -0.34915030922E+03  0.23502875799E+03 -0.20417199670E+03  0.84382447716E+03  0.70228846531E+03 0.  0.
    5000001    2    3    3    0    0 -0.18299120709E+03  0.12631869311E+03 -0.70726540303E+02  0.28953717326E+03  0.17142735224E+03 0.  0.
        -13    1    4    4    0    0 -0.19957474831E+03  0.13465569720E+03 -0.42765423406E+02  0.24452224757E+03  0.10566000000E+00 0. -1.
     200003    1    4    4    0    0  0.16583541226E+02 -0.83370040924E+01 -0.27961116897E+02  0.45014925691E+02  0.30000000000E+02 0. -1.
     200000    1    3    3    0    0 -0.16615910213E+03  0.10871006488E+03 -0.13344545640E+03  0.55428730390E+03  0.50000000000E+03 0. -1.
    -200001    1    1    2    0    0  0.34915030922E+03 -0.23502875799E+03 -0.61907549736E+03  0.10248897145E+04  0.70000000000E+03 0.  1.
<mgrwt>
<rscale>  0 0.16776043E+04</rscale>
<asrwt>0</asrwt>
<pdfrwt beam="1">  1        4 0.19228298E+00 0.16776043E+04</pdfrwt>
<pdfrwt beam="2">  1       -4 0.74676193E-01 0.16776043E+04</pdfrwt>
<totfact> 0.46095260E-01</totfact>
</mgrwt>
</event>
<event>
 8    1  0.1378634E-029  0.1421660E+04  0.7818608E-02  0.8938287E-01
         -4   -1    0    0    0  501 -0.00000000000E+00  0.00000000000E+00  0.82604091943E+03  0.82604189572E+03  0.12700000000E+01 0.  1.
          4   -1    0    0  501    0  0.00000000000E+00 -0.00000000000E+00 -0.61168629207E+03  0.61168761047E+03  0.12700000000E+01 0. -1.
     200001    2    1    2    0    0 -0.69102951143E-01 -0.31032737691E+01  0.23118354008E+03  0.73752036073E+03  0.70034335736E+03 0.  0.
    5000001    2    3    3    0    0 -0.34060039640E+02  0.56064550698E+02  0.87378993454E+02  0.21279570640E+03  0.18260231110E+03 0.  0.
        -13    1    4    4    0    0 -0.90659578109E+02  0.78920736943E+02  0.30185761811E+02  0.12393075971E+03  0.10566000000E+00 0. -1.
     200003    1    4    4    0    0  0.56599538468E+02 -0.22856186246E+02  0.57193231643E+02  0.88864946691E+02  0.30000000000E+02 0. -1.
     200000    1    3    3    0    0  0.33990936689E+02 -0.59167824467E+02  0.14380454662E+03  0.52472465433E+03  0.50000000000E+03 0.  1.
    -200001    1    1    2    0    0  0.69102951143E-01  0.31032737691E+01 -0.16828912717E+02  0.70020914546E+03  0.70000000000E+03 0. -1.
<mgrwt>
<rscale>  0 0.14216604E+04</rscale>
<asrwt>0</asrwt>
<pdfrwt beam="1">  1        4 0.87383920E-01 0.14216604E+04</pdfrwt>
<pdfrwt beam="2">  1       -4 0.11800601E+00 0.14216604E+04</pdfrwt>
<totfact> 0.12219000E+00</totfact>
</mgrwt>
</event>
<event>
 8    1  0.1378634E-029  0.1693619E+04  0.7818608E-02  0.8765012E-01
         -4   -1    0    0    0  501 -0.00000000000E+00  0.00000000000E+00  0.74445916854E+03  0.74446025181E+03  0.12700000000E+01 0. -1.
          4   -1    0    0  501    0  0.00000000000E+00 -0.00000000000E+00 -0.96322955950E+03  0.96323039673E+03  0.12700000000E+01 0.  1.
     200001    2    1    2    0    0  0.43667087426E+03  0.16718924309E+03 -0.20015771822E+03  0.86568107198E+03  0.70050475429E+03 0.  0.
    5000001    2    3    3    0    0  0.12620990845E+03  0.81111528832E+02  0.57066668647E+02  0.21763804148E+03  0.14697513846E+03 0.  0.
        -13    1    4    4    0    0  0.59783672419E+02  0.32042282939E+02  0.99216578396E+02  0.12018625536E+03  0.10566000000E+00 0. -1.
     200003    1    4    4    0    0  0.66426236033E+02  0.49069245893E+02 -0.42149909749E+02  0.97451786119E+02  0.30000000000E+02 0. -1.
     200000    1    3    3    0    0  0.31046096581E+03  0.86077714258E+02 -0.25722438686E+03  0.64804303050E+03  0.50000000000E+03 0.  1.
    -200001    1    1    2    0    0 -0.43667087426E+03 -0.16718924309E+03 -0.18612672743E+02  0.84200957656E+03  0.70000000000E+03 0. -1.
<mgrwt>
<rscale>  0 0.16936195E+04</rscale>
<asrwt>0</asrwt>
<pdfrwt beam="1">  1        4 0.13760436E+00 0.16936195E+04</pdfrwt>
<pdfrwt beam="2">  1       -4 0.10635145E+00 0.16936195E+04</pdfrwt>
<totfact> 0.51043187E-01</totfact>
</mgrwt>
</event>
<event>
 8    1  0.1378634E-029  0.1665588E+04  0.7818608E-02  0.8781238E-01
          4   -1    0    0  501    0  0.00000000000E+00  0.00000000000E+00  0.70807109734E+03  0.70807223628E+03  0.12700000000E+01 0. -1.
         -4   -1    0    0    0  501 -0.00000000000E+00 -0.00000000000E+00 -0.97948386582E+03  0.97948468916E+03  0.12700000000E+01 0.  1.
     200001    2    1    2    0    0 -0.37302914800E+03  0.77608927879E+01  0.12218295877E+03  0.80204657924E+03  0.69938477474E+03 0.  0.
    5000001    2    3    3    0    0 -0.12341051548E+03  0.15488184475E+02  0.63356844470E+02  0.24005931563E+03  0.19530577587E+03 0.  0.
        -13    1    4    4    0    0 -0.14373644739E+02  0.89285583579E+02 -0.10667030900E+01  0.90441506609E+02  0.10566000000E+00 0. -1.
     200003    1    4    4    0    0 -0.10903687074E+03 -0.73797399104E+02  0.64423547560E+02  0.14961780902E+03  0.30000000000E+02 0. -1.
     200000    1    3    3    0    0 -0.24961863253E+03 -0.77272916870E+01  0.58826114302E+02  0.56198726361E+03  0.50000000000E+03 0. -1.
    -200001    1    1    2    0    0  0.37302914800E+03 -0.77608927879E+01 -0.39359572726E+03  0.88551034620E+03  0.70000000000E+03 0.  1.
<mgrwt>
<rscale>  0 0.16655880E+04</rscale>
<asrwt>0</asrwt>
<pdfrwt beam="1">  1        4 0.10115315E+00 0.16655880E+04</pdfrwt>
<pdfrwt beam="2">  1       -4 0.13992641E+00 0.16655880E+04</pdfrwt>
<totfact> 0.55252114E-01</totfact>
</mgrwt>
</event>
<event>
 8    1  0.1378634E-029  0.1591718E+04  0.7818608E-02  0.8825652E-01
          4   -1    0    0  501    0  0.00000000000E+00  0.00000000000E+00  0.45751322232E+03  0.45751498500E+03  0.12700000000E+01 0.  1.
         -4   -1    0    0    0  501 -0.00000000000E+00 -0.00000000000E+00 -0.13844172126E+04  0.13844177951E+04  0.12700000000E+01 0. -1.
     200001    2    1    2    0    0  0.11300581244E+02 -0.12737731071E+03 -0.51522638005E+02  0.71381700843E+03  0.70037665358E+03 0.  0.
    5000001    2    3    3    0    0  0.26379308072E+02  0.13433893369E+02 -0.53131064743E+02  0.19414619894E+03  0.18437326036E+03 0.  0.
        -13    1    4    4    0    0 -0.43192670150E+02 -0.24692190931E+02  0.43133422320E+02  0.65846900707E+02  0.10566000000E+00 0. -1.
     200003    1    4    4    0    0  0.69571978222E+02  0.38126084300E+02 -0.96264487063E+02  0.12829929823E+03  0.30000000000E+02 0. -1.
     200000    1    3    3    0    0 -0.15078726828E+02 -0.14081120408E+03  0.16084267376E+01  0.51967080949E+03  0.50000000000E+03 0.  1.
    -200001    1    1    2    0    0 -0.11300581244E+02  0.12737731071E+03 -0.87538135228E+03  0.11281157717E+04  0.70000000000E+03 0. -1.
<mgrwt>
<rscale>  0 0.15917177E+04</rscale>
<asrwt>0</asrwt>
<pdfrwt beam="1">  1        4 0.65359200E-01 0.15917177E+04</pdfrwt>
<pdfrwt beam="2">  1       -4 0.19777405E+00 0.15917177E+04</pdfrwt>
<totfact> 0.57241363E-01</totfact>
</mgrwt>
</event>
<event>
 8    1  0.1378634E-029  0.2899352E+04  0.7818608E-02  0.8273070E-01
         -4   -1    0    0    0  501 -0.00000000000E+00  0.00000000000E+00  0.15028062345E+04  0.15028067711E+04  0.12700000000E+01 0. -1.
          4   -1    0    0  501    0  0.00000000000E+00 -0.00000000000E+00 -0.13984234785E+04  0.13984240552E+04  0.12700000000E+01 0.  1.
     200001    2    1    2    0    0 -0.25801216244E+03 -0.11781159954E+04 -0.34333128964E+03  0.14366573589E+04  0.70112796113E+03 0.  0.
    5000001    2    3    3    0    0 -0.85583125925E+02 -0.38204870185E+03 -0.10813434167E+03  0.45239493820E+03  0.19920457382E+03 0.  0.
        -13    1    4    4    0    0 -0.98740095039E+02 -0.34690098591E+03 -0.14809727957E+03  0.38990090507E+03  0.10566000000E+00 0. -1.
     200003    1    4    4    0    0  0.13156969115E+02 -0.35147715946E+02  0.39962937893E+02  0.62494033136E+02  0.30000000000E+02 0. -1.
     200000    1    3    3    0    0 -0.17242903651E+03 -0.79606729355E+03 -0.23519694796E+03  0.98426242071E+03  0.50000000000E+03 0.  1.
    -200001    1    1    2    0    0  0.25801216244E+03  0.11781159954E+04  0.44771404566E+03  0.14645734674E+04  0.70000000000E+03 0.  1.
<mgrwt>
<rscale>  0 0.28993524E+04</rscale>
<asrwt>0</asrwt>
<pdfrwt beam="1">  1        4 0.19977486E+00 0.28993524E+04</pdfrwt>
<pdfrwt beam="2">  1       -4 0.21468668E+00 0.28993524E+04</pdfrwt>
<totfact> 0.24181601E-02</totfact>
</mgrwt>
</event>
<event>
 8    1  0.1378634E-029  0.1794784E+04  0.7818608E-02  0.8709078E-01
          4   -1    0    0  501    0  0.00000000000E+00  0.00000000000E+00  0.65112616353E+03  0.65112740207E+03  0.12700000000E+01 0.  1.
         -4   -1    0    0    0  501 -0.00000000000E+00 -0.00000000000E+00 -0.12367964768E+04  0.12367971288E+04  0.12700000000E+01 0. -1.
     200001    2    1    2    0    0 -0.23263774981E+03 -0.44920120301E+03 -0.54900708216E+03  0.10234904756E+04  0.70015850633E+03 0.  0.
    5000001    2    3    3    0    0  0.63517000888E+02 -0.13783119658E+03 -0.22023505318E+03  0.28677481520E+03  0.10346239814E+03 0.  0.
        -13    1    4    4    0    0 -0.20321070649E+02 -0.44427256799E+02 -0.95639564677E+02  0.10739490004E+03  0.10566000000E+00 0. -1.
     200003    1    4    4    0    0  0.83838071537E+02 -0.93403939782E+02 -0.12459548851E+03  0.17937991516E+03  0.30000000000E+02 0. -1.
     200000    1    3    3    0    0 -0.29615475070E+03 -0.31137000643E+03 -0.32877202898E+03  0.73671566042E+03  0.50000000000E+03 0. -1.
    -200001    1    1    2    0    0  0.23263774981E+03  0.44920120301E+03 -0.36663231082E+02  0.86443405528E+03  0.70000000000E+03 0.  1.
<mgrwt>
<rscale>  0 0.17947839E+04</rscale>
<asrwt>0</asrwt>
<pdfrwt beam="1">  1        4 0.93018158E-01 0.17947839E+04</pdfrwt>
<pdfrwt beam="2">  1       -4 0.17668535E+00 0.17947839E+04</pdfrwt>
<totfact> 0.35359785E-01</totfact>
</mgrwt>
</event>
<event>
 8    1  0.1378634E-029  0.1705792E+04  0.7818608E-02  0.8758068E-01
          4   -1    0    0  501    0  0.00000000000E+00  0.00000000000E+00  0.17580255524E+04  0.17580260112E+04  0.12700000000E+01 0.  1.
         -4   -1    0    0    0  501 -0.00000000000E+00 -0.00000000000E+00 -0.41377618778E+03  0.41377813678E+03  0.12700000000E+01 0. -1.
     200001    2    1    2    0    0  0.41363759509E+03  0.13028188921E+03  0.39462005455E+03  0.91487723784E+03  0.70228622521E+03 0.  0.
    5000001    2    3    3    0    0  0.11556878230E+03  0.23976039681E+02  0.23623324867E+03  0.30231513398E+03  0.14716418903E+03 0.  0.
        -13    1    4    4    0    0  0.95550549314E+02  0.75919669749E+02  0.18131143216E+03  0.21855788782E+03  0.10566000000E+00 0. -1.
     200003    1    4    4    0    0  0.20018232987E+02 -0.51943630068E+02  0.54921816510E+02  0.83757246166E+02  0.30000000000E+02 0.  1.
     200000    1    3    3    0    0  0.29806881279E+03  0.10630584953E+03  0.15838680588E+03  0.61256210386E+03  0.50000000000E+03 0. -1.
    -200001    1    1    2    0    0 -0.41363759509E+03 -0.13028188921E+03  0.94962931011E+03  0.12569269101E+04  0.70000000000E+03 0.  1.
<mgrwt>
<rscale>  0 0.17057922E+04</rscale>
<asrwt>0</asrwt>
<pdfrwt beam="1">  1        4 0.25114668E+00 0.17057922E+04</pdfrwt>
<pdfrwt beam="2">  1       -4 0.59111055E-01 0.17057922E+04</pdfrwt>
<totfact> 0.32246719E-01</totfact>
</mgrwt>
</event>
<event>
 8    1  0.1378634E-029  0.1764403E+04  0.7818608E-02  0.8725462E-01
         -4   -1    0    0    0  501 -0.00000000000E+00  0.00000000000E+00  0.54651555788E+03  0.54651703350E+03  0.12700000000E+01 0. -1.
          4   -1    0    0  501    0  0.00000000000E+00 -0.00000000000E+00 -0.14240724637E+04  0.14240730300E+04  0.12700000000E+01 0.  1.
     200001    2    1    2    0    0  0.18439036962E+03 -0.12226364537E+03  0.10739113864E+03  0.74214761158E+03  0.70021569058E+03 0.  0.
    5000001    2    3    3    0    0  0.28858709301E+01 -0.10213014520E+03  0.14349416316E+02  0.20177181367E+03  0.17339857045E+03 0.  0.
        -13    1    4    4    0    0 -0.52139825889E+02 -0.11928128273E+03 -0.13901267726E+02  0.13091922037E+03  0.10566000000E+00 0. -1.
     200003    1    4    4    0    0  0.55025696819E+02  0.17151137532E+02  0.28250684042E+02  0.70852593304E+02  0.30000000000E+02 0. -1.
     200000    1    3    3    0    0  0.18150449869E+03 -0.20133500176E+02  0.93041722321E+02  0.54037579791E+03  0.50000000000E+03 0. -1.
    -200001    1    1    2    0    0 -0.18439036962E+03  0.12226364537E+03 -0.98494804445E+03  0.12284424519E+04  0.70000000000E+03 0.  1.
<mgrwt>
<rscale>  0 0.17644033E+04</rscale>
<asrwt>0</asrwt>
<pdfrwt beam="1">  1        4 0.20343907E+00 0.17644033E+04</pdfrwt>
<pdfrwt beam="2">  1       -4 0.78073798E-01 0.17644033E+04</pdfrwt>
<totfact> 0.34927185E-01</totfact>
</mgrwt>
</event>
<event>
 8    1  0.1378634E-029  0.1505520E+04  0.7818608E-02  0.8880791E-01
          4   -1    0    0  501    0  0.00000000000E+00  0.00000000000E+00  0.99219117156E+03  0.99219198436E+03  0.12700000000E+01 0.  1.
         -4   -1    0    0    0  501 -0.00000000000E+00 -0.00000000000E+00 -0.57110549808E+03  0.57110691016E+03  0.12700000000E+01 0. -1.
     200001    2    1    2    0    0 -0.23473412614E+03 -0.13631865585E+03  0.27096915069E+03  0.79765024382E+03  0.69938454725E+03 0.  0.
    5000001    2    3    3    0    0 -0.16860702554E+03  0.11891389623E+00  0.73430497554E+02  0.23907211736E+03  0.15275829315E+03 0.  0.
        -13    1    4    4    0    0 -0.69014648110E+02 -0.10175006596E+02  0.10835606249E+03  0.12887047705E+03  0.10566000000E+00 0. -1.
     200003    1    4    4    0    0 -0.99592377431E+02  0.10293920492E+02 -0.34925564936E+02  0.11020164031E+03  0.30000000000E+02 0. -1.
     200000    1    3    3    0    0 -0.66127100597E+02 -0.13643756975E+03  0.19753865313E+03  0.55857812646E+03  0.50000000000E+03 0. -1.
    -200001    1    1    2    0    0  0.23473412614E+03  0.13631865585E+03  0.15011652279E+03  0.76564865070E+03  0.70000000000E+03 0. -1.
<mgrwt>
<rscale>  0 0.15055199E+04</rscale>
<asrwt>0</asrwt>
<pdfrwt beam="1">  1        4 0.14174175E+00 0.15055199E+04</pdfrwt>
<pdfrwt beam="2">  1       -4 0.81586659E-01 0.15055199E+04</pdfrwt>
<totfact> 0.89192955E-01</totfact>
</mgrwt>
</event>
<event>
 8    1  0.1378634E-029  0.1749751E+04  0.7818608E-02  0.8733487E-01
          4   -1    0    0  501    0  0.00000000000E+00  0.00000000000E+00  0.10673110815E+04  0.10673118371E+04  0.12700000000E+01 0. -1.
         -4   -1    0    0    0  501 -0.00000000000E+00 -0.00000000000E+00 -0.71713446540E+03  0.71713558994E+03  0.12700000000E+01 0.  1.
     200001    2    1    2    0    0 -0.16749212035E+03  0.16600901771E+03 -0.30273702118E+03  0.79859306553E+03  0.70034889590E+03 0.  0.
    5000001    2    3    3    0    0 -0.39442950658E+02  0.89126148701E+02 -0.19887935447E+03  0.26652729860E+03  0.14827200183E+03 0.  0.
        -13    1    4    4    0    0 -0.46279167525E+02  0.37465661558E+02 -0.82809786041E+00  0.59549425294E+02  0.10566000000E+00 0. -1.
     200003    1    4    4    0    0  0.68362168678E+01  0.51660487143E+02 -0.19805125661E+03  0.20697787331E+03  0.30000000000E+02 0. -1.
     200000    1    3    3    0    0 -0.12804916969E+03  0.76882869008E+02 -0.10385766671E+03  0.53206576693E+03  0.50000000000E+03 0.  1.
    -200001    1    1    2    0    0  0.16749212035E+03 -0.16600901771E+03  0.65291363727E+03  0.98585436149E+03  0.70000000000E+03 0. -1.
<mgrwt>
<rscale>  0 0.17497511E+04</rscale>
<asrwt>0</asrwt>
<pdfrwt beam="1">  1        4 0.15247315E+00 0.17497511E+04</pdfrwt>
<pdfrwt beam="2">  1       -4 0.10244791E+00 0.17497511E+04</pdfrwt>
<totfact> 0.42432551E-01</totfact>
</mgrwt>
</event>
<event>
 8    1  0.1378634E-029  0.2086073E+04  0.7818608E-02  0.8567403E-01
          4   -1    0    0  501    0  0.00000000000E+00  0.00000000000E+00  0.33933360538E+03  0.33933598194E+03  0.12700000000E+01 0.  1.
         -4   -1    0    0    0  501 -0.00000000000E+00 -0.00000000000E+00 -0.32060501713E+04  0.32060504228E+04  0.12700000000E+01 0. -1.
     200001    2    1    2    0    0 -0.13945998845E+03 -0.36370416407E+03 -0.25629629365E+04  0.26886506960E+04  0.71297527553E+03 0.  0.
    5000001    2    3    3    0    0 -0.87566426873E+02 -0.14373671508E+03 -0.40810438887E+03  0.46502887992E+03  0.14620035761E+03 0.  0.
        -13    1    4    4    0    0 -0.44872199212E+02  0.16247361883E+02 -0.14556324934E+03  0.15318668922E+03  0.10566000000E+00 0. -1.
     200003    1    4    4    0    0 -0.42694227661E+02 -0.15998407696E+03 -0.26254113953E+03  0.31184219070E+03  0.30000000000E+02 0. -1.
     200000    1    3    3    0    0 -0.51893561580E+02 -0.21996744900E+03 -0.21548585477E+04  0.22236218161E+04  0.50000000000E+03 0. -1.
    -200001    1    1    2    0    0  0.13945998845E+03  0.36370416407E+03 -0.30375362934E+03  0.85673570877E+03  0.70000000000E+03 0.  1.
<mgrwt>
<rscale>  0 0.20860731E+04</rscale>
<asrwt>0</asrwt>
<pdfrwt beam="1">  1        4 0.48476419E-01 0.20860731E+04</pdfrwt>
<pdfrwt beam="2">  1       -4 0.45800734E+00 0.20860731E+04</pdfrwt>
<totfact> 0.19807914E-02</totfact>
</mgrwt>
</event>
<event>
 8    1  0.1378634E-029  0.1527619E+04  0.7818608E-02  0.8866292E-01
         -4   -1    0    0    0  501 -0.00000000000E+00  0.00000000000E+00  0.42138916221E+03  0.42139107599E+03  0.12700000000E+01 0. -1.
          4   -1    0    0  501    0  0.00000000000E+00 -0.00000000000E+00 -0.13844742795E+04  0.13844748620E+04  0.12700000000E+01 0.  1.
     200001    2    1    2    0    0 -0.27120212111E+02 -0.24288296805E+03 -0.70366476415E+03  0.10203555551E+04  0.69731894879E+03 0.  0.
    5000001    2    3    3    0    0 -0.93398713386E+01  0.65055626762E+00 -0.17091482901E+03  0.25000030494E+03  0.18221036544E+03 0.  0.
        -13    1    4    4    0    0 -0.36445368226E+02  0.70297893076E+02 -0.14532935801E+03  0.16550133564E+03  0.10566000000E+00 0. -1.
     200003    1    4    4    0    0  0.27105496887E+02 -0.69647336809E+02 -0.25585471009E+02  0.84498969300E+02  0.30000000000E+02 0. -1.
     200000    1    3    3    0    0 -0.17780340772E+02 -0.24353352432E+03 -0.53274993514E+03  0.77035525011E+03  0.50000000000E+03 0.  1.
    -200001    1    1    2    0    0  0.27120212111E+02  0.24288296805E+03 -0.25942035313E+03  0.78551038293E+03  0.70000000000E+03 0.  1.
<mgrwt>
<rscale>  0 0.15276187E+04</rscale>
<asrwt>0</asrwt>
<pdfrwt beam="1">  1        4 0.19778222E+00 0.15276187E+04</pdfrwt>
<pdfrwt beam="2">  1       -4 0.60198631E-01 0.15276187E+04</pdfrwt>
<totfact> 0.68729917E-01</totfact>
</mgrwt>
</event>
<event>
 8    1  0.1378634E-029  0.2029745E+04  0.7818608E-02  0.8592839E-01
          4   -1    0    0  501    0  0.00000000000E+00  0.00000000000E+00  0.86059607653E+03  0.86059701361E+03  0.12700000000E+01 0.  1.
         -4   -1    0    0    0  501 -0.00000000000E+00 -0.00000000000E+00 -0.11968033486E+04  0.11968040224E+04  0.12700000000E+01 0. -1.
     200001    2    1    2    0    0  0.35762713698E+02  0.30140815475E+03 -0.84615399949E+03  0.11397020046E+04  0.70058419986E+03 0.  0.
    5000001    2    3    3    0    0  0.85694988939E+02  0.31061588116E+02 -0.23224777574E+03  0.30157233105E+03  0.16940598612E+03 0.  0.
        -13    1    4    4    0    0  0.25133276997E+02  0.84395982977E+02 -0.18124472625E+03  0.20150440569E+03  0.10566000000E+00 0. -1.
     200003    1    4    4    0    0  0.60561711942E+02 -0.53334394861E+02 -0.51003049488E+02  0.10006792536E+03  0.30000000000E+02 0. -1.
     200000    1    3    3    0    0 -0.49932275240E+02  0.27034656663E+03 -0.61390622376E+03  0.83812967360E+03  0.50000000000E+03 0. -1.
    -200001    1    1    2    0    0 -0.35762713698E+02 -0.30140815475E+03  0.50994672742E+03  0.91769903140E+03  0.70000000000E+03 0.  1.
<mgrwt>
<rscale>  0 0.20297447E+04</rscale>
<asrwt>0</asrwt>
<pdfrwt beam="1">  1        4 0.12294241E+00 0.20297447E+04</pdfrwt>
<pdfrwt beam="2">  1       -4 0.17097202E+00 0.20297447E+04</pdfrwt>
<totfact> 0.19385365E-01</totfact>
</mgrwt>
</event>
<event>
 8    1  0.1378634E-029  0.1419438E+04  0.7818608E-02  0.8939867E-01
         -4   -1    0    0    0  501 -0.00000000000E+00  0.00000000000E+00  0.47113091448E+03  0.47113262621E+03  0.12700000000E+01 0. -1.
          4   -1    0    0  501    0  0.00000000000E+00 -0.00000000000E+00 -0.10691283469E+04  0.10691291012E+04  0.12700000000E+01 0.  1.
     200001    2    1    2    0    0 -0.29609469025E+02  0.88337026864E+02 -0.22628498828E+03  0.74223272287E+03  0.70073130942E+03 0.  0.
    5000001    2    3    3    0    0 -0.68280032039E+02  0.15208393898E+02  0.28733287593E+02  0.17489020690E+03  0.15769440267E+03 0.  0.
        -13    1    4    4    0    0  0.49113822155E+02  0.23576217207E+01 -0.20588610405E+01  0.49213575157E+02  0.10566000000E+00 0. -1.
     200003    1    4    4    0    0 -0.11739385419E+03  0.12850772177E+02  0.30792148634E+02  0.12567663174E+03  0.30000000000E+02 0. -1.
     200000    1    3    3    0    0  0.38670563014E+02  0.73128632967E+02 -0.25501827587E+03  0.56734251597E+03  0.50000000000E+03 0. -1.
    -200001    1    1    2    0    0  0.29609469025E+02 -0.88337026864E+02 -0.37171244415E+03  0.79802900455E+03  0.70000000000E+03 0.  1.
<mgrwt>
<rscale>  0 0.14194384E+04</rscale>
<asrwt>0</asrwt>
<pdfrwt beam="1">  1        4 0.15273280E+00 0.14194384E+04</pdfrwt>
<pdfrwt beam="2">  1       -4 0.67304593E-01 0.14194384E+04</pdfrwt>
<totfact> 0.11317697E+00</totfact>
</mgrwt>
</event>
<event>
 8    1  0.1378634E-029  0.1852400E+04  0.7818608E-02  0.8678920E-01
          4   -1    0    0  501    0  0.00000000000E+00  0.00000000000E+00  0.93540417665E+03  0.93540503879E+03  0.12700000000E+01 0.  1.
         -4   -1    0    0    0  501 -0.00000000000E+00 -0.00000000000E+00 -0.91708443951E+03  0.91708531887E+03  0.12700000000E+01 0. -1.
     200001    2    1    2    0    0  0.47878749338E+03  0.23588382596E+03  0.29714290372E+03  0.92911556842E+03  0.70005941968E+03 0.  0.
    5000001    2    3    3    0    0  0.14010973467E+03  0.16649541676E+03  0.36340134887E+02  0.26765093611E+03  0.15154193031E+03 0.  0.
        -13    1    4    4    0    0  0.21244099803E+01  0.11117655056E+02 -0.42042240079E+02  0.43539367089E+02  0.10566000000E+00 0. -1.
     200003    1    4    4    0    0  0.13798532469E+03  0.15537776170E+03  0.78382374965E+02  0.22411156902E+03  0.30000000000E+02 0. -1.
     200000    1    3    3    0    0  0.33867775871E+03  0.69388409205E+02  0.26080276883E+03  0.66146463232E+03  0.50000000000E+03 0.  1.
    -200001    1    1    2    0    0 -0.47878749338E+03 -0.23588382596E+03 -0.27882316658E+03  0.92337478923E+03  0.70000000000E+03 0. -1.
<mgrwt>
<rscale>  0 0.18523998E+04</rscale>
<asrwt>0</asrwt>
<pdfrwt beam="1">  1        4 0.13362929E+00 0.18523998E+04</pdfrwt>
<pdfrwt beam="2">  1       -4 0.13101219E+00 0.18523998E+04</pdfrwt>
<totfact> 0.32416859E-01</totfact>
</mgrwt>
</event>
<event>
 8    1  0.1378634E-029  0.1622643E+04  0.7818608E-02  0.8806757E-01
          4   -1    0    0  501    0  0.00000000000E+00  0.00000000000E+00  0.87542729667E+03  0.87542821787E+03  0.12700000000E+01 0.  1.
         -4   -1    0    0    0  501 -0.00000000000E+00 -0.00000000000E+00 -0.75190803202E+03  0.75190910455E+03  0.12700000000E+01 0. -1.
     200001    2    1    2    0    0  0.18262456980E+03 -0.36796018868E+03  0.66527123722E+02  0.81370685467E+03  0.69924713314E+03 0.  0.
    5000001    2    3    3    0    0  0.27658508313E+02 -0.86217726691E+02 -0.88731306722E+02  0.19929780906E+03  0.15377868001E+03 0.  0.
        -13    1    4    4    0    0  0.38239655341E+02 -0.45471001949E+02 -0.12346656917E+03  0.13701783871E+03  0.10566000000E+00 0. -1.
     200003    1    4    4    0    0 -0.10581147028E+02 -0.40746724742E+02  0.34735262447E+02  0.62279970351E+02  0.30000000000E+02 0. -1.
     200000    1    3    3    0    0  0.15496606148E+03 -0.28174246198E+03  0.15525843044E+03  0.61440904560E+03  0.50000000000E+03 0.  1.
    -200001    1    1    2    0    0 -0.18262456980E+03  0.36796018868E+03  0.56992140929E+02  0.81363046776E+03  0.70000000000E+03 0. -1.
<mgrwt>
<rscale>  0 0.16226428E+04</rscale>
<asrwt>0</asrwt>
<pdfrwt beam="1">  1        4 0.12506119E+00 0.16226428E+04</pdfrwt>
<pdfrwt beam="2">  1       -4 0.10741558E+00 0.16226428E+04</pdfrwt>
<totfact> 0.63923721E-01</totfact>
</mgrwt>
</event>
<event>
 8    1  0.1378634E-029  0.1533580E+04  0.7818608E-02  0.8862424E-01
         -4   -1    0    0    0  501 -0.00000000000E+00  0.00000000000E+00  0.30905979744E+03  0.30906240679E+03  0.12700000000E+01 0. -1.
          4   -1    0    0  501    0  0.00000000000E+00 -0.00000000000E+00 -0.19024270630E+04  0.19024274870E+04  0.12700000000E+01 0.  1.
     200001    2    1    2    0    0 -0.13524821893E+03  0.22282095687E+03 -0.54810456232E+03  0.92676604076E+03  0.70038234096E+03 0.  0.
    5000001    2    3    3    0    0  0.70086054476E+02 -0.25386937084E+02 -0.18750912396E+03  0.23120986573E+03  0.11287948812E+03 0.  0.
        -13    1    4    4    0    0  0.38381827425E+02 -0.55101748351E+00 -0.17540005487E+03  0.17955127042E+03  0.10566000000E+00 0. -1.
     200003    1    4    4    0    0  0.31704227051E+02 -0.24835919600E+02 -0.12109069088E+02  0.51658595311E+02  0.30000000000E+02 0. -1.
     200000    1    3    3    0    0 -0.20533427340E+03  0.24820789395E+03 -0.36059543835E+03  0.69555617503E+03  0.50000000000E+03 0. -1.
    -200001    1    1    2    0    0  0.13524821893E+03 -0.22282095687E+03 -0.10452627033E+04  0.12847238530E+04  0.70000000000E+03 0.  1.
<mgrwt>
<rscale>  0 0.15335802E+04</rscale>
<asrwt>0</asrwt>
<pdfrwt beam="1">  1        4 0.27177550E+00 0.15335802E+04</pdfrwt>
<pdfrwt beam="2">  1       -4 0.44151617E-01 0.15335802E+04</pdfrwt>
<totfact> 0.44912631E-01</totfact>
</mgrwt>
</event>
<event>
 8    1  0.1378634E-029  0.1512018E+04  0.7818608E-02  0.8876500E-01
         -4   -1    0    0    0  501 -0.00000000000E+00  0.00000000000E+00  0.13721060032E+04  0.13721065910E+04  0.12700000000E+01 0. -1.
          4   -1    0    0  501    0  0.00000000000E+00 -0.00000000000E+00 -0.41654777338E+03  0.41654970941E+03  0.12700000000E+01 0.  1.
     200001    2    1    2    0    0 -0.18919123195E+03 -0.21027644667E+03  0.52650416905E+03  0.92026877549E+03  0.69977030006E+03 0.  0.
    5000001    2    3    3    0    0 -0.15200569232E+02 -0.17922611830E+02  0.79422044804E+02  0.20113375735E+03  0.18328843342E+03 0.  0.
        -13    1    4    4    0    0  0.42537761477E+02  0.13360557634E+02  0.11302396828E+03  0.12150059350E+03  0.10566000000E+00 0. -1.
     200003    1    4    4    0    0 -0.57738330708E+02 -0.31283169464E+02 -0.33601923471E+02  0.79633163855E+02  0.30000000000E+02 0. -1.
     200000    1    3    3    0    0 -0.17399066272E+03 -0.19235383484E+03  0.44708212424E+03  0.71913501814E+03  0.50000000000E+03 0.  1.
    -200001    1    1    2    0    0  0.18919123195E+03  0.21027644667E+03  0.42905406078E+03  0.86838752487E+03  0.70000000000E+03 0.  1.
<mgrwt>
<rscale>  0 0.15120185E+04</rscale>
<asrwt>0</asrwt>
<pdfrwt beam="1">  1        4 0.59507005E-01 0.15120185E+04</pdfrwt>
<pdfrwt beam="2">  1       -4 0.19601532E+00 0.15120185E+04</pdfrwt>
<totfact> 0.72472836E-01</totfact>
</mgrwt>
</event>
<event>
 8    1  0.1378634E-029  0.1802992E+04  0.7818608E-02  0.8704710E-01
          4   -1    0    0  501    0  0.00000000000E+00  0.00000000000E+00  0.13542415849E+04  0.13542421804E+04  0.12700000000E+01 0.  1.
         -4   -1    0    0    0  501 -0.00000000000E+00 -0.00000000000E+00 -0.60010948015E+03  0.60011082399E+03  0.12700000000E+01 0. -1.
     200001    2    1    2    0    0  0.12286137417E+02 -0.24591261534E+03  0.92801193379E+03  0.11922124934E+04  0.70678180270E+03 0.  0.
    5000001    2    3    3    0    0 -0.52919860901E+02  0.20500350161E+02  0.11697275463E+03  0.20074275582E+03  0.15295179848E+03 0.  0.
        -13    1    4    4    0    0  0.34694132671E+02 -0.29066464183E+02  0.75061520155E+02  0.87651498299E+02  0.10566000000E+00 0. -1.
     200003    1    4    4    0    0 -0.87613993572E+02  0.49566814344E+02  0.41911234470E+02  0.11309125753E+03  0.30000000000E+02 0. -1.
     200000    1    3    3    0    0  0.65205998318E+02 -0.26641296550E+03  0.81103917916E+03  0.99146973758E+03  0.50000000000E+03 0.  1.
    -200001    1    1    2    0    0 -0.12286137417E+02  0.24591261534E+03 -0.17387982902E+03  0.76214051099E+03  0.70000000000E+03 0. -1.
<mgrwt>
<rscale>  0 0.18029921E+04</rscale>
<asrwt>0</asrwt>
<pdfrwt beam="1">  1        4 0.19346322E+00 0.18029921E+04</pdfrwt>
<pdfrwt beam="2">  1       -4 0.85730065E-01 0.18029921E+04</pdfrwt>
<totfact> 0.32768040E-01</totfact>
</mgrwt>
</event>
<event>
 8    1  0.1378634E-029  0.1479372E+04  0.7818608E-02  0.8898288E-01
         -4   -1    0    0    0  501 -0.00000000000E+00  0.00000000000E+00  0.20640380157E+04  0.20640384064E+04  0.12700000000E+01 0. -1.
          4   -1    0    0  501    0  0.00000000000E+00 -0.00000000000E+00 -0.26507800575E+03  0.26508104804E+03  0.12700000000E+01 0.  1.
     200001    2    1    2    0    0  0.10851163207E+03 -0.96981030777E+02  0.59008838441E+03  0.92464421378E+03  0.69683751767E+03 0.  0.
    5000001    2    3    3    0    0  0.12393693142E+03 -0.83734599973E+02  0.74882252186E+02  0.20641669658E+03  0.12094897573E+03 0.  0.
        -13    1    4    4    0    0  0.57136249924E+02 -0.34149524346E+02 -0.26711379529E+02  0.71723427336E+02  0.10566000000E+00 0. -1.
     200003    1    4    4    0    0  0.66800681496E+02 -0.49585075627E+02  0.10159363172E+03  0.13469326924E+03  0.30000000000E+02 0. -1.
     200000    1    3    3    0    0 -0.15425299349E+02 -0.13246430804E+02  0.51520613222E+03  0.71822751721E+03  0.50000000000E+03 0.  1.
    -200001    1    1    2    0    0 -0.10851163207E+03  0.96981030777E+02  0.12088716255E+04  0.14044752407E+04  0.70000000000E+03 0. -1.
<mgrwt>
<rscale>  0 0.14793716E+04</rscale>
<asrwt>0</asrwt>
<pdfrwt beam="1">  1        4 0.37868535E-01 0.14793716E+04</pdfrwt>
<pdfrwt beam="2">  1       -4 0.29486280E+00 0.14793716E+04</pdfrwt>
<totfact> 0.44311963E-01</totfact>
</mgrwt>
</event>
<event>
 8    1  0.1378634E-029  0.1517993E+04  0.7818608E-02  0.8872575E-01
         -4   -1    0    0    0  501 -0.00000000000E+00  0.00000000000E+00  0.77554464433E+03  0.77554568418E+03  0.12700000000E+01 0. -1.
          4   -1    0    0  501    0  0.00000000000E+00 -0.00000000000E+00 -0.74279959681E+03  0.74280068250E+03  0.12700000000E+01 0.  1.
     200001    2    1    2    0    0 -0.98699192609E+02  0.20532818763E+03  0.20107072283E+03  0.76320748659E+03  0.70011073178E+03 0.  0.
    5000001    2    3    3    0    0  0.10446675194E+03  0.74424266352E+02  0.27809211067E+02  0.18145858105E+03  0.12530598842E+03 0.  0.
        -13    1    4    4    0    0  0.16092770195E+02 -0.13497649818E+02 -0.33339598676E+02  0.39404362792E+02  0.10566000000E+00 0. -1.
     200003    1    4    4    0    0  0.88373981747E+02  0.87921916170E+02  0.61148809742E+02  0.14205421826E+03  0.30000000000E+02 0. -1.
     200000    1    3    3    0    0 -0.20316594455E+03  0.13090392128E+03  0.17326151176E+03  0.58174890553E+03  0.50000000000E+03 0. -1.
    -200001    1    1    2    0    0  0.98699192609E+02 -0.20532818763E+03 -0.16832567531E+03  0.75513888009E+03  0.70000000000E+03 0.  1.
<mgrwt>
<rscale>  0 0.15179932E+04</rscale>
<asrwt>0</asrwt>
<pdfrwt beam="1">  1        4 0.10611438E+00 0.15179932E+04</pdfrwt>
<pdfrwt beam="2">  1       -4 0.11079224E+00 0.15179932E+04</pdfrwt>
<totfact> 0.89548656E-01</totfact>
</mgrwt>
</event>
<event>
 8    1  0.1378634E-029  0.2647329E+04  0.7818608E-02  0.8352300E-01
         -4   -1    0    0    0  501 -0.00000000000E+00  0.00000000000E+00  0.20313363360E+04  0.20313367331E+04  0.12700000000E+01 0. -1.
          4   -1    0    0  501    0  0.00000000000E+00 -0.00000000000E+00 -0.86252852683E+03  0.86252946181E+03  0.12700000000E+01 0.  1.
     200001    2    1    2    0    0  0.44228741374E+03  0.85842950186E+03 -0.43104183205E+02  0.11934985748E+04  0.70004393535E+03 0.  0.
    5000001    2    3    3    0    0  0.20985021629E+03  0.20920489854E+03  0.34372695317E+02  0.33820780376E+03  0.15937136973E+03 0.  0.
        -13    1    4    4    0    0  0.15824592462E+03  0.22447107999E+03  0.32584401350E+02  0.27656968884E+03  0.10566000000E+00 0. -1.
     200003    1    4    4    0    0  0.51604291672E+02 -0.15266181453E+02  0.17882939668E+01  0.61638114916E+02  0.30000000000E+02 0. -1.
     200000    1    3    3    0    0  0.23243719745E+03  0.64922460332E+03 -0.77476878522E+02  0.85529077104E+03  0.50000000000E+03 0.  1.
    -200001    1    1    2    0    0 -0.44228741374E+03 -0.85842950186E+03  0.12119119924E+04  0.17003676201E+04  0.70000000000E+03 0. -1.
<mgrwt>
<rscale>  0 0.26473288E+04</rscale>
<asrwt>0</asrwt>
<pdfrwt beam="1">  1        4 0.12321845E+00 0.26473288E+04</pdfrwt>
<pdfrwt beam="2">  1       -4 0.29019100E+00 0.26473288E+04</pdfrwt>
<totfact> 0.31247593E-02</totfact>
</mgrwt>
</event>
<event>
 8    1  0.1378634E-029  0.2052620E+04  0.7818608E-02  0.8582407E-01
          4   -1    0    0  501    0  0.00000000000E+00  0.00000000000E+00  0.13323459243E+04  0.13323465296E+04  0.12700000000E+01 0.  1.
         -4   -1    0    0    0  501 -0.00000000000E+00 -0.00000000000E+00 -0.79056831063E+03  0.79056933072E+03  0.12700000000E+01 0. -1.
     200001    2    1    2    0    0 -0.22430238151E+03 -0.32731257390E+03  0.92961431687E+03  0.12296844303E+04  0.70035415363E+03 0.  0.
    5000001    2    3    3    0    0  0.45289897488E+01 -0.85497510794E+02  0.13484211386E+03  0.23344089784E+03  0.17024077365E+03 0.  0.
        -13    1    4    4    0    0  0.67764167712E+02 -0.25796516163E+02  0.28640548100E+01  0.72564844421E+02  0.10566000000E+00 0. -1.
     200003    1    4    4    0    0 -0.63235177964E+02 -0.59700994631E+02  0.13197805905E+03  0.16087605342E+03  0.30000000000E+02 0. -1.
     200000    1    3    3    0    0 -0.22883137126E+03 -0.24181506310E+03  0.79477220301E+03  0.99624353242E+03  0.50000000000E+03 0.  1.
    -200001    1    1    2    0    0  0.22430238151E+03  0.32731257390E+03 -0.38783670316E+03  0.89323143009E+03  0.70000000000E+03 0. -1.
<mgrwt>
<rscale>  0 0.20526200E+04</rscale>
<asrwt>0</asrwt>
<pdfrwt beam="1">  1        4 0.19033525E+00 0.20526200E+04</pdfrwt>
<pdfrwt beam="2">  1       -4 0.11293845E+00 0.20526200E+04</pdfrwt>
<totfact> 0.17517252E-01</totfact>
</mgrwt>
</event>
<event>
 8    1  0.1378634E-029  0.1455250E+04  0.7818608E-02  0.8914769E-01
          4   -1    0    0  501    0  0.00000000000E+00  0.00000000000E+00  0.62997561160E+03  0.62997689173E+03  0.12700000000E+01 0.  1.
         -4   -1    0    0    0  501 -0.00000000000E+00 -0.00000000000E+00 -0.84040793186E+03  0.84040889145E+03  0.12700000000E+01 0. -1.
     200001    2    1    2    0    0  0.13535111482E+03  0.13910611141E+03 -0.55989245133E+02  0.72773977197E+03  0.69914229283E+03 0.  0.
    5000001    2    3    3    0    0  0.13763671984E+03  0.62536262303E+02 -0.50327566045E+02  0.22187395933E+03  0.15440381853E+03 0.  0.
        -13    1    4    4    0    0  0.97951691261E+02  0.19409109792E+02 -0.98523836632E+02  0.14027902521E+03  0.10566000000E+00 0. -1.
     200003    1    4    4    0    0  0.39685028575E+02  0.43127152511E+02  0.48196270587E+02  0.81594934127E+02  0.30000000000E+02 0. -1.
     200000    1    3    3    0    0 -0.22856050164E+01  0.76569849108E+02 -0.56616790876E+01  0.50586581263E+03  0.50000000000E+03 0.  1.
    -200001    1    1    2    0    0 -0.13535111482E+03 -0.13910611141E+03 -0.15444307512E+03  0.74264601121E+03  0.70000000000E+03 0. -1.
<mgrwt>
<rscale>  0 0.14552500E+04</rscale>
<asrwt>0</asrwt>
<pdfrwt beam="1">  1        4 0.89996676E-01 0.14552500E+04</pdfrwt>
<pdfrwt beam="2">  1       -4 0.12005844E+00 0.14552500E+04</pdfrwt>
<totfact> 0.10908844E+00</totfact>
</mgrwt>
</event>
<event>
 8    1  0.1378634E-029  0.1585688E+04  0.7818608E-02  0.8829389E-01
         -4   -1    0    0    0  501 -0.00000000000E+00  0.00000000000E+00  0.47254139449E+03  0.47254310111E+03  0.12700000000E+01 0. -1.
          4   -1    0    0  501    0  0.00000000000E+00 -0.00000000000E+00 -0.13302533905E+04  0.13302539968E+04  0.12700000000E+01 0.  1.
     200001    2    1    2    0    0 -0.22881821134E+03 -0.89322051165E+02 -0.73172429499E+03  0.10503284251E+04  0.71234342425E+03 0.  0.
    5000001    2    3    3    0    0 -0.29763921468E+02 -0.14941283554E+03 -0.28223099389E+03  0.34656870731E+03  0.13132192707E+03 0.  0.
        -13    1    4    4    0    0 -0.64485908063E+02 -0.35278232440E+02 -0.14295735522E+03  0.16074763637E+03  0.10566000000E+00 0. -1.
     200003    1    4    4    0    0  0.34721986595E+02 -0.11413460310E+03 -0.13927363868E+03  0.18582107095E+03  0.30000000000E+02 0. -1.
     200000    1    3    3    0    0 -0.19905428987E+03  0.60090784372E+02 -0.44949330110E+03  0.70375971781E+03  0.50000000000E+03 0.  1.
    -200001    1    1    2    0    0  0.22881821134E+03  0.89322051165E+02 -0.12598770106E+03  0.75246867276E+03  0.70000000000E+03 0. -1.
<mgrwt>
<rscale>  0 0.15856883E+04</rscale>
<asrwt>0</asrwt>
<pdfrwt beam="1">  1        4 0.19003636E+00 0.15856883E+04</pdfrwt>
<pdfrwt beam="2">  1       -4 0.67506079E-01 0.15856883E+04</pdfrwt>
<totfact> 0.60118080E-01</totfact>
</mgrwt>
</event>
<event>
 8    1  0.1378634E-029  0.1477493E+04  0.7818608E-02  0.8899559E-01
          4   -1    0    0  501    0  0.00000000000E+00  0.00000000000E+00  0.11808257177E+04  0.11808264007E+04  0.12700000000E+01 0.  1.
         -4   -1    0    0    0  501 -0.00000000000E+00 -0.00000000000E+00 -0.46217204368E+03  0.46217378859E+03  0.12700000000E+01 0. -1.
     200001    2    1    2    0    0  0.19810381318E+03 -0.12806120669E+03  0.33839413456E+03  0.81219208215E+03  0.69964319089E+03 0.  0.
    5000001    2    3    3    0    0  0.14544929696E+03 -0.28241283174E+02  0.10423047177E+03  0.24865935357E+03  0.17033618175E+03 0.  0.
        -13    1    4    4    0    0  0.17326343648E+03 -0.22435779558E+02  0.52450033019E+02  0.18241326639E+03  0.10566000000E+00 0. -1.
     200003    1    4    4    0    0 -0.27814139529E+02 -0.58055036159E+01  0.51780438753E+02  0.66246087186E+02  0.30000000000E+02 0. -1.
     200000    1    3    3    0    0  0.52654516224E+02 -0.99819923514E+02  0.23416366279E+03  0.56353272858E+03  0.50000000000E+03 0.  1.
    -200001    1    1    2    0    0 -0.19810381318E+03  0.12806120669E+03  0.38025953946E+03  0.83080810709E+03  0.70000000000E+03 0. -1.
<mgrwt>
<rscale>  0 0.14774933E+04</rscale>
<asrwt>0</asrwt>
<pdfrwt beam="1">  1        4 0.16868956E+00 0.14774933E+04</pdfrwt>
<pdfrwt beam="2">  1       -4 0.66024751E-01 0.14774933E+04</pdfrwt>
<totfact> 0.89563021E-01</totfact>
</mgrwt>
</event>
<event>
 8    1  0.1378634E-029  0.1526624E+04  0.7818608E-02  0.8866939E-01
          4   -1    0    0  501    0  0.00000000000E+00  0.00000000000E+00  0.17585116099E+04  0.17585120685E+04  0.12700000000E+01 0. -1.
         -4   -1    0    0    0  501 -0.00000000000E+00 -0.00000000000E+00 -0.33132705329E+03  0.33132948728E+03  0.12700000000E+01 0.  1.
     200001    2    1    2    0    0  0.90553401887E+02 -0.23536537995E+03  0.94760277034E+03  0.12046322752E+04  0.69970788720E+03 0.  0.
    5000001    2    3    3    0    0  0.28177876970E+02 -0.13364235756E+03  0.38008445993E+03  0.43891998455E+03  0.17184959608E+03 0.  0.
        -13    1    4    4    0    0  0.31914617854E+02 -0.97134852425E+02  0.66938133134E+02  0.12220657601E+03  0.10566000000E+00 0. -1.
     200003    1    4    4    0    0 -0.37367408836E+01 -0.36507505136E+02  0.31314632679E+03  0.31671340854E+03  0.30000000000E+02 0. -1.
     200000    1    3    3    0    0  0.62375524917E+02 -0.10172302239E+03  0.56751831042E+03  0.76571229065E+03  0.50000000000E+03 0.  1.
    -200001    1    1    2    0    0 -0.90553401887E+02  0.23536537995E+03  0.47958178624E+03  0.88520928055E+03  0.70000000000E+03 0. -1.
<mgrwt>
<rscale>  0 0.15266244E+04</rscale>
<asrwt>0</asrwt>
<pdfrwt beam="1">  1        4 0.25121615E+00 0.15266244E+04</pdfrwt>
<pdfrwt beam="2">  1       -4 0.47332642E-01 0.15266244E+04</pdfrwt>
<totfact> 0.52168992E-01</totfact>
</mgrwt>
</event>
<event>
 8    1  0.1378634E-029  0.1450821E+04  0.7818608E-02  0.8917831E-01
         -4   -1    0    0    0  501 -0.00000000000E+00  0.00000000000E+00  0.72240580631E+03  0.72240692265E+03  0.12700000000E+01 0. -1.
          4   -1    0    0  501    0  0.00000000000E+00 -0.00000000000E+00 -0.72842595073E+03  0.72842705784E+03  0.12700000000E+01 0.  1.
     200001    2    1    2    0    0 -0.16214678380E+03 -0.99384405585E+02  0.11879065880E+02  0.72523821059E+03  0.69975746535E+03 0.  0.
    5000001    2    3    3    0    0 -0.48510326952E+02 -0.79670830999E+02  0.94473638624E+02  0.20550392002E+03  0.15686267757E+03 0.  0.
        -13    1    4    4    0    0  0.52137270382E+02 -0.20226947312E+02  0.55243062059E+02  0.78608087562E+02  0.10566000000E+00 0. -1.
     200003    1    4    4    0    0 -0.10064759733E+03 -0.59443883687E+02  0.39230576564E+02  0.12689583245E+03  0.30000000000E+02 0. -1.
     200000    1    3    3    0    0 -0.11363645685E+03 -0.19713574586E+02 -0.82594572743E+02  0.51973429057E+03  0.50000000000E+03 0.  1.
    -200001    1    1    2    0    0  0.16214678380E+03  0.99384405585E+02 -0.17899210298E+02  0.72559576990E+03  0.70000000000E+03 0. -1.
<mgrwt>
<rscale>  0 0.14508215E+04</rscale>
<asrwt>0</asrwt>
<pdfrwt beam="1">  1        4 0.10406101E+00 0.14508215E+04</pdfrwt>
<pdfrwt beam="2">  1       -4 0.10320099E+00 0.14508215E+04</pdfrwt>
<totfact> 0.11199859E+00</totfact>
</mgrwt>
</event>
<event>
 8    1  0.1378634E-029  0.1451015E+04  0.7818608E-02  0.8917697E-01
         -4   -1    0    0    0  501 -0.00000000000E+00  0.00000000000E+00  0.99440069338E+03  0.99440150437E+03  0.12700000000E+01 0. -1.
          4   -1    0    0  501    0  0.00000000000E+00 -0.00000000000E+00 -0.52932290122E+03  0.52932442477E+03  0.12700000000E+01 0.  1.
     200001    2    1    2    0    0 -0.90828237394E+01 -0.18011315245E+03  0.29867624059E+03  0.78196267733E+03  0.69981060771E+03 0.  0.
    5000001    2    3    3    0    0 -0.61590953941E+02  0.30826489502E+02  0.70874585429E+02  0.19107670662E+03  0.16353404199E+03 0.  0.
        -13    1    4    4    0    0 -0.54602572872E+02 -0.52175310077E+02 -0.32748533975E+01  0.75593913609E+02  0.10566000000E+00 0. -1.
     200003    1    4    4    0    0 -0.69883810686E+01  0.83001799579E+02  0.74149438827E+02  0.11548279301E+03  0.30000000000E+02 0. -1.
     200000    1    3    3    0    0  0.52508130202E+02 -0.21093964196E+03  0.22780165517E+03  0.59088597071E+03  0.50000000000E+03 0.  1.
    -200001    1    1    2    0    0  0.90828237394E+01  0.18011315245E+03  0.16640155156E+03  0.74176325181E+03  0.70000000000E+03 0. -1.
<mgrwt>
<rscale>  0 0.14510146E+04</rscale>
<asrwt>0</asrwt>
<pdfrwt beam="1">  1        4 0.75617726E-01 0.14510146E+04</pdfrwt>
<pdfrwt beam="2">  1       -4 0.14205741E+00 0.14510146E+04</pdfrwt>
<totfact> 0.10568174E+00</totfact>
</mgrwt>
</event>
<event>
 8    1  0.1378634E-029  0.1899222E+04  0.7818608E-02  0.8655244E-01
          4   -1    0    0  501    0  0.00000000000E+00  0.00000000000E+00  0.36309365169E+03  0.36309587274E+03  0.12700000000E+01 0.  1.
         -4   -1    0    0    0  501 -0.00000000000E+00 -0.00000000000E+00 -0.24835397304E+04  0.24835400551E+04  0.12700000000E+01 0. -1.
     200001    2    1    2    0    0  0.16171646095E+03 -0.16824807349E+03 -0.16301894429E+03  0.75475146295E+03  0.69900999038E+03 0.  0.
    5000001    2    3    3    0    0 -0.88188537463E+01 -0.17425982461E+03 -0.35221053602E+02  0.21119766103E+03  0.11366472960E+03 0.  0.
        -13    1    4    4    0    0 -0.43668436445E+01 -0.17441120381E+03 -0.15791954791E+02  0.17517914926E+03  0.10566000000E+00 0. -1.
     200003    1    4    4    0    0 -0.44520101018E+01  0.15137919779E+00 -0.19429098811E+02  0.36018511771E+02  0.30000000000E+02 0.  1.
     200000    1    3    3    0    0  0.17053531469E+03  0.60117511197E+01 -0.12779789069E+03  0.54355380191E+03  0.50000000000E+03 0.  1.
    -200001    1    1    2    0    0 -0.16171646095E+03  0.16824807349E+03 -0.19574271344E+04  0.20918844649E+04  0.70000000000E+03 0. -1.
<mgrwt>
<rscale>  0 0.18992221E+04</rscale>
<asrwt>0</asrwt>
<pdfrwt beam="1">  1        4 0.51870705E-01 0.18992221E+04</pdfrwt>
<pdfrwt beam="2">  1       -4 0.35479156E+00 0.18992221E+04</pdfrwt>
<totfact> 0.93405440E-02</totfact>
</mgrwt>
</event>
<event>
 8    1  0.1378634E-029  0.1955932E+04  0.7818608E-02  0.8627506E-01
         -4   -1    0    0    0  501 -0.00000000000E+00  0.00000000000E+00  0.23803435024E+04  0.23803438412E+04  0.12700000000E+01 0. -1.
          4   -1    0    0  501    0  0.00000000000E+00 -0.00000000000E+00 -0.40179654565E+03  0.40179855276E+03  0.12700000000E+01 0.  1.
     200001    2    1    2    0    0  0.55024793077E+03 -0.40206863787E+03  0.10493957659E+04  0.14339013509E+04  0.70029253572E+03 0.  0.
    5000001    2    3    3    0    0  0.26552905715E+03 -0.13651219380E+03  0.33529378495E+03  0.47916227592E+03  0.16743149403E+03 0.  0.
        -13    1    4    4    0    0  0.24236249280E+03 -0.65597555189E+02  0.19680135761E+03  0.31901943936E+03  0.10566000000E+00 0. -1.
     200003    1    4    4    0    0  0.23166564344E+02 -0.70914638613E+02  0.13849242734E+03  0.16014283656E+03  0.30000000000E+02 0. -1.
     200000    1    3    3    0    0  0.28471887362E+03 -0.26555644407E+03  0.71410198100E+03  0.95473907496E+03  0.50000000000E+03 0.  1.
    -200001    1    1    2    0    0 -0.55024793077E+03  0.40206863787E+03  0.92915119079E+03  0.13482410431E+04  0.70000000000E+03 0. -1.
<mgrwt>
<rscale>  0 0.19559316E+04</rscale>
<asrwt>0</asrwt>
<pdfrwt beam="1">  1        4 0.57399673E-01 0.19559316E+04</pdfrwt>
<pdfrwt beam="2">  1       -4 0.34004925E+00 0.19559316E+04</pdfrwt>
<totfact> 0.93501347E-02</totfact>
</mgrwt>
</event>
<event>
 8    1  0.1378634E-029  0.1566649E+04  0.7818608E-02  0.8841303E-01
          4   -1    0    0  501    0  0.00000000000E+00  0.00000000000E+00  0.15928794548E+04  0.15928799611E+04  0.12700000000E+01 0.  1.
         -4   -1    0    0    0  501 -0.00000000000E+00 -0.00000000000E+00 -0.38521078383E+03  0.38521287736E+03  0.12700000000E+01 0. -1.
     200001    2    1    2    0    0  0.84856218527E+02  0.14796418742E+03  0.98766567177E+03  0.12247700004E+04  0.70390631208E+03 0.  0.
    5000001    2    3    3    0    0  0.12078597155E+02  0.13407255477E+03  0.35177469691E+03  0.41246039718E+03  0.16809758892E+03 0.  0.
        -13    1    4    4    0    0 -0.29300702855E+02 -0.30627125863E+02  0.81359449601E+02  0.91738341111E+02  0.10566000000E+00 0. -1.
     200003    1    4    4    0    0  0.41379300010E+02  0.16469968064E+03  0.27041524731E+03  0.32072205607E+03  0.30000000000E+02 0. -1.
     200000    1    3    3    0    0  0.72777621373E+02  0.13891632644E+02  0.63589097486E+03  0.81230960325E+03  0.50000000000E+03 0.  1.
    -200001    1    1    2    0    0 -0.84856218527E+02 -0.14796418742E+03  0.22000299917E+03  0.75332283798E+03  0.70000000000E+03 0. -1.
<mgrwt>
<rscale>  0 0.15666485E+04</rscale>
<asrwt>0</asrwt>
<pdfrwt beam="1">  1        4 0.22755439E+00 0.15666485E+04</pdfrwt>
<pdfrwt beam="2">  1       -4 0.55030299E-01 0.15666485E+04</pdfrwt>
<totfact> 0.53323728E-01</totfact>
</mgrwt>
</event>
<event>
 8    1  0.1378634E-029  0.1595049E+04  0.7818608E-02  0.8823595E-01
         -4   -1    0    0    0  501 -0.00000000000E+00  0.00000000000E+00  0.26414269667E+03  0.26414574974E+03  0.12700000000E+01 0. -1.
          4   -1    0    0  501    0  0.00000000000E+00 -0.00000000000E+00 -0.24079437112E+04  0.24079440461E+04  0.12700000000E+01 0.  1.
     200001    2    1    2    0    0  0.29036845688E+02 -0.26228135244E+03 -0.63678552681E+03  0.98961235871E+03  0.71007194502E+03 0.  0.
    5000001    2    3    3    0    0  0.33619992530E+02 -0.26269189208E+02 -0.15300049928E+03  0.25492147181E+03  0.19938763706E+03 0.  0.
        -13    1    4    4    0    0 -0.62393836082E+02 -0.65407477430E+02 -0.99576460876E+02  0.13448647370E+03  0.10566000000E+00 0. -1.
     200003    1    4    4    0    0  0.96013828612E+02  0.39138288222E+02 -0.53424038408E+02  0.12043499811E+03  0.30000000000E+02 0. -1.
     200000    1    3    3    0    0 -0.45831468418E+01 -0.23601216323E+03 -0.48378502753E+03  0.73469088690E+03  0.50000000000E+03 0. -1.
    -200001    1    1    2    0    0 -0.29036845688E+02  0.26228135244E+03 -0.15070154877E+04  0.16824774371E+04  0.70000000000E+03 0.  1.
<mgrwt>
<rscale>  0 0.15950489E+04</rscale>
<asrwt>0</asrwt>
<pdfrwt beam="1">  1        4 0.34399219E+00 0.15950489E+04</pdfrwt>
<pdfrwt beam="2">  1       -4 0.37734914E-01 0.15950489E+04</pdfrwt>
<totfact> 0.21651422E-01</totfact>
</mgrwt>
</event>
<event>
 8    1  0.1378634E-029  0.1538399E+04  0.7818608E-02  0.8859312E-01
          4   -1    0    0  501    0  0.00000000000E+00  0.00000000000E+00  0.17881558436E+03  0.17882009425E+03  0.12700000000E+01 0.  1.
         -4   -1    0    0    0  501 -0.00000000000E+00 -0.00000000000E+00 -0.33087717627E+04  0.33087720065E+04  0.12700000000E+01 0. -1.
     200001    2    1    2    0    0 -0.22386753755E+03 -0.12980628923E+03 -0.19913772089E+04  0.21262220493E+04  0.69876367094E+03 0.  0.
    5000001    2    3    3    0    0 -0.12807098474E+02 -0.11833625694E+03 -0.40546790547E+03  0.44998030384E+03  0.15463039807E+03 0.  0.
        -13    1    4    4    0    0 -0.31176522671E+02 -0.13353187129E+03 -0.21008587526E+03  0.25087610960E+03  0.10566000000E+00 0. -1.
     200003    1    4    4    0    0  0.18369424197E+02  0.15195614353E+02 -0.19538203020E+03  0.19910419425E+03  0.30000000000E+02 0. -1.
     200000    1    3    3    0    0 -0.21106043907E+03 -0.11470032292E+02 -0.15859093034E+04  0.16762417455E+04  0.50000000000E+03 0. -1.
    -200001    1    1    2    0    0  0.22386753755E+03  0.12980628923E+03 -0.11385789695E+04  0.13613700514E+04  0.70000000000E+03 0. -1.
<mgrwt>
<rscale>  0 0.15383995E+04</rscale>
<asrwt>0</asrwt>
<pdfrwt beam="1">  1        4 0.25545425E-01 0.15383995E+04</pdfrwt>
<pdfrwt beam="2">  1       -4 0.47268198E+00 0.15383995E+04</pdfrwt>
<totfact> 0.57550291E-02</totfact>
</mgrwt>
</event>
<event>
 8    1  0.1378634E-029  0.1574851E+04  0.7818608E-02  0.8836149E-01
          4   -1    0    0  501    0  0.00000000000E+00  0.00000000000E+00  0.24066042620E+04  0.24066045971E+04  0.12700000000E+01 0.  1.
         -4   -1    0    0    0  501 -0.00000000000E+00 -0.00000000000E+00 -0.25763861512E+03  0.25764174527E+03  0.12700000000E+01 0. -1.
     200001    2    1    2    0    0  0.16977589280E+03 -0.16762511643E+03  0.61663237178E+03  0.96278599919E+03  0.69985667452E+03 0.  0.
    5000001    2    3    3    0    0  0.10193962625E+03 -0.83860623345E+02  0.52474480677E+02  0.20127935086E+03  0.14260264518E+03 0.  0.
        -13    1    4    4    0    0  0.55981944690E+02 -0.54128255064E+02 -0.41672492001E+02  0.88320178222E+02  0.10566000000E+00 0. -1.
     200003    1    4    4    0    0  0.45957681563E+02 -0.29732368281E+02  0.94146972678E+02  0.11295917264E+03  0.30000000000E+02 0. -1.
     200000    1    3    3    0    0  0.67836266546E+02 -0.83764493082E+02  0.56415789110E+03  0.76150664833E+03  0.50000000000E+03 0. -1.
    -200001    1    1    2    0    0 -0.16977589280E+03  0.16762511643E+03  0.15323332751E+04  0.17014603432E+04  0.70000000000E+03 0.  1.
<mgrwt>
<rscale>  0 0.15748509E+04</rscale>
<asrwt>0</asrwt>
<pdfrwt beam="1">  1        4 0.34380088E+00 0.15748509E+04</pdfrwt>
<pdfrwt beam="2">  1       -4 0.36805761E-01 0.15748509E+04</pdfrwt>
<totfact> 0.22861241E-01</totfact>
</mgrwt>
</event>
<event>
 8    1  0.1378634E-029  0.1608161E+04  0.7818608E-02  0.8815550E-01
          4   -1    0    0  501    0  0.00000000000E+00  0.00000000000E+00  0.20461440881E+04  0.20461444823E+04  0.12700000000E+01 0.  1.
         -4   -1    0    0    0  501 -0.00000000000E+00 -0.00000000000E+00 -0.31598084987E+03  0.31598340207E+03  0.12700000000E+01 0. -1.
     200001    2    1    2    0    0  0.12667223390E+03  0.24386838941E+03  0.44831047699E+03  0.87597037325E+03  0.70058844184E+03 0.  0.
    5000001    2    3    3    0    0  0.90572625611E+02  0.12945896183E+03  0.11013872156E+03  0.26054138871E+03  0.17546581985E+03 0.  0.
        -13    1    4    4    0    0  0.78430556284E+02  0.12139511073E+03 -0.97408146547E+00  0.14453056793E+03  0.10566000000E+00 0. -1.
     200003    1    4    4    0    0  0.12142069326E+02  0.80638511007E+01  0.11111280302E+03  0.11601082078E+03  0.30000000000E+02 0.  1.
     200000    1    3    3    0    0  0.36099608290E+02  0.11440942758E+03  0.33817175544E+03  0.61542898454E+03  0.50000000000E+03 0. -1.
    -200001    1    1    2    0    0 -0.12667223390E+03 -0.24386838941E+03  0.12818527613E+04  0.14861575111E+04  0.70000000000E+03 0.  1.
<mgrwt>
<rscale>  0 0.16081615E+04</rscale>
<asrwt>0</asrwt>
<pdfrwt beam="1">  1        4 0.29230650E+00 0.16081615E+04</pdfrwt>
<pdfrwt beam="2">  1       -4 0.45140333E-01 0.16081615E+04</pdfrwt>
<totfact> 0.31858729E-01</totfact>
</mgrwt>
</event>
<event>
 8    1  0.1378634E-029  0.1422232E+04  0.7818608E-02  0.8937881E-01
         -4   -1    0    0    0  501 -0.00000000000E+00  0.00000000000E+00  0.16116758126E+04  0.16116763130E+04  0.12700000000E+01 0. -1.
          4   -1    0    0  501    0  0.00000000000E+00 -0.00000000000E+00 -0.31376231913E+03  0.31376488938E+03  0.12700000000E+01 0.  1.
     200001    2    1    2    0    0 -0.13641304116E+02 -0.84174318211E+02  0.77316322603E+03  0.10464450453E+04  0.69999604115E+03 0.  0.
    5000001    2    3    3    0    0 -0.16645478916E+02 -0.42079766731E+02  0.33134887152E+03  0.37787874324E+03  0.17593320096E+03 0.  0.
        -13    1    4    4    0    0  0.22465750900E+02  0.65415275799E+01  0.30162520497E+03  0.30253144793E+03  0.10566000000E+00 0. -1.
     200003    1    4    4    0    0 -0.39111229815E+02 -0.48621294311E+02  0.29723666550E+02  0.75347295315E+02  0.30000000000E+02 0. -1.
     200000    1    3    3    0    0  0.30041747996E+01 -0.42094551480E+02  0.44181435451E+03  0.66856630201E+03  0.50000000000E+03 0. -1.
    -200001    1    1    2    0    0  0.13641304116E+02  0.84174318211E+02  0.52475026741E+03  0.87899615709E+03  0.70000000000E+03 0.  1.
<mgrwt>
<rscale>  0 0.14222322E+04</rscale>
<asrwt>0</asrwt>
<pdfrwt beam="1">  1        4 0.44823410E-01 0.14222322E+04</pdfrwt>
<pdfrwt beam="2">  1       -4 0.23023961E+00 0.14222322E+04</pdfrwt>
<totfact> 0.79481789E-01</totfact>
</mgrwt>
</event>
<event>
 8    1  0.1378634E-029  0.2337475E+04  0.7818608E-02  0.8463290E-01
          4   -1    0    0  501    0  0.00000000000E+00  0.00000000000E+00  0.88139333573E+03  0.88139425070E+03  0.12700000000E+01 0.  1.
         -4   -1    0    0    0  501 -0.00000000000E+00 -0.00000000000E+00 -0.15497567621E+04  0.15497572825E+04  0.12700000000E+01 0. -1.
     200001    2    1    2    0    0 -0.25482838665E+03 -0.89587514584E+03 -0.42920358595E+03  0.12417284744E+04  0.70010292262E+03 0.  0.
    5000001    2    3    3    0    0 -0.72959128815E+02 -0.27177426704E+03 -0.19058853790E+03  0.38761169369E+03  0.18637206766E+03 0.  0.
        -13    1    4    4    0    0 -0.83133580172E+02 -0.27208243271E+03 -0.20709202733E+03  0.35189083718E+03  0.10566000000E+00 0. -1.
     200003    1    4    4    0    0  0.10174451357E+02  0.30816566672E+00  0.16503489434E+02  0.35720856513E+02  0.30000000000E+02 0. -1.
     200000    1    3    3    0    0 -0.18186925783E+03 -0.62410087880E+03 -0.23861504806E+03  0.85411678067E+03  0.50000000000E+03 0.  1.
    -200001    1    1    2    0    0  0.25482838665E+03  0.89587514584E+03 -0.23915984042E+03  0.11894230588E+04  0.70000000000E+03 0. -1.
<mgrwt>
<rscale>  0 0.23374747E+04</rscale>
<asrwt>0</asrwt>
<pdfrwt beam="1">  1        4 0.12591344E+00 0.23374747E+04</pdfrwt>
<pdfrwt beam="2">  1       -4 0.22139393E+00 0.23374747E+04</pdfrwt>
<totfact> 0.81690302E-02</totfact>
</mgrwt>
</event>
<event>
 8    1  0.1378634E-029  0.1444894E+04  0.7818608E-02  0.8921948E-01
         -4   -1    0    0    0  501 -0.00000000000E+00  0.00000000000E+00  0.44214472767E+03  0.44214655162E+03  0.12700000000E+01 0.  1.
          4   -1    0    0  501    0  0.00000000000E+00 -0.00000000000E+00 -0.11804447467E+04  0.11804454299E+04  0.12700000000E+01 0. -1.
     200001    2    1    2    0    0 -0.32610323873E+02 -0.16011307679E+03 -0.28564300011E+03  0.77312273113E+03  0.69959073985E+03 0.  0.
    5000001    2    3    3    0    0 -0.73365884698E+02  0.57104761544E+02  0.34116012951E+02  0.13980572404E+03  0.98682477197E+02 0.  0.
        -13    1    4    4    0    0 -0.60302333574E+02 -0.45998827768E+01  0.35157914820E+02  0.69954417263E+02  0.10566000000E+00 0. -1.
     200003    1    4    4    0    0 -0.13063551124E+02  0.61704644321E+02 -0.10419018687E+01  0.69851306775E+02  0.30000000000E+02 0. -1.
     200000    1    3    3    0    0  0.40755560825E+02 -0.21721783834E+03 -0.31975901307E+03  0.63331700709E+03  0.50000000000E+03 0.  1.
    -200001    1    1    2    0    0  0.32610323873E+02  0.16011307679E+03 -0.45265701895E+03  0.84946925041E+03  0.70000000000E+03 0. -1.
<mgrwt>
<rscale>  0 0.14448937E+04</rscale>
<asrwt>0</asrwt>
<pdfrwt beam="1">  1        4 0.16863514E+00 0.14448937E+04</pdfrwt>
<pdfrwt beam="2">  1       -4 0.63163712E-01 0.14448937E+04</pdfrwt>
<totfact> 0.98946837E-01</totfact>
</mgrwt>
</event>
<event>
 8    1  0.1378634E-029  0.1453064E+04  0.7818608E-02  0.8916279E-01
          4   -1    0    0  501    0  0.00000000000E+00  0.00000000000E+00  0.23984617153E+04  0.23984620516E+04  0.12700000000E+01 0.  1.
         -4   -1    0    0    0  501 -0.00000000000E+00 -0.00000000000E+00 -0.22007589942E+03  0.22007956381E+03  0.12700000000E+01 0. -1.
     200001    2    1    2    0    0  0.16456882475E+03 -0.86951199194E+02  0.10917315538E+04  0.13126086560E+04  0.70457099644E+03 0.  0.
    5000001    2    3    3    0    0  0.78841729602E+02 -0.89995474161E+02  0.29385288385E+03  0.36710943628E+03  0.18467435438E+03 0.  0.
        -13    1    4    4    0    0 -0.21925820613E+01  0.49818722559E+02  0.36695102448E+02  0.61913280007E+02  0.10566000000E+00 0. -1.
     200003    1    4    4    0    0  0.81034311663E+02 -0.13981419672E+03  0.25715778140E+03  0.30519615628E+03  0.30000000000E+02 0. -1.
     200000    1    3    3    0    0  0.85727095151E+02  0.30442749667E+01  0.79787866994E+03  0.94549921967E+03  0.50000000000E+03 0. -1.
    -200001    1    1    2    0    0 -0.16456882475E+03  0.86951199194E+02  0.10866542621E+04  0.13059329594E+04  0.70000000000E+03 0.  1.
<mgrwt>
<rscale>  0 0.14530642E+04</rscale>
<asrwt>0</asrwt>
<pdfrwt beam="1">  1        4 0.34263768E+00 0.14530642E+04</pdfrwt>
<pdfrwt beam="2">  1       -4 0.31439700E-01 0.14530642E+04</pdfrwt>
<totfact> 0.32067903E-01</totfact>
</mgrwt>
</event>
<event>
 8    1  0.1378634E-029  0.1507153E+04  0.7818608E-02  0.8879710E-01
          4   -1    0    0  501    0  0.00000000000E+00  0.00000000000E+00  0.94482702966E+03  0.94482788320E+03  0.12700000000E+01 0.  1.
         -4   -1    0    0    0  501 -0.00000000000E+00 -0.00000000000E+00 -0.60103692017E+03  0.60103826193E+03  0.12700000000E+01 0. -1.
     200001    2    1    2    0    0  0.15460928887E+03 -0.21933531139E+03  0.94806410656E+02  0.75592634153E+03  0.70030305390E+03 0.  0.
    5000001    2    3    3    0    0 -0.26882578434E+02 -0.75386101451E+02  0.24974697617E+02  0.20046514479E+03  0.18209009155E+03 0.  0.
        -13    1    4    4    0    0  0.43553965033E+02  0.26909439996E+02 -0.32203833625E+02  0.60482757007E+02  0.10566000000E+00 0. -1.
     200003    1    4    4    0    0 -0.70436543467E+02 -0.10229554145E+03  0.57178531242E+02  0.13998238779E+03  0.30000000000E+02 0. -1.
     200000    1    3    3    0    0  0.18149186730E+03 -0.14394920994E+03  0.69831713039E+02  0.55546119674E+03  0.50000000000E+03 0. -1.
    -200001    1    1    2    0    0 -0.15460928887E+03  0.21933531139E+03  0.24898369884E+03  0.78993980360E+03  0.70000000000E+03 0.  1.
<mgrwt>
<rscale>  0 0.15071531E+04</rscale>
<asrwt>0</asrwt>
<pdfrwt beam="1">  1        4 0.13497545E+00 0.15071531E+04</pdfrwt>
<pdfrwt beam="2">  1       -4 0.85862574E-01 0.15071531E+04</pdfrwt>
<totfact> 0.90089689E-01</totfact>
</mgrwt>
</event>
<event>
 8    1  0.1378634E-029  0.1683943E+04  0.7818608E-02  0.8770575E-01
         -4   -1    0    0    0  501 -0.00000000000E+00  0.00000000000E+00  0.51167097222E+03  0.51167254832E+03  0.12700000000E+01 0. -1.
          4   -1    0    0  501    0  0.00000000000E+00 -0.00000000000E+00 -0.13854886802E+04  0.13854892622E+04  0.12700000000E+01 0.  1.
     200001    2    1    2    0    0 -0.15988288574E+02 -0.43517798456E+03 -0.24283912342E+03  0.85900504121E+03  0.69948789649E+03 0.  0.
    5000001    2    3    3    0    0  0.28842888195E+02 -0.37207167911E+02 -0.22860435853E+02  0.18167112924E+03  0.17396986558E+03 0.  0.
        -13    1    4    4    0    0  0.44729911468E+02  0.39674278576E+02  0.44034714594E+02  0.74255508980E+02  0.10566000000E+00 0. -1.
     200003    1    4    4    0    0 -0.15887023273E+02 -0.76881446487E+02 -0.66895150448E+02  0.10741562026E+03  0.30000000000E+02 0. -1.
     200000    1    3    3    0    0 -0.44831176769E+02 -0.39797081665E+03 -0.21997868757E+03  0.67733391197E+03  0.50000000000E+03 0. -1.
    -200001    1    1    2    0    0  0.15988288574E+02  0.43517798456E+03 -0.63097858454E+03  0.10381567694E+04  0.70000000000E+03 0.  1.
<mgrwt>
<rscale>  0 0.16839435E+04</rscale>
<asrwt>0</asrwt>
<pdfrwt beam="1">  1        4 0.19792711E+00 0.16839435E+04</pdfrwt>
<pdfrwt beam="2">  1       -4 0.73096008E-01 0.16839435E+04</pdfrwt>
<totfact> 0.44305425E-01</totfact>
</mgrwt>
</event>
<event>
 8    1  0.1378634E-029  0.1994102E+04  0.7818608E-02  0.8609383E-01
          4   -1    0    0  501    0  0.00000000000E+00  0.00000000000E+00  0.16748526093E+04  0.16748530908E+04  0.12700000000E+01 0.  1.
         -4   -1    0    0    0  501 -0.00000000000E+00 -0.00000000000E+00 -0.59355020316E+03  0.59355156185E+03  0.12700000000E+01 0. -1.
     200001    2    1    2    0    0  0.33336096987E+03 -0.26355971367E+03 -0.10658839908E+03  0.82560257889E+03  0.69976086812E+03 0.  0.
    5000001    2    3    3    0    0  0.11771517753E+03 -0.66671945902E+02 -0.10511120575E+03  0.24657746463E+03  0.17734167332E+03 0.  0.
        -13    1    4    4    0    0  0.15677708720E+03 -0.65815666228E+02 -0.61580709324E+02  0.18083957509E+03  0.10566000000E+00 0. -1.
     200003    1    4    4    0    0 -0.39061909674E+02 -0.85627967411E+00 -0.43530496426E+02  0.65737889541E+02  0.30000000000E+02 0. -1.
     200000    1    3    3    0    0  0.21564579234E+03 -0.19688776776E+03 -0.14771933331E+01  0.57902511426E+03  0.50000000000E+03 0. -1.
    -200001    1    1    2    0    0 -0.33336096987E+03  0.26355971367E+03  0.11878908052E+04  0.14428020737E+04  0.70000000000E+03 0.  1.
<mgrwt>
<rscale>  0 0.19941025E+04</rscale>
<asrwt>0</asrwt>
<pdfrwt beam="1">  1        4 0.23926479E+00 0.19941025E+04</pdfrwt>
<pdfrwt beam="2">  1       -4 0.84793017E-01 0.19941025E+04</pdfrwt>
<totfact> 0.16774112E-01</totfact>
</mgrwt>
</event>
<event>
 8    1  0.1378634E-029  0.2018096E+04  0.7818608E-02  0.8598207E-01
          4   -1    0    0  501    0  0.00000000000E+00  0.00000000000E+00  0.15203126410E+04  0.15203131715E+04  0.12700000000E+01 0.  1.
         -4   -1    0    0    0  501 -0.00000000000E+00 -0.00000000000E+00 -0.66971454993E+03  0.66971575410E+03  0.12700000000E+01 0. -1.
     200001    2    1    2    0    0 -0.39426141994E+03 -0.10468032500E+03 -0.22836907807E+03  0.84074385939E+03  0.69878305902E+03 0.  0.
    5000001    2    3    3    0    0 -0.18772839496E+03 -0.20906031042E+02 -0.45410015043E+02  0.26355407995E+03  0.17810017178E+03 0.  0.
        -13    1    4    4    0    0  0.20018789473E+02  0.24361711280E+02 -0.37066777159E+02  0.48664176161E+02  0.10566000000E+00 0. -1.
     200003    1    4    4    0    0 -0.20774718443E+03 -0.45267742323E+02 -0.83432378836E+01  0.21488990379E+03  0.30000000000E+02 0. -1.
     200000    1    3    3    0    0 -0.20653302499E+03 -0.83774293961E+02 -0.18295906303E+03  0.57718977943E+03  0.50000000000E+03 0. -1.
    -200001    1    1    2    0    0  0.39426141994E+03  0.10468032500E+03  0.10789671692E+04  0.13492850662E+04  0.70000000000E+03 0.  1.
<mgrwt>
<rscale>  0 0.20180955E+04</rscale>
<asrwt>0</asrwt>
<pdfrwt beam="1">  1        4 0.21718764E+00 0.20180955E+04</pdfrwt>
<pdfrwt beam="2">  1       -4 0.95673633E-01 0.20180955E+04</pdfrwt>
<totfact> 0.17439358E-01</totfact>
</mgrwt>
</event>
<event>
 8    1  0.1378634E-029  0.1606000E+04  0.7818608E-02  0.8816871E-01
         -4   -1    0    0    0  501 -0.00000000000E+00  0.00000000000E+00  0.25417822051E+03  0.25418139326E+03  0.12700000000E+01 0. -1.
          4   -1    0    0  501    0  0.00000000000E+00 -0.00000000000E+00 -0.25368180651E+04  0.25368183830E+04  0.12700000000E+01 0.  1.
     200001    2    1    2    0    0  0.27051145883E+03  0.57619674134E+02 -0.65303957971E+03  0.99598069572E+03  0.69929991947E+03 0.  0.
    5000001    2    3    3    0    0  0.36798286143E+02  0.11044860019E+03 -0.14979974972E+03  0.24720631782E+03  0.15848656538E+03 0.  0.
        -13    1    4    4    0    0 -0.60126195477E+01  0.40919119331E+02 -0.15464720640E+03  0.16008215245E+03  0.10566000000E+00 0. -1.
     200003    1    4    4    0    0  0.42810905691E+02  0.69529480858E+02  0.48474566833E+01  0.87124165366E+02  0.30000000000E+02 0. -1.
     200000    1    3    3    0    0  0.23371317269E+03 -0.52828926054E+02 -0.50323982999E+03  0.74877437790E+03  0.50000000000E+03 0. -1.
    -200001    1    1    2    0    0 -0.27051145883E+03 -0.57619674134E+02 -0.16296002649E+04  0.17950190806E+04  0.70000000000E+03 0.  1.
<mgrwt>
<rscale>  0 0.16059997E+04</rscale>
<asrwt>0</asrwt>
<pdfrwt beam="1">  1        4 0.36240282E+00 0.16059997E+04</pdfrwt>
<pdfrwt beam="2">  1       -4 0.36311425E-01 0.16059997E+04</pdfrwt>
<totfact> 0.17708498E-01</totfact>
</mgrwt>
</event>
<event>
 8    1  0.1378634E-029  0.1742102E+04  0.7818608E-02  0.8737710E-01
          4   -1    0    0  501    0  0.00000000000E+00  0.00000000000E+00  0.16950658971E+04  0.16950663728E+04  0.12700000000E+01 0. -1.
         -4   -1    0    0    0  501 -0.00000000000E+00 -0.00000000000E+00 -0.44760960058E+03  0.44761140226E+03  0.12700000000E+01 0.  1.
     200001    2    1    2    0    0  0.28826155308E+03 -0.42455006059E+03  0.70402291198E+03  0.11186380687E+04  0.70168753098E+03 0.  0.
    5000001    2    3    3    0    0  0.12912517966E+03 -0.18224795842E+03  0.15887314794E+03  0.32414265691E+03  0.17303223550E+03 0.  0.
        -13    1    4    4    0    0  0.69629384397E+01 -0.15109303749E+03  0.67831278529E+02  0.16576695087E+03  0.10566000000E+00 0. -1.
     200003    1    4    4    0    0  0.12216224122E+03 -0.31154920931E+02  0.91041869412E+02  0.15837570604E+03  0.30000000000E+02 0. -1.
     200000    1    3    3    0    0  0.15913637342E+03 -0.24230210217E+03  0.54514976404E+03  0.79449541175E+03  0.50000000000E+03 0. -1.
    -200001    1    1    2    0    0 -0.28826155308E+03  0.42455006059E+03  0.54343338450E+03  0.10240397064E+04  0.70000000000E+03 0.  1.
<mgrwt>
<rscale>  0 0.17421024E+04</rscale>
<asrwt>0</asrwt>
<pdfrwt beam="1">  1        4 0.24215243E+00 0.17421024E+04</pdfrwt>
<pdfrwt beam="2">  1       -4 0.63944392E-01 0.17421024E+04</pdfrwt>
<totfact> 0.30859889E-01</totfact>
</mgrwt>
</event>
<event>
 8    1  0.1378634E-029  0.1620791E+04  0.7818608E-02  0.8807876E-01
         -4   -1    0    0    0  501 -0.00000000000E+00  0.00000000000E+00  0.35070136528E+03  0.35070366481E+03  0.12700000000E+01 0. -1.
          4   -1    0    0  501    0  0.00000000000E+00 -0.00000000000E+00 -0.18726413821E+04  0.18726418127E+04  0.12700000000E+01 0.  1.
     200001    2    1    2    0    0  0.31801529576E+03 -0.12999484824E+03 -0.45873776832E+03  0.90484958825E+03  0.70020000598E+03 0.  0.
    5000001    2    3    3    0    0  0.81487567656E+02 -0.92960824773E+02 -0.32719035913E+02  0.20570093066E+03  0.16112231049E+03 0.  0.
        -13    1    4    4    0    0  0.93570677946E+02  0.72939059171E+01  0.45378812595E+01  0.93964229178E+02  0.10566000000E+00 0. -1.
     200003    1    4    4    0    0 -0.12083110290E+02 -0.10025473069E+03 -0.37256917173E+02  0.11173670148E+03  0.30000000000E+02 0. -1.
     200000    1    3    3    0    0  0.23652772810E+03 -0.37034023466E+02 -0.42601873240E+03  0.69914865759E+03  0.50000000000E+03 0. -1.
    -200001    1    1    2    0    0 -0.31801529576E+03  0.12999484824E+03 -0.10632022485E+04  0.13184958893E+04  0.70000000000E+03 0.  1.
<mgrwt>
<rscale>  0 0.16207911E+04</rscale>
<asrwt>0</asrwt>
<pdfrwt beam="1">  1        4 0.26752039E+00 0.16207911E+04</pdfrwt>
<pdfrwt beam="2">  1       -4 0.50100391E-01 0.16207911E+04</pdfrwt>
<totfact> 0.36489966E-01</totfact>
</mgrwt>
</event>
<event>
 8    1  0.1378634E-029  0.1519731E+04  0.7818608E-02  0.8871437E-01
          4   -1    0    0  501    0  0.00000000000E+00  0.00000000000E+00  0.34164582117E+03  0.34164818165E+03  0.12700000000E+01 0.  1.
         -4   -1    0    0    0  501 -0.00000000000E+00 -0.00000000000E+00 -0.16900331340E+04  0.16900336112E+04  0.12700000000E+01 0. -1.
     200001    2    1    2    0    0  0.20817122984E+03 -0.21190139076E+03 -0.68665831246E+03  0.10236526612E+04  0.69866134308E+03 0.  0.
    5000001    2    3    3    0    0 -0.75052500737E+01  0.34735403769E+01 -0.16884557516E+03  0.24196683179E+03  0.17312055099E+03 0.  0.
        -13    1    4    4    0    0 -0.12258600561E+02  0.62279134950E+02 -0.31626843639E+01  0.63552951735E+02  0.10566000000E+00 0. -1.
     200003    1    4    4    0    0  0.47533504876E+01 -0.58805594573E+02 -0.16568289079E+03  0.17841388005E+03  0.30000000000E+02 0. -1.
     200000    1    3    3    0    0  0.21567647991E+03 -0.21537493114E+03 -0.51781273730E+03  0.78168582939E+03  0.50000000000E+03 0.  1.
    -200001    1    1    2    0    0 -0.20817122984E+03  0.21190139076E+03 -0.66172900036E+03  0.10080291317E+04  0.70000000000E+03 0. -1.
<mgrwt>
<rscale>  0 0.15197311E+04</rscale>
<asrwt>0</asrwt>
<pdfrwt beam="1">  1        4 0.48806750E-01 0.15197311E+04</pdfrwt>
<pdfrwt beam="2">  1       -4 0.24143350E+00 0.15197311E+04</pdfrwt>
<totfact> 0.56336015E-01</totfact>
</mgrwt>
</event>
<event>
 8    1  0.1378634E-029  0.1451933E+04  0.7818608E-02  0.8917061E-01
         -4   -1    0    0    0  501 -0.00000000000E+00  0.00000000000E+00  0.39121733766E+03  0.39121939904E+03  0.12700000000E+01 0. -1.
          4   -1    0    0  501    0  0.00000000000E+00 -0.00000000000E+00 -0.13471419338E+04  0.13471425325E+04  0.12700000000E+01 0.  1.
     200001    2    1    2    0    0  0.62853122633E+02 -0.14466633809E+03 -0.60446038382E+03  0.93935882953E+03  0.70152960779E+03 0.  0.
    5000001    2    3    3    0    0  0.71195389546E+02 -0.28347453936E+02  0.12166331069E+02  0.13696978315E+03  0.11287311570E+03 0.  0.
        -13    1    4    4    0    0 -0.26580700064E+01 -0.48097057872E+02  0.24302325886E+02  0.53953744260E+02  0.10566000000E+00 0. -1.
     200003    1    4    4    0    0  0.73853459553E+02  0.19749603936E+02 -0.12135994817E+02  0.83016038895E+02  0.30000000000E+02 0. -1.
     200000    1    3    3    0    0 -0.83422669132E+01 -0.11631888415E+03 -0.61662671489E+03  0.80238904638E+03  0.50000000000E+03 0.  1.
    -200001    1    1    2    0    0 -0.62853122633E+02  0.14466633809E+03 -0.35146421234E+03  0.79900310197E+03  0.70000000000E+03 0. -1.
<mgrwt>
<rscale>  0 0.14519333E+04</rscale>
<asrwt>0</asrwt>
<pdfrwt beam="1">  1        4 0.19244904E+00 0.14519333E+04</pdfrwt>
<pdfrwt beam="2">  1       -4 0.55888382E-01 0.14519333E+04</pdfrwt>
<totfact> 0.87917346E-01</totfact>
</mgrwt>
</event>
<event>
 8    1  0.1378634E-029  0.1626202E+04  0.7818608E-02  0.8804611E-01
         -4   -1    0    0    0  501 -0.00000000000E+00  0.00000000000E+00  0.72978502184E+03  0.72978612689E+03  0.12700000000E+01 0. -1.
          4   -1    0    0  501    0  0.00000000000E+00 -0.00000000000E+00 -0.90592605290E+03  0.90592694310E+03  0.12700000000E+01 0.  1.
     200001    2    1    2    0    0  0.37281839553E+03  0.67861347815E+02  0.79120016880E+02  0.79979625525E+03  0.69986809776E+03 0.  0.
    5000001    2    3    3    0    0 -0.11051771467E+02 -0.72241195292E+02  0.45122689562E+02  0.15315814474E+03  0.12680862840E+03 0.  0.
        -13    1    4    4    0    0  0.51846124612E+02 -0.18957114138E+02  0.15871260963E+01  0.55226107477E+02  0.10566000000E+00 0. -1.
     200003    1    4    4    0    0 -0.62897896079E+02 -0.53284081155E+02  0.43535563466E+02  0.97932037260E+02  0.30000000000E+02 0. -1.
     200000    1    3    3    0    0  0.38387016700E+03  0.14010254311E+03  0.33997327318E+02  0.64663811051E+03  0.50000000000E+03 0.  1.
    -200001    1    1    2    0    0 -0.37281839553E+03 -0.67861347815E+02 -0.25526104794E+03  0.83591681474E+03  0.70000000000E+03 0. -1.
<mgrwt>
<rscale>  0 0.16262016E+04</rscale>
<asrwt>0</asrwt>
<pdfrwt beam="1">  1        4 0.12941815E+00 0.16262016E+04</pdfrwt>
<pdfrwt beam="2">  1       -4 0.10425515E+00 0.16262016E+04</pdfrwt>
<totfact> 0.62987273E-01</totfact>
</mgrwt>
</event>
<event>
 8    1  0.1378634E-029  0.1926055E+04  0.7818608E-02  0.8641995E-01
          4   -1    0    0  501    0  0.00000000000E+00  0.00000000000E+00  0.21351549971E+04  0.21351553748E+04  0.12700000000E+01 0.  1.
         -4   -1    0    0    0  501 -0.00000000000E+00 -0.00000000000E+00 -0.43435685050E+03  0.43435870714E+03  0.12700000000E+01 0. -1.
     200001    2    1    2    0    0 -0.79723457927E+02  0.53016886892E+03  0.33397515365E+03  0.94297175130E+03  0.70015816868E+03 0.  0.
    5000001    2    3    3    0    0  0.58393174505E+02  0.17818470635E+03  0.50835850328E+02  0.25512226199E+03  0.16535879921E+03 0.  0.
        -13    1    4    4    0    0  0.21858251617E+02  0.18189167025E+03 -0.32029376351E+01  0.18322836255E+03  0.10566000000E+00 0. -1.
     200003    1    4    4    0    0  0.36534922887E+02 -0.37069638967E+01  0.54038787963E+02  0.71893899436E+02  0.30000000000E+02 0. -1.
     200000    1    3    3    0    0 -0.13811663243E+03  0.35198416257E+03  0.28313930333E+03  0.68784948931E+03  0.50000000000E+03 0. -1.
    -200001    1    1    2    0    0  0.79723457927E+02 -0.53016886892E+03  0.13668229929E+04  0.16265423306E+04  0.70000000000E+03 0.  1.
<mgrwt>
<rscale>  0 0.19260551E+04</rscale>
<asrwt>0</asrwt>
<pdfrwt beam="1">  1        4 0.30502230E+00 0.19260551E+04</pdfrwt>
<pdfrwt beam="2">  1       -4 0.62051138E-01 0.19260551E+04</pdfrwt>
<totfact> 0.13219354E-01</totfact>
</mgrwt>
</event>
<event>
 8    1  0.1378634E-029  0.1407773E+04  0.7818608E-02  0.8948211E-01
         -4   -1    0    0    0  501 -0.00000000000E+00  0.00000000000E+00  0.23846393987E+03  0.23846732169E+03  0.12700000000E+01 0. -1.
          4   -1    0    0  501    0  0.00000000000E+00 -0.00000000000E+00 -0.20776801671E+04  0.20776805553E+04  0.12700000000E+01 0.  1.
     200001    2    1    2    0    0 -0.78916122150E+01  0.33942164479E+02 -0.81430721092E+03  0.10745147428E+04  0.70019379509E+03 0.  0.
    5000001    2    3    3    0    0 -0.47193882835E+02  0.57650248995E+02 -0.26972389383E+03  0.33378690413E+03  0.18196676806E+03 0.  0.
        -13    1    4    4    0    0  0.52532096357E+02  0.71857481530E+02 -0.97466741513E+02  0.13199581685E+03  0.10566000000E+00 0. -1.
     200003    1    4    4    0    0 -0.99725979192E+02 -0.14207232535E+02 -0.17225715232E+03  0.20179108728E+03  0.30000000000E+02 0. -1.
     200000    1    3    3    0    0  0.39302270620E+02 -0.23708084516E+02 -0.54458331709E+03  0.74072783868E+03  0.50000000000E+03 0. -1.
    -200001    1    1    2    0    0  0.78916122150E+01 -0.33942164479E+02 -0.10249090164E+04  0.12416331342E+04  0.70000000000E+03 0.  1.
<mgrwt>
<rscale>  0 0.14077729E+04</rscale>
<asrwt>0</asrwt>
<pdfrwt beam="1">  1        4 0.29681171E+00 0.14077729E+04</pdfrwt>
<pdfrwt beam="2">  1       -4 0.34066548E-01 0.14077729E+04</pdfrwt>
<totfact> 0.53471628E-01</totfact>
</mgrwt>
</event>
<event>
 8    1  0.1378634E-029  0.1619774E+04  0.7818608E-02  0.8808491E-01
          4   -1    0    0  501    0  0.00000000000E+00  0.00000000000E+00  0.60585633411E+03  0.60585766520E+03  0.12700000000E+01 0.  1.
         -4   -1    0    0    0  501 -0.00000000000E+00 -0.00000000000E+00 -0.10826247383E+04  0.10826254832E+04  0.12700000000E+01 0. -1.
     200001    2    1    2    0    0  0.22396846477E+03 -0.10741719306E+03 -0.57562485749E+03  0.93916817801E+03  0.69928003222E+03 0.  0.
    5000001    2    3    3    0    0  0.26446156376E+02  0.22869896880E+02 -0.18636219041E+03  0.26276947007E+03  0.18191892980E+03 0.  0.
        -13    1    4    4    0    0  0.32632542903E+00  0.31078895040E+02 -0.21230988030E+03  0.21457283295E+03  0.10566000000E+00 0. -1.
     200003    1    4    4    0    0  0.26119830947E+02 -0.82089981593E+01  0.25947689887E+02  0.48196637123E+02  0.30000000000E+02 0. -1.
     200000    1    3    3    0    0  0.19752230839E+03 -0.13028708994E+03 -0.38926266708E+03  0.67639870794E+03  0.50000000000E+03 0. -1.
    -200001    1    1    2    0    0 -0.22396846477E+03  0.10741719306E+03  0.98856453254E+02  0.74931497044E+03  0.70000000000E+03 0. -1.
<mgrwt>
<rscale>  0 0.16197738E+04</rscale>
<asrwt>0</asrwt>
<pdfrwt beam="1">  1        4 0.86551054E-01 0.16197738E+04</pdfrwt>
<pdfrwt beam="2">  1       -4 0.15466082E+00 0.16197738E+04</pdfrwt>
<totfact> 0.61291701E-01</totfact>
</mgrwt>
</event>
<event>
 8    1  0.1378634E-029  0.2072453E+04  0.7818608E-02  0.8573476E-01
         -4   -1    0    0    0  501 -0.00000000000E+00  0.00000000000E+00  0.64576689898E+03  0.64576814781E+03  0.12700000000E+01 0. -1.
          4   -1    0    0  501    0  0.00000000000E+00 -0.00000000000E+00 -0.16627727398E+04  0.16627732248E+04  0.12700000000E+01 0.  1.
     200001    2    1    2    0    0 -0.75465811680E+03  0.30213635604E+02 -0.63761651997E+03  0.12111089174E+04  0.69986301958E+03 0.  0.
    5000001    2    3    3    0    0 -0.31864290465E+03 -0.51397185192E+01 -0.16559468556E+03  0.39614650288E+03  0.16718473156E+03 0.  0.
        -13    1    4    4    0    0 -0.84491265277E+02 -0.55953311030E+02  0.34271979257E+01  0.10139676411E+03  0.10566000000E+00 0. -1.
     200003    1    4    4    0    0 -0.23415163938E+03  0.50813592510E+02 -0.16902188349E+03  0.29474973877E+03  0.30000000000E+02 0. -1.
     200000    1    3    3    0    0 -0.43601521215E+03  0.35353354123E+02 -0.47202183441E+03  0.81496241449E+03  0.50000000000E+03 0.  1.
    -200001    1    1    2    0    0  0.75465811680E+03 -0.30213635604E+02 -0.37938932085E+03  0.10974324552E+04  0.70000000000E+03 0. -1.
<mgrwt>
<rscale>  0 0.20724532E+04</rscale>
<asrwt>0</asrwt>
<pdfrwt beam="1">  1        4 0.23753909E+00 0.20724532E+04</pdfrwt>
<pdfrwt beam="2">  1       -4 0.92252538E-01 0.20724532E+04</pdfrwt>
<totfact> 0.14053022E-01</totfact>
</mgrwt>
</event>
<event>
 8    1  0.1378634E-029  0.1566601E+04  0.7818608E-02  0.8841333E-01
          4   -1    0    0  501    0  0.00000000000E+00  0.00000000000E+00  0.91483979657E+03  0.91484067809E+03  0.12700000000E+01 0. -1.
         -4   -1    0    0    0  501 -0.00000000000E+00 -0.00000000000E+00 -0.67067285033E+03  0.67067405277E+03  0.12700000000E+01 0.  1.
     200001    2    1    2    0    0  0.56817271637E+02 -0.16281763714E+03  0.43210550089E+03  0.84049212340E+03  0.69998147137E+03 0.  0.
    5000001    2    3    3    0    0  0.45223240838E+02 -0.23815135736E+01  0.12075195538E+03  0.22990617400E+03  0.19032866573E+03 0.  0.
        -13    1    4    4    0    0  0.15229569917E+02  0.37539101955E+02 -0.41209780384E+02  0.57787378715E+02  0.10566000000E+00 0. -1.
     200003    1    4    4    0    0  0.29993670921E+02 -0.39920615528E+02  0.16196173576E+03  0.17211879528E+03  0.30000000000E+02 0. -1.
     200000    1    3    3    0    0  0.11594030799E+02 -0.16043612356E+03  0.31135354552E+03  0.61058594940E+03  0.50000000000E+03 0. -1.
    -200001    1    1    2    0    0 -0.56817271637E+02  0.16281763714E+03 -0.18793855465E+03  0.74502260747E+03  0.70000000000E+03 0.  1.
<mgrwt>
<rscale>  0 0.15666012E+04</rscale>
<asrwt>0</asrwt>
<pdfrwt beam="1">  1        4 0.13069155E+00 0.15666012E+04</pdfrwt>
<pdfrwt beam="2">  1       -4 0.95810556E-01 0.15666012E+04</pdfrwt>
<totfact> 0.75474659E-01</totfact>
</mgrwt>
</event>
<event>
 8    1  0.1378634E-029  0.1429931E+04  0.7818608E-02  0.8932434E-01
          4   -1    0    0  501    0  0.00000000000E+00  0.00000000000E+00  0.61012233774E+03  0.61012365952E+03  0.12700000000E+01 0.  1.
         -4   -1    0    0    0  501 -0.00000000000E+00 -0.00000000000E+00 -0.83782175996E+03  0.83782272252E+03  0.12700000000E+01 0. -1.
     200001    2    1    2    0    0  0.55511104502E+02  0.10763516728E+03 -0.24479026430E+02  0.70905170672E+03  0.69820361507E+03 0.  0.
    5000001    2    3    3    0    0 -0.10034794697E+02  0.95665935053E+02  0.13659917590E+02  0.20319193714E+03  0.17845924391E+03 0.  0.
        -13    1    4    4    0    0 -0.42739607448E+02  0.13365745216E+03 -0.88058194877E+01  0.14060064788E+03  0.10566000000E+00 0. -1.
     200003    1    4    4    0    0  0.32704812752E+02 -0.37991517108E+02  0.22465737078E+02  0.62591289264E+02  0.30000000000E+02 0. -1.
     200000    1    3    3    0    0  0.65545899199E+02  0.11969232230E+02 -0.38138944020E+02  0.50585976957E+03  0.50000000000E+03 0.  1.
    -200001    1    1    2    0    0 -0.55511104502E+02 -0.10763516728E+03 -0.20322039579E+03  0.73889467533E+03  0.70000000000E+03 0. -1.
<mgrwt>
<rscale>  0 0.14299307E+04</rscale>
<asrwt>0</asrwt>
<pdfrwt beam="1">  1        4 0.87160497E-01 0.14299307E+04</pdfrwt>
<pdfrwt beam="2">  1       -4 0.11968899E+00 0.14299307E+04</pdfrwt>
<totfact> 0.11859521E+00</totfact>
</mgrwt>
</event>
<event>
 8    1  0.1378634E-029  0.1776627E+04  0.7818608E-02  0.8718829E-01
         -4   -1    0    0    0  501 -0.00000000000E+00  0.00000000000E+00  0.18485405138E+04  0.18485409501E+04  0.12700000000E+01 0. -1.
          4   -1    0    0  501    0  0.00000000000E+00 -0.00000000000E+00 -0.42687641008E+03  0.42687829926E+03  0.12700000000E+01 0.  1.
     200001    2    1    2    0    0 -0.36155464261E+03  0.24055064585E+03  0.28512081888E+03  0.87173943857E+03  0.70003528096E+03 0.  0.
    5000001    2    3    3    0    0 -0.86293842269E+02 -0.29488540175E+02  0.59954729385E+02  0.20137428580E+03  0.16923602510E+03 0.  0.
        -13    1    4    4    0    0  0.28614421249E+02  0.43880962140E+02  0.21061026627E+02  0.56461508555E+02  0.10566000000E+00 0. -1.
     200003    1    4    4    0    0 -0.11490826352E+03 -0.73369502315E+02  0.38893702758E+02  0.14491277725E+03  0.30000000000E+02 0. -1.
     200000    1    3    3    0    0 -0.27526080034E+03  0.27003918602E+03  0.22516608950E+03  0.67036515277E+03  0.50000000000E+03 0. -1.
    -200001    1    1    2    0    0  0.36155464261E+03 -0.24055064585E+03  0.11365432849E+04  0.14036798108E+04  0.70000000000E+03 0.  1.
<mgrwt>
<rscale>  0 0.17766271E+04</rscale>
<asrwt>0</asrwt>
<pdfrwt beam="1">  1        4 0.60982510E-01 0.17766271E+04</pdfrwt>
<pdfrwt beam="2">  1       -4 0.26407738E+00 0.17766271E+04</pdfrwt>
<totfact> 0.24936153E-01</totfact>
</mgrwt>
</event>
<event>
 8    1  0.1378634E-029  0.2063698E+04  0.7818608E-02  0.8577405E-01
         -4   -1    0    0    0  501 -0.00000000000E+00  0.00000000000E+00  0.16077427357E+04  0.16077432373E+04  0.12700000000E+01 0.  1.
          4   -1    0    0  501    0  0.00000000000E+00 -0.00000000000E+00 -0.66223956090E+03  0.66224077866E+03  0.12700000000E+01 0. -1.
     200001    2    1    2    0    0 -0.60062441794E+03 -0.32707198383E+02 -0.34594225066E+02  0.92372610402E+03  0.70018119269E+03 0.  0.
    5000001    2    3    3    0    0 -0.28735465301E+03  0.43218357916E+02 -0.24516115795E+01  0.32796123151E+03  0.15202643161E+03 0.  0.
        -13    1    4    4    0    0 -0.16900780419E+03  0.89722754044E+02 -0.32025268434E+02  0.19400886437E+03  0.10566000000E+00 0. -1.
     200003    1    4    4    0    0 -0.11834684881E+03 -0.46504396128E+02  0.29573656854E+02  0.13395236714E+03  0.30000000000E+02 0.  1.
     200000    1    3    3    0    0 -0.31326976493E+03 -0.75925556298E+02 -0.32142613487E+02  0.59576487251E+03  0.50000000000E+03 0. -1.
    -200001    1    1    2    0    0  0.60062441794E+03  0.32707198383E+02  0.98009739987E+03  0.13462579119E+04  0.70000000000E+03 0.  1.
<mgrwt>
<rscale>  0 0.20636984E+04</rscale>
<asrwt>0</asrwt>
<pdfrwt beam="1">  1        4 0.94605776E-01 0.20636984E+04</pdfrwt>
<pdfrwt beam="2">  1       -4 0.22967765E+00 0.20636984E+04</pdfrwt>
<totfact> 0.14856758E-01</totfact>
</mgrwt>
</event>
<event>
 8    1  0.1378634E-029  0.1420179E+04  0.7818608E-02  0.8939340E-01
         -4   -1    0    0    0  501 -0.00000000000E+00  0.00000000000E+00  0.25569919147E+04  0.25569922301E+04  0.12700000000E+01 0. -1.
          4   -1    0    0  501    0  0.00000000000E+00 -0.00000000000E+00 -0.19719314988E+03  0.19719723948E+03  0.12700000000E+01 0.  1.
     200001    2    1    2    0    0  0.46740394051E+02 -0.10736077539E+03  0.11320380274E+04  0.13360542754E+04  0.69987136736E+03 0.  0.
    5000001    2    3    3    0    0  0.81218459643E+02  0.81496246106E+02  0.23264728612E+03  0.28926899797E+03  0.12772516249E+03 0.  0.
        -13    1    4    4    0    0  0.77217693183E+01  0.71910660440E+02  0.17878448990E+03  0.19285920719E+03  0.10566000000E+00 0. -1.
     200003    1    4    4    0    0  0.73496690325E+02  0.95855856661E+01  0.53862796219E+02  0.96409790778E+02  0.30000000000E+02 0. -1.
     200000    1    3    3    0    0 -0.34478065593E+02 -0.18885702150E+03  0.89939074128E+03  0.10467852774E+04  0.50000000000E+03 0.  1.
    -200001    1    1    2    0    0 -0.46740394051E+02  0.10736077539E+03  0.12277607374E+04  0.14181351941E+04  0.70000000000E+03 0. -1.
<mgrwt>
<rscale>  0 0.14201794E+04</rscale>
<asrwt>0</asrwt>
<pdfrwt beam="1">  1        4 0.28170764E-01 0.14201794E+04</pdfrwt>
<pdfrwt beam="2">  1       -4 0.36528489E+00 0.14201794E+04</pdfrwt>
<totfact> 0.28306116E-01</totfact>
</mgrwt>
</event>
<event>
 8    1  0.1378634E-029  0.1558402E+04  0.7818608E-02  0.8846519E-01
          4   -1    0    0  501    0  0.00000000000E+00  0.00000000000E+00  0.11659448797E+04  0.11659455714E+04  0.12700000000E+01 0.  1.
         -4   -1    0    0    0  501 -0.00000000000E+00 -0.00000000000E+00 -0.52073818811E+03  0.52073973677E+03  0.12700000000E+01 0. -1.
     200001    2    1    2    0    0  0.17355654601E+03 -0.16872054485E+03  0.60155744821E+02  0.74282456246E+03  0.69970073606E+03 0.  0.
    5000001    2    3    3    0    0  0.15890446717E+03 -0.29285848502E+01 -0.41931209657E+02  0.20605328557E+03  0.12425990446E+03 0.  0.
        -13    1    4    4    0    0 -0.16180637955E+02 -0.13821640918E+02  0.52831822463E+01  0.21926558803E+02  0.10566000000E+00 0. -1.
     200003    1    4    4    0    0  0.17508510513E+03  0.10893056068E+02 -0.47214391904E+02  0.18412672677E+03  0.30000000000E+02 0. -1.
     200000    1    3    3    0    0  0.14652078835E+02 -0.16579196000E+03  0.10208695448E+03  0.53677127689E+03  0.50000000000E+03 0. -1.
    -200001    1    1    2    0    0 -0.17355654601E+03  0.16872054485E+03  0.58505094676E+03  0.94386074567E+03  0.70000000000E+03 0.  1.
<mgrwt>
<rscale>  0 0.15584016E+04</rscale>
<asrwt>0</asrwt>
<pdfrwt beam="1">  1        4 0.16656371E+00 0.15584016E+04</pdfrwt>
<pdfrwt beam="2">  1       -4 0.74391330E-01 0.15584016E+04</pdfrwt>
<totfact> 0.70856308E-01</totfact>
</mgrwt>
</event>
<event>
 8    1  0.1378634E-029  0.1540769E+04  0.7818608E-02  0.8857786E-01
         -4   -1    0    0    0  501 -0.00000000000E+00  0.00000000000E+00  0.13363298334E+04  0.13363304369E+04  0.12700000000E+01 0. -1.
          4   -1    0    0  501    0  0.00000000000E+00 -0.00000000000E+00 -0.44411921058E+03  0.44412102642E+03  0.12700000000E+01 0.  1.
     200001    2    1    2    0    0 -0.29203490552E+03  0.33226464681E+02  0.59742682295E+03  0.96602781882E+03  0.69993039221E+03 0.  0.
    5000001    2    3    3    0    0  0.68698133604E+02  0.38536625532E+02  0.17642738009E+03  0.21943753344E+03  0.10402742700E+03 0.  0.
        -13    1    4    4    0    0 -0.24023518390E+02 -0.29349437231E+01  0.39576895309E+02  0.46390571637E+02  0.10566000000E+00 0. -1.
     200003    1    4    4    0    0  0.92721651993E+02  0.41471569255E+02  0.13685048479E+03  0.17304696181E+03  0.30000000000E+02 0. -1.
     200000    1    3    3    0    0 -0.36073303913E+03 -0.53101608508E+01  0.42099944286E+03  0.74659028537E+03  0.50000000000E+03 0.  1.
    -200001    1    1    2    0    0  0.29203490552E+03 -0.33226464681E+02  0.29478379984E+03  0.81442364445E+03  0.70000000000E+03 0. -1.
<mgrwt>
<rscale>  0 0.15407685E+04</rscale>
<asrwt>0</asrwt>
<pdfrwt beam="1">  1        4 0.63445774E-01 0.15407685E+04</pdfrwt>
<pdfrwt beam="2">  1       -4 0.19090444E+00 0.15407685E+04</pdfrwt>
<totfact> 0.68144877E-01</totfact>
</mgrwt>
</event>
<event>
 8    1  0.1378634E-029  0.1598627E+04  0.7818608E-02  0.8821392E-01
         -4   -1    0    0    0  501 -0.00000000000E+00  0.00000000000E+00  0.73099307225E+03  0.73099417547E+03  0.12700000000E+01 0. -1.
          4   -1    0    0  501    0  0.00000000000E+00 -0.00000000000E+00 -0.87401695753E+03  0.87401788022E+03  0.12700000000E+01 0.  1.
     200001    2    1    2    0    0 -0.19235505432E+03 -0.16014507930E+03 -0.36642150244E+03  0.82876891807E+03  0.69996163378E+03 0.  0.
    5000001    2    3    3    0    0 -0.43332700673E+02 -0.10781484761E+02 -0.97941265865E+02  0.22329490319E+03  0.19563782577E+03 0.  0.
        -13    1    4    4    0    0 -0.44378141449E+01 -0.99267051807E+02 -0.45039510823E+02  0.10909725234E+03  0.10566000000E+00 0. -1.
     200003    1    4    4    0    0 -0.38894886528E+02  0.88485567046E+02 -0.52901755041E+02  0.11419765085E+03  0.30000000000E+02 0. -1.
     200000    1    3    3    0    0 -0.14902235365E+03 -0.14936359454E+03 -0.26848023658E+03  0.60547401488E+03  0.50000000000E+03 0. -1.
    -200001    1    1    2    0    0  0.19235505432E+03  0.16014507930E+03  0.22339761717E+03  0.77624313762E+03  0.70000000000E+03 0. -1.
<mgrwt>
<rscale>  0 0.15986269E+04</rscale>
<asrwt>0</asrwt>
<pdfrwt beam="1">  1        4 0.12485971E+00 0.15986269E+04</pdfrwt>
<pdfrwt beam="2">  1       -4 0.10442773E+00 0.15986269E+04</pdfrwt>
<totfact> 0.68837301E-01</totfact>
</mgrwt>
</event>
<event>
 8    1  0.1378634E-029  0.1656904E+04  0.7818608E-02  0.8786333E-01
          4   -1    0    0  501    0  0.00000000000E+00  0.00000000000E+00  0.14047835888E+04  0.14047841629E+04  0.12700000000E+01 0.  1.
         -4   -1    0    0    0  501 -0.00000000000E+00 -0.00000000000E+00 -0.48856683714E+03  0.48856848778E+03  0.12700000000E+01 0. -1.
     200001    2    1    2    0    0  0.12567743012E+03  0.42500627925E+03  0.45581583388E+03  0.94551608302E+03  0.69986244005E+03 0.  0.
    5000001    2    3    3    0    0  0.38783029083E+02  0.46938880563E+02  0.65821801034E+01  0.16943846412E+03  0.15798318320E+03 0.  0.
        -13    1    4    4    0    0  0.33407835500E+02  0.43996121422E+02 -0.68706903010E+02  0.88161169787E+02  0.10566000000E+00 0. -1.
     200003    1    4    4    0    0  0.53751935827E+01  0.29427591400E+01  0.75289083113E+02  0.81277294329E+02  0.30000000000E+02 0. -1.
     200000    1    3    3    0    0  0.86894401033E+02  0.37806739869E+03  0.44923365378E+03  0.77607761891E+03  0.50000000000E+03 0.  1.
    -200001    1    1    2    0    0 -0.12567743012E+03 -0.42500627925E+03  0.46040091778E+03  0.94783656763E+03  0.70000000000E+03 0. -1.
<mgrwt>
<rscale>  0 0.16569041E+04</rscale>
<asrwt>0</asrwt>
<pdfrwt beam="1">  1        4 0.20068353E+00 0.16569041E+04</pdfrwt>
<pdfrwt beam="2">  1       -4 0.69795421E-01 0.16569041E+04</pdfrwt>
<totfact> 0.47168694E-01</totfact>
</mgrwt>
</event>
<event>
 8    1  0.1378634E-029  0.1884628E+04  0.7818608E-02  0.8662546E-01
         -4   -1    0    0    0  501 -0.00000000000E+00  0.00000000000E+00  0.95221052074E+03  0.95221136766E+03  0.12700000000E+01 0. -1.
          4   -1    0    0  501    0  0.00000000000E+00 -0.00000000000E+00 -0.93251855969E+03  0.93251942450E+03  0.12700000000E+01 0.  1.
     200001    2    1    2    0    0  0.12422360253E+03  0.55118939673E+03 -0.26705895406E+03  0.94055530963E+03  0.70291005900E+03 0.  0.
    5000001    2    3    3    0    0  0.70564004161E+02  0.16594652768E+03 -0.10793864888E+03  0.28740089284E+03  0.19603824258E+03 0.  0.
        -13    1    4    4    0    0 -0.23340141330E+02 -0.20567551588E+02 -0.65072763433E+02  0.72126708510E+02  0.10566000000E+00 0. -1.
     200003    1    4    4    0    0  0.93904145491E+02  0.18651407927E+03 -0.42865885446E+02  0.21527418433E+03  0.30000000000E+02 0. -1.
     200000    1    3    3    0    0  0.53659598366E+02  0.38524286905E+03 -0.15912030518E+03  0.65315441679E+03  0.50000000000E+03 0.  1.
    -200001    1    1    2    0    0 -0.12422360253E+03 -0.55118939673E+03  0.28675091510E+03  0.94417548253E+03  0.70000000000E+03 0. -1.
<mgrwt>
<rscale>  0 0.18846279E+04</rscale>
<asrwt>0</asrwt>
<pdfrwt beam="1">  1        4 0.13321706E+00 0.18846279E+04</pdfrwt>
<pdfrwt beam="2">  1       -4 0.13603020E+00 0.18846279E+04</pdfrwt>
<totfact> 0.29600680E-01</totfact>
</mgrwt>
</event>
<event>
 8    1  0.1378634E-029  0.2571391E+04  0.7818608E-02  0.8377984E-01
         -4   -1    0    0    0  501 -0.00000000000E+00  0.00000000000E+00  0.20172092072E+04  0.20172096070E+04  0.12700000000E+01 0. -1.
          4   -1    0    0  501    0  0.00000000000E+00 -0.00000000000E+00 -0.81945435283E+03  0.81945533696E+03  0.12700000000E+01 0.  1.
     200001    2    1    2    0    0 -0.62188760716E+03 -0.86638443352E+03  0.42297441632E+03  0.13441332325E+04  0.70030036923E+03 0.  0.
    5000001    2    3    3    0    0 -0.27260850739E+03 -0.42964904513E+03  0.21864893084E+03  0.56664844610E+03  0.11987245813E+03 0.  0.
        -13    1    4    4    0    0 -0.91735508329E+02 -0.86528094852E+02  0.96816528979E+02  0.15898416945E+03  0.10566000000E+00 0. -1.
     200003    1    4    4    0    0 -0.18087299906E+03 -0.34312095028E+03  0.12183240186E+03  0.40766427665E+03  0.30000000000E+02 0. -1.
     200000    1    3    3    0    0 -0.34927909977E+03 -0.43673538838E+03  0.20432548548E+03  0.77748478636E+03  0.50000000000E+03 0.  1.
    -200001    1    1    2    0    0  0.62188760716E+03  0.86638443352E+03  0.77478043803E+03  0.14925317115E+04  0.70000000000E+03 0. -1.
<mgrwt>
<rscale>  0 0.25713909E+04</rscale>
<asrwt>0</asrwt>
<pdfrwt beam="1">  1        4 0.11706501E+00 0.25713909E+04</pdfrwt>
<pdfrwt beam="2">  1       -4 0.28817284E+00 0.25713909E+04</pdfrwt>
<totfact> 0.36795634E-02</totfact>
</mgrwt>
</event>
<event>
 8    1  0.1378634E-029  0.1425368E+04  0.7818608E-02  0.8935658E-01
         -4   -1    0    0    0  501 -0.00000000000E+00  0.00000000000E+00  0.10985309323E+04  0.10985316664E+04  0.12700000000E+01 0. -1.
          4   -1    0    0  501    0  0.00000000000E+00 -0.00000000000E+00 -0.46235957444E+03  0.46236131864E+03  0.12700000000E+01 0.  1.
     200001    2    1    2    0    0 -0.71748551411E+01  0.26819550262E+02  0.17576960287E+03  0.72259677079E+03  0.70034303954E+03 0.  0.
    5000001    2    3    3    0    0 -0.19248906416E+02 -0.49945996921E+00  0.40878302818E+02  0.20386006121E+03  0.19878913214E+03 0.  0.
        -13    1    4    4    0    0 -0.27923110342E+01 -0.62241518995E+02 -0.56148768352E+02  0.83871920446E+02  0.10566000000E+00 0. -1.
     200003    1    4    4    0    0 -0.16456595382E+02  0.61742059026E+02  0.97027071170E+02  0.11998814076E+03  0.30000000000E+02 0. -1.
     200000    1    3    3    0    0  0.12074051275E+02  0.27319010231E+02  0.13489130005E+03  0.51873670958E+03  0.50000000000E+03 0.  1.
    -200001    1    1    2    0    0  0.71748551411E+01 -0.26819550262E+02  0.46040175496E+03  0.83829621423E+03  0.70000000000E+03 0. -1.
<mgrwt>
<rscale>  0 0.14253676E+04</rscale>
<asrwt>0</asrwt>
<pdfrwt beam="1">  1        4 0.66051545E-01 0.14253676E+04</pdfrwt>
<pdfrwt beam="2">  1       -4 0.15693317E+00 0.14253676E+04</pdfrwt>
<totfact> 0.10956954E+00</totfact>
</mgrwt>
</event>
<event>
 8    1  0.1378634E-029  0.2340011E+04  0.7818608E-02  0.8462311E-01
         -4   -1    0    0    0  501 -0.00000000000E+00  0.00000000000E+00  0.48274264368E+03  0.48274431423E+03  0.12700000000E+01 0. -1.
          4   -1    0    0  501    0  0.00000000000E+00 -0.00000000000E+00 -0.28356912894E+04  0.28356915738E+04  0.12700000000E+01 0.  1.
     200001    2    1    2    0    0  0.73912851686E+02 -0.19334995154E+03  0.12016161667E+03  0.73984680029E+03  0.70006225465E+03 0.  0.
    5000001    2    3    3    0    0  0.10665353859E+03 -0.15512163606E+02  0.63097484474E+02  0.20509962024E+03  0.16269283070E+03 0.  0.
        -13    1    4    4    0    0  0.72362832829E+02  0.37509939552E+02  0.97585598222E+02  0.12714690435E+03  0.10566000000E+00 0. -1.
     200003    1    4    4    0    0  0.34290705760E+02 -0.53022103159E+02 -0.34488113748E+02  0.77952715891E+02  0.30000000000E+02 0. -1.
     200000    1    3    3    0    0 -0.32740686904E+02 -0.17783778793E+03  0.57064132197E+02  0.53474718006E+03  0.50000000000E+03 0. -1.
    -200001    1    1    2    0    0 -0.73912851686E+02  0.19334995154E+03 -0.24731102624E+04  0.25785890878E+04  0.70000000000E+03 0.  1.
<mgrwt>
<rscale>  0 0.23400106E+04</rscale>
<asrwt>0</asrwt>
<pdfrwt beam="1">  1        4 0.40509889E+00 0.23400106E+04</pdfrwt>
<pdfrwt beam="2">  1       -4 0.68963376E-01 0.23400106E+04</pdfrwt>
<totfact> 0.22142682E-02</totfact>
</mgrwt>
</event>
<event>
 8    1  0.1378634E-029  0.1410843E+04  0.7818608E-02  0.8946007E-01
          4   -1    0    0  501    0  0.00000000000E+00  0.00000000000E+00  0.99744421287E+03  0.99744502139E+03  0.12700000000E+01 0. -1.
         -4   -1    0    0    0  501 -0.00000000000E+00 -0.00000000000E+00 -0.49889267250E+03  0.49889428898E+03  0.12700000000E+01 0.  1.
     200001    2    1    2    0    0  0.51876068981E+02  0.50056080288E+02  0.19321454037E+03  0.72924908016E+03  0.69948239763E+03 0.  0.
    5000001    2    3    3    0    0 -0.22285736401E+02 -0.51100198732E+02  0.13555112425E+03  0.21054142095E+03  0.15114793513E+03 0.  0.
        -13    1    4    4    0    0 -0.17698154110E+02 -0.10095311325E+03  0.80738076806E+02  0.13047376726E+03  0.10566000000E+00 0. -1.
     200003    1    4    4    0    0 -0.45875822904E+01  0.49852914515E+02  0.54813047447E+02  0.80067653689E+02  0.30000000000E+02 0. -1.
     200000    1    3    3    0    0  0.74161805382E+02  0.10115627902E+03  0.57663416120E+02  0.51870765921E+03  0.50000000000E+03 0.  1.
    -200001    1    1    2    0    0 -0.51876068981E+02 -0.50056080288E+02  0.30533700000E+03  0.76709023021E+03  0.70000000000E+03 0. -1.
<mgrwt>
<rscale>  0 0.14108429E+04</rscale>
<asrwt>0</asrwt>
<pdfrwt beam="1">  1        4 0.14249220E+00 0.14108429E+04</pdfrwt>
<pdfrwt beam="2">  1       -4 0.71270555E-01 0.14108429E+04</pdfrwt>
<totfact> 0.11996238E+00</totfact>
</mgrwt>
</event>
<event>
 8    1  0.1378634E-029  0.1640660E+04  0.7818608E-02  0.8795951E-01
          4   -1    0    0  501    0  0.00000000000E+00  0.00000000000E+00  0.15449242758E+04  0.15449247978E+04  0.12700000000E+01 0.  1.
         -4   -1    0    0    0  501 -0.00000000000E+00 -0.00000000000E+00 -0.43558073369E+03  0.43558258512E+03  0.12700000000E+01 0. -1.
     200001    2    1    2    0    0  0.18161613747E+03  0.35355627758E+02  0.10199176728E+04  0.12509654527E+04  0.70031997174E+03 0.  0.
    5000001    2    3    3    0    0  0.13201099369E+03  0.48634739226E+02  0.22221148098E+03  0.30811224381E+03  0.16050848013E+03 0.  0.
        -13    1    4    4    0    0  0.12647276319E+03 -0.45988945909E+01  0.71424342545E+02  0.14532018970E+03  0.10566000000E+00 0. -1.
     200003    1    4    4    0    0  0.55382304911E+01  0.53233633817E+02  0.15078713843E+03  0.16279205412E+03  0.30000000000E+02 0. -1.
     200000    1    3    3    0    0  0.49605143782E+02 -0.13279111469E+02  0.79770619177E+03  0.94285320888E+03  0.50000000000E+03 0.  1.
    -200001    1    1    2    0    0 -0.18161613747E+03 -0.35355627758E+02  0.89425869321E+02  0.72954193019E+03  0.70000000000E+03 0. -1.
<mgrwt>
<rscale>  0 0.16406604E+04</rscale>
<asrwt>0</asrwt>
<pdfrwt beam="1">  1        4 0.22070363E+00 0.16406604E+04</pdfrwt>
<pdfrwt beam="2">  1       -4 0.62225990E-01 0.16406604E+04</pdfrwt>
<totfact> 0.45038563E-01</totfact>
</mgrwt>
</event>
<event>
 8    1  0.1378634E-029  0.1720490E+04  0.7818608E-02  0.8749764E-01
         -4   -1    0    0    0  501 -0.00000000000E+00  0.00000000000E+00  0.40905754401E+03  0.40905951549E+03  0.12700000000E+01 0. -1.
          4   -1    0    0  501    0  0.00000000000E+00 -0.00000000000E+00 -0.18090830503E+04  0.18090834960E+04  0.12700000000E+01 0.  1.
     200001    2    1    2    0    0 -0.94393665817E+02 -0.47350060371E+03 -0.86819905657E+03  0.12151712480E+04  0.69982753180E+03 0.  0.
    5000001    2    3    3    0    0  0.69022250083E+02 -0.43746037162E+02 -0.23042814202E+03  0.28342799555E+03  0.14337542764E+03 0.  0.
        -13    1    4    4    0    0  0.13518201752E+02 -0.70874649723E+02 -0.43424493036E+02  0.84211967745E+02  0.10566000000E+00 0. -1.
     200003    1    4    4    0    0  0.55504048331E+02  0.27128612561E+02 -0.18700364898E+03  0.19921602780E+03  0.30000000000E+02 0. -1.
     200000    1    3    3    0    0 -0.16341591590E+03 -0.42975456655E+03 -0.63777091455E+03  0.93174325245E+03  0.50000000000E+03 0.  1.
    -200001    1    1    2    0    0  0.94393665817E+02  0.47350060371E+03 -0.53182644968E+03  0.10029717635E+04  0.70000000000E+03 0. -1.
<mgrwt>
<rscale>  0 0.17204903E+04</rscale>
<asrwt>0</asrwt>
<pdfrwt beam="1">  1        4 0.25844060E+00 0.17204903E+04</pdfrwt>
<pdfrwt beam="2">  1       -4 0.58436965E-01 0.17204903E+04</pdfrwt>
<totfact> 0.29748511E-01</totfact>
</mgrwt>
</event>
<event>
 8    1  0.1378634E-029  0.1603542E+04  0.7818608E-02  0.8818375E-01
         -4   -1    0    0    0  501 -0.00000000000E+00  0.00000000000E+00  0.36575174062E+03  0.36575394552E+03  0.12700000000E+01 0. -1.
          4   -1    0    0  501    0  0.00000000000E+00 -0.00000000000E+00 -0.17575691976E+04  0.17575696564E+04  0.12700000000E+01 0.  1.
     200001    2    1    2    0    0  0.18036304393E+03  0.18389960124E+03 -0.30551868880E+03  0.80560022252E+03  0.69949993450E+03 0.  0.
    5000001    2    3    3    0    0  0.71230263157E+02  0.13167572103E+03 -0.24309689818E+01  0.20852446233E+03  0.14513543979E+03 0.  0.
        -13    1    4    4    0    0  0.88364467430E+02  0.20820102887E+02  0.11773713996E+02  0.91544455287E+02  0.10566000000E+00 0. -1.
     200003    1    4    4    0    0 -0.17134204274E+02  0.11085561814E+03 -0.14204682978E+02  0.11698000705E+03  0.30000000000E+02 0. -1.
     200000    1    3    3    0    0  0.10913278077E+03  0.52223880215E+02 -0.30308771981E+03  0.59707576019E+03  0.50000000000E+03 0. -1.
    -200001    1    1    2    0    0 -0.18036304393E+03 -0.18389960124E+03 -0.10862987682E+04  0.13177233794E+04  0.70000000000E+03 0.  1.
<mgrwt>
<rscale>  0 0.16035421E+04</rscale>
<asrwt>0</asrwt>
<pdfrwt beam="1">  1        4 0.25108150E+00 0.16035421E+04</pdfrwt>
<pdfrwt beam="2">  1       -4 0.52250440E-01 0.16035421E+04</pdfrwt>
<totfact> 0.42283148E-01</totfact>
</mgrwt>
</event>
<event>
 8    1  0.1378634E-029  0.2859395E+04  0.7818608E-02  0.8285062E-01
          4   -1    0    0  501    0  0.00000000000E+00  0.00000000000E+00  0.96333005129E+03  0.96333088844E+03  0.12700000000E+01 0.  1.
         -4   -1    0    0    0  501 -0.00000000000E+00 -0.00000000000E+00 -0.21218405637E+04  0.21218409438E+04  0.12700000000E+01 0. -1.
     200001    2    1    2    0    0  0.10917100152E+04 -0.41953214467E+03 -0.10442521561E+04  0.17173659433E+04  0.70074620233E+03 0.  0.
    5000001    2    3    3    0    0  0.21436503831E+03 -0.11160358036E+03 -0.26525926307E+03  0.40535064746E+03  0.18851774970E+03 0.  0.
        -13    1    4    4    0    0 -0.24687700102E+00 -0.36180650907E+02  0.18332867125E+02  0.40561134468E+02  0.10566000000E+00 0. -1.
     200003    1    4    4    0    0  0.21461191531E+03 -0.75422929453E+02 -0.28359213019E+03  0.36478951299E+03  0.30000000000E+02 0. -1.
     200000    1    3    3    0    0  0.87734497692E+03 -0.30792856431E+03 -0.77899289302E+03  0.13120152959E+04  0.50000000000E+03 0. -1.
    -200001    1    1    2    0    0 -0.10917100152E+04  0.41953214467E+03 -0.11425835636E+03  0.13678058889E+04  0.70000000000E+03 0.  1.
<mgrwt>
<rscale>  0 0.28593948E+04</rscale>
<asrwt>0</asrwt>
<pdfrwt beam="1">  1        4 0.13761867E+00 0.28593948E+04</pdfrwt>
<pdfrwt beam="2">  1       -4 0.30312017E+00 0.28593948E+04</pdfrwt>
<totfact> 0.19215699E-02</totfact>
</mgrwt>
</event>
<event>
 8    1  0.1378634E-029  0.2472961E+04  0.7818608E-02  0.8412682E-01
          4   -1    0    0  501    0  0.00000000000E+00  0.00000000000E+00  0.16722015064E+04  0.16722019886E+04  0.12700000000E+01 0.  1.
         -4   -1    0    0    0  501 -0.00000000000E+00 -0.00000000000E+00 -0.91429323656E+03  0.91429411861E+03  0.12700000000E+01 0. -1.
     200001    2    1    2    0    0  0.44935393496E+03 -0.42900833487E+03  0.12226528437E+04  0.15415297780E+04  0.70389414689E+03 0.  0.
    5000001    2    3    3    0    0  0.18167310283E+03 -0.24654277859E+03  0.50480170189E+03  0.60865413307E+03  0.14780608075E+03 0.  0.
        -13    1    4    4    0    0  0.17452810349E+03 -0.20630840900E+03  0.48303403296E+03  0.55348451351E+03  0.10566000000E+00 0. -1.
     200003    1    4    4    0    0  0.71449993377E+01 -0.40234369593E+02  0.21767668932E+02  0.55169619564E+02  0.30000000000E+02 0. -1.
     200000    1    3    3    0    0  0.26768083213E+03 -0.18246555628E+03  0.71785114181E+03  0.93287564494E+03  0.50000000000E+03 0.  1.
    -200001    1    1    2    0    0 -0.44935393496E+03  0.42900833487E+03 -0.46474457390E+03  0.10449663292E+04  0.70000000000E+03 0. -1.
<mgrwt>
<rscale>  0 0.24729612E+04</rscale>
<asrwt>0</asrwt>
<pdfrwt beam="1">  1        4 0.23888603E+00 0.24729612E+04</pdfrwt>
<pdfrwt beam="2">  1       -4 0.13061342E+00 0.24729612E+04</pdfrwt>
<totfact> 0.57040545E-02</totfact>
</mgrwt>
</event>
<event>
 8    1  0.1378634E-029  0.1651984E+04  0.7818608E-02  0.8789233E-01
         -4   -1    0    0    0  501 -0.00000000000E+00  0.00000000000E+00  0.80990323619E+03  0.80990423193E+03  0.12700000000E+01 0. -1.
          4   -1    0    0  501    0  0.00000000000E+00 -0.00000000000E+00 -0.84239871458E+03  0.84239967190E+03  0.12700000000E+01 0.  1.
     200001    2    1    2    0    0  0.28020198927E+03 -0.25336678295E+03  0.20657313095E+03  0.82172477969E+03  0.69989375881E+03 0.  0.
    5000001    2    3    3    0    0  0.10786249989E+03 -0.59074317777E+02  0.44738996468E+02  0.23551598693E+03  0.19581141027E+03 0.  0.
        -13    1    4    4    0    0 -0.63949336234E+00 -0.48324437388E+02  0.98940019434E+02  0.11011266417E+03  0.10566000000E+00 0. -1.
     200003    1    4    4    0    0  0.10850199326E+03 -0.10749880388E+02 -0.54201022966E+02  0.12540332276E+03  0.30000000000E+02 0. -1.
     200000    1    3    3    0    0  0.17233948938E+03 -0.19429246517E+03  0.16183413448E+03  0.58620879276E+03  0.50000000000E+03 0.  1.
    -200001    1    1    2    0    0 -0.28020198927E+03  0.25336678295E+03 -0.23906860934E+03  0.83057912414E+03  0.70000000000E+03 0. -1.
<mgrwt>
<rscale>  0 0.16519843E+04</rscale>
<asrwt>0</asrwt>
<pdfrwt beam="1">  1        4 0.12034281E+00 0.16519843E+04</pdfrwt>
<pdfrwt beam="2">  1       -4 0.11570060E+00 0.16519843E+04</pdfrwt>
<totfact> 0.58605292E-01</totfact>
</mgrwt>
</event>
<event>
 8    1  0.1378634E-029  0.1540402E+04  0.7818608E-02  0.8858022E-01
         -4   -1    0    0    0  501 -0.00000000000E+00  0.00000000000E+00  0.71035517278E+03  0.71035630806E+03  0.12700000000E+01 0. -1.
          4   -1    0    0  501    0  0.00000000000E+00 -0.00000000000E+00 -0.83508666777E+03  0.83508763347E+03  0.12700000000E+01 0.  1.
     200001    2    1    2    0    0 -0.19446106183E+03 -0.13911419696E+03  0.15238364862E+03  0.75553213179E+03  0.70031433045E+03 0.  0.
    5000001    2    3    3    0    0  0.40236767191E+01 -0.55275021708E+02  0.11307648035E+02  0.19310201463E+03  0.18463208592E+03 0.  0.
        -13    1    4    4    0    0 -0.34649312134E+02 -0.80936190547E+02  0.70006328479E+02  0.11248172724E+03  0.10566000000E+00 0. -1.
     200003    1    4    4    0    0  0.38672988853E+02  0.25661168839E+02 -0.58698680444E+02  0.80620287391E+02  0.30000000000E+02 0. -1.
     200000    1    3    3    0    0 -0.19848473855E+03 -0.83839175250E+02  0.14107600058E+03  0.56243011716E+03  0.50000000000E+03 0. -1.
    -200001    1    1    2    0    0  0.19446106183E+03  0.13911419696E+03 -0.27711514360E+03  0.78991180975E+03  0.70000000000E+03 0.  1.
<mgrwt>
<rscale>  0 0.15404022E+04</rscale>
<asrwt>0</asrwt>
<pdfrwt beam="1">  1        4 0.11929825E+00 0.15404022E+04</pdfrwt>
<pdfrwt beam="2">  1       -4 0.10147946E+00 0.15404022E+04</pdfrwt>
<totfact> 0.83025625E-01</totfact>
</mgrwt>
</event>
<event>
 8    1  0.1378634E-029  0.1554017E+04  0.7818608E-02  0.8849306E-01
          4   -1    0    0  501    0  0.00000000000E+00  0.00000000000E+00  0.38819965220E+03  0.38820172961E+03  0.12700000000E+01 0.  1.
         -4   -1    0    0    0  501 -0.00000000000E+00 -0.00000000000E+00 -0.15552308372E+04  0.15552313557E+04  0.12700000000E+01 0. -1.
     200001    2    1    2    0    0  0.19297818159E+03 -0.63058653930E+01 -0.23664513422E+03  0.76322185595E+03  0.69944716694E+03 0.  0.
    5000001    2    3    3    0    0  0.78546941528E+02  0.74720700951E+02 -0.13196177046E+03  0.23348756425E+03  0.15921598105E+03 0.  0.
        -13    1    4    4    0    0  0.19411714877E+02  0.11172923319E+03 -0.57556234710E+02  0.12717298275E+03  0.10566000000E+00 0. -1.
     200003    1    4    4    0    0  0.59135226651E+02 -0.37008532237E+02 -0.74405535751E+02  0.10631458150E+03  0.30000000000E+02 0. -1.
     200000    1    3    3    0    0  0.11443124006E+03 -0.81026566344E+02 -0.10468336376E+03  0.52973429170E+03  0.50000000000E+03 0.  1.
    -200001    1    1    2    0    0 -0.19297818159E+03  0.63058653930E+01 -0.93038605076E+03  0.11802112294E+04  0.70000000000E+03 0. -1.
<mgrwt>
<rscale>  0 0.15540175E+04</rscale>
<asrwt>0</asrwt>
<pdfrwt beam="1">  1        4 0.55457279E-01 0.15540175E+04</pdfrwt>
<pdfrwt beam="2">  1       -4 0.22217602E+00 0.15540175E+04</pdfrwt>
<totfact> 0.56789262E-01</totfact>
</mgrwt>
</event>
<event>
 8    1  0.1378634E-029  0.1707919E+04  0.7818608E-02  0.8756861E-01
         -4   -1    0    0    0  501 -0.00000000000E+00  0.00000000000E+00  0.98062012280E+03  0.98062094519E+03  0.12700000000E+01 0. -1.
          4   -1    0    0  501    0  0.00000000000E+00 -0.00000000000E+00 -0.74365687132E+03  0.74365795576E+03  0.12700000000E+01 0.  1.
     200001    2    1    2    0    0 -0.28848171591E+03 -0.38641835475E+03  0.34764202307E+02  0.85053677607E+03  0.69975953898E+03 0.  0.
    5000001    2    3    3    0    0 -0.37575944694E+02 -0.34400864493E+02  0.35068682202E+02  0.18957527025E+03  0.17920267721E+03 0.  0.
        -13    1    4    4    0    0 -0.10621724990E+03 -0.74708311312E+01  0.15510502477E+02  0.10760345880E+03  0.10566000000E+00 0. -1.
     200003    1    4    4    0    0  0.68641305209E+02 -0.26930033361E+02  0.19558179725E+02  0.81971811446E+02  0.30000000000E+02 0. -1.
     200000    1    3    3    0    0 -0.25090577122E+03 -0.35201749026E+03 -0.30447989482E+00  0.66096150583E+03  0.50000000000E+03 0. -1.
    -200001    1    1    2    0    0  0.28848171591E+03  0.38641835475E+03  0.20219904918E+03  0.87374212488E+03  0.70000000000E+03 0.  1.
<mgrwt>
<rscale>  0 0.17079187E+04</rscale>
<asrwt>0</asrwt>
<pdfrwt beam="1">  1        4 0.10623683E+00 0.17079187E+04</pdfrwt>
<pdfrwt beam="2">  1       -4 0.14008873E+00 0.17079187E+04</pdfrwt>
<totfact> 0.48792617E-01</totfact>
</mgrwt>
</event>
<event>
 8    1  0.1378634E-029  0.1713402E+04  0.7818608E-02  0.8753757E-01
          4   -1    0    0  501    0  0.00000000000E+00  0.00000000000E+00  0.68640350215E+03  0.68640467704E+03  0.12700000000E+01 0.  1.
         -4   -1    0    0    0  501 -0.00000000000E+00 -0.00000000000E+00 -0.10692475681E+04  0.10692483223E+04  0.12700000000E+01 0. -1.
     200001    2    1    2    0    0 -0.15132450467E+03 -0.17489497785E+03 -0.63897120554E+03  0.97521179679E+03  0.69947586670E+03 0.  0.
    5000001    2    3    3    0    0 -0.66181709468E+02 -0.12843428678E+03 -0.14094744511E+03  0.26286668567E+03  0.16839634041E+03 0.  0.
        -13    1    4    4    0    0 -0.68426427497E+02  0.35361413317E+01 -0.10042989856E+03  0.12157654364E+03  0.10566000000E+00 0. -1.
     200003    1    4    4    0    0  0.22447180295E+01 -0.13197042811E+03 -0.40517546548E+02  0.14129014202E+03  0.30000000000E+02 0.  1.
     200000    1    3    3    0    0 -0.85142795204E+02 -0.46460691073E+02 -0.49802376043E+03  0.71234511113E+03  0.50000000000E+03 0. -1.
    -200001    1    1    2    0    0  0.15132450467E+03  0.17489497785E+03  0.25612713960E+03  0.78044120255E+03  0.70000000000E+03 0.  1.
<mgrwt>
<rscale>  0 0.17134024E+04</rscale>
<asrwt>0</asrwt>
<pdfrwt beam="1">  1        4 0.98057780E-01 0.17134024E+04</pdfrwt>
<pdfrwt beam="2">  1       -4 0.15274979E+00 0.17134024E+04</pdfrwt>
<totfact> 0.47010825E-01</totfact>
</mgrwt>
</event>
<event>
 8    1  0.1378634E-029  0.1794676E+04  0.7818608E-02  0.8709136E-01
         -4   -1    0    0    0  501 -0.00000000000E+00  0.00000000000E+00  0.44604325017E+03  0.44604505818E+03  0.12700000000E+01 0. -1.
          4   -1    0    0  501    0  0.00000000000E+00 -0.00000000000E+00 -0.18052354764E+04  0.18052359232E+04  0.12700000000E+01 0.  1.
     200001    2    1    2    0    0 -0.27862989236E+03 -0.28850558619E+03 -0.11736329951E+04  0.14234510964E+04  0.69851880893E+03 0.  0.
    5000001    2    3    3    0    0 -0.12302322760E+03 -0.15230867286E+03 -0.19675156642E+03  0.30673252887E+03  0.13054125411E+03 0.  0.
        -13    1    4    4    0    0 -0.41132472052E+02 -0.67721126564E+02 -0.45679496202E+01  0.79365663658E+02  0.10566000000E+00 0. -1.
     200003    1    4    4    0    0 -0.81890755549E+02 -0.84587546299E+02 -0.19218361680E+03  0.22736686522E+03  0.30000000000E+02 0. -1.
     200000    1    3    3    0    0 -0.15560666476E+03 -0.13619691332E+03 -0.97688142868E+03  0.11167185675E+04  0.50000000000E+03 0.  1.
    -200001    1    1    2    0    0  0.27862989236E+03  0.28850558619E+03 -0.18555923117E+03  0.82782988497E+03  0.70000000000E+03 0. -1.
<mgrwt>
<rscale>  0 0.17946762E+04</rscale>
<asrwt>0</asrwt>
<pdfrwt beam="1">  1        4 0.25789094E+00 0.17946762E+04</pdfrwt>
<pdfrwt beam="2">  1       -4 0.63720626E-01 0.17946762E+04</pdfrwt>
<totfact> 0.24723732E-01</totfact>
</mgrwt>
</event>
<event>
 8    1  0.1378634E-029  0.1406115E+04  0.7818608E-02  0.8949404E-01
         -4   -1    0    0    0  501 -0.00000000000E+00  0.00000000000E+00  0.74017642326E+03  0.74017751280E+03  0.12700000000E+01 0. -1.
          4   -1    0    0  501    0  0.00000000000E+00 -0.00000000000E+00 -0.66779796754E+03  0.66779917516E+03  0.12700000000E+01 0.  1.
     200001    2    1    2    0    0  0.34713222307E+02  0.11257883562E+02  0.91018202097E+02  0.70677829386E+03  0.69994249464E+03 0.  0.
    5000001    2    3    3    0    0 -0.42463204355E+01  0.24052743738E+02 -0.16062733655E+02  0.19379887788E+03  0.19158138724E+03 0.  0.
        -13    1    4    4    0    0 -0.71437463323E+02  0.17313613932E+02  0.54593819244E+02  0.91561829695E+02  0.10566000000E+00 0. -1.
     200003    1    4    4    0    0  0.67191142888E+02  0.67391298056E+01 -0.70656552899E+02  0.10223704818E+03  0.30000000000E+02 0. -1.
     200000    1    3    3    0    0  0.38959542742E+02 -0.12794860176E+02  0.10708093575E+03  0.51297941598E+03  0.50000000000E+03 0. -1.
    -200001    1    1    2    0    0 -0.34713222307E+02 -0.11257883562E+02 -0.18639746375E+02  0.70119839410E+03  0.70000000000E+03 0.  1.
<mgrwt>
<rscale>  0 0.14061151E+04</rscale>
<asrwt>0</asrwt>
<pdfrwt beam="1">  1        4 0.95399873E-01 0.14061151E+04</pdfrwt>
<pdfrwt beam="2">  1       -4 0.10573965E+00 0.14061151E+04</pdfrwt>
<totfact> 0.13030273E+00</totfact>
</mgrwt>
</event>
<event>
 8    1  0.1378634E-029  0.1750537E+04  0.7818608E-02  0.8733055E-01
          4   -1    0    0  501    0  0.00000000000E+00  0.00000000000E+00  0.10740398907E+04  0.10740406415E+04  0.12700000000E+01 0.  1.
         -4   -1    0    0    0  501 -0.00000000000E+00 -0.00000000000E+00 -0.71328164615E+03  0.71328277677E+03  0.12700000000E+01 0. -1.
     200001    2    1    2    0    0 -0.28880762223E+02  0.43889423424E+03 -0.11389644113E+03  0.83403473281E+03  0.69941353215E+03 0.  0.
    5000001    2    3    3    0    0 -0.12622742757E+02  0.22544565630E+03  0.42306531357E+01  0.27745712903E+03  0.16118152018E+03 0.  0.
        -13    1    4    4    0    0 -0.30661567668E+01  0.82347807574E+02 -0.74530025685E+02  0.11110939934E+03  0.10566000000E+00 0. -1.
     200003    1    4    4    0    0 -0.95565859903E+01  0.14309784872E+03  0.78760678821E+02  0.16634772969E+03  0.30000000000E+02 0. -1.
     200000    1    3    3    0    0 -0.16258019466E+02  0.21344857794E+03 -0.11812709426E+03  0.55657760377E+03  0.50000000000E+03 0. -1.
    -200001    1    1    2    0    0  0.28880762223E+02 -0.43889423424E+03  0.47465468563E+03  0.95328868548E+03  0.70000000000E+03 0.  1.
<mgrwt>
<rscale>  0 0.17505366E+04</rscale>
<asrwt>0</asrwt>
<pdfrwt beam="1">  1        4 0.15343440E+00 0.17505366E+04</pdfrwt>
<pdfrwt beam="2">  1       -4 0.10189751E+00 0.17505366E+04</pdfrwt>
<totfact> 0.42264308E-01</totfact>
</mgrwt>
</event>
<event>
 8    1  0.1378634E-029  0.1684645E+04  0.7818608E-02  0.8770170E-01
          4   -1    0    0  501    0  0.00000000000E+00  0.00000000000E+00  0.11405140958E+04  0.11405148029E+04  0.12700000000E+01 0.  1.
         -4   -1    0    0    0  501 -0.00000000000E+00 -0.00000000000E+00 -0.62209286669E+03  0.62209416304E+03  0.12700000000E+01 0. -1.
     200001    2    1    2    0    0  0.38747302797E+03  0.26265629906E+03  0.29489050799E+03  0.89135144828E+03  0.69887288816E+03 0.  0.
    5000001    2    3    3    0    0  0.14005610992E+03  0.11719883668E+03  0.14059534402E+03  0.29454326944E+03  0.18340503147E+03 0.  0.
        -13    1    4    4    0    0  0.20567855139E+01  0.38622996247E+02 -0.37625181900E+02  0.53959537460E+02  0.10566000000E+00 0. -1.
     200003    1    4    4    0    0  0.13799932440E+03  0.78575840430E+02  0.17822052592E+03  0.24058373198E+03  0.30000000000E+02 0. -1.
     200000    1    3    3    0    0  0.24741691805E+03  0.14545746238E+03  0.15429516397E+03  0.59680817883E+03  0.50000000000E+03 0. -1.
    -200001    1    1    2    0    0 -0.38747302797E+03 -0.26265629906E+03  0.22353072116E+03  0.87125751769E+03  0.70000000000E+03 0.  1.
<mgrwt>
<rscale>  0 0.16846453E+04</rscale>
<asrwt>0</asrwt>
<pdfrwt beam="1">  1        4 0.16293073E+00 0.16846453E+04</pdfrwt>
<pdfrwt beam="2">  1       -4 0.88870554E-01 0.16846453E+04</pdfrwt>
<totfact> 0.49771868E-01</totfact>
</mgrwt>
</event>
<event>
 8    1  0.1378634E-029  0.2267448E+04  0.7818608E-02  0.8490868E-01
         -4   -1    0    0    0  501 -0.00000000000E+00  0.00000000000E+00  0.23980189877E+04  0.23980193240E+04  0.12700000000E+01 0. -1.
          4   -1    0    0  501    0  0.00000000000E+00 -0.00000000000E+00 -0.53599532694E+03  0.53599683152E+03  0.12700000000E+01 0.  1.
     200001    2    1    2    0    0 -0.40658908176E+03  0.76673268074E+03  0.66390677819E+03  0.12973494975E+04  0.69939246741E+03 0.  0.
    5000001    2    3    3    0    0 -0.11898920416E+03  0.26110879009E+03  0.32546240200E+03  0.45894994828E+03  0.14957623121E+03 0.  0.
        -13    1    4    4    0    0 -0.65919647267E+02  0.10877187694E+03  0.24534491978E+03  0.27635278528E+03  0.10566000000E+00 0. -1.
     200003    1    4    4    0    0 -0.53069556894E+02  0.15233691316E+03  0.80117482222E+02  0.18259716300E+03  0.30000000000E+02 0. -1.
     200000    1    3    3    0    0 -0.28759987760E+03  0.50562389065E+03  0.33844437619E+03  0.83839954924E+03  0.50000000000E+03 0. -1.
    -200001    1    1    2    0    0  0.40658908176E+03 -0.76673268074E+03  0.11981168826E+04  0.16366666580E+04  0.70000000000E+03 0.  1.
<mgrwt>
<rscale>  0 0.22674476E+04</rscale>
<asrwt>0</asrwt>
<pdfrwt beam="1">  1        4 0.76570890E-01 0.22674476E+04</pdfrwt>
<pdfrwt beam="2">  1       -4 0.34257428E+00 0.22674476E+04</pdfrwt>
<totfact> 0.46557981E-02</totfact>
</mgrwt>
</event>
<event>
 8    1  0.1378634E-029  0.1497987E+04  0.7818608E-02  0.8885792E-01
         -4   -1    0    0    0  501 -0.00000000000E+00  0.00000000000E+00  0.37492963064E+03  0.37493178158E+03  0.12700000000E+01 0. -1.
          4   -1    0    0  501    0  0.00000000000E+00 -0.00000000000E+00 -0.14962513095E+04  0.14962518485E+04  0.12700000000E+01 0.  1.
     200001    2    1    2    0    0  0.59157720548E+02 -0.28907704421E+02 -0.23083131819E+03  0.73658750204E+03  0.69637831631E+03 0.  0.
    5000001    2    3    3    0    0 -0.30792117985E+02  0.37415332407E+02 -0.74420622776E+02  0.20090660420E+03  0.18021368674E+03 0.  0.
        -13    1    4    4    0    0  0.27978629562E+02  0.91652885191E+02 -0.63117439387E+02  0.11474701475E+03  0.10566000000E+00 0. -1.
     200003    1    4    4    0    0 -0.58770747547E+02 -0.54237552784E+02 -0.11303183389E+02  0.86159589449E+02  0.30000000000E+02 0. -1.
     200000    1    3    3    0    0  0.89949838533E+02 -0.66323036828E+02 -0.15641069542E+03  0.53568089784E+03  0.50000000000E+03 0. -1.
    -200001    1    1    2    0    0 -0.59157720548E+02  0.28907704421E+02 -0.89049036066E+03  0.11345961280E+04  0.70000000000E+03 0.  1.
<mgrwt>
<rscale>  0 0.14979873E+04</rscale>
<asrwt>0</asrwt>
<pdfrwt beam="1">  1        4 0.21375038E+00 0.14979873E+04</pdfrwt>
<pdfrwt beam="2">  1       -4 0.53561569E-01 0.14979873E+04</pdfrwt>
<totfact> 0.69485897E-01</totfact>
</mgrwt>
</event>
<event>
 8    1  0.1378634E-029  0.1926818E+04  0.7818608E-02  0.8641621E-01
         -4   -1    0    0    0  501 -0.00000000000E+00  0.00000000000E+00  0.20193386568E+04  0.20193390562E+04  0.12700000000E+01 0. -1.
          4   -1    0    0  501    0  0.00000000000E+00 -0.00000000000E+00 -0.45963270065E+03  0.45963445520E+03  0.12700000000E+01 0.  1.
     200001    2    1    2    0    0 -0.43764874791E+03  0.72258029179E+02  0.14813332268E+03  0.84211831041E+03  0.70033000658E+03 0.  0.
    5000001    2    3    3    0    0 -0.10984884496E+03  0.51863322021E+02  0.61969758652E+02  0.23772367094E+03  0.19471959282E+03 0.  0.
        -13    1    4    4    0    0 -0.93743337008E+02  0.80351783476E+02 -0.37299955413E+02  0.12897875864E+03  0.10566000000E+00 0. -1.
     200003    1    4    4    0    0 -0.16105507954E+02 -0.28488461455E+02  0.99269714064E+02  0.10874491231E+03  0.30000000000E+02 0. -1.
     200000    1    3    3    0    0 -0.32779990295E+03  0.20394707158E+02  0.86163564024E+02  0.60439463947E+03  0.50000000000E+03 0.  1.
    -200001    1    1    2    0    0  0.43764874791E+03 -0.72258029179E+02  0.14115726335E+04  0.16368552009E+04  0.70000000000E+03 0. -1.
<mgrwt>
<rscale>  0 0.19268178E+04</rscale>
<asrwt>0</asrwt>
<pdfrwt beam="1">  1        4 0.65661966E-01 0.19268178E+04</pdfrwt>
<pdfrwt beam="2">  1       -4 0.28847711E+00 0.19268178E+04</pdfrwt>
<totfact> 0.14814870E-01</totfact>
</mgrwt>
</event>
<event>
 8    1  0.1378634E-029  0.1861460E+04  0.7818608E-02  0.8674282E-01
          4   -1    0    0  501    0  0.00000000000E+00  0.00000000000E+00  0.87302817651E+03  0.87302910025E+03  0.12700000000E+01 0.  1.
         -4   -1    0    0    0  501 -0.00000000000E+00 -0.00000000000E+00 -0.99224346976E+03  0.99224428251E+03  0.12700000000E+01 0. -1.
     200001    2    1    2    0    0 -0.35503402586E+03 -0.22564604229E+03  0.38711459092E+03  0.90437003303E+03  0.70075827089E+03 0.  0.
    5000001    2    3    3    0    0 -0.15432336709E+03 -0.12952504495E+03  0.14903601944E+03  0.30754055917E+03  0.17826110496E+03 0.  0.
        -13    1    4    4    0    0 -0.13573102275E+03 -0.21530790073E+02  0.13571813494E+03  0.19314737579E+03  0.10566000000E+00 0. -1.
     200003    1    4    4    0    0 -0.18592344335E+02 -0.10799425488E+03  0.13317884496E+02  0.11439318338E+03  0.30000000000E+02 0. -1.
     200000    1    3    3    0    0 -0.20071065878E+03 -0.96120997340E+02  0.23807857148E+03  0.59682947387E+03  0.50000000000E+03 0.  1.
    -200001    1    1    2    0    0  0.35503402586E+03  0.22564604229E+03 -0.50632988417E+03  0.96090334973E+03  0.70000000000E+03 0. -1.
<mgrwt>
<rscale>  0 0.18614598E+04</rscale>
<asrwt>0</asrwt>
<pdfrwt beam="1">  1        4 0.12471844E+00 0.18614598E+04</pdfrwt>
<pdfrwt beam="2">  1       -4 0.14174919E+00 0.18614598E+04</pdfrwt>
<totfact> 0.31495009E-01</totfact>
</mgrwt>
</event>
<event>
 8    1  0.1378634E-029  0.1812118E+04  0.7818608E-02  0.8699882E-01
          4   -1    0    0  501    0  0.00000000000E+00  0.00000000000E+00  0.59092489784E+03  0.59092626256E+03  0.12700000000E+01 0.  1.
         -4   -1    0    0    0  501 -0.00000000000E+00 -0.00000000000E+00 -0.13892477532E+04  0.13892483337E+04  0.12700000000E+01 0. -1.
     200001    2    1    2    0    0 -0.10326155251E+02  0.22207251431E+03  0.18088659996E+03  0.75613456893E+03  0.69971186441E+03 0.  0.
    5000001    2    3    3    0    0 -0.13709340510E+02  0.92075735640E+02  0.43211007532E+02  0.22147095772E+03  0.19625571795E+03 0.  0.
        -13    1    4    4    0    0  0.55257292030E+02 -0.32943499273E+02  0.39569740805E+02  0.75527597726E+02  0.10566000000E+00 0. -1.
     200003    1    4    4    0    0 -0.68966632540E+02  0.12501923491E+03  0.36412667268E+01  0.14594335999E+03  0.30000000000E+02 0. -1.
     200000    1    3    3    0    0  0.33831852590E+01  0.12999677867E+03  0.13767559243E+03  0.53466361122E+03  0.50000000000E+03 0.  1.
    -200001    1    1    2    0    0  0.10326155251E+02 -0.22207251431E+03 -0.97920945535E+03  0.12240400273E+04  0.70000000000E+03 0. -1.
<mgrwt>
<rscale>  0 0.18121181E+04</rscale>
<asrwt>0</asrwt>
<pdfrwt beam="1">  1        4 0.84417982E-01 0.18121181E+04</pdfrwt>
<pdfrwt beam="2">  1       -4 0.19846410E+00 0.18121181E+04</pdfrwt>
<totfact> 0.31415295E-01</totfact>
</mgrwt>
</event>
<event>
 8    1  0.1378634E-029  0.1566024E+04  0.7818608E-02  0.8841697E-01
         -4   -1    0    0    0  501 -0.00000000000E+00  0.00000000000E+00  0.42215851082E+03  0.42216042111E+03  0.12700000000E+01 0. -1.
          4   -1    0    0  501    0  0.00000000000E+00 -0.00000000000E+00 -0.14523109793E+04  0.14523115346E+04  0.12700000000E+01 0.  1.
     200001    2    1    2    0    0  0.20592702643E+02  0.32625325542E+03 -0.36102116793E+03  0.85241425504E+03  0.69957739559E+03 0.  0.
    5000001    2    3    3    0    0 -0.30655652687E+01  0.40548359073E+02  0.44616324565E+02  0.14762437376E+03  0.13471737897E+03 0.  0.
        -13    1    4    4    0    0 -0.16935383396E+02  0.63007814726E+02  0.73528527593E+02  0.98301818199E+02  0.10566000000E+00 0. -1.
     200003    1    4    4    0    0  0.13869818128E+02 -0.22459455653E+02 -0.28912203028E+02  0.49322555561E+02  0.30000000000E+02 0. -1.
     200000    1    3    3    0    0  0.23658267912E+02  0.28570489635E+03 -0.40563749249E+03  0.70478988128E+03  0.50000000000E+03 0. -1.
    -200001    1    1    2    0    0 -0.20592702643E+02 -0.32625325542E+03 -0.66913130054E+03  0.10220577006E+04  0.70000000000E+03 0. -1.
<mgrwt>
<rscale>  0 0.15660239E+04</rscale>
<asrwt>0</asrwt>
<pdfrwt beam="1">  1        4 0.20747317E+00 0.15660239E+04</pdfrwt>
<pdfrwt beam="2">  1       -4 0.60308535E-01 0.15660239E+04</pdfrwt>
<totfact> 0.58960031E-01</totfact>
</mgrwt>
</event>
<event>
 8    1  0.1378634E-029  0.2080968E+04  0.7818608E-02  0.8569674E-01
         -4   -1    0    0    0  501 -0.00000000000E+00  0.00000000000E+00  0.47198946795E+03  0.47199117657E+03  0.12700000000E+01 0. -1.
          4   -1    0    0  501    0  0.00000000000E+00 -0.00000000000E+00 -0.22937043796E+04  0.22937047312E+04  0.12700000000E+01 0.  1.
     200001    2    1    2    0    0 -0.20437935213E+02 -0.70181590871E+03 -0.49193302117E+03  0.11069966719E+04  0.70034295548E+03 0.  0.
    5000001    2    3    3    0    0 -0.26437485731E+02 -0.13781188428E+03 -0.22232359291E+03  0.30648072700E+03  0.15751698308E+03 0.  0.
        -13    1    4    4    0    0 -0.72237145542E+02 -0.12828814575E+03 -0.11958449002E+03  0.18967476098E+03  0.10566000000E+00 0. -1.
     200003    1    4    4    0    0  0.45799659811E+02 -0.95237385288E+01 -0.10273910289E+03  0.11680596602E+03  0.30000000000E+02 0. -1.
     200000    1    3    3    0    0  0.59995505182E+01 -0.56400402443E+03 -0.26960942826E+03  0.80051594486E+03  0.50000000000E+03 0. -1.
    -200001    1    1    2    0    0  0.20437935213E+02  0.70181590871E+03 -0.13297818905E+04  0.16586992359E+04  0.70000000000E+03 0.  1.
<mgrwt>
<rscale>  0 0.20809682E+04</rscale>
<asrwt>0</asrwt>
<pdfrwt beam="1">  1        4 0.32767220E+00 0.20809682E+04</pdfrwt>
<pdfrwt beam="2">  1       -4 0.67427215E-01 0.20809682E+04</pdfrwt>
<totfact> 0.78298665E-02</totfact>
</mgrwt>
</event>
<event>
 8    1  0.1378634E-029  0.1620179E+04  0.7818608E-02  0.8808247E-01
         -4   -1    0    0    0  501 -0.00000000000E+00  0.00000000000E+00  0.17961489632E+04  0.17961494122E+04  0.12700000000E+01 0.  1.
          4   -1    0    0  501    0  0.00000000000E+00 -0.00000000000E+00 -0.36536042044E+03  0.36536262771E+03  0.12700000000E+01 0. -1.
     200001    2    1    2    0    0 -0.15596877592E+03 -0.35132347561E+03  0.89504056304E+03  0.11998570387E+04  0.70057466428E+03 0.  0.
    5000001    2    3    3    0    0 -0.18059586856E+02 -0.84922634546E+02  0.28884911092E+03  0.35875274719E+03  0.19424655004E+03 0.  0.
        -13    1    4    4    0    0  0.79474437692E+01  0.59285001254E+01 -0.26441899827E+02  0.28239939920E+02  0.10566000000E+00 0. -1.
     200003    1    4    4    0    0 -0.26007030626E+02 -0.90851134672E+02  0.31529101075E+03  0.33051280727E+03  0.30000000000E+02 0. -1.
     200000    1    3    3    0    0 -0.13790918907E+03 -0.26640084107E+03  0.60619145212E+03  0.84110429149E+03  0.50000000000E+03 0.  1.
    -200001    1    1    2    0    0  0.15596877592E+03  0.35132347561E+03  0.53574797973E+03  0.96165500122E+03  0.70000000000E+03 0. -1.
<mgrwt>
<rscale>  0 0.16201785E+04</rscale>
<asrwt>0</asrwt>
<pdfrwt beam="1">  1        4 0.52194536E-01 0.16201785E+04</pdfrwt>
<pdfrwt beam="2">  1       -4 0.25659290E+00 0.16201785E+04</pdfrwt>
<totfact> 0.39123783E-01</totfact>
</mgrwt>
</event>
<event>
 8    1  0.1378634E-029  0.1502790E+04  0.7818608E-02  0.8882600E-01
         -4   -1    0    0    0  501 -0.00000000000E+00  0.00000000000E+00  0.64717423331E+03  0.64717547942E+03  0.12700000000E+01 0. -1.
          4   -1    0    0  501    0  0.00000000000E+00 -0.00000000000E+00 -0.87239638002E+03  0.87239730443E+03  0.12700000000E+01 0.  1.
     200001    2    1    2    0    0  0.76022671803E+02  0.13398787775E+02 -0.38318407324E+03  0.79783117886E+03  0.69551821101E+03 0.  0.
    5000001    2    3    3    0    0 -0.90498964931E+01 -0.11903677079E+02 -0.10005514680E+03  0.21641949547E+03  0.19131849744E+03 0.  0.
        -13    1    4    4    0    0 -0.37980607975E+02  0.79570539386E+02 -0.66531250513E+02  0.11045549230E+03  0.10566000000E+00 0. -1.
     200003    1    4    4    0    0  0.28930711482E+02 -0.91474216465E+02 -0.33523896285E+02  0.10596400317E+03  0.30000000000E+02 0. -1.
     200000    1    3    3    0    0  0.85072568296E+02  0.25302464854E+02 -0.28312892644E+03  0.58141168340E+03  0.50000000000E+03 0.  1.
    -200001    1    1    2    0    0 -0.76022671803E+02 -0.13398787775E+02  0.15796192653E+03  0.72174160499E+03  0.70000000000E+03 0. -1.
<mgrwt>
<rscale>  0 0.15027895E+04</rscale>
<asrwt>0</asrwt>
<pdfrwt beam="1">  1        4 0.12462821E+00 0.15027895E+04</pdfrwt>
<pdfrwt beam="2">  1       -4 0.92453618E-01 0.15027895E+04</pdfrwt>
<totfact> 0.92980699E-01</totfact>
</mgrwt>
</event>
<event>
 8    1  0.1378634E-029  0.1923134E+04  0.7818608E-02  0.8643426E-01
          4   -1    0    0  501    0  0.00000000000E+00  0.00000000000E+00  0.17661576014E+04  0.17661580580E+04  0.12700000000E+01 0.  1.
         -4   -1    0    0    0  501 -0.00000000000E+00 -0.00000000000E+00 -0.52351436958E+03  0.52351591003E+03  0.12700000000E+01 0. -1.
     200001    2    1    2    0    0 -0.50376763112E+03  0.32421781067E+03  0.29128699491E+03  0.96529573491E+03  0.69860484360E+03 0.  0.
    5000001    2    3    3    0    0 -0.14676581290E+03  0.18006332766E+03  0.16174799557E+03  0.32108213249E+03  0.15155301360E+03 0.  0.
        -13    1    4    4    0    0 -0.14963417375E+03  0.18751813051E+03  0.11777245568E+03  0.26725231094E+03  0.10566000000E+00 0. -1.
     200003    1    4    4    0    0  0.28683608437E+01 -0.74548028519E+01  0.43975539890E+02  0.53829821550E+02  0.30000000000E+02 0. -1.
     200000    1    3    3    0    0 -0.35700181822E+03  0.14415448301E+03  0.12953899934E+03  0.64421360241E+03  0.50000000000E+03 0. -1.
    -200001    1    1    2    0    0  0.50376763112E+03 -0.32421781067E+03  0.95135623693E+03  0.13243782332E+04  0.70000000000E+03 0. -1.
<mgrwt>
<rscale>  0 0.19231341E+04</rscale>
<asrwt>0</asrwt>
<pdfrwt beam="1">  1        4 0.25230837E+00 0.19231341E+04</pdfrwt>
<pdfrwt beam="2">  1       -4 0.74787909E-01 0.19231341E+04</pdfrwt>
<totfact> 0.18604439E-01</totfact>
</mgrwt>
</event>
<event>
 8    1  0.1378634E-029  0.1956271E+04  0.7818608E-02  0.8627343E-01
         -4   -1    0    0    0  501 -0.00000000000E+00  0.00000000000E+00  0.43655625814E+03  0.43655810544E+03  0.12700000000E+01 0. -1.
          4   -1    0    0  501    0  0.00000000000E+00 -0.00000000000E+00 -0.21915756383E+04  0.21915760063E+04  0.12700000000E+01 0.  1.
     200001    2    1    2    0    0 -0.64013454492E+03 -0.23565627256E+03 -0.94181357756E+03  0.13566744026E+04  0.69874638140E+03 0.  0.
    5000001    2    3    3    0    0  0.63157260057E+01 -0.43036466656E+02 -0.16811894740E+03  0.21491973410E+03  0.12662735002E+03 0.  0.
        -13    1    4    4    0    0  0.59209853902E+02 -0.34557244360E+02 -0.62596458248E+02  0.92835002483E+02  0.10566000000E+00 0. -1.
     200003    1    4    4    0    0 -0.52894127896E+02 -0.84792222965E+01 -0.10552248915E+03  0.12208473161E+03  0.30000000000E+02 0. -1.
     200000    1    3    3    0    0 -0.64645027093E+03 -0.19261980590E+03 -0.77369463016E+03  0.11417546685E+04  0.50000000000E+03 0.  1.
    -200001    1    1    2    0    0  0.64013454492E+03  0.23565627256E+03 -0.81320580259E+03  0.12714597091E+04  0.70000000000E+03 0. -1.
<mgrwt>
<rscale>  0 0.19562709E+04</rscale>
<asrwt>0</asrwt>
<pdfrwt beam="1">  1        4 0.31308239E+00 0.19562709E+04</pdfrwt>
<pdfrwt beam="2">  1       -4 0.62365339E-01 0.19562709E+04</pdfrwt>
<totfact> 0.11608867E-01</totfact>
</mgrwt>
</event>
<event>
 8    1  0.1378634E-029  0.1835682E+04  0.7818608E-02  0.8687551E-01
          4   -1    0    0  501    0  0.00000000000E+00  0.00000000000E+00  0.17534341968E+04  0.17534346567E+04  0.12700000000E+01 0.  1.
         -4   -1    0    0    0  501 -0.00000000000E+00 -0.00000000000E+00 -0.48044541424E+03  0.48044709278E+03  0.12700000000E+01 0. -1.
     200001    2    1    2    0    0  0.20954014823E+03 -0.38457695441E+03  0.14837862844E+03  0.83869197519E+03  0.69970101064E+03 0.  0.
    5000001    2    3    3    0    0  0.11145677741E+03 -0.11266826726E+03 -0.39382479482E+02  0.23139557686E+03  0.16393956697E+03 0.  0.
        -13    1    4    4    0    0 -0.22661530859E+02  0.65122097691E+01  0.28715715120E+02  0.37155851704E+02  0.10566000000E+00 0. -1.
     200003    1    4    4    0    0  0.13411830827E+03 -0.11918047703E+03 -0.68098194602E+02  0.19423972515E+03  0.30000000000E+02 0. -1.
     200000    1    3    3    0    0  0.98083370814E+02 -0.27190868715E+03  0.18776110792E+03  0.60729639833E+03  0.50000000000E+03 0.  1.
    -200001    1    1    2    0    0 -0.20954014823E+03  0.38457695441E+03  0.11246101541E+04  0.13951897743E+04  0.70000000000E+03 0.  1.
<mgrwt>
<rscale>  0 0.18356817E+04</rscale>
<asrwt>0</asrwt>
<pdfrwt beam="1">  1        4 0.25049075E+00 0.18356817E+04</pdfrwt>
<pdfrwt beam="2">  1       -4 0.68635212E-01 0.18356817E+04</pdfrwt>
<totfact> 0.23275485E-01</totfact>
</mgrwt>
</event>
<event>
 8    1  0.1466841E-029  0.1839733E+04  0.7818608E-02  0.8685451E-01
          4   -1    0    0  501    0  0.00000000000E+00  0.00000000000E+00  0.58186553341E+03  0.58186691938E+03  0.12700000000E+01 0.  1.
         -4   -1    0    0    0  501 -0.00000000000E+00 -0.00000000000E+00 -0.14542057439E+04  0.14542062985E+04  0.12700000000E+01 0. -1.
     200001    2    1    2    0    0 -0.55512210224E+03 -0.17061036325E+03 -0.56519423483E+03  0.10760695226E+04  0.70796373497E+03 0.  0.
    5000001    2    3    3    0    0 -0.16479815243E+03  0.28547629363E+00 -0.25339046937E+03  0.34889707960E+03  0.17425248820E+03 0.  0.
        -13    1    4    4    0    0 -0.65638342696E+02 -0.43402021565E+02 -0.21683238399E+03  0.23066950691E+03  0.10566000000E+00 0. -1.
     200003    1    4    4    0    0 -0.99159809739E+02  0.43687497858E+02 -0.36558085373E+02  0.11822757268E+03  0.30000000000E+02 0. -1.
     200000    1    3    3    0    0 -0.39032394981E+03 -0.17089583955E+03 -0.31180376546E+03  0.72717244305E+03  0.50000000000E+03 0. -1.
    -200001    1    1    2    0    0  0.55512210224E+03  0.17061036325E+03 -0.30714597566E+03  0.96000369521E+03  0.70000000000E+03 0. -1.
<mgrwt>
<rscale>  0 0.18397328E+04</rscale>
<asrwt>0</asrwt>
<pdfrwt beam="1">  1        4 0.83123786E-01 0.18397328E+04</pdfrwt>
<pdfrwt beam="2">  1       -4 0.20774382E+00 0.18397328E+04</pdfrwt>
<totfact> 0.28222898E-01</totfact>
</mgrwt>
</event>
<event>
 8    1  0.1378634E-029  0.1447706E+04  0.7818608E-02  0.8919993E-01
         -4   -1    0    0    0  501 -0.00000000000E+00  0.00000000000E+00  0.29276915327E+03  0.29277190781E+03  0.12700000000E+01 0.  1.
          4   -1    0    0  501    0  0.00000000000E+00 -0.00000000000E+00 -0.17896675967E+04  0.17896680473E+04  0.12700000000E+01 0. -1.
     200001    2    1    2    0    0  0.11323642935E+03  0.14478430088E+03 -0.72740952053E+03  0.10260791336E+04  0.69994913759E+03 0.  0.
    5000001    2    3    3    0    0 -0.10266711632E+03  0.55670333258E+02 -0.23156219283E+03  0.28417603171E+03  0.11616903664E+03 0.  0.
        -13    1    4    4    0    0 -0.12030963994E+02 -0.26653232948E+02 -0.89937134871E+02  0.94571868513E+02  0.10566000000E+00 0. -1.
     200003    1    4    4    0    0 -0.90636152321E+02  0.82323566206E+02 -0.14162505796E+03  0.18960416320E+03  0.30000000000E+02 0. -1.
     200000    1    3    3    0    0  0.21590354566E+03  0.89113967618E+02 -0.49584732770E+03  0.74190310192E+03  0.50000000000E+03 0.  1.
    -200001    1    1    2    0    0 -0.11323642935E+03 -0.14478430088E+03 -0.76948892290E+03  0.10563608215E+04  0.70000000000E+03 0.  1.
<mgrwt>
<rscale>  0 0.14477055E+04</rscale>
<asrwt>0</asrwt>
<pdfrwt beam="1">  1        4 0.25566702E+00 0.14477055E+04</pdfrwt>
<pdfrwt beam="2">  1       -4 0.41824395E-01 0.14477055E+04</pdfrwt>
<totfact> 0.63462246E-01</totfact>
</mgrwt>
</event>
<event>
 8    1  0.1378634E-029  0.1791113E+04  0.7818608E-02  0.8711040E-01
         -4   -1    0    0    0  501 -0.00000000000E+00  0.00000000000E+00  0.21063514554E+04  0.21063518383E+04  0.12700000000E+01 0. -1.
          4   -1    0    0  501    0  0.00000000000E+00 -0.00000000000E+00 -0.38076188660E+03  0.38076400459E+03  0.12700000000E+01 0.  1.
     200001    2    1    2    0    0  0.33369118739E+03 -0.15183338854E+03  0.27706300306E+03  0.83707572272E+03  0.69966325577E+03 0.  0.
    5000001    2    3    3    0    0  0.10396294679E+03  0.92892223898E+01  0.64049642011E+02  0.22543019444E+03  0.18926656325E+03 0.  0.
        -13    1    4    4    0    0  0.11479415915E+03 -0.42075776303E+02 -0.17925565472E+02  0.12356944197E+03  0.10566000000E+00 0. -1.
     200003    1    4    4    0    0 -0.10831212356E+02  0.51364998692E+02  0.81975207483E+02  0.10186075247E+03  0.30000000000E+02 0. -1.
     200000    1    3    3    0    0  0.22972824060E+03 -0.16112261092E+03  0.21301336105E+03  0.61164552828E+03  0.50000000000E+03 0.  1.
    -200001    1    1    2    0    0 -0.33369118739E+03  0.15183338854E+03  0.14485265657E+04  0.16500401201E+04  0.70000000000E+03 0. -1.
<mgrwt>
<rscale>  0 0.17911130E+04</rscale>
<asrwt>0</asrwt>
<pdfrwt beam="1">  1        4 0.54394733E-01 0.17911130E+04</pdfrwt>
<pdfrwt beam="2">  1       -4 0.30090754E+00 0.17911130E+04</pdfrwt>
<totfact> 0.18807804E-01</totfact>
</mgrwt>
</event>
<event>
 8    1  0.1378634E-029  0.2093485E+04  0.7818608E-02  0.8564119E-01
         -4   -1    0    0    0  501 -0.00000000000E+00  0.00000000000E+00  0.14079469030E+04  0.14079474758E+04  0.12700000000E+01 0. -1.
          4   -1    0    0  501    0  0.00000000000E+00 -0.00000000000E+00 -0.77820266504E+03  0.77820370134E+03  0.12700000000E+01 0.  1.
     200001    2    1    2    0    0  0.67975453463E+03 -0.16279867364E+03  0.67240422069E+03  0.11960049709E+04  0.69980770143E+03 0.  0.
    5000001    2    3    3    0    0  0.19088701444E+03 -0.82948044351E+02  0.12783873407E+02  0.23139801581E+03  0.10031641920E+03 0.  0.
        -13    1    4    4    0    0  0.15831363172E+03 -0.30694246973E+02 -0.22309841506E+01  0.16127718759E+03  0.10566000000E+00 0. -1.
     200003    1    4    4    0    0  0.32573382720E+02 -0.52253797378E+02  0.15014857557E+02  0.70120828216E+02  0.30000000000E+02 0. -1.
     200000    1    3    3    0    0  0.48886752019E+03 -0.79850629291E+02  0.65962034729E+03  0.96460695511E+03  0.50000000000E+03 0. -1.
    -200001    1    1    2    0    0 -0.67975453463E+03  0.16279867364E+03 -0.42659982751E+02  0.99014620618E+03  0.70000000000E+03 0.  1.
<mgrwt>
<rscale>  0 0.20934849E+04</rscale>
<asrwt>0</asrwt>
<pdfrwt beam="1">  1        4 0.11117193E+00 0.20934849E+04</pdfrwt>
<pdfrwt beam="2">  1       -4 0.20113538E+00 0.20934849E+04</pdfrwt>
<totfact> 0.15365791E-01</totfact>
</mgrwt>
</event>
<event>
 8    1  0.1378634E-029  0.1495738E+04  0.7818608E-02  0.8887292E-01
         -4   -1    0    0    0  501 -0.00000000000E+00  0.00000000000E+00  0.75755247640E+03  0.75755354095E+03  0.12700000000E+01 0. -1.
          4   -1    0    0  501    0  0.00000000000E+00 -0.00000000000E+00 -0.73830732721E+03  0.73830841950E+03  0.12700000000E+01 0.  1.
     200001    2    1    2    0    0  0.20800115565E+03 -0.56240710175E+02  0.16506833237E+03  0.74907424029E+03  0.69816700358E+03 0.  0.
    5000001    2    3    3    0    0  0.71248289301E+02 -0.58503483071E+02  0.81409174214E+02  0.22399774935E+03  0.18721261124E+03 0.  0.
        -13    1    4    4    0    0  0.10816291931E+03 -0.23559540661E+02 -0.14231839768E+02  0.11161014961E+03  0.10566000000E+00 0. -1.
     200003    1    4    4    0    0 -0.36914630006E+02 -0.34943942410E+02  0.95641013982E+02  0.11238759974E+03  0.30000000000E+02 0. -1.
     200000    1    3    3    0    0  0.13675286635E+03  0.22627728969E+01  0.83659158156E+02  0.52507649094E+03  0.50000000000E+03 0.  1.
    -200001    1    1    2    0    0 -0.20800115565E+03  0.56240710175E+02 -0.14582318317E+03  0.74678772016E+03  0.70000000000E+03 0.  1.
<mgrwt>
<rscale>  0 0.14957382E+04</rscale>
<asrwt>0</asrwt>
<pdfrwt beam="1">  1        4 0.10547263E+00 0.14957382E+04</pdfrwt>
<pdfrwt beam="2">  1       -4 0.10822194E+00 0.14957382E+04</pdfrwt>
<totfact> 0.96358809E-01</totfact>
</mgrwt>
</event>
<event>
 8    1  0.1378634E-029  0.1651085E+04  0.7818608E-02  0.8789765E-01
          4   -1    0    0  501    0  0.00000000000E+00  0.00000000000E+00  0.10900268093E+04  0.10900275491E+04  0.12700000000E+01 0.  1.
         -4   -1    0    0    0  501 -0.00000000000E+00 -0.00000000000E+00 -0.62523149382E+03  0.62523278366E+03  0.12700000000E+01 0. -1.
     200001    2    1    2    0    0 -0.66516828993E+02  0.41006345735E+03  0.89267241508E+02  0.81882413208E+03  0.69994842045E+03 0.  0.
    5000001    2    3    3    0    0 -0.10858406807E+03  0.42771704215E+02  0.13724227081E+02  0.19242199962E+03  0.15237438436E+03 0.  0.
        -13    1    4    4    0    0 -0.54671767366E+02 -0.38234712248E+02  0.51012390345E+02  0.83983156051E+02  0.10566000000E+00 0. -1.
     200003    1    4    4    0    0 -0.53912300706E+02  0.81006416463E+02 -0.37288163264E+02  0.10843884357E+03  0.30000000000E+02 0. -1.
     200000    1    3    3    0    0  0.42067239079E+02  0.36729175313E+03  0.75543014427E+02  0.62640213246E+03  0.50000000000E+03 0. -1.
    -200001    1    1    2    0    0  0.66516828993E+02 -0.41006345735E+03  0.37552807393E+03  0.89643620069E+03  0.70000000000E+03 0. -1.
<mgrwt>
<rscale>  0 0.16510855E+04</rscale>
<asrwt>0</asrwt>
<pdfrwt beam="1">  1        4 0.15571826E+00 0.16510855E+04</pdfrwt>
<pdfrwt beam="2">  1       -4 0.89318931E-01 0.16510855E+04</pdfrwt>
<totfact> 0.55818038E-01</totfact>
</mgrwt>
</event>
<event>
 8    1  0.1378634E-029  0.1515658E+04  0.7818608E-02  0.8874107E-01
          4   -1    0    0  501    0  0.00000000000E+00  0.00000000000E+00  0.81115770964E+03  0.81115870383E+03  0.12700000000E+01 0.  1.
         -4   -1    0    0    0  501 -0.00000000000E+00 -0.00000000000E+00 -0.70800415062E+03  0.70800528967E+03  0.12700000000E+01 0. -1.
     200001    2    1    2    0    0  0.19329714279E+03  0.17338335862E+03 -0.82644475135E+02  0.74978340891E+03  0.69851233099E+03 0.  0.
    5000001    2    3    3    0    0  0.56747628840E+02  0.10235903887E+03  0.16305245311E+02  0.21735381644E+03  0.18242575005E+03 0.  0.
        -13    1    4    4    0    0  0.78862136576E+02 -0.45011044890E+01 -0.42624662744E+02  0.89757281404E+02  0.10566000000E+00 0. -1.
     200003    1    4    4    0    0 -0.22114507736E+02  0.10686014336E+03  0.58929908055E+02  0.12759653504E+03  0.30000000000E+02 0. -1.
     200000    1    3    3    0    0  0.13654951395E+03  0.71024319753E+02 -0.98949720446E+02  0.53242959247E+03  0.50000000000E+03 0. -1.
    -200001    1    1    2    0    0 -0.19329714279E+03 -0.17338335862E+03  0.18579803415E+03  0.76938058459E+03  0.70000000000E+03 0.  1.
<mgrwt>
<rscale>  0 0.15156578E+04</rscale>
<asrwt>0</asrwt>
<pdfrwt beam="1">  1        4 0.11587983E+00 0.15156578E+04</pdfrwt>
<pdfrwt beam="2">  1       -4 0.10114360E+00 0.15156578E+04</pdfrwt>
<totfact> 0.90075427E-01</totfact>
</mgrwt>
</event>
<event>
 8    1  0.1378634E-029  0.1678131E+04  0.7818608E-02  0.8773936E-01
         -4   -1    0    0    0  501 -0.00000000000E+00  0.00000000000E+00  0.13108979948E+04  0.13108986100E+04  0.12700000000E+01 0.  1.
          4   -1    0    0  501    0  0.00000000000E+00 -0.00000000000E+00 -0.53705851138E+03  0.53706001299E+03  0.12700000000E+01 0. -1.
     200001    2    1    2    0    0 -0.17217053710E+03  0.19271751772E+03 -0.35797639072E+02  0.74691593280E+03  0.69987084825E+03 0.  0.
    5000001    2    3    3    0    0 -0.20581476033E+01  0.13547709334E+02  0.73000050751E+02  0.17869328048E+03  0.16252539703E+03 0.  0.
        -13    1    4    4    0    0 -0.11620454387E+02  0.74110357237E+02  0.80486796618E+02  0.11002506807E+03  0.10566000000E+00 0. -1.
     200003    1    4    4    0    0  0.95623067837E+01 -0.60562647902E+02 -0.74867458665E+01  0.68668212410E+02  0.30000000000E+02 0. -1.
     200000    1    3    3    0    0 -0.17011238950E+03  0.17916980838E+03 -0.10879768982E+03  0.56822265232E+03  0.50000000000E+03 0. -1.
    -200001    1    1    2    0    0  0.17217053710E+03 -0.19271751772E+03  0.80963712248E+03  0.11010426902E+04  0.70000000000E+03 0.  1.
<mgrwt>
<rscale>  0 0.16781310E+04</rscale>
<asrwt>0</asrwt>
<pdfrwt beam="1">  1        4 0.76722797E-01 0.16781310E+04</pdfrwt>
<pdfrwt beam="2">  1       -4 0.18727129E+00 0.16781310E+04</pdfrwt>
<totfact> 0.46898514E-01</totfact>
</mgrwt>
</event>
<event>
 8    1  0.1378634E-029  0.1514504E+04  0.7818608E-02  0.8874865E-01
         -4   -1    0    0    0  501 -0.00000000000E+00  0.00000000000E+00  0.37380359938E+03  0.37380575679E+03  0.12700000000E+01 0. -1.
          4   -1    0    0  501    0  0.00000000000E+00 -0.00000000000E+00 -0.15340351904E+04  0.15340357161E+04  0.12700000000E+01 0.  1.
     200001    2    1    2    0    0  0.63942802680E+02 -0.27088576899E+03 -0.48278500483E+03  0.89472664279E+03  0.69999044462E+03 0.  0.
    5000001    2    3    3    0    0  0.15316689549E+02 -0.10601957746E+03 -0.78050058891E+02  0.22887700777E+03  0.18659614468E+03 0.  0.
        -13    1    4    4    0    0 -0.26546184619E+02 -0.13228946611E+03 -0.99034822170E+02  0.16737117412E+03  0.10566000000E+00 0. -1.
     200003    1    4    4    0    0  0.41862874169E+02  0.26269888642E+02  0.20984763279E+02  0.61505833648E+02  0.30000000000E+02 0. -1.
     200000    1    3    3    0    0  0.48626113130E+02 -0.16486619153E+03 -0.40473494594E+03  0.66584963502E+03  0.50000000000E+03 0. -1.
    -200001    1    1    2    0    0 -0.63942802680E+02  0.27088576899E+03 -0.67744658623E+03  0.10131148301E+04  0.70000000000E+03 0.  1.
<mgrwt>
<rscale>  0 0.15145038E+04</rscale>
<asrwt>0</asrwt>
<pdfrwt beam="1">  1        4 0.21914807E+00 0.15145038E+04</pdfrwt>
<pdfrwt beam="2">  1       -4 0.53400707E-01 0.15145038E+04</pdfrwt>
<totfact> 0.64495829E-01</totfact>
</mgrwt>
</event>
<event>
 8    1  0.1378634E-029  0.1511369E+04  0.7818608E-02  0.8876928E-01
          4   -1    0    0  501    0  0.00000000000E+00  0.00000000000E+00  0.14858130620E+04  0.14858136048E+04  0.12700000000E+01 0.  1.
         -4   -1    0    0    0  501 -0.00000000000E+00 -0.00000000000E+00 -0.38433947474E+03  0.38434157301E+03  0.12700000000E+01 0. -1.
     200001    2    1    2    0    0  0.13834059938E+02  0.21571674778E+03  0.31724686312E+03  0.79696523590E+03  0.69841457501E+03 0.  0.
    5000001    2    3    3    0    0  0.58343018262E+02  0.77602691570E+01  0.65516011782E+02  0.19813690834E+03  0.17748734346E+03 0.  0.
        -13    1    4    4    0    0  0.96598806435E+02 -0.42282628800E+01 -0.20282747340E+02  0.98795792498E+02  0.10566000000E+00 0. -1.
     200003    1    4    4    0    0 -0.38255788173E+02  0.11988532037E+02  0.85798759122E+02  0.99341115839E+02  0.30000000000E+02 0. -1.
     200000    1    3    3    0    0 -0.44508958324E+02  0.20795647862E+03  0.25173085134E+03  0.59882832756E+03  0.50000000000E+03 0. -1.
    -200001    1    1    2    0    0 -0.13834059938E+02 -0.21571674778E+03  0.78422672416E+03  0.10731899419E+04  0.70000000000E+03 0.  1.
<mgrwt>
<rscale>  0 0.15113690E+04</rscale>
<asrwt>0</asrwt>
<pdfrwt beam="1">  1        4 0.21225919E+00 0.15113690E+04</pdfrwt>
<pdfrwt beam="2">  1       -4 0.54905829E-01 0.15113690E+04</pdfrwt>
<totfact> 0.67350399E-01</totfact>
</mgrwt>
</event>
<event>
 8    1  0.1378634E-029  0.1798751E+04  0.7818608E-02  0.8706964E-01
          4   -1    0    0  501    0  0.00000000000E+00  0.00000000000E+00  0.71626885462E+03  0.71626998052E+03  0.12700000000E+01 0. -1.
         -4   -1    0    0    0  501 -0.00000000000E+00 -0.00000000000E+00 -0.11292884778E+04  0.11292891919E+04  0.12700000000E+01 0.  1.
     200001    2    1    2    0    0 -0.50028718458E+03  0.20702398658E+03 -0.41968504024E+02  0.88596283487E+03  0.70001613650E+03 0.  0.
    5000001    2    3    3    0    0 -0.10584303603E+03  0.82016284120E+02  0.62647610824E+01  0.23516366472E+03  0.19321822594E+03 0.  0.
        -13    1    4    4    0    0 -0.81730773440E+02 -0.41226325382E+02 -0.37373956447E+02  0.98875441926E+02  0.10566000000E+00 0. -1.
     200003    1    4    4    0    0 -0.24112262586E+02  0.12324260950E+03  0.43638717529E+02  0.13628822279E+03  0.30000000000E+02 0. -1.
     200000    1    3    3    0    0 -0.39444414856E+03  0.12500770246E+03 -0.48233265106E+02  0.65079917015E+03  0.50000000000E+03 0. -1.
    -200001    1    1    2    0    0  0.50028718458E+03 -0.20702398658E+03 -0.37105111918E+03  0.95959633759E+03  0.70000000000E+03 0.  1.
<mgrwt>
<rscale>  0 0.17987505E+04</rscale>
<asrwt>0</asrwt>
<pdfrwt beam="1">  1        4 0.10232425E+00 0.17987505E+04</pdfrwt>
<pdfrwt beam="2">  1       -4 0.16132706E+00 0.17987505E+04</pdfrwt>
<totfact> 0.36371128E-01</totfact>
</mgrwt>
</event>
<event>
 8    1  0.1378634E-029  0.1432542E+04  0.7818608E-02  0.8930594E-01
         -4   -1    0    0    0  501 -0.00000000000E+00  0.00000000000E+00  0.28076628581E+04  0.28076631453E+04  0.12700000000E+01 0. -1.
          4   -1    0    0  501    0  0.00000000000E+00 -0.00000000000E+00 -0.18272743653E+03  0.18273184988E+03  0.12700000000E+01 0.  1.
     200001    2    1    2    0    0  0.13687337809E+03  0.57983346179E+02  0.12876318442E+04  0.14736625706E+04  0.70113423500E+03 0.  0.
    5000001    2    3    3    0    0  0.15383797282E+03  0.12088427879E+02  0.27995251018E+03  0.34769108722E+03  0.13676049212E+03 0.  0.
        -13    1    4    4    0    0 -0.10585041035E+02  0.20903624633E+01 -0.87878914304E+01  0.13915850990E+02  0.10566000000E+00 0. -1.
     200003    1    4    4    0    0  0.16442301385E+03  0.99980654154E+01  0.28874040161E+03  0.33377523623E+03  0.30000000000E+02 0. -1.
     200000    1    3    3    0    0 -0.16964594729E+02  0.45894918300E+02  0.10076793341E+04  0.11259714833E+04  0.50000000000E+03 0. -1.
    -200001    1    1    2    0    0 -0.13687337809E+03 -0.57983346179E+02  0.13373035773E+04  0.15167324247E+04  0.70000000000E+03 0.  1.
<mgrwt>
<rscale>  0 0.14325419E+04</rscale>
<asrwt>0</asrwt>
<pdfrwt beam="1">  1        4 0.26104258E-01 0.14325419E+04</pdfrwt>
<pdfrwt beam="2">  1       -4 0.40109499E+00 0.14325419E+04</pdfrwt>
<totfact> 0.18704358E-01</totfact>
</mgrwt>
</event>
<event>
 8    1  0.1378634E-029  0.2234482E+04  0.7818608E-02  0.8504212E-01
         -4   -1    0    0    0  501 -0.00000000000E+00  0.00000000000E+00  0.10298811918E+04  0.10298819748E+04  0.12700000000E+01 0. -1.
          4   -1    0    0  501    0  0.00000000000E+00 -0.00000000000E+00 -0.12120092381E+04  0.12120099035E+04  0.12700000000E+01 0.  1.
     200001    2    1    2    0    0 -0.24858464782E+03 -0.82538483883E+03 -0.21150395189E+03  0.11310735299E+04  0.70109838760E+03 0.  0.
    5000001    2    3    3    0    0 -0.20682286782E+02 -0.14114562026E+03  0.84050010674E+02  0.20507410271E+03  0.12100057934E+03 0.  0.
        -13    1    4    4    0    0 -0.97285240920E+01 -0.13983652684E+03  0.31663911979E+02  0.14370634261E+03  0.10566000000E+00 0. -1.
     200003    1    4    4    0    0 -0.10953762690E+02 -0.13090934194E+01  0.52386098696E+02  0.61367760096E+02  0.30000000000E+02 0. -1.
     200000    1    3    3    0    0 -0.22790236103E+03 -0.68423921857E+03 -0.29555396257E+03  0.92599942720E+03  0.50000000000E+03 0.  1.
    -200001    1    1    2    0    0  0.24858464782E+03  0.82538483883E+03  0.29375905553E+02  0.11108183484E+04  0.70000000000E+03 0.  1.
<mgrwt>
<rscale>  0 0.22344817E+04</rscale>
<asrwt>0</asrwt>
<pdfrwt beam="1">  1        4 0.17314428E+00 0.22344817E+04</pdfrwt>
<pdfrwt beam="2">  1       -4 0.14712599E+00 0.22344817E+04</pdfrwt>
<totfact> 0.11582437E-01</totfact>
</mgrwt>
</event>
<event>
 8    1  0.1378634E-029  0.1528309E+04  0.7818608E-02  0.8865843E-01
          4   -1    0    0  501    0  0.00000000000E+00  0.00000000000E+00  0.32370188924E+03  0.32370438056E+03  0.12700000000E+01 0.  1.
         -4   -1    0    0    0  501 -0.00000000000E+00 -0.00000000000E+00 -0.18039088233E+04  0.18039092703E+04  0.12700000000E+01 0. -1.
     200001    2    1    2    0    0  0.26930153030E+03 -0.10529446322E+03 -0.88955789837E+03  0.11671572377E+04  0.69809206046E+03 0.  0.
    5000001    2    3    3    0    0  0.93321734632E+02  0.49556469419E+02 -0.24273447673E+03  0.31667017812E+03  0.17376761982E+03 0.  0.
        -13    1    4    4    0    0  0.15755760943E+02 -0.98946688867E+01  0.24375973384E+02  0.30665089561E+02  0.10566000000E+00 0. -1.
     200003    1    4    4    0    0  0.77565973689E+02  0.59451138305E+02 -0.26711045011E+03  0.28600508856E+03  0.30000000000E+02 0. -1.
     200000    1    3    3    0    0  0.17597979567E+03 -0.15485093264E+03 -0.64682342164E+03  0.85048705963E+03  0.50000000000E+03 0.  1.
    -200001    1    1    2    0    0 -0.26930153030E+03  0.10529446322E+03 -0.59064903566E+03  0.96045641314E+03  0.70000000000E+03 0.  1.
<mgrwt>
<rscale>  0 0.15283086E+04</rscale>
<asrwt>0</asrwt>
<pdfrwt beam="1">  1        4 0.46243338E-01 0.15283086E+04</pdfrwt>
<pdfrwt beam="2">  1       -4 0.25770146E+00 0.15283086E+04</pdfrwt>
<totfact> 0.49900150E-01</totfact>
</mgrwt>
</event>
<event>
 8    1  0.1378634E-029  0.1847602E+04  0.7818608E-02  0.8681387E-01
         -4   -1    0    0    0  501 -0.00000000000E+00  0.00000000000E+00  0.10414702111E+04  0.10414709855E+04  0.12700000000E+01 0. -1.
          4   -1    0    0  501    0  0.00000000000E+00 -0.00000000000E+00 -0.81942523384E+03  0.81942621800E+03  0.12700000000E+01 0.  1.
     200001    2    1    2    0    0 -0.40134884900E+02 -0.35044609729E+03  0.60356838692E+03  0.98912694233E+03  0.69975283797E+03 0.  0.
    5000001    2    3    3    0    0  0.46700052529E+02 -0.16191626251E+03  0.18408039687E+03  0.30425178672E+03  0.17402811911E+03 0.  0.
        -13    1    4    4    0    0 -0.56352402578E+02 -0.80032913924E+02  0.11988031188E+03  0.15476485689E+03  0.10566000000E+00 0. -1.
     200003    1    4    4    0    0  0.10305245511E+03 -0.81883348587E+02  0.64200084995E+02  0.14948692984E+03  0.30000000000E+02 0. -1.
     200000    1    3    3    0    0 -0.86834937429E+02 -0.18852983478E+03  0.41948799005E+03  0.68487515560E+03  0.50000000000E+03 0. -1.
    -200001    1    1    2    0    0  0.40134884900E+02  0.35044609729E+03 -0.38152340964E+03  0.87177026113E+03  0.70000000000E+03 0.  1.
<mgrwt>
<rscale>  0 0.18476023E+04</rscale>
<asrwt>0</asrwt>
<pdfrwt beam="1">  1        4 0.11706087E+00 0.18476023E+04</pdfrwt>
<pdfrwt beam="2">  1       -4 0.14878158E+00 0.18476023E+04</pdfrwt>
<totfact> 0.32505612E-01</totfact>
</mgrwt>
</event>
<event>
 8    1  0.1378634E-029  0.1592625E+04  0.7818608E-02  0.8825091E-01
         -4   -1    0    0    0  501 -0.00000000000E+00  0.00000000000E+00  0.22142181269E+03  0.22142545481E+03  0.12700000000E+01 0. -1.
          4   -1    0    0  501    0  0.00000000000E+00 -0.00000000000E+00 -0.28638002877E+04  0.28638005693E+04  0.12700000000E+01 0.  1.
     200001    2    1    2    0    0  0.21953376634E+03  0.56667181429E+02 -0.19107922625E+04  0.20476207859E+04  0.70015538878E+03 0.  0.
    5000001    2    3    3    0    0  0.14719902767E+03 -0.95899912469E+02 -0.42966041872E+03  0.47527840233E+03  0.10206437842E+03 0.  0.
        -13    1    4    4    0    0 -0.12128700177E+02 -0.19638677302E+02 -0.36021449705E+02  0.42782461559E+02  0.10566000000E+00 0. -1.
     200003    1    4    4    0    0  0.15932772785E+03 -0.76261235167E+02 -0.39363896902E+03  0.43249594077E+03  0.30000000000E+02 0. -1.
     200000    1    3    3    0    0  0.72334738663E+02  0.15256709390E+03 -0.14811318437E+04  0.15723423836E+04  0.50000000000E+03 0.  1.
    -200001    1    1    2    0    0 -0.21953376634E+03 -0.56667181429E+02 -0.73158621253E+03  0.10376052382E+04  0.70000000000E+03 0. -1.
<mgrwt>
<rscale>  0 0.15926254E+04</rscale>
<asrwt>0</asrwt>
<pdfrwt beam="1">  1        4 0.40911459E+00 0.15926254E+04</pdfrwt>
<pdfrwt beam="2">  1       -4 0.31631969E-01 0.15926254E+04</pdfrwt>
<totfact> 0.11179474E-01</totfact>
</mgrwt>
</event>
<event>
 8    1  0.1378634E-029  0.1753423E+04  0.7818608E-02  0.8731468E-01
         -4   -1    0    0    0  501 -0.00000000000E+00  0.00000000000E+00  0.21565278412E+04  0.21565282152E+04  0.12700000000E+01 0. -1.
          4   -1    0    0  501    0  0.00000000000E+00 -0.00000000000E+00 -0.35641547545E+03  0.35641773812E+03  0.12700000000E+01 0.  1.
     200001    2    1    2    0    0  0.92305751295E+02 -0.47403690277E+03  0.59356913061E+03  0.10368098094E+04  0.69958482775E+03 0.  0.
    5000001    2    3    3    0    0  0.50305297496E+02 -0.10027638781E+03  0.80271153765E+02  0.22752878674E+03  0.18094174134E+03 0.  0.
        -13    1    4    4    0    0  0.10324638184E+03 -0.13753448260E+02  0.58745983400E+02  0.11958291864E+03  0.10566000000E+00 0. -1.
     200003    1    4    4    0    0 -0.52941084339E+02 -0.86522939553E+02  0.21525170365E+02  0.10794586810E+03  0.30000000000E+02 0. -1.
     200000    1    3    3    0    0  0.42000453799E+02 -0.37376051496E+03  0.51329797684E+03  0.80928102270E+03  0.50000000000E+03 0.  1.
    -200001    1    1    2    0    0 -0.92305751295E+02  0.47403690277E+03  0.12065432352E+04  0.14761361439E+04  0.70000000000E+03 0. -1.
<mgrwt>
<rscale>  0 0.17534232E+04</rscale>
<asrwt>0</asrwt>
<pdfrwt beam="1">  1        4 0.50916684E-01 0.17534232E+04</pdfrwt>
<pdfrwt beam="2">  1       -4 0.30807560E+00 0.17534232E+04</pdfrwt>
<totfact> 0.19560118E-01</totfact>
</mgrwt>
</event>
<event>
 8    1  0.1378634E-029  0.2088078E+04  0.7818608E-02  0.8566513E-01
          4   -1    0    0  501    0  0.00000000000E+00  0.00000000000E+00  0.64420276881E+03  0.64420402067E+03  0.12700000000E+01 0.  1.
         -4   -1    0    0    0  501 -0.00000000000E+00 -0.00000000000E+00 -0.16920378958E+04  0.16920383724E+04  0.12700000000E+01 0. -1.
     200001    2    1    2    0    0 -0.70277100433E+03 -0.31388339184E+03 -0.61969076167E+03  0.12112012979E+04  0.70041564506E+03 0.  0.
    5000001    2    3    3    0    0 -0.23229260816E+03 -0.91738385622E+02 -0.20289075653E+03  0.37788228980E+03  0.19812768272E+03 0.  0.
        -13    1    4    4    0    0 -0.22852065584E+03 -0.29929429674E+02 -0.93640100834E+02  0.24876884965E+03  0.10566000000E+00 0. -1.
     200003    1    4    4    0    0 -0.37719523221E+01 -0.61808955948E+02 -0.10925065569E+03  0.12911344015E+03  0.30000000000E+02 0. -1.
     200000    1    3    3    0    0 -0.47047839617E+03 -0.22214500622E+03 -0.41680000515E+03  0.83331900815E+03  0.50000000000E+03 0.  1.
    -200001    1    1    2    0    0  0.70277100433E+03  0.31388339184E+03 -0.42814436531E+03  0.11250410951E+04  0.70000000000E+03 0. -1.
<mgrwt>
<rscale>  0 0.20880781E+04</rscale>
<asrwt>0</asrwt>
<pdfrwt beam="1">  1        4 0.92029091E-01 0.20880781E+04</pdfrwt>
<pdfrwt beam="2">  1       -4 0.24171982E+00 0.20880781E+04</pdfrwt>
<totfact> 0.13289253E-01</totfact>
</mgrwt>
</event>
<event>
 8    1  0.1378634E-029  0.1534768E+04  0.7818608E-02  0.8861656E-01
         -4   -1    0    0    0  501 -0.00000000000E+00  0.00000000000E+00  0.23630074798E+04  0.23630078210E+04  0.12700000000E+01 0. -1.
          4   -1    0    0  501    0  0.00000000000E+00 -0.00000000000E+00 -0.24920517077E+03  0.24920840684E+03  0.12700000000E+01 0.  1.
     200001    2    1    2    0    0 -0.14759635457E+02  0.68178005314E+02  0.15681787895E+04  0.17219515974E+04  0.70786050940E+03 0.  0.
    5000001    2    3    3    0    0 -0.71738652853E+02  0.64343173780E+02  0.39867027621E+03  0.44876210759E+03  0.18210700631E+03 0.  0.
        -13    1    4    4    0    0 -0.10630967457E+02  0.87443878595E+02  0.70544271697E+02  0.11285368761E+03  0.10566000000E+00 0. -1.
     200003    1    4    4    0    0 -0.61107685397E+02 -0.23100704816E+02  0.32812600452E+03  0.33590841999E+03  0.30000000000E+02 0. -1.
     200000    1    3    3    0    0  0.56979017397E+02  0.38348315336E+01  0.11695085133E+04  0.12731894898E+04  0.50000000000E+03 0. -1.
    -200001    1    1    2    0    0  0.14759635457E+02 -0.68178005314E+02  0.54562351953E+03  0.89026463050E+03  0.70000000000E+03 0.  1.
<mgrwt>
<rscale>  0 0.15347682E+04</rscale>
<asrwt>0</asrwt>
<pdfrwt beam="1">  1        4 0.35600995E-01 0.15347682E+04</pdfrwt>
<pdfrwt beam="2">  1       -4 0.33757274E+00 0.15347682E+04</pdfrwt>
<totfact> 0.26878094E-01</totfact>
</mgrwt>
</event>
<event>
 8    1  0.1378634E-029  0.1438466E+04  0.7818608E-02  0.8926436E-01
         -4   -1    0    0    0  501 -0.00000000000E+00  0.00000000000E+00  0.36738713441E+03  0.36738932950E+03  0.12700000000E+01 0. -1.
          4   -1    0    0  501    0  0.00000000000E+00 -0.00000000000E+00 -0.14080340801E+04  0.14080346528E+04  0.12700000000E+01 0.  1.
     200001    2    1    2    0    0  0.89643729610E+02 -0.56784168499E+02 -0.67592376972E+03  0.97900484951E+03  0.70022647253E+03 0.  0.
    5000001    2    3    3    0    0  0.52177269393E+02 -0.18307176604E+02 -0.25906896111E+03  0.32581869993E+03  0.18969311651E+03 0.  0.
        -13    1    4    4    0    0  0.27139070647E+02 -0.10177136953E+03 -0.13294369217E+03  0.16961125335E+03  0.10566000000E+00 0. -1.
     200003    1    4    4    0    0  0.25038198746E+02  0.83464192930E+02 -0.12612526895E+03  0.15620744657E+03  0.30000000000E+02 0. -1.
     200000    1    3    3    0    0  0.37466460216E+02 -0.38476991895E+02 -0.41685480861E+03  0.65318614958E+03  0.50000000000E+03 0. -1.
    -200001    1    1    2    0    0 -0.89643729610E+02  0.56784168499E+02 -0.36472317594E+03  0.79641913282E+03  0.70000000000E+03 0. -1.
<mgrwt>
<rscale>  0 0.14384659E+04</rscale>
<asrwt>0</asrwt>
<pdfrwt beam="1">  1        4 0.20114792E+00 0.14384659E+04</pdfrwt>
<pdfrwt beam="2">  1       -4 0.52484075E-01 0.14384659E+04</pdfrwt>
<totfact> 0.87957510E-01</totfact>
</mgrwt>
</event>
<event>
 8    1  0.1378634E-029  0.1728551E+04  0.7818608E-02  0.8745246E-01
          4   -1    0    0  501    0  0.00000000000E+00  0.00000000000E+00  0.24814425722E+03  0.24814750712E+03  0.12700000000E+01 0. -1.
         -4   -1    0    0    0  501 -0.00000000000E+00 -0.00000000000E+00 -0.30102098309E+04  0.30102100988E+04  0.12700000000E+01 0.  1.
     200001    2    1    2    0    0  0.27414232886E+03  0.32805167123E+03 -0.86653801447E+03  0.11929770978E+04  0.69966728519E+03 0.  0.
    5000001    2    3    3    0    0  0.17287452200E+02  0.13967017908E+03 -0.10063607481E+03  0.22443809737E+03  0.14296232045E+03 0.  0.
        -13    1    4    4    0    0 -0.23661331749E+02  0.14734812388E+03 -0.73019979539E+02  0.16614227881E+03  0.10566000000E+00 0. -1.
     200003    1    4    4    0    0  0.40948783949E+02 -0.76779448014E+01 -0.27616095270E+02  0.58295818557E+02  0.30000000000E+02 0. -1.
     200000    1    3    3    0    0  0.25685487666E+03  0.18838149215E+03 -0.76590193966E+03  0.96853900047E+03  0.50000000000E+03 0. -1.
    -200001    1    1    2    0    0 -0.27414232886E+03 -0.32805167123E+03 -0.18955275592E+04  0.20653805081E+04  0.70000000000E+03 0. -1.
<mgrwt>
<rscale>  0 0.17285509E+04</rscale>
<asrwt>0</asrwt>
<pdfrwt beam="1">  1        4 0.35449433E-01 0.17285509E+04</pdfrwt>
<pdfrwt beam="2">  1       -4 0.43003020E+00 0.17285509E+04</pdfrwt>
<totfact> 0.62476147E-02</totfact>
</mgrwt>
</event>
<event>
 8    1  0.1378634E-029  0.1447537E+04  0.7818608E-02  0.8920110E-01
          4   -1    0    0  501    0  0.00000000000E+00  0.00000000000E+00  0.48260347298E+03  0.48260514402E+03  0.12700000000E+01 0.  1.
         -4   -1    0    0    0  501 -0.00000000000E+00 -0.00000000000E+00 -0.10854437682E+04  0.10854445112E+04  0.12700000000E+01 0. -1.
     200001    2    1    2    0    0  0.28864439701E+02  0.10707357952E+03 -0.14207444343E+03  0.72270766673E+03  0.69987378631E+03 0.  0.
    5000001    2    3    3    0    0  0.58695071867E+02  0.12991777378E+03 -0.96417974053E+02  0.21922356864E+03  0.13578957222E+03 0.  0.
        -13    1    4    4    0    0  0.93039204645E+02  0.56373405078E+02 -0.67304513471E+02  0.12792248864E+03  0.10566000000E+00 0. -1.
     200003    1    4    4    0    0 -0.34344132778E+02  0.73544368699E+02 -0.29113460581E+02  0.91301080008E+02  0.30000000000E+02 0. -1.
     200000    1    3    3    0    0 -0.29830632166E+02 -0.22844194254E+02 -0.45656469378E+02  0.50348409808E+03  0.50000000000E+03 0.  1.
    -200001    1    1    2    0    0 -0.28864439701E+02 -0.10707357952E+03 -0.46076585183E+03  0.84534198850E+03  0.70000000000E+03 0.  1.
<mgrwt>
<rscale>  0 0.14475370E+04</rscale>
<asrwt>0</asrwt>
<pdfrwt beam="1">  1        4 0.68943526E-01 0.14475370E+04</pdfrwt>
<pdfrwt beam="2">  1       -4 0.15506357E+00 0.14475370E+04</pdfrwt>
<totfact> 0.10287053E+00</totfact>
</mgrwt>
</event>
<event>
 8    1  0.1378634E-029  0.1624772E+04  0.7818608E-02  0.8805473E-01
          4   -1    0    0  501    0  0.00000000000E+00  0.00000000000E+00  0.48327304000E+03  0.48327470872E+03  0.12700000000E+01 0.  1.
         -4   -1    0    0    0  501 -0.00000000000E+00 -0.00000000000E+00 -0.13656225411E+04  0.13656231317E+04  0.12700000000E+01 0. -1.
     200001    2    1    2    0    0  0.40142980374E+03 -0.95090389490E+02 -0.43784367435E+03  0.92273721742E+03  0.69967765417E+03 0.  0.
    5000001    2    3    3    0    0  0.11160708455E+03 -0.24811075627E+02 -0.86138448807E+02  0.24256594767E+03  0.19582307273E+03 0.  0.
        -13    1    4    4    0    0  0.12063254111E+03  0.58477327776E+02 -0.30071770567E+02  0.13739043048E+03  0.10566000000E+00 0. -1.
     200003    1    4    4    0    0 -0.90254565629E+01 -0.83288403404E+02 -0.56066678240E+02  0.10517551719E+03  0.30000000000E+02 0. -1.
     200000    1    3    3    0    0  0.28982271919E+03 -0.70279313863E+02 -0.35170522554E+03  0.68017126975E+03  0.50000000000E+03 0.  1.
    -200001    1    1    2    0    0 -0.40142980374E+03  0.95090389490E+02 -0.44450582680E+03  0.92616062298E+03  0.70000000000E+03 0.  1.
<mgrwt>
<rscale>  0 0.16247715E+04</rscale>
<asrwt>0</asrwt>
<pdfrwt beam="1">  1        4 0.69039168E-01 0.16247715E+04</pdfrwt>
<pdfrwt beam="2">  1       -4 0.19508909E+00 0.16247715E+04</pdfrwt>
<totfact> 0.52761170E-01</totfact>
</mgrwt>
</event>
<event>
 8    1  0.1378634E-029  0.2210193E+04  0.7818608E-02  0.8514198E-01
         -4   -1    0    0    0  501 -0.00000000000E+00  0.00000000000E+00  0.17273801580E+04  0.17273806249E+04  0.12700000000E+01 0. -1.
          4   -1    0    0  501    0  0.00000000000E+00 -0.00000000000E+00 -0.70698727737E+03  0.70698841805E+03  0.12700000000E+01 0.  1.
     200001    2    1    2    0    0  0.21004619772E+02 -0.56500768800E+03  0.12168637989E+04  0.15133502031E+04  0.69985459254E+03 0.  0.
    5000001    2    3    3    0    0  0.67004453612E+02 -0.21156714550E+03  0.26112354250E+03  0.37735916465E+03  0.15800057229E+03 0.  0.
        -13    1    4    4    0    0  0.66928393858E+02 -0.38412493918E+02  0.21323229823E+02  0.80060107966E+02  0.10566000000E+00 0. -1.
     200003    1    4    4    0    0  0.76059753897E-01 -0.17315465158E+03  0.23980031267E+03  0.29729905669E+03  0.30000000000E+02 0. -1.
     200000    1    3    3    0    0 -0.45999833840E+02 -0.35344054250E+03  0.95574025641E+03  0.11359910385E+04  0.50000000000E+03 0. -1.
    -200001    1    1    2    0    0 -0.21004619772E+02  0.56500768800E+03 -0.19647091825E+03  0.92101883980E+03  0.70000000000E+03 0.  1.
<mgrwt>
<rscale>  0 0.22101925E+04</rscale>
<asrwt>0</asrwt>
<pdfrwt beam="1">  1        4 0.10099830E+00 0.22101925E+04</pdfrwt>
<pdfrwt beam="2">  1       -4 0.24676870E+00 0.22101925E+04</pdfrwt>
<totfact> 0.98203018E-02</totfact>
</mgrwt>
</event>
<event>
 8    1  0.1378634E-029  0.1411767E+04  0.7818608E-02  0.8945345E-01
         -4   -1    0    0    0  501 -0.00000000000E+00  0.00000000000E+00  0.69127187310E+03  0.69127303972E+03  0.12700000000E+01 0. -1.
          4   -1    0    0  501    0  0.00000000000E+00 -0.00000000000E+00 -0.72080158208E+03  0.72080270091E+03  0.12700000000E+01 0.  1.
     200001    2    1    2    0    0 -0.74470150510E+02 -0.48077931653E+02 -0.56459745547E+01  0.70608160213E+03  0.70047274108E+03 0.  0.
    5000001    2    3    3    0    0  0.11977653416E+02 -0.11224076443E+03 -0.84818760263E+01  0.19461495194E+03  0.15830850867E+03 0.  0.
        -13    1    4    4    0    0 -0.39022225685E+02  0.17776183220E+02 -0.26847443291E+02  0.50591730180E+02  0.10566000000E+00 0. -1.
     200003    1    4    4    0    0  0.50999879102E+02 -0.13001694765E+03  0.18365567265E+02  0.14402322176E+03  0.30000000000E+02 0. -1.
     200000    1    3    3    0    0 -0.86447803926E+02  0.64162832781E+02  0.28359014716E+01  0.51146665018E+03  0.50000000000E+03 0. -1.
    -200001    1    1    2    0    0  0.74470150510E+02  0.48077931653E+02 -0.23883734427E+02  0.70599413850E+03  0.70000000000E+03 0.  1.
<mgrwt>
<rscale>  0 0.14117669E+04</rscale>
<asrwt>0</asrwt>
<pdfrwt beam="1">  1        4 0.10297182E+00 0.14117669E+04</pdfrwt>
<pdfrwt beam="2">  1       -4 0.98753288E-01 0.14117669E+04</pdfrwt>
<totfact> 0.12797234E+00</totfact>
</mgrwt>
</event>
<event>
 8    1  0.1378634E-029  0.1489525E+04  0.7818608E-02  0.8891448E-01
         -4   -1    0    0    0  501 -0.00000000000E+00  0.00000000000E+00  0.75805683616E+03  0.75805790000E+03  0.12700000000E+01 0. -1.
          4   -1    0    0  501    0  0.00000000000E+00 -0.00000000000E+00 -0.73169967331E+03  0.73170077546E+03  0.12700000000E+01 0.  1.
     200001    2    1    2    0    0  0.44821356082E+02  0.68726626844E+02 -0.22696188904E+03  0.74082420219E+03  0.70041166201E+03 0.  0.
    5000001    2    3    3    0    0  0.82635297612E+02 -0.41980657192E+01 -0.15303924731E+03  0.22875734921E+03  0.14853517238E+03 0.  0.
        -13    1    4    4    0    0  0.95152984549E+02  0.43801194173E+02 -0.64781893892E+02  0.12316387465E+03  0.10566000000E+00 0. -1.
     200003    1    4    4    0    0 -0.12517686937E+02 -0.47999259893E+02 -0.88257353420E+02  0.10559347456E+03  0.30000000000E+02 0. -1.
     200000    1    3    3    0    0 -0.37813941529E+02  0.72924692563E+02 -0.73922641732E+02  0.51206685298E+03  0.50000000000E+03 0.  1.
    -200001    1    1    2    0    0 -0.44821356082E+02 -0.68726626844E+02  0.25331905190E+03  0.74893447327E+03  0.70000000000E+03 0. -1.
<mgrwt>
<rscale>  0 0.14895255E+04</rscale>
<asrwt>0</asrwt>
<pdfrwt beam="1">  1        4 0.10452868E+00 0.14895255E+04</pdfrwt>
<pdfrwt beam="2">  1       -4 0.10829399E+00 0.14895255E+04</pdfrwt>
<totfact> 0.98356246E-01</totfact>
</mgrwt>
</event>
<event>
 8    1  0.1378634E-029  0.1492687E+04  0.7818608E-02  0.8889331E-01
         -4   -1    0    0    0  501 -0.00000000000E+00  0.00000000000E+00  0.15825023923E+03  0.15825533519E+03  0.12700000000E+01 0. -1.
          4   -1    0    0  501    0  0.00000000000E+00 -0.00000000000E+00 -0.35198591779E+04  0.35198594071E+04  0.12700000000E+01 0.  1.
     200001    2    1    2    0    0 -0.22691554046E+03  0.10843303107E+03 -0.18408900253E+04  0.19852371925E+04  0.69931555154E+03 0.  0.
    5000001    2    3    3    0    0 -0.16304842463E+03  0.66594929796E+02 -0.62021828043E+03  0.66392385197E+03  0.15844397241E+03 0.  0.
        -13    1    4    4    0    0 -0.60691855674E+02 -0.30599677842E+01 -0.43440315635E+03  0.43863307919E+03  0.10566000000E+00 0. -1.
     200003    1    4    4    0    0 -0.10235656896E+03  0.69654897580E+02 -0.18581512408E+03  0.22529077279E+03  0.30000000000E+02 0. -1.
     200000    1    3    3    0    0 -0.63867115828E+02  0.41838101276E+02 -0.12206717449E+04  0.13213133405E+04  0.50000000000E+03 0.  1.
    -200001    1    1    2    0    0  0.22691554046E+03 -0.10843303107E+03 -0.15207189134E+04  0.16928775497E+04  0.70000000000E+03 0. -1.
<mgrwt>
<rscale>  0 0.14926866E+04</rscale>
<asrwt>0</asrwt>
<pdfrwt beam="1">  1        4 0.50283736E+00 0.14926866E+04</pdfrwt>
<pdfrwt beam="2">  1       -4 0.22607560E-01 0.14926866E+04</pdfrwt>
<totfact> 0.42082022E-02</totfact>
</mgrwt>
</event>
<event>
 8    1  0.1378634E-029  0.2050861E+04  0.7818608E-02  0.8583204E-01
         -4   -1    0    0    0  501 -0.00000000000E+00  0.00000000000E+00  0.52762559859E+03  0.52762712704E+03  0.12700000000E+01 0. -1.
          4   -1    0    0  501    0  0.00000000000E+00 -0.00000000000E+00 -0.19928999267E+04  0.19929003313E+04  0.12700000000E+01 0.  1.
     200001    2    1    2    0    0 -0.99262676453E+02 -0.27648375758E+03 -0.15798766718E+04  0.17527839827E+04  0.69996074521E+03 0.  0.
    5000001    2    3    3    0    0 -0.12392610473E+02 -0.14777918135E+03 -0.62456867922E+03  0.66341506588E+03  0.16745522187E+03 0.  0.
        -13    1    4    4    0    0  0.90308837849E+00 -0.13217294393E+03 -0.61018295003E+03  0.62433464291E+03  0.10566000000E+00 0. -1.
     200003    1    4    4    0    0 -0.13295698851E+02 -0.15606237421E+02 -0.14385729197E+02  0.39080422962E+02  0.30000000000E+02 0. -1.
     200000    1    3    3    0    0 -0.86870065981E+02 -0.12870457624E+03 -0.95530799261E+03  0.10893689169E+04  0.50000000000E+03 0.  1.
    -200001    1    1    2    0    0  0.99262676453E+02  0.27648375758E+03  0.11460234376E+03  0.76774347561E+03  0.70000000000E+03 0. -1.
<mgrwt>
<rscale>  0 0.20508607E+04</rscale>
<asrwt>0</asrwt>
<pdfrwt beam="1">  1        4 0.28470012E+00 0.20508607E+04</pdfrwt>
<pdfrwt beam="2">  1       -4 0.75375225E-01 0.20508607E+04</pdfrwt>
<totfact> 0.11396887E-01</totfact>
</mgrwt>
</event>
<event>
 8    1  0.1378634E-029  0.1591763E+04  0.7818608E-02  0.8825624E-01
          4   -1    0    0  501    0  0.00000000000E+00  0.00000000000E+00  0.17346227638E+03  0.17346692546E+03  0.12700000000E+01 0.  1.
         -4   -1    0    0    0  501 -0.00000000000E+00 -0.00000000000E+00 -0.36516174292E+04  0.36516176501E+04  0.12700000000E+01 0. -1.
     200001    2    1    2    0    0  0.30754207715E+03 -0.19025246557E+03 -0.14602360579E+04  0.16588030602E+04  0.69897075612E+03 0.  0.
    5000001    2    3    3    0    0  0.93733747962E+02  0.10548906691E+02 -0.21163024651E+03  0.28219430498E+03  0.16108683866E+03 0.  0.
        -13    1    4    4    0    0  0.46625283322E+02  0.82064021200E+02 -0.12599275187E+03  0.15742491959E+03  0.10566000000E+00 0. -1.
     200003    1    4    4    0    0  0.47108464640E+02 -0.71515114509E+02 -0.85637494633E+02  0.12476938539E+03  0.30000000000E+02 0. -1.
     200000    1    3    3    0    0  0.21380832918E+03 -0.20080137226E+03 -0.12486058114E+04  0.13766087552E+04  0.50000000000E+03 0.  1.
    -200001    1    1    2    0    0 -0.30754207715E+03  0.19025246557E+03 -0.20179190950E+04  0.21662815153E+04  0.70000000000E+03 0. -1.
<mgrwt>
<rscale>  0 0.15917628E+04</rscale>
<asrwt>0</asrwt>
<pdfrwt beam="1">  1        4 0.24780675E-01 0.15917628E+04</pdfrwt>
<pdfrwt beam="2">  1       -4 0.52165993E+00 0.15917628E+04</pdfrwt>
<totfact> 0.24595743E-02</totfact>
</mgrwt>
</event>
<event>
 8    1  0.1378634E-029  0.1941875E+04  0.7818608E-02  0.8634289E-01
         -4   -1    0    0    0  501 -0.00000000000E+00  0.00000000000E+00  0.41570162937E+03  0.41570356934E+03  0.12700000000E+01 0. -1.
          4   -1    0    0  501    0  0.00000000000E+00 -0.00000000000E+00 -0.22677718967E+04  0.22677722524E+04  0.12700000000E+01 0.  1.
     200001    2    1    2    0    0  0.13736388616E+03  0.52564154786E+03 -0.14742424990E+04  0.17201888984E+04  0.70035064516E+03 0.  0.
    5000001    2    3    3    0    0 -0.15707515956E+02  0.76486788075E+02 -0.34567649525E+03  0.39775474984E+03  0.18060909957E+03 0.  0.
        -13    1    4    4    0    0  0.69433253944E+02 -0.10372735411E+02 -0.14658898411E+03  0.16253280229E+03  0.10566000000E+00 0. -1.
     200003    1    4    4    0    0 -0.85140769900E+02  0.86859523486E+02 -0.19908751113E+03  0.23522194755E+03  0.30000000000E+02 0. -1.
     200000    1    3    3    0    0  0.15307140212E+03  0.44915475978E+03 -0.11285660038E+04  0.13224341486E+04  0.50000000000E+03 0.  1.
    -200001    1    1    2    0    0 -0.13736388616E+03 -0.52564154786E+03 -0.37782776835E+03  0.96328692330E+03  0.70000000000E+03 0. -1.
<mgrwt>
<rscale>  0 0.19418749E+04</rscale>
<asrwt>0</asrwt>
<pdfrwt beam="1">  1        4 0.32396757E+00 0.19418749E+04</pdfrwt>
<pdfrwt beam="2">  1       -4 0.59386112E-01 0.19418749E+04</pdfrwt>
<totfact> 0.11027924E-01</totfact>
</mgrwt>
</event>
<event>
 8    1  0.1378634E-029  0.1524299E+04  0.7818608E-02  0.8868453E-01
         -4   -1    0    0    0  501 -0.00000000000E+00  0.00000000000E+00  0.17012186435E+04  0.17012191176E+04  0.12700000000E+01 0. -1.
          4   -1    0    0  501    0  0.00000000000E+00 -0.00000000000E+00 -0.34144295414E+03  0.34144531602E+03  0.12700000000E+01 0.  1.
     200001    2    1    2    0    0 -0.13427194082E+03 -0.42776347702E+02  0.10366523870E+04  0.12589122798E+04  0.70025223081E+03 0.  0.
    5000001    2    3    3    0    0  0.21360887763E+02  0.50834489907E+01  0.18319731983E+03  0.25646642632E+03  0.17813377237E+03 0.  0.
        -13    1    4    4    0    0  0.46491587785E+02  0.55315931799E+02  0.17855234516E+03  0.19261949842E+03  0.10566000000E+00 0. -1.
     200003    1    4    4    0    0 -0.25130700022E+02 -0.50232482808E+02  0.46449746651E+01  0.63846927901E+02  0.30000000000E+02 0. -1.
     200000    1    3    3    0    0 -0.15563282859E+03 -0.47859796693E+02  0.85345506720E+03  0.10024458535E+04  0.50000000000E+03 0. -1.
    -200001    1    1    2    0    0  0.13427194082E+03  0.42776347702E+02  0.32312330237E+03  0.78375215378E+03  0.70000000000E+03 0.  1.
<mgrwt>
<rscale>  0 0.15242992E+04</rscale>
<asrwt>0</asrwt>
<pdfrwt beam="1">  1        4 0.48777766E-01 0.15242992E+04</pdfrwt>
<pdfrwt beam="2">  1       -4 0.24303144E+00 0.15242992E+04</pdfrwt>
<totfact> 0.55109519E-01</totfact>
</mgrwt>
</event>
<event>
 8    1  0.1378634E-029  0.1447536E+04  0.7818608E-02  0.8920110E-01
          4   -1    0    0  501    0  0.00000000000E+00  0.00000000000E+00  0.42204769360E+03  0.42204960440E+03  0.12700000000E+01 0.  1.
         -4   -1    0    0    0  501 -0.00000000000E+00 -0.00000000000E+00 -0.12411820908E+04  0.12411827405E+04  0.12700000000E+01 0. -1.
     200001    2    1    2    0    0  0.16936246876E+03  0.64886838251E+02 -0.36879040288E+03  0.81134992300E+03  0.69956299837E+03 0.  0.
    5000001    2    3    3    0    0  0.24758351216E+02  0.13006917928E+02 -0.14441799449E+03  0.24218838653E+03  0.19239672962E+03 0.  0.
        -13    1    4    4    0    0  0.42807405595E+02  0.20938419387E+02  0.35056079453E+02  0.59159371624E+02  0.10566000000E+00 0. -1.
     200003    1    4    4    0    0 -0.18049054379E+02 -0.79315014590E+01 -0.17947407395E+03  0.18302901491E+03  0.30000000000E+02 0. -1.
     200000    1    3    3    0    0  0.14460411754E+03  0.51879920323E+02 -0.22437240839E+03  0.56916153646E+03  0.50000000000E+03 0. -1.
    -200001    1    1    2    0    0 -0.16936246876E+03 -0.64886838251E+02 -0.45034399431E+03  0.85188242194E+03  0.70000000000E+03 0. -1.
<mgrwt>
<rscale>  0 0.14475361E+04</rscale>
<asrwt>0</asrwt>
<pdfrwt beam="1">  1        4 0.60292711E-01 0.14475361E+04</pdfrwt>
<pdfrwt beam="2">  1       -4 0.17731191E+00 0.14475361E+04</pdfrwt>
<totfact> 0.94939954E-01</totfact>
</mgrwt>
</event>
<event>
 8    1  0.1378634E-029  0.1527630E+04  0.7818608E-02  0.8866284E-01
          4   -1    0    0  501    0  0.00000000000E+00  0.00000000000E+00  0.46733284351E+03  0.46733456915E+03  0.12700000000E+01 0.  1.
         -4   -1    0    0    0  501 -0.00000000000E+00 -0.00000000000E+00 -0.12483853521E+04  0.12483859981E+04  0.12700000000E+01 0. -1.
     200001    2    1    2    0    0 -0.14805896186E+03 -0.42629667633E+02 -0.94100789944E+02  0.72292582085E+03  0.70002002760E+03 0.  0.
    5000001    2    3    3    0    0 -0.11351823508E+03 -0.31971855005E+02  0.27581794179E+02  0.20706411259E+03  0.16794702183E+03 0.  0.
        -13    1    4    4    0    0 -0.71302587520E+02  0.49521692054E+02 -0.33226906709E+02  0.92954265445E+02  0.10566000000E+00 0. -1.
     200003    1    4    4    0    0 -0.42215647559E+02 -0.81493547058E+02  0.60808700888E+02  0.11410984714E+03  0.30000000000E+02 0. -1.
     200000    1    3    3    0    0 -0.34540726782E+02 -0.10657812629E+02 -0.12168258412E+03  0.51586170827E+03  0.50000000000E+03 0.  1.
    -200001    1    1    2    0    0  0.14805896186E+03  0.42629667633E+02 -0.68695171868E+03  0.99279474643E+03  0.70000000000E+03 0. -1.
<mgrwt>
<rscale>  0 0.15276302E+04</rscale>
<asrwt>0</asrwt>
<pdfrwt beam="1">  1        4 0.66762005E-01 0.15276302E+04</pdfrwt>
<pdfrwt beam="2">  1       -4 0.17834093E+00 0.15276302E+04</pdfrwt>
<totfact> 0.74420610E-01</totfact>
</mgrwt>
</event>
<event>
 8    1  0.1378634E-029  0.1473499E+04  0.7818608E-02  0.8902270E-01
         -4   -1    0    0    0  501 -0.00000000000E+00  0.00000000000E+00  0.63799968871E+03  0.63800095273E+03  0.12700000000E+01 0. -1.
          4   -1    0    0  501    0  0.00000000000E+00 -0.00000000000E+00 -0.85078118627E+03  0.85078213417E+03  0.12700000000E+01 0.  1.
     200001    2    1    2    0    0  0.15021871947E+03  0.10048200419E+03  0.37978958742E+02  0.72357520450E+03  0.69961159110E+03 0.  0.
    5000001    2    3    3    0    0  0.24868190634E+01 -0.35000862686E+02 -0.45682212925E+02  0.17843346764E+03  0.16887981863E+03 0.  0.
        -13    1    4    4    0    0  0.17221175858E+02 -0.57201094238E+02  0.47927321733E+02  0.76587031621E+02  0.10566000000E+00 0. -1.
     200003    1    4    4    0    0 -0.14734356794E+02  0.22200231553E+02 -0.93609534658E+02  0.10184643602E+03  0.30000000000E+02 0. -1.
     200000    1    3    3    0    0  0.14773190041E+03  0.13548286687E+03  0.83661171667E+02  0.54514173685E+03  0.50000000000E+03 0. -1.
    -200001    1    1    2    0    0 -0.15021871947E+03 -0.10048200419E+03 -0.25076045631E+03  0.76520788240E+03  0.70000000000E+03 0.  1.
<mgrwt>
<rscale>  0 0.14734989E+04</rscale>
<asrwt>0</asrwt>
<pdfrwt beam="1">  1        4 0.12154033E+00 0.14734989E+04</pdfrwt>
<pdfrwt beam="2">  1       -4 0.91142971E-01 0.14734989E+04</pdfrwt>
<totfact> 0.10259333E+00</totfact>
</mgrwt>
</event>
<event>
 8    1  0.1378634E-029  0.1801188E+04  0.7818608E-02  0.8705668E-01
         -4   -1    0    0    0  501 -0.00000000000E+00  0.00000000000E+00  0.15752654780E+04  0.15752659899E+04  0.12700000000E+01 0. -1.
          4   -1    0    0  501    0  0.00000000000E+00 -0.00000000000E+00 -0.51487646984E+03  0.51487803613E+03  0.12700000000E+01 0.  1.
     200001    2    1    2    0    0 -0.49447014423E+03 -0.13258947416E+03  0.24904563773E+03  0.90255876306E+03  0.70036269097E+03 0.  0.
    5000001    2    3    3    0    0 -0.13988253618E+03 -0.41264775744E+02  0.13232324068E+03  0.27192678615E+03  0.18752288222E+03 0.  0.
        -13    1    4    4    0    0 -0.39254602429E+01 -0.87573322391E+02  0.28483380088E+02  0.92172719055E+02  0.10566000000E+00 0. -1.
     200003    1    4    4    0    0 -0.13595707594E+03  0.46308546646E+02  0.10383986059E+03  0.17975406710E+03  0.30000000000E+02 0. -1.
     200000    1    3    3    0    0 -0.35458760804E+03 -0.91324698413E+02  0.11672239706E+03  0.63063197690E+03  0.50000000000E+03 0.  1.
    -200001    1    1    2    0    0  0.49447014423E+03  0.13258947416E+03  0.81134337040E+03  0.11875852630E+04  0.70000000000E+03 0. -1.
<mgrwt>
<rscale>  0 0.18011877E+04</rscale>
<asrwt>0</asrwt>
<pdfrwt beam="1">  1        4 0.73553928E-01 0.18011877E+04</pdfrwt>
<pdfrwt beam="2">  1       -4 0.22503808E+00 0.18011877E+04</pdfrwt>
<totfact> 0.28900428E-01</totfact>
</mgrwt>
</event>
<event>
 8    1  0.1378634E-029  0.1913147E+04  0.7818608E-02  0.8648340E-01
         -4   -1    0    0    0  501 -0.00000000000E+00  0.00000000000E+00  0.53565006007E+03  0.53565156562E+03  0.12700000000E+01 0.  1.
          4   -1    0    0  501    0  0.00000000000E+00 -0.00000000000E+00 -0.17082620065E+04  0.17082624786E+04  0.12700000000E+01 0. -1.
     200001    2    1    2    0    0  0.55375672702E+03 -0.12970254047E+03 -0.21219689934E+03  0.92639124579E+03  0.69978850695E+03 0.  0.
    5000001    2    3    3    0    0  0.24876250981E+03 -0.36007098600E+02 -0.44705734598E+02  0.31006860413E+03  0.17596772182E+03 0.  0.
        -13    1    4    4    0    0 -0.19650563447E+02 -0.40006255330E+01  0.22270548245E+02  0.29968952795E+02  0.10566000000E+00 0. -1.
     200003    1    4    4    0    0  0.26841307326E+03 -0.32006473067E+02 -0.66976282843E+02  0.28009965133E+03  0.30000000000E+02 0. -1.
     200000    1    3    3    0    0  0.30499421721E+03 -0.93695441867E+02 -0.16749116474E+03  0.61632264166E+03  0.50000000000E+03 0.  1.
    -200001    1    1    2    0    0 -0.55375672702E+03  0.12970254047E+03 -0.96041504712E+03  0.13175227985E+04  0.70000000000E+03 0. -1.
<mgrwt>
<rscale>  0 0.19131470E+04</rscale>
<asrwt>0</asrwt>
<pdfrwt beam="1">  1        4 0.24403757E+00 0.19131470E+04</pdfrwt>
<pdfrwt beam="2">  1       -4 0.76521579E-01 0.19131470E+04</pdfrwt>
<totfact> 0.19910430E-01</totfact>
</mgrwt>
</event>
<event>
 8    1  0.1378634E-029  0.1476800E+04  0.7818608E-02  0.8900029E-01
          4   -1    0    0  501    0  0.00000000000E+00  0.00000000000E+00  0.46557687260E+03  0.46557860475E+03  0.12700000000E+01 0.  1.
         -4   -1    0    0    0  501 -0.00000000000E+00 -0.00000000000E+00 -0.11710895519E+04  0.11710902405E+04  0.12700000000E+01 0. -1.
     200001    2    1    2    0    0  0.17214816966E+03 -0.16196644616E+03 -0.39876574481E+03  0.83669271823E+03  0.69654322443E+03 0.  0.
    5000001    2    3    3    0    0  0.80797343478E+02 -0.62616456141E+02 -0.16783313133E+03  0.26964310318E+03  0.18463588986E+03 0.  0.
        -13    1    4    4    0    0 -0.29057743674E+02 -0.75036882664E+02 -0.20537695367E+02  0.83046338404E+02  0.10566000000E+00 0. -1.
     200003    1    4    4    0    0  0.10985508715E+03  0.12420426523E+02 -0.14729543596E+03  0.18659676477E+03  0.30000000000E+02 0. -1.
     200000    1    3    3    0    0  0.91350826183E+02 -0.99349990018E+02 -0.23093261348E+03  0.56704961505E+03  0.50000000000E+03 0.  1.
    -200001    1    1    2    0    0 -0.17214816966E+03  0.16196644616E+03 -0.30674693445E+03  0.79997612702E+03  0.70000000000E+03 0.  1.
<mgrwt>
<rscale>  0 0.14767995E+04</rscale>
<asrwt>0</asrwt>
<pdfrwt beam="1">  1        4 0.66511155E-01 0.14767995E+04</pdfrwt>
<pdfrwt beam="2">  1       -4 0.16729868E+00 0.14767995E+04</pdfrwt>
<totfact> 0.90197274E-01</totfact>
</mgrwt>
</event>
<event>
 8    1  0.1378634E-029  0.1417761E+04  0.7818608E-02  0.8941062E-01
          4   -1    0    0  501    0  0.00000000000E+00  0.00000000000E+00  0.11593359241E+04  0.11593366197E+04  0.12700000000E+01 0.  1.
         -4   -1    0    0    0  501 -0.00000000000E+00 -0.00000000000E+00 -0.43344606853E+03  0.43344792908E+03  0.12700000000E+01 0. -1.
     200001    2    1    2    0    0  0.78785340406E+02 -0.57775067304E+02  0.30216364787E+03  0.76871599134E+03  0.70005451001E+03 0.  0.
    5000001    2    3    3    0    0 -0.51417315598E+02 -0.29509101116E+02  0.22458834440E+03  0.24548599967E+03  0.79428736610E+02 0.  0.
        -13    1    4    4    0    0 -0.30734798112E+01 -0.37142484162E+02  0.54940476583E+02  0.66388835952E+02  0.10566000000E+00 0. -1.
     200003    1    4    4    0    0 -0.48343835787E+02  0.76333830456E+01  0.16964786782E+03  0.17909716372E+03  0.30000000000E+02 0. -1.
     200000    1    3    3    0    0  0.13020265600E+03 -0.28265966188E+02  0.77575303467E+02  0.52322999167E+03  0.50000000000E+03 0. -1.
    -200001    1    1    2    0    0 -0.78785340406E+02  0.57775067304E+02  0.42372620767E+03  0.82406855742E+03  0.70000000000E+03 0.  1.
<mgrwt>
<rscale>  0 0.14177611E+04</rscale>
<asrwt>0</asrwt>
<pdfrwt beam="1">  1        4 0.16561960E+00 0.14177611E+04</pdfrwt>
<pdfrwt beam="2">  1       -4 0.61921050E-01 0.14177611E+04</pdfrwt>
<totfact> 0.10881283E+00</totfact>
</mgrwt>
</event>
<event>
 8    1  0.1378634E-029  0.1554483E+04  0.7818608E-02  0.8849009E-01
         -4   -1    0    0    0  501 -0.00000000000E+00  0.00000000000E+00  0.17731395669E+04  0.17731400217E+04  0.12700000000E+01 0. -1.
          4   -1    0    0  501    0  0.00000000000E+00 -0.00000000000E+00 -0.34069589914E+03  0.34069826620E+03  0.12700000000E+01 0.  1.
     200001    2    1    2    0    0  0.31035135810E+03  0.75877071383E+02  0.86065831769E+03  0.11551862228E+04  0.70117556581E+03 0.  0.
    5000001    2    3    3    0    0  0.84814951061E+02  0.37603124464E+02  0.20609797892E+03  0.30032903999E+03  0.19777154611E+03 0.  0.
        -13    1    4    4    0    0  0.29787989113E+02 -0.50099747222E+02 -0.97169047089E+01  0.59090933045E+02  0.10566000000E+00 0. -1.
     200003    1    4    4    0    0  0.55026961949E+02  0.87702871685E+02  0.21581488363E+03  0.24123810694E+03  0.30000000000E+02 0. -1.
     200000    1    3    3    0    0  0.22553640704E+03  0.38273946919E+02  0.65456033877E+03  0.85485718281E+03  0.50000000000E+03 0. -1.
    -200001    1    1    2    0    0 -0.31035135810E+03 -0.75877071383E+02  0.57178535009E+03  0.95865206515E+03  0.70000000000E+03 0.  1.
<mgrwt>
<rscale>  0 0.15544830E+04</rscale>
<asrwt>0</asrwt>
<pdfrwt beam="1">  1        4 0.48671044E-01 0.15544830E+04</pdfrwt>
<pdfrwt beam="2">  1       -4 0.25330586E+00 0.15544830E+04</pdfrwt>
<totfact> 0.47690533E-01</totfact>
</mgrwt>
</event>
<event>
 8    1  0.1378634E-029  0.1688157E+04  0.7818608E-02  0.8768148E-01
         -4   -1    0    0    0  501 -0.00000000000E+00  0.00000000000E+00  0.25515667846E+04  0.25515671007E+04  0.12700000000E+01 0. -1.
          4   -1    0    0  501    0  0.00000000000E+00 -0.00000000000E+00 -0.27922598306E+03  0.27922887121E+03  0.12700000000E+01 0.  1.
     200001    2    1    2    0    0 -0.31954637663E+03  0.34695666618E+03  0.11487844967E+04  0.14254961515E+04  0.69988902193E+03 0.  0.
    5000001    2    3    3    0    0 -0.37786619259E+02  0.17415737714E+03  0.25275282225E+03  0.34747902881E+03  0.15842684653E+03 0.  0.
        -13    1    4    4    0    0  0.27314013033E+01 -0.27453676168E+01 -0.18962832093E+02  0.19354528190E+02  0.10566000000E+00 0. -1.
     200003    1    4    4    0    0 -0.40518020562E+02  0.17690274475E+03  0.27171565435E+03  0.32812450062E+03  0.30000000000E+02 0. -1.
     200000    1    3    3    0    0 -0.28175975737E+03  0.17279928905E+03  0.89603167446E+03  0.10780171227E+04  0.50000000000E+03 0.  1.
    -200001    1    1    2    0    0  0.31954637663E+03 -0.34695666618E+03  0.11235563048E+04  0.14052998204E+04  0.70000000000E+03 0. -1.
<mgrwt>
<rscale>  0 0.16881567E+04</rscale>
<asrwt>0</asrwt>
<pdfrwt beam="1">  1        4 0.39889655E-01 0.16881567E+04</pdfrwt>
<pdfrwt beam="2">  1       -4 0.36450977E+00 0.16881567E+04</pdfrwt>
<totfact> 0.14102660E-01</totfact>
</mgrwt>
</event>
<event>
 8    1  0.1378634E-029  0.1526741E+04  0.7818608E-02  0.8866863E-01
          4   -1    0    0  501    0  0.00000000000E+00  0.00000000000E+00  0.46662867930E+03  0.46663040755E+03  0.12700000000E+01 0.  1.
         -4   -1    0    0    0  501 -0.00000000000E+00 -0.00000000000E+00 -0.12488139126E+04  0.12488145584E+04  0.12700000000E+01 0. -1.
     200001    2    1    2    0    0  0.26229795904E+02  0.23033241314E+03 -0.16356443607E+03  0.75293121875E+03  0.69743176919E+03 0.  0.
    5000001    2    3    3    0    0  0.12464178511E+03  0.25599446773E+02 -0.54281438089E+02  0.19298186319E+03  0.13455340475E+03 0.  0.
        -13    1    4    4    0    0  0.38512156801E+02  0.40208145266E+02 -0.79662727409E+02  0.97190753004E+02  0.10566000000E+00 0. -1.
     200003    1    4    4    0    0  0.86129628307E+02 -0.14608698493E+02  0.25381289320E+02  0.95791110190E+02  0.30000000000E+02 0. -1.
     200000    1    3    3    0    0 -0.98411989204E+02  0.20473296637E+03 -0.10928299798E+03  0.55994935555E+03  0.50000000000E+03 0.  1.
    -200001    1    1    2    0    0 -0.26229795904E+02 -0.23033241314E+03 -0.61862079724E+03  0.96251374718E+03  0.70000000000E+03 0. -1.
<mgrwt>
<rscale>  0 0.15267409E+04</rscale>
<asrwt>0</asrwt>
<pdfrwt beam="1">  1        4 0.66661410E-01 0.15267409E+04</pdfrwt>
<pdfrwt beam="2">  1       -4 0.17840216E+00 0.15267409E+04</pdfrwt>
<totfact> 0.74598277E-01</totfact>
</mgrwt>
</event>
<event>
 8    1  0.1378634E-029  0.1500568E+04  0.7818608E-02  0.8884075E-01
         -4   -1    0    0    0  501 -0.00000000000E+00  0.00000000000E+00  0.88468390208E+03  0.88468481365E+03  0.12700000000E+01 0. -1.
          4   -1    0    0  501    0  0.00000000000E+00 -0.00000000000E+00 -0.63630034153E+03  0.63630160894E+03  0.12700000000E+01 0.  1.
     200001    2    1    2    0    0 -0.22001814315E+03  0.77690548595E+02 -0.14029741864E+02  0.73784879359E+03  0.69984298517E+03 0.  0.
    5000001    2    3    3    0    0 -0.18652342316E+03  0.19171705934E+01 -0.57488359875E+02  0.22917192901E+03  0.12008413132E+03 0.  0.
        -13    1    4    4    0    0 -0.35028549736E+02 -0.58997396646E+01  0.34273492032E+02  0.49360810820E+02  0.10566000000E+00 0. -1.
     200003    1    4    4    0    0 -0.15149487343E+03  0.78169102580E+01 -0.91761851907E+02  0.17981111819E+03  0.30000000000E+02 0. -1.
     200000    1    3    3    0    0 -0.33494719982E+02  0.75773378001E+02  0.43458618011E+02  0.50867686458E+03  0.50000000000E+03 0.  1.
    -200001    1    1    2    0    0  0.22001814315E+03 -0.77690548595E+02  0.26241330241E+03  0.78313762899E+03  0.70000000000E+03 0. -1.
<mgrwt>
<rscale>  0 0.15005683E+04</rscale>
<asrwt>0</asrwt>
<pdfrwt beam="1">  1        4 0.90900206E-01 0.15005683E+04</pdfrwt>
<pdfrwt beam="2">  1       -4 0.12638357E+00 0.15005683E+04</pdfrwt>
<totfact> 0.93389583E-01</totfact>
</mgrwt>
</event>
<event>
 8    1  0.1378634E-029  0.2100480E+04  0.7818608E-02  0.8561032E-01
         -4   -1    0    0    0  501 -0.00000000000E+00  0.00000000000E+00  0.17216368436E+04  0.17216373120E+04  0.12700000000E+01 0. -1.
          4   -1    0    0  501    0  0.00000000000E+00 -0.00000000000E+00 -0.64067030914E+03  0.64067156790E+03  0.12700000000E+01 0.  1.
     200001    2    1    2    0    0 -0.28093274779E+03 -0.80389216917E+02 -0.27671772022E+03  0.80709437049E+03  0.69960202345E+03 0.  0.
    5000001    2    3    3    0    0 -0.67097640723E+02 -0.14704214546E+03 -0.36220753200E+02  0.20875762831E+03  0.12706029468E+03 0.  0.
        -13    1    4    4    0    0 -0.29569266975E+01  0.66574888320E+01  0.27107807053E+02  0.28069733528E+02  0.10566000000E+00 0. -1.
     200003    1    4    4    0    0 -0.64140714025E+02 -0.15369963429E+03 -0.63328560253E+02  0.18068789478E+03  0.30000000000E+02 0. -1.
     200000    1    3    3    0    0 -0.21383510707E+03  0.66652928538E+02 -0.24049696702E+03  0.59833674218E+03  0.50000000000E+03 0.  1.
    -200001    1    1    2    0    0  0.28093274779E+03  0.80389216917E+02  0.13576842547E+04  0.15552145094E+04  0.70000000000E+03 0. -1.
<mgrwt>
<rscale>  0 0.21004796E+04</rscale>
<asrwt>0</asrwt>
<pdfrwt beam="1">  1        4 0.91524455E-01 0.21004796E+04</pdfrwt>
<pdfrwt beam="2">  1       -4 0.24594824E+00 0.21004796E+04</pdfrwt>
<totfact> 0.12654751E-01</totfact>
</mgrwt>
</event>
<event>
 8    1  0.1378634E-029  0.1635851E+04  0.7818608E-02  0.8798821E-01
          4   -1    0    0  501    0  0.00000000000E+00  0.00000000000E+00  0.10167368628E+04  0.10167376560E+04  0.12700000000E+01 0. -1.
         -4   -1    0    0    0  501 -0.00000000000E+00 -0.00000000000E+00 -0.65798750324E+03  0.65798872887E+03  0.12700000000E+01 0.  1.
     200001    2    1    2    0    0 -0.20121122603E+03  0.11142417518E+03  0.54284361602E+03  0.91525815011E+03  0.70008355616E+03 0.  0.
    5000001    2    3    3    0    0 -0.71586858203E+02 -0.80516365968E+01  0.25970886418E+02  0.17482964922E+03  0.15716682915E+03 0.  0.
        -13    1    4    4    0    0  0.28426810636E+02  0.37619630171E+02 -0.20930178115E+02  0.51588793910E+02  0.10566000000E+00 0. -1.
     200003    1    4    4    0    0 -0.10001366884E+03 -0.45671266767E+02  0.46901064533E+02  0.12324085531E+03  0.30000000000E+02 0. -1.
     200000    1    3    3    0    0 -0.12962436782E+03  0.11947581177E+03  0.51687272960E+03  0.74042850089E+03  0.50000000000E+03 0. -1.
    -200001    1    1    2    0    0  0.20121122603E+03 -0.11142417518E+03 -0.18409425647E+03  0.75946823473E+03  0.70000000000E+03 0.  1.
<mgrwt>
<rscale>  0 0.16358507E+04</rscale>
<asrwt>0</asrwt>
<pdfrwt beam="1">  1        4 0.14524827E+00 0.16358507E+04</pdfrwt>
<pdfrwt beam="2">  1       -4 0.93998359E-01 0.16358507E+04</pdfrwt>
<totfact> 0.59728413E-01</totfact>
</mgrwt>
</event>
<event>
 8    1  0.1378634E-029  0.1785485E+04  0.7818608E-02  0.8714057E-01
          4   -1    0    0  501    0  0.00000000000E+00  0.00000000000E+00  0.31801959579E+03  0.31802213163E+03  0.12700000000E+01 0.  1.
         -4   -1    0    0    0  501 -0.00000000000E+00 -0.00000000000E+00 -0.25060873095E+04  0.25060876313E+04  0.12700000000E+01 0. -1.
     200001    2    1    2    0    0 -0.44245917668E+03 -0.27942919226E+03 -0.80336488260E+03  0.11866566409E+04  0.69921960226E+03 0.  0.
    5000001    2    3    3    0    0 -0.15145617804E+03 -0.36667155149E+02 -0.37873451807E+03  0.42907687716E+03  0.12799873908E+03 0.  0.
        -13    1    4    4    0    0 -0.22479516773E+02 -0.54532240639E+02 -0.18148985150E+03  0.19083414607E+03  0.10566000000E+00 0. -1.
     200003    1    4    4    0    0 -0.12897666126E+03  0.17865085490E+02 -0.19724466656E+03  0.23824273109E+03  0.30000000000E+02 0. -1.
     200000    1    3    3    0    0 -0.29100299865E+03 -0.24276203711E+03 -0.42463036454E+03  0.75757976370E+03  0.50000000000E+03 0. -1.
    -200001    1    1    2    0    0  0.44245917668E+03  0.27942919226E+03 -0.13847028311E+04  0.16374531221E+04  0.70000000000E+03 0.  1.
<mgrwt>
<rscale>  0 0.17854847E+04</rscale>
<asrwt>0</asrwt>
<pdfrwt beam="1">  1        4 0.45431576E-01 0.17854847E+04</pdfrwt>
<pdfrwt beam="2">  1       -4 0.35801267E+00 0.17854847E+04</pdfrwt>
<totfact> 0.11838922E-01</totfact>
</mgrwt>
</event>
<event>
 8    1  0.1378634E-029  0.1746524E+04  0.7818608E-02  0.8735266E-01
         -4   -1    0    0    0  501 -0.00000000000E+00  0.00000000000E+00  0.22029039983E+04  0.22029043644E+04  0.12700000000E+01 0. -1.
          4   -1    0    0  501    0  0.00000000000E+00 -0.00000000000E+00 -0.34617187319E+03  0.34617420281E+03  0.12700000000E+01 0.  1.
     200001    2    1    2    0    0 -0.24341697665E+03  0.36264352000E+03  0.13481562953E+04  0.15798461277E+04  0.69830240122E+03 0.  0.
    5000001    2    3    3    0    0 -0.15243684649E+03  0.23823979447E+03  0.44896590299E+03  0.53951106983E+03  0.97501900456E+02 0.  0.
        -13    1    4    4    0    0 -0.14331449883E+03  0.16778698117E+03  0.30889315381E+03  0.37961363023E+03  0.10566000000E+00 0. -1.
     200003    1    4    4    0    0 -0.91223476593E+01  0.70452813297E+02  0.14007274918E+03  0.15989743960E+03  0.30000000000E+02 0. -1.
     200000    1    3    3    0    0 -0.90980130163E+02  0.12440372553E+03  0.89919039230E+03  0.10403350579E+04  0.50000000000E+03 0. -1.
    -200001    1    1    2    0    0  0.24341697665E+03 -0.36264352000E+03  0.50857582985E+03  0.96923243952E+03  0.70000000000E+03 0. -1.
<mgrwt>
<rscale>  0 0.17465244E+04</rscale>
<asrwt>0</asrwt>
<pdfrwt beam="1">  1        4 0.49453317E-01 0.17465244E+04</pdfrwt>
<pdfrwt beam="2">  1       -4 0.31470076E+00 0.17465244E+04</pdfrwt>
<totfact> 0.18903147E-01</totfact>
</mgrwt>
</event>
<event>
 8    1  0.1378634E-029  0.1713455E+04  0.7818608E-02  0.8753727E-01
          4   -1    0    0  501    0  0.00000000000E+00  0.00000000000E+00  0.99745992651E+03  0.99746073501E+03  0.12700000000E+01 0.  1.
         -4   -1    0    0    0  501 -0.00000000000E+00 -0.00000000000E+00 -0.73584977082E+03  0.73585086676E+03  0.12700000000E+01 0. -1.
     200001    2    1    2    0    0 -0.31686379464E+03 -0.29332179668E+03  0.37400245496E+03  0.90320777111E+03  0.69961853943E+03 0.  0.
    5000001    2    3    3    0    0 -0.18696137273E+03 -0.43739037337E+02  0.11550446741E+03  0.27393247162E+03  0.15757556516E+03 0.  0.
        -13    1    4    4    0    0 -0.29297717609E+02  0.47729869038E+02  0.57608193902E+02  0.80344332869E+02  0.10566000000E+00 0. -1.
     200003    1    4    4    0    0 -0.15766365512E+03 -0.91468906374E+02  0.57896273510E+02  0.19358813875E+03  0.30000000000E+02 0. -1.
     200000    1    3    3    0    0 -0.12990242191E+03 -0.24958275935E+03  0.25849798754E+03  0.62927529949E+03  0.50000000000E+03 0.  1.
    -200001    1    1    2    0    0  0.31686379464E+03  0.29332179668E+03 -0.11239229927E+03  0.83010383067E+03  0.70000000000E+03 0.  1.
<mgrwt>
<rscale>  0 0.17134553E+04</rscale>
<asrwt>0</asrwt>
<pdfrwt beam="1">  1        4 0.14249441E+00 0.17134553E+04</pdfrwt>
<pdfrwt beam="2">  1       -4 0.10512153E+00 0.17134553E+04</pdfrwt>
<totfact> 0.47850510E-01</totfact>
</mgrwt>
</event>
<event>
 8    1  0.1378634E-029  0.2152756E+04  0.7818608E-02  0.8538353E-01
          4   -1    0    0  501    0  0.00000000000E+00  0.00000000000E+00  0.16569264723E+04  0.16569269590E+04  0.12700000000E+01 0.  1.
         -4   -1    0    0    0  501 -0.00000000000E+00 -0.00000000000E+00 -0.69923903409E+03  0.69924018741E+03  0.12700000000E+01 0. -1.
     200001    2    1    2    0    0  0.16892708146E+03  0.74896617114E+03  0.17101385946E+03  0.10529626330E+04  0.69999848712E+03 0.  0.
    5000001    2    3    3    0    0  0.82068898164E+02  0.27105499226E+03  0.59657848035E+02  0.34702807498E+03  0.19147666468E+03 0.  0.
        -13    1    4    4    0    0  0.11007218181E+03  0.27898816202E+03  0.55666075219E+02  0.30503934640E+03  0.10566000000E+00 0. -1.
     200003    1    4    4    0    0 -0.28003283648E+02 -0.79331697634E+01  0.39917728154E+01  0.41988728580E+02  0.30000000000E+02 0. -1.
     200000    1    3    3    0    0  0.86858183300E+02  0.47791117888E+03  0.11135601142E+03  0.70593455800E+03  0.50000000000E+03 0. -1.
    -200001    1    1    2    0    0 -0.16892708146E+03 -0.74896617114E+03  0.78667357879E+03  0.13032045135E+04  0.70000000000E+03 0.  1.
<mgrwt>
<rscale>  0 0.21527560E+04</rscale>
<asrwt>0</asrwt>
<pdfrwt beam="1">  1        4 0.23670389E+00 0.21527560E+04</pdfrwt>
<pdfrwt beam="2">  1       -4 0.99891409E-01 0.21527560E+04</pdfrwt>
<totfact> 0.11710893E-01</totfact>
</mgrwt>
</event>
<event>
 8    1  0.1378634E-029  0.1545576E+04  0.7818608E-02  0.8854699E-01
          4   -1    0    0  501    0  0.00000000000E+00  0.00000000000E+00  0.11239746801E+04  0.11239753976E+04  0.12700000000E+01 0.  1.
         -4   -1    0    0    0  501 -0.00000000000E+00 -0.00000000000E+00 -0.53132788622E+03  0.53132940402E+03  0.12700000000E+01 0. -1.
     200001    2    1    2    0    0  0.27719237514E+03  0.17142840723E+03  0.32172617031E+03  0.83700088748E+03  0.70059934723E+03 0.  0.
    5000001    2    3    3    0    0  0.22077714079E+02  0.33321026097E+02  0.20430260531E+03  0.24713189132E+03  0.13317995694E+03 0.  0.
        -13    1    4    4    0    0  0.27428379164E+02 -0.24599583449E+02  0.47840299853E+01  0.37153110184E+02  0.10566000000E+00 0. -1.
     200003    1    4    4    0    0 -0.53506650841E+01  0.57920609545E+02  0.19951857533E+03  0.20997878114E+03  0.30000000000E+02 0. -1.
     200000    1    3    3    0    0  0.25511466106E+03  0.13810738113E+03  0.11742356499E+03  0.58986899616E+03  0.50000000000E+03 0. -1.
    -200001    1    1    2    0    0 -0.27719237514E+03 -0.17142840723E+03  0.27092062360E+03  0.81830391416E+03  0.70000000000E+03 0.  1.
<mgrwt>
<rscale>  0 0.15455755E+04</rscale>
<asrwt>0</asrwt>
<pdfrwt beam="1">  1        4 0.16056797E+00 0.15455755E+04</pdfrwt>
<pdfrwt beam="2">  1       -4 0.75904143E-01 0.15455755E+04</pdfrwt>
<totfact> 0.75012027E-01</totfact>
</mgrwt>
</event>
<event>
 8    1  0.1378634E-029  0.1581773E+04  0.7818608E-02  0.8831825E-01
         -4   -1    0    0    0  501 -0.00000000000E+00  0.00000000000E+00  0.15432378284E+04  0.15432383510E+04  0.12700000000E+01 0. -1.
          4   -1    0    0  501    0  0.00000000000E+00 -0.00000000000E+00 -0.40531583138E+03  0.40531782105E+03  0.12700000000E+01 0.  1.
     200001    2    1    2    0    0  0.28243764731E+03 -0.16972433104E+03  0.36729125849E+03  0.85656299058E+03  0.70015706459E+03 0.  0.
    5000001    2    3    3    0    0 -0.20822614253E+02 -0.63215057043E+02 -0.22704098598E+00  0.15772058192E+03  0.14298953008E+03 0.  0.
        -13    1    4    4    0    0  0.28015025064E+02  0.62465381357E+01 -0.47887382634E+02  0.55830757183E+02  0.10566000000E+00 0. -1.
     200003    1    4    4    0    0 -0.48837639317E+02 -0.69461595179E+02  0.47660341648E+02  0.10188982474E+03  0.30000000000E+02 0. -1.
     200000    1    3    3    0    0  0.30326026157E+03 -0.10650927399E+03  0.36751829948E+03  0.69884240866E+03  0.50000000000E+03 0.  1.
    -200001    1    1    2    0    0 -0.28243764731E+03  0.16972433104E+03  0.77063073856E+03  0.10919931815E+04  0.70000000000E+03 0. -1.
<mgrwt>
<rscale>  0 0.15817726E+04</rscale>
<asrwt>0</asrwt>
<pdfrwt beam="1">  1        4 0.57902440E-01 0.15817726E+04</pdfrwt>
<pdfrwt beam="2">  1       -4 0.22046273E+00 0.15817726E+04</pdfrwt>
<totfact> 0.53009571E-01</totfact>
</mgrwt>
</event>
<event>
 8    1  0.1378634E-029  0.1441689E+04  0.7818608E-02  0.8924183E-01
         -4   -1    0    0    0  501 -0.00000000000E+00  0.00000000000E+00  0.43754382892E+03  0.43754567205E+03  0.12700000000E+01 0.  1.
          4   -1    0    0  501    0  0.00000000000E+00 -0.00000000000E+00 -0.11875715690E+04  0.11875722481E+04  0.12700000000E+01 0. -1.
     200001    2    1    2    0    0  0.14842271113E+03  0.13178324460E+01 -0.27568524547E+03  0.76661233481E+03  0.69975787201E+03 0.  0.
    5000001    2    3    3    0    0 -0.36310413756E+02  0.41288451298E+02 -0.75865295809E+02  0.19595307563E+03  0.17210137240E+03 0.  0.
        -13    1    4    4    0    0 -0.12640061810E+02  0.80802301679E+02 -0.10551291614E+03  0.13349820132E+03  0.10566000000E+00 0. -1.
     200003    1    4    4    0    0 -0.23670351946E+02 -0.39513850381E+02  0.29647620332E+02  0.62454874305E+02  0.30000000000E+02 0. -1.
     200000    1    3    3    0    0  0.18473312489E+03 -0.39970618852E+02 -0.19981994967E+03  0.57065925918E+03  0.50000000000E+03 0. -1.
    -200001    1    1    2    0    0 -0.14842271113E+03 -0.13178324460E+01 -0.47434249464E+03  0.85850558535E+03  0.70000000000E+03 0. -1.
<mgrwt>
<rscale>  0 0.14416888E+04</rscale>
<asrwt>0</asrwt>
<pdfrwt beam="1">  1        4 0.16965326E+00 0.14416888E+04</pdfrwt>
<pdfrwt beam="2">  1       -4 0.62506442E-01 0.14416888E+04</pdfrwt>
<totfact> 0.99549884E-01</totfact>
</mgrwt>
</event>
<event>
 8    1  0.1378634E-029  0.1436621E+04  0.7818608E-02  0.8927728E-01
          4   -1    0    0  501    0  0.00000000000E+00  0.00000000000E+00  0.17959994934E+04  0.17959999424E+04  0.12700000000E+01 0.  1.
         -4   -1    0    0    0  501 -0.00000000000E+00 -0.00000000000E+00 -0.28728678128E+03  0.28728958839E+03  0.12700000000E+01 0. -1.
     200001    2    1    2    0    0  0.65732987042E+02 -0.91624621267E+02  0.60157634135E+03  0.93193715558E+03  0.70277796683E+03 0.  0.
    5000001    2    3    3    0    0  0.93923944806E+02 -0.44046612554E+02  0.38019889447E+02  0.17652053444E+03  0.13766690088E+03 0.  0.
        -13    1    4    4    0    0  0.63258257914E+02  0.19870074963E+01 -0.41074054933E+02  0.75449615942E+02  0.10566000000E+00 0. -1.
     200003    1    4    4    0    0  0.30665686892E+02 -0.46033620051E+02  0.79093944381E+02  0.10107091849E+03  0.30000000000E+02 0. -1.
     200000    1    3    3    0    0 -0.28190957764E+02 -0.47578008712E+02  0.56355645190E+03  0.75541662114E+03  0.50000000000E+03 0.  1.
    -200001    1    1    2    0    0 -0.65732987042E+02  0.91624621267E+02  0.90713637076E+03  0.11513523752E+04  0.70000000000E+03 0.  1.
<mgrwt>
<rscale>  0 0.14366215E+04</rscale>
<asrwt>0</asrwt>
<pdfrwt beam="1">  1        4 0.25657160E+00 0.14366215E+04</pdfrwt>
<pdfrwt beam="2">  1       -4 0.41041200E-01 0.14366215E+04</pdfrwt>
<totfact> 0.65151043E-01</totfact>
</mgrwt>
</event>
<event>
 8    1  0.1378634E-029  0.1468376E+04  0.7818608E-02  0.8905759E-01
          4   -1    0    0  501    0  0.00000000000E+00  0.00000000000E+00  0.17074818813E+03  0.17075291111E+03  0.12700000000E+01 0.  1.
         -4   -1    0    0    0  501 -0.00000000000E+00 -0.00000000000E+00 -0.31568364006E+04  0.31568366560E+04  0.12700000000E+01 0. -1.
     200001    2    1    2    0    0 -0.16152159469E+03  0.64446118361E+02 -0.18030737405E+04  0.19420334446E+04  0.70012603065E+03 0.  0.
    5000001    2    3    3    0    0  0.37596053198E+02  0.37420213846E+02 -0.47790015333E+03  0.51148695002E+03  0.17440357755E+03 0.  0.
        -13    1    4    4    0    0 -0.23923464540E+02 -0.31037622241E+02 -0.34418430797E+03  0.34640801834E+03  0.10566000000E+00 0. -1.
     200003    1    4    4    0    0  0.61519517738E+02  0.68457836087E+02 -0.13371584536E+03  0.16507893168E+03  0.30000000000E+02 0. -1.
     200000    1    3    3    0    0 -0.19911764788E+03  0.27025904515E+02 -0.13251735871E+04  0.14305464946E+04  0.50000000000E+03 0. -1.
    -200001    1    1    2    0    0  0.16152159469E+03 -0.64446118361E+02 -0.11830144720E+04  0.13855561225E+04  0.70000000000E+03 0.  1.
<mgrwt>
<rscale>  0 0.14683765E+04</rscale>
<asrwt>0</asrwt>
<pdfrwt beam="1">  1        4 0.24392956E-01 0.14683765E+04</pdfrwt>
<pdfrwt beam="2">  1       -4 0.45097695E+00 0.14683765E+04</pdfrwt>
<totfact> 0.92541041E-02</totfact>
</mgrwt>
</event>
<event>
 8    1  0.1656178E-029  0.1456937E+04  0.7818608E-02  0.8913605E-01
         -4   -1    0    0    0  501 -0.00000000000E+00  0.00000000000E+00  0.72318465834E+03  0.72318577348E+03  0.12700000000E+01 0. -1.
          4   -1    0    0  501    0  0.00000000000E+00 -0.00000000000E+00 -0.73378905219E+03  0.73379015121E+03  0.12700000000E+01 0.  1.
     200001    2    1    2    0    0  0.16327204299E+03 -0.11690676127E+03  0.10018410722E+02  0.72844984353E+03  0.70015273700E+03 0.  0.
    5000001    2    3    3    0    0  0.47498134386E+02  0.44706667146E+02  0.20293161425E+02  0.19027880319E+03  0.17759350125E+03 0.  0.
        -13    1    4    4    0    0  0.43985402998E+02  0.69631182633E+02  0.82627375121E+02  0.11666409711E+03  0.10566000000E+00 0. -1.
     200003    1    4    4    0    0  0.35127313883E+01 -0.24924515488E+02 -0.62334213696E+02  0.73614706079E+02  0.30000000000E+02 0. -1.
     200000    1    3    3    0    0  0.11577390860E+03 -0.16161342842E+03 -0.10274750702E+02  0.53817104034E+03  0.50000000000E+03 0.  1.
    -200001    1    1    2    0    0 -0.16327204299E+03  0.11690676127E+03 -0.20622804565E+02  0.72852608115E+03  0.70000000000E+03 0. -1.
<mgrwt>
<rscale>  0 0.14569373E+04</rscale>
<asrwt>0</asrwt>
<pdfrwt beam="1">  1        4 0.10482717E+00 0.14569373E+04</pdfrwt>
<pdfrwt beam="2">  1       -4 0.10331225E+00 0.14569373E+04</pdfrwt>
<totfact> 0.10970408E+00</totfact>
</mgrwt>
</event>
<event>
 8    1  0.1378634E-029  0.1973985E+04  0.7818608E-02  0.8618881E-01
         -4   -1    0    0    0  501 -0.00000000000E+00  0.00000000000E+00  0.96768601184E+03  0.96768684522E+03  0.12700000000E+01 0. -1.
          4   -1    0    0  501    0  0.00000000000E+00 -0.00000000000E+00 -0.10066821274E+04  0.10066829285E+04  0.12700000000E+01 0.  1.
     200001    2    1    2    0    0 -0.58400434371E+03 -0.37828600011E+03 -0.42103935731E+02  0.98736874544E+03  0.69925884100E+03 0.  0.
    5000001    2    3    3    0    0 -0.50330430120E+02 -0.52883613873E+02  0.49340557256E+02  0.18172822119E+03  0.15893655015E+03 0.  0.
        -13    1    4    4    0    0 -0.44383442924E+02 -0.32549712980E+02  0.10295333730E+03  0.11674234299E+03  0.10566000000E+00 0. -1.
     200003    1    4    4    0    0 -0.59469871959E+01 -0.20333900894E+02 -0.53612780042E+02  0.64985878205E+02  0.30000000000E+02 0. -1.
     200000    1    3    3    0    0 -0.53367391359E+03 -0.32540238624E+03 -0.91444492988E+02  0.80564052425E+03  0.50000000000E+03 0. -1.
    -200001    1    1    2    0    0  0.58400434371E+03  0.37828600011E+03  0.31078201299E+01  0.98700102832E+03  0.70000000000E+03 0.  1.
<mgrwt>
<rscale>  0 0.19739846E+04</rscale>
<asrwt>0</asrwt>
<pdfrwt beam="1">  1        4 0.14381185E+00 0.19739846E+04</pdfrwt>
<pdfrwt beam="2">  1       -4 0.13824097E+00 0.19739846E+04</pdfrwt>
<totfact> 0.23105375E-01</totfact>
</mgrwt>
</event>
<event>
 8    1  0.1378634E-029  0.2532059E+04  0.7818608E-02  0.8391653E-01
          4   -1    0    0  501    0  0.00000000000E+00  0.00000000000E+00  0.13827008814E+04  0.13827014647E+04  0.12700000000E+01 0.  1.
         -4   -1    0    0    0  501 -0.00000000000E+00 -0.00000000000E+00 -0.11592015059E+04  0.11592022016E+04  0.12700000000E+01 0. -1.
     200001    2    1    2    0    0 -0.26917167664E+03  0.97228799217E+03  0.42047642455E+03  0.12982810189E+04  0.70066814484E+03 0.  0.
    5000001    2    3    3    0    0 -0.68776764102E+02  0.29222605466E+03  0.12460824424E+03  0.38166750168E+03  0.20004138823E+03 0.  0.
        -13    1    4    4    0    0  0.67116933930E+02  0.13385190005E+03  0.45715568876E+02  0.15655969587E+03  0.10566000000E+00 0. -1.
     200003    1    4    4    0    0 -0.13589369803E+03  0.15837415461E+03  0.78892675360E+02  0.22510780581E+03  0.30000000000E+02 0. -1.
     200000    1    3    3    0    0 -0.20039491253E+03  0.68006193751E+03  0.29586818031E+03  0.91661351722E+03  0.50000000000E+03 0.  1.
    -200001    1    1    2    0    0  0.26917167664E+03 -0.97228799217E+03 -0.19697704898E+03  0.12436226474E+04  0.70000000000E+03 0. -1.
<mgrwt>
<rscale>  0 0.25320589E+04</rscale>
<asrwt>0</asrwt>
<pdfrwt beam="1">  1        4 0.19752879E+00 0.25320589E+04</pdfrwt>
<pdfrwt beam="2">  1       -4 0.16560031E+00 0.25320589E+04</pdfrwt>
<totfact> 0.55739501E-02</totfact>
</mgrwt>
</event>
<event>
 8    1  0.1378634E-029  0.1650925E+04  0.7818608E-02  0.8789859E-01
         -4   -1    0    0    0  501 -0.00000000000E+00  0.00000000000E+00  0.15945364990E+04  0.15945370047E+04  0.12700000000E+01 0. -1.
          4   -1    0    0  501    0  0.00000000000E+00 -0.00000000000E+00 -0.42732541484E+03  0.42732730204E+03  0.12700000000E+01 0.  1.
     200001    2    1    2    0    0  0.27068104508E+03 -0.18826776582E+03  0.23189584052E+03  0.80797486175E+03  0.70023904244E+03 0.  0.
    5000001    2    3    3    0    0  0.49634747984E+02 -0.33653586850E+02  0.10473792998E+03  0.22579263597E+03  0.19083005101E+03 0.  0.
        -13    1    4    4    0    0 -0.12034517120E+02  0.34838585827E+02  0.12190906660E+03  0.12735928843E+03  0.10566000000E+00 0. -1.
     200003    1    4    4    0    0  0.61669265105E+02 -0.68492172677E+02 -0.17171136618E+02  0.98433347547E+02  0.30000000000E+02 0. -1.
     200000    1    3    3    0    0  0.22104629709E+03 -0.15461417896E+03  0.12715791054E+03  0.58218222577E+03  0.50000000000E+03 0. -1.
    -200001    1    1    2    0    0 -0.27068104508E+03  0.18826776582E+03  0.93531524363E+03  0.12138894450E+04  0.70000000000E+03 0. -1.
<mgrwt>
<rscale>  0 0.16509251E+04</rscale>
<asrwt>0</asrwt>
<pdfrwt beam="1">  1        4 0.61046660E-01 0.16509251E+04</pdfrwt>
<pdfrwt beam="2">  1       -4 0.22779109E+00 0.16509251E+04</pdfrwt>
<totfact> 0.42293157E-01</totfact>
</mgrwt>
</event>
<event>
 8    1  0.1378634E-029  0.2155700E+04  0.7818608E-02  0.8537096E-01
          4   -1    0    0  501    0  0.00000000000E+00  0.00000000000E+00  0.53549173178E+03  0.53549323777E+03  0.12700000000E+01 0.  1.
         -4   -1    0    0    0  501 -0.00000000000E+00 -0.00000000000E+00 -0.21695170351E+04  0.21695174068E+04  0.12700000000E+01 0. -1.
     200001    2    1    2    0    0  0.18384231784E+03  0.94066214188E+02 -0.18120589324E+04  0.19537833663E+04  0.70076059931E+03 0.  0.
    5000001    2    3    3    0    0  0.46694742679E+02  0.10833202359E+03 -0.49464135127E+03  0.53794366715E+03  0.17549101489E+03 0.  0.
        -13    1    4    4    0    0  0.31995720522E+01  0.54405722451E+02 -0.44331263626E+03  0.44665011421E+03  0.10566000000E+00 0. -1.
     200003    1    4    4    0    0  0.43495170627E+02  0.53926301142E+02 -0.51328715012E+02  0.91293552935E+02  0.30000000000E+02 0. -1.
     200000    1    3    3    0    0  0.13714757516E+03 -0.14265809405E+02 -0.13174175812E+04  0.14158396992E+04  0.50000000000E+03 0. -1.
    -200001    1    1    2    0    0 -0.18384231784E+03 -0.94066214188E+02  0.17803362911E+03  0.75122727824E+03  0.70000000000E+03 0.  1.
<mgrwt>
<rscale>  0 0.21557003E+04</rscale>
<asrwt>0</asrwt>
<pdfrwt beam="1">  1        4 0.76498954E-01 0.21557003E+04</pdfrwt>
<pdfrwt beam="2">  1       -4 0.30993113E+00 0.21557003E+04</pdfrwt>
<totfact> 0.76052184E-02</totfact>
</mgrwt>
</event>
<event>
 8    1  0.1378634E-029  0.2093253E+04  0.7818608E-02  0.8564221E-01
          4   -1    0    0  501    0  0.00000000000E+00  0.00000000000E+00  0.25540791063E+04  0.25540794221E+04  0.12700000000E+01 0.  1.
         -4   -1    0    0    0  501 -0.00000000000E+00 -0.00000000000E+00 -0.42889185781E+03  0.42889373811E+03  0.12700000000E+01 0. -1.
     200001    2    1    2    0    0 -0.11397338335E+03  0.74578703187E+03  0.13334398353E+04  0.16844924343E+04  0.70018907308E+03 0.  0.
    5000001    2    3    3    0    0  0.24961800168E+02  0.22344987305E+03  0.52793589922E+03  0.59317411062E+03  0.15028730682E+03 0.  0.
        -13    1    4    4    0    0 -0.73188688082E+01  0.11719137050E+03  0.41754346338E+03  0.43373948187E+03  0.10566000000E+00 0. -1.
     200003    1    4    4    0    0  0.32280668976E+02  0.10625850255E+03  0.11039243584E+03  0.15943462875E+03  0.30000000000E+02 0. -1.
     200000    1    3    3    0    0 -0.13893518352E+03  0.52233715882E+03  0.80550393606E+03  0.10913183237E+04  0.50000000000E+03 0.  1.
    -200001    1    1    2    0    0  0.11397338335E+03 -0.74578703187E+03  0.79174741324E+03  0.12984807258E+04  0.70000000000E+03 0. -1.
<mgrwt>
<rscale>  0 0.20932530E+04</rscale>
<asrwt>0</asrwt>
<pdfrwt beam="1">  1        4 0.36486860E+00 0.20932530E+04</pdfrwt>
<pdfrwt beam="2">  1       -4 0.61270423E-01 0.20932530E+04</pdfrwt>
<totfact> 0.55228248E-02</totfact>
</mgrwt>
</event>
<event>
 8    1  0.1378634E-029  0.1483442E+04  0.7818608E-02  0.8895539E-01
         -4   -1    0    0    0  501 -0.00000000000E+00  0.00000000000E+00  0.35748117755E+03  0.35748343347E+03  0.12700000000E+01 0. -1.
          4   -1    0    0  501    0  0.00000000000E+00 -0.00000000000E+00 -0.15389552869E+04  0.15389558109E+04  0.12700000000E+01 0.  1.
     200001    2    1    2    0    0 -0.17366418994E+03  0.17178913210E+03 -0.55720279384E+03  0.92722026390E+03  0.69970830176E+03 0.  0.
    5000001    2    3    3    0    0 -0.13825617943E+03  0.84952218952E+02 -0.26924825920E+03  0.34265872676E+03  0.13634048292E+03 0.  0.
        -13    1    4    4    0    0 -0.57467389173E+02 -0.12008738729E+02 -0.20623185335E+02  0.62225698563E+02  0.10566000000E+00 0. -1.
     200003    1    4    4    0    0 -0.80788790258E+02  0.96960957681E+02 -0.24862507387E+03  0.28043302819E+03  0.30000000000E+02 0. -1.
     200000    1    3    3    0    0 -0.35408010504E+02  0.86836913152E+02 -0.28795453463E+03  0.58456153715E+03  0.50000000000E+03 0. -1.
    -200001    1    1    2    0    0  0.17366418994E+03 -0.17178913210E+03 -0.62427131553E+03  0.96921898050E+03  0.70000000000E+03 0. -1.
<mgrwt>
<rscale>  0 0.14834422E+04</rscale>
<asrwt>0</asrwt>
<pdfrwt beam="1">  1        4 0.21985095E+00 0.14834422E+04</pdfrwt>
<pdfrwt beam="2">  1       -4 0.51068939E-01 0.14834422E+04</pdfrwt>
<totfact> 0.70267453E-01</totfact>
</mgrwt>
</event>
<event>
 8    1  0.1378634E-029  0.1636027E+04  0.7818608E-02  0.8798716E-01
         -4   -1    0    0    0  501 -0.00000000000E+00  0.00000000000E+00  0.78069321814E+03  0.78069425114E+03  0.12700000000E+01 0. -1.
          4   -1    0    0  501    0  0.00000000000E+00 -0.00000000000E+00 -0.85711601399E+03  0.85711695488E+03  0.12700000000E+01 0.  1.
     200001    2    1    2    0    0  0.22594717358E+03  0.16923414992E+03  0.27777824136E+03  0.80405422853E+03  0.69975004702E+03 0.  0.
    5000001    2    3    3    0    0  0.64072518134E+02  0.81630884397E+02  0.13274317091E+03  0.25186503282E+03  0.18720672121E+03 0.  0.
        -13    1    4    4    0    0  0.11047176392E+03  0.22795274389E+02  0.12857994074E+03  0.17104516211E+03  0.10566000000E+00 0. -1.
     200003    1    4    4    0    0 -0.46399245789E+02  0.58835610008E+02  0.41632301721E+01  0.80819870702E+02  0.30000000000E+02 0. -1.
     200000    1    3    3    0    0  0.16187465545E+03  0.87603265522E+02  0.14503507045E+03  0.55218919572E+03  0.50000000000E+03 0. -1.
    -200001    1    1    2    0    0 -0.22594717358E+03 -0.16923414992E+03 -0.35420103720E+03  0.83375697748E+03  0.70000000000E+03 0.  1.
<mgrwt>
<rscale>  0 0.16360272E+04</rscale>
<asrwt>0</asrwt>
<pdfrwt beam="1">  1        4 0.12244529E+00 0.16360272E+04</pdfrwt>
<pdfrwt beam="2">  1       -4 0.11152774E+00 0.16360272E+04</pdfrwt>
<totfact> 0.61468297E-01</totfact>
</mgrwt>
</event>
<event>
 8    1  0.1378634E-029  0.2463287E+04  0.7818608E-02  0.8416183E-01
         -4   -1    0    0    0  501 -0.00000000000E+00  0.00000000000E+00  0.61047409225E+03  0.61047541328E+03  0.12700000000E+01 0. -1.
          4   -1    0    0  501    0  0.00000000000E+00 -0.00000000000E+00 -0.24848602862E+04  0.24848606107E+04  0.12700000000E+01 0.  1.
     200001    2    1    2    0    0 -0.80914754166E+03  0.59434630321E+03 -0.11013130556E+04  0.16477140604E+04  0.70292524926E+03 0.  0.
    5000001    2    3    3    0    0 -0.15842019082E+03  0.98381933590E+02 -0.31991413618E+03  0.41077792124E+03  0.17781306007E+03 0.  0.
        -13    1    4    4    0    0 -0.37077920893E+02 -0.16750731857E+02 -0.19671665968E+03  0.20088010005E+03  0.10566000000E+00 0. -1.
     200003    1    4    4    0    0 -0.12134226993E+03  0.11513266545E+03 -0.12319747650E+03  0.20989782119E+03  0.30000000000E+02 0. -1.
     200000    1    3    3    0    0 -0.65072735084E+03  0.49596436962E+03 -0.78139891944E+03  0.12369361392E+04  0.50000000000E+03 0. -1.
    -200001    1    1    2    0    0  0.80914754166E+03 -0.59434630321E+03 -0.77307313829E+03  0.14476219636E+04  0.70000000000E+03 0.  1.
<mgrwt>
<rscale>  0 0.24632867E+04</rscale>
<asrwt>0</asrwt>
<pdfrwt beam="1">  1        4 0.35498015E+00 0.24632867E+04</pdfrwt>
<pdfrwt beam="2">  1       -4 0.87210704E-01 0.24632867E+04</pdfrwt>
<totfact> 0.28218645E-02</totfact>
</mgrwt>
</event>
<event>
 8    1  0.1378634E-029  0.1684905E+04  0.7818608E-02  0.8770021E-01
         -4   -1    0    0    0  501 -0.00000000000E+00  0.00000000000E+00  0.13273720605E+04  0.13273726681E+04  0.12700000000E+01 0. -1.
          4   -1    0    0  501    0  0.00000000000E+00 -0.00000000000E+00 -0.53468369228E+03  0.53468520056E+03  0.12700000000E+01 0.  1.
     200001    2    1    2    0    0  0.24007715836E+03 -0.39678447918E+03  0.46485444500E+03  0.96064228960E+03  0.70119112134E+03 0.  0.
    5000001    2    3    3    0    0  0.12641633481E+03 -0.89833091692E+02  0.12611698924E+03  0.27370633842E+03  0.18697216543E+03 0.  0.
        -13    1    4    4    0    0  0.15421099090E+03 -0.12065253418E+02  0.73106982643E+02  0.17108840443E+03  0.10566000000E+00 0. -1.
     200003    1    4    4    0    0 -0.27794656092E+02 -0.77767838274E+02  0.53010006597E+02  0.10261793399E+03  0.30000000000E+02 0. -1.
     200000    1    3    3    0    0  0.11366082356E+03 -0.30695138748E+03  0.33873745576E+03  0.68693595118E+03  0.50000000000E+03 0. -1.
    -200001    1    1    2    0    0 -0.24007715836E+03  0.39678447918E+03  0.32783392323E+03  0.90141557902E+03  0.70000000000E+03 0. -1.
<mgrwt>
<rscale>  0 0.16849049E+04</rscale>
<asrwt>0</asrwt>
<pdfrwt beam="1">  1        4 0.76383537E-01 0.16849049E+04</pdfrwt>
<pdfrwt beam="2">  1       -4 0.18962473E+00 0.16849049E+04</pdfrwt>
<totfact> 0.45635565E-01</totfact>
</mgrwt>
</event>
<event>
 8    1  0.1378634E-029  0.1429714E+04  0.7818608E-02  0.8932586E-01
         -4   -1    0    0    0  501 -0.00000000000E+00  0.00000000000E+00  0.35180662215E+03  0.35180891445E+03  0.12700000000E+01 0. -1.
          4   -1    0    0  501    0  0.00000000000E+00 -0.00000000000E+00 -0.14525543401E+04  0.14525548953E+04  0.12700000000E+01 0.  1.
     200001    2    1    2    0    0 -0.77543570876E+02 -0.94053687167E+02 -0.64894676634E+03  0.96235240760E+03  0.70009367188E+03 0.  0.
    5000001    2    3    3    0    0 -0.25471799050E+02  0.28018636949E+02 -0.95959699076E+02  0.20511544449E+03  0.17728571617E+03 0.  0.
        -13    1    4    4    0    0  0.29971626106E+02  0.68118142489E+02  0.10393436900E+02  0.75142627064E+02  0.10566000000E+00 0. -1.
     200003    1    4    4    0    0 -0.55443425155E+02 -0.40099505540E+02 -0.10635313598E+03  0.12997281742E+03  0.30000000000E+02 0. -1.
     200000    1    3    3    0    0 -0.52071771826E+02 -0.12207232412E+03 -0.55298706727E+03  0.75723696311E+03  0.50000000000E+03 0.  1.
    -200001    1    1    2    0    0  0.77543570876E+02  0.94053687167E+02 -0.45180095160E+03  0.84201140213E+03  0.70000000000E+03 0. -1.
<mgrwt>
<rscale>  0 0.14297144E+04</rscale>
<asrwt>0</asrwt>
<pdfrwt beam="1">  1        4 0.20750796E+00 0.14297144E+04</pdfrwt>
<pdfrwt beam="2">  1       -4 0.50258293E-01 0.14297144E+04</pdfrwt>
<totfact> 0.87572178E-01</totfact>
</mgrwt>
</event>
<event>
 8    1  0.1378634E-029  0.1543070E+04  0.7818608E-02  0.8856306E-01
          4   -1    0    0  501    0  0.00000000000E+00  0.00000000000E+00  0.25258796900E+04  0.25258800093E+04  0.12700000000E+01 0.  1.
         -4   -1    0    0    0  501 -0.00000000000E+00 -0.00000000000E+00 -0.23566500559E+03  0.23566842758E+03  0.12700000000E+01 0. -1.
     200001    2    1    2    0    0 -0.18119221822E+03 -0.17039069809E+03  0.15210125376E+04  0.16921862192E+04  0.69867836012E+03 0.  0.
    5000001    2    3    3    0    0 -0.10432965251E+03 -0.99601713301E+02  0.69159385716E+03  0.71809470303E+03  0.12865753600E+03 0.  0.
        -13    1    4    4    0    0 -0.22534899657E+02  0.16143823281E+02  0.28719913126E+03  0.28853387478E+03  0.10566000000E+00 0. -1.
     200003    1    4    4    0    0 -0.81794752856E+02 -0.11574553658E+03  0.40439472590E+03  0.42956082825E+03  0.30000000000E+02 0. -1.
     200000    1    3    3    0    0 -0.76862565704E+02 -0.70788984792E+02  0.82941868048E+03  0.97409151618E+03  0.50000000000E+03 0.  1.
    -200001    1    1    2    0    0  0.18119221822E+03  0.17039069809E+03  0.76920214682E+03  0.10693622177E+04  0.70000000000E+03 0.  1.
<mgrwt>
<rscale>  0 0.15430705E+04</rscale>
<asrwt>0</asrwt>
<pdfrwt beam="1">  1        4 0.36084021E+00 0.15430705E+04</pdfrwt>
<pdfrwt beam="2">  1       -4 0.33666698E-01 0.15430705E+04</pdfrwt>
<totfact> 0.21179110E-01</totfact>
</mgrwt>
</event>
<event>
 8    1  0.1378634E-029  0.2435304E+04  0.7818608E-02  0.8426403E-01
         -4   -1    0    0    0  501 -0.00000000000E+00  0.00000000000E+00  0.14248482365E+04  0.14248488025E+04  0.12700000000E+01 0. -1.
          4   -1    0    0  501    0  0.00000000000E+00 -0.00000000000E+00 -0.10405844725E+04  0.10405852475E+04  0.12700000000E+01 0.  1.
     200001    2    1    2    0    0 -0.38090100091E+03  0.12751647509E+03 -0.73088602768E+03  0.10888785365E+04  0.70008289363E+03 0.  0.
    5000001    2    3    3    0    0 -0.72842782641E+02  0.13710029902E+02 -0.13806562482E+03  0.24668627651E+03  0.19052025182E+03 0.  0.
        -13    1    4    4    0    0  0.58266963351E+02  0.18941439873E+01 -0.81722917774E+02  0.10038562274E+03  0.10566000000E+00 0. -1.
     200003    1    4    4    0    0 -0.13110974599E+03  0.11815885915E+02 -0.56342707049E+02  0.14630065376E+03  0.30000000000E+02 0. -1.
     200000    1    3    3    0    0 -0.30805821827E+03  0.11380644519E+03 -0.59282040286E+03  0.84219226003E+03  0.50000000000E+03 0.  1.
    -200001    1    1    2    0    0  0.38090100091E+03 -0.12751647509E+03  0.11151497917E+04  0.13765555135E+04  0.70000000000E+03 0. -1.
<mgrwt>
<rscale>  0 0.24353042E+04</rscale>
<asrwt>0</asrwt>
<pdfrwt beam="1">  1        4 0.14865502E+00 0.24353042E+04</pdfrwt>
<pdfrwt beam="2">  1       -4 0.20354984E+00 0.24353042E+04</pdfrwt>
<totfact> 0.68755614E-02</totfact>
</mgrwt>
</event>
<event>
 8    1  0.1378634E-029  0.1529144E+04  0.7818608E-02  0.8865300E-01
         -4   -1    0    0    0  501 -0.00000000000E+00  0.00000000000E+00  0.75604906467E+03  0.75605013134E+03  0.12700000000E+01 0. -1.
          4   -1    0    0  501    0  0.00000000000E+00 -0.00000000000E+00 -0.77318899201E+03  0.77319003502E+03  0.12700000000E+01 0.  1.
     200001    2    1    2    0    0  0.84520361763E+02 -0.16719889157E+03 -0.25177078289E+03  0.76756385763E+03  0.70047597213E+03 0.  0.
    5000001    2    3    3    0    0 -0.10012117070E+02 -0.13198687247E+03 -0.65382434404E+02  0.22450134531E+03  0.16913076102E+03 0.  0.
        -13    1    4    4    0    0  0.73485783692E+02 -0.30344590267E+02 -0.18112616410E+02  0.81541600429E+02  0.10566000000E+00 0. -1.
     200003    1    4    4    0    0 -0.83497900763E+02 -0.10164228220E+03 -0.47269817994E+02  0.14295974488E+03  0.30000000000E+02 0. -1.
     200000    1    3    3    0    0  0.94532478834E+02 -0.35212019104E+02 -0.18638834849E+03  0.54306251233E+03  0.50000000000E+03 0.  1.
    -200001    1    1    2    0    0 -0.84520361763E+02  0.16719889157E+03  0.23463085556E+03  0.76167630873E+03  0.70000000000E+03 0.  1.
<mgrwt>
<rscale>  0 0.15291441E+04</rscale>
<asrwt>0</asrwt>
<pdfrwt beam="1">  1        4 0.11045572E+00 0.15291441E+04</pdfrwt>
<pdfrwt beam="2">  1       -4 0.10800716E+00 0.15291441E+04</pdfrwt>
<totfact> 0.86364401E-01</totfact>
</mgrwt>
</event>
<event>
 8    1  0.1378634E-029  0.1634072E+04  0.7818608E-02  0.8799886E-01
         -4   -1    0    0    0  501 -0.00000000000E+00  0.00000000000E+00  0.85721498745E+03  0.85721592823E+03  0.12700000000E+01 0. -1.
          4   -1    0    0  501    0  0.00000000000E+00 -0.00000000000E+00 -0.77873796797E+03  0.77873900355E+03  0.12700000000E+01 0.  1.
     200001    2    1    2    0    0 -0.58423595265E+02 -0.19269969010E+03 -0.33072060608E+03  0.80049746200E+03  0.70062370808E+03 0.  0.
    5000001    2    3    3    0    0  0.13085150413E+02 -0.85099987678E+02 -0.14995626109E+03  0.25335310710E+03  0.18516934837E+03 0.  0.
        -13    1    4    4    0    0 -0.30106205853E+02  0.19289723080E+01  0.32582058839E+02  0.44403899460E+02  0.10566000000E+00 0. -1.
     200003    1    4    4    0    0  0.43191356266E+02 -0.87028959986E+02 -0.18253831993E+03  0.20894920764E+03  0.30000000000E+02 0. -1.
     200000    1    3    3    0    0 -0.71508745678E+02 -0.10759970242E+03 -0.18076434499E+03  0.54714435489E+03  0.50000000000E+03 0.  1.
    -200001    1    1    2    0    0  0.58423595265E+02  0.19269969010E+03  0.40919762556E+03  0.83545746978E+03  0.70000000000E+03 0.  1.
<mgrwt>
<rscale>  0 0.16340716E+04</rscale>
<asrwt>0</asrwt>
<pdfrwt beam="1">  1        4 0.11124842E+00 0.16340716E+04</pdfrwt>
<pdfrwt beam="2">  1       -4 0.12245942E+00 0.16340716E+04</pdfrwt>
<totfact> 0.61836483E-01</totfact>
</mgrwt>
</event>
<event>
 8    1  0.1378634E-029  0.1711377E+04  0.7818608E-02  0.8754902E-01
         -4   -1    0    0    0  501 -0.00000000000E+00  0.00000000000E+00  0.16893439414E+04  0.16893444187E+04  0.12700000000E+01 0. -1.
          4   -1    0    0  501    0  0.00000000000E+00 -0.00000000000E+00 -0.43342269153E+03  0.43342455218E+03  0.12700000000E+01 0.  1.
     200001    2    1    2    0    0  0.47372580394E+03  0.14530132275E+02  0.77535821218E+03  0.11503657134E+04  0.70536065622E+03 0.  0.
    5000001    2    3    3    0    0  0.12068945371E+03  0.48777289166E+02  0.36854325164E+03  0.41463074452E+03  0.13838120462E+03 0.  0.
        -13    1    4    4    0    0  0.22010398162E+02  0.65199956620E+02  0.23632720256E+03  0.24614233648E+03  0.10566000000E+00 0. -1.
     200003    1    4    4    0    0  0.98679055552E+02 -0.16422667454E+02  0.13221604908E+03  0.16848840804E+03  0.30000000000E+02 0. -1.
     200000    1    3    3    0    0  0.35303635022E+03 -0.34247156890E+02  0.40681496054E+03  0.73573496889E+03  0.50000000000E+03 0.  1.
    -200001    1    1    2    0    0 -0.47372580394E+03 -0.14530132275E+02  0.48056303765E+03  0.97240325751E+03  0.70000000000E+03 0. -1.
<mgrwt>
<rscale>  0 0.17113766E+04</rscale>
<asrwt>0</asrwt>
<pdfrwt beam="1">  1        4 0.61917695E-01 0.17113766E+04</pdfrwt>
<pdfrwt beam="2">  1       -4 0.24133501E+00 0.17113766E+04</pdfrwt>
<totfact> 0.33566333E-01</totfact>
</mgrwt>
</event>
<event>
 8    1  0.1378634E-029  0.1533966E+04  0.7818608E-02  0.8862175E-01
          4   -1    0    0  501    0  0.00000000000E+00  0.00000000000E+00  0.27702842009E+04  0.27702844920E+04  0.12700000000E+01 0.  1.
         -4   -1    0    0    0  501 -0.00000000000E+00 -0.00000000000E+00 -0.21234539942E+03  0.21234919720E+03  0.12700000000E+01 0. -1.
     200001    2    1    2    0    0 -0.20301076527E+03 -0.23769388912E+03  0.12950127931E+04  0.15052394093E+04  0.70069664563E+03 0.  0.
    5000001    2    3    3    0    0 -0.87442774535E+02 -0.66903920111E+02  0.24368497400E+03  0.32294699315E+03  0.18108014935E+03 0.  0.
        -13    1    4    4    0    0 -0.75838462833E+02 -0.10994780304E+02  0.24674678134E+03  0.25837248868E+03  0.10566000000E+00 0. -1.
     200003    1    4    4    0    0 -0.11604311701E+02 -0.55909139806E+02 -0.30618073445E+01  0.64574504475E+02  0.30000000000E+02 0. -1.
     200000    1    3    3    0    0 -0.11556799074E+03 -0.17078996901E+03  0.10513278191E+04  0.11822924161E+04  0.50000000000E+03 0.  1.
    -200001    1    1    2    0    0  0.20301076527E+03  0.23769388912E+03  0.12629260084E+04  0.14773942799E+04  0.70000000000E+03 0. -1.
<mgrwt>
<rscale>  0 0.15339664E+04</rscale>
<asrwt>0</asrwt>
<pdfrwt beam="1">  1        4 0.39575520E+00 0.15339664E+04</pdfrwt>
<pdfrwt beam="2">  1       -4 0.30335348E-01 0.15339664E+04</pdfrwt>
<totfact> 0.15113576E-01</totfact>
</mgrwt>
</event>
<event>
 8    1  0.1378634E-029  0.1670745E+04  0.7818608E-02  0.8778228E-01
          4   -1    0    0  501    0  0.00000000000E+00  0.00000000000E+00  0.10153192745E+04  0.10153200688E+04  0.12700000000E+01 0.  1.
         -4   -1    0    0    0  501 -0.00000000000E+00 -0.00000000000E+00 -0.68731615599E+03  0.68731732932E+03  0.12700000000E+01 0. -1.
     200001    2    1    2    0    0  0.98926250104E+02  0.43849045950E+03  0.24167395226E+03  0.86626845385E+03  0.69996746275E+03 0.  0.
    5000001    2    3    3    0    0  0.12924277278E+01  0.84416739358E+02  0.65142982066E+02  0.22123841889E+03  0.19384265172E+03 0.  0.
        -13    1    4    4    0    0 -0.99900674938E+01  0.23632969723E+02 -0.67302758065E+02  0.72027710735E+02  0.10566000000E+00 0. -1.
     200003    1    4    4    0    0  0.11282495222E+02  0.60783769634E+02  0.13244574013E+03  0.14921070816E+03  0.30000000000E+02 0. -1.
     200000    1    3    3    0    0  0.97633822376E+02  0.35407372014E+03  0.17653097020E+03  0.64503003496E+03  0.50000000000E+03 0.  1.
    -200001    1    1    2    0    0 -0.98926250104E+02 -0.43849045950E+03  0.86329166296E+02  0.83636894430E+03  0.70000000000E+03 0.  1.
<mgrwt>
<rscale>  0 0.16707448E+04</rscale>
<asrwt>0</asrwt>
<pdfrwt beam="1">  1        4 0.14504575E+00 0.16707448E+04</pdfrwt>
<pdfrwt beam="2">  1       -4 0.98188163E-01 0.16707448E+04</pdfrwt>
<totfact> 0.53950195E-01</totfact>
</mgrwt>
</event>
<event>
 8    1  0.1378634E-029  0.1415553E+04  0.7818608E-02  0.8942637E-01
         -4   -1    0    0    0  501 -0.00000000000E+00  0.00000000000E+00  0.83592218670E+03  0.83592315144E+03  0.12700000000E+01 0. -1.
          4   -1    0    0  501    0  0.00000000000E+00 -0.00000000000E+00 -0.59927369095E+03  0.59927503666E+03  0.12700000000E+01 0.  1.
     200001    2    1    2    0    0 -0.16866108864E+02 -0.71491424576E+01  0.14203215667E+02  0.70047546591E+03  0.70009183051E+03 0.  0.
    5000001    2    3    3    0    0 -0.37553134752E+02  0.70151873970E+02  0.10724815251E+02  0.19410060531E+03  0.17671587356E+03 0.  0.
        -13    1    4    4    0    0  0.10016370514E+02  0.29643490897E+01 -0.72504399879E+02  0.73253083277E+02  0.10566000000E+00 0. -1.
     200003    1    4    4    0    0 -0.47569505267E+02  0.67187524880E+02  0.83229215130E+02  0.12084752204E+03  0.30000000000E+02 0. -1.
     200000    1    3    3    0    0  0.20687025888E+02 -0.77301016428E+02  0.34784004159E+01  0.50637486060E+03  0.50000000000E+03 0.  1.
    -200001    1    1    2    0    0  0.16866108864E+02  0.71491424576E+01  0.22244528008E+03  0.73472272219E+03  0.70000000000E+03 0. -1.
<mgrwt>
<rscale>  0 0.14155534E+04</rscale>
<asrwt>0</asrwt>
<pdfrwt beam="1">  1        4 0.85610692E-01 0.14155534E+04</pdfrwt>
<pdfrwt beam="2">  1       -4 0.11941762E+00 0.14155534E+04</pdfrwt>
<totfact> 0.12442059E+00</totfact>
</mgrwt>
</event>
<event>
 8    1  0.1378634E-029  0.1676457E+04  0.7818608E-02  0.8774907E-01
          4   -1    0    0  501    0  0.00000000000E+00  0.00000000000E+00  0.12598471477E+04  0.12598477878E+04  0.12700000000E+01 0.  1.
         -4   -1    0    0    0  501 -0.00000000000E+00 -0.00000000000E+00 -0.55770681911E+03  0.55770826512E+03  0.12700000000E+01 0. -1.
     200001    2    1    2    0    0 -0.70747158360E+02  0.48014903409E+02 -0.14038694325E+03  0.71884644837E+03  0.69980077960E+03 0.  0.
    5000001    2    3    3    0    0 -0.14139690370E+02  0.44330267194E+02 -0.13224970478E+02  0.19982029363E+03  0.19387662693E+03 0.  0.
        -13    1    4    4    0    0  0.86332595797E+02  0.22349011208E+02  0.11364968424E+02  0.89899772359E+02  0.10566000000E+00 0. -1.
     200003    1    4    4    0    0 -0.10047228617E+03  0.21981255986E+02 -0.24589938901E+02  0.10992052128E+03  0.30000000000E+02 0. -1.
     200000    1    3    3    0    0 -0.56607467990E+02  0.36846362145E+01 -0.12716197277E+03  0.51902615473E+03  0.50000000000E+03 0. -1.
    -200001    1    1    2    0    0  0.70747158360E+02 -0.48014903409E+02  0.84252727185E+03  0.10987096046E+04  0.70000000000E+03 0.  1.
<mgrwt>
<rscale>  0 0.16764573E+04</rscale>
<asrwt>0</asrwt>
<pdfrwt beam="1">  1        4 0.17997831E+00 0.16764573E+04</pdfrwt>
<pdfrwt beam="2">  1       -4 0.79672552E-01 0.16764573E+04</pdfrwt>
<totfact> 0.48345873E-01</totfact>
</mgrwt>
</event>
<event>
 8    1  0.1378634E-029  0.2032929E+04  0.7818608E-02  0.8591378E-01
          4   -1    0    0  501    0  0.00000000000E+00  0.00000000000E+00  0.12499650283E+04  0.12499656735E+04  0.12700000000E+01 0.  1.
         -4   -1    0    0    0  501 -0.00000000000E+00 -0.00000000000E+00 -0.82658206846E+03  0.82658304411E+03  0.12700000000E+01 0. -1.
     200001    2    1    2    0    0 -0.15578039580E+03 -0.44471051996E+02  0.94325250481E+03  0.11896949811E+04  0.70668497505E+03 0.  0.
    5000001    2    3    3    0    0 -0.46354952833E+02  0.10102000280E+03  0.50171432656E+02  0.15011074877E+03  0.87534231152E+02 0.  0.
        -13    1    4    4    0    0 -0.27943164349E+02  0.10242318439E+03  0.35415583436E+02  0.11191784420E+03  0.10566000000E+00 0. -1.
     200003    1    4    4    0    0 -0.18411788484E+02 -0.14031815903E+01  0.14755849220E+02  0.38192904576E+02  0.30000000000E+02 0.  1.
     200000    1    3    3    0    0 -0.10942544297E+03 -0.14549105480E+03  0.89308107215E+03  0.10395842323E+04  0.50000000000E+03 0.  1.
    -200001    1    1    2    0    0  0.15578039580E+03  0.44471051996E+02 -0.51986954497E+03  0.88685373652E+03  0.70000000000E+03 0. -1.
<mgrwt>
<rscale>  0 0.20329293E+04</rscale>
<asrwt>0</asrwt>
<pdfrwt beam="1">  1        4 0.17856655E+00 0.20329293E+04</pdfrwt>
<pdfrwt beam="2">  1       -4 0.11808327E+00 0.20329293E+04</pdfrwt>
<totfact> 0.18944757E-01</totfact>
</mgrwt>
</event>
<event>
 8    1  0.1378634E-029  0.1893191E+04  0.7818608E-02  0.8658253E-01
         -4   -1    0    0    0  501 -0.00000000000E+00  0.00000000000E+00  0.38467874678E+03  0.38468084320E+03  0.12700000000E+01 0. -1.
          4   -1    0    0  501    0  0.00000000000E+00 -0.00000000000E+00 -0.23293192393E+04  0.23293195855E+04  0.12700000000E+01 0.  1.
     200001    2    1    2    0    0  0.48573665152E+03  0.23041227375E+02 -0.15629150103E+04  0.17800917948E+04  0.69968026665E+03 0.  0.
    5000001    2    3    3    0    0 -0.28042236135E+02  0.31039537866E+02 -0.29112197863E+03  0.32012938641E+03  0.12641597084E+03 0.  0.
        -13    1    4    4    0    0  0.18441561487E+02 -0.32276341146E+02 -0.36959188712E+02  0.52419902538E+02  0.10566000000E+00 0. -1.
     200003    1    4    4    0    0 -0.46483797622E+02  0.63315879013E+02 -0.25416278992E+03  0.26770948387E+03  0.30000000000E+02 0. -1.
     200000    1    3    3    0    0  0.51377888766E+03 -0.79983104919E+01 -0.12717930317E+04  0.14599624084E+04  0.50000000000E+03 0.  1.
    -200001    1    1    2    0    0 -0.48573665152E+03 -0.23041227375E+02 -0.38172548221E+03  0.93390863395E+03  0.70000000000E+03 0.  1.
<mgrwt>
<rscale>  0 0.18931909E+04</rscale>
<asrwt>0</asrwt>
<pdfrwt beam="1">  1        4 0.33276006E+00 0.18931909E+04</pdfrwt>
<pdfrwt beam="2">  1       -4 0.54954283E-01 0.18931909E+04</pdfrwt>
<totfact> 0.11488307E-01</totfact>
</mgrwt>
</event>
<event>
 8    1  0.1378634E-029  0.1521329E+04  0.7818608E-02  0.8870392E-01
         -4   -1    0    0    0  501 -0.00000000000E+00  0.00000000000E+00  0.12985478326E+04  0.12985484537E+04  0.12700000000E+01 0. -1.
          4   -1    0    0  501    0  0.00000000000E+00 -0.00000000000E+00 -0.44558120863E+03  0.44558301851E+03  0.12700000000E+01 0.  1.
     200001    2    1    2    0    0 -0.29423954075E+03 -0.12279067367E+02  0.37429938157E+03  0.84643998184E+03  0.69973776015E+03 0.  0.
    5000001    2    3    3    0    0 -0.11277954910E+03  0.41830428611E+02 -0.30256118394E+02  0.17597691897E+03  0.12483361670E+03 0.  0.
        -13    1    4    4    0    0 -0.40584957335E+02 -0.24874855782E+02 -0.52458092740E+02  0.70836148046E+02  0.10566000000E+00 0. -1.
     200003    1    4    4    0    0 -0.72194591763E+02  0.66705284393E+02  0.22201974345E+02  0.10514077092E+03  0.30000000000E+02 0. -1.
     200000    1    3    3    0    0 -0.18145999165E+03 -0.54109495979E+02  0.40455549996E+03  0.67046306287E+03  0.50000000000E+03 0. -1.
    -200001    1    1    2    0    0  0.29423954075E+03  0.12279067367E+02  0.47866724242E+03  0.89769149033E+03  0.70000000000E+03 0.  1.
<mgrwt>
<rscale>  0 0.15213292E+04</rscale>
<asrwt>0</asrwt>
<pdfrwt beam="1">  1        4 0.63654632E-01 0.15213292E+04</pdfrwt>
<pdfrwt beam="2">  1       -4 0.18550701E+00 0.15213292E+04</pdfrwt>
<totfact> 0.73715055E-01</totfact>
</mgrwt>
</event>
<event>
 8    1  0.1378634E-029  0.1467308E+04  0.7818608E-02  0.8906489E-01
         -4   -1    0    0    0  501 -0.00000000000E+00  0.00000000000E+00  0.71919489878E+03  0.71919602010E+03  0.12700000000E+01 0. -1.
          4   -1    0    0  501    0  0.00000000000E+00 -0.00000000000E+00 -0.74840116439E+03  0.74840224195E+03  0.12700000000E+01 0.  1.
     200001    2    1    2    0    0  0.13354514018E+03  0.15122086577E+01  0.15984210056E+03  0.73032227846E+03  0.69998895853E+03 0.  0.
    5000001    2    3    3    0    0  0.28469373565E+02 -0.75518762778E+02  0.16750466988E+03  0.21356953075E+03  0.10507397999E+03 0.  0.
        -13    1    4    4    0    0 -0.26251823328E+02  0.49506877653E+00  0.10444294198E+02  0.28257702781E+02  0.10566000000E+00 0. -1.
     200003    1    4    4    0    0  0.54721196893E+02 -0.76013831555E+02  0.15706037568E+03  0.18531182797E+03  0.30000000000E+02 0. -1.
     200000    1    3    3    0    0  0.10507576661E+03  0.77030971436E+02 -0.76625693229E+01  0.51675274770E+03  0.50000000000E+03 0.  1.
    -200001    1    1    2    0    0 -0.13354514018E+03 -0.15122086577E+01 -0.18904836616E+03  0.73727598360E+03  0.70000000000E+03 0.  1.
<mgrwt>
<rscale>  0 0.14673076E+04</rscale>
<asrwt>0</asrwt>
<pdfrwt beam="1">  1        4 0.10691461E+00 0.14673076E+04</pdfrwt>
<pdfrwt beam="2">  1       -4 0.10274229E+00 0.14673076E+04</pdfrwt>
<totfact> 0.10592334E+00</totfact>
</mgrwt>
</event>
<event>
 8    1  0.1378634E-029  0.1540246E+04  0.7818608E-02  0.8858122E-01
         -4   -1    0    0    0  501 -0.00000000000E+00  0.00000000000E+00  0.24303421826E+03  0.24303753649E+03  0.12700000000E+01 0. -1.
          4   -1    0    0  501    0  0.00000000000E+00 -0.00000000000E+00 -0.24403326674E+04  0.24403329979E+04  0.12700000000E+01 0.  1.
     200001    2    1    2    0    0  0.23377009876E+03  0.11792743670E+03 -0.78495127118E+03  0.10854719486E+04  0.70252794506E+03 0.  0.
    5000001    2    3    3    0    0  0.10244395910E+03  0.79354488264E+02 -0.22352436931E+03  0.32131581697E+03  0.19102044654E+03 0.  0.
        -13    1    4    4    0    0 -0.17216723356E+01  0.33743130302E+02 -0.19814340407E+03  0.20100343962E+03  0.10566000000E+00 0. -1.
     200003    1    4    4    0    0  0.10416563144E+03  0.45611357962E+02 -0.25380965241E+02  0.12031237735E+03  0.30000000000E+02 0. -1.
     200000    1    3    3    0    0  0.13132613965E+03  0.38572948431E+02 -0.56142690187E+03  0.76415613159E+03  0.50000000000E+03 0. -1.
    -200001    1    1    2    0    0 -0.23377009876E+03 -0.11792743670E+03 -0.14123471779E+04  0.15978985858E+04  0.70000000000E+03 0.  1.
<mgrwt>
<rscale>  0 0.15402457E+04</rscale>
<asrwt>0</asrwt>
<pdfrwt beam="1">  1        4 0.34861920E+00 0.15402457E+04</pdfrwt>
<pdfrwt beam="2">  1       -4 0.34719436E-01 0.15402457E+04</pdfrwt>
<totfact> 0.23961809E-01</totfact>
</mgrwt>
</event>
<event>
 8    1  0.1378634E-029  0.2703148E+04  0.7818608E-02  0.8333984E-01
         -4   -1    0    0    0  501 -0.00000000000E+00  0.00000000000E+00  0.16240141652E+04  0.16240146618E+04  0.12700000000E+01 0. -1.
          4   -1    0    0  501    0  0.00000000000E+00 -0.00000000000E+00 -0.11248364447E+04  0.11248371616E+04  0.12700000000E+01 0.  1.
     200001    2    1    2    0    0 -0.46593735903E+03  0.10302253875E+04  0.49293576376E+03  0.14190018568E+04  0.70151167558E+03 0.  0.
    5000001    2    3    3    0    0 -0.68023504132E+02  0.12144683306E+03  0.44223908645E+02  0.22085486009E+03  0.16566407201E+03 0.  0.
        -13    1    4    4    0    0  0.41049892617E+02 -0.10426328020E+02  0.42180875084E+01  0.42562958380E+02  0.10566000000E+00 0. -1.
     200003    1    4    4    0    0 -0.10907339675E+03  0.13187316108E+03  0.40005821137E+02  0.17829190171E+03  0.30000000000E+02 0. -1.
     200000    1    3    3    0    0 -0.39791385490E+03  0.90877855442E+03  0.44871185512E+03  0.11981469967E+04  0.50000000000E+03 0. -1.
    -200001    1    1    2    0    0  0.46593735903E+03 -0.10302253875E+04  0.62419567496E+01  0.13298499666E+04  0.70000000000E+03 0.  1.
<mgrwt>
<rscale>  0 0.27031478E+04</rscale>
<asrwt>0</asrwt>
<pdfrwt beam="1">  1        4 0.16069101E+00 0.27031478E+04</pdfrwt>
<pdfrwt beam="2">  1       -4 0.23200211E+00 0.27031478E+04</pdfrwt>
<totfact> 0.35742787E-02</totfact>
</mgrwt>
</event>
<event>
 8    1  0.1378634E-029  0.2146542E+04  0.7818608E-02  0.8541014E-01
         -4   -1    0    0    0  501 -0.00000000000E+00  0.00000000000E+00  0.19295611848E+04  0.19295616027E+04  0.12700000000E+01 0. -1.
          4   -1    0    0  501    0  0.00000000000E+00 -0.00000000000E+00 -0.59697944611E+03  0.59698079699E+03  0.12700000000E+01 0.  1.
     200001    2    1    2    0    0 -0.11890831128E+03  0.76313955026E+03  0.37955959591E+03  0.11141782950E+04  0.70767692242E+03 0.  0.
    5000001    2    3    3    0    0 -0.66701294449E+02  0.12382802116E+03  0.72008744476E+02  0.24467709887E+03  0.18681322738E+03 0.  0.
        -13    1    4    4    0    0 -0.68068890920E+02  0.74780569004E+01 -0.40923118665E+02  0.79774733164E+02  0.10566000000E+00 0. -1.
     200003    1    4    4    0    0  0.13675964703E+01  0.11634996426E+03  0.11293186314E+03  0.16490236571E+03  0.30000000000E+02 0. -1.
     200000    1    3    3    0    0 -0.52207016832E+02  0.63931152910E+03  0.30755085143E+03  0.86950119613E+03  0.50000000000E+03 0. -1.
    -200001    1    1    2    0    0  0.11890831128E+03 -0.76313955026E+03  0.95302214274E+03  0.14123641047E+04  0.70000000000E+03 0.  1.
<mgrwt>
<rscale>  0 0.21465420E+04</rscale>
<asrwt>0</asrwt>
<pdfrwt beam="1">  1        4 0.85282902E-01 0.21465420E+04</pdfrwt>
<pdfrwt beam="2">  1       -4 0.27565173E+00 0.21465420E+04</pdfrwt>
<totfact> 0.97142924E-02</totfact>
</mgrwt>
</event>
<event>
 8    1  0.1378634E-029  0.1651798E+04  0.7818608E-02  0.8789344E-01
         -4   -1    0    0    0  501 -0.00000000000E+00  0.00000000000E+00  0.16686900937E+04  0.16686905770E+04  0.12700000000E+01 0. -1.
          4   -1    0    0  501    0  0.00000000000E+00 -0.00000000000E+00 -0.40876762937E+03  0.40876960225E+03  0.12700000000E+01 0.  1.
     200001    2    1    2    0    0  0.42127698508E+03  0.11369864457E+03  0.67779573853E+03  0.10678695668E+04  0.70038322975E+03 0.  0.
    5000001    2    3    3    0    0  0.69817820801E+02 -0.63375146769E+02  0.63752207596E+02  0.18360256545E+03  0.14406464083E+03 0.  0.
        -13    1    4    4    0    0  0.10004164655E+03 -0.78134019006E+02  0.43421071237E+02  0.13415907186E+03  0.10566000000E+00 0. -1.
     200003    1    4    4    0    0 -0.30223825750E+02  0.14758872237E+02  0.20331136359E+02  0.49443493589E+02  0.30000000000E+02 0. -1.
     200000    1    3    3    0    0  0.35145916428E+03  0.17707379133E+03  0.61404353093E+03  0.88426700131E+03  0.50000000000E+03 0.  1.
    -200001    1    1    2    0    0 -0.42127698508E+03 -0.11369864457E+03  0.58212672584E+03  0.10095906125E+04  0.70000000000E+03 0. -1.
<mgrwt>
<rscale>  0 0.16517979E+04</rscale>
<asrwt>0</asrwt>
<pdfrwt beam="1">  1        4 0.58395553E-01 0.16517979E+04</pdfrwt>
<pdfrwt beam="2">  1       -4 0.23838447E+00 0.16517979E+04</pdfrwt>
<totfact> 0.39912897E-01</totfact>
</mgrwt>
</event>
<event>
 8    1  0.1378634E-029  0.2052285E+04  0.7818608E-02  0.8582558E-01
          4   -1    0    0  501    0  0.00000000000E+00  0.00000000000E+00  0.64143170989E+03  0.64143296715E+03  0.12700000000E+01 0.  1.
         -4   -1    0    0    0  501 -0.00000000000E+00 -0.00000000000E+00 -0.16415880067E+04  0.16415884980E+04  0.12700000000E+01 0. -1.
     200001    2    1    2    0    0 -0.37288160470E+03  0.65035329008E+03 -0.45594295374E+03  0.11219149860E+04  0.69914888668E+03 0.  0.
    5000001    2    3    3    0    0 -0.15098604147E+03  0.24977104774E+03 -0.75827990520E+02  0.34461764322E+03  0.16682048694E+03 0.  0.
        -13    1    4    4    0    0 -0.15462163371E+03  0.26008161370E+03 -0.78457918868E+02  0.31257951243E+03  0.10566000000E+00 0. -1.
     200003    1    4    4    0    0  0.36355922380E+01 -0.10310565957E+02  0.26299283482E+01  0.32038130788E+02  0.30000000000E+02 0. -1.
     200000    1    3    3    0    0 -0.22189556323E+03  0.40058224234E+03 -0.38011496322E+03  0.77729734280E+03  0.50000000000E+03 0. -1.
    -200001    1    1    2    0    0  0.37288160470E+03 -0.65035329008E+03 -0.54421334308E+03  0.11611064791E+04  0.70000000000E+03 0. -1.
<mgrwt>
<rscale>  0 0.20522852E+04</rscale>
<asrwt>0</asrwt>
<pdfrwt beam="1">  1        4 0.91633226E-01 0.20522852E+04</pdfrwt>
<pdfrwt beam="2">  1       -4 0.23451270E+00 0.20522852E+04</pdfrwt>
<totfact> 0.14939507E-01</totfact>
</mgrwt>
</event>
<event>
 8    1  0.1378634E-029  0.1518679E+04  0.7818608E-02  0.8872126E-01
          4   -1    0    0  501    0  0.00000000000E+00  0.00000000000E+00  0.50558173589E+03  0.50558333098E+03  0.12700000000E+01 0.  1.
         -4   -1    0    0    0  501 -0.00000000000E+00 -0.00000000000E+00 -0.11404573393E+04  0.11404580464E+04  0.12700000000E+01 0. -1.
     200001    2    1    2    0    0 -0.14921579383E+03 -0.24271026565E+03 -0.39755158029E+03  0.85389472552E+03  0.69993950960E+03 0.  0.
    5000001    2    3    3    0    0 -0.35489970809E+02 -0.17670459371E+02 -0.12065490517E+03  0.22919620149E+03  0.19079179613E+03 0.  0.
        -13    1    4    4    0    0  0.74800250171E+02  0.14238763421E+02 -0.49840739232E+02  0.91005111179E+02  0.10566000000E+00 0. -1.
     200003    1    4    4    0    0 -0.11029022098E+03 -0.31909222792E+02 -0.70814165941E+02  0.13819109031E+03  0.30000000000E+02 0. -1.
     200000    1    3    3    0    0 -0.11372582302E+03 -0.22503980627E+03 -0.27689667512E+03  0.62469852403E+03  0.50000000000E+03 0. -1.
    -200001    1    1    2    0    0  0.14921579383E+03  0.24271026565E+03 -0.23732402313E+03  0.79214665191E+03  0.70000000000E+03 0.  1.
<mgrwt>
<rscale>  0 0.15186788E+04</rscale>
<asrwt>0</asrwt>
<pdfrwt beam="1">  1        4 0.72226127E-01 0.15186788E+04</pdfrwt>
<pdfrwt beam="2">  1       -4 0.16292264E+00 0.15186788E+04</pdfrwt>
<totfact> 0.80685210E-01</totfact>
</mgrwt>
</event>
<event>
 8    1  0.1378634E-029  0.1460015E+04  0.7818608E-02  0.8911486E-01
         -4   -1    0    0    0  501 -0.00000000000E+00  0.00000000000E+00  0.14854795252E+04  0.14854800681E+04  0.12700000000E+01 0. -1.
          4   -1    0    0  501    0  0.00000000000E+00 -0.00000000000E+00 -0.35874522762E+03  0.35874747559E+03  0.12700000000E+01 0.  1.
     200001    2    1    2    0    0 -0.24635808052E+02  0.20770873763E+03  0.55491167383E+03  0.91647167289E+03  0.69874424414E+03 0.  0.
    5000001    2    3    3    0    0 -0.36724097455E+02  0.52301639271E+02  0.14238057458E+03  0.24977878946E+03  0.19502075490E+03 0.  0.
        -13    1    4    4    0    0 -0.57696616408E+01  0.15995787828E+02  0.18078253279E+03  0.18158053186E+03  0.10566000000E+00 0. -1.
     200003    1    4    4    0    0 -0.30954435814E+02  0.36305851443E+02 -0.38401958212E+02  0.68198257603E+02  0.30000000000E+02 0. -1.
     200000    1    3    3    0    0  0.12088289403E+02  0.15540709836E+03  0.41253109925E+03  0.66669288342E+03  0.50000000000E+03 0.  1.
    -200001    1    1    2    0    0  0.24635808052E+02 -0.20770873763E+03  0.57182262371E+03  0.92775587075E+03  0.70000000000E+03 0. -1.
<mgrwt>
<rscale>  0 0.14600154E+04</rscale>
<asrwt>0</asrwt>
<pdfrwt beam="1">  1        4 0.51249518E-01 0.14600154E+04</pdfrwt>
<pdfrwt beam="2">  1       -4 0.21221156E+00 0.14600154E+04</pdfrwt>
<totfact> 0.78210572E-01</totfact>
</mgrwt>
</event>
<event>
 8    1  0.1378634E-029  0.1415534E+04  0.7818608E-02  0.8942650E-01
         -4   -1    0    0    0  501 -0.00000000000E+00  0.00000000000E+00  0.48976642916E+03  0.48976807576E+03  0.12700000000E+01 0. -1.
          4   -1    0    0  501    0  0.00000000000E+00 -0.00000000000E+00 -0.10227983190E+04  0.10227991075E+04  0.12700000000E+01 0.  1.
     200001    2    1    2    0    0 -0.19564328570E+02  0.86245412987E+02 -0.20479043387E+03  0.73438758469E+03  0.69968919423E+03 0.  0.
    5000001    2    3    3    0    0 -0.77897463544E+02  0.77982469010E+02 -0.15193784613E+03  0.22816191672E+03  0.12970532315E+03 0.  0.
        -13    1    4    4    0    0 -0.41990870473E+02  0.10708369734E+03 -0.10617010084E+03  0.15653195493E+03  0.10566000000E+00 0. -1.
     200003    1    4    4    0    0 -0.35906593070E+02 -0.29101228330E+02 -0.45767745293E+02  0.71629961786E+02  0.30000000000E+02 0. -1.
     200000    1    3    3    0    0  0.58333134974E+02  0.82629439764E+01 -0.52852587738E+02  0.50622566797E+03  0.50000000000E+03 0. -1.
    -200001    1    1    2    0    0  0.19564328570E+02 -0.86245412987E+02 -0.32824145601E+03  0.77817959859E+03  0.70000000000E+03 0.  1.
<mgrwt>
<rscale>  0 0.14155340E+04</rscale>
<asrwt>0</asrwt>
<pdfrwt beam="1">  1        4 0.14611422E+00 0.14155340E+04</pdfrwt>
<pdfrwt beam="2">  1       -4 0.69966807E-01 0.14155340E+04</pdfrwt>
<totfact> 0.11693747E+00</totfact>
</mgrwt>
</event>
<event>
 8    1  0.1378634E-029  0.1769700E+04  0.7818608E-02  0.8722581E-01
         -4   -1    0    0    0  501 -0.00000000000E+00  0.00000000000E+00  0.92068077754E+03  0.92068165347E+03  0.12700000000E+01 0. -1.
          4   -1    0    0  501    0  0.00000000000E+00 -0.00000000000E+00 -0.85041205761E+03  0.85041300592E+03  0.12700000000E+01 0.  1.
     200001    2    1    2    0    0  0.36515032249E+03  0.35784080396E+03  0.21243094015E+03  0.89268991450E+03  0.70027393220E+03 0.  0.
    5000001    2    3    3    0    0  0.78804600370E+02  0.14772693023E+03  0.64787863494E+02  0.26186490660E+03  0.19063669924E+03 0.  0.
        -13    1    4    4    0    0 -0.12869254306E+02  0.37417748743E+02 -0.58323124788E+02  0.70479100990E+02  0.10566000000E+00 0. -1.
     200003    1    4    4    0    0  0.91673854676E+02  0.11030918149E+03  0.12311098828E+03  0.19138580561E+03  0.30000000000E+02 0. -1.
     200000    1    3    3    0    0  0.28634572212E+03  0.21011387373E+03  0.14764307665E+03  0.63082500790E+03  0.50000000000E+03 0. -1.
    -200001    1    1    2    0    0 -0.36515032249E+03 -0.35784080396E+03 -0.14216222022E+03  0.87840474489E+03  0.70000000000E+03 0. -1.
<mgrwt>
<rscale>  0 0.17697001E+04</rscale>
<asrwt>0</asrwt>
<pdfrwt beam="1">  1        4 0.12148757E+00 0.17697001E+04</pdfrwt>
<pdfrwt beam="2">  1       -4 0.13152596E+00 0.17697001E+04</pdfrwt>
<totfact> 0.41116535E-01</totfact>
</mgrwt>
</event>
<event>
 8    1  0.1378634E-029  0.1710808E+04  0.7818608E-02  0.8755224E-01
         -4   -1    0    0    0  501 -0.00000000000E+00  0.00000000000E+00  0.89086852426E+03  0.89086942950E+03  0.12700000000E+01 0. -1.
          4   -1    0    0  501    0  0.00000000000E+00 -0.00000000000E+00 -0.82134929900E+03  0.82135028085E+03  0.12700000000E+01 0.  1.
     200001    2    1    2    0    0 -0.10269582002E+03  0.39390099492E+03  0.31286878332E+03  0.86668826052E+03  0.69825299147E+03 0.  0.
    5000001    2    3    3    0    0  0.89869985085E+02  0.17614049486E+02  0.89154930595E+02  0.17479134442E+03  0.11923314756E+03 0.  0.
        -13    1    4    4    0    0 -0.18632238394E+02  0.15605320965E+02  0.49986191384E+02  0.55581623250E+02  0.10566000000E+00 0. -1.
     200003    1    4    4    0    0  0.10850222348E+03  0.20087285211E+01  0.39168739211E+02  0.11920972117E+03  0.30000000000E+02 0. -1.
     200000    1    3    3    0    0 -0.19256580511E+03  0.37628694544E+03  0.22371385272E+03  0.69189691610E+03  0.50000000000E+03 0. -1.
    -200001    1    1    2    0    0  0.10269582002E+03 -0.39390099492E+03 -0.24334955805E+03  0.84553144983E+03  0.70000000000E+03 0.  1.
<mgrwt>
<rscale>  0 0.17108078E+04</rscale>
<asrwt>0</asrwt>
<pdfrwt beam="1">  1        4 0.11733575E+00 0.17108078E+04</pdfrwt>
<pdfrwt beam="2">  1       -4 0.12726707E+00 0.17108078E+04</pdfrwt>
<totfact> 0.48966080E-01</totfact>
</mgrwt>
</event>
<event>
 8    1  0.1378634E-029  0.1501595E+04  0.7818608E-02  0.8883393E-01
          4   -1    0    0  501    0  0.00000000000E+00  0.00000000000E+00  0.17137359820E+04  0.17137364525E+04  0.12700000000E+01 0.  1.
         -4   -1    0    0    0  501 -0.00000000000E+00 -0.00000000000E+00 -0.32892683501E+03  0.32892928676E+03  0.12700000000E+01 0. -1.
     200001    2    1    2    0    0  0.23064047986E+03 -0.12902326636E+03  0.60789534857E+03  0.96403833176E+03  0.69999365430E+03 0.  0.
    5000001    2    3    3    0    0  0.58831208131E+02 -0.26108190478E+02  0.12793275218E+03  0.24259946905E+03  0.19581870350E+03 0.  0.
        -13    1    4    4    0    0  0.57176391264E+02 -0.10096905384E+03  0.38716016050E+02  0.12232264963E+03  0.10566000000E+00 0. -1.
     200003    1    4    4    0    0  0.16548168668E+01  0.74860863358E+02  0.89216736133E+02  0.12027681941E+03  0.30000000000E+02 0. -1.
     200000    1    3    3    0    0  0.17180927173E+03 -0.10291507588E+03  0.47996259639E+03  0.72143886271E+03  0.50000000000E+03 0.  1.
    -200001    1    1    2    0    0 -0.23064047986E+03  0.12902326636E+03  0.77691379838E+03  0.10786274076E+04  0.70000000000E+03 0. -1.
<mgrwt>
<rscale>  0 0.15015948E+04</rscale>
<asrwt>0</asrwt>
<pdfrwt beam="1">  1        4 0.24481964E+00 0.15015948E+04</pdfrwt>
<pdfrwt beam="2">  1       -4 0.46989756E-01 0.15015948E+04</pdfrwt>
<totfact> 0.58136795E-01</totfact>
</mgrwt>
</event>
<event>
 8    1  0.1378634E-029  0.1816931E+04  0.7818608E-02  0.8697347E-01
         -4   -1    0    0    0  501 -0.00000000000E+00  0.00000000000E+00  0.89935969728E+03  0.89936059398E+03  0.12700000000E+01 0. -1.
          4   -1    0    0  501    0  0.00000000000E+00 -0.00000000000E+00 -0.91766162322E+03  0.91766250203E+03  0.12700000000E+01 0.  1.
     200001    2    1    2    0    0 -0.11681769101E+03 -0.47631455998E+03 -0.31696086926E+03  0.91163969799E+03  0.70007200582E+03 0.  0.
    5000001    2    3    3    0    0 -0.78665167110E+02 -0.64353554073E+02 -0.13233707495E+03  0.23691499051E+03  0.16818449061E+03 0.  0.
        -13    1    4    4    0    0 -0.50078945662E+02 -0.11404058700E+03 -0.11595834848E+03  0.17017492774E+03  0.10566000000E+00 0. -1.
     200003    1    4    4    0    0 -0.28586221448E+02  0.49687032931E+02 -0.16378726464E+02  0.66740062771E+02  0.30000000000E+02 0. -1.
     200000    1    3    3    0    0 -0.38152523896E+02 -0.41196100591E+03 -0.18462379431E+03  0.67472470749E+03  0.50000000000E+03 0.  1.
    -200001    1    1    2    0    0  0.11681769101E+03  0.47631455998E+03  0.29865894331E+03  0.90538339802E+03  0.70000000000E+03 0. -1.
<mgrwt>
<rscale>  0 0.18169309E+04</rscale>
<asrwt>0</asrwt>
<pdfrwt beam="1">  1        4 0.13109464E+00 0.18169309E+04</pdfrwt>
<pdfrwt beam="2">  1       -4 0.12848008E+00 0.18169309E+04</pdfrwt>
<totfact> 0.35873896E-01</totfact>
</mgrwt>
</event>
<event>
 8    1  0.1378634E-029  0.3042053E+04  0.7818608E-02  0.8231823E-01
          4   -1    0    0  501    0  0.00000000000E+00  0.00000000000E+00  0.18164933737E+04  0.18164938176E+04  0.12700000000E+01 0.  1.
         -4   -1    0    0    0  501 -0.00000000000E+00 -0.00000000000E+00 -0.12736183888E+04  0.12736190220E+04  0.12700000000E+01 0. -1.
     200001    2    1    2    0    0 -0.39084390157E+03  0.82061410881E+03 -0.74366835405E+03  0.13663494470E+04  0.69835644161E+03 0.  0.
    5000001    2    3    3    0    0 -0.17495284716E+03  0.30628480168E+03 -0.23375912898E+03  0.46017562187E+03  0.18082973790E+03 0.  0.
        -13    1    4    4    0    0 -0.19589130552E+03  0.21294601707E+03 -0.20893961742E+03  0.35689660219E+03  0.10566000000E+00 0. -1.
     200003    1    4    4    0    0  0.20938458361E+02  0.93338784614E+02 -0.24819511565E+02  0.10327901968E+03  0.30000000000E+02 0. -1.
     200000    1    3    3    0    0 -0.21589105441E+03  0.51432930713E+03 -0.50990922507E+03  0.90617382513E+03  0.50000000000E+03 0. -1.
    -200001    1    1    2    0    0  0.39084390157E+03 -0.82061410881E+03  0.12865433389E+04  0.17237633926E+04  0.70000000000E+03 0.  1.
<mgrwt>
<rscale>  0 0.30420526E+04</rscale>
<asrwt>0</asrwt>
<pdfrwt beam="1">  1        4 0.25949913E+00 0.30420526E+04</pdfrwt>
<pdfrwt beam="2">  1       -4 0.18194556E+00 0.30420526E+04</pdfrwt>
<totfact> 0.16459259E-02</totfact>
</mgrwt>
</event>
<event>
 8    1  0.1378634E-029  0.1663064E+04  0.7818608E-02  0.8782715E-01
          4   -1    0    0  501    0  0.00000000000E+00  0.00000000000E+00  0.12444633469E+04  0.12444639949E+04  0.12700000000E+01 0.  1.
         -4   -1    0    0    0  501 -0.00000000000E+00 -0.00000000000E+00 -0.55561585264E+03  0.55561730409E+03  0.12700000000E+01 0. -1.
     200001    2    1    2    0    0  0.35441033246E+02  0.17620503802E+03 -0.10212446903E+03  0.72866124649E+03  0.69872277957E+03 0.  0.
    5000001    2    3    3    0    0  0.98761675718E+02  0.12758351801E+03  0.13490266002E+01  0.21186310382E+03  0.13730525200E+03 0.  0.
        -13    1    4    4    0    0  0.10349159134E+03  0.37524038383E+02  0.27145602061E+02  0.11338191130E+03  0.10566000000E+00 0. -1.
     200003    1    4    4    0    0 -0.47299156260E+01  0.90059479630E+02 -0.25796575461E+02  0.98481192512E+02  0.30000000000E+02 0. -1.
     200000    1    3    3    0    0 -0.63320642472E+02  0.48621520003E+02 -0.10347349563E+03  0.51679814267E+03  0.50000000000E+03 0. -1.
    -200001    1    1    2    0    0 -0.35441033246E+02 -0.17620503802E+03  0.79097196329E+03  0.10714200525E+04  0.70000000000E+03 0.  1.
<mgrwt>
<rscale>  0 0.16630640E+04</rscale>
<asrwt>0</asrwt>
<pdfrwt beam="1">  1        4 0.17778063E+00 0.16630640E+04</pdfrwt>
<pdfrwt beam="2">  1       -4 0.79373844E-01 0.16630640E+04</pdfrwt>
<totfact> 0.50562510E-01</totfact>
</mgrwt>
</event>
<event>
 8    1  0.1378634E-029  0.2431427E+04  0.7818608E-02  0.8427830E-01
          4   -1    0    0  501    0  0.00000000000E+00  0.00000000000E+00  0.72543305151E+03  0.72543416319E+03  0.12700000000E+01 0.  1.
         -4   -1    0    0    0  501 -0.00000000000E+00 -0.00000000000E+00 -0.20373454183E+04  0.20373458141E+04  0.12700000000E+01 0. -1.
     200001    2    1    2    0    0 -0.85540789592E+03 -0.23823032334E+03 -0.11633338214E+04  0.16223625364E+04  0.70017016802E+03 0.  0.
    5000001    2    3    3    0    0 -0.29306624043E+03 -0.78030623414E+02 -0.42437235909E+03  0.55561227316E+03  0.19140663381E+03 0.  0.
        -13    1    4    4    0    0 -0.82397958252E+02 -0.10599300211E+03 -0.10322465628E+03  0.16934958178E+03  0.10566000000E+00 0. -1.
     200003    1    4    4    0    0 -0.21066828218E+03  0.27962378701E+02 -0.32114770280E+03  0.38626269138E+03  0.30000000000E+02 0. -1.
     200000    1    3    3    0    0 -0.56234165549E+03 -0.16019969993E+03 -0.73896146235E+03  0.10667502633E+04  0.50000000000E+03 0. -1.
    -200001    1    1    2    0    0  0.85540789592E+03  0.23823032334E+03 -0.14857854536E+03  0.11404174409E+04  0.70000000000E+03 0.  1.
<mgrwt>
<rscale>  0 0.24314274E+04</rscale>
<asrwt>0</asrwt>
<pdfrwt beam="1">  1        4 0.10363340E+00 0.24314274E+04</pdfrwt>
<pdfrwt beam="2">  1       -4 0.29104945E+00 0.24314274E+04</pdfrwt>
<totfact> 0.48103727E-02</totfact>
</mgrwt>
</event>
<event>
 8    1  0.1378634E-029  0.1672332E+04  0.7818608E-02  0.8777303E-01
          4   -1    0    0  501    0  0.00000000000E+00  0.00000000000E+00  0.12351657007E+04  0.12351663536E+04  0.12700000000E+01 0.  1.
         -4   -1    0    0    0  501 -0.00000000000E+00 -0.00000000000E+00 -0.56605532814E+03  0.56605675282E+03  0.12700000000E+01 0. -1.
     200001    2    1    2    0    0 -0.43932013945E+03  0.12361087220E+03  0.35983262943E+03  0.91019305359E+03  0.70049271298E+03 0.  0.
    5000001    2    3    3    0    0 -0.97501051603E+02  0.51826664300E+02  0.72243959631E+02  0.23587821294E+03  0.19551696458E+03 0.  0.
        -13    1    4    4    0    0 -0.96735280344E+02  0.41170117740E+02 -0.45020955312E+02  0.11436603796E+03  0.10566000000E+00 0. -1.
     200003    1    4    4    0    0 -0.76577125906E+00  0.10656546559E+02  0.11726491494E+03  0.12151217497E+03  0.30000000000E+02 0. -1.
     200000    1    3    3    0    0 -0.34181908785E+03  0.71784207898E+02  0.28758866980E+03  0.67431484065E+03  0.50000000000E+03 0.  1.
    -200001    1    1    2    0    0  0.43932013945E+03 -0.12361087220E+03  0.30927774312E+03  0.89103005283E+03  0.70000000000E+03 0. -1.
<mgrwt>
<rscale>  0 0.16723325E+04</rscale>
<asrwt>0</asrwt>
<pdfrwt beam="1">  1        4 0.17645239E+00 0.16723325E+04</pdfrwt>
<pdfrwt beam="2">  1       -4 0.80865195E-01 0.16723325E+04</pdfrwt>
<totfact> 0.49487302E-01</totfact>
</mgrwt>
</event>
<event>
 8    1  0.1378634E-029  0.1431892E+04  0.7818608E-02  0.8931051E-01
         -4   -1    0    0    0  501 -0.00000000000E+00  0.00000000000E+00  0.59876086700E+03  0.59876221386E+03  0.12700000000E+01 0. -1.
          4   -1    0    0  501    0  0.00000000000E+00 -0.00000000000E+00 -0.85606339573E+03  0.85606433778E+03  0.12700000000E+01 0.  1.
     200001    2    1    2    0    0  0.77897400366E+02 -0.81750193047E+02 -0.22831940597E+03  0.74518500801E+03  0.70029982576E+03 0.  0.
    5000001    2    3    3    0    0 -0.10081556085E+02 -0.69755705588E+02 -0.12318783552E+03  0.22659382835E+03  0.17664094653E+03 0.  0.
        -13    1    4    4    0    0 -0.77785762682E+02 -0.83360890351E+02 -0.84701121914E+02  0.14203504544E+03  0.10566000000E+00 0. -1.
     200003    1    4    4    0    0  0.67704206597E+02  0.13605184762E+02 -0.38486713606E+02  0.84558782911E+02  0.30000000000E+02 0. -1.
     200000    1    3    3    0    0  0.87978956451E+02 -0.11994487459E+02 -0.10513157045E+03  0.51859117965E+03  0.50000000000E+03 0.  1.
    -200001    1    1    2    0    0 -0.77897400366E+02  0.81750193047E+02 -0.28983122765E+02  0.70964154363E+03  0.70000000000E+03 0.  1.
<mgrwt>
<rscale>  0 0.14318924E+04</rscale>
<asrwt>0</asrwt>
<pdfrwt beam="1">  1        4 0.12229493E+00 0.14318924E+04</pdfrwt>
<pdfrwt beam="2">  1       -4 0.85537430E-01 0.14318924E+04</pdfrwt>
<totfact> 0.11732815E+00</totfact>
</mgrwt>
</event>
<event>
 8    1  0.1378634E-029  0.1430158E+04  0.7818608E-02  0.8932274E-01
          4   -1    0    0  501    0  0.00000000000E+00  0.00000000000E+00  0.23864870207E+04  0.23864873587E+04  0.12700000000E+01 0.  1.
         -4   -1    0    0    0  501 -0.00000000000E+00 -0.00000000000E+00 -0.21426154393E+03  0.21426530776E+03  0.12700000000E+01 0. -1.
     200001    2    1    2    0    0 -0.61147992435E+02 -0.10372266969E+03  0.93689687647E+03  0.11757845194E+04  0.70013999298E+03 0.  0.
    5000001    2    3    3    0    0  0.12619999368E+02 -0.84635897866E+01  0.25340258890E+03  0.32040130117E+03  0.19548203240E+03 0.  0.
        -13    1    4    4    0    0 -0.71568787090E+02 -0.26159906262E+02  0.20176842817E+03  0.21567786570E+03  0.10566000000E+00 0. -1.
     200003    1    4    4    0    0  0.84188786459E+02  0.17696316475E+02  0.51634160730E+02  0.10472343547E+03  0.30000000000E+02 0. -1.
     200000    1    3    3    0    0 -0.73767991803E+02 -0.95259079902E+02  0.68349428757E+03  0.85538321825E+03  0.50000000000E+03 0. -1.
    -200001    1    1    2    0    0  0.61147992435E+02  0.10372266969E+03  0.12353286003E+04  0.14249681470E+04  0.70000000000E+03 0.  1.
<mgrwt>
<rscale>  0 0.14301577E+04</rscale>
<asrwt>0</asrwt>
<pdfrwt beam="1">  1        4 0.34092700E+00 0.14301577E+04</pdfrwt>
<pdfrwt beam="2">  1       -4 0.30609086E-01 0.14301577E+04</pdfrwt>
<totfact> 0.34718568E-01</totfact>
</mgrwt>
</event>
<event>
 8    1  0.1378634E-029  0.1715211E+04  0.7818608E-02  0.8752736E-01
          4   -1    0    0  501    0  0.00000000000E+00  0.00000000000E+00  0.32032344609E+03  0.32032596369E+03  0.12700000000E+01 0.  1.
         -4   -1    0    0    0  501 -0.00000000000E+00 -0.00000000000E+00 -0.22960640352E+04  0.22960643864E+04  0.12700000000E+01 0. -1.
     200001    2    1    2    0    0 -0.13108786444E+03  0.18583277007E+03 -0.16626088589E+04  0.18165345336E+04  0.69556570333E+03 0.  0.
    5000001    2    3    3    0    0  0.87784028091E+01 -0.39145356804E+02 -0.47501060885E+03  0.50102423959E+03  0.15421021632E+03 0.  0.
        -13    1    4    4    0    0 -0.36355352555E+01 -0.59026167532E+02 -0.45341478440E+03  0.45725516229E+03  0.10566000000E+00 0. -1.
     200003    1    4    4    0    0  0.12413938065E+02  0.19880810728E+02 -0.21595824458E+02  0.43769077298E+02  0.30000000000E+02 0. -1.
     200000    1    3    3    0    0 -0.13986626725E+03  0.22497812688E+03 -0.11875982500E+04  0.13155102941E+04  0.50000000000E+03 0. -1.
    -200001    1    1    2    0    0  0.13108786444E+03 -0.18583277007E+03 -0.31313173018E+03  0.79985581643E+03  0.70000000000E+03 0.  1.
<mgrwt>
<rscale>  0 0.17152107E+04</rscale>
<asrwt>0</asrwt>
<pdfrwt beam="1">  1        4 0.45760699E-01 0.17152107E+04</pdfrwt>
<pdfrwt beam="2">  1       -4 0.32800934E+00 0.17152107E+04</pdfrwt>
<totfact> 0.18340068E-01</totfact>
</mgrwt>
</event>
<event>
 8    1  0.1378634E-029  0.1595864E+04  0.7818608E-02  0.8823093E-01
         -4   -1    0    0    0  501 -0.00000000000E+00  0.00000000000E+00  0.12256691437E+04  0.12256698017E+04  0.12700000000E+01 0. -1.
          4   -1    0    0  501    0  0.00000000000E+00 -0.00000000000E+00 -0.51946601810E+03  0.51946757056E+03  0.12700000000E+01 0.  1.
     200001    2    1    2    0    0 -0.12651422483E+03  0.17914153969E+02  0.74790623487E+03  0.10323499458E+04  0.70003993340E+03 0.  0.
    5000001    2    3    3    0    0  0.41040955826E+02 -0.85688268577E+01  0.16776712661E+03  0.24791545406E+03  0.17764706229E+03 0.  0.
        -13    1    4    4    0    0  0.88910328131E+02 -0.58941764185E+02  0.92923268384E+02  0.14147057286E+03  0.10566000000E+00 0. -1.
     200003    1    4    4    0    0 -0.47869372306E+02  0.50372937327E+02  0.74843858229E+02  0.10644488120E+03  0.30000000000E+02 0. -1.
     200000    1    3    3    0    0 -0.16755518066E+03  0.26482980826E+02  0.58013910826E+03  0.78443449170E+03  0.50000000000E+03 0. -1.
    -200001    1    1    2    0    0  0.12651422483E+03 -0.17914153969E+02 -0.41703109280E+02  0.71278742646E+03  0.70000000000E+03 0.  1.
<mgrwt>
<rscale>  0 0.15958639E+04</rscale>
<asrwt>0</asrwt>
<pdfrwt beam="1">  1        4 0.74209589E-01 0.15958639E+04</pdfrwt>
<pdfrwt beam="2">  1       -4 0.17509575E+00 0.15958639E+04</pdfrwt>
<totfact> 0.61750177E-01</totfact>
</mgrwt>
</event>
<event>
 8    1  0.1378634E-029  0.1652626E+04  0.7818608E-02  0.8788855E-01
         -4   -1    0    0    0  501 -0.00000000000E+00  0.00000000000E+00  0.47742844680E+03  0.47743013595E+03  0.12700000000E+01 0. -1.
          4   -1    0    0  501    0  0.00000000000E+00 -0.00000000000E+00 -0.14301425229E+04  0.14301430868E+04  0.12700000000E+01 0.  1.
     200001    2    1    2    0    0  0.31626650128E+03  0.30516270747E+03 -0.55385160459E+03  0.98983685043E+03  0.69273127019E+03 0.  0.
    5000001    2    3    3    0    0  0.14891539400E+03  0.99169382961E+02 -0.24791564406E+03  0.34638020481E+03  0.16280884074E+03 0.  0.
        -13    1    4    4    0    0  0.78829394141E+02  0.79402701781E+02 -0.31736696752E+02  0.11630172619E+03  0.10566000000E+00 0. -1.
     200003    1    4    4    0    0  0.70085999860E+02  0.19766681180E+02 -0.21617894731E+03  0.23007847861E+03  0.30000000000E+02 0. -1.
     200000    1    3    3    0    0  0.16735110728E+03  0.20599332451E+03 -0.30593596053E+03  0.64345664562E+03  0.50000000000E+03 0.  1.
    -200001    1    1    2    0    0 -0.31626650128E+03 -0.30516270747E+03 -0.39886247149E+03  0.91773637229E+03  0.70000000000E+03 0.  1.
<mgrwt>
<rscale>  0 0.16526256E+04</rscale>
<asrwt>0</asrwt>
<pdfrwt beam="1">  1        4 0.20430623E+00 0.16526256E+04</pdfrwt>
<pdfrwt beam="2">  1       -4 0.68204225E-01 0.16526256E+04</pdfrwt>
<totfact> 0.46997765E-01</totfact>
</mgrwt>
</event>
<event>
 8    1  0.1378634E-029  0.1464162E+04  0.7818608E-02  0.8908641E-01
          4   -1    0    0  501    0  0.00000000000E+00  0.00000000000E+00  0.63895193935E+03  0.63895320150E+03  0.12700000000E+01 0.  1.
         -4   -1    0    0    0  501 -0.00000000000E+00 -0.00000000000E+00 -0.83878161359E+03  0.83878257504E+03  0.12700000000E+01 0. -1.
     200001    2    1    2    0    0 -0.93748793758E+02  0.18216864044E+03 -0.46088054328E+02  0.73234276907E+03  0.70158931916E+03 0.  0.
    5000001    2    3    3    0    0  0.51171453748E+02  0.27000288018E+02  0.92120969836E+02  0.17182441068E+03  0.13300308940E+03 0.  0.
        -13    1    4    4    0    0  0.37752243443E+02 -0.37393155375E+02  0.83560093690E+02  0.99024140367E+02  0.10566000000E+00 0. -1.
     200003    1    4    4    0    0  0.13419210304E+02  0.64393443393E+02  0.85608761456E+01  0.72800270313E+02  0.30000000000E+02 0. -1.
     200000    1    3    3    0    0 -0.14492024751E+03  0.15516835243E+03 -0.13820902416E+03  0.56051835839E+03  0.50000000000E+03 0. -1.
    -200001    1    1    2    0    0  0.93748793758E+02 -0.18216864044E+03 -0.15374161991E+03  0.74539300747E+03  0.70000000000E+03 0. -1.
<mgrwt>
<rscale>  0 0.14641623E+04</rscale>
<asrwt>0</asrwt>
<pdfrwt beam="1">  1        4 0.91279007E-01 0.14641623E+04</pdfrwt>
<pdfrwt beam="2">  1       -4 0.11982610E+00 0.14641623E+04</pdfrwt>
<totfact> 0.10600274E+00</totfact>
</mgrwt>
</event>
<event>
 8    1  0.1378634E-029  0.1677651E+04  0.7818608E-02  0.8774214E-01
          4   -1    0    0  501    0  0.00000000000E+00  0.00000000000E+00  0.13531214321E+04  0.13531220281E+04  0.12700000000E+01 0.  1.
         -4   -1    0    0    0  501 -0.00000000000E+00 -0.00000000000E+00 -0.52000245028E+03  0.52000400114E+03  0.12700000000E+01 0. -1.
     200001    2    1    2    0    0 -0.37494035261E+03  0.26299587718E+03  0.48498328420E+03  0.96706556582E+03  0.70018563482E+03 0.  0.
    5000001    2    3    3    0    0 -0.14318271263E+03  0.23539415732E+02  0.10346032548E+03  0.25529961507E+03  0.18280716948E+03 0.  0.
        -13    1    4    4    0    0  0.20355574660E+02  0.58019773046E+02  0.12788978116E+02  0.62802966565E+02  0.10566000000E+00 0. -1.
     200003    1    4    4    0    0 -0.16353828729E+03 -0.34480357314E+02  0.90671347367E+02  0.19249664850E+03  0.30000000000E+02 0. -1.
     200000    1    3    3    0    0 -0.23175763998E+03  0.23945646145E+03  0.38152295872E+03  0.71176595075E+03  0.50000000000E+03 0.  1.
    -200001    1    1    2    0    0  0.37494035261E+03 -0.26299587718E+03  0.34813569764E+03  0.90606046343E+03  0.70000000000E+03 0. -1.
<mgrwt>
<rscale>  0 0.16776513E+04</rscale>
<asrwt>0</asrwt>
<pdfrwt beam="1">  1        4 0.19330321E+00 0.16776513E+04</pdfrwt>
<pdfrwt beam="2">  1       -4 0.74286219E-01 0.16776513E+04</pdfrwt>
<totfact> 0.45907374E-01</totfact>
</mgrwt>
</event>
<event>
 8    1  0.1378634E-029  0.1761779E+04  0.7818608E-02  0.8726893E-01
          4   -1    0    0  501    0  0.00000000000E+00  0.00000000000E+00  0.79620204884E+03  0.79620306171E+03  0.12700000000E+01 0.  1.
         -4   -1    0    0    0  501 -0.00000000000E+00 -0.00000000000E+00 -0.97458277442E+03  0.97458360190E+03  0.12700000000E+01 0. -1.
     200001    2    1    2    0    0  0.22813966232E+03 -0.47978581430E+03 -0.25958163727E+02  0.87889274028E+03  0.69966884275E+03 0.  0.
    5000001    2    3    3    0    0  0.75911998956E+02 -0.13116322383E+03  0.62955664865E+02  0.24437194393E+03  0.18107404113E+03 0.  0.
        -13    1    4    4    0    0  0.25138864744E+02 -0.13512317787E+03  0.10404856752E+03  0.17238431276E+03  0.10566000000E+00 0. -1.
     200003    1    4    4    0    0  0.50773134212E+02  0.39599540426E+01 -0.41092902651E+02  0.71987631174E+02  0.30000000000E+02 0. -1.
     200000    1    3    3    0    0  0.15222766337E+03 -0.34862259048E+03 -0.88913828592E+02  0.63452079635E+03  0.50000000000E+03 0.  1.
    -200001    1    1    2    0    0 -0.22813966232E+03  0.47978581430E+03 -0.15242256185E+03  0.89189392334E+03  0.70000000000E+03 0.  1.
<mgrwt>
<rscale>  0 0.17617791E+04</rscale>
<asrwt>0</asrwt>
<pdfrwt beam="1">  1        4 0.11374328E+00 0.17617791E+04</pdfrwt>
<pdfrwt beam="2">  1       -4 0.13922624E+00 0.17617791E+04</pdfrwt>
<totfact> 0.41821871E-01</totfact>
</mgrwt>
</event>
<event>
 8    1  0.1378634E-029  0.1547292E+04  0.7818608E-02  0.8853599E-01
          4   -1    0    0  501    0  0.00000000000E+00  0.00000000000E+00  0.14853968683E+04  0.14853974112E+04  0.12700000000E+01 0.  1.
         -4   -1    0    0    0  501 -0.00000000000E+00 -0.00000000000E+00 -0.40294019713E+03  0.40294219854E+03  0.12700000000E+01 0. -1.
     200001    2    1    2    0    0  0.21671208064E+02 -0.11518933827E+03  0.16387667182E+03  0.72750911390E+03  0.69905344740E+03 0.  0.
    5000001    2    3    3    0    0  0.99395525415E+02 -0.62225621295E+02 -0.10692427989E+02  0.18962381439E+03  0.14863164047E+03 0.  0.
        -13    1    4    4    0    0 -0.14515639646E+02  0.17575179848E+02  0.33604819387E+02  0.40606474744E+02  0.10566000000E+00 0. -1.
     200003    1    4    4    0    0  0.11391116506E+03 -0.79800801143E+02 -0.44297247376E+02  0.14901733964E+03  0.30000000000E+02 0. -1.
     200000    1    3    3    0    0 -0.77724317351E+02 -0.52963716977E+02  0.17456909981E+03  0.53788529951E+03  0.50000000000E+03 0. -1.
    -200001    1    1    2    0    0 -0.21671208064E+02  0.11518933827E+03  0.91857999936E+03  0.11608304959E+04  0.70000000000E+03 0.  1.
<mgrwt>
<rscale>  0 0.15472925E+04</rscale>
<asrwt>0</asrwt>
<pdfrwt beam="1">  1        4 0.21219974E+00 0.15472925E+04</pdfrwt>
<pdfrwt beam="2">  1       -4 0.57563066E-01 0.15472925E+04</pdfrwt>
<totfact> 0.60804060E-01</totfact>
</mgrwt>
</event>
<event>
 8    1  0.1378634E-029  0.1630396E+04  0.7818608E-02  0.8802089E-01
          4   -1    0    0  501    0  0.00000000000E+00  0.00000000000E+00  0.46291491352E+03  0.46291665563E+03  0.12700000000E+01 0.  1.
         -4   -1    0    0    0  501 -0.00000000000E+00 -0.00000000000E+00 -0.14355678006E+04  0.14355683623E+04  0.12700000000E+01 0. -1.
     200001    2    1    2    0    0  0.25035473961E+02  0.29023663083E+03 -0.13786210927E+03  0.77077063945E+03  0.70015522610E+03 0.  0.
    5000001    2    3    3    0    0 -0.26667167772E+02  0.82594294590E+02 -0.78010931997E+02  0.22362288392E+03  0.19075778717E+03 0.  0.
        -13    1    4    4    0    0 -0.13114270623E+02  0.57894089731E+02 -0.13837148721E+03  0.15056689329E+03  0.10566000000E+00 0. -1.
     200003    1    4    4    0    0 -0.13552897149E+02  0.24700204859E+02  0.60360555209E+02  0.73055990626E+02  0.30000000000E+02 0. -1.
     200000    1    3    3    0    0  0.51702641733E+02  0.20764233624E+03 -0.59851177276E+02  0.54714775553E+03  0.50000000000E+03 0.  1.
    -200001    1    1    2    0    0 -0.25035473961E+02 -0.29023663083E+03 -0.83479077776E+03  0.11277143785E+04  0.70000000000E+03 0. -1.
<mgrwt>
<rscale>  0 0.16303962E+04</rscale>
<asrwt>0</asrwt>
<pdfrwt beam="1">  1        4 0.66130867E-01 0.16303962E+04</pdfrwt>
<pdfrwt beam="2">  1       -4 0.20508128E+00 0.16303962E+04</pdfrwt>
<totfact> 0.49792927E-01</totfact>
</mgrwt>
</event>
<event>
 8    1  0.1378634E-029  0.2078363E+04  0.7818608E-02  0.8570835E-01
          4   -1    0    0  501    0  0.00000000000E+00  0.00000000000E+00  0.78887081685E+03  0.78887183913E+03  0.12700000000E+01 0.  1.
         -4   -1    0    0    0  501 -0.00000000000E+00 -0.00000000000E+00 -0.13689135677E+04  0.13689141568E+04  0.12700000000E+01 0. -1.
     200001    2    1    2    0    0  0.22218743356E+03 -0.88895348717E+01  0.47404260692E+03  0.87305169621E+03  0.69861047202E+03 0.  0.
    5000001    2    3    3    0    0 -0.81221944079E+01  0.47017643365E+02  0.60640151030E+02  0.18234935232E+03  0.16521933769E+03 0.  0.
        -13    1    4    4    0    0 -0.67141119592E+02 -0.47697895366E+01 -0.15348391216E+02  0.69038142423E+02  0.10566000000E+00 0. -1.
     200003    1    4    4    0    0  0.59018925184E+02  0.51787432902E+02  0.75988542246E+02  0.11331120990E+03  0.30000000000E+02 0. -1.
     200000    1    3    3    0    0  0.23030962797E+03 -0.55907178237E+02  0.41340245589E+03  0.69070234388E+03  0.50000000000E+03 0.  1.
    -200001    1    1    2    0    0 -0.22218743356E+03  0.88895348717E+01 -0.10540853578E+04  0.12847342997E+04  0.70000000000E+03 0. -1.
<mgrwt>
<rscale>  0 0.20783625E+04</rscale>
<asrwt>0</asrwt>
<pdfrwt beam="1">  1        4 0.11269595E+00 0.20783625E+04</pdfrwt>
<pdfrwt beam="2">  1       -4 0.19555920E+00 0.20783625E+04</pdfrwt>
<totfact> 0.16207046E-01</totfact>
</mgrwt>
</event>
<event>
 8    1  0.1378634E-029  0.1436114E+04  0.7818608E-02  0.8928084E-01
          4   -1    0    0  501    0  0.00000000000E+00  0.00000000000E+00  0.73536161271E+03  0.73536270938E+03  0.12700000000E+01 0.  1.
         -4   -1    0    0    0  501 -0.00000000000E+00 -0.00000000000E+00 -0.70115781321E+03  0.70115896338E+03  0.12700000000E+01 0. -1.
     200001    2    1    2    0    0 -0.54102151594E+02  0.28406809399E+02  0.16916514169E+03  0.72101587019E+03  0.69822134763E+03 0.  0.
    5000001    2    3    3    0    0 -0.11177777773E+03  0.22893018568E+02 -0.16709349931E+02  0.18444694976E+03  0.14395524654E+03 0.  0.
        -13    1    4    4    0    0 -0.50210653755E+02  0.73520014757E+02  0.20732585597E+02  0.91411999157E+02  0.10566000000E+00 0. -1.
     200003    1    4    4    0    0 -0.61567123977E+02 -0.50626996189E+02 -0.37441935528E+02  0.93034950605E+02  0.30000000000E+02 0. -1.
     200000    1    3    3    0    0  0.57675626138E+02  0.55137908319E+01  0.18587449162E+03  0.53656892043E+03  0.50000000000E+03 0.  1.
    -200001    1    1    2    0    0  0.54102151594E+02 -0.28406809399E+02 -0.13496134219E+03  0.71550580257E+03  0.70000000000E+03 0. -1.
<mgrwt>
<rscale>  0 0.14361144E+04</rscale>
<asrwt>0</asrwt>
<pdfrwt beam="1">  1        4 0.10505182E+00 0.14361144E+04</pdfrwt>
<pdfrwt beam="2">  1       -4 0.10016556E+00 0.14361144E+04</pdfrwt>
<totfact> 0.11771158E+00</totfact>
</mgrwt>
</event>
<event>
 8    1  0.1378634E-029  0.1623337E+04  0.7818608E-02  0.8806338E-01
         -4   -1    0    0    0  501 -0.00000000000E+00  0.00000000000E+00  0.42138805153E+03  0.42138996532E+03  0.12700000000E+01 0. -1.
          4   -1    0    0  501    0  0.00000000000E+00 -0.00000000000E+00 -0.15634119799E+04  0.15634124957E+04  0.12700000000E+01 0.  1.
     200001    2    1    2    0    0 -0.56504105422E+02  0.36267497775E+03 -0.34441793804E+03  0.86190390407E+03  0.69966332646E+03 0.  0.
    5000001    2    3    3    0    0 -0.26707602268E+02  0.78009457419E+02 -0.83801335769E+02  0.22957226368E+03  0.19718516402E+03 0.  0.
        -13    1    4    4    0    0 -0.40886812371E+02  0.68502146013E+02  0.48149920211E+02  0.93181014239E+02  0.10566000000E+00 0. -1.
     200003    1    4    4    0    0  0.14179210103E+02  0.95073114056E+01 -0.13195125598E+03  0.13639124944E+03  0.30000000000E+02 0. -1.
     200000    1    3    3    0    0 -0.29796503154E+02  0.28466552033E+03 -0.26061660227E+03  0.63233164039E+03  0.50000000000E+03 0. -1.
    -200001    1    1    2    0    0  0.56504105422E+02 -0.36267497775E+03 -0.79760599033E+03  0.11228985570E+04  0.70000000000E+03 0.  1.
<mgrwt>
<rscale>  0 0.16233367E+04</rscale>
<asrwt>0</asrwt>
<pdfrwt beam="1">  1        4 0.22334474E+00 0.16233367E+04</pdfrwt>
<pdfrwt beam="2">  1       -4 0.60198467E-01 0.16233367E+04</pdfrwt>
<totfact> 0.46604085E-01</totfact>
</mgrwt>
</event>
<event>
 8    1  0.1378634E-029  0.1863785E+04  0.7818608E-02  0.8673096E-01
         -4   -1    0    0    0  501 -0.00000000000E+00  0.00000000000E+00  0.84288450739E+03  0.84288546416E+03  0.12700000000E+01 0. -1.
          4   -1    0    0  501    0  0.00000000000E+00 -0.00000000000E+00 -0.10302981462E+04  0.10302989289E+04  0.12700000000E+01 0.  1.
     200001    2    1    2    0    0 -0.43917391952E+03 -0.41875499745E+03 -0.19563254552E+03  0.94674117843E+03  0.69986947826E+03 0.  0.
    5000001    2    3    3    0    0 -0.10473079023E+03 -0.17621453848E+03  0.39991241220E+01  0.26811691974E+03  0.17277322611E+03 0.  0.
        -13    1    4    4    0    0 -0.77456394413E+01 -0.20278911936E+02  0.67973926738E+02  0.71356114523E+02  0.10566000000E+00 0. -1.
     200003    1    4    4    0    0 -0.96985150786E+02 -0.15593562654E+03 -0.63974802616E+02  0.19676080521E+03  0.30000000000E+02 0. -1.
     200000    1    3    3    0    0 -0.33444312930E+03 -0.24254045897E+03 -0.19963166964E+03  0.67862425870E+03  0.50000000000E+03 0. -1.
    -200001    1    1    2    0    0  0.43917391952E+03  0.41875499745E+03  0.82189067542E+01  0.92644321462E+03  0.70000000000E+03 0.  1.
<mgrwt>
<rscale>  0 0.18637854E+04</rscale>
<asrwt>0</asrwt>
<pdfrwt beam="1">  1        4 0.14718557E+00 0.18637854E+04</pdfrwt>
<pdfrwt beam="2">  1       -4 0.12041220E+00 0.18637854E+04</pdfrwt>
<totfact> 0.31145499E-01</totfact>
</mgrwt>
</event>
<event>
 8    1  0.1378634E-029  0.2243746E+04  0.7818608E-02  0.8500438E-01
         -4   -1    0    0    0  501 -0.00000000000E+00  0.00000000000E+00  0.13967042740E+04  0.13967048514E+04  0.12700000000E+01 0. -1.
          4   -1    0    0  501    0  0.00000000000E+00 -0.00000000000E+00 -0.90111927452E+03  0.90112016946E+03  0.12700000000E+01 0.  1.
     200001    2    1    2    0    0 -0.18838239004E+03  0.69221368247E+03 -0.26942594726E+03  0.10369168340E+04  0.69854024397E+03 0.  0.
    5000001    2    3    3    0    0 -0.16932434104E+03  0.20691382333E+03 -0.50173108268E+02  0.30619734613E+03  0.14055394419E+03 0.  0.
        -13    1    4    4    0    0 -0.90217181642E+02  0.12966135325E+03 -0.93676340560E+02  0.18364769080E+03  0.10566000000E+00 0. -1.
     200003    1    4    4    0    0 -0.79107159402E+02  0.77252470079E+02  0.43503232292E+02  0.12254965533E+03  0.30000000000E+02 0. -1.
     200000    1    3    3    0    0 -0.19058048993E+02  0.48529985913E+03 -0.21925283899E+03  0.73071948784E+03  0.50000000000E+03 0.  1.
    -200001    1    1    2    0    0  0.18838239004E+03 -0.69221368247E+03  0.76501094672E+03  0.12609081869E+04  0.70000000000E+03 0. -1.
<mgrwt>
<rscale>  0 0.22437458E+04</rscale>
<asrwt>0</asrwt>
<pdfrwt beam="1">  1        4 0.12873143E+00 0.22437458E+04</pdfrwt>
<pdfrwt beam="2">  1       -4 0.19952929E+00 0.22437458E+04</pdfrwt>
<totfact> 0.10795558E-01</totfact>
</mgrwt>
</event>
<event>
 8    1  0.1378634E-029  0.2015049E+04  0.7818608E-02  0.8599617E-01
         -4   -1    0    0    0  501 -0.00000000000E+00  0.00000000000E+00  0.15888092601E+04  0.15888097676E+04  0.12700000000E+01 0. -1.
          4   -1    0    0  501    0  0.00000000000E+00 -0.00000000000E+00 -0.63890866913E+03  0.63890993136E+03  0.12700000000E+01 0.  1.
     200001    2    1    2    0    0  0.41981001410E+03 -0.58905002168E+03  0.43294472925E+03  0.10961439221E+04  0.70062114108E+03 0.  0.
    5000001    2    3    3    0    0  0.20049329079E+03 -0.21869709591E+03  0.23915070684E+03  0.40852684995E+03  0.14722481835E+03 0.  0.
        -13    1    4    4    0    0  0.27730765269E+02 -0.13198731826E+03  0.84396227911E+02  0.15909865485E+03  0.10566000000E+00 0. -1.
     200003    1    4    4    0    0  0.17276252552E+03 -0.86709777645E+02  0.15475447893E+03  0.24942819511E+03  0.30000000000E+02 0. -1.
     200000    1    3    3    0    0  0.21931672331E+03 -0.37035292577E+03  0.19379402241E+03  0.68761707212E+03  0.50000000000E+03 0.  1.
    -200001    1    1    2    0    0 -0.41981001410E+03  0.58905002168E+03  0.51695586167E+03  0.11315757769E+04  0.70000000000E+03 0.  1.
<mgrwt>
<rscale>  0 0.20150494E+04</rscale>
<asrwt>0</asrwt>
<pdfrwt beam="1">  1        4 0.91272794E-01 0.20150494E+04</pdfrwt>
<pdfrwt beam="2">  1       -4 0.22697288E+00 0.20150494E+04</pdfrwt>
<totfact> 0.16875247E-01</totfact>
</mgrwt>
</event>
<event>
 8    1  0.1378634E-029  0.1559556E+04  0.7818608E-02  0.8845787E-01
         -4   -1    0    0    0  501 -0.00000000000E+00  0.00000000000E+00  0.39489136352E+03  0.39489340572E+03  0.12700000000E+01 0. -1.
          4   -1    0    0  501    0  0.00000000000E+00 -0.00000000000E+00 -0.15397931690E+04  0.15397936927E+04  0.12700000000E+01 0.  1.
     200001    2    1    2    0    0 -0.15629654661E+03  0.30368195808E+02 -0.19400973916E+03  0.74323984423E+03  0.69958191040E+03 0.  0.
    5000001    2    3    3    0    0 -0.28594725012E+02 -0.22841700005E+02 -0.80406025195E+02  0.21216089334E+03  0.19289301236E+03 0.  0.
        -13    1    4    4    0    0 -0.33521479399E+02 -0.10153100848E+03 -0.68461266811E+02  0.12696137791E+03  0.10566000000E+00 0. -1.
     200003    1    4    4    0    0  0.49267543870E+01  0.78689308472E+02 -0.11944758384E+02  0.85199515429E+02  0.30000000000E+02 0. -1.
     200000    1    3    3    0    0 -0.12770182159E+03  0.53209895813E+02 -0.11360371396E+03  0.53107895089E+03  0.50000000000E+03 0.  1.
    -200001    1    1    2    0    0  0.15629654661E+03 -0.30368195808E+02 -0.95089206630E+03  0.11914472542E+04  0.70000000000E+03 0.  1.
<mgrwt>
<rscale>  0 0.15595557E+04</rscale>
<asrwt>0</asrwt>
<pdfrwt beam="1">  1        4 0.21997063E+00 0.15595557E+04</pdfrwt>
<pdfrwt beam="2">  1       -4 0.56413236E-01 0.15595557E+04</pdfrwt>
<totfact> 0.56539579E-01</totfact>
</mgrwt>
</event>
<event>
 8    1  0.1378634E-029  0.1428285E+04  0.7818608E-02  0.8933595E-01
         -4   -1    0    0    0  501 -0.00000000000E+00  0.00000000000E+00  0.73122614173E+03  0.73122724460E+03  0.12700000000E+01 0. -1.
          4   -1    0    0  501    0  0.00000000000E+00 -0.00000000000E+00 -0.69745557796E+03  0.69745673423E+03  0.12700000000E+01 0.  1.
     200001    2    1    2    0    0 -0.89934541268E+02 -0.45493678667E+02 -0.79761052810E+02  0.71241075968E+03  0.70072060655E+03 0.  0.
    5000001    2    3    3    0    0 -0.50233096173E+02  0.52378417068E+02 -0.19503549539E+02  0.19783703457E+03  0.18300885574E+03 0.  0.
        -13    1    4    4    0    0 -0.47460030297E+02  0.75123260844E+01 -0.94137022491E+02  0.10569143620E+03  0.10566000000E+00 0. -1.
     200003    1    4    4    0    0 -0.27730658761E+01  0.44866090983E+02  0.74633472952E+02  0.92145598372E+02  0.30000000000E+02 0. -1.
     200000    1    3    3    0    0 -0.39701445095E+02 -0.97872095735E+02 -0.60257503271E+02  0.51457372510E+03  0.50000000000E+03 0.  1.
    -200001    1    1    2    0    0  0.89934541268E+02  0.45493678667E+02  0.11353161658E+03  0.71627321915E+03  0.70000000000E+03 0. -1.
<mgrwt>
<rscale>  0 0.14282848E+04</rscale>
<asrwt>0</asrwt>
<pdfrwt beam="1">  1        4 0.99636673E-01 0.14282848E+04</pdfrwt>
<pdfrwt beam="2">  1       -4 0.10446104E+00 0.14282848E+04</pdfrwt>
<totfact> 0.12090228E+00</totfact>
</mgrwt>
</event>
<event>
 8    1  0.1378634E-029  0.1697462E+04  0.7818608E-02  0.8762813E-01
         -4   -1    0    0    0  501 -0.00000000000E+00  0.00000000000E+00  0.74265859035E+03  0.74265967624E+03  0.12700000000E+01 0. -1.
          4   -1    0    0  501    0  0.00000000000E+00 -0.00000000000E+00 -0.96995148041E+03  0.96995231184E+03  0.12700000000E+01 0.  1.
     200001    2    1    2    0    0 -0.10846254642E+03 -0.39985755440E+03  0.13012805811E+03  0.82413018074E+03  0.70043347686E+03 0.  0.
    5000001    2    3    3    0    0 -0.93141762535E+02  0.80358477067E+01  0.96786691008E+02  0.17781493207E+03  0.11623477851E+03 0.  0.
        -13    1    4    4    0    0 -0.59211404544E+02  0.40257196375E+02  0.99010604291E+02  0.12218732837E+03  0.10566000000E+00 0. -1.
     200003    1    4    4    0    0 -0.33930357991E+02 -0.32221348668E+02 -0.22239132830E+01  0.55627603703E+02  0.30000000000E+02 0. -1.
     200000    1    3    3    0    0 -0.15320783889E+02 -0.40789340211E+03  0.33341367105E+02  0.64631524867E+03  0.50000000000E+03 0. -1.
    -200001    1    1    2    0    0  0.10846254642E+03  0.39985755440E+03 -0.35742094817E+03  0.88848180734E+03  0.70000000000E+03 0. -1.
<mgrwt>
<rscale>  0 0.16974622E+04</rscale>
<asrwt>0</asrwt>
<pdfrwt beam="1">  1        4 0.13856463E+00 0.16974622E+04</pdfrwt>
<pdfrwt beam="2">  1       -4 0.10609422E+00 0.16974622E+04</pdfrwt>
<totfact> 0.50408074E-01</totfact>
</mgrwt>
</event>
<event>
 8    1  0.1665590E-029  0.1743439E+04  0.7818608E-02  0.8736970E-01
         -4   -1    0    0    0  501 -0.00000000000E+00  0.00000000000E+00  0.19805861752E+04  0.19805865823E+04  0.12700000000E+01 0. -1.
          4   -1    0    0  501    0  0.00000000000E+00 -0.00000000000E+00 -0.38367017001E+03  0.38367227194E+03  0.12700000000E+01 0.  1.
     200001    2    1    2    0    0 -0.24328155742E+03  0.12292337204E+03  0.13919901925E+04  0.15856121691E+04  0.70868412098E+03 0.  0.
    5000001    2    3    3    0    0 -0.12754451493E+03  0.23526516233E+02  0.39005230249E+03  0.45549963784E+03  0.19626008546E+03 0.  0.
        -13    1    4    4    0    0 -0.15346488338E+03 -0.39475384424E+02  0.29394166011E+03  0.33393335730E+03  0.10566000000E+00 0. -1.
     200003    1    4    4    0    0  0.25920368450E+02  0.63001900656E+02  0.96110642378E+02  0.12156628054E+03  0.30000000000E+02 0. -1.
     200000    1    3    3    0    0 -0.11573704249E+03  0.99396855803E+02  0.10019378900E+04  0.11301125313E+04  0.50000000000E+03 0. -1.
    -200001    1    1    2    0    0  0.24328155742E+03 -0.12292337204E+03  0.20492581264E+03  0.77864668513E+03  0.70000000000E+03 0.  1.
<mgrwt>
<rscale>  0 0.17434389E+04</rscale>
<asrwt>0</asrwt>
<pdfrwt beam="1">  1        4 0.54810204E-01 0.17434389E+04</pdfrwt>
<pdfrwt beam="2">  1       -4 0.28294106E+00 0.17434389E+04</pdfrwt>
<totfact> 0.24019088E-01</totfact>
</mgrwt>
</event>
<event>
 8    1  0.1378634E-029  0.1444430E+04  0.7818608E-02  0.8922271E-01
          4   -1    0    0  501    0  0.00000000000E+00  0.00000000000E+00  0.67988935408E+03  0.67989054023E+03  0.12700000000E+01 0.  1.
         -4   -1    0    0    0  501 -0.00000000000E+00 -0.00000000000E+00 -0.76717295827E+03  0.76717400946E+03  0.12700000000E+01 0. -1.
     200001    2    1    2    0    0  0.55185969206E+02 -0.15013908497E+03  0.32762116420E+02  0.71905478941E+03  0.70027080324E+03 0.  0.
    5000001    2    3    3    0    0  0.12430111096E+03 -0.94438358922E+02 -0.36237408173E+01  0.20993456362E+03  0.14032113057E+03 0.  0.
        -13    1    4    4    0    0  0.17179531856E+02  0.34080377620E+02  0.98753733684E+01  0.39422615549E+02  0.10566000000E+00 0. -1.
     200003    1    4    4    0    0  0.10712157910E+03 -0.12851873654E+03 -0.13499114186E+02  0.17051194807E+03  0.30000000000E+02 0. -1.
     200000    1    3    3    0    0 -0.69115141751E+02 -0.55700726048E+02  0.36385857237E+02  0.50912022579E+03  0.50000000000E+03 0.  1.
    -200001    1    1    2    0    0 -0.55185969206E+02  0.15013908497E+03 -0.12004572060E+03  0.72800976028E+03  0.70000000000E+03 0. -1.
<mgrwt>
<rscale>  0 0.14444298E+04</rscale>
<asrwt>0</asrwt>
<pdfrwt beam="1">  1        4 0.97127210E-01 0.14444298E+04</pdfrwt>
<pdfrwt beam="2">  1       -4 0.10959630E+00 0.14444298E+04</pdfrwt>
<totfact> 0.11421859E+00</totfact>
</mgrwt>
</event>
<event>
 8    1  0.1378634E-029  0.1820637E+04  0.7818608E-02  0.8695401E-01
          4   -1    0    0  501    0  0.00000000000E+00  0.00000000000E+00  0.21685623865E+04  0.21685627584E+04  0.12700000000E+01 0.  1.
         -4   -1    0    0    0  501 -0.00000000000E+00 -0.00000000000E+00 -0.38213170239E+03  0.38213381278E+03  0.12700000000E+01 0. -1.
     200001    2    1    2    0    0 -0.53178534026E+03 -0.75100826470E+02  0.57870540821E+03  0.10550241056E+04  0.69981435509E+03 0.  0.
    5000001    2    3    3    0    0 -0.24147554417E+03 -0.57659398056E+02  0.26153332043E+03  0.39534076154E+03  0.16204812687E+03 0.  0.
        -13    1    4    4    0    0 -0.15037871185E+03  0.68016123800E+00  0.23660016754E+03  0.28034598274E+03  0.10566000000E+00 0. -1.
     200003    1    4    4    0    0 -0.91096832324E+02 -0.58339559294E+02  0.24933152899E+02  0.11499477880E+03  0.30000000000E+02 0. -1.
     200000    1    3    3    0    0 -0.29030979609E+03 -0.17441428414E+02  0.31717208778E+03  0.65968334403E+03  0.50000000000E+03 0. -1.
    -200001    1    1    2    0    0  0.53178534026E+03  0.75100826470E+02  0.12077252759E+04  0.14956724656E+04  0.70000000000E+03 0.  1.
<mgrwt>
<rscale>  0 0.18206368E+04</rscale>
<asrwt>0</asrwt>
<pdfrwt beam="1">  1        4 0.30979480E+00 0.18206368E+04</pdfrwt>
<pdfrwt beam="2">  1       -4 0.54590422E-01 0.18206368E+04</pdfrwt>
<totfact> 0.16383356E-01</totfact>
</mgrwt>
</event>
<event>
 8    1  0.1378634E-029  0.1478602E+04  0.7818608E-02  0.8898808E-01
          4   -1    0    0  501    0  0.00000000000E+00  0.00000000000E+00  0.83049965054E+03  0.83050062158E+03  0.12700000000E+01 0.  1.
         -4   -1    0    0    0  501 -0.00000000000E+00 -0.00000000000E+00 -0.65811544569E+03  0.65811667108E+03  0.12700000000E+01 0. -1.
     200001    2    1    2    0    0 -0.36753606866E+02 -0.22729364421E+03  0.14519801663E+03  0.75122166130E+03  0.70017018792E+03 0.  0.
    5000001    2    3    3    0    0  0.97162131337E+02 -0.34411934730E+01  0.61610522228E+02  0.18110745006E+03  0.13982750244E+03 0.  0.
        -13    1    4    4    0    0 -0.93768286711E+01 -0.48161129222E+02  0.60541763141E+01  0.49437672869E+02  0.10566000000E+00 0. -1.
     200003    1    4    4    0    0  0.10653896001E+03  0.44719935749E+02  0.55556345914E+02  0.13166977719E+03  0.30000000000E+02 0. -1.
     200000    1    3    3    0    0 -0.13391573820E+03 -0.22385245074E+03  0.83587494403E+02  0.57011421124E+03  0.50000000000E+03 0.  1.
    -200001    1    1    2    0    0  0.36753606866E+02  0.22729364421E+03  0.27186188221E+02  0.73739563136E+03  0.70000000000E+03 0.  1.
<mgrwt>
<rscale>  0 0.14786024E+04</rscale>
<asrwt>0</asrwt>
<pdfrwt beam="1">  1        4 0.11864296E+00 0.14786024E+04</pdfrwt>
<pdfrwt beam="2">  1       -4 0.94016649E-01 0.14786024E+04</pdfrwt>
<totfact> 0.10130388E+00</totfact>
</mgrwt>
</event>
<event>
 8    1  0.1378634E-029  0.1513277E+04  0.7818608E-02  0.8875671E-01
         -4   -1    0    0    0  501 -0.00000000000E+00  0.00000000000E+00  0.47702110638E+03  0.47702279697E+03  0.12700000000E+01 0. -1.
          4   -1    0    0  501    0  0.00000000000E+00 -0.00000000000E+00 -0.12001568320E+04  0.12001575040E+04  0.12700000000E+01 0.  1.
     200001    2    1    2    0    0  0.11961057952E+03  0.97251315873E+02 -0.99532320124E+02  0.72710361111E+03  0.70356838287E+03 0.  0.
    5000001    2    3    3    0    0  0.16913271202E+02 -0.58118788191E+02 -0.14848568397E+02  0.18686482671E+03  0.17616506803E+03 0.  0.
        -13    1    4    4    0    0  0.37482183250E+02  0.48900775002E+02 -0.36734861543E+02  0.71733263369E+02  0.10566000000E+00 0. -1.
     200003    1    4    4    0    0 -0.20568912047E+02 -0.10701956319E+03  0.21886293147E+02  0.11513156334E+03  0.30000000000E+02 0. -1.
     200000    1    3    3    0    0  0.10269730831E+03  0.15537010406E+03 -0.84683751727E+02  0.54023878441E+03  0.50000000000E+03 0. -1.
    -200001    1    1    2    0    0 -0.11961057952E+03 -0.97251315873E+02 -0.62360340550E+03  0.95007668981E+03  0.70000000000E+03 0.  1.
<mgrwt>
<rscale>  0 0.15132774E+04</rscale>
<asrwt>0</asrwt>
<pdfrwt beam="1">  1        4 0.17145114E+00 0.15132774E+04</pdfrwt>
<pdfrwt beam="2">  1       -4 0.68146042E-01 0.15132774E+04</pdfrwt>
<totfact> 0.79647245E-01</totfact>
</mgrwt>
</event>
<event>
 8    1  0.1378634E-029  0.2002052E+04  0.7818608E-02  0.8605662E-01
          4   -1    0    0  501    0  0.00000000000E+00  0.00000000000E+00  0.24549766592E+04  0.24549769877E+04  0.12700000000E+01 0.  1.
         -4   -1    0    0    0  501 -0.00000000000E+00 -0.00000000000E+00 -0.40817077606E+03  0.40817275182E+03  0.12700000000E+01 0. -1.
     200001    2    1    2    0    0  0.67844884132E+03 -0.15892596942E+02  0.70072069663E+03  0.12010755130E+04  0.70073353595E+03 0.  0.
    5000001    2    3    3    0    0  0.12497569442E+03  0.92273418032E+02  0.29413329544E+03  0.34471943877E+03  0.90464291893E+02 0.  0.
        -13    1    4    4    0    0  0.11944772741E+03  0.74967965683E+02  0.25997706038E+03  0.29576348414E+03  0.10566000000E+00 0. -1.
     200003    1    4    4    0    0  0.55279670130E+01  0.17305452349E+02  0.34156235056E+02  0.48955954628E+02  0.30000000000E+02 0. -1.
     200000    1    3    3    0    0  0.55347314690E+03 -0.10816601497E+03  0.40658740119E+03  0.85635607427E+03  0.50000000000E+03 0.  1.
    -200001    1    1    2    0    0 -0.67844884132E+03  0.15892596942E+02  0.13460851865E+04  0.16620742264E+04  0.70000000000E+03 0. -1.
<mgrwt>
<rscale>  0 0.20020520E+04</rscale>
<asrwt>0</asrwt>
<pdfrwt beam="1">  1        4 0.35071113E+00 0.20020520E+04</pdfrwt>
<pdfrwt beam="2">  1       -4 0.58310274E-01 0.20020520E+04</pdfrwt>
<totfact> 0.76779536E-02</totfact>
</mgrwt>
</event>
<event>
 8    1  0.1378634E-029  0.1465575E+04  0.7818608E-02  0.8907673E-01
         -4   -1    0    0    0  501 -0.00000000000E+00  0.00000000000E+00  0.44264483408E+03  0.44264665597E+03  0.12700000000E+01 0. -1.
          4   -1    0    0  501    0  0.00000000000E+00 -0.00000000000E+00 -0.12131069525E+04  0.12131076172E+04  0.12700000000E+01 0.  1.
     200001    2    1    2    0    0 -0.63638861388E+02  0.84138364119E+02 -0.16974313146E+03  0.72731877721E+03  0.69932160270E+03 0.  0.
    5000001    2    3    3    0    0  0.41770319164E+02 -0.18885284567E+02  0.28495360632E+02  0.16962399753E+03  0.16080703164E+03 0.  0.
        -13    1    4    4    0    0 -0.32182924832E+02 -0.77336241811E+01 -0.48139027704E+02  0.58420259723E+02  0.10566000000E+00 0. -1.
     200003    1    4    4    0    0  0.73953243996E+02 -0.11151660386E+02  0.76634388337E+02  0.11120373781E+03  0.30000000000E+02 0. -1.
     200000    1    3    3    0    0 -0.10540918055E+03  0.10302364869E+03 -0.19823849210E+03  0.55769477968E+03  0.50000000000E+03 0. -1.
    -200001    1    1    2    0    0  0.63638861388E+02 -0.84138364119E+02 -0.60071898692E+03  0.92843549600E+03  0.70000000000E+03 0.  1.
<mgrwt>
<rscale>  0 0.14655751E+04</rscale>
<asrwt>0</asrwt>
<pdfrwt beam="1">  1        4 0.17330117E+00 0.14655751E+04</pdfrwt>
<pdfrwt beam="2">  1       -4 0.63235154E-01 0.14655751E+04</pdfrwt>
<totfact> 0.91298515E-01</totfact>
</mgrwt>
</event>
<event>
 8    1  0.1378634E-029  0.2121887E+04  0.7818608E-02  0.8551663E-01
          4   -1    0    0  501    0  0.00000000000E+00  0.00000000000E+00  0.19552839437E+04  0.19552843561E+04  0.12700000000E+01 0.  1.
         -4   -1    0    0    0  501 -0.00000000000E+00 -0.00000000000E+00 -0.57567044864E+03  0.57567184953E+03  0.12700000000E+01 0. -1.
     200001    2    1    2    0    0 -0.36729669099E+03  0.95579340724E+02 -0.14795284793E+03  0.80831253914E+03  0.69816677530E+03 0.  0.
    5000001    2    3    3    0    0 -0.14068070149E+03 -0.26577770629E+02 -0.12453538509E+03  0.24543995665E+03  0.15567360894E+03 0.  0.
        -13    1    4    4    0    0  0.23636039703E+01 -0.56115507398E+02 -0.91665304302E+01  0.56908463680E+02  0.10566000000E+00 0. -1.
     200003    1    4    4    0    0 -0.14304430546E+03  0.29537736769E+02 -0.11536885466E+03  0.18853149297E+03  0.30000000000E+02 0. -1.
     200000    1    3    3    0    0 -0.22661598951E+03  0.12215711135E+03 -0.23417462837E+02  0.56287258249E+03  0.50000000000E+03 0. -1.
    -200001    1    1    2    0    0  0.36729669099E+03 -0.95579340724E+02  0.15275663430E+04  0.17226436665E+04  0.70000000000E+03 0.  1.
<mgrwt>
<rscale>  0 0.21218873E+04</rscale>
<asrwt>0</asrwt>
<pdfrwt beam="1">  1        4 0.27932640E+00 0.21218873E+04</pdfrwt>
<pdfrwt beam="2">  1       -4 0.82238766E-01 0.21218873E+04</pdfrwt>
<totfact> 0.10040429E-01</totfact>
</mgrwt>
</event>
<event>
 8    1  0.1378634E-029  0.1624707E+04  0.7818608E-02  0.8805512E-01
         -4   -1    0    0    0  501 -0.00000000000E+00  0.00000000000E+00  0.29481205517E+03  0.29481479063E+03  0.12700000000E+01 0. -1.
          4   -1    0    0  501    0  0.00000000000E+00 -0.00000000000E+00 -0.22384238507E+04  0.22384242110E+04  0.12700000000E+01 0.  1.
     200001    2    1    2    0    0  0.13783791785E+03 -0.33874943610E+03 -0.12676651739E+04  0.14936937610E+04  0.70028250471E+03 0.  0.
    5000001    2    3    3    0    0 -0.12724836407E+02 -0.60813687063E+02 -0.36952432272E+03  0.41825226461E+03  0.18581309364E+03 0.  0.
        -13    1    4    4    0    0  0.34152465980E+02 -0.32019552787E+02 -0.35471174702E+01  0.46949290725E+02  0.10566000000E+00 0. -1.
     200003    1    4    4    0    0 -0.46877302387E+02 -0.28794134276E+02 -0.36597720525E+03  0.37130297388E+03  0.30000000000E+02 0. -1.
     200000    1    3    3    0    0  0.15056275426E+03 -0.27793574903E+03 -0.89814085120E+03  0.10754414964E+04  0.50000000000E+03 0.  1.
    -200001    1    1    2    0    0 -0.13783791785E+03  0.33874943610E+03 -0.67594662163E+03  0.10395452406E+04  0.70000000000E+03 0. -1.
<mgrwt>
<rscale>  0 0.16247071E+04</rscale>
<asrwt>0</asrwt>
<pdfrwt beam="1">  1        4 0.31977504E+00 0.16247071E+04</pdfrwt>
<pdfrwt beam="2">  1       -4 0.42116231E-01 0.16247071E+04</pdfrwt>
<totfact> 0.24696894E-01</totfact>
</mgrwt>
</event>
<event>
 8    1  0.1378634E-029  0.2091005E+04  0.7818608E-02  0.8565216E-01
          4   -1    0    0  501    0  0.00000000000E+00  0.00000000000E+00  0.11528829962E+04  0.11528836957E+04  0.12700000000E+01 0.  1.
         -4   -1    0    0    0  501 -0.00000000000E+00 -0.00000000000E+00 -0.94812206337E+03  0.94812291394E+03  0.12700000000E+01 0. -1.
     200001    2    1    2    0    0 -0.61597698696E+03  0.46373656530E+03  0.85639071554E+01  0.10413026306E+04  0.69982753407E+03 0.  0.
    5000001    2    3    3    0    0 -0.94781654390E+02  0.21708158064E+03  0.12018930065E+02  0.27808890339E+03  0.14519300551E+03 0.  0.
        -13    1    4    4    0    0 -0.29405030815E+02  0.10064807053E+03  0.73502409376E+02  0.12805196323E+03  0.10566000000E+00 0. -1.
     200003    1    4    4    0    0 -0.65376623575E+02  0.11643351011E+03 -0.61483479311E+02  0.15003694017E+03  0.30000000000E+02 0. -1.
     200000    1    3    3    0    0 -0.52119533257E+03  0.24665498466E+03 -0.34550229092E+01  0.76321372717E+03  0.50000000000E+03 0.  1.
    -200001    1    1    2    0    0  0.61597698696E+03 -0.46373656530E+03  0.19619702570E+03  0.10597039791E+04  0.70000000000E+03 0.  1.
<mgrwt>
<rscale>  0 0.20910050E+04</rscale>
<asrwt>0</asrwt>
<pdfrwt beam="1">  1        4 0.16469768E+00 0.20910050E+04</pdfrwt>
<pdfrwt beam="2">  1       -4 0.13544612E+00 0.20910050E+04</pdfrwt>
<totfact> 0.16738196E-01</totfact>
</mgrwt>
</event>
<event>
 8    1  0.1378634E-029  0.1620499E+04  0.7818608E-02  0.8808052E-01
          4   -1    0    0  501    0  0.00000000000E+00  0.00000000000E+00  0.45761226935E+03  0.45761403165E+03  0.12700000000E+01 0.  1.
         -4   -1    0    0    0  501 -0.00000000000E+00 -0.00000000000E+00 -0.14346258176E+04  0.14346263798E+04  0.12700000000E+01 0. -1.
     200001    2    1    2    0    0  0.31141089479E+03  0.24426666281E+03 -0.37413364696E+03  0.88719955484E+03  0.70035999055E+03 0.  0.
    5000001    2    3    3    0    0  0.15840844843E+03  0.32031010499E+02  0.13621639957E+01  0.20937153480E+03  0.13309906809E+03 0.  0.
        -13    1    4    4    0    0  0.22763046620E+02 -0.41618195587E+02  0.19096579341E+02  0.51136298281E+02  0.10566000000E+00 0. -1.
     200003    1    4    4    0    0  0.13564540181E+03  0.73649206086E+02 -0.17734415345E+02  0.15823523652E+03  0.30000000000E+02 0. -1.
     200000    1    3    3    0    0  0.15300244636E+03  0.21223565231E+03 -0.37549581096E+03  0.67782802004E+03  0.50000000000E+03 0.  1.
    -200001    1    1    2    0    0 -0.31141089479E+03 -0.24426666281E+03 -0.60287990133E+03  0.10050408566E+04  0.70000000000E+03 0. -1.
<mgrwt>
<rscale>  0 0.16204994E+04</rscale>
<asrwt>0</asrwt>
<pdfrwt beam="1">  1        4 0.65373348E-01 0.16204994E+04</pdfrwt>
<pdfrwt beam="2">  1       -4 0.20494671E+00 0.16204994E+04</pdfrwt>
<totfact> 0.51204929E-01</totfact>
</mgrwt>
</event>
<event>
 8    1  0.1378634E-029  0.1886836E+04  0.7818608E-02  0.8661437E-01
          4   -1    0    0  501    0  0.00000000000E+00  0.00000000000E+00  0.58136464005E+03  0.58136602722E+03  0.12700000000E+01 0.  1.
         -4   -1    0    0    0  501 -0.00000000000E+00 -0.00000000000E+00 -0.15309423268E+04  0.15309428535E+04  0.12700000000E+01 0. -1.
     200001    2    1    2    0    0 -0.29860244685E+03 -0.36480104275E+03 -0.29006291054E+01  0.84406573629E+03  0.70013950858E+03 0.  0.
    5000001    2    3    3    0    0 -0.53841007914E+02 -0.57943390364E+01 -0.11554801007E+03  0.17214058589E+03  0.11553618560E+03 0.  0.
        -13    1    4    4    0    0  0.12365591590E+02  0.26422097221E+02  0.30787451688E+01  0.29334704921E+02  0.10566000000E+00 0. -1.
     200003    1    4    4    0    0 -0.66206599505E+02 -0.32216436258E+02 -0.11862675523E+03  0.14280588097E+03  0.30000000000E+02 0. -1.
     200000    1    3    3    0    0 -0.24476143894E+03 -0.35900670371E+03  0.11264738096E+03  0.67192515040E+03  0.50000000000E+03 0.  1.
    -200001    1    1    2    0    0  0.29860244685E+03  0.36480104275E+03 -0.94667705760E+03  0.12682431444E+04  0.70000000000E+03 0. -1.
<mgrwt>
<rscale>  0 0.18868362E+04</rscale>
<asrwt>0</asrwt>
<pdfrwt beam="1">  1        4 0.83052229E-01 0.18868362E+04</pdfrwt>
<pdfrwt beam="2">  1       -4 0.21870618E+00 0.18868362E+04</pdfrwt>
<totfact> 0.23936102E-01</totfact>
</mgrwt>
</event>
<event>
 8    1  0.1378634E-029  0.1586527E+04  0.7818608E-02  0.8828868E-01
         -4   -1    0    0    0  501 -0.00000000000E+00  0.00000000000E+00  0.17331480861E+04  0.17331485514E+04  0.12700000000E+01 0. -1.
          4   -1    0    0  501    0  0.00000000000E+00 -0.00000000000E+00 -0.36307570685E+03  0.36307792801E+03  0.12700000000E+01 0.  1.
     200001    2    1    2    0    0  0.12094389580E+03  0.35018633361E+03  0.63930030239E+03  0.10185968016E+04  0.70112529082E+03 0.  0.
    5000001    2    3    3    0    0  0.56820140817E+02  0.11304931590E+03  0.99841845841E+02  0.24312194872E+03  0.18201981084E+03 0.  0.
        -13    1    4    4    0    0  0.25113873244E+02 -0.11104567960E+02  0.10783466303E+03  0.11127598022E+03  0.10566000000E+00 0. -1.
     200003    1    4    4    0    0  0.31706267573E+02  0.12415388386E+03 -0.79928171905E+01  0.13184596849E+03  0.30000000000E+02 0. -1.
     200000    1    3    3    0    0  0.64123754988E+02  0.23713701771E+03  0.53945845655E+03  0.77547485289E+03  0.50000000000E+03 0. -1.
    -200001    1    1    2    0    0 -0.12094389580E+03 -0.35018633361E+03  0.73077207687E+03  0.10776296778E+04  0.70000000000E+03 0. -1.
<mgrwt>
<rscale>  0 0.15865268E+04</rscale>
<asrwt>0</asrwt>
<pdfrwt beam="1">  1        4 0.51868150E-01 0.15865268E+04</pdfrwt>
<pdfrwt beam="2">  1       -4 0.24759277E+00 0.15865268E+04</pdfrwt>
<totfact> 0.45195731E-01</totfact>
</mgrwt>
</event>
<event>
 8    1  0.1378634E-029  0.1549874E+04  0.7818608E-02  0.8851948E-01
          4   -1    0    0  501    0  0.00000000000E+00  0.00000000000E+00  0.13817102205E+04  0.13817108042E+04  0.12700000000E+01 0.  1.
         -4   -1    0    0    0  501 -0.00000000000E+00 -0.00000000000E+00 -0.43462462496E+03  0.43462648046E+03  0.12700000000E+01 0. -1.
     200001    2    1    2    0    0  0.21937998392E+03 -0.24642606796E+03  0.47289337975E+03  0.90875167335E+03  0.70238740798E+03 0.  0.
    5000001    2    3    3    0    0  0.11712833891E+03 -0.10478135433E+03  0.13994818968E+03  0.28315505939E+03  0.18945477527E+03 0.  0.
        -13    1    4    4    0    0 -0.28877553482E+01 -0.12667340434E+02 -0.42387859099E+02  0.44334438167E+02  0.10566000000E+00 0. -1.
     200003    1    4    4    0    0  0.12001609426E+03 -0.92114013900E+02  0.18233604878E+03  0.23882062122E+03  0.30000000000E+02 0. -1.
     200000    1    3    3    0    0  0.10225164501E+03 -0.14164471362E+03  0.33294519007E+03  0.62559661396E+03  0.50000000000E+03 0.  1.
    -200001    1    1    2    0    0 -0.21937998392E+03  0.24642606796E+03  0.47419221583E+03  0.90758561132E+03  0.70000000000E+03 0. -1.
<mgrwt>
<rscale>  0 0.15498742E+04</rscale>
<asrwt>0</asrwt>
<pdfrwt beam="1">  1        4 0.19738735E+00 0.15498742E+04</pdfrwt>
<pdfrwt beam="2">  1       -4 0.62089407E-01 0.15498742E+04</pdfrwt>
<totfact> 0.64576986E-01</totfact>
</mgrwt>
</event>
<event>
 8    1  0.1378634E-029  0.1514385E+04  0.7818608E-02  0.8874943E-01
         -4   -1    0    0    0  501 -0.00000000000E+00  0.00000000000E+00  0.64190010785E+03  0.64190136419E+03  0.12700000000E+01 0. -1.
          4   -1    0    0  501    0  0.00000000000E+00 -0.00000000000E+00 -0.89319027073E+03  0.89319117361E+03  0.12700000000E+01 0.  1.
     200001    2    1    2    0    0  0.15218572000E+03 -0.11317653211E+03 -0.34605241586E+03  0.80369025084E+03  0.70014021737E+03 0.  0.
    5000001    2    3    3    0    0 -0.42717489712E+02  0.97165745567E+02  0.85457176576E+01  0.12695472552E+03  0.69126745926E+02 0.  0.
        -13    1    4    4    0    0 -0.38407434434E+02  0.50718735099E+02 -0.17060605583E+02  0.65868023629E+02  0.10566000000E+00 0. -1.
     200003    1    4    4    0    0 -0.43100552774E+01  0.46447010468E+02  0.25606323240E+02  0.61086701890E+02  0.30000000000E+02 0. -1.
     200000    1    3    3    0    0  0.19490320972E+03 -0.21034227768E+03 -0.35459813352E+03  0.67673552532E+03  0.50000000000E+03 0.  1.
    -200001    1    1    2    0    0 -0.15218572000E+03  0.11317653211E+03  0.94762252983E+02  0.73140228697E+03  0.70000000000E+03 0. -1.
<mgrwt>
<rscale>  0 0.15143851E+04</rscale>
<asrwt>0</asrwt>
<pdfrwt beam="1">  1        4 0.12759876E+00 0.15143851E+04</pdfrwt>
<pdfrwt beam="2">  1       -4 0.91700170E-01 0.15143851E+04</pdfrwt>
<totfact> 0.89226766E-01</totfact>
</mgrwt>
</event>
<event>
 8    1  0.1378634E-029  0.2083636E+04  0.7818608E-02  0.8568486E-01
          4   -1    0    0  501    0  0.00000000000E+00  0.00000000000E+00  0.66032984806E+03  0.66033106935E+03  0.12700000000E+01 0.  1.
         -4   -1    0    0    0  501 -0.00000000000E+00 -0.00000000000E+00 -0.16436981030E+04  0.16436985936E+04  0.12700000000E+01 0. -1.
     200001    2    1    2    0    0 -0.16528585629E+03 -0.69928258006E+03 -0.17996908529E+03  0.10188192651E+04  0.69949144541E+03 0.  0.
    5000001    2    3    3    0    0 -0.46053254399E+02 -0.23012253714E+03 -0.48871135879E+02  0.31064256994E+03  0.19756804902E+03 0.  0.
        -13    1    4    4    0    0 -0.13654595921E+02  0.34547161954E+02  0.32855465442E+01  0.37292899712E+02  0.10566000000E+00 0. -1.
     200003    1    4    4    0    0 -0.32398658478E+02 -0.26466969910E+03 -0.52156682423E+02  0.27334967022E+03  0.30000000000E+02 0. -1.
     200000    1    3    3    0    0 -0.11923260189E+03 -0.46916004291E+03 -0.13109794942E+03  0.70817669516E+03  0.50000000000E+03 0.  1.
    -200001    1    1    2    0    0  0.16528585629E+03  0.69928258006E+03 -0.80339916964E+03  0.12852103979E+04  0.70000000000E+03 0. -1.
<mgrwt>
<rscale>  0 0.20836361E+04</rscale>
<asrwt>0</asrwt>
<pdfrwt beam="1">  1        4 0.94332958E-01 0.20836361E+04</pdfrwt>
<pdfrwt beam="2">  1       -4 0.23481414E+00 0.20836361E+04</pdfrwt>
<totfact> 0.13860297E-01</totfact>
</mgrwt>
</event>
<event>
 8    1  0.1378634E-029  0.1790034E+04  0.7818608E-02  0.8711618E-01
         -4   -1    0    0    0  501 -0.00000000000E+00  0.00000000000E+00  0.23773952628E+04  0.23773956020E+04  0.12700000000E+01 0. -1.
          4   -1    0    0  501    0  0.00000000000E+00 -0.00000000000E+00 -0.33694495149E+03  0.33694734490E+03  0.12700000000E+01 0.  1.
     200001    2    1    2    0    0  0.19918106905E+03  0.47006946877E+03  0.13635883518E+04  0.16148973976E+04  0.69848551007E+03 0.  0.
    5000001    2    3    3    0    0  0.48799330789E+02  0.62403643872E+02  0.46254585336E+03  0.49655770142E+03  0.16231233756E+03 0.  0.
        -13    1    4    4    0    0 -0.18237521812E+02 -0.45289147804E+02  0.15559758649E+03  0.16307769374E+03  0.10566000000E+00 0. -1.
     200003    1    4    4    0    0  0.67036852601E+02  0.10769279168E+03  0.30694826688E+03  0.33348000768E+03  0.30000000000E+02 0. -1.
     200000    1    3    3    0    0  0.15038173826E+03  0.40766582490E+03  0.90104249843E+03  0.11183396961E+04  0.50000000000E+03 0. -1.
    -200001    1    1    2    0    0 -0.19918106905E+03 -0.47006946877E+03  0.67686195951E+03  0.10994455493E+04  0.70000000000E+03 0.  1.
<mgrwt>
<rscale>  0 0.17900336E+04</rscale>
<asrwt>0</asrwt>
<pdfrwt beam="1">  1        4 0.48135191E-01 0.17900336E+04</pdfrwt>
<pdfrwt beam="2">  1       -4 0.33962807E+00 0.17900336E+04</pdfrwt>
<totfact> 0.13830772E-01</totfact>
</mgrwt>
</event>
<event>
 8    1  0.1378634E-029  0.2009551E+04  0.7818608E-02  0.8602168E-01
          4   -1    0    0  501    0  0.00000000000E+00  0.00000000000E+00  0.44262921522E+03  0.44263103717E+03  0.12700000000E+01 0.  1.
         -4   -1    0    0    0  501 -0.00000000000E+00 -0.00000000000E+00 -0.22808495920E+04  0.22808499456E+04  0.12700000000E+01 0. -1.
     200001    2    1    2    0    0 -0.90319194076E+02 -0.68763899957E+03 -0.11822242225E+04  0.15397006378E+04  0.70144065423E+03 0.  0.
    5000001    2    3    3    0    0 -0.39841149081E+02 -0.21067695840E+03 -0.28030190215E+03  0.40237715982E+03  0.19330319303E+03 0.  0.
        -13    1    4    4    0    0 -0.90940535566E+02 -0.15156777167E+03 -0.26305237899E+03  0.31692197096E+03  0.10566000000E+00 0. -1.
     200003    1    4    4    0    0  0.51099386484E+02 -0.59109186731E+02 -0.17249523160E+02  0.85455188867E+02  0.30000000000E+02 0. -1.
     200000    1    3    3    0    0 -0.50478044994E+02 -0.47696204117E+03 -0.90192232033E+03  0.11373234780E+04  0.50000000000E+03 0. -1.
    -200001    1    1    2    0    0  0.90319194076E+02  0.68763899957E+03 -0.65599615430E+03  0.11837803449E+04  0.70000000000E+03 0.  1.
<mgrwt>
<rscale>  0 0.20095508E+04</rscale>
<asrwt>0</asrwt>
<pdfrwt beam="1">  1        4 0.63232902E-01 0.20095508E+04</pdfrwt>
<pdfrwt beam="2">  1       -4 0.32583580E+00 0.20095508E+04</pdfrwt>
<totfact> 0.93141005E-02</totfact>
</mgrwt>
</event>
<event>
 8    1  0.1378634E-029  0.1490505E+04  0.7818608E-02  0.8890791E-01
          4   -1    0    0  501    0  0.00000000000E+00  0.00000000000E+00  0.25351183859E+03  0.25351501968E+03  0.12700000000E+01 0.  1.
         -4   -1    0    0    0  501 -0.00000000000E+00 -0.00000000000E+00 -0.21908132937E+04  0.21908136618E+04  0.12700000000E+01 0. -1.
     200001    2    1    2    0    0 -0.12118261025E+02  0.15591987729E+03 -0.64269329374E+03  0.96430565738E+03  0.70169286063E+03 0.  0.
    5000001    2    3    3    0    0 -0.92267996831E+01  0.74058490119E+02 -0.24875435264E+03  0.32251321697E+03  0.19122304613E+03 0.  0.
        -13    1    4    4    0    0  0.55156135079E+02  0.14377005914E+02 -0.21714604039E+03  0.22450236426E+03  0.10566000000E+00 0. -1.
     200003    1    4    4    0    0 -0.64382934762E+02  0.59681484206E+02 -0.31608312248E+02  0.98010852709E+02  0.30000000000E+02 0. -1.
     200000    1    3    3    0    0 -0.28914613418E+01  0.81861387169E+02 -0.39393894110E+03  0.64179244041E+03  0.50000000000E+03 0.  1.
    -200001    1    1    2    0    0  0.12118261025E+02 -0.15591987729E+03 -0.12946081613E+04  0.14800230241E+04  0.70000000000E+03 0. -1.
<mgrwt>
<rscale>  0 0.14905052E+04</rscale>
<asrwt>0</asrwt>
<pdfrwt beam="1">  1        4 0.36216232E-01 0.14905052E+04</pdfrwt>
<pdfrwt beam="2">  1       -4 0.31297357E+00 0.14905052E+04</pdfrwt>
<totfact> 0.37323723E-01</totfact>
</mgrwt>
</event>
<event>
 8    1  0.1378634E-029  0.1615874E+04  0.7818608E-02  0.8810855E-01
          4   -1    0    0  501    0  0.00000000000E+00  0.00000000000E+00  0.96651266202E+03  0.96651349642E+03  0.12700000000E+01 0.  1.
         -4   -1    0    0    0  501 -0.00000000000E+00 -0.00000000000E+00 -0.67537681672E+03  0.67537801080E+03  0.12700000000E+01 0. -1.
     200001    2    1    2    0    0  0.17021267387E+03 -0.56862368129E+02 -0.22129503193E+03  0.75600715404E+03  0.70026398062E+03 0.  0.
    5000001    2    3    3    0    0  0.93789502189E+02 -0.53437152548E+02 -0.44157885099E+02  0.22006890941E+03  0.18662370181E+03 0.  0.
        -13    1    4    4    0    0  0.11468175108E+03 -0.10283765172E+03 -0.34572597440E+02  0.15786944702E+03  0.10566000000E+00 0. -1.
     200003    1    4    4    0    0 -0.20892248893E+02  0.49400499175E+02 -0.95852876590E+01  0.62199462394E+02  0.30000000000E+02 0. -1.
     200000    1    3    3    0    0  0.76423171684E+02 -0.34252155804E+01 -0.17713714683E+03  0.53593824463E+03  0.50000000000E+03 0. -1.
    -200001    1    1    2    0    0 -0.17021267387E+03  0.56862368129E+02  0.51243087723E+03  0.88588435317E+03  0.70000000000E+03 0.  1.
<mgrwt>
<rscale>  0 0.16158736E+04</rscale>
<asrwt>0</asrwt>
<pdfrwt beam="1">  1        4 0.13807338E+00 0.16158736E+04</pdfrwt>
<pdfrwt beam="2">  1       -4 0.96482548E-01 0.16158736E+04</pdfrwt>
<totfact> 0.64241695E-01</totfact>
</mgrwt>
</event>
<event>
 8    1  0.1378634E-029  0.1505865E+04  0.7818608E-02  0.8880562E-01
          4   -1    0    0  501    0  0.00000000000E+00  0.00000000000E+00  0.85521609978E+03  0.85521704276E+03  0.12700000000E+01 0. -1.
         -4   -1    0    0    0  501 -0.00000000000E+00 -0.00000000000E+00 -0.66288026608E+03  0.66288148266E+03  0.12700000000E+01 0.  1.
     200001    2    1    2    0    0 -0.19863942400E+02 -0.13869075703E+03  0.33699332504E+03  0.78970612287E+03  0.70031532689E+03 0.  0.
    5000001    2    3    3    0    0  0.26747275716E+02 -0.12902186727E+02  0.95929228627E+02  0.21864809722E+03  0.19422330018E+03 0.  0.
        -13    1    4    4    0    0 -0.61033129415E+02  0.29044776077E+02 -0.13775788142E+02  0.68981341003E+02  0.10566000000E+00 0. -1.
     200003    1    4    4    0    0  0.87780405131E+02 -0.41946962804E+02  0.10970501677E+03  0.14966675622E+03  0.30000000000E+02 0. -1.
     200000    1    3    3    0    0 -0.46611218116E+02 -0.12578857030E+03  0.24106409641E+03  0.57105802564E+03  0.50000000000E+03 0. -1.
    -200001    1    1    2    0    0  0.19863942400E+02  0.13869075703E+03 -0.14465749134E+03  0.72839240255E+03  0.70000000000E+03 0.  1.
<mgrwt>
<rscale>  0 0.15058652E+04</rscale>
<asrwt>0</asrwt>
<pdfrwt beam="1">  1        4 0.12217388E+00 0.15058652E+04</pdfrwt>
<pdfrwt beam="2">  1       -4 0.94697335E-01 0.15058652E+04</pdfrwt>
<totfact> 0.92387419E-01</totfact>
</mgrwt>
</event>
<event>
 8    1  0.1378634E-029  0.1475841E+04  0.7818608E-02  0.8900679E-01
          4   -1    0    0  501    0  0.00000000000E+00  0.00000000000E+00  0.65780284806E+03  0.65780407403E+03  0.12700000000E+01 0.  1.
         -4   -1    0    0    0  501 -0.00000000000E+00 -0.00000000000E+00 -0.82779320994E+03  0.82779418416E+03  0.12700000000E+01 0. -1.
     200001    2    1    2    0    0  0.16222223824E+03  0.63940598278E+02 -0.24107980149E+03  0.76071332724E+03  0.70011487691E+03 0.  0.
    5000001    2    3    3    0    0  0.27124773800E+02  0.44271476522E+02 -0.93197392256E+02  0.22172593759E+03  0.19437314755E+03 0.  0.
        -13    1    4    4    0    0  0.11156297434E+02 -0.41874422060E+01 -0.14353384989E+03  0.14402768787E+03  0.10566000000E+00 0. -1.
     200003    1    4    4    0    0  0.15968476366E+02  0.48458918728E+02  0.50336457635E+02  0.77698249717E+02  0.30000000000E+02 0. -1.
     200000    1    3    3    0    0  0.13509746444E+03  0.19669121756E+02 -0.14788240923E+03  0.53898738966E+03  0.50000000000E+03 0. -1.
    -200001    1    1    2    0    0 -0.16222223824E+03 -0.63940598278E+02  0.71089439604E+02  0.72488493095E+03  0.70000000000E+03 0.  1.
<mgrwt>
<rscale>  0 0.14758406E+04</rscale>
<asrwt>0</asrwt>
<pdfrwt beam="1">  1        4 0.93971993E-01 0.14758406E+04</pdfrwt>
<pdfrwt beam="2">  1       -4 0.11825633E+00 0.14758406E+04</pdfrwt>
<totfact> 0.10226162E+00</totfact>
</mgrwt>
</event>
<event>
 8    1  0.1378634E-029  0.1441414E+04  0.7818608E-02  0.8924375E-01
         -4   -1    0    0    0  501 -0.00000000000E+00  0.00000000000E+00  0.39284383889E+03  0.39284589174E+03  0.12700000000E+01 0. -1.
          4   -1    0    0  501    0  0.00000000000E+00 -0.00000000000E+00 -0.13221944976E+04  0.13221951075E+04  0.12700000000E+01 0.  1.
     200001    2    1    2    0    0 -0.75404727223E+02  0.14844552606E+03 -0.42830652549E+03  0.83824731170E+03  0.70106356966E+03 0.  0.
    5000001    2    3    3    0    0 -0.13718900052E+02  0.10957777906E+02 -0.20439582742E+03  0.27005366260E+03  0.17562188162E+03 0.  0.
        -13    1    4    4    0    0  0.11968340575E+02 -0.10844721460E+02  0.28538018864E+02  0.32791444682E+02  0.10566000000E+00 0. -1.
     200003    1    4    4    0    0 -0.25687240627E+02  0.21802499365E+02 -0.23293384628E+03  0.23726221792E+03  0.30000000000E+02 0. -1.
     200000    1    3    3    0    0 -0.61685827171E+02  0.13748774815E+03 -0.22391069807E+03  0.56819364910E+03  0.50000000000E+03 0. -1.
    -200001    1    1    2    0    0  0.75404727223E+02 -0.14844552606E+03 -0.50104413319E+03  0.87679368753E+03  0.70000000000E+03 0. -1.
<mgrwt>
<rscale>  0 0.14414135E+04</rscale>
<asrwt>0</asrwt>
<pdfrwt beam="1">  1        4 0.18888512E+00 0.14414135E+04</pdfrwt>
<pdfrwt beam="2">  1       -4 0.56120739E-01 0.14414135E+04</pdfrwt>
<totfact> 0.92167326E-01</totfact>
</mgrwt>
</event>
<event>
 8    1  0.1378634E-029  0.1767332E+04  0.7818608E-02  0.8723867E-01
         -4   -1    0    0    0  501 -0.00000000000E+00  0.00000000000E+00  0.16439325438E+04  0.16439330343E+04  0.12700000000E+01 0. -1.
          4   -1    0    0  501    0  0.00000000000E+00 -0.00000000000E+00 -0.47499739373E+03  0.47499909153E+03  0.12700000000E+01 0.  1.
     200001    2    1    2    0    0  0.19795608577E+03  0.43489948903E+03  0.28403195801E+03  0.89362488409E+03  0.69969071942E+03 0.  0.
    5000001    2    3    3    0    0  0.13683647497E+03  0.83720402355E+02 -0.18714207532E+02  0.20899535033E+03  0.13264806160E+03 0.  0.
        -13    1    4    4    0    0  0.63468960006E+02 -0.96116591223E+01  0.37408985481E+02  0.74297619303E+02  0.10566000000E+00 0. -1.
     200003    1    4    4    0    0  0.73367514960E+02  0.93332061478E+02 -0.56123193013E+02  0.13469773103E+03  0.30000000000E+02 0. -1.
     200000    1    3    3    0    0  0.61119610803E+02  0.35117908668E+03  0.30274616554E+03  0.68462953376E+03  0.50000000000E+03 0.  1.
    -200001    1    1    2    0    0 -0.19795608577E+03 -0.43489948903E+03  0.88490319203E+03  0.12253072418E+04  0.70000000000E+03 0. -1.
<mgrwt>
<rscale>  0 0.17673324E+04</rscale>
<asrwt>0</asrwt>
<pdfrwt beam="1">  1        4 0.67856928E-01 0.17673324E+04</pdfrwt>
<pdfrwt beam="2">  1       -4 0.23484766E+00 0.17673324E+04</pdfrwt>
<totfact> 0.30046161E-01</totfact>
</mgrwt>
</event>
<event>
 8    1  0.1378634E-029  0.1855812E+04  0.7818608E-02  0.8677170E-01
         -4   -1    0    0    0  501 -0.00000000000E+00  0.00000000000E+00  0.68861518709E+03  0.68861635821E+03  0.12700000000E+01 0. -1.
          4   -1    0    0  501    0  0.00000000000E+00 -0.00000000000E+00 -0.12503464112E+04  0.12503470562E+04  0.12700000000E+01 0.  1.
     200001    2    1    2    0    0  0.13340362971E+03  0.20517049086E+02 -0.90128604474E+03  0.11493337835E+04  0.70031002683E+03 0.  0.
    5000001    2    3    3    0    0  0.96912885340E+01  0.26254066819E+02 -0.32065206104E+03  0.37314213205E+03  0.18876999062E+03 0.  0.
        -13    1    4    4    0    0  0.41490618527E+02  0.72123079979E+01  0.64313022898E+01  0.42601192772E+02  0.10566000000E+00 0. -1.
     200003    1    4    4    0    0 -0.31799329993E+02  0.19041758822E+02 -0.32708336333E+03  0.33054093927E+03  0.30000000000E+02 0. -1.
     200000    1    3    3    0    0  0.12371234117E+03 -0.57370177339E+01 -0.58063398370E+03  0.77619165144E+03  0.50000000000E+03 0.  1.
    -200001    1    1    2    0    0 -0.13340362971E+03 -0.20517049086E+02  0.33955482067E+03  0.78962963088E+03  0.70000000000E+03 0. -1.
<mgrwt>
<rscale>  0 0.18558117E+04</rscale>
<asrwt>0</asrwt>
<pdfrwt beam="1">  1        4 0.17862104E+00 0.18558117E+04</pdfrwt>
<pdfrwt beam="2">  1       -4 0.98373729E-01 0.18558117E+04</pdfrwt>
<totfact> 0.29894452E-01</totfact>
</mgrwt>
</event>
<event>
 8    1  0.1378634E-029  0.1427114E+04  0.7818608E-02  0.8934422E-01
         -4   -1    0    0    0  501 -0.00000000000E+00  0.00000000000E+00  0.34728718234E+03  0.34728950448E+03  0.12700000000E+01 0. -1.
          4   -1    0    0  501    0  0.00000000000E+00 -0.00000000000E+00 -0.14661103030E+04  0.14661108531E+04  0.12700000000E+01 0.  1.
     200001    2    1    2    0    0 -0.11875121126E+03 -0.69149046491E+02 -0.57086758440E+03  0.91387897898E+03  0.70028676161E+03 0.  0.
    5000001    2    3    3    0    0 -0.10645275024E+03  0.61612810609E+02 -0.13005171523E+03  0.23449061734E+03  0.15147301582E+03 0.  0.
        -13    1    4    4    0    0  0.47146967451E+01 -0.39150962265E+02 -0.43440625787E+02  0.58669628808E+02  0.10566000000E+00 0. -1.
     200003    1    4    4    0    0 -0.11116744699E+03  0.10076377287E+03 -0.86611089443E+02  0.17582098853E+03  0.30000000000E+02 0. -1.
     200000    1    3    3    0    0 -0.12298461013E+02 -0.13076185710E+03 -0.44081586917E+03  0.67938836164E+03  0.50000000000E+03 0. -1.
    -200001    1    1    2    0    0  0.11875121126E+03  0.69149046491E+02 -0.54795553630E+03  0.89952137861E+03  0.70000000000E+03 0.  1.
<mgrwt>
<rscale>  0 0.14271145E+04</rscale>
<asrwt>0</asrwt>
<pdfrwt beam="1">  1        4 0.20944453E+00 0.14271145E+04</pdfrwt>
<pdfrwt beam="2">  1       -4 0.49612661E-01 0.14271145E+04</pdfrwt>
<totfact> 0.87417439E-01</totfact>
</mgrwt>
</event>
<event>
 8    1  0.1378634E-029  0.1923439E+04  0.7818608E-02  0.8643276E-01
          4   -1    0    0  501    0  0.00000000000E+00  0.00000000000E+00  0.27505677926E+03  0.27505971118E+03  0.12700000000E+01 0.  1.
         -4   -1    0    0    0  501 -0.00000000000E+00 -0.00000000000E+00 -0.33625736538E+04  0.33625738937E+04  0.12700000000E+01 0. -1.
     200001    2    1    2    0    0  0.43919482106E+03  0.49006631075E+03 -0.16729254307E+04  0.19276259929E+04  0.69570496054E+03 0.  0.
    5000001    2    3    3    0    0  0.21967895340E+03  0.69746633945E+02 -0.57199803930E+03  0.62882001511E+03  0.12292037635E+03 0.  0.
        -13    1    4    4    0    0  0.85884978880E+02  0.10498886847E+02 -0.35493496889E+03  0.36532902913E+03  0.10566000000E+00 0. -1.
     200003    1    4    4    0    0  0.13379397452E+03  0.59247747097E+02 -0.21706307041E+03  0.26349098598E+03  0.30000000000E+02 0. -1.
     200000    1    3    3    0    0  0.21951586766E+03  0.42031967680E+03 -0.11009273914E+04  0.12988059778E+04  0.50000000000E+03 0.  1.
    -200001    1    1    2    0    0 -0.43919482106E+03 -0.49006631075E+03 -0.14145914439E+04  0.17100076120E+04  0.70000000000E+03 0. -1.
<mgrwt>
<rscale>  0 0.19234391E+04</rscale>
<asrwt>0</asrwt>
<pdfrwt beam="1">  1        4 0.39294054E-01 0.19234391E+04</pdfrwt>
<pdfrwt beam="2">  1       -4 0.48036787E+00 0.19234391E+04</pdfrwt>
<totfact> 0.20790714E-02</totfact>
</mgrwt>
</event>
<event>
 8    1  0.1378634E-029  0.1563991E+04  0.7818608E-02  0.8842980E-01
         -4   -1    0    0    0  501 -0.00000000000E+00  0.00000000000E+00  0.16803003601E+04  0.16803008400E+04  0.12700000000E+01 0. -1.
          4   -1    0    0  501    0  0.00000000000E+00 -0.00000000000E+00 -0.36393131368E+03  0.36393352962E+03  0.12700000000E+01 0.  1.
     200001    2    1    2    0    0 -0.17853542471E+03  0.29778658294E+03  0.72036288116E+03  0.10614958002E+04  0.69806798126E+03 0.  0.
    5000001    2    3    3    0    0  0.87650792378E+01  0.99161170825E+02  0.70520680094E+02  0.19730344928E+03  0.15506682548E+03 0.  0.
        -13    1    4    4    0    0 -0.66888501062E+02  0.32706503951E+02  0.51483972308E+02  0.90522911706E+02  0.10566000000E+00 0. -1.
     200003    1    4    4    0    0  0.75653580300E+02  0.66454666874E+02  0.19036707785E+02  0.10678053758E+03  0.30000000000E+02 0. -1.
     200000    1    3    3    0    0 -0.18730050394E+03  0.19862541211E+03  0.64984220107E+03  0.86419235093E+03  0.50000000000E+03 0. -1.
    -200001    1    1    2    0    0  0.17853542471E+03 -0.29778658294E+03  0.59600616524E+03  0.98273856944E+03  0.70000000000E+03 0.  1.
<mgrwt>
<rscale>  0 0.15639906E+04</rscale>
<asrwt>0</asrwt>
<pdfrwt beam="1">  1        4 0.51990379E-01 0.15639906E+04</pdfrwt>
<pdfrwt beam="2">  1       -4 0.24004311E+00 0.15639906E+04</pdfrwt>
<totfact> 0.50196335E-01</totfact>
</mgrwt>
</event>
<event>
 8    1  0.1378634E-029  0.1974519E+04  0.7818608E-02  0.8618627E-01
         -4   -1    0    0    0  501 -0.00000000000E+00  0.00000000000E+00  0.39047563128E+03  0.39047769658E+03  0.12700000000E+01 0. -1.
          4   -1    0    0  501    0  0.00000000000E+00 -0.00000000000E+00 -0.24961294872E+04  0.24961298103E+04  0.12700000000E+01 0.  1.
     200001    2    1    2    0    0  0.42903078458E+03  0.23964088843E+03 -0.17752389112E+04  0.19697273592E+04  0.69775175260E+03 0.  0.
    5000001    2    3    3    0    0  0.16652076421E+03  0.62966397253E+02 -0.62958657588E+03  0.68029156785E+03  0.18634223530E+03 0.  0.
        -13    1    4    4    0    0  0.18949380655E+01 -0.57824386227E+01 -0.33182537613E+03  0.33188118174E+03  0.10566000000E+00 0. -1.
     200003    1    4    4    0    0  0.16462582614E+03  0.68748835876E+02 -0.29776119975E+03  0.34841038610E+03  0.30000000000E+02 0. -1.
     200000    1    3    3    0    0  0.26251002037E+03  0.17667449118E+03 -0.11456523353E+04  0.12894357913E+04  0.50000000000E+03 0.  1.
    -200001    1    1    2    0    0 -0.42903078458E+03 -0.23964088843E+03 -0.33041494477E+03  0.91688014770E+03  0.70000000000E+03 0. -1.
<mgrwt>
<rscale>  0 0.19745189E+04</rscale>
<asrwt>0</asrwt>
<pdfrwt beam="1">  1        4 0.35659009E+00 0.19745189E+04</pdfrwt>
<pdfrwt beam="2">  1       -4 0.55782405E-01 0.19745189E+04</pdfrwt>
<totfact> 0.77429597E-02</totfact>
</mgrwt>
</event>
<event>
 8    1  0.1378634E-029  0.1535638E+04  0.7818608E-02  0.8861094E-01
          4   -1    0    0  501    0  0.00000000000E+00  0.00000000000E+00  0.84131443883E+03  0.84131539739E+03  0.12700000000E+01 0. -1.
         -4   -1    0    0    0  501 -0.00000000000E+00 -0.00000000000E+00 -0.70074165758E+03  0.70074280843E+03  0.12700000000E+01 0.  1.
     200001    2    1    2    0    0  0.28786635725E+02 -0.25688864431E+03 -0.11002171455E+03  0.75489999599E+03  0.70067737248E+03 0.  0.
    5000001    2    3    3    0    0  0.27900687206E+02 -0.10838480689E+03 -0.63225363307E+02  0.23121681589E+03  0.19219275395E+03 0.  0.
        -13    1    4    4    0    0  0.93582815263E+02 -0.77372794325E+02  0.12518895521E+02  0.12206976089E+03  0.10566000000E+00 0. -1.
     200003    1    4    4    0    0 -0.65682128057E+02 -0.31012012565E+02 -0.75744258828E+02  0.10914705500E+03  0.30000000000E+02 0. -1.
     200000    1    3    3    0    0  0.88594851883E+00 -0.14850383742E+03 -0.46796351240E+02  0.52368318010E+03  0.50000000000E+03 0.  1.
    -200001    1    1    2    0    0 -0.28786635725E+02  0.25688864431E+03  0.25059449580E+03  0.78715820983E+03  0.70000000000E+03 0. -1.
<mgrwt>
<rscale>  0 0.15356376E+04</rscale>
<asrwt>0</asrwt>
<pdfrwt beam="1">  1        4 0.12018793E+00 0.15356376E+04</pdfrwt>
<pdfrwt beam="2">  1       -4 0.10010610E+00 0.15356376E+04</pdfrwt>
<totfact> 0.84231780E-01</totfact>
</mgrwt>
</event>
<event>
 8    1  0.1378634E-029  0.2171818E+04  0.7818608E-02  0.8530250E-01
          4   -1    0    0  501    0  0.00000000000E+00  0.00000000000E+00  0.78383887969E+03  0.78383990854E+03  0.12700000000E+01 0.  1.
         -4   -1    0    0    0  501 -0.00000000000E+00 -0.00000000000E+00 -0.15043868979E+04  0.15043874340E+04  0.12700000000E+01 0. -1.
     200001    2    1    2    0    0  0.17416364879E+03  0.80947861768E+03 -0.30043965731E+03  0.11254377468E+04  0.70054088044E+03 0.  0.
    5000001    2    3    3    0    0  0.11504919449E+03  0.28931340491E+03 -0.12715079305E+03  0.38106190237E+03  0.17917110773E+03 0.  0.
        -13    1    4    4    0    0  0.13275731227E+03  0.19412301950E+03 -0.14759594827E+03  0.27765594856E+03  0.10566000000E+00 0. -1.
     200003    1    4    4    0    0 -0.17708117780E+02  0.95190385413E+02  0.20445155218E+02  0.10340595380E+03  0.30000000000E+02 0. -1.
     200000    1    3    3    0    0  0.59114454293E+02  0.52016521277E+03 -0.17328886426E+03  0.74437584442E+03  0.50000000000E+03 0. -1.
    -200001    1    1    2    0    0 -0.17416364879E+03 -0.80947861768E+03 -0.42010836092E+03  0.11627895957E+04  0.70000000000E+03 0.  1.
<mgrwt>
<rscale>  0 0.21718183E+04</rscale>
<asrwt>0</asrwt>
<pdfrwt beam="1">  1        4 0.11197710E+00 0.21718183E+04</pdfrwt>
<pdfrwt beam="2">  1       -4 0.21491252E+00 0.21718183E+04</pdfrwt>
<totfact> 0.12198759E-01</totfact>
</mgrwt>
</event>
<event>
 8    1  0.1378634E-029  0.1631846E+04  0.7818608E-02  0.8801219E-01
         -4   -1    0    0    0  501 -0.00000000000E+00  0.00000000000E+00  0.67845714841E+03  0.67845833707E+03  0.12700000000E+01 0. -1.
          4   -1    0    0  501    0  0.00000000000E+00 -0.00000000000E+00 -0.98123963193E+03  0.98124045380E+03  0.12700000000E+01 0.  1.
     200001    2    1    2    0    0  0.10940827236E+03 -0.10471073612E+03  0.24589109727E+03  0.75749193733E+03  0.70028358190E+03 0.  0.
    5000001    2    3    3    0    0  0.53910548328E+02  0.32473080606E+02  0.11413228907E+03  0.21966317231E+03  0.17681878202E+03 0.  0.
        -13    1    4    4    0    0  0.11250867395E+03  0.41431444881E+02  0.85819028114E+02  0.14744383028E+03  0.10566000000E+00 0. -1.
     200003    1    4    4    0    0 -0.58598125620E+02 -0.89583642746E+01  0.28313260956E+02  0.72219342025E+02  0.30000000000E+02 0. -1.
     200000    1    3    3    0    0  0.55497724037E+02 -0.13718381673E+03  0.13175880820E+03  0.53782876502E+03  0.50000000000E+03 0. -1.
    -200001    1    1    2    0    0 -0.10940827236E+03  0.10471073612E+03 -0.54867358078E+03  0.90220685354E+03  0.70000000000E+03 0.  1.
<mgrwt>
<rscale>  0 0.16318465E+04</rscale>
<asrwt>0</asrwt>
<pdfrwt beam="1">  1        4 0.14017723E+00 0.16318465E+04</pdfrwt>
<pdfrwt beam="2">  1       -4 0.96922594E-01 0.16318465E+04</pdfrwt>
<totfact> 0.61026219E-01</totfact>
</mgrwt>
</event>
<event>
 8    1  0.1378634E-029  0.2154157E+04  0.7818608E-02  0.8537755E-01
         -4   -1    0    0    0  501 -0.00000000000E+00  0.00000000000E+00  0.16866324546E+04  0.16866329328E+04  0.12700000000E+01 0. -1.
          4   -1    0    0  501    0  0.00000000000E+00 -0.00000000000E+00 -0.68781794339E+03  0.68781911587E+03  0.12700000000E+01 0.  1.
     200001    2    1    2    0    0 -0.72648334220E+03 -0.37139378217E+03  0.42878889882E+03  0.11576362915E+04  0.70039308662E+03 0.  0.
    5000001    2    3    3    0    0 -0.31267961491E+03 -0.13119831548E+03  0.18017793347E+03  0.42228957124E+03  0.17573518347E+03 0.  0.
        -13    1    4    4    0    0 -0.20389931664E+03 -0.15748473638E+03  0.16374261264E+03  0.30526714182E+03  0.10566000000E+00 0. -1.
     200003    1    4    4    0    0 -0.10878029827E+03  0.26286420907E+02  0.16435320825E+02  0.11702242942E+03  0.30000000000E+02 0. -1.
     200000    1    3    3    0    0 -0.41380372729E+03 -0.24019546670E+03  0.24861096535E+03  0.73534672029E+03  0.50000000000E+03 0.  1.
    -200001    1    1    2    0    0  0.72648334220E+03  0.37139378217E+03  0.57002561241E+03  0.12168157571E+04  0.70000000000E+03 0.  1.
<mgrwt>
<rscale>  0 0.21541569E+04</rscale>
<asrwt>0</asrwt>
<pdfrwt beam="1">  1        4 0.98259823E-01 0.21541569E+04</pdfrwt>
<pdfrwt beam="2">  1       -4 0.24094761E+00 0.21541569E+04</pdfrwt>
<totfact> 0.11453722E-01</totfact>
</mgrwt>
</event>
<event>
 8    1  0.1378634E-029  0.3057602E+04  0.7818608E-02  0.8227471E-01
          4   -1    0    0  501    0  0.00000000000E+00  0.00000000000E+00  0.11121914545E+04  0.11121921796E+04  0.12700000000E+01 0.  1.
         -4   -1    0    0    0  501 -0.00000000000E+00 -0.00000000000E+00 -0.21014637928E+04  0.21014641765E+04  0.12700000000E+01 0. -1.
     200001    2    1    2    0    0 -0.91002871571E+03 -0.69987852060E+03 -0.12594053952E+04  0.18421775647E+04  0.69966708030E+03 0.  0.
    5000001    2    3    3    0    0 -0.18799746073E+03 -0.18746739298E+03 -0.19559514522E+03  0.37058436515E+03  0.16908057898E+03 0.  0.
        -13    1    4    4    0    0 -0.14064637424E+02 -0.92453452822E+02 -0.12906061443E+03  0.15938038877E+03  0.10566000000E+00 0. -1.
     200003    1    4    4    0    0 -0.17393282331E+03 -0.95013940155E+02 -0.66534530786E+02  0.21120397637E+03  0.30000000000E+02 0. -1.
     200000    1    3    3    0    0 -0.72203125498E+03 -0.51241112762E+03 -0.10638102500E+04  0.14715931995E+04  0.50000000000E+03 0. -1.
    -200001    1    1    2    0    0  0.91002871571E+03  0.69987852060E+03  0.27013305701E+03  0.13714787915E+04  0.70000000000E+03 0.  1.
<mgrwt>
<rscale>  0 0.30576016E+04</rscale>
<asrwt>0</asrwt>
<pdfrwt beam="1">  1        4 0.15888457E+00 0.30576016E+04</pdfrwt>
<pdfrwt beam="2">  1       -4 0.30020919E+00 0.30576016E+04</pdfrwt>
<totfact> 0.13435186E-02</totfact>
</mgrwt>
</event>
<event>
 8    1  0.1378634E-029  0.1506359E+04  0.7818608E-02  0.8880236E-01
          4   -1    0    0  501    0  0.00000000000E+00  0.00000000000E+00  0.56876870417E+03  0.56877012206E+03  0.12700000000E+01 0.  1.
         -4   -1    0    0    0  501 -0.00000000000E+00 -0.00000000000E+00 -0.99737781578E+03  0.99737862435E+03  0.12700000000E+01 0. -1.
     200001    2    1    2    0    0 -0.24101946032E+03 -0.10338933843E+03 -0.11498119304E+03  0.75550566412E+03  0.69913403451E+03 0.  0.
    5000001    2    3    3    0    0 -0.48068964112E+02 -0.53268023821E+02 -0.11099690132E+03  0.21721400085E+03  0.17237604936E+03 0.  0.
        -13    1    4    4    0    0 -0.26320994982E+02  0.32194697173E+02  0.27825720566E+02  0.50035739147E+02  0.10566000000E+00 0. -1.
     200003    1    4    4    0    0 -0.21747969130E+02 -0.85462720994E+02 -0.13882262188E+03  0.16717826171E+03  0.30000000000E+02 0. -1.
     200000    1    3    3    0    0 -0.19295049621E+03 -0.50121314609E+02 -0.39842917254E+01  0.53829166327E+03  0.50000000000E+03 0.  1.
    -200001    1    1    2    0    0  0.24101946032E+03  0.10338933843E+03 -0.31362791856E+03  0.81064308229E+03  0.70000000000E+03 0. -1.
<mgrwt>
<rscale>  0 0.15063586E+04</rscale>
<asrwt>0</asrwt>
<pdfrwt beam="1">  1        4 0.81252831E-01 0.15063586E+04</pdfrwt>
<pdfrwt beam="2">  1       -4 0.14248270E+00 0.15063586E+04</pdfrwt>
<totfact> 0.88801542E-01</totfact>
</mgrwt>
</event>
<event>
 8    1  0.1378634E-029  0.2195200E+04  0.7818608E-02  0.8520429E-01
          4   -1    0    0  501    0  0.00000000000E+00  0.00000000000E+00  0.80004162867E+03  0.80004263668E+03  0.12700000000E+01 0.  1.
         -4   -1    0    0    0  501 -0.00000000000E+00 -0.00000000000E+00 -0.15058259465E+04  0.15058264820E+04  0.12700000000E+01 0. -1.
     200001    2    1    2    0    0  0.56758638314E+03 -0.10329734600E+03 -0.10025097069E+04  0.13514737077E+04  0.69902133459E+03 0.  0.
    5000001    2    3    3    0    0  0.16094207525E+03  0.35860260386E+02 -0.18047892133E+03  0.29769050185E+03  0.16987843885E+03 0.  0.
        -13    1    4    4    0    0  0.16368499706E+03 -0.10587746611E+02 -0.17831953358E+03  0.24228649541E+03  0.10566000000E+00 0. -1.
     200003    1    4    4    0    0 -0.27429218082E+01  0.46448006997E+02 -0.21593877547E+01  0.55404006439E+02  0.30000000000E+02 0. -1.
     200000    1    3    3    0    0  0.40664430789E+03 -0.13915760639E+03 -0.82203078554E+03  0.10537832059E+04  0.50000000000E+03 0. -1.
    -200001    1    1    2    0    0 -0.56758638314E+03  0.10329734600E+03  0.29672538908E+03  0.95439541100E+03  0.70000000000E+03 0.  1.
<mgrwt>
<rscale>  0 0.21951995E+04</rscale>
<asrwt>0</asrwt>
<pdfrwt beam="1">  1        4 0.11429177E+00 0.21951995E+04</pdfrwt>
<pdfrwt beam="2">  1       -4 0.21511810E+00 0.21951995E+04</pdfrwt>
<totfact> 0.11545247E-01</totfact>
</mgrwt>
</event>
<event>
 8    1  0.1378634E-029  0.1690653E+04  0.7818608E-02  0.8766713E-01
          4   -1    0    0  501    0  0.00000000000E+00  0.00000000000E+00  0.21860803560E+04  0.21860807249E+04  0.12700000000E+01 0.  1.
         -4   -1    0    0    0  501 -0.00000000000E+00 -0.00000000000E+00 -0.32687430837E+03  0.32687677552E+03  0.12700000000E+01 0. -1.
     200001    2    1    2    0    0  0.23359469524E+03  0.37311563530E+02  0.31945175004E+03  0.80509277177E+03  0.70011878716E+03 0.  0.
    5000001    2    3    3    0    0  0.12721990128E+03  0.81658888031E+01  0.32721939235E+02  0.21825459003E+03  0.17410558791E+03 0.  0.
        -13    1    4    4    0    0 -0.84150144306E+01  0.26158182446E+02 -0.48931598719E+02  0.56119296984E+02  0.10566000000E+00 0. -1.
     200003    1    4    4    0    0  0.13563491571E+03 -0.17992293643E+02  0.81653537954E+02  0.16213529305E+03  0.30000000000E+02 0. -1.
     200000    1    3    3    0    0  0.10637479396E+03  0.29145674726E+02  0.28672981081E+03  0.58683818174E+03  0.50000000000E+03 0. -1.
    -200001    1    1    2    0    0 -0.23359469524E+03 -0.37311563530E+02  0.15397542976E+04  0.17078647287E+04  0.70000000000E+03 0.  1.
<mgrwt>
<rscale>  0 0.16906532E+04</rscale>
<asrwt>0</asrwt>
<pdfrwt beam="1">  1        4 0.31229739E+00 0.16906532E+04</pdfrwt>
<pdfrwt beam="2">  1       -4 0.46696533E-01 0.16906532E+04</pdfrwt>
<totfact> 0.22149661E-01</totfact>
</mgrwt>
</event>
<event>
 8    1  0.1378634E-029  0.1964641E+04  0.7818608E-02  0.8623333E-01
          4   -1    0    0  501    0  0.00000000000E+00  0.00000000000E+00  0.93055242690E+03  0.93055329354E+03  0.12700000000E+01 0.  1.
         -4   -1    0    0    0  501 -0.00000000000E+00 -0.00000000000E+00 -0.10369672872E+04  0.10369680649E+04  0.12700000000E+01 0. -1.
     200001    2    1    2    0    0 -0.60978256853E+03 -0.22637815924E+03 -0.30253146823E+03  0.99205040768E+03  0.68524219824E+03 0.  0.
    5000001    2    3    3    0    0 -0.23037999771E+03 -0.10813020014E+03 -0.89364752173E+02  0.31872363752E+03  0.16979874751E+03 0.  0.
        -13    1    4    4    0    0  0.25209687151E+02 -0.21103527532E+02 -0.19491051239E+02  0.38220406107E+02  0.10566000000E+00 0. -1.
     200003    1    4    4    0    0 -0.25558968486E+03 -0.87026672610E+02 -0.69873700935E+02  0.28050323141E+03  0.30000000000E+02 0. -1.
     200000    1    3    3    0    0 -0.37940257082E+03 -0.11824795910E+03 -0.21316671605E+03  0.67332677016E+03  0.50000000000E+03 0.  1.
    -200001    1    1    2    0    0  0.60978256853E+03  0.22637815924E+03  0.19611660793E+03  0.97547095076E+03  0.70000000000E+03 0. -1.
<mgrwt>
<rscale>  0 0.19646415E+04</rscale>
<asrwt>0</asrwt>
<pdfrwt beam="1">  1        4 0.13293618E+00 0.19646415E+04</pdfrwt>
<pdfrwt beam="2">  1       -4 0.14813830E+00 0.19646415E+04</pdfrwt>
<totfact> 0.23646586E-01</totfact>
</mgrwt>
</event>
<event>
 8    1  0.1378634E-029  0.1556688E+04  0.7818608E-02  0.8847607E-01
          4   -1    0    0  501    0  0.00000000000E+00  0.00000000000E+00  0.61764129214E+03  0.61764259783E+03  0.12700000000E+01 0.  1.
         -4   -1    0    0    0  501 -0.00000000000E+00 -0.00000000000E+00 -0.98085629091E+03  0.98085711310E+03  0.12700000000E+01 0. -1.
     200001    2    1    2    0    0  0.19393260575E+03 -0.24177325310E+03 -0.32796670564E+03  0.83214039334E+03  0.69916472504E+03 0.  0.
    5000001    2    3    3    0    0 -0.29910247930E+01 -0.13248980933E+03 -0.11745156766E+02  0.19911760124E+03  0.14814646337E+03 0.  0.
        -13    1    4    4    0    0 -0.85029901027E+01 -0.24640712025E+02  0.60428034044E+02  0.65810515819E+02  0.10566000000E+00 0. -1.
     200003    1    4    4    0    0  0.55119653097E+01 -0.10784909731E+03 -0.72173190810E+02  0.13330708542E+03  0.30000000000E+02 0. -1.
     200000    1    3    3    0    0  0.19692363054E+03 -0.10928344376E+03 -0.31622154888E+03  0.63302279210E+03  0.50000000000E+03 0. -1.
    -200001    1    1    2    0    0 -0.19393260575E+03  0.24177325310E+03 -0.35248293125E+02  0.76635931759E+03  0.70000000000E+03 0.  1.
<mgrwt>
<rscale>  0 0.15566876E+04</rscale>
<asrwt>0</asrwt>
<pdfrwt beam="1">  1        4 0.88234623E-01 0.15566876E+04</pdfrwt>
<pdfrwt beam="2">  1       -4 0.14012248E+00 0.15566876E+04</pdfrwt>
<totfact> 0.76509024E-01</totfact>
</mgrwt>
</event>
<event>
 8    1  0.1378634E-029  0.1627321E+04  0.7818608E-02  0.8803937E-01
          4   -1    0    0  501    0  0.00000000000E+00  0.00000000000E+00  0.11489901875E+04  0.11489908893E+04  0.12700000000E+01 0.  1.
         -4   -1    0    0    0  501 -0.00000000000E+00 -0.00000000000E+00 -0.57619460606E+03  0.57619600567E+03  0.12700000000E+01 0. -1.
     200001    2    1    2    0    0 -0.37913836026E+03 -0.14110531397E+03  0.38709639261E+03  0.89564437375E+03  0.69905552083E+03 0.  0.
    5000001    2    3    3    0    0 -0.11562688825E+03 -0.68689842701E+02  0.10265949846E+03  0.25878752711E+03  0.19581659732E+03 0.  0.
        -13    1    4    4    0    0  0.17927530804E+02 -0.61541031094E+02  0.10347042936E+03  0.12171621003E+03  0.10566000000E+00 0. -1.
     200003    1    4    4    0    0 -0.13355441905E+03 -0.71488116072E+01 -0.81093089658E+00  0.13707131707E+03  0.30000000000E+02 0. -1.
     200000    1    3    3    0    0 -0.26351147201E+03 -0.72415471270E+02  0.28443689414E+03  0.63685684664E+03  0.50000000000E+03 0. -1.
    -200001    1    1    2    0    0  0.37913836026E+03  0.14110531397E+03  0.18569918879E+03  0.82954252125E+03  0.70000000000E+03 0. -1.
<mgrwt>
<rscale>  0 0.16273214E+04</rscale>
<asrwt>0</asrwt>
<pdfrwt beam="1">  1        4 0.16414160E+00 0.16273214E+04</pdfrwt>
<pdfrwt beam="2">  1       -4 0.82313666E-01 0.16273214E+04</pdfrwt>
<totfact> 0.58414351E-01</totfact>
</mgrwt>
</event>
<event>
 8    1  0.1378634E-029  0.1448792E+04  0.7818608E-02  0.8919239E-01
         -4   -1    0    0    0  501 -0.00000000000E+00  0.00000000000E+00  0.19861887575E+04  0.19861891635E+04  0.12700000000E+01 0. -1.
          4   -1    0    0  501    0  0.00000000000E+00 -0.00000000000E+00 -0.26419715589E+03  0.26420020833E+03  0.12700000000E+01 0.  1.
     200001    2    1    2    0    0 -0.10647387878E+03  0.58296814871E+02  0.61638014826E+03  0.93619308086E+03  0.69411655504E+03 0.  0.
    5000001    2    3    3    0    0 -0.37822088686E+02 -0.10203649442E+03  0.17335163679E+03  0.24576270759E+03  0.13603882489E+03 0.  0.
        -13    1    4    4    0    0 -0.67327140135E+02 -0.56162372646E+02  0.35655091916E+02  0.94649102708E+02  0.10566000000E+00 0. -1.
     200003    1    4    4    0    0  0.29505051449E+02 -0.45874121777E+02  0.13769654488E+03  0.15111360488E+03  0.30000000000E+02 0. -1.
     200000    1    3    3    0    0 -0.68651790091E+02  0.16033330929E+03  0.44302851147E+03  0.69043037327E+03  0.50000000000E+03 0.  1.
    -200001    1    1    2    0    0  0.10647387878E+03 -0.58296814871E+02  0.11056114533E+04  0.13141962910E+04  0.70000000000E+03 0. -1.
<mgrwt>
<rscale>  0 0.14487917E+04</rscale>
<asrwt>0</asrwt>
<pdfrwt beam="1">  1        4 0.37742698E-01 0.14487917E+04</pdfrwt>
<pdfrwt beam="2">  1       -4 0.28374150E+00 0.14487917E+04</pdfrwt>
<totfact> 0.52386499E-01</totfact>
</mgrwt>
</event>
<event>
 8    1  0.1378634E-029  0.2257561E+04  0.7818608E-02  0.8494845E-01
          4   -1    0    0  501    0  0.00000000000E+00  0.00000000000E+00  0.66991589852E+03  0.66991710233E+03  0.12700000000E+01 0.  1.
         -4   -1    0    0    0  501 -0.00000000000E+00 -0.00000000000E+00 -0.19019444625E+04  0.19019448865E+04  0.12700000000E+01 0. -1.
     200001    2    1    2    0    0  0.43272637985E+03  0.67720731863E+03 -0.19109496155E+03  0.10820953504E+04  0.69896437025E+03 0.  0.
    5000001    2    3    3    0    0  0.18739329741E+02  0.10685641875E+03 -0.21480639122E+02  0.20149643775E+03  0.16843378480E+03 0.  0.
        -13    1    4    4    0    0  0.59105930660E+02  0.12193810099E+03  0.16760021496E+02  0.13654054708E+03  0.10566000000E+00 0. -1.
     200003    1    4    4    0    0 -0.40366600919E+02 -0.15081682236E+02 -0.38240660618E+02  0.64955890675E+02  0.30000000000E+02 0. -1.
     200000    1    3    3    0    0  0.41398705011E+03  0.57035089988E+03 -0.16961432243E+03  0.88059891268E+03  0.50000000000E+03 0.  1.
    -200001    1    1    2    0    0 -0.43272637985E+03 -0.67720731863E+03 -0.10409336024E+04  0.14897666384E+04  0.70000000000E+03 0. -1.
<mgrwt>
<rscale>  0 0.22575606E+04</rscale>
<asrwt>0</asrwt>
<pdfrwt beam="1">  1        4 0.95702388E-01 0.22575606E+04</pdfrwt>
<pdfrwt beam="2">  1       -4 0.27170647E+00 0.22575606E+04</pdfrwt>
<totfact> 0.77829766E-02</totfact>
</mgrwt>
</event>
<event>
 8    1  0.1378634E-029  0.1484562E+04  0.7818608E-02  0.8894784E-01
         -4   -1    0    0    0  501 -0.00000000000E+00  0.00000000000E+00  0.26668863721E+03  0.26669166113E+03  0.12700000000E+01 0. -1.
          4   -1    0    0  501    0  0.00000000000E+00 -0.00000000000E+00 -0.20659948312E+04  0.20659952215E+04  0.12700000000E+01 0.  1.
     200001    2    1    2    0    0 -0.24483156423E+03 -0.23940335709E+02 -0.90349676602E+03  0.11695058281E+04  0.70065814859E+03 0.  0.
    5000001    2    3    3    0    0 -0.13533699404E+03 -0.10458207145E+02 -0.20715470500E+03  0.30517771062E+03  0.17831120885E+03 0.  0.
        -13    1    4    4    0    0 -0.42014476144E+02  0.77900495748E+02 -0.11060943775E+03  0.14166214148E+03  0.10566000000E+00 0. -1.
     200003    1    4    4    0    0 -0.93322517900E+02 -0.88358702893E+02 -0.96545267245E+02  0.16351556914E+03  0.30000000000E+02 0. -1.
     200000    1    3    3    0    0 -0.10949457019E+03 -0.13482128563E+02 -0.69634206102E+03  0.86432811746E+03  0.50000000000E+03 0.  1.
    -200001    1    1    2    0    0  0.24483156423E+03  0.23940335709E+02 -0.89580942795E+03  0.11631810546E+04  0.70000000000E+03 0.  1.
<mgrwt>
<rscale>  0 0.14845623E+04</rscale>
<asrwt>0</asrwt>
<pdfrwt beam="1">  1        4 0.29514235E+00 0.14845623E+04</pdfrwt>
<pdfrwt beam="2">  1       -4 0.38098622E-01 0.14845623E+04</pdfrwt>
<totfact> 0.43585840E-01</totfact>
</mgrwt>
</event>
<event>
 8    1  0.1378634E-029  0.1764621E+04  0.7818608E-02  0.8725343E-01
         -4   -1    0    0    0  501 -0.00000000000E+00  0.00000000000E+00  0.73492044795E+03  0.73492154528E+03  0.12700000000E+01 0. -1.
          4   -1    0    0  501    0  0.00000000000E+00 -0.00000000000E+00 -0.10592573122E+04  0.10592580735E+04  0.12700000000E+01 0.  1.
     200001    2    1    2    0    0 -0.27398243309E+03 -0.30623240279E+03  0.18902068038E+03  0.83377312840E+03  0.70043140555E+03 0.  0.
    5000001    2    3    3    0    0 -0.50364241486E+02 -0.18835216108E+03  0.29898928074E+02  0.25134667033E+03  0.15578224990E+03 0.  0.
        -13    1    4    4    0    0  0.46716321963E+02 -0.11455106183E+03  0.90193482691E+01  0.12403918861E+03  0.10566000000E+00 0. -1.
     200003    1    4    4    0    0 -0.97080563449E+02 -0.73801099249E+02  0.20879579805E+02  0.12730748172E+03  0.30000000000E+02 0. -1.
     200000    1    3    3    0    0 -0.22361819160E+03 -0.11788024171E+03  0.15912175231E+03  0.58242645807E+03  0.50000000000E+03 0.  1.
    -200001    1    1    2    0    0  0.27398243309E+03  0.30623240279E+03 -0.51335754459E+03  0.96040649037E+03  0.70000000000E+03 0.  1.
<mgrwt>
<rscale>  0 0.17646207E+04</rscale>
<asrwt>0</asrwt>
<pdfrwt beam="1">  1        4 0.15132261E+00 0.17646207E+04</pdfrwt>
<pdfrwt beam="2">  1       -4 0.10498877E+00 0.17646207E+04</pdfrwt>
<totfact> 0.40772989E-01</totfact>
</mgrwt>
</event>
<event>
 8    1  0.1378634E-029  0.1846620E+04  0.7818608E-02  0.8681893E-01
         -4   -1    0    0    0  501 -0.00000000000E+00  0.00000000000E+00  0.15223146541E+04  0.15223151838E+04  0.12700000000E+01 0.  1.
          4   -1    0    0  501    0  0.00000000000E+00 -0.00000000000E+00 -0.56000212419E+03  0.56000356427E+03  0.12700000000E+01 0. -1.
     200001    2    1    2    0    0 -0.16157506617E+03  0.57631938164E+03  0.40644172543E+03  0.10065665076E+04  0.69980763531E+03 0.  0.
    5000001    2    3    3    0    0  0.21145009807E+02  0.17110792207E+03  0.77466052559E+02  0.26104122537E+03  0.18004582642E+03 0.  0.
        -13    1    4    4    0    0 -0.87481473591E+01 -0.21551742056E+02 -0.28767591951E+02  0.36994502004E+02  0.10566000000E+00 0. -1.
     200003    1    4    4    0    0  0.29893157167E+02  0.19265966413E+03  0.10623364451E+03  0.22404672337E+03  0.30000000000E+02 0. -1.
     200000    1    3    3    0    0 -0.18272007597E+03  0.40521145957E+03  0.32897567287E+03  0.74552528225E+03  0.50000000000E+03 0. -1.
    -200001    1    1    2    0    0  0.16157506617E+03 -0.57631938164E+03  0.55587080447E+03  0.10757522405E+04  0.70000000000E+03 0.  1.
<mgrwt>
<rscale>  0 0.18466201E+04</rscale>
<asrwt>0</asrwt>
<pdfrwt beam="1">  1        4 0.80000444E-01 0.18466201E+04</pdfrwt>
<pdfrwt beam="2">  1       -4 0.21747366E+00 0.18466201E+04</pdfrwt>
<totfact> 0.26631877E-01</totfact>
</mgrwt>
</event>
<event>
 8    1  0.1378634E-029  0.3162804E+04  0.7818608E-02  0.8198710E-01
          4   -1    0    0  501    0  0.00000000000E+00  0.00000000000E+00  0.14454395197E+04  0.14454400777E+04  0.12700000000E+01 0.  1.
         -4   -1    0    0    0  501 -0.00000000000E+00 -0.00000000000E+00 -0.17301522752E+04  0.17301527413E+04  0.12700000000E+01 0. -1.
     200001    2    1    2    0    0  0.20326991639E+02  0.39168479153E+03 -0.15077471052E+04  0.17128408977E+04  0.71182332440E+03 0.  0.
    5000001    2    3    3    0    0 -0.70835862109E+02  0.12049076039E+03 -0.58051381603E+03  0.62122812710E+03  0.17144198028E+03 0.  0.
        -13    1    4    4    0    0 -0.35147078791E+02  0.15183652918E+03 -0.33663422349E+03  0.37096126527E+03  0.10566000000E+00 0. -1.
     200003    1    4    4    0    0 -0.35688783318E+02 -0.31345768786E+02 -0.24387959254E+03  0.25026686183E+03  0.30000000000E+02 0. -1.
     200000    1    3    3    0    0  0.91162853748E+02  0.27119403115E+03 -0.92723328917E+03  0.10916127706E+04  0.50000000000E+03 0. -1.
    -200001    1    1    2    0    0 -0.20326991639E+02 -0.39168479153E+03  0.12230343497E+04  0.14627519213E+04  0.70000000000E+03 0.  1.
<mgrwt>
<rscale>  0 0.31628039E+04</rscale>
<asrwt>0</asrwt>
<pdfrwt beam="1">  1        4 0.20649143E+00 0.31628039E+04</pdfrwt>
<pdfrwt beam="2">  1       -4 0.24716469E+00 0.31628039E+04</pdfrwt>
<totfact> 0.13296346E-02</totfact>
</mgrwt>
</event>
<event>
 8    1  0.1378634E-029  0.2141108E+04  0.7818608E-02  0.8543348E-01
          4   -1    0    0  501    0  0.00000000000E+00  0.00000000000E+00  0.21434666660E+04  0.21434670422E+04  0.12700000000E+01 0.  1.
         -4   -1    0    0    0  501 -0.00000000000E+00 -0.00000000000E+00 -0.53468692000E+03  0.53468842826E+03  0.12700000000E+01 0. -1.
     200001    2    1    2    0    0  0.46215251969E+03 -0.63919956527E+03  0.10292773469E+04  0.14748333747E+04  0.70253867547E+03 0.  0.
    5000001    2    3    3    0    0  0.18396338898E+03 -0.35422661649E+03  0.38932593243E+03  0.57032434385E+03  0.11990058884E+03 0.  0.
        -13    1    4    4    0    0  0.18271871601E+03 -0.31798352046E+03  0.32114717110E+03  0.48747837402E+03  0.10566000000E+00 0. -1.
     200003    1    4    4    0    0  0.12446729761E+01 -0.36243096030E+02  0.68178761332E+02  0.82845969832E+02  0.30000000000E+02 0. -1.
     200000    1    3    3    0    0  0.27818913071E+03 -0.28497294878E+03  0.63995141450E+03  0.90450903085E+03  0.50000000000E+03 0. -1.
    -200001    1    1    2    0    0 -0.46215251969E+03  0.63919956527E+03  0.57950239907E+03  0.12033220958E+04  0.70000000000E+03 0.  1.
<mgrwt>
<rscale>  0 0.21411082E+04</rscale>
<asrwt>0</asrwt>
<pdfrwt beam="1">  1        4 0.30620965E+00 0.21411082E+04</pdfrwt>
<pdfrwt beam="2">  1       -4 0.76383981E-01 0.21411082E+04</pdfrwt>
<totfact> 0.80626608E-02</totfact>
</mgrwt>
</event>
<event>
 8    1  0.1378634E-029  0.1413913E+04  0.7818608E-02  0.8943808E-01
          4   -1    0    0  501    0  0.00000000000E+00  0.00000000000E+00  0.20808014439E+03  0.20808402003E+03  0.12700000000E+01 0.  1.
         -4   -1    0    0    0  501 -0.00000000000E+00 -0.00000000000E+00 -0.24018739860E+04  0.24018743218E+04  0.12700000000E+01 0. -1.
     200001    2    1    2    0    0 -0.71031988310E+02  0.53982739510E+02 -0.11540281709E+04  0.13533468945E+04  0.70128961068E+03 0.  0.
    5000001    2    3    3    0    0 -0.66565911532E+01  0.89176201836E+02 -0.41209619321E+03  0.45565773276E+03  0.17263832653E+03 0.  0.
        -13    1    4    4    0    0  0.54451888852E+02 -0.26247444089E+01 -0.43480593473E+02  0.69731417995E+02  0.10566000000E+00 0. -1.
     200003    1    4    4    0    0 -0.61108480005E+02  0.91800946245E+02 -0.36861559974E+03  0.38592631477E+03  0.30000000000E+02 0. -1.
     200000    1    3    3    0    0 -0.64375397157E+02 -0.35193462327E+02 -0.74193197768E+03  0.89768916171E+03  0.50000000000E+03 0.  1.
    -200001    1    1    2    0    0  0.71031988310E+02 -0.53982739510E+02 -0.10397656708E+04  0.12566114474E+04  0.70000000000E+03 0. -1.
<mgrwt>
<rscale>  0 0.14139134E+04</rscale>
<asrwt>0</asrwt>
<pdfrwt beam="1">  1        4 0.29726037E-01 0.14139134E+04</pdfrwt>
<pdfrwt beam="2">  1       -4 0.34312514E+00 0.14139134E+04</pdfrwt>
<totfact> 0.35618854E-01</totfact>
</mgrwt>
</event>
<event>
 8    1  0.1378634E-029  0.1640920E+04  0.7818608E-02  0.8795796E-01
         -4   -1    0    0    0  501 -0.00000000000E+00  0.00000000000E+00  0.54944186901E+03  0.54944333677E+03  0.12700000000E+01 0. -1.
          4   -1    0    0  501    0  0.00000000000E+00 -0.00000000000E+00 -0.12251569938E+04  0.12251576520E+04  0.12700000000E+01 0.  1.
     200001    2    1    2    0    0  0.24498598955E+03 -0.26034463545E+03 -0.84591414138E+02  0.79112516012E+03  0.70066100744E+03 0.  0.
    5000001    2    3    3    0    0  0.11539828142E+03 -0.87134195631E+02  0.21578366971E+02  0.23608745602E+03  0.18537132886E+03 0.  0.
        -13    1    4    4    0    0  0.15747033838E+02 -0.12034009104E+03 -0.11606773708E+02  0.12191978898E+03  0.10566000000E+00 0. -1.
     200003    1    4    4    0    0  0.99651247581E+02  0.33205895406E+02  0.33185140679E+02  0.11416766703E+03  0.30000000000E+02 0. -1.
     200000    1    3    3    0    0  0.12958770813E+03 -0.17321043982E+03 -0.10616978111E+03  0.55503770411E+03  0.50000000000E+03 0. -1.
    -200001    1    1    2    0    0 -0.24498598955E+03  0.26034463545E+03 -0.59112371060E+03  0.98347582864E+03  0.70000000000E+03 0.  1.
<mgrwt>
<rscale>  0 0.16409198E+04</rscale>
<asrwt>0</asrwt>
<pdfrwt beam="1">  1        4 0.17502258E+00 0.16409198E+04</pdfrwt>
<pdfrwt beam="2">  1       -4 0.78491848E-01 0.16409198E+04</pdfrwt>
<totfact> 0.54315660E-01</totfact>
</mgrwt>
</event>
<event>
 8    1  0.1378634E-029  0.1583387E+04  0.7818608E-02  0.8830820E-01
          4   -1    0    0  501    0  0.00000000000E+00  0.00000000000E+00  0.65088362338E+03  0.65088486239E+03  0.12700000000E+01 0.  1.
         -4   -1    0    0    0  501 -0.00000000000E+00 -0.00000000000E+00 -0.96296273625E+03  0.96296357372E+03  0.12700000000E+01 0. -1.
     200001    2    1    2    0    0 -0.11004656763E+02  0.11815458860E+03  0.20736035051E+03  0.73413316093E+03  0.69416970096E+03 0.  0.
    5000001    2    3    3    0    0  0.29343988798E+02  0.16296837296E+03  0.30467529164E+02  0.20034728747E+03  0.10858639417E+03 0.  0.
        -13    1    4    4    0    0  0.56880159768E+02  0.13954326993E+03  0.28254831311E+02  0.15331674212E+03  0.10566000000E+00 0. -1.
     200003    1    4    4    0    0 -0.27536170970E+02  0.23425103027E+02  0.22126978528E+01  0.47030545343E+02  0.30000000000E+02 0.  1.
     200000    1    3    3    0    0 -0.40348645561E+02 -0.44813784354E+02  0.17689282134E+03  0.53378587346E+03  0.50000000000E+03 0.  1.
    -200001    1    1    2    0    0  0.11004656763E+02 -0.11815458860E+03 -0.51943946338E+03  0.87971527518E+03  0.70000000000E+03 0. -1.
<mgrwt>
<rscale>  0 0.15833867E+04</rscale>
<asrwt>0</asrwt>
<pdfrwt beam="1">  1        4 0.92983523E-01 0.15833867E+04</pdfrwt>
<pdfrwt beam="2">  1       -4 0.13756625E+00 0.15833867E+04</pdfrwt>
<totfact> 0.70910830E-01</totfact>
</mgrwt>
</event>
<event>
 8    1  0.1378634E-029  0.1545934E+04  0.7818608E-02  0.8854469E-01
          4   -1    0    0  501    0  0.00000000000E+00  0.00000000000E+00  0.12611606033E+04  0.12611612427E+04  0.12700000000E+01 0.  1.
         -4   -1    0    0    0  501 -0.00000000000E+00 -0.00000000000E+00 -0.47375080322E+03  0.47375250548E+03  0.12700000000E+01 0. -1.
     200001    2    1    2    0    0  0.10041961635E+03 -0.17724734193E+03  0.68131814414E+03  0.99819388351E+03  0.70049689220E+03 0.  0.
    5000001    2    3    3    0    0  0.12065730653E+03 -0.55774039577E+02  0.26056476029E+03  0.33321363019E+03  0.15958821989E+03 0.  0.
        -13    1    4    4    0    0 -0.35826212341E+02 -0.15289915007E+02  0.26217859672E+02  0.46954087378E+02  0.10566000000E+00 0. -1.
     200003    1    4    4    0    0  0.15648351888E+03 -0.40484124570E+02  0.23434690061E+03  0.28625954281E+03  0.30000000000E+02 0. -1.
     200000    1    3    3    0    0 -0.20237690180E+02 -0.12147330236E+03  0.42075338385E+03  0.66498025332E+03  0.50000000000E+03 0.  1.
    -200001    1    1    2    0    0 -0.10041961635E+03  0.17724734193E+03  0.10609165591E+03  0.73671986469E+03  0.70000000000E+03 0. -1.
<mgrwt>
<rscale>  0 0.15459339E+04</rscale>
<asrwt>0</asrwt>
<pdfrwt beam="1">  1        4 0.18016597E+00 0.15459339E+04</pdfrwt>
<pdfrwt beam="2">  1       -4 0.67678854E-01 0.15459339E+04</pdfrwt>
<totfact> 0.70049179E-01</totfact>
</mgrwt>
</event>
<event>
 8    1  0.1378634E-029  0.1470451E+04  0.7818608E-02  0.8904344E-01
          4   -1    0    0  501    0  0.00000000000E+00  0.00000000000E+00  0.78254429782E+03  0.78254532837E+03  0.12700000000E+01 0.  1.
         -4   -1    0    0    0  501 -0.00000000000E+00 -0.00000000000E+00 -0.69076546388E+03  0.69076663135E+03  0.12700000000E+01 0. -1.
     200001    2    1    2    0    0  0.13450840974E+03  0.17672004912E+03  0.34120798656E+02  0.73666622595E+03  0.70156283504E+03 0.  0.
    5000001    2    3    3    0    0  0.13205103464E+03  0.72286606905E+02 -0.11876238783E+03  0.20348178202E+03  0.68099203821E+02 0.  0.
        -13    1    4    4    0    0  0.10388196695E+03  0.67164469030E+02 -0.86648116467E+02  0.15103124249E+03  0.10566000000E+00 0. -1.
     200003    1    4    4    0    0  0.28169067693E+02  0.51221378746E+01 -0.32114271363E+02  0.52450539523E+02  0.30000000000E+02 0.  1.
     200000    1    3    3    0    0  0.24573750979E+01  0.10443344221E+03  0.15288318649E+03  0.53318444394E+03  0.50000000000E+03 0. -1.
    -200001    1    1    2    0    0 -0.13450840974E+03 -0.17672004912E+03  0.57658035285E+02  0.73664573377E+03  0.70000000000E+03 0.  1.
<mgrwt>
<rscale>  0 0.14704505E+04</rscale>
<asrwt>0</asrwt>
<pdfrwt beam="1">  1        4 0.11179220E+00 0.14704505E+04</pdfrwt>
<pdfrwt beam="2">  1       -4 0.98680937E-01 0.14704505E+04</pdfrwt>
<totfact> 0.10463112E+00</totfact>
</mgrwt>
</event>
<event>
 8    1  0.1378634E-029  0.1440405E+04  0.7818608E-02  0.8925080E-01
         -4   -1    0    0    0  501 -0.00000000000E+00  0.00000000000E+00  0.12371353374E+04  0.12371359893E+04  0.12700000000E+01 0. -1.
          4   -1    0    0  501    0  0.00000000000E+00 -0.00000000000E+00 -0.41926663447E+03  0.41926855795E+03  0.12700000000E+01 0.  1.
     200001    2    1    2    0    0  0.38987249080E+02  0.79821781157E+02  0.24176768152E+03  0.74547979225E+03  0.69956914347E+03 0.  0.
    5000001    2    3    3    0    0  0.47247176899E+02  0.17348371267E+02  0.10703249524E+03  0.22382404008E+03  0.19002100981E+03 0.  0.
        -13    1    4    4    0    0  0.58737063111E+02  0.23341297518E+02  0.15408039936E+03  0.16654020351E+03  0.10566000000E+00 0. -1.
     200003    1    4    4    0    0 -0.11489886212E+02 -0.59929262509E+01 -0.47047904122E+02  0.57283836573E+02  0.30000000000E+02 0. -1.
     200000    1    3    3    0    0 -0.82599278188E+01  0.62473409891E+02  0.13473518628E+03  0.52165575217E+03  0.50000000000E+03 0.  1.
    -200001    1    1    2    0    0 -0.38987249080E+02 -0.79821781157E+02  0.57610102140E+03  0.91092475496E+03  0.70000000000E+03 0. -1.
<mgrwt>
<rscale>  0 0.14404051E+04</rscale>
<asrwt>0</asrwt>
<pdfrwt beam="1">  1        4 0.59895417E-01 0.14404051E+04</pdfrwt>
<pdfrwt beam="2">  1       -4 0.17673381E+00 0.14404051E+04</pdfrwt>
<totfact> 0.97249967E-01</totfact>
</mgrwt>
</event>
<event>
 8    1  0.1378634E-029  0.1998935E+04  0.7818608E-02  0.8607119E-01
         -4   -1    0    0    0  501 -0.00000000000E+00  0.00000000000E+00  0.72224073292E+03  0.72224184952E+03  0.12700000000E+01 0. -1.
          4   -1    0    0  501    0  0.00000000000E+00 -0.00000000000E+00 -0.13831030121E+04  0.13831035952E+04  0.12700000000E+01 0.  1.
     200001    2    1    2    0    0 -0.56245468372E+03 -0.21351498166E+03 -0.73446980303E+03  0.11794070092E+04  0.69972214718E+03 0.  0.
    5000001    2    3    3    0    0 -0.11835047423E+03 -0.66485174981E+02 -0.15427661921E+03  0.28192695738E+03  0.19301404306E+03 0.  0.
        -13    1    4    4    0    0  0.76238571474E+01  0.20782532279E+02 -0.12003510266E+03  0.12205930477E+03  0.10566000000E+00 0. -1.
     200003    1    4    4    0    0 -0.12597433138E+03 -0.87267707260E+02 -0.34241516554E+02  0.15986765262E+03  0.30000000000E+02 0. -1.
     200000    1    3    3    0    0 -0.44410420949E+03 -0.14702980667E+03 -0.58019318382E+03  0.89748005186E+03  0.50000000000E+03 0.  1.
    -200001    1    1    2    0    0  0.56245468372E+03  0.21351498166E+03  0.73607523876E+02  0.92593843543E+03  0.70000000000E+03 0.  1.
<mgrwt>
<rscale>  0 0.19989348E+04</rscale>
<asrwt>0</asrwt>
<pdfrwt beam="1">  1        4 0.19758627E+00 0.19989348E+04</pdfrwt>
<pdfrwt beam="2">  1       -4 0.10317737E+00 0.19989348E+04</pdfrwt>
<totfact> 0.19588593E-01</totfact>
</mgrwt>
</event>
<event>
 8    1  0.1378634E-029  0.2385410E+04  0.7818608E-02  0.8444986E-01
         -4   -1    0    0    0  501 -0.00000000000E+00  0.00000000000E+00  0.13895119943E+04  0.13895125747E+04  0.12700000000E+01 0. -1.
          4   -1    0    0  501    0  0.00000000000E+00 -0.00000000000E+00 -0.10237724809E+04  0.10237732686E+04  0.12700000000E+01 0.  1.
     200001    2    1    2    0    0  0.92256945399E+03  0.13183803054E+03  0.43799125039E+03  0.12454947759E+04  0.70064629995E+03 0.  0.
    5000001    2    3    3    0    0  0.13569383487E+03  0.20327387550E+02  0.14073582416E+02  0.21529379905E+03  0.16530981423E+03 0.  0.
        -13    1    4    4    0    0  0.33019303708E+02 -0.12842418408E+02  0.78476938558E+02  0.86103676910E+02  0.10566000000E+00 0. -1.
     200003    1    4    4    0    0  0.10267453116E+03  0.33169805959E+02 -0.64403356142E+02  0.12919012214E+03  0.30000000000E+02 0. -1.
     200000    1    3    3    0    0  0.78687561912E+03  0.11151064299E+03  0.42391766797E+03  0.10302009768E+04  0.50000000000E+03 0. -1.
    -200001    1    1    2    0    0 -0.92256945399E+03 -0.13183803054E+03 -0.72251736943E+02  0.11677910675E+04  0.70000000000E+03 0.  1.
<mgrwt>
<rscale>  0 0.23854105E+04</rscale>
<asrwt>0</asrwt>
<pdfrwt beam="1">  1        4 0.14625331E+00 0.23854105E+04</pdfrwt>
<pdfrwt beam="2">  1       -4 0.19850181E+00 0.23854105E+04</pdfrwt>
<totfact> 0.77852520E-02</totfact>
</mgrwt>
</event>
<event>
 8    1  0.1378634E-029  0.1545746E+04  0.7818608E-02  0.8854590E-01
          4   -1    0    0  501    0  0.00000000000E+00  0.00000000000E+00  0.70255803177E+03  0.70255917964E+03  0.12700000000E+01 0.  1.
         -4   -1    0    0    0  501 -0.00000000000E+00 -0.00000000000E+00 -0.85022263841E+03  0.85022358693E+03  0.12700000000E+01 0. -1.
     200001    2    1    2    0    0  0.30847989389E+03  0.30023770370E+02 -0.17967813619E+03  0.78656730223E+03  0.70024468337E+03 0.  0.
    5000001    2    3    3    0    0  0.13427204702E+03 -0.27253076937E+02 -0.90040909709E+02  0.24650819110E+03  0.18408479036E+03 0.  0.
        -13    1    4    4    0    0  0.11172773777E+03 -0.95092174710E+02 -0.83237769381E+02  0.16868356913E+03  0.10566000000E+00 0. -1.
     200003    1    4    4    0    0  0.22544309249E+02  0.67839097773E+02 -0.68031403287E+01  0.77824621968E+02  0.30000000000E+02 0. -1.
     200000    1    3    3    0    0  0.17420784686E+03  0.57276847307E+02 -0.89637226478E+02  0.54005911113E+03  0.50000000000E+03 0. -1.
    -200001    1    1    2    0    0 -0.30847989389E+03 -0.30023770370E+02  0.32013529540E+02  0.76621546434E+03  0.70000000000E+03 0.  1.
<mgrwt>
<rscale>  0 0.15457456E+04</rscale>
<asrwt>0</asrwt>
<pdfrwt beam="1">  1        4 0.10036558E+00 0.15457456E+04</pdfrwt>
<pdfrwt beam="2">  1       -4 0.12146053E+00 0.15457456E+04</pdfrwt>
<totfact> 0.81474961E-01</totfact>
</mgrwt>
</event>
<event>
 8    1  0.1378634E-029  0.1970915E+04  0.7818608E-02  0.8620341E-01
          4   -1    0    0  501    0  0.00000000000E+00  0.00000000000E+00  0.32587120281E+03  0.32587367755E+03  0.12700000000E+01 0.  1.
         -4   -1    0    0    0  501 -0.00000000000E+00 -0.00000000000E+00 -0.29800804947E+04  0.29800807653E+04  0.12700000000E+01 0. -1.
     200001    2    1    2    0    0 -0.36242871541E+03  0.76933696017E+01 -0.33530252075E+03  0.85672142517E+03  0.70009289258E+03 0.  0.
    5000001    2    3    3    0    0 -0.52718044179E+02  0.20936059255E+02  0.25116477859E+02  0.16679539779E+03  0.15483008914E+03 0.  0.
        -13    1    4    4    0    0 -0.57551011162E+02  0.31943782300E+02 -0.51543063496E+02  0.83601570990E+02  0.10566000000E+00 0. -1.
     200003    1    4    4    0    0  0.48329669826E+01 -0.11007723045E+02  0.76659541355E+02  0.83193826797E+02  0.30000000000E+02 0. -1.
     200000    1    3    3    0    0 -0.30971067123E+03 -0.13242689653E+02 -0.36041899861E+03  0.68992602739E+03  0.50000000000E+03 0.  1.
    -200001    1    1    2    0    0  0.36242871541E+03 -0.76933696017E+01 -0.23189067712E+04  0.24492330177E+04  0.70000000000E+03 0. -1.
<mgrwt>
<rscale>  0 0.19709155E+04</rscale>
<asrwt>0</asrwt>
<pdfrwt beam="1">  1        4 0.46553227E-01 0.19709155E+04</pdfrwt>
<pdfrwt beam="2">  1       -4 0.42572596E+00 0.19709155E+04</pdfrwt>
<totfact> 0.37790638E-02</totfact>
</mgrwt>
</event>
<event>
 8    1  0.1378634E-029  0.1754284E+04  0.7818608E-02  0.8730996E-01
          4   -1    0    0  501    0  0.00000000000E+00  0.00000000000E+00  0.93398822073E+03  0.93398908418E+03  0.12700000000E+01 0.  1.
         -4   -1    0    0    0  501 -0.00000000000E+00 -0.00000000000E+00 -0.82375367064E+03  0.82375464964E+03  0.12700000000E+01 0. -1.
     200001    2    1    2    0    0 -0.10774956511E+03 -0.18154245237E+03 -0.43104036315E+03  0.84804809103E+03  0.69915816468E+03 0.  0.
    5000001    2    3    3    0    0  0.41842772828E+02 -0.13522612405E+03 -0.20281359232E+03  0.27654959692E+03  0.12373117662E+03 0.  0.
        -13    1    4    4    0    0  0.81586071136E+00 -0.13699360407E+03 -0.15280664369E+03  0.20522620375E+03  0.10566000000E+00 0. -1.
     200003    1    4    4    0    0  0.41026912116E+02  0.17674800240E+01 -0.50006948623E+02  0.71323393175E+02  0.30000000000E+02 0. -1.
     200000    1    3    3    0    0 -0.14959233793E+03 -0.46316328326E+02 -0.22822677084E+03  0.57149849411E+03  0.50000000000E+03 0. -1.
    -200001    1    1    2    0    0  0.10774956511E+03  0.18154245237E+03  0.54127491324E+03  0.90969564278E+03  0.70000000000E+03 0.  1.
<mgrwt>
<rscale>  0 0.17542837E+04</rscale>
<asrwt>0</asrwt>
<pdfrwt beam="1">  1        4 0.13342702E+00 0.17542837E+04</pdfrwt>
<pdfrwt beam="2">  1       -4 0.11767923E+00 0.17542837E+04</pdfrwt>
<totfact> 0.42961127E-01</totfact>
</mgrwt>
</event>
<event>
 8    1  0.1378634E-029  0.1678116E+04  0.7818608E-02  0.8773945E-01
          4   -1    0    0  501    0  0.00000000000E+00  0.00000000000E+00  0.56831432344E+03  0.56831574246E+03  0.12700000000E+01 0.  1.
         -4   -1    0    0    0  501 -0.00000000000E+00 -0.00000000000E+00 -0.12387798648E+04  0.12387805158E+04  0.12700000000E+01 0. -1.
     200001    2    1    2    0    0  0.37687332384E+03  0.98098146749E+02 -0.70786200870E+02  0.80646043037E+03  0.70264570795E+03 0.  0.
    5000001    2    3    3    0    0  0.11822002325E+03  0.49342856481E+02  0.13784149902E+03  0.20412819198E+03  0.79103404008E+02 0.  0.
        -13    1    4    4    0    0  0.58332154272E+01 -0.16070601717E+02  0.14943716874E+02  0.22707190046E+02  0.10566000000E+00 0. -1.
     200003    1    4    4    0    0  0.11238680782E+03  0.65413458197E+02  0.12289778215E+03  0.18142100193E+03  0.30000000000E+02 0. -1.
     200000    1    3    3    0    0  0.25865330059E+03  0.48755290269E+02 -0.20862769989E+03  0.60233223838E+03  0.50000000000E+03 0.  1.
    -200001    1    1    2    0    0 -0.37687332384E+03 -0.98098146749E+02 -0.59967934045E+03  0.10006358278E+04  0.70000000000E+03 0. -1.
<mgrwt>
<rscale>  0 0.16781159E+04</rscale>
<asrwt>0</asrwt>
<pdfrwt beam="1">  1        4 0.81187908E-01 0.16781159E+04</pdfrwt>
<pdfrwt beam="2">  1       -4 0.17696870E+00 0.16781159E+04</pdfrwt>
<totfact> 0.48611857E-01</totfact>
</mgrwt>
</event>
<event>
 8    1  0.1378634E-029  0.1701841E+04  0.7818608E-02  0.8760315E-01
         -4   -1    0    0    0  501 -0.00000000000E+00  0.00000000000E+00  0.15282057555E+04  0.15282062833E+04  0.12700000000E+01 0. -1.
          4   -1    0    0  501    0  0.00000000000E+00 -0.00000000000E+00 -0.47379993155E+03  0.47380163364E+03  0.12700000000E+01 0.  1.
     200001    2    1    2    0    0 -0.33572016857E+03  0.34511256195E+03  0.46615217081E+03  0.96863815127E+03  0.69939352996E+03 0.  0.
    5000001    2    3    3    0    0 -0.46857338052E+02  0.13840816337E+03  0.10646324724E+03  0.25762157975E+03  0.18352663436E+03 0.  0.
        -13    1    4    4    0    0 -0.61844961335E+02  0.26185037326E+02  0.12220317239E+03  0.13944203788E+03  0.10566000000E+00 0. -1.
     200003    1    4    4    0    0  0.14987623283E+02  0.11222312605E+03 -0.15739925148E+02  0.11817954186E+03  0.30000000000E+02 0. -1.
     200000    1    3    3    0    0 -0.28886283052E+03  0.20670439858E+03  0.35968892357E+03  0.71101657153E+03  0.50000000000E+03 0.  1.
    -200001    1    1    2    0    0  0.33572016857E+03 -0.34511256195E+03  0.58825365318E+03  0.10333697656E+04  0.70000000000E+03 0. -1.
<mgrwt>
<rscale>  0 0.17018414E+04</rscale>
<asrwt>0</asrwt>
<pdfrwt beam="1">  1        4 0.67685864E-01 0.17018414E+04</pdfrwt>
<pdfrwt beam="2">  1       -4 0.21831527E+00 0.17018414E+04</pdfrwt>
<totfact> 0.38645357E-01</totfact>
</mgrwt>
</event>
<event>
 8    1  0.1378634E-029  0.1598570E+04  0.7818608E-02  0.8821427E-01
          4   -1    0    0  501    0  0.00000000000E+00  0.00000000000E+00  0.15660409634E+04  0.15660414783E+04  0.12700000000E+01 0.  1.
         -4   -1    0    0    0  501 -0.00000000000E+00 -0.00000000000E+00 -0.40794200137E+03  0.40794397824E+03  0.12700000000E+01 0. -1.
     200001    2    1    2    0    0 -0.12162943012E+03 -0.19994049354E+03  0.95776856671E+03  0.12091964749E+04  0.70004683293E+03 0.  0.
    5000001    2    3    3    0    0 -0.32894669748E+02 -0.64494833606E+02  0.19600926334E+03  0.28372544846E+03  0.19193450948E+03 0.  0.
        -13    1    4    4    0    0  0.72445238151E+02 -0.45818057864E+02  0.46709391387E+02  0.97618570800E+02  0.10566000000E+00 0. -1.
     200003    1    4    4    0    0 -0.10533990790E+03 -0.18676775742E+02  0.14929987195E+03  0.18610687766E+03  0.30000000000E+02 0. -1.
     200000    1    3    3    0    0 -0.88734760369E+02 -0.13544565993E+03  0.76175930337E+03  0.92547102643E+03  0.50000000000E+03 0.  1.
    -200001    1    1    2    0    0  0.12162943012E+03  0.19994049354E+03  0.20033039530E+03  0.76478898168E+03  0.70000000000E+03 0. -1.
<mgrwt>
<rscale>  0 0.15985698E+04</rscale>
<asrwt>0</asrwt>
<pdfrwt beam="1">  1        4 0.22372031E+00 0.15985698E+04</pdfrwt>
<pdfrwt beam="2">  1       -4 0.58277608E-01 0.15985698E+04</pdfrwt>
<totfact> 0.49784345E-01</totfact>
</mgrwt>
</event>
<event>
 8    1  0.1378634E-029  0.1416164E+04  0.7818608E-02  0.8942201E-01
          4   -1    0    0  501    0  0.00000000000E+00  0.00000000000E+00  0.37107631027E+03  0.37107848353E+03  0.12700000000E+01 0.  1.
         -4   -1    0    0    0  501 -0.00000000000E+00 -0.00000000000E+00 -0.13511440373E+04  0.13511446342E+04  0.12700000000E+01 0. -1.
     200001    2    1    2    0    0 -0.55453226719E+02 -0.60872299165E+02 -0.56942942570E+03  0.90649993447E+03  0.70050821779E+03 0.  0.
    5000001    2    3    3    0    0  0.80085210423E+02 -0.40821354090E+02 -0.17416996197E+03  0.25457758326E+03  0.16246398483E+03 0.  0.
        -13    1    4    4    0    0 -0.97289230873E+01 -0.46134470948E+02 -0.14924571172E+03  0.15651624511E+03  0.10566000000E+00 0. -1.
     200003    1    4    4    0    0  0.89814133511E+02  0.53131168577E+01 -0.24924250256E+02  0.98061338150E+02  0.30000000000E+02 0. -1.
     200000    1    3    3    0    0 -0.13553843714E+03 -0.20050945075E+02 -0.39525946373E+03  0.65192235121E+03  0.50000000000E+03 0. -1.
    -200001    1    1    2    0    0  0.55453226719E+02  0.60872299165E+02 -0.41063830137E+03  0.81572318326E+03  0.70000000000E+03 0.  1.
<mgrwt>
<rscale>  0 0.14161637E+04</rscale>
<asrwt>0</asrwt>
<pdfrwt beam="1">  1        4 0.53011100E-01 0.14161637E+04</pdfrwt>
<pdfrwt beam="2">  1       -4 0.19302077E+00 0.14161637E+04</pdfrwt>
<totfact> 0.97686653E-01</totfact>
</mgrwt>
</event>
<event>
 8    1  0.1378634E-029  0.1635378E+04  0.7818608E-02  0.8799104E-01
         -4   -1    0    0    0  501 -0.00000000000E+00  0.00000000000E+00  0.51798108275E+03  0.51798263965E+03  0.12700000000E+01 0. -1.
          4   -1    0    0  501    0  0.00000000000E+00 -0.00000000000E+00 -0.12908060547E+04  0.12908066794E+04  0.12700000000E+01 0.  1.
     200001    2    1    2    0    0  0.20876547577E+03  0.79383471782E+02  0.11693365498E+02  0.73391547476E+03  0.69900674519E+03 0.  0.
    5000001    2    3    3    0    0 -0.22270640704E+02  0.13590088497E+03  0.76233345114E+01  0.18021115812E+03  0.11598669885E+03 0.  0.
        -13    1    4    4    0    0  0.39811497822E+01  0.22730870163E+02 -0.43927092363E+02  0.49619982058E+02  0.10566000000E+00 0. -1.
     200003    1    4    4    0    0 -0.26251790486E+02  0.11317001481E+03  0.51550426875E+02  0.13059117606E+03  0.30000000000E+02 0. -1.
     200000    1    3    3    0    0  0.23103611648E+03 -0.56517413187E+02  0.40700309862E+01  0.55370431664E+03  0.50000000000E+03 0.  1.
    -200001    1    1    2    0    0 -0.20876547577E+03 -0.79383471782E+02 -0.78451833741E+03  0.10748738443E+04  0.70000000000E+03 0.  1.
<mgrwt>
<rscale>  0 0.16353777E+04</rscale>
<asrwt>0</asrwt>
<pdfrwt beam="1">  1        4 0.18440102E+00 0.16353777E+04</pdfrwt>
<pdfrwt beam="2">  1       -4 0.73997453E-01 0.16353777E+04</pdfrwt>
<totfact> 0.53382291E-01</totfact>
</mgrwt>
</event>
<event>
 8    1  0.1378634E-029  0.2181795E+04  0.7818608E-02  0.8526044E-01
         -4   -1    0    0    0  501 -0.00000000000E+00  0.00000000000E+00  0.10797342866E+04  0.10797350335E+04  0.12700000000E+01 0. -1.
          4   -1    0    0  501    0  0.00000000000E+00 -0.00000000000E+00 -0.11021750416E+04  0.11021757732E+04  0.12700000000E+01 0.  1.
     200001    2    1    2    0    0 -0.34126607013E+03 -0.70870129107E+03  0.27355135115E+03  0.10881414629E+04  0.70035808768E+03 0.  0.
    5000001    2    3    3    0    0 -0.60848308230E+02 -0.26773737221E+03  0.70710190498E+02  0.33699045586E+03  0.18214504991E+03 0.  0.
        -13    1    4    4    0    0  0.41061734532E+02 -0.47242241236E+02  0.67724327751E+02  0.92219797946E+02  0.10566000000E+00 0. -1.
     200003    1    4    4    0    0 -0.10191004276E+03 -0.22049513097E+03  0.29858627474E+01  0.24477065791E+03  0.30000000000E+02 0. -1.
     200000    1    3    3    0    0 -0.28041776190E+03 -0.44096391886E+03  0.20284116065E+03  0.75115100704E+03  0.50000000000E+03 0. -1.
    -200001    1    1    2    0    0  0.34126607013E+03  0.70870129107E+03 -0.29599210613E+03  0.10937693438E+04  0.70000000000E+03 0.  1.
<mgrwt>
<rscale>  0 0.21817954E+04</rscale>
<asrwt>0</asrwt>
<pdfrwt beam="1">  1        4 0.15745368E+00 0.21817954E+04</pdfrwt>
<pdfrwt beam="2">  1       -4 0.15424786E+00 0.21817954E+04</pdfrwt>
<totfact> 0.13344227E-01</totfact>
</mgrwt>
</event>
<event>
 8    1  0.1378634E-029  0.1686554E+04  0.7818608E-02  0.8769070E-01
          4   -1    0    0  501    0  0.00000000000E+00  0.00000000000E+00  0.69071846609E+03  0.69071963364E+03  0.12700000000E+01 0.  1.
         -4   -1    0    0    0  501 -0.00000000000E+00 -0.00000000000E+00 -0.10295286804E+04  0.10295294637E+04  0.12700000000E+01 0. -1.
     200001    2    1    2    0    0  0.68241894608E+02 -0.74463249512E+02 -0.63773536271E+03  0.95242230950E+03  0.70014293618E+03 0.  0.
    5000001    2    3    3    0    0 -0.68603931750E+02 -0.35779834687E+02 -0.15069844450E+03  0.24008240014E+03  0.17012595822E+03 0.  0.
        -13    1    4    4    0    0 -0.39763050216E+02 -0.16494961823E+02  0.30765124362E+02  0.52912077724E+02  0.10566000000E+00 0. -1.
     200003    1    4    4    0    0 -0.28840881534E+02 -0.19284872864E+02 -0.18146356886E+03  0.18717032241E+03  0.30000000000E+02 0. -1.
     200000    1    3    3    0    0  0.13684582636E+03 -0.38683414825E+02 -0.48703691821E+03  0.71233990936E+03  0.50000000000E+03 0. -1.
    -200001    1    1    2    0    0 -0.68241894608E+02  0.74463249512E+02  0.29892514845E+03  0.76782678781E+03  0.70000000000E+03 0.  1.
<mgrwt>
<rscale>  0 0.16865541E+04</rscale>
<asrwt>0</asrwt>
<pdfrwt beam="1">  1        4 0.98674206E-01 0.16865541E+04</pdfrwt>
<pdfrwt beam="2">  1       -4 0.14707566E+00 0.16865541E+04</pdfrwt>
<totfact> 0.51337331E-01</totfact>
</mgrwt>
</event>
<event>
 8    1  0.1378634E-029  0.1838692E+04  0.7818608E-02  0.8685990E-01
          4   -1    0    0  501    0  0.00000000000E+00  0.00000000000E+00  0.16189251290E+04  0.16189256272E+04  0.12700000000E+01 0.  1.
         -4   -1    0    0    0  501 -0.00000000000E+00 -0.00000000000E+00 -0.52207177803E+03  0.52207332274E+03  0.12700000000E+01 0. -1.
     200001    2    1    2    0    0 -0.33099357605E+01  0.27003424432E+03  0.11672579351E+04  0.13874166689E+04  0.69964596564E+03 0.  0.
    5000001    2    3    3    0    0  0.12579983537E+02  0.88188439685E+02  0.32948774665E+03  0.39485469355E+03  0.19852606113E+03 0.  0.
        -13    1    4    4    0    0 -0.81737538651E+02  0.51479220467E+02  0.23141013895E+03  0.25076243526E+03  0.10566000000E+00 0. -1.
     200003    1    4    4    0    0  0.94317522188E+02  0.36709219218E+02  0.98077607695E+02  0.14409225829E+03  0.30000000000E+02 0. -1.
     200000    1    3    3    0    0 -0.15889919297E+02  0.18184580463E+03  0.83777018850E+03  0.99256197536E+03  0.50000000000E+03 0.  1.
    -200001    1    1    2    0    0  0.33099357605E+01 -0.27003424432E+03 -0.70404584146E+02  0.75358228101E+03  0.70000000000E+03 0. -1.
<mgrwt>
<rscale>  0 0.18386923E+04</rscale>
<asrwt>0</asrwt>
<pdfrwt beam="1">  1        4 0.23127516E+00 0.18386923E+04</pdfrwt>
<pdfrwt beam="2">  1       -4 0.74581830E-01 0.18386923E+04</pdfrwt>
<totfact> 0.25510137E-01</totfact>
</mgrwt>
</event>
<event>
 8    1  0.1378634E-029  0.1551830E+04  0.7818608E-02  0.8850700E-01
          4   -1    0    0  501    0  0.00000000000E+00  0.00000000000E+00  0.16839836660E+04  0.16839841449E+04  0.12700000000E+01 0.  1.
         -4   -1    0    0    0  501 -0.00000000000E+00 -0.00000000000E+00 -0.35751016313E+03  0.35751241886E+03  0.12700000000E+01 0. -1.
     200001    2    1    2    0    0 -0.18082750888E+03 -0.28022403782E+03  0.61923028730E+03  0.99201237362E+03  0.69958437760E+03 0.  0.
    5000001    2    3    3    0    0  0.29350166199E+02 -0.78863389473E+02  0.14523695711E+03  0.24408828465E+03  0.17721300894E+03 0.  0.
        -13    1    4    4    0    0  0.32014317896E+02 -0.65171708033E+02  0.18120917847E+03  0.19521538260E+03  0.10566000000E+00 0. -1.
     200003    1    4    4    0    0 -0.26641516967E+01 -0.13691681440E+02 -0.35972221362E+02  0.48872902048E+02  0.30000000000E+02 0. -1.
     200000    1    3    3    0    0 -0.21017767508E+03 -0.20136064834E+03  0.47399333019E+03  0.74792408897E+03  0.50000000000E+03 0. -1.
    -200001    1    1    2    0    0  0.18082750888E+03  0.28022403782E+03  0.70724321554E+03  0.10494841901E+04  0.70000000000E+03 0.  1.
<mgrwt>
<rscale>  0 0.15518300E+04</rscale>
<asrwt>0</asrwt>
<pdfrwt beam="1">  1        4 0.24056929E+00 0.15518300E+04</pdfrwt>
<pdfrwt beam="2">  1       -4 0.51073077E-01 0.15518300E+04</pdfrwt>
<totfact> 0.51760822E-01</totfact>
</mgrwt>
</event>
<event>
 8    1  0.1378634E-029  0.2460549E+04  0.7818608E-02  0.8417177E-01
          4   -1    0    0  501    0  0.00000000000E+00  0.00000000000E+00  0.77268585557E+03  0.77268689927E+03  0.12700000000E+01 0.  1.
         -4   -1    0    0    0  501 -0.00000000000E+00 -0.00000000000E+00 -0.19588464271E+04  0.19588468388E+04  0.12700000000E+01 0. -1.
     200001    2    1    2    0    0  0.87303687320E+03 -0.48882861520E+03 -0.75630826756E+03  0.14369605265E+04  0.70121791334E+03 0.  0.
    5000001    2    3    3    0    0  0.24147943182E+03 -0.14357774726E+03 -0.32986726883E+03  0.46232475398E+03  0.16126027905E+03 0.  0.
        -13    1    4    4    0    0  0.97095598437E+02 -0.13863820902E+03 -0.12763862118E+03  0.21198994555E+03  0.10566000000E+00 0. -1.
     200003    1    4    4    0    0  0.14438383338E+03 -0.49395382435E+01 -0.20222864766E+03  0.25033480843E+03  0.30000000000E+02 0.  1.
     200000    1    3    3    0    0  0.63155744138E+03 -0.34525086794E+03 -0.42644099873E+03  0.97463577247E+03  0.50000000000E+03 0. -1.
    -200001    1    1    2    0    0 -0.87303687320E+03  0.48882861520E+03 -0.42985230397E+03  0.12945732116E+04  0.70000000000E+03 0.  1.
<mgrwt>
<rscale>  0 0.24605487E+04</rscale>
<asrwt>0</asrwt>
<pdfrwt beam="1">  1        4 0.11038380E+00 0.24605487E+04</pdfrwt>
<pdfrwt beam="2">  1       -4 0.27983531E+00 0.24605487E+04</pdfrwt>
<totfact> 0.48336798E-02</totfact>
</mgrwt>
</event>
<event>
 8    1  0.1378634E-029  0.1628552E+04  0.7818608E-02  0.8803197E-01
          4   -1    0    0  501    0  0.00000000000E+00  0.00000000000E+00  0.34310073404E+03  0.34310308451E+03  0.12700000000E+01 0.  1.
         -4   -1    0    0    0  501 -0.00000000000E+00 -0.00000000000E+00 -0.19325011324E+04  0.19325015497E+04  0.12700000000E+01 0. -1.
     200001    2    1    2    0    0 -0.20513989499E+02  0.27905937636E+03 -0.12255245060E+04  0.14385260093E+04  0.69939388417E+03 0.  0.
    5000001    2    3    3    0    0 -0.67322464486E+02  0.14386796039E+03 -0.27111941801E+03  0.35162361058E+03  0.15780722557E+03 0.  0.
        -13    1    4    4    0    0  0.25644975079E+02  0.11780255894E+03 -0.17192103370E+03  0.20998085778E+03  0.10566000000E+00 0. -1.
     200003    1    4    4    0    0 -0.92967439565E+02  0.26065401450E+02 -0.99198384305E+02  0.14164275280E+03  0.30000000000E+02 0. -1.
     200000    1    3    3    0    0  0.46808474987E+02  0.13519141598E+03 -0.95440508801E+03  0.10869023987E+04  0.50000000000E+03 0. -1.
    -200001    1    1    2    0    0  0.20513989499E+02 -0.27905937636E+03 -0.36387589234E+03  0.83707862494E+03  0.70000000000E+03 0.  1.
<mgrwt>
<rscale>  0 0.16285524E+04</rscale>
<asrwt>0</asrwt>
<pdfrwt beam="1">  1        4 0.49014590E-01 0.16285524E+04</pdfrwt>
<pdfrwt beam="2">  1       -4 0.27607178E+00 0.16285524E+04</pdfrwt>
<totfact> 0.33802625E-01</totfact>
</mgrwt>
</event>
<event>
 8    1  0.1378634E-029  0.1905240E+04  0.7818608E-02  0.8652252E-01
         -4   -1    0    0    0  501 -0.00000000000E+00  0.00000000000E+00  0.49746307269E+03  0.49746469381E+03  0.12700000000E+01 0. -1.
          4   -1    0    0  501    0  0.00000000000E+00 -0.00000000000E+00 -0.18242216606E+04  0.18242221026E+04  0.12700000000E+01 0.  1.
     200001    2    1    2    0    0 -0.20400256613E+03  0.44807692638E+03 -0.11691155374E+04  0.14514906632E+04  0.70541053763E+03 0.  0.
    5000001    2    3    3    0    0 -0.51292611946E+02  0.11038777774E+03 -0.22701721271E+03  0.32237439610E+03  0.19383509198E+03 0.  0.
        -13    1    4    4    0    0 -0.88723440531E+02  0.79246251411E+02 -0.23618519256E+03  0.26445278144E+03  0.10566000000E+00 0. -1.
     200003    1    4    4    0    0  0.37430828585E+02  0.31141526331E+02  0.91679798513E+01  0.57921614664E+02  0.30000000000E+02 0. -1.
     200000    1    3    3    0    0 -0.15270995418E+03  0.33768914864E+03 -0.94209832473E+03  0.11291162671E+04  0.50000000000E+03 0.  1.
    -200001    1    1    2    0    0  0.20400256613E+03 -0.44807692638E+03 -0.15764305044E+03  0.87019613324E+03  0.70000000000E+03 0. -1.
<mgrwt>
<rscale>  0 0.19052405E+04</rscale>
<asrwt>0</asrwt>
<pdfrwt beam="1">  1        4 0.26060324E+00 0.19052405E+04</pdfrwt>
<pdfrwt beam="2">  1       -4 0.71066301E-01 0.19052405E+04</pdfrwt>
<totfact> 0.18547156E-01</totfact>
</mgrwt>
</event>
<event>
 8    1  0.1378634E-029  0.1903266E+04  0.7818608E-02  0.8653233E-01
          4   -1    0    0  501    0  0.00000000000E+00  0.00000000000E+00  0.46230231732E+03  0.46230406174E+03  0.12700000000E+01 0.  1.
         -4   -1    0    0    0  501 -0.00000000000E+00 -0.00000000000E+00 -0.19588968176E+04  0.19588972293E+04  0.12700000000E+01 0. -1.
     200001    2    1    2    0    0 -0.22346083055E+02  0.60598289778E+03 -0.10184887325E+04  0.13789442474E+04  0.70459443604E+03 0.  0.
    5000001    2    3    3    0    0 -0.13823553871E+03  0.18561017749E+03 -0.38482583261E+03  0.46151726903E+03  0.10652260802E+03 0.  0.
        -13    1    4    4    0    0 -0.67314978797E+02  0.17233665048E+02 -0.11175602441E+03  0.13159683027E+03  0.10566000000E+00 0. -1.
     200003    1    4    4    0    0 -0.70920559914E+02  0.16837651244E+03 -0.27306980820E+03  0.32992043876E+03  0.30000000000E+02 0. -1.
     200000    1    3    3    0    0  0.11588945566E+03  0.42037272029E+03 -0.63366289994E+03  0.91742697838E+03  0.50000000000E+03 0. -1.
    -200001    1    1    2    0    0  0.22346083055E+02 -0.60598289778E+03 -0.47810576772E+03  0.10422570436E+04  0.70000000000E+03 0. -1.
<mgrwt>
<rscale>  0 0.19032658E+04</rscale>
<asrwt>0</asrwt>
<pdfrwt beam="1">  1        4 0.66043343E-01 0.19032658E+04</pdfrwt>
<pdfrwt beam="2">  1       -4 0.27984255E+00 0.19032658E+04</pdfrwt>
<totfact> 0.16578239E-01</totfact>
</mgrwt>
</event>
<event>
 8    1  0.1378634E-029  0.1721270E+04  0.7818608E-02  0.8749326E-01
          4   -1    0    0  501    0  0.00000000000E+00  0.00000000000E+00  0.77819491659E+03  0.77819595290E+03  0.12700000000E+01 0.  1.
         -4   -1    0    0    0  501 -0.00000000000E+00 -0.00000000000E+00 -0.95180607260E+03  0.95180691988E+03  0.12700000000E+01 0. -1.
     200001    2    1    2    0    0  0.90088221761E+02 -0.13967243976E+03 -0.56232391912E+03  0.91224869802E+03  0.69883132364E+03 0.  0.
    5000001    2    3    3    0    0 -0.70135056447E+02 -0.11651936861E+03 -0.49638928442E+02  0.17804609434E+03  0.10363734409E+03 0.  0.
        -13    1    4    4    0    0 -0.58167083203E+02 -0.10894447466E+02 -0.67655617918E+01  0.59564104495E+02  0.10566000000E+00 0. -1.
     200003    1    4    4    0    0 -0.11967973244E+02 -0.10562492114E+03 -0.42873366650E+02  0.11848198985E+03  0.30000000000E+02 0. -1.
     200000    1    3    3    0    0  0.16022327821E+03 -0.23153071150E+02 -0.51268499067E+03  0.73420260368E+03  0.50000000000E+03 0. -1.
    -200001    1    1    2    0    0 -0.90088221761E+02  0.13967243976E+03  0.38871276311E+03  0.81775417476E+03  0.70000000000E+03 0.  1.
<mgrwt>
<rscale>  0 0.17212696E+04</rscale>
<asrwt>0</asrwt>
<pdfrwt beam="1">  1        4 0.11117084E+00 0.17212696E+04</pdfrwt>
<pdfrwt beam="2">  1       -4 0.13597243E+00 0.17212696E+04</pdfrwt>
<totfact> 0.47169862E-01</totfact>
</mgrwt>
</event>
<event>
 8    1  0.1378634E-029  0.1500155E+04  0.7818608E-02  0.8884350E-01
          4   -1    0    0  501    0  0.00000000000E+00  0.00000000000E+00  0.60923522561E+03  0.60923654932E+03  0.12700000000E+01 0.  1.
         -4   -1    0    0    0  501 -0.00000000000E+00 -0.00000000000E+00 -0.92347623646E+03  0.92347710974E+03  0.12700000000E+01 0. -1.
     200001    2    1    2    0    0  0.42312372101E+02  0.24505279463E+03 -0.26374234665E+03  0.78813906637E+03  0.69982994615E+03 0.  0.
    5000001    2    3    3    0    0  0.13056119041E+03  0.23529944011E+02 -0.76077630293E+02  0.20326448747E+03  0.13389833206E+03 0.  0.
        -13    1    4    4    0    0  0.18645637851E+02 -0.77051127395E+01 -0.80688882467E+02  0.83172925228E+02  0.10566000000E+00 0. -1.
     200003    1    4    4    0    0  0.11191555256E+03  0.31235056750E+02  0.46112521744E+01  0.12009156224E+03  0.30000000000E+02 0. -1.
     200000    1    3    3    0    0 -0.88248818305E+02  0.22152285062E+03 -0.18766471636E+03  0.58487457890E+03  0.50000000000E+03 0.  1.
    -200001    1    1    2    0    0 -0.42312372101E+02 -0.24505279463E+03 -0.50498664199E+02  0.74457459269E+03  0.70000000000E+03 0.  1.
<mgrwt>
<rscale>  0 0.15001546E+04</rscale>
<asrwt>0</asrwt>
<pdfrwt beam="1">  1        4 0.87033760E-01 0.15001546E+04</pdfrwt>
<pdfrwt beam="2">  1       -4 0.13192533E+00 0.15001546E+04</pdfrwt>
<totfact> 0.92625811E-01</totfact>
</mgrwt>
</event>
<event>
 8    1  0.1378634E-029  0.1659162E+04  0.7818608E-02  0.8785005E-01
         -4   -1    0    0    0  501 -0.00000000000E+00  0.00000000000E+00  0.21691081730E+04  0.21691085447E+04  0.12700000000E+01 0. -1.
          4   -1    0    0  501    0  0.00000000000E+00 -0.00000000000E+00 -0.31727355164E+03  0.31727609344E+03  0.12700000000E+01 0.  1.
     200001    2    1    2    0    0  0.37745559391E+03 -0.85129361440E+02  0.12577957603E+04  0.14900905541E+04  0.69899924985E+03 0.  0.
    5000001    2    3    3    0    0  0.21299640328E+03 -0.30117098431E+02  0.56929888411E+03  0.62170059391E+03  0.12702716872E+03 0.  0.
        -13    1    4    4    0    0  0.47140921812E+02 -0.22983821037E+02  0.29539078011E+03  0.30001041095E+03  0.10566000000E+00 0. -1.
     200003    1    4    4    0    0  0.16585548147E+03 -0.71332773935E+01  0.27390810400E+03  0.32169018296E+03  0.30000000000E+02 0. -1.
     200000    1    3    3    0    0  0.16445919063E+03 -0.55012263009E+02  0.68849687621E+03  0.86838996022E+03  0.50000000000E+03 0.  1.
    -200001    1    1    2    0    0 -0.37745559391E+03  0.85129361440E+02  0.59403886100E+03  0.99629408406E+03  0.70000000000E+03 0.  1.
<mgrwt>
<rscale>  0 0.16591616E+04</rscale>
<asrwt>0</asrwt>
<pdfrwt beam="1">  1        4 0.45325003E-01 0.16591616E+04</pdfrwt>
<pdfrwt beam="2">  1       -4 0.30987279E+00 0.16591616E+04</pdfrwt>
<totfact> 0.24456218E-01</totfact>
</mgrwt>
</event>
