<event>
 4    1  0.1714834E-005  0.1037460E+04  0.7818608E-02  0.9268387E-01
         -2   -1    0    0    0  501 -0.00000000000E+00  0.00000000000E+00  0.27021350107E+03  0.27021350109E+03  0.25500000000E-02 0. -1.
          2   -1    0    0  501    0  0.00000000000E+00 -0.00000000000E+00 -0.99580834811E+03  0.99580834811E+03  0.25500000000E-02 0.  1.
   -5000001    1    1    2    0    0  0.31368794645E+03  0.23085865959E+03 -0.76908926080E+02  0.46915970774E+03  0.25000000000E+03 0.  0.
    5000001    1    1    2    0    0 -0.31368794645E+03 -0.23085865959E+03 -0.64868592096E+03  0.79686214146E+03  0.25000000000E+03 0.  0.
<mgrwt>
<rscale>  0 0.10374601E+04</rscale>
<asrwt>0</asrwt>
<pdfrwt beam="1">  1        2 0.15320128E+00 0.10374601E+04</pdfrwt>
<pdfrwt beam="2">  1       -2 0.41571308E-01 0.10374601E+04</pdfrwt>
<totfact> 0.13835731E+02</totfact>
</mgrwt>
</event>
<event>
 4    1  0.1714834E-005  0.5481706E+03  0.7818608E-02  0.1001918E+00
          2   -1    0    0  501    0  0.00000000000E+00  0.00000000000E+00  0.84612521588E+02  0.84612521627E+02  0.25500000000E-02 0.  1.
         -2   -1    0    0    0  501 -0.00000000000E+00 -0.00000000000E+00 -0.88784451366E+03  0.88784451366E+03  0.25500000000E-02 0. -1.
   -5000001    1    1    2    0    0 -0.21946157840E+02 -0.10417850261E+03 -0.46528196159E+03  0.53881545823E+03  0.25000000000E+03 0.  0.
    5000001    1    1    2    0    0  0.21946157840E+02  0.10417850261E+03 -0.33795003048E+03  0.43364157705E+03  0.25000000000E+03 0.  0.
<mgrwt>
<rscale>  0 0.54817064E+03</rscale>
<asrwt>0</asrwt>
<pdfrwt beam="1">  1        2 0.13017312E-01 0.54817064E+03</pdfrwt>
<pdfrwt beam="2">  1       -2 0.13659146E+00 0.54817064E+03</pdfrwt>
<totfact> 0.18558504E+02</totfact>
</mgrwt>
</event>
<event>
 4    1  0.1714834E-005  0.6079912E+03  0.7818608E-02  0.9888964E-01
          2   -1    0    0  501    0  0.00000000000E+00  0.00000000000E+00  0.41349845922E+03  0.41349845923E+03  0.25500000000E-02 0.  1.
         -2   -1    0    0    0  501 -0.00000000000E+00 -0.00000000000E+00 -0.22349132414E+03  0.22349132416E+03  0.25500000000E-02 0. -1.
   -5000001    1    1    2    0    0 -0.15599433672E+03 -0.59517807531E+02  0.14228606339E+03  0.33259874675E+03  0.25000000000E+03 0.  0.
    5000001    1    1    2    0    0  0.15599433672E+03  0.59517807531E+02  0.47721071693E+02  0.30439103664E+03  0.25000000000E+03 0.  0.
<mgrwt>
<rscale>  0 0.60799118E+03</rscale>
<asrwt>0</asrwt>
<pdfrwt beam="1">  1        2 0.63615147E-01 0.60799118E+03</pdfrwt>
<pdfrwt beam="2">  1       -2 0.34383281E-01 0.60799118E+03</pdfrwt>
<totfact> 0.61099862E+02</totfact>
</mgrwt>
</event>
<event>
 4    1  0.1714834E-005  0.7224657E+03  0.7818608E-02  0.9679566E-01
          2   -1    0    0  501    0  0.00000000000E+00  0.00000000000E+00  0.14633876998E+04  0.14633876998E+04  0.25500000000E-02 0.  1.
         -2   -1    0    0    0  501 -0.00000000000E+00 -0.00000000000E+00 -0.89169245229E+02  0.89169245265E+02  0.25500000000E-02 0. -1.
   -5000001    1    1    2    0    0  0.25081207095E+02 -0.21784535098E+03  0.38393298668E+03  0.50792735913E+03  0.25000000000E+03 0.  0.
    5000001    1    1    2    0    0 -0.25081207095E+02  0.21784535098E+03  0.99028546788E+03  0.10446295859E+04  0.25000000000E+03 0.  0.
<mgrwt>
<rscale>  0 0.72246571E+03</rscale>
<asrwt>0</asrwt>
<pdfrwt beam="1">  1        2 0.22513656E+00 0.72246571E+03</pdfrwt>
<pdfrwt beam="2">  1       -2 0.13718346E-01 0.72246571E+03</pdfrwt>
<totfact> 0.54937042E+02</totfact>
</mgrwt>
</event>
<event>
 4    1  0.1714834E-005  0.7160496E+03  0.7818608E-02  0.9690172E-01
          2   -1    0    0  501    0  0.00000000000E+00  0.00000000000E+00  0.23477863279E+03  0.23477863280E+03  0.25500000000E-02 0.  1.
         -2   -1    0    0    0  501 -0.00000000000E+00 -0.00000000000E+00 -0.54596854946E+03  0.54596854947E+03  0.25500000000E-02 0. -1.
   -5000001    1    1    2    0    0 -0.23342361929E+03 -0.84707700318E+02 -0.22472516957E+03  0.41792748459E+03  0.25000000000E+03 0.  0.
    5000001    1    1    2    0    0  0.23342361929E+03  0.84707700318E+02 -0.86464747104E+02  0.36281969768E+03  0.25000000000E+03 0.  0.
<mgrwt>
<rscale>  0 0.71604958E+03</rscale>
<asrwt>0</asrwt>
<pdfrwt beam="1">  1        2 0.36119790E-01 0.71604958E+03</pdfrwt>
<pdfrwt beam="2">  1       -2 0.83995161E-01 0.71604958E+03</pdfrwt>
<totfact> 0.18047729E+02</totfact>
</mgrwt>
</event>
<event>
 4    1  0.1714834E-005  0.5684101E+03  0.7818608E-02  0.9973203E-01
         -2   -1    0    0    0  501 -0.00000000000E+00  0.00000000000E+00  0.30810573040E+02  0.30810573145E+02  0.25500000000E-02 0. -1.
          2   -1    0    0  501    0  0.00000000000E+00 -0.00000000000E+00 -0.26215839444E+04  0.26215839444E+04  0.25500000000E-02 0.  1.
   -5000001    1    1    2    0    0  0.46312937101E+02 -0.42290223440E+02 -0.73661023254E+03  0.78040245119E+03  0.25000000000E+03 0.  0.
    5000001    1    1    2    0    0 -0.46312937101E+02  0.42290223440E+02 -0.18541631389E+04  0.18719920664E+04  0.25000000000E+03 0.  0.
<mgrwt>
<rscale>  0 0.56841008E+03</rscale>
<asrwt>0</asrwt>
<pdfrwt beam="1">  1        2 0.40332043E+00 0.56841008E+03</pdfrwt>
<pdfrwt beam="2">  1       -2 0.47400902E-02 0.56841008E+03</pdfrwt>
<totfact> 0.70186202E+02</totfact>
</mgrwt>
</event>
<event>
 4    1  0.1714834E-005  0.6528149E+03  0.7818608E-02  0.9801511E-01
          2   -1    0    0  501    0  0.00000000000E+00  0.00000000000E+00  0.13396059433E+04  0.13396059433E+04  0.25500000000E-02 0.  1.
         -2   -1    0    0    0  501 -0.00000000000E+00 -0.00000000000E+00 -0.79532217013E+02  0.79532217054E+02  0.25500000000E-02 0. -1.
   -5000001    1    1    2    0    0 -0.17764852061E+03 -0.78691467221E+02  0.80245253175E+03  0.86265949807E+03  0.25000000000E+03 0.  0.
    5000001    1    1    2    0    0  0.17764852061E+03  0.78691467221E+02  0.45762119451E+03  0.55647866226E+03  0.25000000000E+03 0.  0.
<mgrwt>
<rscale>  0 0.65281492E+03</rscale>
<asrwt>0</asrwt>
<pdfrwt beam="1">  1        2 0.20609321E+00 0.65281492E+03</pdfrwt>
<pdfrwt beam="2">  1       -2 0.12235727E-01 0.65281492E+03</pdfrwt>
<totfact> 0.78299356E+02</totfact>
</mgrwt>
</event>
<event>
 4    1  0.1714834E-005  0.8108691E+03  0.7818608E-02  0.9544416E-01
          2   -1    0    0  501    0  0.00000000000E+00  0.00000000000E+00  0.19723991826E+04  0.19723991826E+04  0.25500000000E-02 0.  1.
         -2   -1    0    0    0  501 -0.00000000000E+00 -0.00000000000E+00 -0.83338700661E+02  0.83338700700E+02  0.25500000000E-02 0. -1.
   -5000001    1    1    2    0    0 -0.24364269119E+03  0.20548535748E+03  0.98779225070E+03  0.10676233061E+04  0.25000000000E+03 0.  0.
    5000001    1    1    2    0    0  0.24364269119E+03 -0.20548535748E+03  0.90126823124E+03  0.98811457724E+03  0.25000000000E+03 0.  0.
<mgrwt>
<rscale>  0 0.81086913E+03</rscale>
<asrwt>0</asrwt>
<pdfrwt beam="1">  1        2 0.30344601E+00 0.81086913E+03</pdfrwt>
<pdfrwt beam="2">  1       -2 0.12821339E-01 0.81086913E+03</pdfrwt>
<totfact> 0.32137835E+02</totfact>
</mgrwt>
</event>
<event>
 4    1  0.1714834E-005  0.8705224E+03  0.7818608E-02  0.9463199E-01
          2   -1    0    0  501    0  0.00000000000E+00  0.00000000000E+00  0.77584071986E+03  0.77584071987E+03  0.25500000000E-02 0.  1.
         -2   -1    0    0    0  501 -0.00000000000E+00 -0.00000000000E+00 -0.24418968329E+03  0.24418968330E+03  0.25500000000E-02 0. -1.
   -5000001    1    1    2    0    0  0.34601275882E+03 -0.84071792508E+02  0.28061942729E+03  0.51772594926E+03  0.25000000000E+03 0.  0.
    5000001    1    1    2    0    0 -0.34601275882E+03  0.84071792508E+02  0.25103160928E+03  0.50230445391E+03  0.25000000000E+03 0.  0.
<mgrwt>
<rscale>  0 0.87052237E+03</rscale>
<asrwt>0</asrwt>
<pdfrwt beam="1">  1        2 0.11936011E+00 0.87052237E+03</pdfrwt>
<pdfrwt beam="2">  1       -2 0.37567643E-01 0.87052237E+03</pdfrwt>
<totfact> 0.24053293E+02</totfact>
</mgrwt>
</event>
<event>
 4    1  0.1714834E-005  0.9937913E+03  0.7818608E-02  0.9315381E-01
         -2   -1    0    0    0  501 -0.00000000000E+00  0.00000000000E+00  0.32580665040E+03  0.32580665041E+03  0.25500000000E-02 0. -1.
          2   -1    0    0  501    0  0.00000000000E+00 -0.00000000000E+00 -0.75782772058E+03  0.75782772058E+03  0.25500000000E-02 0.  1.
   -5000001    1    1    2    0    0  0.21747866507E+03  0.30693813239E+03  0.98303994127E+01  0.45177939708E+03  0.25000000000E+03 0.  0.
    5000001    1    1    2    0    0 -0.21747866507E+03 -0.30693813239E+03 -0.44185146959E+03  0.63185497391E+03  0.25000000000E+03 0.  0.
<mgrwt>
<rscale>  0 0.99379135E+03</rscale>
<asrwt>0</asrwt>
<pdfrwt beam="1">  1        2 0.11658888E+00 0.99379135E+03</pdfrwt>
<pdfrwt beam="2">  1       -2 0.50124100E-01 0.99379135E+03</pdfrwt>
<totfact> 0.13912215E+02</totfact>
</mgrwt>
</event>
<event>
 4    1  0.1714834E-005  0.6598032E+03  0.7818608E-02  0.9788556E-01
          2   -1    0    0  501    0  0.00000000000E+00  0.00000000000E+00  0.30803356378E+03  0.30803356379E+03  0.25500000000E-02 0.  1.
         -2   -1    0    0    0  501 -0.00000000000E+00 -0.00000000000E+00 -0.35332205539E+03  0.35332205540E+03  0.25500000000E-02 0. -1.
   -5000001    1    1    2    0    0 -0.31687863160E+02  0.19106817996E+03  0.71512296039E+02  0.32423013208E+03  0.25000000000E+03 0.  0.
    5000001    1    1    2    0    0  0.31687863160E+02 -0.19106817996E+03 -0.11680078765E+03  0.33712548711E+03  0.25000000000E+03 0.  0.
<mgrwt>
<rscale>  0 0.65980316E+03</rscale>
<asrwt>0</asrwt>
<pdfrwt beam="1">  1        2 0.47389779E-01 0.65980316E+03</pdfrwt>
<pdfrwt beam="2">  1       -2 0.54357239E-01 0.65980316E+03</pdfrwt>
<totfact> 0.34290512E+02</totfact>
</mgrwt>
</event>
<event>
 4    1  0.1714834E-005  0.7523274E+03  0.7818608E-02  0.9631706E-01
          2   -1    0    0  501    0  0.00000000000E+00  0.00000000000E+00  0.50765042669E+03  0.50765042670E+03  0.25500000000E-02 0.  1.
         -2   -1    0    0    0  501 -0.00000000000E+00 -0.00000000000E+00 -0.27873337165E+03  0.27873337166E+03  0.25500000000E-02 0. -1.
   -5000001    1    1    2    0    0  0.22580622920E+03  0.16240953728E+03  0.72208432249E+02  0.38089285715E+03  0.25000000000E+03 0.  0.
    5000001    1    1    2    0    0 -0.22580622920E+03 -0.16240953728E+03  0.15670862279E+03  0.40549094121E+03  0.25000000000E+03 0.  0.
<mgrwt>
<rscale>  0 0.75232736E+03</rscale>
<asrwt>0</asrwt>
<pdfrwt beam="1">  1        2 0.78100065E-01 0.75232736E+03</pdfrwt>
<pdfrwt beam="2">  1       -2 0.42882057E-01 0.75232736E+03</pdfrwt>
<totfact> 0.31427131E+02</totfact>
</mgrwt>
</event>
<event>
 4    1  0.1714834E-005  0.8581021E+03  0.7818608E-02  0.9479527E-01
          2   -1    0    0  501    0  0.00000000000E+00  0.00000000000E+00  0.31458334885E+03  0.31458334886E+03  0.25500000000E-02 0.  1.
         -2   -1    0    0    0  501 -0.00000000000E+00 -0.00000000000E+00 -0.58517020987E+03  0.58517020988E+03  0.25500000000E-02 0. -1.
   -5000001    1    1    2    0    0  0.28826295152E+02 -0.19236795043E+03  0.16814663270E+03  0.35862190917E+03  0.25000000000E+03 0.  0.
    5000001    1    1    2    0    0 -0.28826295152E+02  0.19236795043E+03 -0.43873349373E+03  0.54113164957E+03  0.25000000000E+03 0.  0.
<mgrwt>
<rscale>  0 0.85810210E+03</rscale>
<asrwt>0</asrwt>
<pdfrwt beam="1">  1        2 0.48397438E-01 0.85810210E+03</pdfrwt>
<pdfrwt beam="2">  1       -2 0.90026186E-01 0.85810210E+03</pdfrwt>
<totfact> 0.11055765E+02</totfact>
</mgrwt>
</event>
<event>
 4    1  0.1714834E-005  0.7401742E+03  0.7818608E-02  0.9650893E-01
         -2   -1    0    0    0  501 -0.00000000000E+00  0.00000000000E+00  0.21137613938E+03  0.21137613939E+03  0.25500000000E-02 0. -1.
          2   -1    0    0  501    0  0.00000000000E+00 -0.00000000000E+00 -0.64796552335E+03  0.64796552335E+03  0.25500000000E-02 0.  1.
   -5000001    1    1    2    0    0  0.21336126536E+03 -0.16592703819E+03 -0.26188459773E+03  0.45181672622E+03  0.25000000000E+03 0.  0.
    5000001    1    1    2    0    0 -0.21336126536E+03  0.16592703819E+03 -0.17470478624E+03  0.40752493653E+03  0.25000000000E+03 0.  0.
<mgrwt>
<rscale>  0 0.74017417E+03</rscale>
<asrwt>0</asrwt>
<pdfrwt beam="1">  1        2 0.99687003E-01 0.74017417E+03</pdfrwt>
<pdfrwt beam="2">  1       -2 0.32519406E-01 0.74017417E+03</pdfrwt>
<totfact> 0.40014110E+02</totfact>
</mgrwt>
</event>
<event>
 4    1  0.1714834E-005  0.6514580E+03  0.7818608E-02  0.9804047E-01
          2   -1    0    0  501    0  0.00000000000E+00  0.00000000000E+00  0.10411581021E+04  0.10411581021E+04  0.25500000000E-02 0. -1.
         -2   -1    0    0    0  501 -0.00000000000E+00 -0.00000000000E+00 -0.10190516295E+03  0.10190516299E+03  0.25500000000E-02 0.  1.
   -5000001    1    1    2    0    0  0.14829253660E+03  0.14618443505E+03  0.44251083692E+03  0.54925076810E+03  0.25000000000E+03 0.  0.
    5000001    1    1    2    0    0 -0.14829253660E+03 -0.14618443505E+03  0.49674210224E+03  0.59381249701E+03  0.25000000000E+03 0.  0.
<mgrwt>
<rscale>  0 0.65145801E+03</rscale>
<asrwt>0</asrwt>
<pdfrwt beam="1">  1        2 0.16017818E+00 0.65145801E+03</pdfrwt>
<pdfrwt beam="2">  1       -2 0.15677716E-01 0.65145801E+03</pdfrwt>
<totfact> 0.77702440E+02</totfact>
</mgrwt>
</event>
<event>
 4    1  0.1714834E-005  0.6882479E+03  0.7818608E-02  0.9737544E-01
          2   -1    0    0  501    0  0.00000000000E+00  0.00000000000E+00  0.12119144038E+04  0.12119144038E+04  0.25500000000E-02 0.  1.
         -2   -1    0    0    0  501 -0.00000000000E+00 -0.00000000000E+00 -0.97714232510E+02  0.97714232543E+02  0.25500000000E-02 0. -1.
   -5000001    1    1    2    0    0 -0.82301874126E+02 -0.21506045834E+03  0.65951283801E+03  0.74194459546E+03  0.25000000000E+03 0.  0.
    5000001    1    1    2    0    0  0.82301874126E+02  0.21506045834E+03  0.45468733324E+03  0.56768404085E+03  0.25000000000E+03 0.  0.
<mgrwt>
<rscale>  0 0.68824788E+03</rscale>
<asrwt>0</asrwt>
<pdfrwt beam="1">  1        2 0.18644838E+00 0.68824788E+03</pdfrwt>
<pdfrwt beam="2">  1       -2 0.15032958E-01 0.68824788E+03</pdfrwt>
<totfact> 0.65688887E+02</totfact>
</mgrwt>
</event>
<event>
 4    1  0.1714834E-005  0.6999898E+03  0.7818608E-02  0.9717250E-01
          2   -1    0    0  501    0  0.00000000000E+00  0.00000000000E+00  0.71742640488E+03  0.71742640488E+03  0.25500000000E-02 0.  1.
         -2   -1    0    0    0  501 -0.00000000000E+00 -0.00000000000E+00 -0.17074426443E+03  0.17074426445E+03  0.25500000000E-02 0. -1.
   -5000001    1    1    2    0    0 -0.22833788807E+03 -0.84928312456E+01  0.38530170765E+03  0.51299875753E+03  0.25000000000E+03 0.  0.
    5000001    1    1    2    0    0  0.22833788807E+03  0.84928312456E+01  0.16138043280E+03  0.37517191180E+03  0.25000000000E+03 0.  0.
<mgrwt>
<rscale>  0 0.69998984E+03</rscale>
<asrwt>0</asrwt>
<pdfrwt beam="1">  1        2 0.11037330E+00 0.69998984E+03</pdfrwt>
<pdfrwt beam="2">  1       -2 0.26268348E-01 0.69998984E+03</pdfrwt>
<totfact> 0.52325852E+02</totfact>
</mgrwt>
</event>
<event>
 4    1  0.1714834E-005  0.6694274E+03  0.7818608E-02  0.9770993E-01
          2   -1    0    0  501    0  0.00000000000E+00  0.00000000000E+00  0.15617789626E+04  0.15617789626E+04  0.25500000000E-02 0.  1.
         -2   -1    0    0    0  501 -0.00000000000E+00 -0.00000000000E+00 -0.71734385401E+02  0.71734385446E+02  0.25500000000E-02 0. -1.
   -5000001    1    1    2    0    0 -0.13709191824E+03  0.16095205597E+03  0.91467073400E+03  0.97150517755E+03  0.25000000000E+03 0.  0.
    5000001    1    1    2    0    0  0.13709191824E+03 -0.16095205597E+03  0.57537384318E+03  0.66200817048E+03  0.25000000000E+03 0.  0.
<mgrwt>
<rscale>  0 0.66942738E+03</rscale>
<asrwt>0</asrwt>
<pdfrwt beam="1">  1        2 0.24027370E+00 0.66942738E+03</pdfrwt>
<pdfrwt beam="2">  1       -2 0.11036059E-01 0.66942738E+03</pdfrwt>
<totfact> 0.69662046E+02</totfact>
</mgrwt>
</event>
<event>
 4    1  0.1714834E-005  0.1544711E+04  0.7818608E-02  0.8855253E-01
          2   -1    0    0  501    0  0.00000000000E+00  0.00000000000E+00  0.24573660647E+04  0.24573660647E+04  0.25500000000E-02 0.  1.
         -2   -1    0    0    0  501 -0.00000000000E+00 -0.00000000000E+00 -0.24275285801E+03  0.24275285802E+03  0.25500000000E-02 0. -1.
   -5000001    1    1    2    0    0  0.36049903276E+03  0.21858426085E+03  0.21506806972E+04  0.22058254901E+04  0.25000000000E+03 0.  0.
    5000001    1    1    2    0    0 -0.36049903276E+03 -0.21858426085E+03  0.63932509490E+02  0.49429343257E+03  0.25000000000E+03 0.  0.
<mgrwt>
<rscale>  0 0.15447105E+04</rscale>
<asrwt>0</asrwt>
<pdfrwt beam="1">  1        2 0.37805627E+00 0.15447105E+04</pdfrwt>
<pdfrwt beam="2">  1       -2 0.37346598E-01 0.15447105E+04</pdfrwt>
<totfact> 0.24040447E+01</totfact>
</mgrwt>
</event>
<event>
 4    1  0.1714834E-005  0.6830391E+03  0.7818608E-02  0.9746685E-01
         -2   -1    0    0    0  501 -0.00000000000E+00  0.00000000000E+00  0.37421160386E+02  0.37421160472E+02  0.25500000000E-02 0. -1.
          2   -1    0    0  501    0  0.00000000000E+00 -0.00000000000E+00 -0.31168357000E+04  0.31168357000E+04  0.25500000000E-02 0.  1.
   -5000001    1    1    2    0    0 -0.22169404952E+03  0.49456573823E+01 -0.12143809955E+04  0.12595213032E+04  0.25000000000E+03 0.  0.
    5000001    1    1    2    0    0  0.22169404952E+03 -0.49456573823E+01 -0.18650335442E+04  0.18947355573E+04  0.25000000000E+03 0.  0.
<mgrwt>
<rscale>  0 0.68303912E+03</rscale>
<asrwt>0</asrwt>
<pdfrwt beam="1">  1        2 0.47951298E+00 0.68303912E+03</pdfrwt>
<pdfrwt beam="2">  1       -2 0.57571041E-02 0.68303912E+03</pdfrwt>
<totfact> 0.25977003E+02</totfact>
</mgrwt>
</event>
<event>
 4    1  0.1714834E-005  0.5586241E+03  0.7818608E-02  0.9995173E-01
         -2   -1    0    0    0  501 -0.00000000000E+00  0.00000000000E+00  0.17240378880E+03  0.17240378881E+03  0.25500000000E-02 0.  1.
          2   -1    0    0  501    0  0.00000000000E+00 -0.00000000000E+00 -0.45251453282E+03  0.45251453283E+03  0.25500000000E-02 0. -1.
   -5000001    1    1    2    0    0 -0.23922707242E+01 -0.73977095233E+02 -0.25212891388E+03  0.36269453097E+03  0.25000000000E+03 0.  0.
    5000001    1    1    2    0    0  0.23922707242E+01  0.73977095233E+02 -0.27981830146E+02  0.26222379068E+03  0.25000000000E+03 0.  0.
<mgrwt>
<rscale>  0 0.55862410E+03</rscale>
<asrwt>0</asrwt>
<pdfrwt beam="1">  1        2 0.69617620E-01 0.55862410E+03</pdfrwt>
<pdfrwt beam="2">  1       -2 0.26523660E-01 0.55862410E+03</pdfrwt>
<totfact> 0.89265080E+02</totfact>
</mgrwt>
</event>
<event>
 4    1  0.1714834E-005  0.5558955E+03  0.7818608E-02  0.1000138E+00
         -2   -1    0    0    0  501 -0.00000000000E+00  0.00000000000E+00  0.64075597779E+02  0.64075597830E+02  0.25500000000E-02 0. -1.
          2   -1    0    0  501    0  0.00000000000E+00 -0.00000000000E+00 -0.12056842980E+04  0.12056842980E+04  0.25500000000E-02 0.  1.
   -5000001    1    1    2    0    0  0.11635118354E+03 -0.19348361222E+02 -0.50448527805E+03  0.57525416362E+03  0.25000000000E+03 0.  0.
    5000001    1    1    2    0    0 -0.11635118354E+03  0.19348361222E+02 -0.63712342215E+03  0.69450573219E+03  0.25000000000E+03 0.  0.
<mgrwt>
<rscale>  0 0.55589547E+03</rscale>
<asrwt>0</asrwt>
<pdfrwt beam="1">  1        2 0.18548988E+00 0.55589547E+03</pdfrwt>
<pdfrwt beam="2">  1       -2 0.98577851E-02 0.55589547E+03</pdfrwt>
<totfact> 0.13362975E+03</totfact>
</mgrwt>
</event>
<event>
 4    1  0.1714834E-005  0.6123222E+03  0.7818608E-02  0.9880166E-01
         -2   -1    0    0    0  501 -0.00000000000E+00  0.00000000000E+00  0.34139189949E+02  0.34139190044E+02  0.25500000000E-02 0. -1.
          2   -1    0    0  501    0  0.00000000000E+00 -0.00000000000E+00 -0.27456607349E+04  0.27456607349E+04  0.25500000000E-02 0.  1.
   -5000001    1    1    2    0    0 -0.13410814930E+03 -0.11256569304E+03 -0.12465605136E+04  0.12833819170E+04  0.25000000000E+03 0.  0.
    5000001    1    1    2    0    0  0.13410814930E+03  0.11256569304E+03 -0.14649610314E+04  0.14964180079E+04  0.25000000000E+03 0.  0.
<mgrwt>
<rscale>  0 0.61232225E+03</rscale>
<asrwt>0</asrwt>
<pdfrwt beam="1">  1        2 0.42240917E+00 0.61232225E+03</pdfrwt>
<pdfrwt beam="2">  1       -2 0.52521852E-02 0.61232225E+03</pdfrwt>
<totfact> 0.50550370E+02</totfact>
</mgrwt>
</event>
<event>
 4    1  0.1714834E-005  0.8079648E+03  0.7818608E-02  0.9548559E-01
         -2   -1    0    0    0  501 -0.00000000000E+00  0.00000000000E+00  0.21771060518E+03  0.21771060519E+03  0.25500000000E-02 0. -1.
          2   -1    0    0  501    0  0.00000000000E+00 -0.00000000000E+00 -0.74962721053E+03  0.74962721053E+03  0.25500000000E-02 0.  1.
   -5000001    1    1    2    0    0 -0.16137440879E+03 -0.20813494534E+03 -0.47790896379E+03  0.60021565537E+03  0.25000000000E+03 0.  0.
    5000001    1    1    2    0    0  0.16137440879E+03  0.20813494534E+03 -0.54007641563E+02  0.36712216036E+03  0.25000000000E+03 0.  0.
<mgrwt>
<rscale>  0 0.80796484E+03</rscale>
<asrwt>0</asrwt>
<pdfrwt beam="1">  1        2 0.11532726E+00 0.80796484E+03</pdfrwt>
<pdfrwt beam="2">  1       -2 0.33493940E-01 0.80796484E+03</pdfrwt>
<totfact> 0.31409354E+02</totfact>
</mgrwt>
</event>
<event>
 4    1  0.1714834E-005  0.7667903E+03  0.7818608E-02  0.9609371E-01
          2   -1    0    0  501    0  0.00000000000E+00  0.00000000000E+00  0.51509423159E+03  0.51509423160E+03  0.25500000000E-02 0.  1.
         -2   -1    0    0    0  501 -0.00000000000E+00 -0.00000000000E+00 -0.28536881931E+03  0.28536881932E+03  0.25500000000E-02 0. -1.
   -5000001    1    1    2    0    0  0.27883003413E+03  0.25215416272E+02  0.19646064120E+03  0.42364936998E+03  0.25000000000E+03 0.  0.
    5000001    1    1    2    0    0 -0.27883003413E+03 -0.25215416272E+02  0.33264771081E+02  0.37681368094E+03  0.25000000000E+03 0.  0.
<mgrwt>
<rscale>  0 0.76679028E+03</rscale>
<asrwt>0</asrwt>
<pdfrwt beam="1">  1        2 0.79245265E-01 0.76679028E+03</pdfrwt>
<pdfrwt beam="2">  1       -2 0.43902896E-01 0.76679028E+03</pdfrwt>
<totfact> 0.29477679E+02</totfact>
</mgrwt>
</event>
<event>
 4    1  0.1714834E-005  0.7726693E+03  0.7818608E-02  0.9600442E-01
         -2   -1    0    0    0  501 -0.00000000000E+00  0.00000000000E+00  0.10602122944E+03  0.10602122947E+03  0.25500000000E-02 0. -1.
          2   -1    0    0  501    0  0.00000000000E+00 -0.00000000000E+00 -0.14077791762E+04  0.14077791762E+04  0.25500000000E-02 0.  1.
   -5000001    1    1    2    0    0 -0.78081778868E+02 -0.28394253227E+03 -0.66236206371E+03  0.76677482305E+03  0.25000000000E+03 0.  0.
    5000001    1    1    2    0    0  0.78081778868E+02  0.28394253227E+03 -0.63939588307E+03  0.74702558264E+03  0.25000000000E+03 0.  0.
<mgrwt>
<rscale>  0 0.77266934E+03</rscale>
<asrwt>0</asrwt>
<pdfrwt beam="1">  1        2 0.21658140E+00 0.77266934E+03</pdfrwt>
<pdfrwt beam="2">  1       -2 0.16310959E-01 0.77266934E+03</pdfrwt>
<totfact> 0.43935661E+02</totfact>
</mgrwt>
</event>
<event>
 4    1  0.1714834E-005  0.7537640E+03  0.7818608E-02  0.9629464E-01
          2   -1    0    0  501    0  0.00000000000E+00  0.00000000000E+00  0.38816949508E+03  0.38816949509E+03  0.25500000000E-02 0.  1.
         -2   -1    0    0    0  501 -0.00000000000E+00 -0.00000000000E+00 -0.36592270004E+03  0.36592270005E+03  0.25500000000E-02 0. -1.
   -5000001    1    1    2    0    0  0.70622719950E+02 -0.88461429696E+02  0.26955165064E+03  0.38467009954E+03  0.25000000000E+03 0.  0.
    5000001    1    1    2    0    0 -0.70622719950E+02  0.88461429696E+02 -0.24730485559E+03  0.36942209560E+03  0.25000000000E+03 0.  0.
<mgrwt>
<rscale>  0 0.75376397E+03</rscale>
<asrwt>0</asrwt>
<pdfrwt beam="1">  1        2 0.59718384E-01 0.75376397E+03</pdfrwt>
<pdfrwt beam="2">  1       -2 0.56295800E-01 0.75376397E+03</pdfrwt>
<totfact> 0.24573626E+02</totfact>
</mgrwt>
</event>
<event>
 4    1  0.1714834E-005  0.5666966E+03  0.7818608E-02  0.9977015E-01
         -2   -1    0    0    0  501 -0.00000000000E+00  0.00000000000E+00  0.69359895307E+02  0.69359895354E+02  0.25500000000E-02 0.  1.
          2   -1    0    0  501    0  0.00000000000E+00 -0.00000000000E+00 -0.11575313817E+04  0.11575313818E+04  0.25500000000E-02 0. -1.
   -5000001    1    1    2    0    0 -0.18162642863E+01  0.90143315884E+02 -0.75684072044E+03  0.80214524391E+03  0.25000000000E+03 0.  0.
    5000001    1    1    2    0    0  0.18162642863E+01 -0.90143315884E+02 -0.33133076600E+03  0.42474603320E+03  0.25000000000E+03 0.  0.
<mgrwt>
<rscale>  0 0.56669659E+03</rscale>
<asrwt>0</asrwt>
<pdfrwt beam="1">  1        2 0.17808174E+00 0.56669659E+03</pdfrwt>
<pdfrwt beam="2">  1       -2 0.10670754E-01 0.56669659E+03</pdfrwt>
<totfact> 0.12539632E+03</totfact>
</mgrwt>
</event>
<event>
 4    1  0.1714834E-005  0.5265662E+03  0.7818608E-02  0.1007068E+00
          2   -1    0    0  501    0  0.00000000000E+00  0.00000000000E+00  0.31331763237E+04  0.31331763237E+04  0.25500000000E-02 0.  1.
         -2   -1    0    0    0  501 -0.00000000000E+00 -0.00000000000E+00 -0.22123875361E+02  0.22123875508E+02  0.25500000000E-02 0. -1.
   -5000001    1    1    2    0    0  0.67056337931E+02 -0.13103537960E+02  0.18333576702E+04  0.18515854293E+04  0.25000000000E+03 0.  0.
    5000001    1    1    2    0    0 -0.67056337931E+02  0.13103537960E+02  0.12776947782E+04  0.13037147699E+04  0.25000000000E+03 0.  0.
<mgrwt>
<rscale>  0 0.52656625E+03</rscale>
<asrwt>0</asrwt>
<pdfrwt beam="1">  1        2 0.48202723E+00 0.52656625E+03</pdfrwt>
<pdfrwt beam="2">  1       -2 0.34036724E-02 0.52656625E+03</pdfrwt>
<totfact> 0.58193844E+02</totfact>
</mgrwt>
</event>
<event>
 4    1  0.1714834E-005  0.6432501E+03  0.7818608E-02  0.9819528E-01
          2   -1    0    0  501    0  0.00000000000E+00  0.00000000000E+00  0.28710667394E+03  0.28710667395E+03  0.25500000000E-02 0.  1.
         -2   -1    0    0    0  501 -0.00000000000E+00 -0.00000000000E+00 -0.36029354562E+03  0.36029354563E+03  0.25500000000E-02 0. -1.
   -5000001    1    1    2    0    0  0.13031255364E+03  0.99181285203E+02  0.83019417722E+02  0.31017819506E+03  0.25000000000E+03 0.  0.
    5000001    1    1    2    0    0 -0.13031255364E+03 -0.99181285203E+02 -0.15620628940E+03  0.33722202452E+03  0.25000000000E+03 0.  0.
<mgrwt>
<rscale>  0 0.64325013E+03</rscale>
<asrwt>0</asrwt>
<pdfrwt beam="1">  1        2 0.44170257E-01 0.64325013E+03</pdfrwt>
<pdfrwt beam="2">  1       -2 0.55429776E-01 0.64325013E+03</pdfrwt>
<totfact> 0.35614502E+02</totfact>
</mgrwt>
</event>
<event>
 4    1  0.1714834E-005  0.6509317E+03  0.7818608E-02  0.9805032E-01
          2   -1    0    0  501    0  0.00000000000E+00  0.00000000000E+00  0.89881786119E+03  0.89881786119E+03  0.25500000000E-02 0.  1.
         -2   -1    0    0    0  501 -0.00000000000E+00 -0.00000000000E+00 -0.11785260935E+03  0.11785260937E+03  0.25500000000E-02 0. -1.
   -5000001    1    1    2    0    0 -0.67434129285E+01 -0.16901270442E+03  0.20036221178E+03  0.36229240095E+03  0.25000000000E+03 0.  0.
    5000001    1    1    2    0    0  0.67434129285E+01  0.16901270442E+03  0.58060304006E+03  0.65437806962E+03  0.25000000000E+03 0.  0.
<mgrwt>
<rscale>  0 0.65093173E+03</rscale>
<asrwt>0</asrwt>
<pdfrwt beam="1">  1        2 0.13827967E+00 0.65093173E+03</pdfrwt>
<pdfrwt beam="2">  1       -2 0.18131171E-01 0.65093173E+03</pdfrwt>
<totfact> 0.74876400E+02</totfact>
</mgrwt>
</event>
<event>
 4    1  0.1714834E-005  0.1289432E+04  0.7818608E-02  0.9037988E-01
          2   -1    0    0  501    0  0.00000000000E+00  0.00000000000E+00  0.26309514586E+04  0.26309514586E+04  0.25500000000E-02 0.  1.
         -2   -1    0    0    0  501 -0.00000000000E+00 -0.00000000000E+00 -0.15798798886E+03  0.15798798888E+03  0.25500000000E-02 0. -1.
   -5000001    1    1    2    0    0 -0.45925779940E+03 -0.24431031471E+03  0.61502870146E+03  0.84342489873E+03  0.25000000000E+03 0.  0.
    5000001    1    1    2    0    0  0.45925779940E+03  0.24431031471E+03  0.18579347683E+04  0.19455145487E+04  0.25000000000E+03 0.  0.
<mgrwt>
<rscale>  0 0.12894320E+04</rscale>
<asrwt>0</asrwt>
<pdfrwt beam="1">  1        2 0.40476174E+00 0.12894320E+04</pdfrwt>
<pdfrwt beam="2">  1       -2 0.24305846E-01 0.12894320E+04</pdfrwt>
<totfact> 0.43491925E+01</totfact>
</mgrwt>
</event>
<event>
 4    1  0.1714834E-005  0.6123683E+03  0.7818608E-02  0.9880073E-01
         -2   -1    0    0    0  501 -0.00000000000E+00  0.00000000000E+00  0.68719701868E+02  0.68719701915E+02  0.25500000000E-02 0. -1.
          2   -1    0    0  501    0  0.00000000000E+00 -0.00000000000E+00 -0.13642189585E+04  0.13642189585E+04  0.25500000000E-02 0.  1.
   -5000001    1    1    2    0    0  0.15643426446E+03 -0.70696401447E+02 -0.54905120566E+03  0.62723750423E+03  0.25000000000E+03 0.  0.
    5000001    1    1    2    0    0 -0.15643426446E+03  0.70696401447E+02 -0.74644805093E+03  0.80570115614E+03  0.25000000000E+03 0.  0.
<mgrwt>
<rscale>  0 0.61236826E+03</rscale>
<asrwt>0</asrwt>
<pdfrwt beam="1">  1        2 0.20987982E+00 0.61236826E+03</pdfrwt>
<pdfrwt beam="2">  1       -2 0.10572263E-01 0.61236826E+03</pdfrwt>
<totfact> 0.96540007E+02</totfact>
</mgrwt>
</event>
<event>
 4    1  0.1714834E-005  0.1240785E+04  0.7818608E-02  0.9077888E-01
          2   -1    0    0  501    0  0.00000000000E+00  0.00000000000E+00  0.21364839376E+04  0.21364839376E+04  0.25500000000E-02 0.  1.
         -2   -1    0    0    0  501 -0.00000000000E+00 -0.00000000000E+00 -0.18014966479E+03  0.18014966481E+03  0.25500000000E-02 0. -1.
   -5000001    1    1    2    0    0 -0.27083963909E+03  0.43901374116E+03  0.14211774255E+04  0.15324269803E+04  0.25000000000E+03 0.  0.
    5000001    1    1    2    0    0  0.27083963909E+03 -0.43901374116E+03  0.53515684731E+03  0.78420662217E+03  0.25000000000E+03 0.  0.
<mgrwt>
<rscale>  0 0.12407850E+04</rscale>
<asrwt>0</asrwt>
<pdfrwt beam="1">  1        2 0.32868984E+00 0.12407850E+04</pdfrwt>
<pdfrwt beam="2">  1       -2 0.27715333E-01 0.12407850E+04</pdfrwt>
<totfact> 0.65670341E+01</totfact>
</mgrwt>
</event>
<event>
 4    1  0.1714834E-005  0.7583046E+03  0.7818608E-02  0.9622411E-01
          2   -1    0    0  501    0  0.00000000000E+00  0.00000000000E+00  0.25538849751E+04  0.25538849751E+04  0.25500000000E-02 0.  1.
         -2   -1    0    0    0  501 -0.00000000000E+00 -0.00000000000E+00 -0.56289325791E+02  0.56289325849E+02  0.25500000000E-02 0. -1.
   -5000001    1    1    2    0    0 -0.22895730454E+02  0.27935975968E+03  0.14273364249E+04  0.14759252555E+04  0.25000000000E+03 0.  0.
    5000001    1    1    2    0    0  0.22895730454E+02 -0.27935975968E+03  0.10702592244E+04  0.11342490455E+04  0.25000000000E+03 0.  0.
<mgrwt>
<rscale>  0 0.75830459E+03</rscale>
<asrwt>0</asrwt>
<pdfrwt beam="1">  1        2 0.39290535E+00 0.75830459E+03</pdfrwt>
<pdfrwt beam="2">  1       -2 0.86598969E-02 0.75830459E+03</pdfrwt>
<totfact> 0.29149632E+02</totfact>
</mgrwt>
</event>
<event>
 4    1  0.1714834E-005  0.7242788E+03  0.7818608E-02  0.9676590E-01
          2   -1    0    0  501    0  0.00000000000E+00  0.00000000000E+00  0.14677589128E+04  0.14677589128E+04  0.25500000000E-02 0.  1.
         -2   -1    0    0    0  501 -0.00000000000E+00 -0.00000000000E+00 -0.89350458986E+02  0.89350459022E+02  0.25500000000E-02 0. -1.
   -5000001    1    1    2    0    0 -0.12156057242E+02 -0.25218588038E+03  0.53872145216E+03  0.64534199538E+03  0.25000000000E+03 0.  0.
    5000001    1    1    2    0    0  0.12156057242E+02  0.25218588038E+03  0.83968700162E+03  0.91176737641E+03  0.25000000000E+03 0.  0.
<mgrwt>
<rscale>  0 0.72427877E+03</rscale>
<asrwt>0</asrwt>
<pdfrwt beam="1">  1        2 0.22580907E+00 0.72427877E+03</pdfrwt>
<pdfrwt beam="2">  1       -2 0.13746224E-01 0.72427877E+03</pdfrwt>
<totfact> 0.54438185E+02</totfact>
</mgrwt>
</event>
<event>
 4    1  0.1714834E-005  0.9863548E+03  0.7818608E-02  0.9323639E-01
          2   -1    0    0  501    0  0.00000000000E+00  0.00000000000E+00  0.23764000019E+04  0.23764000019E+04  0.25500000000E-02 0.  1.
         -2   -1    0    0    0  501 -0.00000000000E+00 -0.00000000000E+00 -0.10234974248E+03  0.10234974251E+03  0.25500000000E-02 0. -1.
   -5000001    1    1    2    0    0  0.12251888395E+03  0.33255275301E+03  0.17270372175E+04  0.17806627309E+04  0.25000000000E+03 0.  0.
    5000001    1    1    2    0    0 -0.12251888395E+03 -0.33255275301E+03  0.54701304192E+03  0.69808701355E+03  0.25000000000E+03 0.  0.
<mgrwt>
<rscale>  0 0.98635476E+03</rscale>
<asrwt>0</asrwt>
<pdfrwt beam="1">  1        2 0.36559999E+00 0.98635476E+03</pdfrwt>
<pdfrwt beam="2">  1       -2 0.15746115E-01 0.98635476E+03</pdfrwt>
<totfact> 0.13387178E+02</totfact>
</mgrwt>
</event>
<event>
 4    1  0.1714834E-005  0.6432868E+03  0.7818608E-02  0.9819458E-01
          2   -1    0    0  501    0  0.00000000000E+00  0.00000000000E+00  0.24508072742E+03  0.24508072743E+03  0.25500000000E-02 0.  1.
         -2   -1    0    0    0  501 -0.00000000000E+00 -0.00000000000E+00 -0.42212412985E+03  0.42212412985E+03  0.25500000000E-02 0. -1.
   -5000001    1    1    2    0    0  0.14631911933E+01  0.16470006295E+03 -0.21047864568E+03  0.36596381235E+03  0.25000000000E+03 0.  0.
    5000001    1    1    2    0    0 -0.14631911933E+01 -0.16470006295E+03  0.33435243249E+02  0.30124104494E+03  0.25000000000E+03 0.  0.
<mgrwt>
<rscale>  0 0.64328684E+03</rscale>
<asrwt>0</asrwt>
<pdfrwt beam="1">  1        2 0.37704727E-01 0.64328684E+03</pdfrwt>
<pdfrwt beam="2">  1       -2 0.64942174E-01 0.64328684E+03</pdfrwt>
<totfact> 0.30404147E+02</totfact>
</mgrwt>
</event>
<event>
 4    1  0.1714834E-005  0.9475229E+03  0.7818608E-02  0.9368051E-01
         -2   -1    0    0    0  501 -0.00000000000E+00  0.00000000000E+00  0.26107800603E+03  0.26107800604E+03  0.25500000000E-02 0. -1.
          2   -1    0    0  501    0  0.00000000000E+00 -0.00000000000E+00 -0.85970442887E+03  0.85970442887E+03  0.25500000000E-02 0.  1.
   -5000001    1    1    2    0    0  0.90398377873E+02 -0.39212158685E+03 -0.30442999709E+03  0.56312416812E+03  0.25000000000E+03 0.  0.
    5000001    1    1    2    0    0 -0.90398377873E+02  0.39212158685E+03 -0.29419642575E+03  0.55765826679E+03  0.25000000000E+03 0.  0.
<mgrwt>
<rscale>  0 0.94752291E+03</rscale>
<asrwt>0</asrwt>
<pdfrwt beam="1">  1        2 0.13226222E+00 0.94752291E+03</pdfrwt>
<pdfrwt beam="2">  1       -2 0.40165847E-01 0.94752291E+03</pdfrwt>
<totfact> 0.18334382E+02</totfact>
</mgrwt>
</event>
<event>
 4    1  0.1714834E-005  0.8653730E+03  0.7818608E-02  0.9469933E-01
          2   -1    0    0  501    0  0.00000000000E+00  0.00000000000E+00  0.12698671187E+04  0.12698671187E+04  0.25500000000E-02 0.  1.
         -2   -1    0    0    0  501 -0.00000000000E+00 -0.00000000000E+00 -0.14743087950E+03  0.14743087952E+03  0.25500000000E-02 0. -1.
   -5000001    1    1    2    0    0  0.19180136702E+03  0.29528652997E+03  0.51679427346E+03  0.67346731194E+03  0.25000000000E+03 0.  0.
    5000001    1    1    2    0    0 -0.19180136702E+03 -0.29528652997E+03  0.60564196570E+03  0.74383068624E+03  0.25000000000E+03 0.  0.
<mgrwt>
<rscale>  0 0.86537304E+03</rscale>
<asrwt>0</asrwt>
<pdfrwt beam="1">  1        2 0.19536418E+00 0.86537304E+03</pdfrwt>
<pdfrwt beam="2">  1       -2 0.22681673E-01 0.86537304E+03</pdfrwt>
<totfact> 0.29513283E+02</totfact>
</mgrwt>
</event>
<event>
 4    1  0.1714834E-005  0.8631247E+03  0.7818608E-02  0.9472889E-01
         -2   -1    0    0    0  501 -0.00000000000E+00  0.00000000000E+00  0.13719399651E+03  0.13719399654E+03  0.25500000000E-02 0. -1.
          2   -1    0    0  501    0  0.00000000000E+00 -0.00000000000E+00 -0.13575380229E+04  0.13575380229E+04  0.25500000000E-02 0.  1.
   -5000001    1    1    2    0    0  0.32701276723E+03 -0.92174548835E+01 -0.83412491321E+03  0.93020787045E+03  0.25000000000E+03 0.  0.
    5000001    1    1    2    0    0 -0.32701276723E+03  0.92174548835E+01 -0.38621911317E+03  0.56452414898E+03  0.25000000000E+03 0.  0.
<mgrwt>
<rscale>  0 0.86312471E+03</rscale>
<asrwt>0</asrwt>
<pdfrwt beam="1">  1        2 0.20885199E+00 0.86312471E+03</pdfrwt>
<pdfrwt beam="2">  1       -2 0.21106770E-01 0.86312471E+03</pdfrwt>
<totfact> 0.29846449E+02</totfact>
</mgrwt>
</event>
<event>
 4    1  0.1714834E-005  0.8418090E+03  0.7818608E-02  0.9501397E-01
          2   -1    0    0  501    0  0.00000000000E+00  0.00000000000E+00  0.88785713657E+03  0.88785713657E+03  0.25500000000E-02 0.  1.
         -2   -1    0    0    0  501 -0.00000000000E+00 -0.00000000000E+00 -0.19953726166E+03  0.19953726168E+03  0.25500000000E-02 0. -1.
   -5000001    1    1    2    0    0 -0.20170602689E+02  0.33757408277E+03  0.32188107026E+03  0.52959469216E+03  0.25000000000E+03 0.  0.
    5000001    1    1    2    0    0  0.20170602689E+02 -0.33757408277E+03  0.36643880464E+03  0.55779970609E+03  0.25000000000E+03 0.  0.
<mgrwt>
<rscale>  0 0.84180896E+03</rscale>
<asrwt>0</asrwt>
<pdfrwt beam="1">  1        2 0.13659340E+00 0.84180896E+03</pdfrwt>
<pdfrwt beam="2">  1       -2 0.30698041E-01 0.84180896E+03</pdfrwt>
<totfact> 0.29447539E+02</totfact>
</mgrwt>
</event>
<event>
 4    1  0.1714834E-005  0.8649445E+03  0.7818608E-02  0.9470496E-01
         -2   -1    0    0    0  501 -0.00000000000E+00  0.00000000000E+00  0.18089836113E+03  0.18089836115E+03  0.25500000000E-02 0. -1.
          2   -1    0    0  501    0  0.00000000000E+00 -0.00000000000E+00 -0.10339080246E+04  0.10339080246E+04  0.25500000000E-02 0.  1.
   -5000001    1    1    2    0    0  0.13532711701E+02 -0.34407916749E+03 -0.31808890572E+03  0.53127597323E+03  0.25000000000E+03 0.  0.
    5000001    1    1    2    0    0 -0.13532711701E+02  0.34407916749E+03 -0.53492075778E+03  0.68353041256E+03  0.25000000000E+03 0.  0.
<mgrwt>
<rscale>  0 0.86494455E+03</rscale>
<asrwt>0</asrwt>
<pdfrwt beam="1">  1        2 0.15906277E+00 0.86494455E+03</pdfrwt>
<pdfrwt beam="2">  1       -2 0.27830518E-01 0.86494455E+03</pdfrwt>
<totfact> 0.28310731E+02</totfact>
</mgrwt>
</event>
<event>
 4    1  0.1714834E-005  0.1451631E+04  0.7818608E-02  0.8917270E-01
         -2   -1    0    0    0  501 -0.00000000000E+00  0.00000000000E+00  0.92897979400E+03  0.92897979400E+03  0.25500000000E-02 0. -1.
          2   -1    0    0  501    0  0.00000000000E+00 -0.00000000000E+00 -0.56708257685E+03  0.56708257686E+03  0.25500000000E-02 0.  1.
   -5000001    1    1    2    0    0 -0.21654807001E+03 -0.60668935992E+03  0.40988093131E+03  0.80340987293E+03  0.25000000000E+03 0.  0.
    5000001    1    1    2    0    0  0.21654807001E+03  0.60668935992E+03 -0.47983714170E+02  0.69265249793E+03  0.25000000000E+03 0.  0.
<mgrwt>
<rscale>  0 0.14516312E+04</rscale>
<asrwt>0</asrwt>
<pdfrwt beam="1">  1        2 0.87243475E-01 0.14516312E+04</pdfrwt>
<pdfrwt beam="2">  1       -2 0.14291997E+00 0.14516312E+04</pdfrwt>
<totfact> 0.17505286E+01</totfact>
</mgrwt>
</event>
<event>
 4    1  0.1714834E-005  0.7993574E+03  0.7818608E-02  0.9560948E-01
          2   -1    0    0  501    0  0.00000000000E+00  0.00000000000E+00  0.11656398723E+04  0.11656398723E+04  0.25500000000E-02 0.  1.
         -2   -1    0    0    0  501 -0.00000000000E+00 -0.00000000000E+00 -0.13704324173E+03  0.13704324176E+03  0.25500000000E-02 0. -1.
   -5000001    1    1    2    0    0  0.47887844821E+02 -0.14242887570E+03  0.68998074545E+02  0.29973315567E+03  0.25000000000E+03 0.  0.
    5000001    1    1    2    0    0 -0.47887844821E+02  0.14242887570E+03  0.95959855600E+03  0.10029499584E+04  0.25000000000E+03 0.  0.
<mgrwt>
<rscale>  0 0.79935741E+03</rscale>
<asrwt>0</asrwt>
<pdfrwt beam="1">  1        2 0.17932922E+00 0.79935741E+03</pdfrwt>
<pdfrwt beam="2">  1       -2 0.21083575E-01 0.79935741E+03</pdfrwt>
<totfact> 0.38846384E+02</totfact>
</mgrwt>
</event>
<event>
 4    1  0.1714834E-005  0.6278166E+03  0.7818608E-02  0.9849319E-01
         -2   -1    0    0    0  501 -0.00000000000E+00  0.00000000000E+00  0.76606206218E+02  0.76606206260E+02  0.25500000000E-02 0. -1.
          2   -1    0    0  501    0  0.00000000000E+00 -0.00000000000E+00 -0.12862982879E+04  0.12862982879E+04  0.25500000000E-02 0.  1.
   -5000001    1    1    2    0    0 -0.37777180663E+02  0.18599424551E+03 -0.61391630228E+03  0.68950286507E+03  0.25000000000E+03 0.  0.
    5000001    1    1    2    0    0  0.37777180663E+02 -0.18599424551E+03 -0.59577577945E+03  0.67340162914E+03  0.25000000000E+03 0.  0.
<mgrwt>
<rscale>  0 0.62781664E+03</rscale>
<asrwt>0</asrwt>
<pdfrwt beam="1">  1        2 0.19789203E+00 0.62781664E+03</pdfrwt>
<pdfrwt beam="2">  1       -2 0.11785571E-01 0.62781664E+03</pdfrwt>
<totfact> 0.89444555E+02</totfact>
</mgrwt>
</event>
<event>
 4    1  0.1714834E-005  0.8736001E+03  0.7818608E-02  0.9459198E-01
          2   -1    0    0  501    0  0.00000000000E+00  0.00000000000E+00  0.19761986665E+04  0.19761986665E+04  0.25500000000E-02 0.  1.
         -2   -1    0    0    0  501 -0.00000000000E+00 -0.00000000000E+00 -0.96546112182E+02  0.96546112216E+02  0.25500000000E-02 0. -1.
   -5000001    1    1    2    0    0  0.25849908245E+03  0.23932840709E+03  0.78616305674E+03  0.89702408766E+03  0.25000000000E+03 0.  0.
    5000001    1    1    2    0    0 -0.25849908245E+03 -0.23932840709E+03  0.10934894976E+04  0.11757206911E+04  0.25000000000E+03 0.  0.
<mgrwt>
<rscale>  0 0.87360013E+03</rscale>
<asrwt>0</asrwt>
<pdfrwt beam="1">  1        2 0.30403057E+00 0.87360013E+03</pdfrwt>
<pdfrwt beam="2">  1       -2 0.14853248E-01 0.87360013E+03</pdfrwt>
<totfact> 0.24865471E+02</totfact>
</mgrwt>
</event>
<event>
 4    1  0.1714834E-005  0.7507712E+03  0.7818608E-02  0.9634141E-01
         -2   -1    0    0    0  501 -0.00000000000E+00  0.00000000000E+00  0.12447936977E+03  0.12447936980E+03  0.25500000000E-02 0. -1.
          2   -1    0    0  501    0  0.00000000000E+00 -0.00000000000E+00 -0.11320297613E+04  0.11320297613E+04  0.25500000000E-02 0.  1.
   -5000001    1    1    2    0    0  0.26171445673E+03  0.99495240570E+02 -0.49618064529E+03  0.62216476316E+03  0.25000000000E+03 0.  0.
    5000001    1    1    2    0    0 -0.26171445673E+03 -0.99495240570E+02 -0.51136974619E+03  0.63434436789E+03  0.25000000000E+03 0.  0.
<mgrwt>
<rscale>  0 0.75077121E+03</rscale>
<asrwt>0</asrwt>
<pdfrwt beam="1">  1        2 0.17415842E+00 0.75077121E+03</pdfrwt>
<pdfrwt beam="2">  1       -2 0.19150673E-01 0.75077121E+03</pdfrwt>
<totfact> 0.48276256E+02</totfact>
</mgrwt>
</event>
<event>
 4    1  0.1714834E-005  0.6691752E+03  0.7818608E-02  0.9771449E-01
          2   -1    0    0  501    0  0.00000000000E+00  0.00000000000E+00  0.17445815081E+04  0.17445815081E+04  0.25500000000E-02 0.  1.
         -2   -1    0    0    0  501 -0.00000000000E+00 -0.00000000000E+00 -0.64169463768E+02  0.64169463819E+02  0.25500000000E-02 0. -1.
   -5000001    1    1    2    0    0 -0.64685480229E+02  0.20096208688E+03  0.65140715777E+03  0.72897274085E+03  0.25000000000E+03 0.  0.
    5000001    1    1    2    0    0  0.64685480229E+02 -0.20096208688E+03  0.10290048866E+04  0.10797782311E+04  0.25000000000E+03 0.  0.
<mgrwt>
<rscale>  0 0.66917519E+03</rscale>
<asrwt>0</asrwt>
<pdfrwt beam="1">  1        2 0.26839716E+00 0.66917519E+03</pdfrwt>
<pdfrwt beam="2">  1       -2 0.98722249E-02 0.66917519E+03</pdfrwt>
<totfact> 0.66365750E+02</totfact>
</mgrwt>
</event>
<event>
 4    1  0.1714834E-005  0.6346516E+03  0.7818608E-02  0.9836013E-01
          2   -1    0    0  501    0  0.00000000000E+00  0.00000000000E+00  0.14846113751E+04  0.14846113751E+04  0.25500000000E-02 0.  1.
         -2   -1    0    0    0  501 -0.00000000000E+00 -0.00000000000E+00 -0.67826269240E+02  0.67826269288E+02  0.25500000000E-02 0. -1.
   -5000001    1    1    2    0    0 -0.30428259742E+02  0.17918031098E+03  0.53260835287E+03  0.61579470636E+03  0.25000000000E+03 0.  0.
    5000001    1    1    2    0    0  0.30428259742E+02 -0.17918031098E+03  0.88417675298E+03  0.93664293803E+03  0.25000000000E+03 0.  0.
<mgrwt>
<rscale>  0 0.63465156E+03</rscale>
<asrwt>0</asrwt>
<pdfrwt beam="1">  1        2 0.22840172E+00 0.63465156E+03</pdfrwt>
<pdfrwt beam="2">  1       -2 0.10434812E-01 0.63465156E+03</pdfrwt>
<totfact> 0.84366375E+02</totfact>
</mgrwt>
</event>
<event>
 4    1  0.1714834E-005  0.6546143E+03  0.7818608E-02  0.9798159E-01
          2   -1    0    0  501    0  0.00000000000E+00  0.00000000000E+00  0.10367791120E+04  0.10367791120E+04  0.25500000000E-02 0.  1.
         -2   -1    0    0    0  501 -0.00000000000E+00 -0.00000000000E+00 -0.10332961219E+03  0.10332961222E+03  0.25500000000E-02 0. -1.
   -5000001    1    1    2    0    0 -0.15873590552E+03 -0.20871101942E+00  0.70951376271E+03  0.76883477467E+03  0.25000000000E+03 0.  0.
    5000001    1    1    2    0    0  0.15873590552E+03  0.20871101942E+00  0.22393573705E+03  0.37127394951E+03  0.25000000000E+03 0.  0.
<mgrwt>
<rscale>  0 0.65461434E+03</rscale>
<asrwt>0</asrwt>
<pdfrwt beam="1">  1        2 0.15950448E+00 0.65461434E+03</pdfrwt>
<pdfrwt beam="2">  1       -2 0.15896863E-01 0.65461434E+03</pdfrwt>
<totfact> 0.76364455E+02</totfact>
</mgrwt>
</event>
<event>
 4    1  0.1714834E-005  0.6426185E+03  0.7818608E-02  0.9820729E-01
         -2   -1    0    0    0  501 -0.00000000000E+00  0.00000000000E+00  0.35125266724E+03  0.35125266724E+03  0.25500000000E-02 0. -1.
          2   -1    0    0  501    0  0.00000000000E+00 -0.00000000000E+00 -0.29391843968E+03  0.29391843969E+03  0.25500000000E-02 0.  1.
   -5000001    1    1    2    0    0 -0.65238208507E+02 -0.15278176020E+03  0.14375817743E+03  0.33281331655E+03  0.25000000000E+03 0.  0.
    5000001    1    1    2    0    0  0.65238208507E+02  0.15278176020E+03 -0.86423949872E+02  0.31235779038E+03  0.25000000000E+03 0.  0.
<mgrwt>
<rscale>  0 0.64261851E+03</rscale>
<asrwt>0</asrwt>
<pdfrwt beam="1">  1        2 0.45218222E-01 0.64261851E+03</pdfrwt>
<pdfrwt beam="2">  1       -2 0.54038872E-01 0.64261851E+03</pdfrwt>
<totfact> 0.36574639E+02</totfact>
</mgrwt>
</event>
<event>
 4    1  0.1714834E-005  0.1140215E+04  0.7818608E-02  0.9166858E-01
          2   -1    0    0  501    0  0.00000000000E+00  0.00000000000E+00  0.67973897141E+03  0.67973897142E+03  0.25500000000E-02 0.  1.
         -2   -1    0    0    0  501 -0.00000000000E+00 -0.00000000000E+00 -0.47815818326E+03  0.47815818327E+03  0.25500000000E-02 0. -1.
   -5000001    1    1    2    0    0  0.40079976432E+03 -0.31657694422E+03  0.14218199626E+03  0.58615452975E+03  0.25000000000E+03 0.  0.
    5000001    1    1    2    0    0 -0.40079976432E+03  0.31657694422E+03  0.59398791891E+02  0.57174262494E+03  0.25000000000E+03 0.  0.
<mgrwt>
<rscale>  0 0.11402153E+04</rscale>
<asrwt>0</asrwt>
<pdfrwt beam="1">  1        2 0.10457523E+00 0.11402153E+04</pdfrwt>
<pdfrwt beam="2">  1       -2 0.73562798E-01 0.11402153E+04</pdfrwt>
<totfact> 0.70236008E+01</totfact>
</mgrwt>
</event>
<event>
 4    1  0.1714834E-005  0.6024185E+03  0.7818608E-02  0.9900401E-01
         -2   -1    0    0    0  501 -0.00000000000E+00  0.00000000000E+00  0.49183965545E+02  0.49183965611E+02  0.25500000000E-02 0. -1.
          2   -1    0    0  501    0  0.00000000000E+00 -0.00000000000E+00 -0.18446460922E+04  0.18446460922E+04  0.25500000000E-02 0.  1.
   -5000001    1    1    2    0    0 -0.13186687183E+03  0.79354246604E+02 -0.11095771515E+04  0.11477575630E+04  0.25000000000E+03 0.  0.
    5000001    1    1    2    0    0  0.13186687183E+03 -0.79354246604E+02 -0.68588497514E+03  0.74607249478E+03  0.25000000000E+03 0.  0.
<mgrwt>
<rscale>  0 0.60241849E+03</rscale>
<asrwt>0</asrwt>
<pdfrwt beam="1">  1        2 0.28379165E+00 0.60241849E+03</pdfrwt>
<pdfrwt beam="2">  1       -2 0.75667654E-02 0.60241849E+03</pdfrwt>
<totfact> 0.90126917E+02</totfact>
</mgrwt>
</event>
<event>
 4    1  0.1714834E-005  0.6293600E+03  0.7818608E-02  0.9846298E-01
         -2   -1    0    0    0  501 -0.00000000000E+00  0.00000000000E+00  0.65448951187E+03  0.65448951187E+03  0.25500000000E-02 0. -1.
          2   -1    0    0  501    0  0.00000000000E+00 -0.00000000000E+00 -0.15129884365E+03  0.15129884367E+03  0.25500000000E-02 0.  1.
   -5000001    1    1    2    0    0 -0.76179696392E+02 -0.15346014185E+03  0.14318122326E+03  0.33519281611E+03  0.25000000000E+03 0.  0.
    5000001    1    1    2    0    0  0.76179696392E+02  0.15346014185E+03  0.36000944496E+03  0.47059553944E+03  0.25000000000E+03 0.  0.
<mgrwt>
<rscale>  0 0.62936001E+03</rscale>
<asrwt>0</asrwt>
<pdfrwt beam="1">  1        2 0.23276746E-01 0.62936001E+03</pdfrwt>
<pdfrwt beam="2">  1       -2 0.10069069E+00 0.62936001E+03</pdfrwt>
<totfact> 0.19568217E+02</totfact>
</mgrwt>
</event>
<event>
 4    1  0.1714834E-005  0.5443953E+03  0.7818608E-02  0.1002800E+00
         -2   -1    0    0    0  501 -0.00000000000E+00  0.00000000000E+00  0.80248697046E+02  0.80248697086E+02  0.25500000000E-02 0. -1.
          2   -1    0    0  501    0  0.00000000000E+00 -0.00000000000E+00 -0.92327432589E+03  0.92327432589E+03  0.25500000000E-02 0.  1.
   -5000001    1    1    2    0    0  0.10741838536E+03 -0.65502154726E+01 -0.41569907100E+03  0.49687758298E+03  0.25000000000E+03 0.  0.
    5000001    1    1    2    0    0 -0.10741838536E+03  0.65502154726E+01 -0.42732655784E+03  0.50664544000E+03  0.25000000000E+03 0.  0.
<mgrwt>
<rscale>  0 0.54439530E+03</rscale>
<asrwt>0</asrwt>
<pdfrwt beam="1">  1        2 0.14204220E+00 0.54439530E+03</pdfrwt>
<pdfrwt beam="2">  1       -2 0.12345954E-01 0.54439530E+03</pdfrwt>
<totfact> 0.13816010E+03</totfact>
</mgrwt>
</event>
<event>
 4    1  0.1714834E-005  0.7209744E+03  0.7818608E-02  0.9682021E-01
          2   -1    0    0  501    0  0.00000000000E+00  0.00000000000E+00  0.63684567233E+03  0.63684567234E+03  0.25500000000E-02 0.  1.
         -2   -1    0    0    0  501 -0.00000000000E+00 -0.00000000000E+00 -0.20405418368E+03  0.20405418370E+03  0.25500000000E-02 0. -1.
   -5000001    1    1    2    0    0  0.33393375948E+01 -0.17327105545E+03  0.44200608059E+03  0.53656629144E+03  0.25000000000E+03 0.  0.
    5000001    1    1    2    0    0 -0.33393375948E+01  0.17327105545E+03 -0.92145919380E+01  0.30433356459E+03  0.25000000000E+03 0.  0.
<mgrwt>
<rscale>  0 0.72097441E+03</rscale>
<asrwt>0</asrwt>
<pdfrwt beam="1">  1        2 0.97976257E-01 0.72097441E+03</pdfrwt>
<pdfrwt beam="2">  1       -2 0.31392951E-01 0.72097441E+03</pdfrwt>
<totfact> 0.43693503E+02</totfact>
</mgrwt>
</event>
<event>
 4    1  0.1714834E-005  0.6632218E+03  0.7818608E-02  0.9782281E-01
          2   -1    0    0  501    0  0.00000000000E+00  0.00000000000E+00  0.43428273407E+03  0.43428273408E+03  0.25500000000E-02 0.  1.
         -2   -1    0    0    0  501 -0.00000000000E+00 -0.00000000000E+00 -0.25321242852E+03  0.25321242853E+03  0.25500000000E-02 0. -1.
   -5000001    1    1    2    0    0  0.66557696950E+02  0.72855716261E+02 -0.11081047139E+03  0.29071780645E+03  0.25000000000E+03 0.  0.
    5000001    1    1    2    0    0 -0.66557696950E+02 -0.72855716261E+02  0.29188077695E+03  0.39677735617E+03  0.25000000000E+03 0.  0.
<mgrwt>
<rscale>  0 0.66322179E+03</rscale>
<asrwt>0</asrwt>
<pdfrwt beam="1">  1        2 0.66812727E-01 0.66322179E+03</pdfrwt>
<pdfrwt beam="2">  1       -2 0.38955759E-01 0.66322179E+03</pdfrwt>
<totfact> 0.45472742E+02</totfact>
</mgrwt>
</event>
<event>
 4    1  0.1714834E-005  0.5814052E+03  0.7818608E-02  0.9944753E-01
          2   -1    0    0  501    0  0.00000000000E+00  0.00000000000E+00  0.26728723855E+03  0.26728723856E+03  0.25500000000E-02 0.  1.
         -2   -1    0    0    0  501 -0.00000000000E+00 -0.00000000000E+00 -0.31616920587E+03  0.31616920588E+03  0.25500000000E-02 0. -1.
   -5000001    1    1    2    0    0 -0.10373120492E+02  0.13483368243E+03  0.36768230417E+02  0.28660011569E+03  0.25000000000E+03 0.  0.
    5000001    1    1    2    0    0  0.10373120492E+02 -0.13483368243E+03 -0.85650197736E+02  0.29685632875E+03  0.25000000000E+03 0.  0.
<mgrwt>
<rscale>  0 0.58140517E+03</rscale>
<asrwt>0</asrwt>
<pdfrwt beam="1">  1        2 0.41121114E-01 0.58140517E+03</pdfrwt>
<pdfrwt beam="2">  1       -2 0.48641416E-01 0.58140517E+03</pdfrwt>
<totfact> 0.50404856E+02</totfact>
</mgrwt>
</event>
<event>
 4    1  0.1714834E-005  0.5691965E+03  0.7818608E-02  0.9971458E-01
         -2   -1    0    0    0  501 -0.00000000000E+00  0.00000000000E+00  0.17053956997E+03  0.17053956999E+03  0.25500000000E-02 0. -1.
          2   -1    0    0  501    0  0.00000000000E+00 -0.00000000000E+00 -0.47494063909E+03  0.47494063909E+03  0.25500000000E-02 0.  1.
   -5000001    1    1    2    0    0 -0.12062291836E+03 -0.15254946318E+02 -0.83094411972E+02  0.29015044912E+03  0.25000000000E+03 0.  0.
    5000001    1    1    2    0    0  0.12062291836E+03  0.15254946318E+02 -0.22130665714E+03  0.35532975997E+03  0.25000000000E+03 0.  0.
<mgrwt>
<rscale>  0 0.56919653E+03</rscale>
<asrwt>0</asrwt>
<pdfrwt beam="1">  1        2 0.73067790E-01 0.56919653E+03</pdfrwt>
<pdfrwt beam="2">  1       -2 0.26236857E-01 0.56919653E+03</pdfrwt>
<totfact> 0.86158134E+02</totfact>
</mgrwt>
</event>
<event>
 4    1  0.1714834E-005  0.6111446E+03  0.7818608E-02  0.9882551E-01
          2   -1    0    0  501    0  0.00000000000E+00  0.00000000000E+00  0.25051345886E+03  0.25051345887E+03  0.25500000000E-02 0.  1.
         -2   -1    0    0    0  501 -0.00000000000E+00 -0.00000000000E+00 -0.37273216752E+03  0.37273216753E+03  0.25500000000E-02 0. -1.
   -5000001    1    1    2    0    0 -0.17294820750E+03  0.56677342483E+01 -0.29989242431E+02  0.30552014721E+03  0.25000000000E+03 0.  0.
    5000001    1    1    2    0    0  0.17294820750E+03 -0.56677342483E+01 -0.92229466231E+02  0.31772547919E+03  0.25000000000E+03 0.  0.
<mgrwt>
<rscale>  0 0.61114458E+03</rscale>
<asrwt>0</asrwt>
<pdfrwt beam="1">  1        2 0.38540532E-01 0.61114458E+03</pdfrwt>
<pdfrwt beam="2">  1       -2 0.57343410E-01 0.61114458E+03</pdfrwt>
<totfact> 0.38624780E+02</totfact>
</mgrwt>
</event>
<event>
 4    1  0.1714834E-005  0.7198235E+03  0.7818608E-02  0.9683919E-01
          2   -1    0    0  501    0  0.00000000000E+00  0.00000000000E+00  0.42489601924E+03  0.42489601924E+03  0.25500000000E-02 0.  1.
         -2   -1    0    0    0  501 -0.00000000000E+00 -0.00000000000E+00 -0.30486630528E+03  0.30486630529E+03  0.25500000000E-02 0. -1.
   -5000001    1    1    2    0    0 -0.15715731075E+03 -0.13313196916E+03 -0.99039638617E+02  0.33872022607E+03  0.25000000000E+03 0.  0.
    5000001    1    1    2    0    0  0.15715731075E+03  0.13313196916E+03  0.21906935257E+03  0.39104209846E+03  0.25000000000E+03 0.  0.
<mgrwt>
<rscale>  0 0.71982353E+03</rscale>
<asrwt>0</asrwt>
<pdfrwt beam="1">  1        2 0.65368618E-01 0.71982353E+03</pdfrwt>
<pdfrwt beam="2">  1       -2 0.46902508E-01 0.71982353E+03</pdfrwt>
<totfact> 0.32275263E+02</totfact>
</mgrwt>
</event>
<event>
 4    1  0.1714834E-005  0.6227014E+03  0.7818608E-02  0.9859396E-01
          2   -1    0    0  501    0  0.00000000000E+00  0.00000000000E+00  0.70726687067E+03  0.70726687067E+03  0.25500000000E-02 0.  1.
         -2   -1    0    0    0  501 -0.00000000000E+00 -0.00000000000E+00 -0.13706179768E+03  0.13706179771E+03  0.25500000000E-02 0. -1.
   -5000001    1    1    2    0    0  0.13829763560E+03 -0.12104299954E+02  0.45208644499E+03  0.53493448555E+03  0.25000000000E+03 0.  0.
    5000001    1    1    2    0    0 -0.13829763560E+03  0.12104299954E+02  0.11811862800E+03  0.30939418283E+03  0.25000000000E+03 0.  0.
<mgrwt>
<rscale>  0 0.62270143E+03</rscale>
<asrwt>0</asrwt>
<pdfrwt beam="1">  1        2 0.10881029E+00 0.62270143E+03</pdfrwt>
<pdfrwt beam="2">  1       -2 0.21086430E-01 0.62270143E+03</pdfrwt>
<totfact> 0.79028975E+02</totfact>
</mgrwt>
</event>
<event>
 4    1  0.1714834E-005  0.1175283E+04  0.7818608E-02  0.9134771E-01
          2   -1    0    0  501    0  0.00000000000E+00  0.00000000000E+00  0.39891118547E+04  0.39891118547E+04  0.25500000000E-02 0.  1.
         -2   -1    0    0    0  501 -0.00000000000E+00 -0.00000000000E+00 -0.86566282776E+02  0.86566282814E+02  0.25500000000E-02 0. -1.
   -5000001    1    1    2    0    0 -0.47564797267E+03 -0.23283600406E+03  0.21200596559E+04  0.21994559653E+04  0.25000000000E+03 0.  0.
    5000001    1    1    2    0    0  0.47564797267E+03  0.23283600406E+03  0.17824859160E+04  0.18762221722E+04  0.25000000000E+03 0.  0.
<mgrwt>
<rscale>  0 0.11752831E+04</rscale>
<asrwt>0</asrwt>
<pdfrwt beam="1">  1        2 0.61370944E+00 0.11752831E+04</pdfrwt>
<pdfrwt beam="2">  1       -2 0.13317891E-01 0.11752831E+04</pdfrwt>
<totfact> 0.15432514E+01</totfact>
</mgrwt>
</event>
<event>
 4    1  0.1714834E-005  0.1616424E+04  0.7818608E-02  0.8810521E-01
         -2   -1    0    0    0  501 -0.00000000000E+00  0.00000000000E+00  0.64254553698E+03  0.64254553699E+03  0.25500000000E-02 0.  1.
          2   -1    0    0  501    0  0.00000000000E+00 -0.00000000000E+00 -0.10165916012E+04  0.10165916012E+04  0.25500000000E-02 0. -1.
   -5000001    1    1    2    0    0  0.66778009762E+03 -0.38049355445E+03 -0.18793679870E+03  0.82977457425E+03  0.25000000000E+03 0.  0.
    5000001    1    1    2    0    0 -0.66778009762E+03  0.38049355445E+03 -0.18610926551E+03  0.82936256394E+03  0.25000000000E+03 0.  0.
<mgrwt>
<rscale>  0 0.16164237E+04</rscale>
<asrwt>0</asrwt>
<pdfrwt beam="1">  1        2 0.15639871E+00 0.16164237E+04</pdfrwt>
<pdfrwt beam="2">  1       -2 0.98853159E-01 0.16164237E+04</pdfrwt>
<totfact> 0.19985985E+01</totfact>
</mgrwt>
</event>
<event>
 4    1  0.1714834E-005  0.6225967E+03  0.7818608E-02  0.9859603E-01
          2   -1    0    0  501    0  0.00000000000E+00  0.00000000000E+00  0.76327069391E+03  0.76327069391E+03  0.25500000000E-02 0.  1.
         -2   -1    0    0    0  501 -0.00000000000E+00 -0.00000000000E+00 -0.12696235930E+03  0.12696235932E+03  0.25500000000E-02 0. -1.
   -5000001    1    1    2    0    0 -0.98571162683E+02 -0.10722925472E+03  0.48238570132E+03  0.56250364622E+03  0.25000000000E+03 0.  0.
    5000001    1    1    2    0    0  0.98571162683E+02  0.10722925472E+03  0.15392263329E+03  0.32772940701E+03  0.25000000000E+03 0.  0.
<mgrwt>
<rscale>  0 0.62259665E+03</rscale>
<asrwt>0</asrwt>
<pdfrwt beam="1">  1        2 0.11742626E+00 0.62259665E+03</pdfrwt>
<pdfrwt beam="2">  1       -2 0.19532671E-01 0.62259665E+03</pdfrwt>
<totfact> 0.81971848E+02</totfact>
</mgrwt>
</event>
<event>
 4    1  0.1714834E-005  0.9246491E+03  0.7818608E-02  0.9395283E-01
          2   -1    0    0  501    0  0.00000000000E+00  0.00000000000E+00  0.14888408134E+04  0.14888408134E+04  0.25500000000E-02 0.  1.
         -2   -1    0    0    0  501 -0.00000000000E+00 -0.00000000000E+00 -0.14356402878E+03  0.14356402880E+03  0.25500000000E-02 0. -1.
   -5000001    1    1    2    0    0 -0.11114063169E+03 -0.36085752025E+03  0.50821995774E+03  0.68070398513E+03  0.25000000000E+03 0.  0.
    5000001    1    1    2    0    0  0.11114063169E+03  0.36085752025E+03  0.83705682691E+03  0.95170085710E+03  0.25000000000E+03 0.  0.
<mgrwt>
<rscale>  0 0.92464909E+03</rscale>
<asrwt>0</asrwt>
<pdfrwt beam="1">  1        2 0.22905244E+00 0.92464909E+03</pdfrwt>
<pdfrwt beam="2">  1       -2 0.22086773E-01 0.92464909E+03</pdfrwt>
<totfact> 0.23122513E+02</totfact>
</mgrwt>
</event>
<event>
 4    1  0.1714834E-005  0.7417346E+03  0.7818608E-02  0.9648407E-01
          2   -1    0    0  501    0  0.00000000000E+00  0.00000000000E+00  0.19659319645E+04  0.19659319645E+04  0.25500000000E-02 0.  1.
         -2   -1    0    0    0  501 -0.00000000000E+00 -0.00000000000E+00 -0.69963029828E+02  0.69963029874E+02  0.25500000000E-02 0. -1.
   -5000001    1    1    2    0    0  0.24046630073E+03 -0.71618161662E+02  0.64619201284E+03  0.73689708938E+03  0.25000000000E+03 0.  0.
    5000001    1    1    2    0    0 -0.24046630073E+03  0.71618161662E+02  0.12497769219E+04  0.12989979050E+04  0.25000000000E+03 0.  0.
<mgrwt>
<rscale>  0 0.74173461E+03</rscale>
<asrwt>0</asrwt>
<pdfrwt beam="1">  1        2 0.30245105E+00 0.74173461E+03</pdfrwt>
<pdfrwt beam="2">  1       -2 0.10763544E-01 0.74173461E+03</pdfrwt>
<totfact> 0.43471643E+02</totfact>
</mgrwt>
</event>
<event>
 4    1  0.1714834E-005  0.8484442E+03  0.7818608E-02  0.9492427E-01
         -2   -1    0    0    0  501 -0.00000000000E+00  0.00000000000E+00  0.20449493045E+03  0.20449493046E+03  0.25500000000E-02 0. -1.
          2   -1    0    0  501    0  0.00000000000E+00 -0.00000000000E+00 -0.88004337890E+03  0.88004337890E+03  0.25500000000E-02 0.  1.
   -5000001    1    1    2    0    0  0.31188892680E+03 -0.94025673595E+02 -0.47394944351E+03  0.62709138485E+03  0.25000000000E+03 0.  0.
    5000001    1    1    2    0    0 -0.31188892680E+03  0.94025673595E+02 -0.20159900494E+03  0.45744692451E+03  0.25000000000E+03 0.  0.
<mgrwt>
<rscale>  0 0.84844425E+03</rscale>
<asrwt>0</asrwt>
<pdfrwt beam="1">  1        2 0.13539129E+00 0.84844425E+03</pdfrwt>
<pdfrwt beam="2">  1       -2 0.31460759E-01 0.84844425E+03</pdfrwt>
<totfact> 0.28465669E+02</totfact>
</mgrwt>
</event>
<event>
 4    1  0.1714834E-005  0.6906567E+03  0.7818608E-02  0.9733345E-01
          2   -1    0    0  501    0  0.00000000000E+00  0.00000000000E+00  0.15699632975E+04  0.15699632975E+04  0.25500000000E-02 0. -1.
         -2   -1    0    0    0  501 -0.00000000000E+00 -0.00000000000E+00 -0.75958251024E+02  0.75958251067E+02  0.25500000000E-02 0.  1.
   -5000001    1    1    2    0    0 -0.77096746134E+02 -0.22361169845E+03  0.67936346334E+03  0.76156471509E+03  0.25000000000E+03 0.  0.
    5000001    1    1    2    0    0  0.77096746134E+02  0.22361169845E+03  0.81464158317E+03  0.88435683351E+03  0.25000000000E+03 0.  0.
<mgrwt>
<rscale>  0 0.69065669E+03</rscale>
<asrwt>0</asrwt>
<pdfrwt beam="1">  1        2 0.24153282E+00 0.69065669E+03</pdfrwt>
<pdfrwt beam="2">  1       -2 0.11685885E-01 0.69065669E+03</pdfrwt>
<totfact> 0.62684241E+02</totfact>
</mgrwt>
</event>
<event>
 4    1  0.1714834E-005  0.8021828E+03  0.7818608E-02  0.9556863E-01
         -2   -1    0    0    0  501 -0.00000000000E+00  0.00000000000E+00  0.49682157069E+02  0.49682157135E+02  0.25500000000E-02 0. -1.
          2   -1    0    0  501    0  0.00000000000E+00 -0.00000000000E+00 -0.32380699868E+04  0.32380699868E+04  0.25500000000E-02 0.  1.
   -5000001    1    1    2    0    0 -0.11709701771E+03 -0.24428836074E+03 -0.94634721093E+03  0.10156089594E+04  0.25000000000E+03 0.  0.
    5000001    1    1    2    0    0  0.11709701771E+03  0.24428836074E+03 -0.22420406188E+04  0.22721431846E+04  0.25000000000E+03 0.  0.
<mgrwt>
<rscale>  0 0.80218278E+03</rscale>
<asrwt>0</asrwt>
<pdfrwt beam="1">  1        2 0.49816445E+00 0.80218278E+03</pdfrwt>
<pdfrwt beam="2">  1       -2 0.76434113E-02 0.80218278E+03</pdfrwt>
<totfact> 0.13708728E+02</totfact>
</mgrwt>
</event>
<event>
 4    1  0.1714834E-005  0.7163607E+03  0.7818608E-02  0.9689655E-01
         -2   -1    0    0    0  501 -0.00000000000E+00  0.00000000000E+00  0.10174769526E+03  0.10174769529E+03  0.25500000000E-02 0. -1.
          2   -1    0    0  501    0  0.00000000000E+00 -0.00000000000E+00 -0.12608949647E+04  0.12608949647E+04  0.25500000000E-02 0.  1.
   -5000001    1    1    2    0    0 -0.21270636507E+03 -0.13661676420E+03 -0.66215994532E+03  0.75157430184E+03  0.25000000000E+03 0.  0.
    5000001    1    1    2    0    0  0.21270636507E+03  0.13661676420E+03 -0.49698732413E+03  0.61106835816E+03  0.25000000000E+03 0.  0.
<mgrwt>
<rscale>  0 0.71636068E+03</rscale>
<asrwt>0</asrwt>
<pdfrwt beam="1">  1        2 0.19398383E+00 0.71636068E+03</pdfrwt>
<pdfrwt beam="2">  1       -2 0.15653492E-01 0.71636068E+03</pdfrwt>
<totfact> 0.57354046E+02</totfact>
</mgrwt>
</event>
<event>
 4    1  0.1714834E-005  0.5850549E+03  0.7818608E-02  0.9936907E-01
          2   -1    0    0  501    0  0.00000000000E+00  0.00000000000E+00  0.11233490528E+04  0.11233490528E+04  0.25500000000E-02 0.  1.
         -2   -1    0    0    0  501 -0.00000000000E+00 -0.00000000000E+00 -0.76176060215E+02  0.76176060258E+02  0.25500000000E-02 0. -1.
   -5000001    1    1    2    0    0  0.71248608261E+01 -0.14433968358E+03  0.42769139664E+03  0.51604712833E+03  0.25000000000E+03 0.  0.
    5000001    1    1    2    0    0 -0.71248608261E+01  0.14433968358E+03  0.61948159596E+03  0.68347798474E+03  0.25000000000E+03 0.  0.
<mgrwt>
<rscale>  0 0.58505489E+03</rscale>
<asrwt>0</asrwt>
<pdfrwt beam="1">  1        2 0.17282292E+00 0.58505489E+03</pdfrwt>
<pdfrwt beam="2">  1       -2 0.11719394E-01 0.58505489E+03</pdfrwt>
<totfact> 0.11269311E+03</totfact>
</mgrwt>
</event>
<event>
 4    1  0.1714834E-005  0.9239139E+03  0.7818608E-02  0.9396172E-01
         -2   -1    0    0    0  501 -0.00000000000E+00  0.00000000000E+00  0.30302695101E+03  0.30302695102E+03  0.25500000000E-02 0. -1.
          2   -1    0    0  501    0  0.00000000000E+00 -0.00000000000E+00 -0.70424173160E+03  0.70424173161E+03  0.25500000000E-02 0.  1.
   -5000001    1    1    2    0    0 -0.10438981992E+03 -0.22018300835E+03  0.12922028820E+03  0.37225753794E+03  0.25000000000E+03 0.  0.
    5000001    1    1    2    0    0  0.10438981992E+03  0.22018300835E+03 -0.53043506879E+03  0.63501114469E+03  0.25000000000E+03 0.  0.
<mgrwt>
<rscale>  0 0.92391390E+03</rscale>
<asrwt>0</asrwt>
<pdfrwt beam="1">  1        2 0.10834488E+00 0.92391390E+03</pdfrwt>
<pdfrwt beam="2">  1       -2 0.46619531E-01 0.92391390E+03</pdfrwt>
<totfact> 0.17770142E+02</totfact>
</mgrwt>
</event>
<event>
 4    1  0.1714834E-005  0.7519806E+03  0.7818608E-02  0.9632248E-01
          2   -1    0    0  501    0  0.00000000000E+00  0.00000000000E+00  0.30953224368E+04  0.30953224368E+04  0.25500000000E-02 0.  1.
         -2   -1    0    0    0  501 -0.00000000000E+00 -0.00000000000E+00 -0.45671722029E+02  0.45671722100E+02  0.25500000000E-02 0. -1.
   -5000001    1    1    2    0    0 -0.18350839517E+03 -0.72266300957E+02  0.23599143576E+04  0.23813008051E+04  0.25000000000E+03 0.  0.
    5000001    1    1    2    0    0  0.18350839517E+03  0.72266300957E+02  0.68973635722E+03  0.75969335381E+03  0.25000000000E+03 0.  0.
<mgrwt>
<rscale>  0 0.75198060E+03</rscale>
<asrwt>0</asrwt>
<pdfrwt beam="1">  1        2 0.47620367E+00 0.75198060E+03</pdfrwt>
<pdfrwt beam="2">  1       -2 0.70264156E-02 0.75198060E+03</pdfrwt>
<totfact> 0.19411975E+02</totfact>
</mgrwt>
</event>
<event>
 4    1  0.1714834E-005  0.7760832E+03  0.7818608E-02  0.9595296E-01
         -2   -1    0    0    0  501 -0.00000000000E+00  0.00000000000E+00  0.12843739801E+04  0.12843739801E+04  0.25500000000E-02 0. -1.
          2   -1    0    0  501    0  0.00000000000E+00 -0.00000000000E+00 -0.11723709756E+03  0.11723709759E+03  0.25500000000E-02 0.  1.
   -5000001    1    1    2    0    0  0.27106194626E+03 -0.11492417920E+03  0.65100124048E+03  0.75695756868E+03  0.25000000000E+03 0.  0.
    5000001    1    1    2    0    0 -0.27106194626E+03  0.11492417920E+03  0.51613564207E+03  0.64465350902E+03  0.25000000000E+03 0.  0.
<mgrwt>
<rscale>  0 0.77608319E+03</rscale>
<asrwt>0</asrwt>
<pdfrwt beam="1">  1        2 0.18036478E-01 0.77608319E+03</pdfrwt>
<pdfrwt beam="2">  1       -2 0.19759598E+00 0.77608319E+03</pdfrwt>
<totfact> 0.44969621E+01</totfact>
</mgrwt>
</event>
<event>
 4    1  0.1714834E-005  0.6607277E+03  0.7818608E-02  0.9786855E-01
          2   -1    0    0  501    0  0.00000000000E+00  0.00000000000E+00  0.30479561331E+03  0.30479561332E+03  0.25500000000E-02 0. -1.
         -2   -1    0    0    0  501 -0.00000000000E+00 -0.00000000000E+00 -0.35807691235E+03  0.35807691236E+03  0.25500000000E-02 0.  1.
   -5000001    1    1    2    0    0 -0.42535933199E+02  0.21041115358E+03 -0.29395464126E+01  0.32953118228E+03  0.25000000000E+03 0.  0.
    5000001    1    1    2    0    0  0.42535933199E+02 -0.21041115358E+03 -0.50341752626E+02  0.33334134340E+03  0.25000000000E+03 0.  0.
<mgrwt>
<rscale>  0 0.66072770E+03</rscale>
<asrwt>0</asrwt>
<pdfrwt beam="1">  1        2 0.46891633E-01 0.66072770E+03</pdfrwt>
<pdfrwt beam="2">  1       -2 0.55088756E-01 0.66072770E+03</pdfrwt>
<totfact> 0.33747507E+02</totfact>
</mgrwt>
</event>
<event>
 4    1  0.1714834E-005  0.7059784E+03  0.7818608E-02  0.9707063E-01
         -2   -1    0    0    0  501 -0.00000000000E+00  0.00000000000E+00  0.20162671641E+03  0.20162671643E+03  0.25500000000E-02 0. -1.
          2   -1    0    0  501    0  0.00000000000E+00 -0.00000000000E+00 -0.61798045550E+03  0.61798045550E+03  0.25500000000E-02 0.  1.
   -5000001    1    1    2    0    0  0.16993248097E+03 -0.15022213797E+03 -0.88325033921E+02  0.34891983384E+03  0.25000000000E+03 0.  0.
    5000001    1    1    2    0    0 -0.16993248097E+03  0.15022213797E+03 -0.32802870516E+03  0.47068733809E+03  0.25000000000E+03 0.  0.
<mgrwt>
<rscale>  0 0.70597839E+03</rscale>
<asrwt>0</asrwt>
<pdfrwt beam="1">  1        2 0.95073916E-01 0.70597839E+03</pdfrwt>
<pdfrwt beam="2">  1       -2 0.31019495E-01 0.70597839E+03</pdfrwt>
<totfact> 0.46370335E+02</totfact>
</mgrwt>
</event>
<event>
 4    1  0.1714834E-005  0.9433342E+03  0.7818608E-02  0.9372976E-01
         -2   -1    0    0    0  501 -0.00000000000E+00  0.00000000000E+00  0.88065694493E+02  0.88065694530E+02  0.25500000000E-02 0. -1.
          2   -1    0    0  501    0  0.00000000000E+00 -0.00000000000E+00 -0.25261804546E+04  0.25261804546E+04  0.25500000000E-02 0.  1.
   -5000001    1    1    2    0    0  0.61731389045E+02 -0.33074906319E+03 -0.18183478048E+04  0.18660370967E+04  0.25000000000E+03 0.  0.
    5000001    1    1    2    0    0 -0.61731389045E+02  0.33074906319E+03 -0.61976695533E+03  0.74820905241E+03  0.25000000000E+03 0.  0.
<mgrwt>
<rscale>  0 0.94333416E+03</rscale>
<asrwt>0</asrwt>
<pdfrwt beam="1">  1        2 0.38864309E+00 0.94333416E+03</pdfrwt>
<pdfrwt beam="2">  1       -2 0.13548570E-01 0.94333416E+03</pdfrwt>
<totfact> 0.14248216E+02</totfact>
</mgrwt>
</event>
<event>
 4    1  0.1714834E-005  0.8004291E+03  0.7818608E-02  0.9559396E-01
         -2   -1    0    0    0  501 -0.00000000000E+00  0.00000000000E+00  0.90899338569E+03  0.90899338570E+03  0.25500000000E-02 0. -1.
          2   -1    0    0  501    0  0.00000000000E+00 -0.00000000000E+00 -0.17620774855E+03  0.17620774857E+03  0.25500000000E-02 0.  1.
   -5000001    1    1    2    0    0 -0.99329676958E+01  0.14921072270E+03  0.73845139824E+03  0.79383434744E+03  0.25000000000E+03 0.  0.
    5000001    1    1    2    0    0  0.99329676958E+01 -0.14921072270E+03 -0.56657610967E+01  0.29136678682E+03  0.25000000000E+03 0.  0.
<mgrwt>
<rscale>  0 0.80042908E+03</rscale>
<asrwt>0</asrwt>
<pdfrwt beam="1">  1        2 0.27108884E-01 0.80042908E+03</pdfrwt>
<pdfrwt beam="2">  1       -2 0.13984514E+00 0.80042908E+03</pdfrwt>
<totfact> 0.72498104E+01</totfact>
</mgrwt>
</event>
<event>
 4    1  0.1714834E-005  0.8809251E+03  0.7818608E-02  0.9449745E-01
         -2   -1    0    0    0  501 -0.00000000000E+00  0.00000000000E+00  0.23452064211E+03  0.23452064212E+03  0.25500000000E-02 0. -1.
          2   -1    0    0  501    0  0.00000000000E+00 -0.00000000000E+00 -0.82725026793E+03  0.82725026793E+03  0.25500000000E-02 0.  1.
   -5000001    1    1    2    0    0  0.24770298352E+03 -0.89620976532E+02  0.40370205427E+01  0.36318725888E+03  0.25000000000E+03 0.  0.
    5000001    1    1    2    0    0 -0.24770298352E+03  0.89620976532E+02 -0.59676664636E+03  0.69858365117E+03  0.25000000000E+03 0.  0.
<mgrwt>
<rscale>  0 0.88092511E+03</rscale>
<asrwt>0</asrwt>
<pdfrwt beam="1">  1        2 0.12726927E+00 0.88092511E+03</pdfrwt>
<pdfrwt beam="2">  1       -2 0.36080099E-01 0.88092511E+03</pdfrwt>
<totfact> 0.23858159E+02</totfact>
</mgrwt>
</event>
<event>
 4    1  0.1714834E-005  0.1145985E+04  0.7818608E-02  0.9161496E-01
         -2   -1    0    0    0  501 -0.00000000000E+00  0.00000000000E+00  0.20788278699E+03  0.20788278701E+03  0.25500000000E-02 0. -1.
          2   -1    0    0  501    0  0.00000000000E+00 -0.00000000000E+00 -0.15793521135E+04  0.15793521135E+04  0.25500000000E-02 0.  1.
   -5000001    1    1    2    0    0  0.38909887800E+03  0.24842310740E+03 -0.10437830702E+04  0.11683728321E+04  0.25000000000E+03 0.  0.
    5000001    1    1    2    0    0 -0.38909887800E+03 -0.24842310740E+03 -0.32768625630E+03  0.61886206841E+03  0.25000000000E+03 0.  0.
<mgrwt>
<rscale>  0 0.11459845E+04</rscale>
<asrwt>0</asrwt>
<pdfrwt beam="1">  1        2 0.24297724E+00 0.11459845E+04</pdfrwt>
<pdfrwt beam="2">  1       -2 0.31981968E-01 0.11459845E+04</pdfrwt>
<totfact> 0.10306838E+02</totfact>
</mgrwt>
</event>
<event>
 4    1  0.1714834E-005  0.7231332E+03  0.7818608E-02  0.9678469E-01
         -2   -1    0    0    0  501 -0.00000000000E+00  0.00000000000E+00  0.57915895197E+03  0.57915895198E+03  0.25500000000E-02 0. -1.
          2   -1    0    0  501    0  0.00000000000E+00 -0.00000000000E+00 -0.22572460125E+03  0.22572460127E+03  0.25500000000E-02 0.  1.
   -5000001    1    1    2    0    0  0.53266552375E+00  0.20161348829E+03 -0.81367646071E+01  0.32127011895E+03  0.25000000000E+03 0.  0.
    5000001    1    1    2    0    0 -0.53266552375E+00 -0.20161348829E+03  0.36157111533E+03  0.48361343430E+03  0.25000000000E+03 0.  0.
<mgrwt>
<rscale>  0 0.72313325E+03</rscale>
<asrwt>0</asrwt>
<pdfrwt beam="1">  1        2 0.34726863E-01 0.72313325E+03</pdfrwt>
<pdfrwt beam="2">  1       -2 0.89101375E-01 0.72313325E+03</pdfrwt>
<totfact> 0.16477026E+02</totfact>
</mgrwt>
</event>
<event>
 4    1  0.1714834E-005  0.6509086E+03  0.7818608E-02  0.9805076E-01
          2   -1    0    0  501    0  0.00000000000E+00  0.00000000000E+00  0.10616862553E+04  0.10616862553E+04  0.25500000000E-02 0.  1.
         -2   -1    0    0    0  501 -0.00000000000E+00 -0.00000000000E+00 -0.99766284504E+02  0.99766284537E+02  0.25500000000E-02 0. -1.
   -5000001    1    1    2    0    0 -0.21774859384E+02 -0.19455081977E+03  0.35357738195E+03  0.47522745186E+03  0.25000000000E+03 0.  0.
    5000001    1    1    2    0    0  0.21774859384E+02  0.19455081977E+03  0.60834258886E+03  0.68622508800E+03  0.25000000000E+03 0.  0.
<mgrwt>
<rscale>  0 0.65090857E+03</rscale>
<asrwt>0</asrwt>
<pdfrwt beam="1">  1        2 0.16333635E+00 0.65090857E+03</pdfrwt>
<pdfrwt beam="2">  1       -2 0.15348659E-01 0.65090857E+03</pdfrwt>
<totfact> 0.78217131E+02</totfact>
</mgrwt>
</event>
<event>
 4    1  0.1714834E-005  0.5834989E+03  0.7818608E-02  0.9940245E-01
          2   -1    0    0  501    0  0.00000000000E+00  0.00000000000E+00  0.30674962876E+04  0.30674962876E+04  0.25500000000E-02 0.  1.
         -2   -1    0    0    0  501 -0.00000000000E+00 -0.00000000000E+00 -0.27748276696E+02  0.27748276814E+02  0.25500000000E-02 0. -1.
   -5000001    1    1    2    0    0  0.75676691158E+02 -0.12480876603E+03  0.17121289999E+04  0.17364302180E+04  0.25000000000E+03 0.  0.
    5000001    1    1    2    0    0 -0.75676691158E+02  0.12480876603E+03  0.13276190110E+04  0.13588143464E+04  0.25000000000E+03 0.  0.
<mgrwt>
<rscale>  0 0.58349888E+03</rscale>
<asrwt>0</asrwt>
<pdfrwt beam="1">  1        2 0.47192259E+00 0.58349888E+03</pdfrwt>
<pdfrwt beam="2">  1       -2 0.42689649E-02 0.58349888E+03</pdfrwt>
<totfact> 0.44866103E+02</totfact>
</mgrwt>
</event>
<event>
 4    1  0.1714834E-005  0.5870648E+03  0.7818608E-02  0.9932612E-01
         -2   -1    0    0    0  501 -0.00000000000E+00  0.00000000000E+00  0.39354889156E+02  0.39354889239E+02  0.25500000000E-02 0. -1.
          2   -1    0    0  501    0  0.00000000000E+00 -0.00000000000E+00 -0.21893412884E+04  0.21893412884E+04  0.25500000000E-02 0.  1.
   -5000001    1    1    2    0    0 -0.80520534735E+02 -0.12012616831E+03 -0.87600460324E+03  0.92238707586E+03  0.25000000000E+03 0.  0.
    5000001    1    1    2    0    0  0.80520534735E+02  0.12012616831E+03 -0.12739817960E+04  0.13063091018E+04  0.25000000000E+03 0.  0.
<mgrwt>
<rscale>  0 0.58706485E+03</rscale>
<asrwt>0</asrwt>
<pdfrwt beam="1">  1        2 0.33682164E+00 0.58706485E+03</pdfrwt>
<pdfrwt beam="2">  1       -2 0.60546000E-02 0.58706485E+03</pdfrwt>
<totfact> 0.83374314E+02</totfact>
</mgrwt>
</event>
<event>
 4    1  0.1714834E-005  0.7633365E+03  0.7818608E-02  0.9614657E-01
          2   -1    0    0  501    0  0.00000000000E+00  0.00000000000E+00  0.17443793593E+04  0.17443793593E+04  0.25500000000E-02 0.  1.
         -2   -1    0    0    0  501 -0.00000000000E+00 -0.00000000000E+00 -0.83508585071E+02  0.83508585110E+02  0.25500000000E-02 0. -1.
   -5000001    1    1    2    0    0  0.18464005887E+03  0.15002689053E+03  0.44010308725E+03  0.55927698560E+03  0.25000000000E+03 0.  0.
    5000001    1    1    2    0    0 -0.18464005887E+03 -0.15002689053E+03  0.12207676870E+04  0.12686109588E+04  0.25000000000E+03 0.  0.
<mgrwt>
<rscale>  0 0.76333650E+03</rscale>
<asrwt>0</asrwt>
<pdfrwt beam="1">  1        2 0.26836604E+00 0.76333650E+03</pdfrwt>
<pdfrwt beam="2">  1       -2 0.12847475E-01 0.76333650E+03</pdfrwt>
<totfact> 0.42802015E+02</totfact>
</mgrwt>
</event>
<event>
 4    1  0.1714834E-005  0.6293017E+03  0.7818608E-02  0.9846412E-01
          2   -1    0    0  501    0  0.00000000000E+00  0.00000000000E+00  0.67328760470E+03  0.67328760470E+03  0.25500000000E-02 0.  1.
         -2   -1    0    0    0  501 -0.00000000000E+00 -0.00000000000E+00 -0.14704734817E+03  0.14704734819E+03  0.25500000000E-02 0. -1.
   -5000001    1    1    2    0    0 -0.14339657433E+03  0.88776742014E+02  0.38016005194E+03  0.48524792894E+03  0.25000000000E+03 0.  0.
    5000001    1    1    2    0    0  0.14339657433E+03 -0.88776742014E+02  0.14608020458E+03  0.33508702395E+03  0.25000000000E+03 0.  0.
<mgrwt>
<rscale>  0 0.62930170E+03</rscale>
<asrwt>0</asrwt>
<pdfrwt beam="1">  1        2 0.10358271E+00 0.62930170E+03</pdfrwt>
<pdfrwt beam="2">  1       -2 0.22622669E-01 0.62930170E+03</pdfrwt>
<totfact> 0.74223028E+02</totfact>
</mgrwt>
</event>
<event>
 4    1  0.1714834E-005  0.5922443E+03  0.7818608E-02  0.9921629E-01
         -2   -1    0    0    0  501 -0.00000000000E+00  0.00000000000E+00  0.53967906569E+02  0.53967906629E+02  0.25500000000E-02 0.  1.
          2   -1    0    0  501    0  0.00000000000E+00 -0.00000000000E+00 -0.16248234737E+04  0.16248234737E+04  0.25500000000E-02 0. -1.
   -5000001    1    1    2    0    0 -0.10637844853E+03  0.11257810689E+03 -0.88354505735E+03  0.93120463531E+03  0.25000000000E+03 0.  0.
    5000001    1    1    2    0    0  0.10637844853E+03 -0.11257810689E+03 -0.68731050975E+03  0.74758674498E+03  0.25000000000E+03 0.  0.
<mgrwt>
<rscale>  0 0.59224428E+03</rscale>
<asrwt>0</asrwt>
<pdfrwt beam="1">  1        2 0.24997280E+00 0.59224428E+03</pdfrwt>
<pdfrwt beam="2">  1       -2 0.83027561E-02 0.59224428E+03</pdfrwt>
<totfact> 0.10236062E+03</totfact>
</mgrwt>
</event>
<event>
 4    1  0.1714834E-005  0.8210307E+03  0.7818608E-02  0.9530065E-01
         -2   -1    0    0    0  501 -0.00000000000E+00  0.00000000000E+00  0.78918153594E+03  0.78918153594E+03  0.25500000000E-02 0. -1.
          2   -1    0    0  501    0  0.00000000000E+00 -0.00000000000E+00 -0.21354130698E+03  0.21354130699E+03  0.25500000000E-02 0.  1.
   -5000001    1    1    2    0    0  0.32339163978E+03 -0.12328473285E+02  0.33166304363E+03  0.52653064340E+03  0.25000000000E+03 0.  0.
    5000001    1    1    2    0    0 -0.32339163978E+03  0.12328473285E+02  0.24397718533E+03  0.47619219953E+03  0.25000000000E+03 0.  0.
<mgrwt>
<rscale>  0 0.82103071E+03</rscale>
<asrwt>0</asrwt>
<pdfrwt beam="1">  1        2 0.32852509E-01 0.82103071E+03</pdfrwt>
<pdfrwt beam="2">  1       -2 0.12141254E+00 0.82103071E+03</pdfrwt>
<totfact> 0.83366166E+01</totfact>
</mgrwt>
</event>
<event>
 4    1  0.1714834E-005  0.1406610E+04  0.7818608E-02  0.8949048E-01
          2   -1    0    0  501    0  0.00000000000E+00  0.00000000000E+00  0.13279706692E+04  0.13279706692E+04  0.25500000000E-02 0.  1.
         -2   -1    0    0    0  501 -0.00000000000E+00 -0.00000000000E+00 -0.37247639763E+03  0.37247639764E+03  0.25500000000E-02 0. -1.
   -5000001    1    1    2    0    0  0.55513862188E+03  0.21076069666E+03  0.13680636620E+03  0.65864629551E+03  0.25000000000E+03 0.  0.
    5000001    1    1    2    0    0 -0.55513862188E+03 -0.21076069666E+03  0.81868790537E+03  0.10418007713E+04  0.25000000000E+03 0.  0.
<mgrwt>
<rscale>  0 0.14066097E+04</rscale>
<asrwt>0</asrwt>
<pdfrwt beam="1">  1        2 0.20430318E+00 0.14066097E+04</pdfrwt>
<pdfrwt beam="2">  1       -2 0.57304060E-01 0.14066097E+04</pdfrwt>
<totfact> 0.44196124E+01</totfact>
</mgrwt>
</event>
<event>
 4    1  0.1714834E-005  0.6404563E+03  0.7818608E-02  0.9824854E-01
          2   -1    0    0  501    0  0.00000000000E+00  0.00000000000E+00  0.33248912822E+04  0.33248912822E+04  0.25500000000E-02 0. -1.
         -2   -1    0    0    0  501 -0.00000000000E+00 -0.00000000000E+00 -0.30841929048E+02  0.30841929154E+02  0.25500000000E-02 0.  1.
   -5000001    1    1    2    0    0  0.16392945727E+03 -0.10639915574E+03  0.18725352729E+04  0.18992319488E+04  0.25000000000E+03 0.  0.
    5000001    1    1    2    0    0 -0.16392945727E+03  0.10639915574E+03  0.14215140803E+04  0.14565012625E+04  0.25000000000E+03 0.  0.
<mgrwt>
<rscale>  0 0.64045628E+03</rscale>
<asrwt>0</asrwt>
<pdfrwt beam="1">  1        2 0.51152142E+00 0.64045628E+03</pdfrwt>
<pdfrwt beam="2">  1       -2 0.47449151E-02 0.64045628E+03</pdfrwt>
<totfact> 0.26007948E+02</totfact>
</mgrwt>
</event>
<event>
 4    1  0.1714834E-005  0.5817822E+03  0.7818608E-02  0.9943940E-01
         -2   -1    0    0    0  501 -0.00000000000E+00  0.00000000000E+00  0.58095258731E+02  0.58095258787E+02  0.25500000000E-02 0. -1.
          2   -1    0    0  501    0  0.00000000000E+00 -0.00000000000E+00 -0.14565322833E+04  0.14565322833E+04  0.25500000000E-02 0.  1.
   -5000001    1    1    2    0    0 -0.12847653738E+03  0.32041543564E+02 -0.87549839246E+03  0.92007082139E+03  0.25000000000E+03 0.  0.
    5000001    1    1    2    0    0  0.12847653738E+03 -0.32041543564E+02 -0.52293863206E+03  0.59455672065E+03  0.25000000000E+03 0.  0.
<mgrwt>
<rscale>  0 0.58178216E+03</rscale>
<asrwt>0</asrwt>
<pdfrwt beam="1">  1        2 0.22408186E+00 0.58178216E+03</pdfrwt>
<pdfrwt beam="2">  1       -2 0.89377332E-02 0.58178216E+03</pdfrwt>
<totfact> 0.11261570E+03</totfact>
</mgrwt>
</event>
<event>
 4    1  0.1714834E-005  0.7678904E+03  0.7818608E-02  0.9607694E-01
         -2   -1    0    0    0  501 -0.00000000000E+00  0.00000000000E+00  0.17001807581E+03  0.17001807582E+03  0.25500000000E-02 0. -1.
          2   -1    0    0  501    0  0.00000000000E+00 -0.00000000000E+00 -0.86704851179E+03  0.86704851180E+03  0.25500000000E-02 0.  1.
   -5000001    1    1    2    0    0 -0.26308687508E+03 -0.75669576099E+02 -0.48338899412E+03  0.60918429742E+03  0.25000000000E+03 0.  0.
    5000001    1    1    2    0    0  0.26308687508E+03  0.75669576099E+02 -0.21364144186E+03  0.42788229020E+03  0.25000000000E+03 0.  0.
<mgrwt>
<rscale>  0 0.76789041E+03</rscale>
<asrwt>0</asrwt>
<pdfrwt beam="1">  1        2 0.13339208E+00 0.76789041E+03</pdfrwt>
<pdfrwt beam="2">  1       -2 0.26156628E-01 0.76789041E+03</pdfrwt>
<totfact> 0.40984218E+02</totfact>
</mgrwt>
</event>
<event>
 4    1  0.1714834E-005  0.8853313E+03  0.7818608E-02  0.9444106E-01
         -2   -1    0    0    0  501 -0.00000000000E+00  0.00000000000E+00  0.36298741476E+03  0.36298741477E+03  0.25500000000E-02 0. -1.
          2   -1    0    0  501    0  0.00000000000E+00 -0.00000000000E+00 -0.53983375889E+03  0.53983375890E+03  0.25500000000E-02 0.  1.
   -5000001    1    1    2    0    0 -0.25390906415E+03  0.18771434115E+03  0.98907759542E+02  0.41471584444E+03  0.25000000000E+03 0.  0.
    5000001    1    1    2    0    0  0.25390906415E+03 -0.18771434115E+03 -0.27575410367E+03  0.48810532923E+03  0.25000000000E+03 0.  0.
<mgrwt>
<rscale>  0 0.88533126E+03</rscale>
<asrwt>0</asrwt>
<pdfrwt beam="1">  1        2 0.83051347E-01 0.88533126E+03</pdfrwt>
<pdfrwt beam="2">  1       -2 0.55844218E-01 0.88533126E+03</pdfrwt>
<totfact> 0.17024504E+02</totfact>
</mgrwt>
</event>
<event>
 4    1  0.1714834E-005  0.8821281E+03  0.7818608E-02  0.9448202E-01
         -2   -1    0    0    0  501 -0.00000000000E+00  0.00000000000E+00  0.23072632327E+03  0.23072632328E+03  0.25500000000E-02 0. -1.
          2   -1    0    0  501    0  0.00000000000E+00 -0.00000000000E+00 -0.84315254247E+03  0.84315254248E+03  0.25500000000E-02 0.  1.
   -5000001    1    1    2    0    0  0.34876303643E+03 -0.82776618667E+02 -0.37874506404E+03  0.57830394060E+03  0.25000000000E+03 0.  0.
    5000001    1    1    2    0    0 -0.34876303643E+03  0.82776618667E+02 -0.23368115516E+03  0.49557492516E+03  0.25000000000E+03 0.  0.
<mgrwt>
<rscale>  0 0.88212808E+03</rscale>
<asrwt>0</asrwt>
<pdfrwt beam="1">  1        2 0.12971577E+00 0.88212808E+03</pdfrwt>
<pdfrwt beam="2">  1       -2 0.35496358E-01 0.88212808E+03</pdfrwt>
<totfact> 0.23987131E+02</totfact>
</mgrwt>
</event>
<event>
 4    1  0.1714834E-005  0.1027823E+04  0.7818608E-02  0.9278544E-01
          2   -1    0    0  501    0  0.00000000000E+00  0.00000000000E+00  0.63786236916E+03  0.63786236916E+03  0.25500000000E-02 0.  1.
         -2   -1    0    0    0  501 -0.00000000000E+00 -0.00000000000E+00 -0.41404720805E+03  0.41404720806E+03  0.25500000000E-02 0. -1.
   -5000001    1    1    2    0    0 -0.13835741276E+03  0.11479647269E+03  0.53299097430E+03  0.61554884655E+03  0.25000000000E+03 0.  0.
    5000001    1    1    2    0    0  0.13835741276E+03 -0.11479647269E+03 -0.30917581319E+03  0.43636073067E+03  0.25000000000E+03 0.  0.
<mgrwt>
<rscale>  0 0.10278232E+04</rscale>
<asrwt>0</asrwt>
<pdfrwt beam="1">  1        2 0.98132672E-01 0.10278232E+04</pdfrwt>
<pdfrwt beam="2">  1       -2 0.63699570E-01 0.10278232E+04</pdfrwt>
<totfact> 0.10467485E+02</totfact>
</mgrwt>
</event>
<event>
 4    1  0.1714834E-005  0.6125753E+03  0.7818608E-02  0.9879654E-01
         -2   -1    0    0    0  501 -0.00000000000E+00  0.00000000000E+00  0.55284987582E+03  0.55284987582E+03  0.25500000000E-02 0. -1.
          2   -1    0    0  501    0  0.00000000000E+00 -0.00000000000E+00 -0.16968822333E+03  0.16968822335E+03  0.25500000000E-02 0.  1.
   -5000001    1    1    2    0    0 -0.84648630040E+02 -0.12310402523E+03  0.30342989767E+03  0.42058256549E+03  0.25000000000E+03 0.  0.
    5000001    1    1    2    0    0  0.84648630040E+02  0.12310402523E+03  0.79731754813E+02  0.30195553368E+03  0.25000000000E+03 0.  0.
<mgrwt>
<rscale>  0 0.61257526E+03</rscale>
<asrwt>0</asrwt>
<pdfrwt beam="1">  1        2 0.26105881E-01 0.61257526E+03</pdfrwt>
<pdfrwt beam="2">  1       -2 0.85053827E-01 0.61257526E+03</pdfrwt>
<totfact> 0.25369515E+02</totfact>
</mgrwt>
</event>
<event>
 4    1  0.1714834E-005  0.5674999E+03  0.7818608E-02  0.9975226E-01
          2   -1    0    0  501    0  0.00000000000E+00  0.00000000000E+00  0.31840492938E+04  0.31840492938E+04  0.25500000000E-02 0.  1.
         -2   -1    0    0    0  501 -0.00000000000E+00 -0.00000000000E+00 -0.25286676828E+02  0.25286676957E+02  0.25500000000E-02 0. -1.
   -5000001    1    1    2    0    0  0.10520317996E+03  0.82560970504E+02  0.15149012031E+04  0.15412039703E+04  0.25000000000E+03 0.  0.
    5000001    1    1    2    0    0 -0.10520317996E+03 -0.82560970504E+02  0.16438614139E+04  0.16681320004E+04  0.25000000000E+03 0.  0.
<mgrwt>
<rscale>  0 0.56749987E+03</rscale>
<asrwt>0</asrwt>
<pdfrwt beam="1">  1        2 0.48985379E+00 0.56749987E+03</pdfrwt>
<pdfrwt beam="2">  1       -2 0.38902576E-02 0.56749987E+03</pdfrwt>
<totfact> 0.43875235E+02</totfact>
</mgrwt>
</event>
<event>
 4    1  0.1714834E-005  0.6647124E+03  0.7818608E-02  0.9779557E-01
          2   -1    0    0  501    0  0.00000000000E+00  0.00000000000E+00  0.62151243917E+03  0.62151243917E+03  0.25500000000E-02 0.  1.
         -2   -1    0    0    0  501 -0.00000000000E+00 -0.00000000000E+00 -0.17772876951E+03  0.17772876953E+03  0.25500000000E-02 0. -1.
   -5000001    1    1    2    0    0  0.85322875437E+02 -0.14754699300E+03  0.38723870388E+03  0.49143048542E+03  0.25000000000E+03 0.  0.
    5000001    1    1    2    0    0 -0.85322875437E+02  0.14754699300E+03  0.56544965780E+02  0.30781072329E+03  0.25000000000E+03 0.  0.
<mgrwt>
<rscale>  0 0.66471239E+03</rscale>
<asrwt>0</asrwt>
<pdfrwt beam="1">  1        2 0.95617299E-01 0.66471239E+03</pdfrwt>
<pdfrwt beam="2">  1       -2 0.27342888E-01 0.66471239E+03</pdfrwt>
<totfact> 0.58181762E+02</totfact>
</mgrwt>
</event>
<event>
 4    1  0.1714834E-005  0.8549810E+03  0.7818608E-02  0.9483676E-01
         -2   -1    0    0    0  501 -0.00000000000E+00  0.00000000000E+00  0.91033716365E+02  0.91033716401E+02  0.25500000000E-02 0. -1.
          2   -1    0    0  501    0  0.00000000000E+00 -0.00000000000E+00 -0.20074775824E+04  0.20074775824E+04  0.25500000000E-02 0.  1.
   -5000001    1    1    2    0    0 -0.33428307166E+03 -0.92132616002E+02 -0.96758558512E+03  0.10578069084E+04  0.25000000000E+03 0.  0.
    5000001    1    1    2    0    0  0.33428307166E+03  0.92132616002E+02 -0.94885828087E+03  0.10407043904E+04  0.25000000000E+03 0.  0.
<mgrwt>
<rscale>  0 0.85498104E+03</rscale>
<asrwt>0</asrwt>
<pdfrwt beam="1">  1        2 0.30884267E+00 0.85498104E+03</pdfrwt>
<pdfrwt beam="2">  1       -2 0.14005189E-01 0.85498104E+03</pdfrwt>
<totfact> 0.26433751E+02</totfact>
</mgrwt>
</event>
<event>
 4    1  0.1714834E-005  0.1085277E+04  0.7818608E-02  0.9219662E-01
         -2   -1    0    0    0  501 -0.00000000000E+00  0.00000000000E+00  0.20420345812E+03  0.20420345813E+03  0.25500000000E-02 0. -1.
          2   -1    0    0  501    0  0.00000000000E+00 -0.00000000000E+00 -0.14419755077E+04  0.14419755077E+04  0.25500000000E-02 0.  1.
   -5000001    1    1    2    0    0  0.36868222754E+03 -0.19268388974E+03 -0.25075346096E+03  0.54628835285E+03  0.25000000000E+03 0.  0.
    5000001    1    1    2    0    0 -0.36868222754E+03  0.19268388974E+03 -0.98701858864E+03  0.10998906130E+04  0.25000000000E+03 0.  0.
<mgrwt>
<rscale>  0 0.10852767E+04</rscale>
<asrwt>0</asrwt>
<pdfrwt beam="1">  1        2 0.22184238E+00 0.10852767E+04</pdfrwt>
<pdfrwt beam="2">  1       -2 0.31415918E-01 0.10852767E+04</pdfrwt>
<totfact> 0.12786009E+02</totfact>
</mgrwt>
</event>
<event>
 4    1  0.1714834E-005  0.9074175E+03  0.7818608E-02  0.9416356E-01
          2   -1    0    0  501    0  0.00000000000E+00  0.00000000000E+00  0.31130590438E+03  0.31130590439E+03  0.25500000000E-02 0.  1.
         -2   -1    0    0    0  501 -0.00000000000E+00 -0.00000000000E+00 -0.66125195622E+03  0.66125195623E+03  0.25500000000E-02 0. -1.
   -5000001    1    1    2    0    0  0.19508810411E+03 -0.31231211053E+03 -0.26934755948E+03  0.52023680238E+03  0.25000000000E+03 0.  0.
    5000001    1    1    2    0    0 -0.19508810411E+03  0.31231211053E+03 -0.80598492367E+02  0.45232105824E+03  0.25000000000E+03 0.  0.
<mgrwt>
<rscale>  0 0.90741752E+03</rscale>
<asrwt>0</asrwt>
<pdfrwt beam="1">  1        2 0.47893216E-01 0.90741752E+03</pdfrwt>
<pdfrwt beam="2">  1       -2 0.10173107E+00 0.90741752E+03</pdfrwt>
<totfact> 0.83785379E+01</totfact>
</mgrwt>
</event>
<event>
 4    1  0.1714834E-005  0.6899853E+03  0.7818608E-02  0.9734514E-01
         -2   -1    0    0    0  501 -0.00000000000E+00  0.00000000000E+00  0.17854224350E+03  0.17854224352E+03  0.25500000000E-02 0. -1.
          2   -1    0    0  501    0  0.00000000000E+00 -0.00000000000E+00 -0.66662061003E+03  0.66662061004E+03  0.25500000000E-02 0.  1.
   -5000001    1    1    2    0    0 -0.20040883117E+03  0.47285729521E+01 -0.87492011162E+02  0.33217602417E+03  0.25000000000E+03 0.  0.
    5000001    1    1    2    0    0  0.20040883117E+03 -0.47285729521E+01 -0.40058635537E+03  0.51298682939E+03  0.25000000000E+03 0.  0.
<mgrwt>
<rscale>  0 0.68998533E+03</rscale>
<asrwt>0</asrwt>
<pdfrwt beam="1">  1        2 0.10255702E+00 0.68998533E+03</pdfrwt>
<pdfrwt beam="2">  1       -2 0.27468038E-01 0.68998533E+03</pdfrwt>
<totfact> 0.52910587E+02</totfact>
</mgrwt>
</event>
<event>
 4    1  0.1714834E-005  0.1016492E+04  0.7818608E-02  0.9290640E-01
         -2   -1    0    0    0  501 -0.00000000000E+00  0.00000000000E+00  0.85166571151E+02  0.85166571189E+02  0.25500000000E-02 0. -1.
          2   -1    0    0  501    0  0.00000000000E+00 -0.00000000000E+00 -0.30330427853E+04  0.30330427853E+04  0.25500000000E-02 0.  1.
   -5000001    1    1    2    0    0 -0.20948359202E+03 -0.21561621854E+03 -0.24700414129E+04  0.25007955356E+04  0.25000000000E+03 0.  0.
    5000001    1    1    2    0    0  0.20948359202E+03  0.21561621854E+03 -0.47783480118E+03  0.61741382090E+03  0.25000000000E+03 0.  0.
<mgrwt>
<rscale>  0 0.10164917E+04</rscale>
<asrwt>0</asrwt>
<pdfrwt beam="1">  1        2 0.46662188E+00 0.10164917E+04</pdfrwt>
<pdfrwt beam="2">  1       -2 0.13102552E-01 0.10164917E+04</pdfrwt>
<totfact> 0.74772505E+01</totfact>
</mgrwt>
</event>
<event>
 4    1  0.1714834E-005  0.6231922E+03  0.7818608E-02  0.9858424E-01
         -2   -1    0    0    0  501 -0.00000000000E+00  0.00000000000E+00  0.22278700240E+03  0.22278700242E+03  0.25500000000E-02 0. -1.
          2   -1    0    0  501    0  0.00000000000E+00 -0.00000000000E+00 -0.43580699537E+03  0.43580699538E+03  0.25500000000E-02 0.  1.
   -5000001    1    1    2    0    0  0.10206084269E+03 -0.15402612773E+03 -0.12896983407E+03  0.33656155712E+03  0.25000000000E+03 0.  0.
    5000001    1    1    2    0    0 -0.10206084269E+03  0.15402612773E+03 -0.84050158908E+02  0.32203244067E+03  0.25000000000E+03 0.  0.
<mgrwt>
<rscale>  0 0.62319221E+03</rscale>
<asrwt>0</asrwt>
<pdfrwt beam="1">  1        2 0.67047230E-01 0.62319221E+03</pdfrwt>
<pdfrwt beam="2">  1       -2 0.34274923E-01 0.62319221E+03</pdfrwt>
<totfact> 0.57915114E+02</totfact>
</mgrwt>
</event>
<event>
 4    1  0.1714834E-005  0.8364033E+03  0.7818608E-02  0.9508770E-01
          2   -1    0    0  501    0  0.00000000000E+00  0.00000000000E+00  0.64228742141E+03  0.64228742142E+03  0.25500000000E-02 0.  1.
         -2   -1    0    0    0  501 -0.00000000000E+00 -0.00000000000E+00 -0.27229651051E+03  0.27229651052E+03  0.25500000000E-02 0. -1.
   -5000001    1    1    2    0    0  0.27108171165E+03 -0.16929230053E+03  0.29568730607E+03  0.50207186775E+03  0.25000000000E+03 0.  0.
    5000001    1    1    2    0    0 -0.27108171165E+03  0.16929230053E+03  0.74303604827E+02  0.41251206419E+03  0.25000000000E+03 0.  0.
<mgrwt>
<rscale>  0 0.83640331E+03</rscale>
<asrwt>0</asrwt>
<pdfrwt beam="1">  1        2 0.98813448E-01 0.83640331E+03</pdfrwt>
<pdfrwt beam="2">  1       -2 0.41891771E-01 0.83640331E+03</pdfrwt>
<totfact> 0.24764291E+02</totfact>
</mgrwt>
</event>
<event>
 4    1  0.1714834E-005  0.7126898E+03  0.7818608E-02  0.9695774E-01
         -2   -1    0    0    0  501 -0.00000000000E+00  0.00000000000E+00  0.14818562781E+03  0.14818562784E+03  0.25500000000E-02 0. -1.
          2   -1    0    0  501    0  0.00000000000E+00 -0.00000000000E+00 -0.85690958626E+03  0.85690958627E+03  0.25500000000E-02 0.  1.
   -5000001    1    1    2    0    0 -0.74322539155E+02  0.24219835735E+03 -0.33002483193E+03  0.48538672604E+03  0.25000000000E+03 0.  0.
    5000001    1    1    2    0    0  0.74322539155E+02 -0.24219835735E+03 -0.37869912653E+03  0.51970848806E+03  0.25000000000E+03 0.  0.
<mgrwt>
<rscale>  0 0.71268979E+03</rscale>
<asrwt>0</asrwt>
<pdfrwt beam="1">  1        2 0.13183224E+00 0.71268979E+03</pdfrwt>
<pdfrwt beam="2">  1       -2 0.22797789E-01 0.71268979E+03</pdfrwt>
<totfact> 0.53430560E+02</totfact>
</mgrwt>
</event>
<event>
 4    1  0.1714834E-005  0.5892411E+03  0.7818608E-02  0.9927982E-01
         -2   -1    0    0    0  501 -0.00000000000E+00  0.00000000000E+00  0.18135202343E+03  0.18135202345E+03  0.25500000000E-02 0. -1.
          2   -1    0    0  501    0  0.00000000000E+00 -0.00000000000E+00 -0.47863410853E+03  0.47863410854E+03  0.25500000000E-02 0.  1.
   -5000001    1    1    2    0    0 -0.76878552005E+02 -0.10216516419E+02  0.28224533459E+01  0.26176832354E+03  0.25000000000E+03 0.  0.
    5000001    1    1    2    0    0  0.76878552005E+02  0.10216516419E+02 -0.30010453845E+03  0.39821780845E+03  0.25000000000E+03 0.  0.
<mgrwt>
<rscale>  0 0.58924109E+03</rscale>
<asrwt>0</asrwt>
<pdfrwt beam="1">  1        2 0.73636016E-01 0.58924109E+03</pdfrwt>
<pdfrwt beam="2">  1       -2 0.27900311E-01 0.58924109E+03</pdfrwt>
<totfact> 0.76354408E+02</totfact>
</mgrwt>
</event>
<event>
 4    1  0.1714834E-005  0.9342751E+03  0.7818608E-02  0.9383722E-01
         -2   -1    0    0    0  501 -0.00000000000E+00  0.00000000000E+00  0.78896784225E+03  0.78896784225E+03  0.25500000000E-02 0. -1.
          2   -1    0    0  501    0  0.00000000000E+00 -0.00000000000E+00 -0.27658603884E+03  0.27658603885E+03  0.25500000000E-02 0.  1.
   -5000001    1    1    2    0    0 -0.14746927398E+03  0.36359196409E+03  0.20819182683E+03  0.50969612504E+03  0.25000000000E+03 0.  0.
    5000001    1    1    2    0    0  0.14746927398E+03 -0.36359196409E+03  0.30418997658E+03  0.55585775606E+03  0.25000000000E+03 0.  0.
<mgrwt>
<rscale>  0 0.93427510E+03</rscale>
<asrwt>0</asrwt>
<pdfrwt beam="1">  1        2 0.42551699E-01 0.93427510E+03</pdfrwt>
<pdfrwt beam="2">  1       -2 0.12137967E+00 0.93427510E+03</pdfrwt>
<totfact> 0.62114193E+01</totfact>
</mgrwt>
</event>
<event>
 4    1  0.1714834E-005  0.8734322E+03  0.7818608E-02  0.9459416E-01
         -2   -1    0    0    0  501 -0.00000000000E+00  0.00000000000E+00  0.10976582582E+03  0.10976582585E+03  0.25500000000E-02 0. -1.
          2   -1    0    0  501    0  0.00000000000E+00 -0.00000000000E+00 -0.17375258618E+04  0.17375258618E+04  0.25500000000E-02 0.  1.
   -5000001    1    1    2    0    0 -0.20274748468E+03  0.21224568266E+03 -0.38009669605E+03  0.54141321622E+03  0.25000000000E+03 0.  0.
    5000001    1    1    2    0    0  0.20274748468E+03 -0.21224568266E+03 -0.12476633400E+04  0.13058784715E+04  0.25000000000E+03 0.  0.
<mgrwt>
<rscale>  0 0.87343222E+03</rscale>
<asrwt>0</asrwt>
<pdfrwt beam="1">  1        2 0.26731165E+00 0.87343222E+03</pdfrwt>
<pdfrwt beam="2">  1       -2 0.16887051E-01 0.87343222E+03</pdfrwt>
<totfact> 0.26996719E+02</totfact>
</mgrwt>
</event>
<event>
 4    1  0.1714834E-005  0.7620396E+03  0.7818608E-02  0.9616649E-01
         -2   -1    0    0    0  501 -0.00000000000E+00  0.00000000000E+00  0.18508665259E+03  0.18508665261E+03  0.25500000000E-02 0. -1.
          2   -1    0    0  501    0  0.00000000000E+00 -0.00000000000E+00 -0.78436821088E+03  0.78436821088E+03  0.25500000000E-02 0.  1.
   -5000001    1    1    2    0    0 -0.28953302499E+02 -0.26549825989E+03 -0.16411601758E+03  0.40095097824E+03  0.25000000000E+03 0.  0.
    5000001    1    1    2    0    0  0.28953302499E+02  0.26549825989E+03 -0.43516554071E+03  0.56850388525E+03  0.25000000000E+03 0.  0.
<mgrwt>
<rscale>  0 0.76203960E+03</rscale>
<asrwt>0</asrwt>
<pdfrwt beam="1">  1        2 0.12067203E+00 0.76203960E+03</pdfrwt>
<pdfrwt beam="2">  1       -2 0.28474870E-01 0.76203960E+03</pdfrwt>
<totfact> 0.40152158E+02</totfact>
</mgrwt>
</event>
<event>
 4    1  0.1714834E-005  0.8920585E+03  0.7818608E-02  0.9435564E-01
          2   -1    0    0  501    0  0.00000000000E+00  0.00000000000E+00  0.15535624371E+04  0.15535624371E+04  0.25500000000E-02 0. -1.
         -2   -1    0    0    0  501 -0.00000000000E+00 -0.00000000000E+00 -0.12805541411E+03  0.12805541414E+03  0.25500000000E-02 0.  1.
   -5000001    1    1    2    0    0  0.14834209600E+03 -0.30319631752E+03  0.42993413477E+03  0.60106301221E+03  0.25000000000E+03 0.  0.
    5000001    1    1    2    0    0 -0.14834209600E+03  0.30319631752E+03  0.99557288818E+03  0.10805548390E+04  0.25000000000E+03 0.  0.
<mgrwt>
<rscale>  0 0.89205848E+03</rscale>
<asrwt>0</asrwt>
<pdfrwt beam="1">  1        2 0.23900960E+00 0.89205848E+03</pdfrwt>
<pdfrwt beam="2">  1       -2 0.19700833E-01 0.89205848E+03</pdfrwt>
<totfact> 0.26081754E+02</totfact>
</mgrwt>
</event>
<event>
 4    1  0.1714834E-005  0.7452667E+03  0.7818608E-02  0.9642806E-01
         -2   -1    0    0    0  501 -0.00000000000E+00  0.00000000000E+00  0.89482502770E+02  0.89482502807E+02  0.25500000000E-02 0. -1.
          2   -1    0    0  501    0  0.00000000000E+00 -0.00000000000E+00 -0.15517627791E+04  0.15517627791E+04  0.25500000000E-02 0.  1.
   -5000001    1    1    2    0    0  0.16621340752E+02  0.19702242887E+03 -0.11562410123E+04  0.11993695782E+04  0.25000000000E+03 0.  0.
    5000001    1    1    2    0    0 -0.16621340752E+02 -0.19702242887E+03 -0.30603926401E+03  0.44187570375E+03  0.25000000000E+03 0.  0.
<mgrwt>
<rscale>  0 0.74526671E+03</rscale>
<asrwt>0</asrwt>
<pdfrwt beam="1">  1        2 0.23873272E+00 0.74526671E+03</pdfrwt>
<pdfrwt beam="2">  1       -2 0.13766540E-01 0.74526671E+03</pdfrwt>
<totfact> 0.48710857E+02</totfact>
</mgrwt>
</event>
<event>
 4    1  0.1714834E-005  0.2637651E+04  0.7818608E-02  0.8355523E-01
         -2   -1    0    0    0  501 -0.00000000000E+00  0.00000000000E+00  0.13139255986E+04  0.13139255986E+04  0.25500000000E-02 0. -1.
          2   -1    0    0  501    0  0.00000000000E+00 -0.00000000000E+00 -0.13237434384E+04  0.13237434385E+04  0.25500000000E-02 0.  1.
   -5000001    1    1    2    0    0  0.76759124494E+03 -0.49843336000E+03 -0.92097653889E+03  0.13222442735E+04  0.25000000000E+03 0.  0.
    5000001    1    1    2    0    0 -0.76759124494E+03  0.49843336000E+03  0.91115869901E+03  0.13154247635E+04  0.25000000000E+03 0.  0.
<mgrwt>
<rscale>  0 0.26376508E+04</rscale>
<asrwt>0</asrwt>
<pdfrwt beam="1">  1        2 0.20365284E+00 0.26376508E+04</pdfrwt>
<pdfrwt beam="2">  1       -2 0.20214240E+00 0.26376508E+04</pdfrwt>
<totfact> 0.18183801E+00</totfact>
</mgrwt>
</event>
<event>
 4    1  0.1714834E-005  0.6563325E+03  0.7818608E-02  0.9794969E-01
          2   -1    0    0  501    0  0.00000000000E+00  0.00000000000E+00  0.12857681256E+03  0.12857681258E+03  0.25500000000E-02 0.  1.
         -2   -1    0    0    0  501 -0.00000000000E+00 -0.00000000000E+00 -0.83757793068E+03  0.83757793068E+03  0.25500000000E-02 0. -1.
   -5000001    1    1    2    0    0 -0.14195106285E+03  0.14233556495E+03 -0.45631266610E+03  0.55779097029E+03  0.25000000000E+03 0.  0.
    5000001    1    1    2    0    0  0.14195106285E+03 -0.14233556495E+03 -0.25268845202E+03  0.40836377297E+03  0.25000000000E+03 0.  0.
<mgrwt>
<rscale>  0 0.65633254E+03</rscale>
<asrwt>0</asrwt>
<pdfrwt beam="1">  1        2 0.19781049E-01 0.65633254E+03</pdfrwt>
<pdfrwt beam="2">  1       -2 0.12885814E+00 0.65633254E+03</pdfrwt>
<totfact> 0.12949303E+02</totfact>
</mgrwt>
</event>
<event>
 4    1  0.1714834E-005  0.1125149E+04  0.7818608E-02  0.9181021E-01
         -2   -1    0    0    0  501 -0.00000000000E+00  0.00000000000E+00  0.15556385439E+03  0.15556385441E+03  0.25500000000E-02 0. -1.
          2   -1    0    0  501    0  0.00000000000E+00 -0.00000000000E+00 -0.20344704840E+04  0.20344704840E+04  0.25500000000E-02 0.  1.
   -5000001    1    1    2    0    0 -0.43369020956E+03 -0.22630772863E+03 -0.11753476698E+04  0.12973991409E+04  0.25000000000E+03 0.  0.
    5000001    1    1    2    0    0  0.43369020956E+03  0.22630772863E+03 -0.70355895981E+03  0.89263519751E+03  0.25000000000E+03 0.  0.
<mgrwt>
<rscale>  0 0.11251490E+04</rscale>
<asrwt>0</asrwt>
<pdfrwt beam="1">  1        2 0.31299544E+00 0.11251490E+04</pdfrwt>
<pdfrwt beam="2">  1       -2 0.23932902E-01 0.11251490E+04</pdfrwt>
<totfact> 0.98603461E+01</totfact>
</mgrwt>
</event>
<event>
 4    1  0.1714834E-005  0.9715174E+03  0.7818608E-02  0.9340348E-01
          2   -1    0    0  501    0  0.00000000000E+00  0.00000000000E+00  0.39186314145E+04  0.39186314145E+04  0.25500000000E-02 0.  1.
         -2   -1    0    0    0  501 -0.00000000000E+00 -0.00000000000E+00 -0.60215285571E+02  0.60215285625E+02  0.25500000000E-02 0. -1.
   -5000001    1    1    2    0    0 -0.31284772884E+03  0.46927887994E+01  0.80338736324E+03  0.89767866139E+03  0.25000000000E+03 0.  0.
    5000001    1    1    2    0    0  0.31284772884E+03 -0.46927887994E+01  0.30550287657E+04  0.30811680388E+04  0.25000000000E+03 0.  0.
<mgrwt>
<rscale>  0 0.97151739E+03</rscale>
<asrwt>0</asrwt>
<pdfrwt beam="1">  1        2 0.60286663E+00 0.97151739E+03</pdfrwt>
<pdfrwt beam="2">  1       -2 0.92638861E-02 0.97151739E+03</pdfrwt>
<totfact> 0.32764112E+01</totfact>
</mgrwt>
</event>
<event>
 4    1  0.1714834E-005  0.5468037E+03  0.7818608E-02  0.1002236E+00
         -2   -1    0    0    0  501 -0.00000000000E+00  0.00000000000E+00  0.43190889594E+02  0.43190889669E+02  0.25500000000E-02 0. -1.
          2   -1    0    0  501    0  0.00000000000E+00 -0.00000000000E+00 -0.17306561603E+04  0.17306561603E+04  0.25500000000E-02 0.  1.
   -5000001    1    1    2    0    0 -0.78649862732E+02  0.77696761889E+02 -0.82719397473E+03  0.87119025450E+03  0.25000000000E+03 0.  0.
    5000001    1    1    2    0    0  0.78649862732E+02 -0.77696761889E+02 -0.86027129594E+03  0.90265679543E+03  0.25000000000E+03 0.  0.
<mgrwt>
<rscale>  0 0.54680373E+03</rscale>
<asrwt>0</asrwt>
<pdfrwt beam="1">  1        2 0.26625474E+00 0.54680373E+03</pdfrwt>
<pdfrwt beam="2">  1       -2 0.66447536E-02 0.54680373E+03</pdfrwt>
<totfact> 0.12794442E+03</totfact>
</mgrwt>
</event>
<event>
 4    1  0.1714834E-005  0.9694232E+03  0.7818608E-02  0.9342732E-01
          2   -1    0    0  501    0  0.00000000000E+00  0.00000000000E+00  0.13116483153E+04  0.13116483153E+04  0.25500000000E-02 0.  1.
         -2   -1    0    0    0  501 -0.00000000000E+00 -0.00000000000E+00 -0.17912220706E+03  0.17912220707E+03  0.25500000000E-02 0. -1.
   -5000001    1    1    2    0    0  0.36654914217E+03  0.18747500791E+03  0.48287861729E+03  0.68203879014E+03  0.25000000000E+03 0.  0.
    5000001    1    1    2    0    0 -0.36654914217E+03 -0.18747500791E+03  0.64964749091E+03  0.80873173220E+03  0.25000000000E+03 0.  0.
<mgrwt>
<rscale>  0 0.96942321E+03</rscale>
<asrwt>0</asrwt>
<pdfrwt beam="1">  1        2 0.20179204E+00 0.96942321E+03</pdfrwt>
<pdfrwt beam="2">  1       -2 0.27557264E-01 0.96942321E+03</pdfrwt>
<totfact> 0.19507301E+02</totfact>
</mgrwt>
</event>
<event>
 4    1  0.1714834E-005  0.7423800E+03  0.7818608E-02  0.9647381E-01
          2   -1    0    0  501    0  0.00000000000E+00  0.00000000000E+00  0.28756234980E+03  0.28756234981E+03  0.25500000000E-02 0.  1.
         -2   -1    0    0    0  501 -0.00000000000E+00 -0.00000000000E+00 -0.47913793102E+03  0.47913793103E+03  0.25500000000E-02 0. -1.
   -5000001    1    1    2    0    0 -0.26389342611E+03 -0.71071333515E+02 -0.70677609072E+02  0.37707585340E+03  0.25000000000E+03 0.  0.
    5000001    1    1    2    0    0  0.26389342611E+03  0.71071333515E+02 -0.12089797215E+03  0.38962442745E+03  0.25000000000E+03 0.  0.
<mgrwt>
<rscale>  0 0.74238004E+03</rscale>
<asrwt>0</asrwt>
<pdfrwt beam="1">  1        2 0.44240361E-01 0.74238004E+03</pdfrwt>
<pdfrwt beam="2">  1       -2 0.73713528E-01 0.74238004E+03</pdfrwt>
<totfact> 0.19272752E+02</totfact>
</mgrwt>
</event>
<event>
 4    1  0.1714834E-005  0.8530481E+03  0.7818608E-02  0.9486255E-01
         -2   -1    0    0    0  501 -0.00000000000E+00  0.00000000000E+00  0.40846998163E+03  0.40846998164E+03  0.25500000000E-02 0. -1.
          2   -1    0    0  501    0  0.00000000000E+00 -0.00000000000E+00 -0.44537608481E+03  0.44537608482E+03  0.25500000000E-02 0.  1.
   -5000001    1    1    2    0    0  0.98479462456E+02 -0.28338116921E+03  0.15322902685E+03  0.41950235549E+03  0.25000000000E+03 0.  0.
    5000001    1    1    2    0    0 -0.98479462456E+02  0.28338116921E+03 -0.19013513003E+03  0.43434371097E+03  0.25000000000E+03 0.  0.
<mgrwt>
<rscale>  0 0.85304809E+03</rscale>
<asrwt>0</asrwt>
<pdfrwt beam="1">  1        2 0.68519397E-01 0.85304809E+03</pdfrwt>
<pdfrwt beam="2">  1       -2 0.62841536E-01 0.85304809E+03</pdfrwt>
<totfact> 0.16615613E+02</totfact>
</mgrwt>
</event>
<event>
 4    1  0.1714834E-005  0.1543348E+04  0.7818608E-02  0.8856128E-01
         -2   -1    0    0    0  501 -0.00000000000E+00  0.00000000000E+00  0.62665946724E+03  0.62665946724E+03  0.25500000000E-02 0. -1.
          2   -1    0    0  501    0  0.00000000000E+00 -0.00000000000E+00 -0.95024641984E+03  0.95024641985E+03  0.25500000000E-02 0.  1.
   -5000001    1    1    2    0    0 -0.53853233756E+03 -0.42337843099E+03  0.96112338493E+02  0.73552971119E+03  0.25000000000E+03 0.  0.
    5000001    1    1    2    0    0  0.53853233756E+03  0.42337843099E+03 -0.41969929110E+03  0.84137617590E+03  0.25000000000E+03 0.  0.
<mgrwt>
<rscale>  0 0.15433482E+04</rscale>
<asrwt>0</asrwt>
<pdfrwt beam="1">  1        2 0.14619176E+00 0.15433482E+04</pdfrwt>
<pdfrwt beam="2">  1       -2 0.96409149E-01 0.15433482E+04</pdfrwt>
<totfact> 0.23539106E+01</totfact>
</mgrwt>
</event>
<event>
 4    1  0.1714834E-005  0.7381535E+03  0.7818608E-02  0.9654121E-01
          2   -1    0    0  501    0  0.00000000000E+00  0.00000000000E+00  0.88560407662E+03  0.88560407663E+03  0.25500000000E-02 0.  1.
         -2   -1    0    0    0  501 -0.00000000000E+00 -0.00000000000E+00 -0.15381326041E+03  0.15381326043E+03  0.25500000000E-02 0. -1.
   -5000001    1    1    2    0    0 -0.79633946908E+02 -0.16460384858E+03  0.64851153293E+03  0.71868157122E+03  0.25000000000E+03 0.  0.
    5000001    1    1    2    0    0  0.79633946908E+02  0.16460384858E+03  0.83279283289E+02  0.32073576584E+03  0.25000000000E+03 0.  0.
<mgrwt>
<rscale>  0 0.73815351E+03</rscale>
<asrwt>0</asrwt>
<pdfrwt beam="1">  1        2 0.13624678E+00 0.73815351E+03</pdfrwt>
<pdfrwt beam="2">  1       -2 0.23663578E-01 0.73815351E+03</pdfrwt>
<totfact> 0.47739355E+02</totfact>
</mgrwt>
</event>
<event>
 4    1  0.1714834E-005  0.6295863E+03  0.7818608E-02  0.9845856E-01
         -2   -1    0    0    0  501 -0.00000000000E+00  0.00000000000E+00  0.13485581424E+03  0.13485581426E+03  0.25500000000E-02 0. -1.
          2   -1    0    0  501    0  0.00000000000E+00 -0.00000000000E+00 -0.73481986911E+03  0.73481986912E+03  0.25500000000E-02 0.  1.
   -5000001    1    1    2    0    0  0.10070022044E+03 -0.77079027103E+02 -0.10214077159E+03  0.29835289179E+03  0.25000000000E+03 0.  0.
    5000001    1    1    2    0    0 -0.10070022044E+03  0.77079027103E+02 -0.49782328328E+03  0.57132279159E+03  0.25000000000E+03 0.  0.
<mgrwt>
<rscale>  0 0.62958631E+03</rscale>
<asrwt>0</asrwt>
<pdfrwt beam="1">  1        2 0.11304921E+00 0.62958631E+03</pdfrwt>
<pdfrwt beam="2">  1       -2 0.20747049E-01 0.62958631E+03</pdfrwt>
<totfact> 0.77454373E+02</totfact>
</mgrwt>
</event>
<event>
 4    1  0.1714834E-005  0.1266734E+04  0.7818608E-02  0.9056370E-01
         -2   -1    0    0    0  501 -0.00000000000E+00  0.00000000000E+00  0.30364454519E+03  0.30364454520E+03  0.25500000000E-02 0. -1.
          2   -1    0    0  501    0  0.00000000000E+00 -0.00000000000E+00 -0.13211290926E+04  0.13211290926E+04  0.25500000000E-02 0.  1.
   -5000001    1    1    2    0    0  0.46019732186E+03  0.32373518026E+03 -0.31820275898E+03  0.69306495930E+03  0.25000000000E+03 0.  0.
    5000001    1    1    2    0    0 -0.46019732186E+03 -0.32373518026E+03 -0.69928178848E+03  0.93170867855E+03  0.25000000000E+03 0.  0.
<mgrwt>
<rscale>  0 0.12667338E+04</rscale>
<asrwt>0</asrwt>
<pdfrwt beam="1">  1        2 0.20325063E+00 0.12667338E+04</pdfrwt>
<pdfrwt beam="2">  1       -2 0.46714546E-01 0.12667338E+04</pdfrwt>
<totfact> 0.68552279E+01</totfact>
</mgrwt>
</event>
<event>
 4    1  0.1714834E-005  0.7614411E+03  0.7818608E-02  0.9617570E-01
         -2   -1    0    0    0  501 -0.00000000000E+00  0.00000000000E+00  0.74230319474E+03  0.74230319474E+03  0.25500000000E-02 0. -1.
          2   -1    0    0  501    0  0.00000000000E+00 -0.00000000000E+00 -0.19526811462E+03  0.19526811463E+03  0.25500000000E-02 0.  1.
   -5000001    1    1    2    0    0  0.12572663567E+02 -0.28627848674E+03  0.25099088041E+03  0.45564225648E+03  0.25000000000E+03 0.  0.
    5000001    1    1    2    0    0 -0.12572663567E+02  0.28627848674E+03  0.29604419971E+03  0.48192905289E+03  0.25000000000E+03 0.  0.
<mgrwt>
<rscale>  0 0.76144112E+03</rscale>
<asrwt>0</asrwt>
<pdfrwt beam="1">  1        2 0.30041248E-01 0.76144112E+03</pdfrwt>
<pdfrwt beam="2">  1       -2 0.11420049E+00 0.76144112E+03</pdfrwt>
<totfact> 0.10750384E+02</totfact>
</mgrwt>
</event>
<event>
 4    1  0.1714834E-005  0.7425816E+03  0.7818608E-02  0.9647061E-01
          2   -1    0    0  501    0  0.00000000000E+00  0.00000000000E+00  0.15213613510E+04  0.15213613510E+04  0.25500000000E-02 0.  1.
         -2   -1    0    0    0  501 -0.00000000000E+00 -0.00000000000E+00 -0.90614138353E+02  0.90614138389E+02  0.25500000000E-02 0. -1.
   -5000001    1    1    2    0    0 -0.27288799866E+03  0.74059108504E+01  0.77806875107E+03  0.86163431264E+03  0.25000000000E+03 0.  0.
    5000001    1    1    2    0    0  0.27288799866E+03 -0.74059108504E+01  0.65267846163E+03  0.75034117680E+03  0.25000000000E+03 0.  0.
<mgrwt>
<rscale>  0 0.74258157E+03</rscale>
<asrwt>0</asrwt>
<pdfrwt beam="1">  1        2 0.23405559E+00 0.74258157E+03</pdfrwt>
<pdfrwt beam="2">  1       -2 0.13940637E-01 0.74258157E+03</pdfrwt>
<totfact> 0.49589509E+02</totfact>
</mgrwt>
</event>
<event>
 4    1  0.1714834E-005  0.6631136E+03  0.7818608E-02  0.9782479E-01
         -2   -1    0    0    0  501 -0.00000000000E+00  0.00000000000E+00  0.34333280546E+03  0.34333280547E+03  0.25500000000E-02 0. -1.
          2   -1    0    0  501    0  0.00000000000E+00 -0.00000000000E+00 -0.32018470588E+03  0.32018470589E+03  0.25500000000E-02 0.  1.
   -5000001    1    1    2    0    0  0.15004692466E+03  0.96862630284E+02  0.13628328521E+03  0.33610948004E+03  0.25000000000E+03 0.  0.
    5000001    1    1    2    0    0 -0.15004692466E+03 -0.96862630284E+02 -0.11313518562E+03  0.32740803132E+03  0.25000000000E+03 0.  0.
<mgrwt>
<rscale>  0 0.66311361E+03</rscale>
<asrwt>0</asrwt>
<pdfrwt beam="1">  1        2 0.49259186E-01 0.66311361E+03</pdfrwt>
<pdfrwt beam="2">  1       -2 0.52820432E-01 0.66311361E+03</pdfrwt>
<totfact> 0.34846664E+02</totfact>
</mgrwt>
</event>
<event>
 4    1  0.1714834E-005  0.1281336E+04  0.7818608E-02  0.9044498E-01
          2   -1    0    0  501    0  0.00000000000E+00  0.00000000000E+00  0.39805273113E+04  0.39805273113E+04  0.25500000000E-02 0.  1.
         -2   -1    0    0    0  501 -0.00000000000E+00 -0.00000000000E+00 -0.10311580218E+03  0.10311580221E+03  0.25500000000E-02 0. -1.
   -5000001    1    1    2    0    0  0.21255151942E+03 -0.54290857364E+03  0.16531622425E+04  0.17706985254E+04  0.25000000000E+03 0.  0.
    5000001    1    1    2    0    0 -0.21255151942E+03  0.54290857364E+03  0.22242492665E+04  0.23129445881E+04  0.25000000000E+03 0.  0.
<mgrwt>
<rscale>  0 0.12813357E+04</rscale>
<asrwt>0</asrwt>
<pdfrwt beam="1">  1        2 0.61238874E+00 0.12813357E+04</pdfrwt>
<pdfrwt beam="2">  1       -2 0.15863972E-01 0.12813357E+04</pdfrwt>
<totfact> 0.11500347E+01</totfact>
</mgrwt>
</event>
<event>
 4    1  0.1714834E-005  0.6373315E+03  0.7818608E-02  0.9830845E-01
         -2   -1    0    0    0  501 -0.00000000000E+00  0.00000000000E+00  0.74454996209E+02  0.74454996252E+02  0.25500000000E-02 0. -1.
          2   -1    0    0  501    0  0.00000000000E+00 -0.00000000000E+00 -0.13638825700E+04  0.13638825700E+04  0.25500000000E-02 0.  1.
   -5000001    1    1    2    0    0 -0.21607238501E+02 -0.19484995025E+03 -0.58876961421E+03  0.66901646802E+03  0.25000000000E+03 0.  0.
    5000001    1    1    2    0    0  0.21607238501E+02  0.19484995025E+03 -0.70065795961E+03  0.76932109826E+03  0.25000000000E+03 0.  0.
<mgrwt>
<rscale>  0 0.63733154E+03</rscale>
<asrwt>0</asrwt>
<pdfrwt beam="1">  1        2 0.20982807E+00 0.63733154E+03</pdfrwt>
<pdfrwt beam="2">  1       -2 0.11454616E-01 0.63733154E+03</pdfrwt>
<totfact> 0.84621493E+02</totfact>
</mgrwt>
</event>
<event>
 4    1  0.1714834E-005  0.6664003E+03  0.7818608E-02  0.9776483E-01
         -2   -1    0    0    0  501 -0.00000000000E+00  0.00000000000E+00  0.47026218774E+02  0.47026218843E+02  0.25500000000E-02 0. -1.
          2   -1    0    0  501    0  0.00000000000E+00 -0.00000000000E+00 -0.23608605751E+04  0.23608605751E+04  0.25500000000E-02 0.  1.
   -5000001    1    1    2    0    0  0.10619599675E+02 -0.21676864891E+03 -0.10207143482E+04  0.10730606710E+04  0.25000000000E+03 0.  0.
    5000001    1    1    2    0    0 -0.10619599675E+02  0.21676864891E+03 -0.12931200082E+04  0.13348261230E+04  0.25000000000E+03 0.  0.
<mgrwt>
<rscale>  0 0.66640032E+03</rscale>
<asrwt>0</asrwt>
<pdfrwt beam="1">  1        2 0.36320923E+00 0.66640032E+03</pdfrwt>
<pdfrwt beam="2">  1       -2 0.72348048E-02 0.66640032E+03</pdfrwt>
<totfact> 0.50324230E+02</totfact>
</mgrwt>
</event>
<event>
 4    1  0.1714834E-005  0.1302729E+04  0.7818608E-02  0.9027404E-01
         -2   -1    0    0    0  501 -0.00000000000E+00  0.00000000000E+00  0.27742915271E+03  0.27742915272E+03  0.25500000000E-02 0. -1.
          2   -1    0    0  501    0  0.00000000000E+00 -0.00000000000E+00 -0.15293124551E+04  0.15293124551E+04  0.25500000000E-02 0.  1.
   -5000001    1    1    2    0    0 -0.35112648035E+03 -0.42026807481E+03 -0.28099681210E+03  0.66436004419E+03  0.25000000000E+03 0.  0.
    5000001    1    1    2    0    0  0.35112648035E+03  0.42026807481E+03 -0.97088649031E+03  0.11423815636E+04  0.25000000000E+03 0.  0.
<mgrwt>
<rscale>  0 0.13027292E+04</rscale>
<asrwt>0</asrwt>
<pdfrwt beam="1">  1        2 0.23527883E+00 0.13027292E+04</pdfrwt>
<pdfrwt beam="2">  1       -2 0.42681409E-01 0.13027292E+04</pdfrwt>
<totfact> 0.62294244E+01</totfact>
</mgrwt>
</event>
<event>
 4    1  0.1714834E-005  0.6131312E+03  0.7818608E-02  0.9878531E-01
         -2   -1    0    0    0  501 -0.00000000000E+00  0.00000000000E+00  0.46773139688E+02  0.46773139757E+02  0.25500000000E-02 0. -1.
          2   -1    0    0  501    0  0.00000000000E+00 -0.00000000000E+00 -0.20093253592E+04  0.20093253592E+04  0.25500000000E-02 0.  1.
   -5000001    1    1    2    0    0  0.59982798928E+02  0.16132970214E+03 -0.11257952394E+04  0.11659931947E+04  0.25000000000E+03 0.  0.
    5000001    1    1    2    0    0 -0.59982798928E+02 -0.16132970214E+03 -0.83675698011E+03  0.89010530429E+03  0.25000000000E+03 0.  0.
<mgrwt>
<rscale>  0 0.61313116E+03</rscale>
<asrwt>0</asrwt>
<pdfrwt beam="1">  1        2 0.30912691E+00 0.61313116E+03</pdfrwt>
<pdfrwt beam="2">  1       -2 0.71958692E-02 0.61313116E+03</pdfrwt>
<totfact> 0.79439419E+02</totfact>
</mgrwt>
</event>
<event>
 4    1  0.1714834E-005  0.9709123E+03  0.7818608E-02  0.9341036E-01
         -2   -1    0    0    0  501 -0.00000000000E+00  0.00000000000E+00  0.21923051698E+03  0.21923051699E+03  0.25500000000E-02 0. -1.
          2   -1    0    0  501    0  0.00000000000E+00 -0.00000000000E+00 -0.10749766448E+04  0.10749766448E+04  0.25500000000E-02 0.  1.
   -5000001    1    1    2    0    0  0.10479757621E+03  0.39840162282E+03 -0.34945006608E+03  0.59524930385E+03  0.25000000000E+03 0.  0.
    5000001    1    1    2    0    0 -0.10479757621E+03 -0.39840162282E+03 -0.50629606174E+03  0.69895785794E+03  0.25000000000E+03 0.  0.
<mgrwt>
<rscale>  0 0.97091232E+03</rscale>
<asrwt>0</asrwt>
<pdfrwt beam="1">  1        2 0.16538102E+00 0.97091232E+03</pdfrwt>
<pdfrwt beam="2">  1       -2 0.33727772E-01 0.97091232E+03</pdfrwt>
<totfact> 0.18535713E+02</totfact>
</mgrwt>
</event>
<event>
 4    1  0.1714834E-005  0.1761078E+04  0.7818608E-02  0.8727276E-01
          2   -1    0    0  501    0  0.00000000000E+00  0.00000000000E+00  0.63420962054E+03  0.63420962054E+03  0.25500000000E-02 0.  1.
         -2   -1    0    0    0  501 -0.00000000000E+00 -0.00000000000E+00 -0.12225434644E+04  0.12225434644E+04  0.25500000000E-02 0. -1.
   -5000001    1    1    2    0    0 -0.17748198926E+03 -0.82329485855E+03 -0.35684885964E+03  0.94823804461E+03  0.25000000000E+03 0.  0.
    5000001    1    1    2    0    0  0.17748198926E+03  0.82329485855E+03 -0.23148498424E+03  0.90851504036E+03  0.25000000000E+03 0.  0.
<mgrwt>
<rscale>  0 0.17610779E+04</rscale>
<asrwt>0</asrwt>
<pdfrwt beam="1">  1        2 0.97570712E-01 0.17610779E+04</pdfrwt>
<pdfrwt beam="2">  1       -2 0.18808361E+00 0.17610779E+04</pdfrwt>
<totfact> 0.70025722E+00</totfact>
</mgrwt>
</event>
<event>
 4    1  0.1714834E-005  0.9870047E+03  0.7818608E-02  0.9322914E-01
         -2   -1    0    0    0  501 -0.00000000000E+00  0.00000000000E+00  0.14255835293E+04  0.14255835293E+04  0.25500000000E-02 0. -1.
          2   -1    0    0  501    0  0.00000000000E+00 -0.00000000000E+00 -0.17083852159E+03  0.17083852161E+03  0.25500000000E-02 0.  1.
   -5000001    1    1    2    0    0  0.35651689866E+03 -0.23205727506E+03  0.61205331057E+03  0.78617054951E+03  0.25000000000E+03 0.  0.
    5000001    1    1    2    0    0 -0.35651689866E+03  0.23205727506E+03  0.64269169709E+03  0.81025150136E+03  0.25000000000E+03 0.  0.
<mgrwt>
<rscale>  0 0.98700473E+03</rscale>
<asrwt>0</asrwt>
<pdfrwt beam="1">  1        2 0.26282849E-01 0.98700473E+03</pdfrwt>
<pdfrwt beam="2">  1       -2 0.21932055E+00 0.98700473E+03</pdfrwt>
<totfact> 0.20717445E+01</totfact>
</mgrwt>
</event>
<event>
 4    1  0.1714834E-005  0.1076287E+04  0.7818608E-02  0.9228618E-01
         -2   -1    0    0    0  501 -0.00000000000E+00  0.00000000000E+00  0.26421492133E+03  0.26421492134E+03  0.25500000000E-02 0. -1.
          2   -1    0    0  501    0  0.00000000000E+00 -0.00000000000E+00 -0.10960711668E+04  0.10960711668E+04  0.25500000000E-02 0.  1.
   -5000001    1    1    2    0    0  0.40539355291E+03 -0.24889002152E+03 -0.45185807857E+03  0.70211530301E+03  0.25000000000E+03 0.  0.
    5000001    1    1    2    0    0 -0.40539355291E+03  0.24889002152E+03 -0.37999816690E+03  0.65817078513E+03  0.25000000000E+03 0.  0.
<mgrwt>
<rscale>  0 0.10762869E+04</rscale>
<asrwt>0</asrwt>
<pdfrwt beam="1">  1        2 0.16862633E+00 0.10762869E+04</pdfrwt>
<pdfrwt beam="2">  1       -2 0.40648450E-01 0.10762869E+04</pdfrwt>
<totfact> 0.12472406E+02</totfact>
</mgrwt>
</event>
<event>
 4    1  0.1714834E-005  0.7592402E+03  0.7818608E-02  0.9620964E-01
         -2   -1    0    0    0  501 -0.00000000000E+00  0.00000000000E+00  0.52379635848E+02  0.52379635910E+02  0.25500000000E-02 0. -1.
          2   -1    0    0  501    0  0.00000000000E+00 -0.00000000000E+00 -0.27512872824E+04  0.27512872824E+04  0.25500000000E-02 0.  1.
   -5000001    1    1    2    0    0 -0.23726744838E+02 -0.28430349343E+03 -0.14042247291E+04  0.14545578451E+04  0.25000000000E+03 0.  0.
    5000001    1    1    2    0    0  0.23726744838E+02  0.28430349343E+03 -0.12946829174E+04  0.13491090732E+04  0.25000000000E+03 0.  0.
<mgrwt>
<rscale>  0 0.75924022E+03</rscale>
<asrwt>0</asrwt>
<pdfrwt beam="1">  1        2 0.42327485E+00 0.75924022E+03</pdfrwt>
<pdfrwt beam="2">  1       -2 0.80584077E-02 0.75924022E+03</pdfrwt>
<totfact> 0.25154138E+02</totfact>
</mgrwt>
</event>
<event>
 4    1  0.1714834E-005  0.6735877E+03  0.7818608E-02  0.9763498E-01
          2   -1    0    0  501    0  0.00000000000E+00  0.00000000000E+00  0.12766361520E+04  0.12766361520E+04  0.25500000000E-02 0.  1.
         -2   -1    0    0    0  501 -0.00000000000E+00 -0.00000000000E+00 -0.88850760664E+02  0.88850760700E+02  0.25500000000E-02 0. -1.
   -5000001    1    1    2    0    0 -0.21618262895E+03 -0.57377916679E+02  0.53297793109E+03  0.62975600784E+03  0.25000000000E+03 0.  0.
    5000001    1    1    2    0    0  0.21618262895E+03  0.57377916679E+02  0.65480746028E+03  0.73573090490E+03  0.25000000000E+03 0.  0.
<mgrwt>
<rscale>  0 0.67358769E+03</rscale>
<asrwt>0</asrwt>
<pdfrwt beam="1">  1        2 0.19640555E+00 0.67358769E+03</pdfrwt>
<pdfrwt beam="2">  1       -2 0.13669349E-01 0.67358769E+03</pdfrwt>
<totfact> 0.70707023E+02</totfact>
</mgrwt>
</event>
<event>
 4    1  0.1714834E-005  0.1396004E+04  0.7818608E-02  0.8956716E-01
          2   -1    0    0  501    0  0.00000000000E+00  0.00000000000E+00  0.20887787700E+04  0.20887787700E+04  0.25500000000E-02 0.  1.
         -2   -1    0    0    0  501 -0.00000000000E+00 -0.00000000000E+00 -0.23324952764E+03  0.23324952766E+03  0.25500000000E-02 0. -1.
   -5000001    1    1    2    0    0 -0.40197560880E+03 -0.37208967554E+03  0.15150708053E+04  0.16303296175E+04  0.25000000000E+03 0.  0.
    5000001    1    1    2    0    0  0.40197560880E+03  0.37208967554E+03  0.34045843703E+03  0.69169868010E+03  0.25000000000E+03 0.  0.
<mgrwt>
<rscale>  0 0.13960038E+04</rscale>
<asrwt>0</asrwt>
<pdfrwt beam="1">  1        2 0.32135058E+00 0.13960038E+04</pdfrwt>
<pdfrwt beam="2">  1       -2 0.35884542E-01 0.13960038E+04</pdfrwt>
<totfact> 0.42424481E+01</totfact>
</mgrwt>
</event>
<event>
 4    1  0.1714834E-005  0.7867883E+03  0.7818608E-02  0.9579340E-01
         -2   -1    0    0    0  501 -0.00000000000E+00  0.00000000000E+00  0.11110253113E+03  0.11110253116E+03  0.25500000000E-02 0. -1.
          2   -1    0    0  501    0  0.00000000000E+00 -0.00000000000E+00 -0.13929380817E+04  0.13929380817E+04  0.25500000000E-02 0.  1.
   -5000001    1    1    2    0    0  0.14018646783E+03  0.62882076854E+02 -0.14004202399E+03  0.32514330661E+03  0.25000000000E+03 0.  0.
    5000001    1    1    2    0    0 -0.14018646783E+03 -0.62882076854E+02 -0.11417935266E+04  0.11788973062E+04  0.25000000000E+03 0.  0.
<mgrwt>
<rscale>  0 0.78678827E+03</rscale>
<asrwt>0</asrwt>
<pdfrwt beam="1">  1        2 0.21429815E+00 0.78678827E+03</pdfrwt>
<pdfrwt beam="2">  1       -2 0.17092698E-01 0.78678827E+03</pdfrwt>
<totfact> 0.41311167E+02</totfact>
</mgrwt>
</event>
<event>
 4    1  0.1714834E-005  0.5377390E+03  0.7818608E-02  0.1004372E+00
          2   -1    0    0  501    0  0.00000000000E+00  0.00000000000E+00  0.29037996881E+03  0.29037996882E+03  0.25500000000E-02 0.  1.
         -2   -1    0    0    0  501 -0.00000000000E+00 -0.00000000000E+00 -0.24895248446E+03  0.24895248447E+03  0.25500000000E-02 0. -1.
   -5000001    1    1    2    0    0  0.21764384215E+02  0.94157192294E+02 -0.59891663025E+00  0.26802914764E+03  0.25000000000E+03 0.  0.
    5000001    1    1    2    0    0 -0.21764384215E+02 -0.94157192294E+02  0.42026400978E+02  0.27130330566E+03  0.25000000000E+03 0.  0.
<mgrwt>
<rscale>  0 0.53773902E+03</rscale>
<asrwt>0</asrwt>
<pdfrwt beam="1">  1        2 0.44673841E-01 0.53773902E+03</pdfrwt>
<pdfrwt beam="2">  1       -2 0.38300382E-01 0.53773902E+03</pdfrwt>
<totfact> 0.73671919E+02</totfact>
</mgrwt>
</event>
<event>
 4    1  0.1714834E-005  0.5958880E+03  0.7818608E-02  0.9913974E-01
          2   -1    0    0  501    0  0.00000000000E+00  0.00000000000E+00  0.66741791872E+03  0.66741791872E+03  0.25500000000E-02 0.  1.
         -2   -1    0    0    0  501 -0.00000000000E+00 -0.00000000000E+00 -0.13300604847E+03  0.13300604850E+03  0.25500000000E-02 0. -1.
   -5000001    1    1    2    0    0 -0.69786620837E+02 -0.14603246175E+03  0.27883628099E+03  0.40797711202E+03  0.25000000000E+03 0.  0.
    5000001    1    1    2    0    0  0.69786620837E+02  0.14603246175E+03  0.25557558925E+03  0.39244685520E+03  0.25000000000E+03 0.  0.
<mgrwt>
<rscale>  0 0.59588798E+03</rscale>
<asrwt>0</asrwt>
<pdfrwt beam="1">  1        2 0.10267968E+00 0.59588798E+03</pdfrwt>
<pdfrwt beam="2">  1       -2 0.20462469E-01 0.59588798E+03</pdfrwt>
<totfact> 0.89593589E+02</totfact>
</mgrwt>
</event>
<event>
 4    1  0.1714834E-005  0.6220168E+03  0.7818608E-02  0.9860753E-01
          2   -1    0    0  501    0  0.00000000000E+00  0.00000000000E+00  0.43389362410E+03  0.43389362410E+03  0.25500000000E-02 0.  1.
         -2   -1    0    0    0  501 -0.00000000000E+00 -0.00000000000E+00 -0.22292609838E+03  0.22292609839E+03  0.25500000000E-02 0. -1.
   -5000001    1    1    2    0    0  0.78465947795E+02  0.10592669198E+03  0.24254957646E+03  0.37243478097E+03  0.25000000000E+03 0.  0.
    5000001    1    1    2    0    0 -0.78465947795E+02 -0.10592669198E+03 -0.31582050738E+02  0.28438494153E+03  0.25000000000E+03 0.  0.
<mgrwt>
<rscale>  0 0.62201676E+03</rscale>
<asrwt>0</asrwt>
<pdfrwt beam="1">  1        2 0.66752864E-01 0.62201676E+03</pdfrwt>
<pdfrwt beam="2">  1       -2 0.34296323E-01 0.62201676E+03</pdfrwt>
<totfact> 0.58136598E+02</totfact>
</mgrwt>
</event>
<event>
 4    1  0.1714834E-005  0.6795763E+03  0.7818608E-02  0.9752811E-01
         -2   -1    0    0    0  501 -0.00000000000E+00  0.00000000000E+00  0.10226301922E+03  0.10226301925E+03  0.25500000000E-02 0. -1.
          2   -1    0    0  501    0  0.00000000000E+00 -0.00000000000E+00 -0.11290102534E+04  0.11290102534E+04  0.25500000000E-02 0.  1.
   -5000001    1    1    2    0    0  0.20453534412E+03 -0.10038801899E+02 -0.70357650578E+03  0.77424504133E+03  0.25000000000E+03 0.  0.
    5000001    1    1    2    0    0 -0.20453534412E+03  0.10038801899E+02 -0.32317072841E+03  0.45702823134E+03  0.25000000000E+03 0.  0.
<mgrwt>
<rscale>  0 0.67957633E+03</rscale>
<asrwt>0</asrwt>
<pdfrwt beam="1">  1        2 0.17369388E+00 0.67957633E+03</pdfrwt>
<pdfrwt beam="2">  1       -2 0.15732773E-01 0.67957633E+03</pdfrwt>
<totfact> 0.68163070E+02</totfact>
</mgrwt>
</event>
<event>
 4    1  0.1714834E-005  0.1033180E+04  0.7818608E-02  0.9272884E-01
         -2   -1    0    0    0  501 -0.00000000000E+00  0.00000000000E+00  0.42666474244E+03  0.42666474245E+03  0.25500000000E-02 0. -1.
          2   -1    0    0  501    0  0.00000000000E+00 -0.00000000000E+00 -0.62546790254E+03  0.62546790254E+03  0.25500000000E-02 0.  1.
   -5000001    1    1    2    0    0 -0.19912190463E+03  0.12686348798E+03  0.29318461609E+03  0.45188615446E+03  0.25000000000E+03 0.  0.
    5000001    1    1    2    0    0  0.19912190463E+03 -0.12686348798E+03 -0.49198777618E+03  0.60024649053E+03  0.25000000000E+03 0.  0.
<mgrwt>
<rscale>  0 0.10331798E+04</rscale>
<asrwt>0</asrwt>
<pdfrwt beam="1">  1        2 0.96225831E-01 0.10331798E+04</pdfrwt>
<pdfrwt beam="2">  1       -2 0.65640730E-01 0.10331798E+04</pdfrwt>
<totfact> 0.10050199E+02</totfact>
</mgrwt>
</event>
<event>
 4    1  0.1714834E-005  0.1181844E+04  0.7818608E-02  0.9128898E-01
          2   -1    0    0  501    0  0.00000000000E+00  0.00000000000E+00  0.10697110872E+04  0.10697110872E+04  0.25500000000E-02 0.  1.
         -2   -1    0    0    0  501 -0.00000000000E+00 -0.00000000000E+00 -0.32643285116E+03  0.32643285117E+03  0.25500000000E-02 0. -1.
   -5000001    1    1    2    0    0 -0.30581586141E+03 -0.19753114570E+03 -0.92168078994E+02  0.45115058395E+03  0.25000000000E+03 0.  0.
    5000001    1    1    2    0    0  0.30581586141E+03  0.19753114570E+03  0.83544631506E+03  0.94499335446E+03  0.25000000000E+03 0.  0.
<mgrwt>
<rscale>  0 0.11818441E+04</rscale>
<asrwt>0</asrwt>
<pdfrwt beam="1">  1        2 0.16457094E+00 0.11818441E+04</pdfrwt>
<pdfrwt beam="2">  1       -2 0.50220439E-01 0.11818441E+04</pdfrwt>
<totfact> 0.84273982E+01</totfact>
</mgrwt>
</event>
<event>
 4    1  0.1714834E-005  0.9485460E+03  0.7818608E-02  0.9366852E-01
          2   -1    0    0  501    0  0.00000000000E+00  0.00000000000E+00  0.18348899638E+04  0.18348899638E+04  0.25500000000E-02 0.  1.
         -2   -1    0    0    0  501 -0.00000000000E+00 -0.00000000000E+00 -0.12258767884E+03  0.12258767887E+03  0.25500000000E-02 0. -1.
   -5000001    1    1    2    0    0 -0.76216779704E+02 -0.30489399923E+03  0.13768548264E+04  0.14342240276E+04  0.25000000000E+03 0.  0.
    5000001    1    1    2    0    0  0.76216779704E+02  0.30489399923E+03  0.33544745856E+03  0.52325361511E+03  0.25000000000E+03 0.  0.
<mgrwt>
<rscale>  0 0.94854605E+03</rscale>
<asrwt>0</asrwt>
<pdfrwt beam="1">  1        2 0.28229074E+00 0.94854605E+03</pdfrwt>
<pdfrwt beam="2">  1       -2 0.18859644E-01 0.94854605E+03</pdfrwt>
<totfact> 0.19618212E+02</totfact>
</mgrwt>
</event>
<event>
 4    1  0.1714834E-005  0.8371105E+03  0.7818608E-02  0.9507802E-01
          2   -1    0    0  501    0  0.00000000000E+00  0.00000000000E+00  0.99820678768E+02  0.99820678801E+02  0.25500000000E-02 0.  1.
         -2   -1    0    0    0  501 -0.00000000000E+00 -0.00000000000E+00 -0.17550319199E+04  0.17550319200E+04  0.25500000000E-02 0. -1.
   -5000001    1    1    2    0    0  0.45220044902E+02  0.30674061179E+03 -0.54251969276E+03  0.67302471902E+03  0.25000000000E+03 0.  0.
    5000001    1    1    2    0    0 -0.45220044902E+02 -0.30674061179E+03 -0.11126915484E+04  0.11818278797E+04  0.25000000000E+03 0.  0.
<mgrwt>
<rscale>  0 0.83711045E+03</rscale>
<asrwt>0</asrwt>
<pdfrwt beam="1">  1        2 0.15357029E-01 0.83711045E+03</pdfrwt>
<pdfrwt beam="2">  1       -2 0.27000489E+00 0.83711045E+03</pdfrwt>
<totfact> 0.19352448E+01</totfact>
</mgrwt>
</event>
<event>
 4    1  0.1714834E-005  0.7132745E+03  0.7818608E-02  0.9694797E-01
          2   -1    0    0  501    0  0.00000000000E+00  0.00000000000E+00  0.58471775908E+03  0.58471775909E+03  0.25500000000E-02 0.  1.
         -2   -1    0    0    0  501 -0.00000000000E+00 -0.00000000000E+00 -0.21752397383E+03  0.21752397384E+03  0.25500000000E-02 0. -1.
   -5000001    1    1    2    0    0  0.16277612198E+03 -0.98258552637E+02 -0.64104438357E+01  0.31415267441E+03  0.25000000000E+03 0.  0.
    5000001    1    1    2    0    0 -0.16277612198E+03  0.98258552637E+02  0.37360422909E+03  0.48808905852E+03  0.25000000000E+03 0.  0.
<mgrwt>
<rscale>  0 0.71327451E+03</rscale>
<asrwt>0</asrwt>
<pdfrwt beam="1">  1        2 0.89956577E-01 0.71327451E+03</pdfrwt>
<pdfrwt beam="2">  1       -2 0.33465227E-01 0.71327451E+03</pdfrwt>
<totfact> 0.42982462E+02</totfact>
</mgrwt>
</event>
<event>
 4    1  0.1714834E-005  0.5898215E+03  0.7818608E-02  0.9926751E-01
         -2   -1    0    0    0  501 -0.00000000000E+00  0.00000000000E+00  0.40595104804E+02  0.40595104884E+02  0.25500000000E-02 0. -1.
          2   -1    0    0  501    0  0.00000000000E+00 -0.00000000000E+00 -0.21424347539E+04  0.21424347539E+04  0.25500000000E-02 0.  1.
   -5000001    1    1    2    0    0 -0.12823308910E+03  0.23539729585E+02 -0.73093404202E+03  0.78342990611E+03  0.25000000000E+03 0.  0.
    5000001    1    1    2    0    0  0.12823308910E+03 -0.23539729585E+02 -0.13709056071E+04  0.13995999527E+04  0.25000000000E+03 0.  0.
<mgrwt>
<rscale>  0 0.58982154E+03</rscale>
<asrwt>0</asrwt>
<pdfrwt beam="1">  1        2 0.32960526E+00 0.58982154E+03</pdfrwt>
<pdfrwt beam="2">  1       -2 0.62454024E-02 0.58982154E+03</pdfrwt>
<totfact> 0.84219243E+02</totfact>
</mgrwt>
</event>
<event>
 4    1  0.1714834E-005  0.7390159E+03  0.7818608E-02  0.9652742E-01
         -2   -1    0    0    0  501 -0.00000000000E+00  0.00000000000E+00  0.17094574276E+03  0.17094574278E+03  0.25500000000E-02 0. -1.
          2   -1    0    0  501    0  0.00000000000E+00 -0.00000000000E+00 -0.79871027829E+03  0.79871027830E+03  0.25500000000E-02 0.  1.
   -5000001    1    1    2    0    0 -0.25581138683E+03 -0.30653621350E+02 -0.42869593144E+03  0.55915946900E+03  0.25000000000E+03 0.  0.
    5000001    1    1    2    0    0  0.25581138683E+03  0.30653621350E+02 -0.19906860409E+03  0.41049655208E+03  0.25000000000E+03 0.  0.
<mgrwt>
<rscale>  0 0.73901589E+03</rscale>
<asrwt>0</asrwt>
<pdfrwt beam="1">  1        2 0.12287850E+00 0.73901589E+03</pdfrwt>
<pdfrwt beam="2">  1       -2 0.26299346E-01 0.73901589E+03</pdfrwt>
<totfact> 0.45375644E+02</totfact>
</mgrwt>
</event>
<event>
 4    1  0.1714834E-005  0.5788691E+03  0.7818608E-02  0.9950242E-01
         -2   -1    0    0    0  501 -0.00000000000E+00  0.00000000000E+00  0.43851123924E+02  0.43851123998E+02  0.25500000000E-02 0. -1.
          2   -1    0    0  501    0  0.00000000000E+00 -0.00000000000E+00 -0.19103814151E+04  0.19103814151E+04  0.25500000000E-02 0.  1.
   -5000001    1    1    2    0    0  0.69041606515E+02 -0.11980029284E+03 -0.77660080442E+03  0.82748272672E+03  0.25000000000E+03 0.  0.
    5000001    1    1    2    0    0 -0.69041606515E+02  0.11980029284E+03 -0.10899294867E+04  0.11267498124E+04  0.25000000000E+03 0.  0.
<mgrwt>
<rscale>  0 0.57886915E+03</rscale>
<asrwt>0</asrwt>
<pdfrwt beam="1">  1        2 0.29390477E+00 0.57886915E+03</pdfrwt>
<pdfrwt beam="2">  1       -2 0.67463283E-02 0.57886915E+03</pdfrwt>
<totfact> 0.99727791E+02</totfact>
</mgrwt>
</event>
<event>
 4    1  0.1714834E-005  0.9537642E+03  0.7818608E-02  0.9360762E-01
         -2   -1    0    0    0  501 -0.00000000000E+00  0.00000000000E+00  0.22157731709E+03  0.22157731711E+03  0.25500000000E-02 0. -1.
          2   -1    0    0  501    0  0.00000000000E+00 -0.00000000000E+00 -0.10263530081E+04  0.10263530081E+04  0.25500000000E-02 0.  1.
   -5000001    1    1    2    0    0 -0.24728669869E+03  0.28124187112E+03 -0.60789347210E+03  0.75649334091E+03  0.25000000000E+03 0.  0.
    5000001    1    1    2    0    0  0.24728669869E+03 -0.28124187112E+03 -0.19688221891E+03  0.49143698430E+03  0.25000000000E+03 0.  0.
<mgrwt>
<rscale>  0 0.95376422E+03</rscale>
<asrwt>0</asrwt>
<pdfrwt beam="1">  1        2 0.15790046E+00 0.95376422E+03</pdfrwt>
<pdfrwt beam="2">  1       -2 0.34088819E-01 0.95376422E+03</pdfrwt>
<totfact> 0.19506203E+02</totfact>
</mgrwt>
</event>
<event>
 4    1  0.1714834E-005  0.7262052E+03  0.7818608E-02  0.9673438E-01
          2   -1    0    0  501    0  0.00000000000E+00  0.00000000000E+00  0.12727804216E+04  0.12727804216E+04  0.25500000000E-02 0.  1.
         -2   -1    0    0    0  501 -0.00000000000E+00 -0.00000000000E+00 -0.10358700798E+03  0.10358700801E+03  0.25500000000E-02 0. -1.
   -5000001    1    1    2    0    0 -0.16320620367E+03 -0.51106987200E+02  0.20508787983E+03  0.36579943618E+03  0.25000000000E+03 0.  0.
    5000001    1    1    2    0    0  0.16320620367E+03  0.51106987200E+02  0.96410553379E+03  0.10105679934E+04  0.25000000000E+03 0.  0.
<mgrwt>
<rscale>  0 0.72620525E+03</rscale>
<asrwt>0</asrwt>
<pdfrwt beam="1">  1        2 0.19581240E+00 0.72620525E+03</pdfrwt>
<pdfrwt beam="2">  1       -2 0.15936461E-01 0.72620525E+03</pdfrwt>
<totfact> 0.54731729E+02</totfact>
</mgrwt>
</event>
<event>
 4    1  0.1714834E-005  0.7261761E+03  0.7818608E-02  0.9673486E-01
         -2   -1    0    0    0  501 -0.00000000000E+00  0.00000000000E+00  0.23445164488E+03  0.23445164489E+03  0.25500000000E-02 0. -1.
          2   -1    0    0  501    0  0.00000000000E+00 -0.00000000000E+00 -0.56230333217E+03  0.56230333218E+03  0.25500000000E-02 0.  1.
   -5000001    1    1    2    0    0  0.23433324064E+03  0.17133463384E+02 -0.29433637912E+03  0.45203929841E+03  0.25000000000E+03 0.  0.
    5000001    1    1    2    0    0 -0.23433324064E+03 -0.17133463384E+02 -0.33515308175E+02  0.34471567866E+03  0.25000000000E+03 0.  0.
<mgrwt>
<rscale>  0 0.72617613E+03</rscale>
<asrwt>0</asrwt>
<pdfrwt beam="1">  1        2 0.86508205E-01 0.72617613E+03</pdfrwt>
<pdfrwt beam="2">  1       -2 0.36069484E-01 0.72617613E+03</pdfrwt>
<totfact> 0.39040214E+02</totfact>
</mgrwt>
</event>
<event>
 4    1  0.1714834E-005  0.6584022E+03  0.7818608E-02  0.9791140E-01
         -2   -1    0    0    0  501 -0.00000000000E+00  0.00000000000E+00  0.13078447898E+03  0.13078447901E+03  0.25500000000E-02 0. -1.
          2   -1    0    0  501    0  0.00000000000E+00 -0.00000000000E+00 -0.82864090834E+03  0.82864090834E+03  0.25500000000E-02 0.  1.
   -5000001    1    1    2    0    0  0.18983168617E+03 -0.91825495448E+02 -0.29430004881E+03  0.43997785106E+03  0.25000000000E+03 0.  0.
    5000001    1    1    2    0    0 -0.18983168617E+03  0.91825495448E+02 -0.40355638054E+03  0.51944753630E+03  0.25000000000E+03 0.  0.
<mgrwt>
<rscale>  0 0.65840222E+03</rscale>
<asrwt>0</asrwt>
<pdfrwt beam="1">  1        2 0.12748321E+00 0.65840222E+03</pdfrwt>
<pdfrwt beam="2">  1       -2 0.20120690E-01 0.65840222E+03</pdfrwt>
<totfact> 0.69800015E+02</totfact>
</mgrwt>
</event>
<event>
 4    1  0.1714834E-005  0.8546107E+03  0.7818608E-02  0.9484169E-01
          2   -1    0    0  501    0  0.00000000000E+00  0.00000000000E+00  0.17468702315E+04  0.17468702315E+04  0.25500000000E-02 0.  1.
         -2   -1    0    0    0  501 -0.00000000000E+00 -0.00000000000E+00 -0.10452400393E+03  0.10452400397E+03  0.25500000000E-02 0. -1.
   -5000001    1    1    2    0    0 -0.46635874114E+02  0.30839878395E+03  0.49402298389E+03  0.63548676092E+03  0.25000000000E+03 0.  0.
    5000001    1    1    2    0    0  0.46635874114E+02 -0.30839878395E+03  0.11483232437E+04  0.12159074745E+04  0.25000000000E+03 0.  0.
<mgrwt>
<rscale>  0 0.85461072E+03</rscale>
<asrwt>0</asrwt>
<pdfrwt beam="1">  1        2 0.26874929E+00 0.85461072E+03</pdfrwt>
<pdfrwt beam="2">  1       -2 0.16080615E-01 0.85461072E+03</pdfrwt>
<totfact> 0.29048496E+02</totfact>
</mgrwt>
</event>
<event>
 4    1  0.1714834E-005  0.6867897E+03  0.7818608E-02  0.9740094E-01
          2   -1    0    0  501    0  0.00000000000E+00  0.00000000000E+00  0.34648786904E+03  0.34648786905E+03  0.25500000000E-02 0.  1.
         -2   -1    0    0    0  501 -0.00000000000E+00 -0.00000000000E+00 -0.34032941429E+03  0.34032941430E+03  0.25500000000E-02 0. -1.
   -5000001    1    1    2    0    0  0.17367477467E+03 -0.10376780238E+03  0.12345569692E+03  0.34448801614E+03  0.25000000000E+03 0.  0.
    5000001    1    1    2    0    0 -0.17367477467E+03  0.10376780238E+03 -0.11729724217E+03  0.34232926721E+03  0.25000000000E+03 0.  0.
<mgrwt>
<rscale>  0 0.68678967E+03</rscale>
<asrwt>0</asrwt>
<pdfrwt beam="1">  1        2 0.53305826E-01 0.68678967E+03</pdfrwt>
<pdfrwt beam="2">  1       -2 0.52358371E-01 0.68678967E+03</pdfrwt>
<totfact> 0.32480485E+02</totfact>
</mgrwt>
</event>
<event>
 4    1  0.1714834E-005  0.9088269E+03  0.7818608E-02  0.9414614E-01
         -2   -1    0    0    0  501 -0.00000000000E+00  0.00000000000E+00  0.43708792534E+03  0.43708792535E+03  0.25500000000E-02 0. -1.
          2   -1    0    0  501    0  0.00000000000E+00 -0.00000000000E+00 -0.47242569184E+03  0.47242569185E+03  0.25500000000E-02 0.  1.
   -5000001    1    1    2    0    0  0.22652198222E+03 -0.29086653508E+03 -0.10760344723E+03  0.45825107912E+03  0.25000000000E+03 0.  0.
    5000001    1    1    2    0    0 -0.22652198222E+03  0.29086653508E+03  0.72265680731E+02  0.45126253808E+03  0.25000000000E+03 0.  0.
<mgrwt>
<rscale>  0 0.90882686E+03</rscale>
<asrwt>0</asrwt>
<pdfrwt beam="1">  1        2 0.72680876E-01 0.90882686E+03</pdfrwt>
<pdfrwt beam="2">  1       -2 0.67244296E-01 0.90882686E+03</pdfrwt>
<totfact> 0.13391104E+02</totfact>
</mgrwt>
</event>
<event>
 4    1  0.1714834E-005  0.1100646E+04  0.7818608E-02  0.9204563E-01
          2   -1    0    0  501    0  0.00000000000E+00  0.00000000000E+00  0.93531282498E+03  0.93531282498E+03  0.25500000000E-02 0.  1.
         -2   -1    0    0    0  501 -0.00000000000E+00 -0.00000000000E+00 -0.32380105348E+03  0.32380105349E+03  0.25500000000E-02 0. -1.
   -5000001    1    1    2    0    0 -0.40631395251E+03 -0.19092704015E+03  0.80386197476E+02  0.52010201250E+03  0.25000000000E+03 0.  0.
    5000001    1    1    2    0    0  0.40631395251E+03  0.19092704015E+03  0.53112557402E+03  0.73901186597E+03  0.25000000000E+03 0.  0.
<mgrwt>
<rscale>  0 0.11006458E+04</rscale>
<asrwt>0</asrwt>
<pdfrwt beam="1">  1        2 0.14389428E+00 0.11006458E+04</pdfrwt>
<pdfrwt beam="2">  1       -2 0.49815548E-01 0.11006458E+04</pdfrwt>
<totfact> 0.10508854E+02</totfact>
</mgrwt>
</event>
<event>
 4    1  0.1714834E-005  0.5819074E+03  0.7818608E-02  0.9943670E-01
          2   -1    0    0  501    0  0.00000000000E+00  0.00000000000E+00  0.65928600168E+03  0.65928600169E+03  0.25500000000E-02 0.  1.
         -2   -1    0    0    0  501 -0.00000000000E+00 -0.00000000000E+00 -0.12840263613E+03  0.12840263615E+03  0.25500000000E-02 0. -1.
   -5000001    1    1    2    0    0 -0.61090694217E+02  0.10740160950E+03  0.37777588547E+03  0.46955489379E+03  0.25000000000E+03 0.  0.
    5000001    1    1    2    0    0  0.61090694217E+02 -0.10740160950E+03  0.15310748008E+03  0.31813374405E+03  0.25000000000E+03 0.  0.
<mgrwt>
<rscale>  0 0.58190742E+03</rscale>
<asrwt>0</asrwt>
<pdfrwt beam="1">  1        2 0.10142862E+00 0.58190742E+03</pdfrwt>
<pdfrwt beam="2">  1       -2 0.19754251E-01 0.58190742E+03</pdfrwt>
<totfact> 0.96738965E+02</totfact>
</mgrwt>
</event>
<event>
 4    1  0.1714834E-005  0.1184386E+04  0.7818608E-02  0.9126635E-01
         -2   -1    0    0    0  501 -0.00000000000E+00  0.00000000000E+00  0.15543288680E+03  0.15543288682E+03  0.25500000000E-02 0.  1.
          2   -1    0    0  501    0  0.00000000000E+00 -0.00000000000E+00 -0.22562296804E+04  0.22562296804E+04  0.25500000000E-02 0. -1.
   -5000001    1    1    2    0    0  0.32617118366E+03  0.42622484301E+03 -0.10265621048E+04  0.11850675141E+04  0.25000000000E+03 0.  0.
    5000001    1    1    2    0    0 -0.32617118366E+03 -0.42622484301E+03 -0.10742346888E+04  0.12265950532E+04  0.25000000000E+03 0.  0.
<mgrwt>
<rscale>  0 0.11843856E+04</rscale>
<asrwt>0</asrwt>
<pdfrwt beam="1">  1        2 0.34711224E+00 0.11843856E+04</pdfrwt>
<pdfrwt beam="2">  1       -2 0.23912753E-01 0.11843856E+04</pdfrwt>
<totfact> 0.73993917E+01</totfact>
</mgrwt>
</event>
<event>
 4    1  0.1714834E-005  0.6121072E+03  0.7818608E-02  0.9880601E-01
          2   -1    0    0  501    0  0.00000000000E+00  0.00000000000E+00  0.19489465515E+03  0.19489465516E+03  0.25500000000E-02 0.  1.
         -2   -1    0    0    0  501 -0.00000000000E+00 -0.00000000000E+00 -0.48061245628E+03  0.48061245629E+03  0.25500000000E-02 0. -1.
   -5000001    1    1    2    0    0 -0.29043179912E+02  0.17413560046E+03 -0.14126527766E+03  0.33707950445E+03  0.25000000000E+03 0.  0.
    5000001    1    1    2    0    0  0.29043179912E+02 -0.17413560046E+03 -0.14445252348E+03  0.33842760701E+03  0.25000000000E+03 0.  0.
<mgrwt>
<rscale>  0 0.61210718E+03</rscale>
<asrwt>0</asrwt>
<pdfrwt beam="1">  1        2 0.29983793E-01 0.61210718E+03</pdfrwt>
<pdfrwt beam="2">  1       -2 0.73940378E-01 0.61210718E+03</pdfrwt>
<totfact> 0.29659431E+02</totfact>
</mgrwt>
</event>
<event>
 4    1  0.1714834E-005  0.7028156E+03  0.7818608E-02  0.9712429E-01
          2   -1    0    0  501    0  0.00000000000E+00  0.00000000000E+00  0.88645709090E+02  0.88645709127E+02  0.25500000000E-02 0.  1.
         -2   -1    0    0    0  501 -0.00000000000E+00 -0.00000000000E+00 -0.13930447692E+04  0.13930447692E+04  0.25500000000E-02 0. -1.
   -5000001    1    1    2    0    0  0.16125890675E+03  0.15192460954E+03 -0.88219781655E+03  0.94332312042E+03  0.25000000000E+03 0.  0.
    5000001    1    1    2    0    0 -0.16125890675E+03 -0.15192460954E+03 -0.42220124352E+03  0.53836735787E+03  0.25000000000E+03 0.  0.
<mgrwt>
<rscale>  0 0.70281560E+03</rscale>
<asrwt>0</asrwt>
<pdfrwt beam="1">  1        2 0.13637802E-01 0.70281560E+03</pdfrwt>
<pdfrwt beam="2">  1       -2 0.21431456E+00 0.70281560E+03</pdfrwt>
<totfact> 0.49520385E+01</totfact>
</mgrwt>
</event>
<event>
 4    1  0.1714834E-005  0.6686724E+03  0.7818608E-02  0.9772359E-01
          2   -1    0    0  501    0  0.00000000000E+00  0.00000000000E+00  0.15494272643E+04  0.15494272643E+04  0.25500000000E-02 0.  1.
         -2   -1    0    0    0  501 -0.00000000000E+00 -0.00000000000E+00 -0.72143240829E+02  0.72143240874E+02  0.25500000000E-02 0. -1.
   -5000001    1    1    2    0    0  0.20323880391E+03  0.17136297635E+02  0.95117798054E+03  0.10044098839E+04  0.25000000000E+03 0.  0.
    5000001    1    1    2    0    0 -0.20323880391E+03 -0.17136297635E+02  0.52610604295E+03  0.61716062134E+03  0.25000000000E+03 0.  0.
<mgrwt>
<rscale>  0 0.66867243E+03</rscale>
<asrwt>0</asrwt>
<pdfrwt beam="1">  1        2 0.23837342E+00 0.66867243E+03</pdfrwt>
<pdfrwt beam="2">  1       -2 0.11098960E-01 0.66867243E+03</pdfrwt>
<totfact> 0.70109580E+02</totfact>
</mgrwt>
</event>
<event>
 4    1  0.1714834E-005  0.8475409E+03  0.7818608E-02  0.9493643E-01
         -2   -1    0    0    0  501 -0.00000000000E+00  0.00000000000E+00  0.95474975063E+02  0.95474975097E+02  0.25500000000E-02 0. -1.
          2   -1    0    0  501    0  0.00000000000E+00 -0.00000000000E+00 -0.18809262626E+04  0.18809262626E+04  0.25500000000E-02 0.  1.
   -5000001    1    1    2    0    0  0.22710900180E+03 -0.23118049705E+03 -0.63665457651E+03  0.75686985058E+03  0.25000000000E+03 0.  0.
    5000001    1    1    2    0    0 -0.22710900180E+03  0.23118049705E+03 -0.11487967110E+04  0.12195313871E+04  0.25000000000E+03 0.  0.
<mgrwt>
<rscale>  0 0.84754089E+03</rscale>
<asrwt>0</asrwt>
<pdfrwt beam="1">  1        2 0.28937324E+00 0.84754089E+03</pdfrwt>
<pdfrwt beam="2">  1       -2 0.14688459E-01 0.84754089E+03</pdfrwt>
<totfact> 0.28626462E+02</totfact>
</mgrwt>
</event>
<event>
 4    1  0.1714834E-005  0.6689810E+03  0.7818608E-02  0.9771800E-01
          2   -1    0    0  501    0  0.00000000000E+00  0.00000000000E+00  0.31360458030E+03  0.31360458031E+03  0.25500000000E-02 0.  1.
         -2   -1    0    0    0  501 -0.00000000000E+00 -0.00000000000E+00 -0.35676741828E+03  0.35676741829E+03  0.25500000000E-02 0. -1.
   -5000001    1    1    2    0    0 -0.21250007009E+03  0.56262421294E+02 -0.54239928721E+02  0.33728876309E+03  0.25000000000E+03 0.  0.
    5000001    1    1    2    0    0  0.21250007009E+03 -0.56262421294E+02  0.11077090736E+02  0.33308323551E+03  0.25000000000E+03 0.  0.
<mgrwt>
<rscale>  0 0.66898101E+03</rscale>
<asrwt>0</asrwt>
<pdfrwt beam="1">  1        2 0.48246858E-01 0.66898101E+03</pdfrwt>
<pdfrwt beam="2">  1       -2 0.54887295E-01 0.66898101E+03</pdfrwt>
<totfact> 0.32940431E+02</totfact>
</mgrwt>
</event>
<event>
 4    1  0.1714834E-005  0.5714244E+03  0.7818608E-02  0.9966532E-01
         -2   -1    0    0    0  501 -0.00000000000E+00  0.00000000000E+00  0.29554066974E+03  0.29554066975E+03  0.25500000000E-02 0. -1.
          2   -1    0    0  501    0  0.00000000000E+00 -0.00000000000E+00 -0.27621054560E+03  0.27621054561E+03  0.25500000000E-02 0.  1.
   -5000001    1    1    2    0    0 -0.14212056005E+02 -0.71507299860E+02  0.12727451515E+03  0.28985182193E+03  0.25000000000E+03 0.  0.
    5000001    1    1    2    0    0  0.14212056005E+02  0.71507299860E+02 -0.10794439100E+03  0.28189939343E+03  0.25000000000E+03 0.  0.
<mgrwt>
<rscale>  0 0.57142436E+03</rscale>
<asrwt>0</asrwt>
<pdfrwt beam="1">  1        2 0.42493930E-01 0.57142436E+03</pdfrwt>
<pdfrwt beam="2">  1       -2 0.45467795E-01 0.57142436E+03</pdfrwt>
<totfact> 0.55646772E+02</totfact>
</mgrwt>
</event>
<event>
 4    1  0.1714834E-005  0.1547845E+04  0.7818608E-02  0.8853246E-01
         -2   -1    0    0    0  501 -0.00000000000E+00  0.00000000000E+00  0.20739790894E+03  0.20739790895E+03  0.25500000000E-02 0. -1.
          2   -1    0    0  501    0  0.00000000000E+00 -0.00000000000E+00 -0.28879545596E+04  0.28879545596E+04  0.25500000000E-02 0.  1.
   -5000001    1    1    2    0    0 -0.58834676523E+03 -0.43423487073E+03 -0.12567674094E+04  0.14753562825E+04  0.25000000000E+03 0.  0.
    5000001    1    1    2    0    0  0.58834676523E+03  0.43423487073E+03 -0.14237892412E+04  0.16199961860E+04  0.25000000000E+03 0.  0.
<mgrwt>
<rscale>  0 0.15478446E+04</rscale>
<asrwt>0</asrwt>
<pdfrwt beam="1">  1        2 0.44430067E+00 0.15478446E+04</pdfrwt>
<pdfrwt beam="2">  1       -2 0.31907373E-01 0.15478446E+04</pdfrwt>
<totfact> 0.18070125E+01</totfact>
</mgrwt>
</event>
<event>
 4    1  0.1714834E-005  0.7594822E+03  0.7818608E-02  0.9620591E-01
         -2   -1    0    0    0  501 -0.00000000000E+00  0.00000000000E+00  0.11858047588E+03  0.11858047591E+03  0.25500000000E-02 0. -1.
          2   -1    0    0  501    0  0.00000000000E+00 -0.00000000000E+00 -0.12160795507E+04  0.12160795507E+04  0.25500000000E-02 0.  1.
   -5000001    1    1    2    0    0  0.19809416266E+03  0.11515826052E+03 -0.24845410110E+03  0.42039524569E+03  0.25000000000E+03 0.  0.
    5000001    1    1    2    0    0 -0.19809416266E+03 -0.11515826052E+03 -0.84904497375E+03  0.91426478096E+03  0.25000000000E+03 0.  0.
<mgrwt>
<rscale>  0 0.75948217E+03</rscale>
<asrwt>0</asrwt>
<pdfrwt beam="1">  1        2 0.18708915E+00 0.75948217E+03</pdfrwt>
<pdfrwt beam="2">  1       -2 0.18243151E-01 0.75948217E+03</pdfrwt>
<totfact> 0.46771577E+02</totfact>
</mgrwt>
</event>
<event>
 4    1  0.1714834E-005  0.8134769E+03  0.7818608E-02  0.9540712E-01
         -2   -1    0    0    0  501 -0.00000000000E+00  0.00000000000E+00  0.21437746213E+03  0.21437746215E+03  0.25500000000E-02 0. -1.
          2   -1    0    0  501    0  0.00000000000E+00 -0.00000000000E+00 -0.77170500224E+03  0.77170500225E+03  0.25500000000E-02 0.  1.
   -5000001    1    1    2    0    0  0.10893256355E+03 -0.30139413560E+03 -0.29710454988E+03  0.50346384372E+03  0.25000000000E+03 0.  0.
    5000001    1    1    2    0    0 -0.10893256355E+03  0.30139413560E+03 -0.26022299023E+03  0.48261862067E+03  0.25000000000E+03 0.  0.
<mgrwt>
<rscale>  0 0.81347688E+03</rscale>
<asrwt>0</asrwt>
<pdfrwt beam="1">  1        2 0.11872385E+00 0.81347688E+03</pdfrwt>
<pdfrwt beam="2">  1       -2 0.32981148E-01 0.81347688E+03</pdfrwt>
<totfact> 0.31132102E+02</totfact>
</mgrwt>
</event>
<event>
 4    1  0.1714834E-005  0.1379733E+04  0.7818608E-02  0.8968621E-01
         -2   -1    0    0    0  501 -0.00000000000E+00  0.00000000000E+00  0.59763507983E+03  0.59763507984E+03  0.25500000000E-02 0. -1.
          2   -1    0    0  501    0  0.00000000000E+00 -0.00000000000E+00 -0.79633161069E+03  0.79633161069E+03  0.25500000000E-02 0.  1.
   -5000001    1    1    2    0    0 -0.48010640210E+03  0.40042270228E+03 -0.25114878606E+03  0.71862104797E+03  0.25000000000E+03 0.  0.
    5000001    1    1    2    0    0  0.48010640210E+03 -0.40042270228E+03  0.52452255200E+02  0.67534564256E+03  0.25000000000E+03 0.  0.
<mgrwt>
<rscale>  0 0.13797329E+04</rscale>
<asrwt>0</asrwt>
<pdfrwt beam="1">  1        2 0.12251256E+00 0.13797329E+04</pdfrwt>
<pdfrwt beam="2">  1       -2 0.91943859E-01 0.13797329E+04</pdfrwt>
<totfact> 0.33988194E+01</totfact>
</mgrwt>
</event>
<event>
 4    1  0.1714834E-005  0.5740835E+03  0.7818608E-02  0.9960683E-01
         -2   -1    0    0    0  501 -0.00000000000E+00  0.00000000000E+00  0.49002472252E+03  0.49002472252E+03  0.25500000000E-02 0. -1.
          2   -1    0    0  501    0  0.00000000000E+00 -0.00000000000E+00 -0.16814041981E+03  0.16814041983E+03  0.25500000000E-02 0.  1.
   -5000001    1    1    2    0    0  0.12515545914E+03  0.34549644081E+02  0.97778463227E+02  0.29819154034E+03  0.25000000000E+03 0.  0.
    5000001    1    1    2    0    0 -0.12515545914E+03 -0.34549644081E+02  0.22410583948E+03  0.35997360201E+03  0.25000000000E+03 0.  0.
<mgrwt>
<rscale>  0 0.57408349E+03</rscale>
<asrwt>0</asrwt>
<pdfrwt beam="1">  1        2 0.25867757E-01 0.57408349E+03</pdfrwt>
<pdfrwt beam="2">  1       -2 0.75388418E-01 0.57408349E+03</pdfrwt>
<totfact> 0.33616892E+02</totfact>
</mgrwt>
</event>
<event>
 4    1  0.1714834E-005  0.6660512E+03  0.7818608E-02  0.9777118E-01
         -2   -1    0    0    0  501 -0.00000000000E+00  0.00000000000E+00  0.23595832280E+03  0.23595832282E+03  0.25500000000E-02 0. -1.
          2   -1    0    0  501    0  0.00000000000E+00 -0.00000000000E+00 -0.47002391089E+03  0.47002391090E+03  0.25500000000E-02 0.  1.
   -5000001    1    1    2    0    0 -0.92337032319E+02  0.11310800399E+03 -0.29147944673E+03  0.41082820737E+03  0.25000000000E+03 0.  0.
    5000001    1    1    2    0    0  0.92337032319E+02 -0.11310800399E+03  0.57413858638E+02  0.29515402635E+03  0.25000000000E+03 0.  0.
<mgrwt>
<rscale>  0 0.66605121E+03</rscale>
<asrwt>0</asrwt>
<pdfrwt beam="1">  1        2 0.72311371E-01 0.66605121E+03</pdfrwt>
<pdfrwt beam="2">  1       -2 0.36301280E-01 0.66605121E+03</pdfrwt>
<totfact> 0.47598581E+02</totfact>
</mgrwt>
</event>
<event>
 4    1  0.1714834E-005  0.6329847E+03  0.7818608E-02  0.9839242E-01
         -2   -1    0    0    0  501 -0.00000000000E+00  0.00000000000E+00  0.56168281779E+02  0.56168281837E+02  0.25500000000E-02 0. -1.
          2   -1    0    0  501    0  0.00000000000E+00 -0.00000000000E+00 -0.17833449340E+04  0.17833449340E+04  0.25500000000E-02 0.  1.
   -5000001    1    1    2    0    0  0.14014592148E+03  0.98137573189E+02 -0.11298658197E+04  0.11697728981E+04  0.25000000000E+03 0.  0.
    5000001    1    1    2    0    0 -0.14014592148E+03 -0.98137573189E+02 -0.59731083256E+03  0.66974031779E+03  0.25000000000E+03 0.  0.
<mgrwt>
<rscale>  0 0.63298474E+03</rscale>
<asrwt>0</asrwt>
<pdfrwt beam="1">  1        2 0.27436072E+00 0.63298474E+03</pdfrwt>
<pdfrwt beam="2">  1       -2 0.86412755E-02 0.63298474E+03</pdfrwt>
<totfact> 0.78558183E+02</totfact>
</mgrwt>
</event>
<event>
 4    1  0.1714834E-005  0.6189786E+03  0.7818608E-02  0.9866795E-01
         -2   -1    0    0    0  501 -0.00000000000E+00  0.00000000000E+00  0.67153353990E+02  0.67153354038E+02  0.25500000000E-02 0. -1.
          2   -1    0    0  501    0  0.00000000000E+00 -0.00000000000E+00 -0.14263418255E+04  0.14263418255E+04  0.25500000000E-02 0.  1.
   -5000001    1    1    2    0    0 -0.66227224382E+02 -0.14379009613E+03 -0.89837892049E+03  0.94585745320E+03  0.25000000000E+03 0.  0.
    5000001    1    1    2    0    0  0.66227224382E+02  0.14379009613E+03 -0.46080955098E+03  0.54763772630E+03  0.25000000000E+03 0.  0.
<mgrwt>
<rscale>  0 0.61897863E+03</rscale>
<asrwt>0</asrwt>
<pdfrwt beam="1">  1        2 0.21943718E+00 0.61897863E+03</pdfrwt>
<pdfrwt beam="2">  1       -2 0.10331286E-01 0.61897863E+03</pdfrwt>
<totfact> 0.92466381E+02</totfact>
</mgrwt>
</event>
<event>
 4    1  0.1714834E-005  0.8238090E+03  0.7818608E-02  0.9526180E-01
         -2   -1    0    0    0  501 -0.00000000000E+00  0.00000000000E+00  0.12262655831E+03  0.12262655834E+03  0.25500000000E-02 0. -1.
          2   -1    0    0  501    0  0.00000000000E+00 -0.00000000000E+00 -0.13835937045E+04  0.13835937045E+04  0.25500000000E-02 0.  1.
   -5000001    1    1    2    0    0  0.85901428627E+02  0.16399451136E+03 -0.13685294302E+03  0.33985582710E+03  0.25000000000E+03 0.  0.
    5000001    1    1    2    0    0 -0.85901428627E+02 -0.16399451136E+03 -0.11241142031E+04  0.11663644357E+04  0.25000000000E+03 0.  0.
<mgrwt>
<rscale>  0 0.82380904E+03</rscale>
<asrwt>0</asrwt>
<pdfrwt beam="1">  1        2 0.21286056E+00 0.82380904E+03</pdfrwt>
<pdfrwt beam="2">  1       -2 0.18865625E-01 0.82380904E+03</pdfrwt>
<totfact> 0.35190796E+02</totfact>
</mgrwt>
</event>
<event>
 4    1  0.1714834E-005  0.6343860E+03  0.7818608E-02  0.9836527E-01
         -2   -1    0    0    0  501 -0.00000000000E+00  0.00000000000E+00  0.17494113078E+03  0.17494113080E+03  0.25500000000E-02 0. -1.
          2   -1    0    0  501    0  0.00000000000E+00 -0.00000000000E+00 -0.57511577102E+03  0.57511577103E+03  0.25500000000E-02 0.  1.
   -5000001    1    1    2    0    0  0.15965643197E+03 -0.10148716001E+03 -0.14311908591E+03  0.34463443337E+03  0.25000000000E+03 0.  0.
    5000001    1    1    2    0    0 -0.15965643197E+03  0.10148716001E+03 -0.25705555433E+03  0.40542246845E+03  0.25000000000E+03 0.  0.
<mgrwt>
<rscale>  0 0.63438601E+03</rscale>
<asrwt>0</asrwt>
<pdfrwt beam="1">  1        2 0.88479348E-01 0.63438601E+03</pdfrwt>
<pdfrwt beam="2">  1       -2 0.26914020E-01 0.63438601E+03</pdfrwt>
<totfact> 0.65776245E+02</totfact>
</mgrwt>
</event>
<event>
 4    1  0.1714834E-005  0.1169788E+04  0.7818608E-02  0.9139720E-01
         -2   -1    0    0    0  501 -0.00000000000E+00  0.00000000000E+00  0.31775338789E+03  0.31775338790E+03  0.25500000000E-02 0. -1.
          2   -1    0    0  501    0  0.00000000000E+00 -0.00000000000E+00 -0.10766234845E+04  0.10766234845E+04  0.25500000000E-02 0.  1.
   -5000001    1    1    2    0    0 -0.11746920325E+03 -0.49140730135E+03 -0.19354318140E+03  0.59601938945E+03  0.25000000000E+03 0.  0.
    5000001    1    1    2    0    0  0.11746920325E+03  0.49140730135E+03 -0.56532691520E+03  0.79835748295E+03  0.25000000000E+03 0.  0.
<mgrwt>
<rscale>  0 0.11697876E+04</rscale>
<asrwt>0</asrwt>
<pdfrwt beam="1">  1        2 0.16563438E+00 0.11697876E+04</pdfrwt>
<pdfrwt beam="2">  1       -2 0.48885137E-01 0.11697876E+04</pdfrwt>
<totfact> 0.88217624E+01</totfact>
</mgrwt>
</event>
<event>
 4    1  0.1714834E-005  0.6806293E+03  0.7818608E-02  0.9750944E-01
         -2   -1    0    0    0  501 -0.00000000000E+00  0.00000000000E+00  0.16073963399E+03  0.16073963401E+03  0.25500000000E-02 0. -1.
          2   -1    0    0  501    0  0.00000000000E+00 -0.00000000000E+00 -0.72050720243E+03  0.72050720244E+03  0.25500000000E-02 0.  1.
   -5000001    1    1    2    0    0  0.16640814854E+03  0.15021834457E+03 -0.20829856579E+03  0.39515252177E+03  0.25000000000E+03 0.  0.
    5000001    1    1    2    0    0 -0.16640814854E+03 -0.15021834457E+03 -0.35146900265E+03  0.48609431469E+03  0.25000000000E+03 0.  0.
<mgrwt>
<rscale>  0 0.68062931E+03</rscale>
<asrwt>0</asrwt>
<pdfrwt beam="1">  1        2 0.11084726E+00 0.68062931E+03</pdfrwt>
<pdfrwt beam="2">  1       -2 0.24729175E-01 0.68062931E+03</pdfrwt>
<totfact> 0.58073145E+02</totfact>
</mgrwt>
</event>
<event>
 4    1  0.1714834E-005  0.6080210E+03  0.7818608E-02  0.9888903E-01
          2   -1    0    0  501    0  0.00000000000E+00  0.00000000000E+00  0.44646112121E+03  0.44646112121E+03  0.25500000000E-02 0.  1.
         -2   -1    0    0    0  501 -0.00000000000E+00 -0.00000000000E+00 -0.20701104039E+03  0.20701104040E+03  0.25500000000E-02 0. -1.
   -5000001    1    1    2    0    0 -0.15550916333E+03  0.75742441732E+02  0.12137745003E+03  0.32734156891E+03  0.25000000000E+03 0.  0.
    5000001    1    1    2    0    0  0.15550916333E+03 -0.75742441732E+02  0.11807263079E+03  0.32613059271E+03  0.25000000000E+03 0.  0.
<mgrwt>
<rscale>  0 0.60802099E+03</rscale>
<asrwt>0</asrwt>
<pdfrwt beam="1">  1        2 0.68686326E-01 0.60802099E+03</pdfrwt>
<pdfrwt beam="2">  1       -2 0.31847852E-01 0.60802099E+03</pdfrwt>
<totfact> 0.64710788E+02</totfact>
</mgrwt>
</event>
<event>
 4    1  0.1714834E-005  0.7693998E+03  0.7818608E-02  0.9605397E-01
         -2   -1    0    0    0  501 -0.00000000000E+00  0.00000000000E+00  0.29077068824E+03  0.29077068825E+03  0.25500000000E-02 0. -1.
          2   -1    0    0  501    0  0.00000000000E+00 -0.00000000000E+00 -0.50897150171E+03  0.50897150172E+03  0.25500000000E-02 0.  1.
   -5000001    1    1    2    0    0  0.19183458665E+03 -0.63414741019E+02 -0.32879326361E+03  0.45981186175E+03  0.25000000000E+03 0.  0.
    5000001    1    1    2    0    0 -0.19183458665E+03  0.63414741019E+02  0.11059245013E+03  0.33993032822E+03  0.25000000000E+03 0.  0.
<mgrwt>
<rscale>  0 0.76939975E+03</rscale>
<asrwt>0</asrwt>
<pdfrwt beam="1">  1        2 0.78303308E-01 0.76939975E+03</pdfrwt>
<pdfrwt beam="2">  1       -2 0.44733952E-01 0.76939975E+03</pdfrwt>
<totfact> 0.28795248E+02</totfact>
</mgrwt>
</event>
<event>
 4    1  0.1714834E-005  0.1341334E+04  0.7818608E-02  0.8997414E-01
         -2   -1    0    0    0  501 -0.00000000000E+00  0.00000000000E+00  0.39084262390E+03  0.39084262391E+03  0.25500000000E-02 0.  1.
          2   -1    0    0  501    0  0.00000000000E+00 -0.00000000000E+00 -0.11508319822E+04  0.11508319822E+04  0.25500000000E-02 0. -1.
   -5000001    1    1    2    0    0  0.14562165710E+03 -0.56793422391E+03 -0.14016869616E+03  0.65261183953E+03  0.25000000000E+03 0.  0.
    5000001    1    1    2    0    0 -0.14562165710E+03  0.56793422391E+03 -0.61982066214E+03  0.88906276658E+03  0.25000000000E+03 0.  0.
<mgrwt>
<rscale>  0 0.13413340E+04</rscale>
<asrwt>0</asrwt>
<pdfrwt beam="1">  1        2 0.17705107E+00 0.13413340E+04</pdfrwt>
<pdfrwt beam="2">  1       -2 0.60129635E-01 0.13413340E+04</pdfrwt>
<totfact> 0.51099135E+01</totfact>
</mgrwt>
</event>
<event>
 4    1  0.1714834E-005  0.6822518E+03  0.7818608E-02  0.9748075E-01
          2   -1    0    0  501    0  0.00000000000E+00  0.00000000000E+00  0.16735265541E+04  0.16735265541E+04  0.25500000000E-02 0.  1.
         -2   -1    0    0    0  501 -0.00000000000E+00 -0.00000000000E+00 -0.69533931520E+02  0.69533931567E+02  0.25500000000E-02 0. -1.
   -5000001    1    1    2    0    0  0.13457050821E+03 -0.18690920803E+03  0.72871993263E+03  0.80410012682E+03  0.25000000000E+03 0.  0.
    5000001    1    1    2    0    0 -0.13457050821E+03  0.18690920803E+03  0.87527268990E+03  0.93896035881E+03  0.25000000000E+03 0.  0.
<mgrwt>
<rscale>  0 0.68225180E+03</rscale>
<asrwt>0</asrwt>
<pdfrwt beam="1">  1        2 0.25746559E+00 0.68225180E+03</pdfrwt>
<pdfrwt beam="2">  1       -2 0.10697529E-01 0.68225180E+03</pdfrwt>
<totfact> 0.63612331E+02</totfact>
</mgrwt>
</event>
<event>
 4    1  0.1714834E-005  0.8558287E+03  0.7818608E-02  0.9482547E-01
          2   -1    0    0  501    0  0.00000000000E+00  0.00000000000E+00  0.15982965253E+04  0.15982965253E+04  0.25500000000E-02 0.  1.
         -2   -1    0    0    0  501 -0.00000000000E+00 -0.00000000000E+00 -0.11456615245E+03  0.11456615248E+03  0.25500000000E-02 0. -1.
   -5000001    1    1    2    0    0  0.13647931193E+03  0.27157489183E+03  0.40558594221E+03  0.56513669229E+03  0.25000000000E+03 0.  0.
    5000001    1    1    2    0    0 -0.13647931193E+03 -0.27157489183E+03  0.10781444306E+04  0.11477259855E+04  0.25000000000E+03 0.  0.
<mgrwt>
<rscale>  0 0.85582868E+03</rscale>
<asrwt>0</asrwt>
<pdfrwt beam="1">  1        2 0.24589178E+00 0.85582868E+03</pdfrwt>
<pdfrwt beam="2">  1       -2 0.17625562E-01 0.85582868E+03</pdfrwt>
<totfact> 0.29957809E+02</totfact>
</mgrwt>
</event>
<event>
 4    1  0.1714834E-005  0.7797786E+03  0.7818608E-02  0.9589757E-01
         -2   -1    0    0    0  501 -0.00000000000E+00  0.00000000000E+00  0.20658328988E+03  0.20658328990E+03  0.25500000000E-02 0. -1.
          2   -1    0    0  501    0  0.00000000000E+00 -0.00000000000E+00 -0.73584678561E+03  0.73584678561E+03  0.25500000000E-02 0.  1.
   -5000001    1    1    2    0    0 -0.54077738542E+02 -0.26851120591E+03 -0.11914389598E+03  0.38950986824E+03  0.25000000000E+03 0.  0.
    5000001    1    1    2    0    0  0.54077738542E+02  0.26851120591E+03 -0.41011959974E+03  0.55292020726E+03  0.25000000000E+03 0.  0.
<mgrwt>
<rscale>  0 0.77977856E+03</rscale>
<asrwt>0</asrwt>
<pdfrwt beam="1">  1        2 0.11320720E+00 0.77977856E+03</pdfrwt>
<pdfrwt beam="2">  1       -2 0.31782045E-01 0.77977856E+03</pdfrwt>
<totfact> 0.35549230E+02</totfact>
</mgrwt>
</event>
<event>
 4    1  0.1714834E-005  0.7551261E+03  0.7818608E-02  0.9627342E-01
          2   -1    0    0  501    0  0.00000000000E+00  0.00000000000E+00  0.81387284413E+03  0.81387284413E+03  0.25500000000E-02 0.  1.
         -2   -1    0    0    0  501 -0.00000000000E+00 -0.00000000000E+00 -0.17515496944E+03  0.17515496946E+03  0.25500000000E-02 0. -1.
   -5000001    1    1    2    0    0  0.21837152738E+03  0.16784452922E+03  0.40419975271E+03  0.54930442384E+03  0.25000000000E+03 0.  0.
    5000001    1    1    2    0    0 -0.21837152738E+03 -0.16784452922E+03  0.23451812197E+03  0.43972338975E+03  0.25000000000E+03 0.  0.
<mgrwt>
<rscale>  0 0.75512614E+03</rscale>
<asrwt>0</asrwt>
<pdfrwt beam="1">  1        2 0.12521120E+00 0.75512614E+03</pdfrwt>
<pdfrwt beam="2">  1       -2 0.26946919E-01 0.75512614E+03</pdfrwt>
<totfact> 0.42313399E+02</totfact>
</mgrwt>
</event>
<event>
 4    1  0.1714834E-005  0.6184911E+03  0.7818608E-02  0.9867769E-01
         -2   -1    0    0    0  501 -0.00000000000E+00  0.00000000000E+00  0.84961278956E+02  0.84961278995E+02  0.25500000000E-02 0. -1.
          2   -1    0    0  501    0  0.00000000000E+00 -0.00000000000E+00 -0.11256046633E+04  0.11256046633E+04  0.25500000000E-02 0.  1.
   -5000001    1    1    2    0    0  0.67655120244E+02  0.11104229513E+03 -0.76963765879E+03  0.81960339948E+03  0.25000000000E+03 0.  0.
    5000001    1    1    2    0    0 -0.67655120244E+02 -0.11104229513E+03 -0.27100572553E+03  0.39096254280E+03  0.25000000000E+03 0.  0.
<mgrwt>
<rscale>  0 0.61849111E+03</rscale>
<asrwt>0</asrwt>
<pdfrwt beam="1">  1        2 0.17316994E+00 0.61849111E+03</pdfrwt>
<pdfrwt beam="2">  1       -2 0.13070967E-01 0.61849111E+03</pdfrwt>
<totfact> 0.93705871E+02</totfact>
</mgrwt>
</event>
<event>
 4    1  0.1714834E-005  0.5965192E+03  0.7818608E-02  0.9912654E-01
          2   -1    0    0  501    0  0.00000000000E+00  0.00000000000E+00  0.64049029244E+03  0.64049029244E+03  0.25500000000E-02 0.  1.
         -2   -1    0    0    0  501 -0.00000000000E+00 -0.00000000000E+00 -0.13889172360E+03  0.13889172362E+03  0.25500000000E-02 0. -1.
   -5000001    1    1    2    0    0 -0.46845144283E+02  0.11061734326E+03  0.39409232532E+03  0.48191225867E+03  0.25000000000E+03 0.  0.
    5000001    1    1    2    0    0  0.46845144283E+02 -0.11061734326E+03  0.10750624351E+03  0.29746975740E+03  0.25000000000E+03 0.  0.
<mgrwt>
<rscale>  0 0.59651924E+03</rscale>
<asrwt>0</asrwt>
<pdfrwt beam="1">  1        2 0.98536969E-01 0.59651924E+03</pdfrwt>
<pdfrwt beam="2">  1       -2 0.21367957E-01 0.59651924E+03</pdfrwt>
<totfact> 0.87348044E+02</totfact>
</mgrwt>
</event>
<event>
 4    1  0.1714834E-005  0.6575543E+03  0.7818608E-02  0.9792706E-01
          2   -1    0    0  501    0  0.00000000000E+00  0.00000000000E+00  0.36391515706E+03  0.36391515707E+03  0.25500000000E-02 0.  1.
         -2   -1    0    0    0  501 -0.00000000000E+00 -0.00000000000E+00 -0.29703190922E+03  0.29703190923E+03  0.25500000000E-02 0. -1.
   -5000001    1    1    2    0    0 -0.15696997138E+03  0.10476596383E+03 -0.66968418539E+02  0.32031273496E+03  0.25000000000E+03 0.  0.
    5000001    1    1    2    0    0  0.15696997138E+03 -0.10476596383E+03  0.13385166638E+03  0.34063433134E+03  0.25000000000E+03 0.  0.
<mgrwt>
<rscale>  0 0.65755430E+03</rscale>
<asrwt>0</asrwt>
<pdfrwt beam="1">  1        2 0.55986947E-01 0.65755430E+03</pdfrwt>
<pdfrwt beam="2">  1       -2 0.45697217E-01 0.65755430E+03</pdfrwt>
<totfact> 0.40525602E+02</totfact>
</mgrwt>
</event>
<event>
 4    1  0.1714834E-005  0.6907282E+03  0.7818608E-02  0.9733221E-01
         -2   -1    0    0    0  501 -0.00000000000E+00  0.00000000000E+00  0.40040623531E+02  0.40040623613E+02  0.25500000000E-02 0.  1.
          2   -1    0    0  501    0  0.00000000000E+00 -0.00000000000E+00 -0.29788839249E+04  0.29788839249E+04  0.25500000000E-02 0. -1.
   -5000001    1    1    2    0    0  0.23687761387E+03  0.25613868694E+02 -0.14827472170E+04  0.15224343610E+04  0.25000000000E+03 0.  0.
    5000001    1    1    2    0    0 -0.23687761387E+03 -0.25613868694E+02 -0.14560960844E+04  0.14964901875E+04  0.25000000000E+03 0.  0.
<mgrwt>
<rscale>  0 0.69072822E+03</rscale>
<asrwt>0</asrwt>
<pdfrwt beam="1">  1        2 0.45828966E+00 0.69072822E+03</pdfrwt>
<pdfrwt beam="2">  1       -2 0.61600983E-02 0.69072822E+03</pdfrwt>
<totfact> 0.28382097E+02</totfact>
</mgrwt>
</event>
<event>
 4    1  0.1714834E-005  0.6971856E+03  0.7818608E-02  0.9722057E-01
         -2   -1    0    0    0  501 -0.00000000000E+00  0.00000000000E+00  0.28547163680E+03  0.28547163682E+03  0.25500000000E-02 0. -1.
          2   -1    0    0  501    0  0.00000000000E+00 -0.00000000000E+00 -0.42567082872E+03  0.42567082873E+03  0.25500000000E-02 0.  1.
   -5000001    1    1    2    0    0 -0.19039602802E+03 -0.15088345561E+03 -0.70808900822E+02  0.35571106969E+03  0.25000000000E+03 0.  0.
    5000001    1    1    2    0    0  0.19039602802E+03  0.15088345561E+03 -0.69390291095E+02  0.35543139586E+03  0.25000000000E+03 0.  0.
<mgrwt>
<rscale>  0 0.69718562E+03</rscale>
<asrwt>0</asrwt>
<pdfrwt beam="1">  1        2 0.65487820E-01 0.69718562E+03</pdfrwt>
<pdfrwt beam="2">  1       -2 0.43918713E-01 0.69718562E+03</pdfrwt>
<totfact> 0.36745118E+02</totfact>
</mgrwt>
</event>
<event>
 4    1  0.1714834E-005  0.6344286E+03  0.7818608E-02  0.9836445E-01
         -2   -1    0    0    0  501 -0.00000000000E+00  0.00000000000E+00  0.16560021962E+03  0.16560021964E+03  0.25500000000E-02 0. -1.
          2   -1    0    0  501    0  0.00000000000E+00 -0.00000000000E+00 -0.60763757850E+03  0.60763757850E+03  0.25500000000E-02 0.  1.
   -5000001    1    1    2    0    0  0.17579302469E+03 -0.82413415530E+02 -0.24628501340E+03  0.40106292077E+03  0.25000000000E+03 0.  0.
    5000001    1    1    2    0    0 -0.17579302469E+03  0.82413415530E+02 -0.19575234547E+03  0.37217487737E+03  0.25000000000E+03 0.  0.
<mgrwt>
<rscale>  0 0.63442861E+03</rscale>
<asrwt>0</asrwt>
<pdfrwt beam="1">  1        2 0.93482703E-01 0.63442861E+03</pdfrwt>
<pdfrwt beam="2">  1       -2 0.25476957E-01 0.63442861E+03</pdfrwt>
<totfact> 0.68021239E+02</totfact>
</mgrwt>
</event>
<event>
 4    1  0.1714834E-005  0.8976128E+03  0.7818608E-02  0.9428570E-01
         -2   -1    0    0    0  501 -0.00000000000E+00  0.00000000000E+00  0.19836208311E+03  0.19836208313E+03  0.25500000000E-02 0. -1.
          2   -1    0    0  501    0  0.00000000000E+00 -0.00000000000E+00 -0.10154520310E+04  0.10154520310E+04  0.25500000000E-02 0.  1.
   -5000001    1    1    2    0    0 -0.27918374692E+03 -0.19637747810E+03 -0.20606777273E+03  0.47060769799E+03  0.25000000000E+03 0.  0.
    5000001    1    1    2    0    0  0.27918374692E+03  0.19637747810E+03 -0.61102217513E+03  0.74320641612E+03  0.25000000000E+03 0.  0.
<mgrwt>
<rscale>  0 0.89761279E+03</rscale>
<asrwt>0</asrwt>
<pdfrwt beam="1">  1        2 0.15622339E+00 0.89761279E+03</pdfrwt>
<pdfrwt beam="2">  1       -2 0.30517244E-01 0.89761279E+03</pdfrwt>
<totfact> 0.24482380E+02</totfact>
</mgrwt>
</event>
<event>
 4    1  0.1714834E-005  0.8982225E+03  0.7818608E-02  0.9427806E-01
         -2   -1    0    0    0  501 -0.00000000000E+00  0.00000000000E+00  0.97599477362E+02  0.97599477396E+02  0.25500000000E-02 0. -1.
          2   -1    0    0  501    0  0.00000000000E+00 -0.00000000000E+00 -0.20666186119E+04  0.20666186119E+04  0.25500000000E-02 0.  1.
   -5000001    1    1    2    0    0  0.19191658584E+03 -0.22909161557E+03 -0.15226631625E+04  0.15717245467E+04  0.25000000000E+03 0.  0.
    5000001    1    1    2    0    0 -0.19191658584E+03  0.22909161557E+03 -0.44635597202E+03  0.59249354259E+03  0.25000000000E+03 0.  0.
<mgrwt>
<rscale>  0 0.89822246E+03</rscale>
<asrwt>0</asrwt>
<pdfrwt beam="1">  1        2 0.31794129E+00 0.89822246E+03</pdfrwt>
<pdfrwt beam="2">  1       -2 0.15015306E-01 0.89822246E+03</pdfrwt>
<totfact> 0.21735793E+02</totfact>
</mgrwt>
</event>
<event>
 4    1  0.1714834E-005  0.1050585E+04  0.7818608E-02  0.9254740E-01
         -2   -1    0    0    0  501 -0.00000000000E+00  0.00000000000E+00  0.91505641304E+03  0.91505641304E+03  0.25500000000E-02 0. -1.
          2   -1    0    0  501    0  0.00000000000E+00 -0.00000000000E+00 -0.30154694822E+03  0.30154694823E+03  0.25500000000E-02 0.  1.
   -5000001    1    1    2    0    0  0.41169347793E+02 -0.40859676239E+03  0.55182459739E+03  0.73188565754E+03  0.25000000000E+03 0.  0.
    5000001    1    1    2    0    0 -0.41169347793E+02  0.40859676239E+03  0.61684867431E+02  0.48471770373E+03  0.25000000000E+03 0.  0.
<mgrwt>
<rscale>  0 0.10505855E+04</rscale>
<asrwt>0</asrwt>
<pdfrwt beam="1">  1        2 0.46391839E-01 0.10505855E+04</pdfrwt>
<pdfrwt beam="2">  1       -2 0.14077791E+00 0.10505855E+04</pdfrwt>
<totfact> 0.38442640E+01</totfact>
</mgrwt>
</event>
<event>
 4    1  0.1714834E-005  0.6314229E+03  0.7818608E-02  0.9842276E-01
          2   -1    0    0  501    0  0.00000000000E+00  0.00000000000E+00  0.49216918810E+03  0.49216918811E+03  0.25500000000E-02 0.  1.
         -2   -1    0    0    0  501 -0.00000000000E+00 -0.00000000000E+00 -0.20251919367E+03  0.20251919369E+03  0.25500000000E-02 0. -1.
   -5000001    1    1    2    0    0 -0.62322792036E+02 -0.16509638535E+03  0.23027808656E+03  0.38297381636E+03  0.25000000000E+03 0.  0.
    5000001    1    1    2    0    0  0.62322792036E+02  0.16509638535E+03  0.59371907867E+02  0.31171456544E+03  0.25000000000E+03 0.  0.
<mgrwt>
<rscale>  0 0.63142286E+03</rscale>
<asrwt>0</asrwt>
<pdfrwt beam="1">  1        2 0.75718335E-01 0.63142286E+03</pdfrwt>
<pdfrwt beam="2">  1       -2 0.31156800E-01 0.63142286E+03</pdfrwt>
<totfact> 0.60281980E+02</totfact>
</mgrwt>
</event>
<event>
 4    1  0.1714834E-005  0.6338025E+03  0.7818608E-02  0.9837656E-01
         -2   -1    0    0    0  501 -0.00000000000E+00  0.00000000000E+00  0.12268128344E+03  0.12268128346E+03  0.25500000000E-02 0. -1.
          2   -1    0    0  501    0  0.00000000000E+00 -0.00000000000E+00 -0.81859594387E+03  0.81859594388E+03  0.25500000000E-02 0.  1.
   -5000001    1    1    2    0    0 -0.18866576862E+03 -0.33954593792E+02 -0.29696934055E+03  0.43294165417E+03  0.25000000000E+03 0.  0.
    5000001    1    1    2    0    0  0.18866576862E+03  0.33954593792E+02 -0.39894531988E+03  0.50833557317E+03  0.25000000000E+03 0.  0.
<mgrwt>
<rscale>  0 0.63380250E+03</rscale>
<asrwt>0</asrwt>
<pdfrwt beam="1">  1        2 0.12593783E+00 0.63380250E+03</pdfrwt>
<pdfrwt beam="2">  1       -2 0.18874044E-01 0.63380250E+03</pdfrwt>
<totfact> 0.79349997E+02</totfact>
</mgrwt>
</event>
<event>
 4    1  0.1714834E-005  0.9983273E+03  0.7818608E-02  0.9310381E-01
          2   -1    0    0  501    0  0.00000000000E+00  0.00000000000E+00  0.10623794850E+04  0.10623794850E+04  0.25500000000E-02 0.  1.
         -2   -1    0    0    0  501 -0.00000000000E+00 -0.00000000000E+00 -0.23453422283E+03  0.23453422285E+03  0.25500000000E-02 0. -1.
   -5000001    1    1    2    0    0 -0.20084357531E+03 -0.37169183125E+03  0.53135451943E+03  0.72341591390E+03  0.25000000000E+03 0.  0.
    5000001    1    1    2    0    0  0.20084357531E+03  0.37169183125E+03  0.29649074278E+03  0.57349779399E+03  0.25000000000E+03 0.  0.
<mgrwt>
<rscale>  0 0.99832729E+03</rscale>
<asrwt>0</asrwt>
<pdfrwt beam="1">  1        2 0.16344300E+00 0.99832729E+03</pdfrwt>
<pdfrwt beam="2">  1       -2 0.36082189E-01 0.99832729E+03</pdfrwt>
<totfact> 0.16568410E+02</totfact>
</mgrwt>
</event>
<event>
 4    1  0.1714834E-005  0.6493323E+03  0.7818608E-02  0.9808033E-01
          2   -1    0    0  501    0  0.00000000000E+00  0.00000000000E+00  0.19460066493E+04  0.19460066493E+04  0.25500000000E-02 0.  1.
         -2   -1    0    0    0  501 -0.00000000000E+00 -0.00000000000E+00 -0.54166374031E+02  0.54166374091E+02  0.25500000000E-02 0. -1.
   -5000001    1    1    2    0    0 -0.19510812447E+03 -0.31297598595E+02  0.11373338996E+04  0.11811329811E+04  0.25000000000E+03 0.  0.
    5000001    1    1    2    0    0  0.19510812447E+03  0.31297598595E+02  0.75450637562E+03  0.81904004222E+03  0.25000000000E+03 0.  0.
<mgrwt>
<rscale>  0 0.64933235E+03</rscale>
<asrwt>0</asrwt>
<pdfrwt beam="1">  1        2 0.29938564E+00 0.64933235E+03</pdfrwt>
<pdfrwt beam="2">  1       -2 0.83332883E-02 0.64933235E+03</pdfrwt>
<totfact> 0.67891266E+02</totfact>
</mgrwt>
</event>
<event>
 4    1  0.1714834E-005  0.5828953E+03  0.7818608E-02  0.9941542E-01
          2   -1    0    0  501    0  0.00000000000E+00  0.00000000000E+00  0.15520684141E+04  0.15520684141E+04  0.25500000000E-02 0.  1.
         -2   -1    0    0    0  501 -0.00000000000E+00 -0.00000000000E+00 -0.54728086893E+02  0.54728086952E+02  0.25500000000E-02 0. -1.
   -5000001    1    1    2    0    0 -0.13569156865E+03 -0.61304179547E+02  0.70326346736E+03  0.76108469224E+03  0.25000000000E+03 0.  0.
    5000001    1    1    2    0    0  0.13569156865E+03  0.61304179547E+02  0.79407685989E+03  0.84571180886E+03  0.25000000000E+03 0.  0.
<mgrwt>
<rscale>  0 0.58289531E+03</rscale>
<asrwt>0</asrwt>
<pdfrwt beam="1">  1        2 0.23877972E+00 0.58289531E+03</pdfrwt>
<pdfrwt beam="2">  1       -2 0.84197071E-02 0.58289531E+03</pdfrwt>
<totfact> 0.10975336E+03</totfact>
</mgrwt>
</event>
<event>
 4    1  0.1714834E-005  0.1247358E+04  0.7818608E-02  0.9072385E-01
         -2   -1    0    0    0  501 -0.00000000000E+00  0.00000000000E+00  0.38102528659E+03  0.38102528660E+03  0.25500000000E-02 0. -1.
          2   -1    0    0  501    0  0.00000000000E+00 -0.00000000000E+00 -0.10208649430E+04  0.10208649430E+04  0.25500000000E-02 0.  1.
   -5000001    1    1    2    0    0 -0.28281362883E+03  0.26459641434E+03  0.15222081658E+03  0.48545441407E+03  0.25000000000E+03 0.  0.
    5000001    1    1    2    0    0  0.28281362883E+03 -0.26459641434E+03 -0.79206047298E+03  0.91643581553E+03  0.25000000000E+03 0.  0.
<mgrwt>
<rscale>  0 0.12473578E+04</rscale>
<asrwt>0</asrwt>
<pdfrwt beam="1">  1        2 0.15705614E+00 0.12473578E+04</pdfrwt>
<pdfrwt beam="2">  1       -2 0.58619275E-01 0.12473578E+04</pdfrwt>
<totfact> 0.65367944E+01</totfact>
</mgrwt>
</event>
<event>
 4    1  0.1714834E-005  0.6261856E+03  0.7818608E-02  0.9852521E-01
          2   -1    0    0  501    0  0.00000000000E+00  0.00000000000E+00  0.47901434047E+03  0.47901434048E+03  0.25500000000E-02 0.  1.
         -2   -1    0    0    0  501 -0.00000000000E+00 -0.00000000000E+00 -0.20464332550E+03  0.20464332552E+03  0.25500000000E-02 0. -1.
   -5000001    1    1    2    0    0  0.59846186554E+02 -0.17826968235E+03  0.15122845961E+03  0.34746466394E+03  0.25000000000E+03 0.  0.
    5000001    1    1    2    0    0 -0.59846186554E+02  0.17826968235E+03  0.12314255536E+03  0.33619300206E+03  0.25000000000E+03 0.  0.
<mgrwt>
<rscale>  0 0.62618556E+03</rscale>
<asrwt>0</asrwt>
<pdfrwt beam="1">  1        2 0.73694514E-01 0.62618556E+03</pdfrwt>
<pdfrwt beam="2">  1       -2 0.31483588E-01 0.62618556E+03</pdfrwt>
<totfact> 0.60997380E+02</totfact>
</mgrwt>
</event>
<event>
 4    1  0.1714834E-005  0.7313393E+03  0.7818608E-02  0.9665090E-01
         -2   -1    0    0    0  501 -0.00000000000E+00  0.00000000000E+00  0.74540598689E+03  0.74540598690E+03  0.25500000000E-02 0. -1.
          2   -1    0    0  501    0  0.00000000000E+00 -0.00000000000E+00 -0.17938452554E+03  0.17938452556E+03  0.25500000000E-02 0.  1.
   -5000001    1    1    2    0    0 -0.28456375644E+02  0.83457653579E+02  0.60150661133E+03  0.65733184065E+03  0.25000000000E+03 0.  0.
    5000001    1    1    2    0    0  0.28456375644E+02 -0.83457653579E+02 -0.35485149985E+02  0.26745867181E+03  0.25000000000E+03 0.  0.
<mgrwt>
<rscale>  0 0.73133932E+03</rscale>
<asrwt>0</asrwt>
<pdfrwt beam="1">  1        2 0.27597620E-01 0.73133932E+03</pdfrwt>
<pdfrwt beam="2">  1       -2 0.11467784E+00 0.73133932E+03</pdfrwt>
<totfact> 0.11731131E+02</totfact>
</mgrwt>
</event>
<event>
 4    1  0.1714834E-005  0.6674166E+03  0.7818608E-02  0.9774636E-01
         -2   -1    0    0    0  501 -0.00000000000E+00  0.00000000000E+00  0.67718132997E+02  0.67718133045E+02  0.25500000000E-02 0. -1.
          2   -1    0    0  501    0  0.00000000000E+00 -0.00000000000E+00 -0.16444815381E+04  0.16444815381E+04  0.25500000000E-02 0.  1.
   -5000001    1    1    2    0    0  0.12026447836E+03  0.18546609473E+03 -0.78825339766E+03  0.85598167970E+03  0.25000000000E+03 0.  0.
    5000001    1    1    2    0    0 -0.12026447836E+03 -0.18546609473E+03 -0.78851000746E+03  0.85621799147E+03  0.25000000000E+03 0.  0.
<mgrwt>
<rscale>  0 0.66741657E+03</rscale>
<asrwt>0</asrwt>
<pdfrwt beam="1">  1        2 0.25299713E+00 0.66741657E+03</pdfrwt>
<pdfrwt beam="2">  1       -2 0.10418176E-01 0.66741657E+03</pdfrwt>
<totfact> 0.68952936E+02</totfact>
</mgrwt>
</event>
<event>
 4    1  0.1714834E-005  0.8223197E+03  0.7818608E-02  0.9528261E-01
          2   -1    0    0  501    0  0.00000000000E+00  0.00000000000E+00  0.91225547823E+03  0.91225547824E+03  0.25500000000E-02 0.  1.
         -2   -1    0    0    0  501 -0.00000000000E+00 -0.00000000000E+00 -0.18531258782E+03  0.18531258783E+03  0.25500000000E-02 0. -1.
   -5000001    1    1    2    0    0  0.17724912725E+03  0.23655383874E+03  0.17863559253E+03  0.42636328014E+03  0.25000000000E+03 0.  0.
    5000001    1    1    2    0    0 -0.17724912725E+03 -0.23655383874E+03  0.54830729789E+03  0.67120478593E+03  0.25000000000E+03 0.  0.
<mgrwt>
<rscale>  0 0.82231970E+03</rscale>
<asrwt>0</asrwt>
<pdfrwt beam="1">  1        2 0.14034699E+00 0.82231970E+03</pdfrwt>
<pdfrwt beam="2">  1       -2 0.28509629E-01 0.82231970E+03</pdfrwt>
<totfact> 0.32547598E+02</totfact>
</mgrwt>
</event>
<event>
 4    1  0.1714834E-005  0.7804535E+03  0.7818608E-02  0.9588749E-01
          2   -1    0    0  501    0  0.00000000000E+00  0.00000000000E+00  0.11752131413E+04  0.11752131413E+04  0.25500000000E-02 0.  1.
         -2   -1    0    0    0  501 -0.00000000000E+00 -0.00000000000E+00 -0.12957388079E+03  0.12957388082E+03  0.25500000000E-02 0. -1.
   -5000001    1    1    2    0    0  0.20361152534E+02  0.25279600453E+03  0.78956211433E+03  0.86615745037E+03  0.25000000000E+03 0.  0.
    5000001    1    1    2    0    0 -0.20361152534E+02 -0.25279600453E+03  0.25607714620E+03  0.43862957179E+03  0.25000000000E+03 0.  0.
<mgrwt>
<rscale>  0 0.78045353E+03</rscale>
<asrwt>0</asrwt>
<pdfrwt beam="1">  1        2 0.18080201E+00 0.78045353E+03</pdfrwt>
<pdfrwt beam="2">  1       -2 0.19934444E-01 0.78045353E+03</pdfrwt>
<totfact> 0.42343405E+02</totfact>
</mgrwt>
</event>
<event>
 4    1  0.1714834E-005  0.6016328E+03  0.7818608E-02  0.9902024E-01
         -2   -1    0    0    0  501 -0.00000000000E+00  0.00000000000E+00  0.15848040104E+03  0.15848040106E+03  0.25500000000E-02 0. -1.
          2   -1    0    0  501    0  0.00000000000E+00 -0.00000000000E+00 -0.57098861504E+03  0.57098861505E+03  0.25500000000E-02 0.  1.
   -5000001    1    1    2    0    0  0.14939260320E+03  0.73254414007E+02 -0.18503928486E+03  0.35273771559E+03  0.25000000000E+03 0.  0.
    5000001    1    1    2    0    0 -0.14939260320E+03 -0.73254414007E+02 -0.22746892915E+03  0.37673130052E+03  0.25000000000E+03 0.  0.
<mgrwt>
<rscale>  0 0.60163279E+03</rscale>
<asrwt>0</asrwt>
<pdfrwt beam="1">  1        2 0.87844402E-01 0.60163279E+03</pdfrwt>
<pdfrwt beam="2">  1       -2 0.24381600E-01 0.60163279E+03</pdfrwt>
<totfact> 0.79341058E+02</totfact>
</mgrwt>
</event>
<event>
 4    1  0.1714834E-005  0.6192550E+03  0.7818608E-02  0.9866244E-01
         -2   -1    0    0    0  501 -0.00000000000E+00  0.00000000000E+00  0.77645412421E+02  0.77645412463E+02  0.25500000000E-02 0. -1.
          2   -1    0    0  501    0  0.00000000000E+00 -0.00000000000E+00 -0.12347052722E+04  0.12347052722E+04  0.25500000000E-02 0.  1.
   -5000001    1    1    2    0    0  0.61080086284E+02 -0.16837143035E+03 -0.50242926765E+03  0.58907969281E+03  0.25000000000E+03 0.  0.
    5000001    1    1    2    0    0 -0.61080086284E+02  0.16837143035E+03 -0.65463059213E+03  0.72327099185E+03  0.25000000000E+03 0.  0.
<mgrwt>
<rscale>  0 0.61925504E+03</rscale>
<asrwt>0</asrwt>
<pdfrwt beam="1">  1        2 0.18995464E+00 0.61925504E+03</pdfrwt>
<pdfrwt beam="2">  1       -2 0.11945449E-01 0.61925504E+03</pdfrwt>
<totfact> 0.93735913E+02</totfact>
</mgrwt>
</event>
<event>
 4    1  0.1714834E-005  0.7021018E+03  0.7818608E-02  0.9713645E-01
         -2   -1    0    0    0  501 -0.00000000000E+00  0.00000000000E+00  0.77223995555E+02  0.77223995597E+02  0.25500000000E-02 0. -1.
          2   -1    0    0  501    0  0.00000000000E+00 -0.00000000000E+00 -0.15958348257E+04  0.15958348257E+04  0.25500000000E-02 0.  1.
   -5000001    1    1    2    0    0  0.77424321013E+02  0.80342267908E+02 -0.12829392901E+04  0.13118241603E+04  0.25000000000E+03 0.  0.
    5000001    1    1    2    0    0 -0.77424321013E+02 -0.80342267908E+02 -0.23567153999E+03  0.36123466093E+03  0.25000000000E+03 0.  0.
<mgrwt>
<rscale>  0 0.70210182E+03</rscale>
<asrwt>0</asrwt>
<pdfrwt beam="1">  1        2 0.24551303E+00 0.70210182E+03</pdfrwt>
<pdfrwt beam="2">  1       -2 0.11880616E-01 0.70210182E+03</pdfrwt>
<totfact> 0.58992823E+02</totfact>
</mgrwt>
</event>
<event>
 4    1  0.1714834E-005  0.6908177E+03  0.7818608E-02  0.9733065E-01
         -2   -1    0    0    0  501 -0.00000000000E+00  0.00000000000E+00  0.79880050960E+02  0.79880051000E+02  0.25500000000E-02 0. -1.
          2   -1    0    0  501    0  0.00000000000E+00 -0.00000000000E+00 -0.14935801843E+04  0.14935801843E+04  0.25500000000E-02 0.  1.
   -5000001    1    1    2    0    0 -0.64442540585E+02 -0.22944856236E+03 -0.71320207694E+03  0.79243718133E+03  0.25000000000E+03 0.  0.
    5000001    1    1    2    0    0  0.64442540585E+02  0.22944856236E+03 -0.70049805638E+03  0.78102305395E+03  0.25000000000E+03 0.  0.
<mgrwt>
<rscale>  0 0.69081766E+03</rscale>
<asrwt>0</asrwt>
<pdfrwt beam="1">  1        2 0.22978155E+00 0.69081766E+03</pdfrwt>
<pdfrwt beam="2">  1       -2 0.12289240E-01 0.69081766E+03</pdfrwt>
<totfact> 0.63578950E+02</totfact>
</mgrwt>
</event>
<event>
 4    1  0.1714834E-005  0.8730644E+03  0.7818608E-02  0.9459893E-01
         -2   -1    0    0    0  501 -0.00000000000E+00  0.00000000000E+00  0.23775474478E+03  0.23775474480E+03  0.25500000000E-02 0.  1.
          2   -1    0    0  501    0  0.00000000000E+00 -0.00000000000E+00 -0.80149968474E+03  0.80149968474E+03  0.25500000000E-02 0. -1.
   -5000001    1    1    2    0    0 -0.23470100752E+03 -0.25934274895E+03 -0.37187704719E+03  0.56845031673E+03  0.25000000000E+03 0.  0.
    5000001    1    1    2    0    0  0.23470100752E+03  0.25934274895E+03 -0.19186789276E+03  0.47080411281E+03  0.25000000000E+03 0.  0.
<mgrwt>
<rscale>  0 0.87306438E+03</rscale>
<asrwt>0</asrwt>
<pdfrwt beam="1">  1        2 0.12330764E+00 0.87306438E+03</pdfrwt>
<pdfrwt beam="2">  1       -2 0.36577653E-01 0.87306438E+03</pdfrwt>
<totfact> 0.24253671E+02</totfact>
</mgrwt>
</event>
<event>
 4    1  0.1714834E-005  0.6324701E+03  0.7818608E-02  0.9840240E-01
         -2   -1    0    0    0  501 -0.00000000000E+00  0.00000000000E+00  0.68501212907E+02  0.68501212954E+02  0.25500000000E-02 0. -1.
          2   -1    0    0  501    0  0.00000000000E+00 -0.00000000000E+00 -0.14598952613E+04  0.14598952613E+04  0.25500000000E-02 0.  1.
   -5000001    1    1    2    0    0 -0.16414877186E+03 -0.54625231397E+02 -0.90603226771E+03  0.95567944695E+03  0.25000000000E+03 0.  0.
    5000001    1    1    2    0    0  0.16414877186E+03  0.54625231397E+02 -0.48536178067E+03  0.57271702729E+03  0.25000000000E+03 0.  0.
<mgrwt>
<rscale>  0 0.63247007E+03</rscale>
<asrwt>0</asrwt>
<pdfrwt beam="1">  1        2 0.22459925E+00 0.63247007E+03</pdfrwt>
<pdfrwt beam="2">  1       -2 0.10538649E-01 0.63247007E+03</pdfrwt>
<totfact> 0.85692255E+02</totfact>
</mgrwt>
</event>
<event>
 4    1  0.1714834E-005  0.7482825E+03  0.7818608E-02  0.9638049E-01
         -2   -1    0    0    0  501 -0.00000000000E+00  0.00000000000E+00  0.27012614360E+03  0.27012614361E+03  0.25500000000E-02 0. -1.
          2   -1    0    0  501    0  0.00000000000E+00 -0.00000000000E+00 -0.51820856498E+03  0.51820856499E+03  0.25500000000E-02 0.  1.
   -5000001    1    1    2    0    0 -0.24942323717E+03 -0.55131917825E+02 -0.75315712060E+01  0.35750273309E+03  0.25000000000E+03 0.  0.
    5000001    1    1    2    0    0  0.24942323717E+03  0.55131917825E+02 -0.24055085018E+03  0.43083197551E+03  0.25000000000E+03 0.  0.
<mgrwt>
<rscale>  0 0.74828252E+03</rscale>
<asrwt>0</asrwt>
<pdfrwt beam="1">  1        2 0.79724394E-01 0.74828252E+03</pdfrwt>
<pdfrwt beam="2">  1       -2 0.41557868E-01 0.74828252E+03</pdfrwt>
<totfact> 0.32641044E+02</totfact>
</mgrwt>
</event>
<event>
 4    1  0.1714834E-005  0.1544853E+04  0.7818608E-02  0.8855162E-01
          2   -1    0    0  501    0  0.00000000000E+00  0.00000000000E+00  0.11139474613E+04  0.11139474613E+04  0.25500000000E-02 0.  1.
         -2   -1    0    0    0  501 -0.00000000000E+00 -0.00000000000E+00 -0.53561113981E+03  0.53561113982E+03  0.25500000000E-02 0. -1.
   -5000001    1    1    2    0    0  0.21188777795E+03  0.56387607596E+03  0.73109117157E+03  0.97971779643E+03  0.25000000000E+03 0.  0.
    5000001    1    1    2    0    0 -0.21188777795E+03 -0.56387607596E+03 -0.15275485003E+03  0.66984080474E+03  0.25000000000E+03 0.  0.
<mgrwt>
<rscale>  0 0.15448530E+04</rscale>
<asrwt>0</asrwt>
<pdfrwt beam="1">  1        2 0.17137653E+00 0.15448530E+04</pdfrwt>
<pdfrwt beam="2">  1       -2 0.82401715E-01 0.15448530E+04</pdfrwt>
<totfact> 0.26598317E+01</totfact>
</mgrwt>
</event>
<event>
 4    1  0.1714834E-005  0.9145544E+03  0.7818608E-02  0.9407568E-01
          2   -1    0    0  501    0  0.00000000000E+00  0.00000000000E+00  0.94612983848E+03  0.94612983848E+03  0.25500000000E-02 0.  1.
         -2   -1    0    0    0  501 -0.00000000000E+00 -0.00000000000E+00 -0.22100820062E+03  0.22100820063E+03  0.25500000000E-02 0. -1.
   -5000001    1    1    2    0    0 -0.56859184638E+01  0.37278996913E+03  0.25132221791E+03  0.51445849975E+03  0.25000000000E+03 0.  0.
    5000001    1    1    2    0    0  0.56859184638E+01 -0.37278996913E+03  0.47379941995E+03  0.65267953936E+03  0.25000000000E+03 0.  0.
<mgrwt>
<rscale>  0 0.91455443E+03</rscale>
<asrwt>0</asrwt>
<pdfrwt beam="1">  1        2 0.14555844E+00 0.91455443E+03</pdfrwt>
<pdfrwt beam="2">  1       -2 0.34001261E-01 0.91455443E+03</pdfrwt>
<totfact> 0.22132047E+02</totfact>
</mgrwt>
</event>
<event>
 4    1  0.1714834E-005  0.5635948E+03  0.7818608E-02  0.9983953E-01
          2   -1    0    0  501    0  0.00000000000E+00  0.00000000000E+00  0.17911547451E+04  0.17911547451E+04  0.25500000000E-02 0. -1.
         -2   -1    0    0    0  501 -0.00000000000E+00 -0.00000000000E+00 -0.44334405183E+02  0.44334405256E+02  0.25500000000E-02 0.  1.
   -5000001    1    1    2    0    0  0.36922361059E+02 -0.98966430841E+02  0.62640815255E+03  0.68267473131E+03  0.25000000000E+03 0.  0.
    5000001    1    1    2    0    0 -0.36922361059E+02  0.98966430841E+02  0.11204121874E+04  0.11528144191E+04  0.25000000000E+03 0.  0.
<mgrwt>
<rscale>  0 0.56359482E+03</rscale>
<asrwt>0</asrwt>
<pdfrwt beam="1">  1        2 0.27556220E+00 0.56359482E+03</pdfrwt>
<pdfrwt beam="2">  1       -2 0.68206795E-02 0.56359482E+03</pdfrwt>
<totfact> 0.11378461E+03</totfact>
</mgrwt>
</event>
<event>
 4    1  0.1714834E-005  0.6071677E+03  0.7818608E-02  0.9890646E-01
          2   -1    0    0  501    0  0.00000000000E+00  0.00000000000E+00  0.24159620496E+03  0.24159620498E+03  0.25500000000E-02 0.  1.
         -2   -1    0    0    0  501 -0.00000000000E+00 -0.00000000000E+00 -0.38147600606E+03  0.38147600607E+03  0.25500000000E-02 0. -1.
   -5000001    1    1    2    0    0 -0.57906777573E+02  0.16149903528E+03 -0.54443952196E+02  0.30805726289E+03  0.25000000000E+03 0.  0.
    5000001    1    1    2    0    0  0.57906777573E+02 -0.16149903528E+03 -0.85435848899E+02  0.31501494816E+03  0.25000000000E+03 0.  0.
<mgrwt>
<rscale>  0 0.60716770E+03</rscale>
<asrwt>0</asrwt>
<pdfrwt beam="1">  1        2 0.37168647E-01 0.60716770E+03</pdfrwt>
<pdfrwt beam="2">  1       -2 0.58688616E-01 0.60716770E+03</pdfrwt>
<totfact> 0.38312667E+02</totfact>
</mgrwt>
</event>
<event>
 4    1  0.1714834E-005  0.7968979E+03  0.7818608E-02  0.9564518E-01
          2   -1    0    0  501    0  0.00000000000E+00  0.00000000000E+00  0.10419020232E+04  0.10419020232E+04  0.25500000000E-02 0.  1.
         -2   -1    0    0    0  501 -0.00000000000E+00 -0.00000000000E+00 -0.15237667426E+03  0.15237667428E+03  0.25500000000E-02 0. -1.
   -5000001    1    1    2    0    0 -0.25517741611E+03 -0.15201171568E+03  0.57912893696E+03  0.69721833096E+03  0.25000000000E+03 0.  0.
    5000001    1    1    2    0    0  0.25517741611E+03  0.15201171568E+03  0.31039641197E+03  0.49706036652E+03  0.25000000000E+03 0.  0.
<mgrwt>
<rscale>  0 0.79689790E+03</rscale>
<asrwt>0</asrwt>
<pdfrwt beam="1">  1        2 0.16029262E+00 0.79689790E+03</pdfrwt>
<pdfrwt beam="2">  1       -2 0.23442565E-01 0.79689790E+03</pdfrwt>
<totfact> 0.38315444E+02</totfact>
</mgrwt>
</event>
<event>
 4    1  0.1714834E-005  0.6027440E+03  0.7818608E-02  0.9899729E-01
          2   -1    0    0  501    0  0.00000000000E+00  0.00000000000E+00  0.50670676834E+03  0.50670676835E+03  0.25500000000E-02 0.  1.
         -2   -1    0    0    0  501 -0.00000000000E+00 -0.00000000000E+00 -0.17924584468E+03  0.17924584470E+03  0.25500000000E-02 0. -1.
   -5000001    1    1    2    0    0  0.32920740657E+02 -0.15345261179E+03  0.94565466293E+02  0.30995823371E+03  0.25000000000E+03 0.  0.
    5000001    1    1    2    0    0 -0.32920740657E+02  0.15345261179E+03  0.23289545736E+03  0.37599437933E+03  0.25000000000E+03 0.  0.
<mgrwt>
<rscale>  0 0.60274400E+03</rscale>
<asrwt>0</asrwt>
<pdfrwt beam="1">  1        2 0.77954885E-01 0.60274400E+03</pdfrwt>
<pdfrwt beam="2">  1       -2 0.27576285E-01 0.60274400E+03</pdfrwt>
<totfact> 0.73036745E+02</totfact>
</mgrwt>
</event>
<event>
 4    1  0.1714834E-005  0.6700336E+03  0.7818608E-02  0.9769897E-01
         -2   -1    0    0    0  501 -0.00000000000E+00  0.00000000000E+00  0.52191377023E+02  0.52191377086E+02  0.25500000000E-02 0. -1.
          2   -1    0    0  501    0  0.00000000000E+00 -0.00000000000E+00 -0.21504748530E+04  0.21504748530E+04  0.25500000000E-02 0.  1.
   -5000001    1    1    2    0    0 -0.13303522658E+03 -0.49619134925E+02 -0.16144957622E+04  0.16398954223E+04  0.25000000000E+03 0.  0.
    5000001    1    1    2    0    0  0.13303522658E+03  0.49619134925E+02 -0.48378771387E+03  0.56277080783E+03  0.25000000000E+03 0.  0.
<mgrwt>
<rscale>  0 0.67003356E+03</rscale>
<asrwt>0</asrwt>
<pdfrwt beam="1">  1        2 0.33084222E+00 0.67003356E+03</pdfrwt>
<pdfrwt beam="2">  1       -2 0.80294443E-02 0.67003356E+03</pdfrwt>
<totfact> 0.55669722E+02</totfact>
</mgrwt>
</event>
<event>
 4    1  0.1714834E-005  0.8730545E+03  0.7818608E-02  0.9459906E-01
         -2   -1    0    0    0  501 -0.00000000000E+00  0.00000000000E+00  0.10054754666E+03  0.10054754669E+03  0.25500000000E-02 0. -1.
          2   -1    0    0  501    0  0.00000000000E+00 -0.00000000000E+00 -0.18951835106E+04  0.18951835106E+04  0.25500000000E-02 0.  1.
   -5000001    1    1    2    0    0 -0.13757390799E+03 -0.32504644047E+03 -0.76257898947E+03  0.87670319025E+03  0.25000000000E+03 0.  0.
    5000001    1    1    2    0    0  0.13757390799E+03  0.32504644047E+03 -0.10320569744E+04  0.11190278670E+04  0.25000000000E+03 0.  0.
<mgrwt>
<rscale>  0 0.87305453E+03</rscale>
<asrwt>0</asrwt>
<pdfrwt beam="1">  1        2 0.29156667E+00 0.87305453E+03</pdfrwt>
<pdfrwt beam="2">  1       -2 0.15468855E-01 0.87305453E+03</pdfrwt>
<totfact> 0.25706947E+02</totfact>
</mgrwt>
</event>
<event>
 4    1  0.1714834E-005  0.5626441E+03  0.7818608E-02  0.9986090E-01
          2   -1    0    0  501    0  0.00000000000E+00  0.00000000000E+00  0.54110128442E+04  0.54110128442E+04  0.25500000000E-02 0.  1.
         -2   -1    0    0    0  501 -0.00000000000E+00 -0.00000000000E+00 -0.14626112883E+02  0.14626113105E+02  0.25500000000E-02 0. -1.
   -5000001    1    1    2    0    0  0.99153090604E+02  0.29172826186E+02  0.19537542094E+04  0.19723939515E+04  0.25000000000E+03 0.  0.
    5000001    1    1    2    0    0 -0.99153090604E+02 -0.29172826186E+02  0.34426325220E+04  0.34532450059E+04  0.25000000000E+03 0.  0.
<mgrwt>
<rscale>  0 0.56264406E+03</rscale>
<asrwt>0</asrwt>
<pdfrwt beam="1">  1        2 0.83246440E+00 0.56264406E+03</pdfrwt>
<pdfrwt beam="2">  1       -2 0.22501688E-02 0.56264406E+03</pdfrwt>
<totfact> 0.77485656E+00</totfact>
</mgrwt>
</event>
<event>
 4    1  0.1714834E-005  0.9652165E+03  0.7818608E-02  0.9347540E-01
         -2   -1    0    0    0  501 -0.00000000000E+00  0.00000000000E+00  0.65041608957E+02  0.65041609007E+02  0.25500000000E-02 0. -1.
          2   -1    0    0  501    0  0.00000000000E+00 -0.00000000000E+00 -0.35809496123E+04  0.35809496123E+04  0.25500000000E-02 0.  1.
   -5000001    1    1    2    0    0  0.34100361149E+03  0.17812244049E+03 -0.23232964168E+04  0.23681674998E+04  0.25000000000E+03 0.  0.
    5000001    1    1    2    0    0 -0.34100361149E+03 -0.17812244049E+03 -0.11926115865E+04  0.12778237215E+04  0.25000000000E+03 0.  0.
<mgrwt>
<rscale>  0 0.96521650E+03</rscale>
<asrwt>0</asrwt>
<pdfrwt beam="1">  1        2 0.55091517E+00 0.96521650E+03</pdfrwt>
<pdfrwt beam="2">  1       -2 0.10006404E-01 0.96521650E+03</pdfrwt>
<totfact> 0.51224401E+01</totfact>
</mgrwt>
</event>
<event>
 4    1  0.1714834E-005  0.9565998E+03  0.7818608E-02  0.9357469E-01
         -2   -1    0    0    0  501 -0.00000000000E+00  0.00000000000E+00  0.36568644341E+03  0.36568644342E+03  0.25500000000E-02 0. -1.
          2   -1    0    0  501    0  0.00000000000E+00 -0.00000000000E+00 -0.62559279143E+03  0.62559279144E+03  0.25500000000E-02 0.  1.
   -5000001    1    1    2    0    0 -0.89116449050E+02 -0.28936885955E+03 -0.41297489807E+03  0.56984589566E+03  0.25000000000E+03 0.  0.
    5000001    1    1    2    0    0  0.89116449050E+02  0.28936885955E+03  0.15306855005E+03  0.42143333919E+03  0.25000000000E+03 0.  0.
<mgrwt>
<rscale>  0 0.95659982E+03</rscale>
<asrwt>0</asrwt>
<pdfrwt beam="1">  1        2 0.96245045E-01 0.95659982E+03</pdfrwt>
<pdfrwt beam="2">  1       -2 0.56259453E-01 0.95659982E+03</pdfrwt>
<totfact> 0.13992558E+02</totfact>
</mgrwt>
</event>
<event>
 4    1  0.1714834E-005  0.6236405E+03  0.7818608E-02  0.9857538E-01
          2   -1    0    0  501    0  0.00000000000E+00  0.00000000000E+00  0.51828278973E+03  0.51828278974E+03  0.25500000000E-02 0.  1.
         -2   -1    0    0    0  501 -0.00000000000E+00 -0.00000000000E+00 -0.18760386250E+03  0.18760386252E+03  0.25500000000E-02 0. -1.
   -5000001    1    1    2    0    0  0.57124478657E+02  0.16271006916E+03  0.85350795705E+02  0.31547191792E+03  0.25000000000E+03 0.  0.
    5000001    1    1    2    0    0 -0.57124478657E+02 -0.16271006916E+03  0.24532813152E+03  0.39041473433E+03  0.25000000000E+03 0.  0.
<mgrwt>
<rscale>  0 0.62364045E+03</rscale>
<asrwt>0</asrwt>
<pdfrwt beam="1">  1        2 0.79735813E-01 0.62364045E+03</pdfrwt>
<pdfrwt beam="2">  1       -2 0.28862133E-01 0.62364045E+03</pdfrwt>
<totfact> 0.65425862E+02</totfact>
</mgrwt>
</event>
<event>
 4    1  0.1714834E-005  0.1015456E+04  0.7818608E-02  0.9291754E-01
         -2   -1    0    0    0  501 -0.00000000000E+00  0.00000000000E+00  0.22659702050E+03  0.22659702052E+03  0.25500000000E-02 0. -1.
          2   -1    0    0  501    0  0.00000000000E+00 -0.00000000000E+00 -0.11376481292E+04  0.11376481292E+04  0.25500000000E-02 0.  1.
   -5000001    1    1    2    0    0  0.10085144379E+03 -0.42370663748E+03 -0.35508434667E+03  0.61504733282E+03  0.25000000000E+03 0.  0.
    5000001    1    1    2    0    0 -0.10085144379E+03  0.42370663748E+03 -0.55596676203E+03  0.74919781690E+03  0.25000000000E+03 0.  0.
<mgrwt>
<rscale>  0 0.10154559E+04</rscale>
<asrwt>0</asrwt>
<pdfrwt beam="1">  1        2 0.17502279E+00 0.10154559E+04</pdfrwt>
<pdfrwt beam="2">  1       -2 0.34861081E-01 0.10154559E+04</pdfrwt>
<totfact> 0.15887523E+02</totfact>
</mgrwt>
</event>
<event>
 4    1  0.1714834E-005  0.7727088E+03  0.7818608E-02  0.9600382E-01
         -2   -1    0    0    0  501 -0.00000000000E+00  0.00000000000E+00  0.11612499770E+03  0.11612499773E+03  0.25500000000E-02 0. -1.
          2   -1    0    0  501    0  0.00000000000E+00 -0.00000000000E+00 -0.12854227679E+04  0.12854227679E+04  0.25500000000E-02 0.  1.
   -5000001    1    1    2    0    0  0.24903470275E+03 -0.14909913097E+03 -0.67571741171E+03  0.77675147539E+03  0.25000000000E+03 0.  0.
    5000001    1    1    2    0    0 -0.24903470275E+03  0.14909913097E+03 -0.49358035853E+03  0.62479629028E+03  0.25000000000E+03 0.  0.
<mgrwt>
<rscale>  0 0.77270878E+03</rscale>
<asrwt>0</asrwt>
<pdfrwt beam="1">  1        2 0.19775734E+00 0.77270878E+03</pdfrwt>
<pdfrwt beam="2">  1       -2 0.17865385E-01 0.77270878E+03</pdfrwt>
<totfact> 0.44146869E+02</totfact>
</mgrwt>
</event>
<event>
 4    1  0.1714834E-005  0.1159263E+04  0.7818608E-02  0.9149280E-01
          2   -1    0    0  501    0  0.00000000000E+00  0.00000000000E+00  0.21358365465E+04  0.21358365465E+04  0.25500000000E-02 0.  1.
         -2   -1    0    0    0  501 -0.00000000000E+00 -0.00000000000E+00 -0.15730261186E+03  0.15730261188E+03  0.25500000000E-02 0. -1.
   -5000001    1    1    2    0    0  0.77752223995E+02  0.46271572352E+03  0.53249516384E+03  0.75246418429E+03  0.25000000000E+03 0.  0.
    5000001    1    1    2    0    0 -0.77752223995E+02 -0.46271572352E+03  0.14460387708E+04  0.15406749741E+04  0.25000000000E+03 0.  0.
<mgrwt>
<rscale>  0 0.11592630E+04</rscale>
<asrwt>0</asrwt>
<pdfrwt beam="1">  1        2 0.32859024E+00 0.11592630E+04</pdfrwt>
<pdfrwt beam="2">  1       -2 0.24200402E-01 0.11592630E+04</pdfrwt>
<totfact> 0.84698773E+01</totfact>
</mgrwt>
</event>
<event>
 4    1  0.1714834E-005  0.6217319E+03  0.7818608E-02  0.9861317E-01
         -2   -1    0    0    0  501 -0.00000000000E+00  0.00000000000E+00  0.14579754940E+03  0.14579754942E+03  0.25500000000E-02 0. -1.
          2   -1    0    0  501    0  0.00000000000E+00 -0.00000000000E+00 -0.66282080167E+03  0.66282080168E+03  0.25500000000E-02 0.  1.
   -5000001    1    1    2    0    0  0.95985445948E+02 -0.13411721490E+03 -0.15018711185E+03  0.33504746191E+03  0.25000000000E+03 0.  0.
    5000001    1    1    2    0    0 -0.95985445948E+02  0.13411721490E+03 -0.36683614042E+03  0.47357088919E+03  0.25000000000E+03 0.  0.
<mgrwt>
<rscale>  0 0.62173193E+03</rscale>
<asrwt>0</asrwt>
<pdfrwt beam="1">  1        2 0.10197243E+00 0.62173193E+03</pdfrwt>
<pdfrwt beam="2">  1       -2 0.22430393E-01 0.62173193E+03</pdfrwt>
<totfact> 0.76841613E+02</totfact>
</mgrwt>
</event>
<event>
 4    1  0.1714834E-005  0.1059551E+04  0.7818608E-02  0.9245539E-01
         -2   -1    0    0    0  501 -0.00000000000E+00  0.00000000000E+00  0.34705065179E+03  0.34705065180E+03  0.25500000000E-02 0. -1.
          2   -1    0    0  501    0  0.00000000000E+00 -0.00000000000E+00 -0.80870578868E+03  0.80870578869E+03  0.25500000000E-02 0.  1.
   -5000001    1    1    2    0    0  0.31856502419E+03  0.22234568127E+03  0.52025171882E+02  0.46489557443E+03  0.25000000000E+03 0.  0.
    5000001    1    1    2    0    0 -0.31856502419E+03 -0.22234568127E+03 -0.51368030878E+03  0.69086086605E+03  0.25000000000E+03 0.  0.
<mgrwt>
<rscale>  0 0.10595506E+04</rscale>
<asrwt>0</asrwt>
<pdfrwt beam="1">  1        2 0.12441627E+00 0.10595506E+04</pdfrwt>
<pdfrwt beam="2">  1       -2 0.53392408E-01 0.10595506E+04</pdfrwt>
<totfact> 0.11173222E+02</totfact>
</mgrwt>
</event>
<event>
 4    1  0.1714834E-005  0.1577894E+04  0.7818608E-02  0.8834245E-01
         -2   -1    0    0    0  501 -0.00000000000E+00  0.00000000000E+00  0.10228749012E+04  0.10228749012E+04  0.25500000000E-02 0. -1.
          2   -1    0    0  501    0  0.00000000000E+00 -0.00000000000E+00 -0.60851739678E+03  0.60851739679E+03  0.25500000000E-02 0.  1.
   -5000001    1    1    2    0    0  0.48729252214E+03 -0.55317982701E+03  0.33988661188E+03  0.84940263248E+03  0.25000000000E+03 0.  0.
    5000001    1    1    2    0    0 -0.48729252214E+03  0.55317982701E+03  0.74470892543E+02  0.78198966551E+03  0.25000000000E+03 0.  0.
<mgrwt>
<rscale>  0 0.15778938E+04</rscale>
<asrwt>0</asrwt>
<pdfrwt beam="1">  1        2 0.93618062E-01 0.15778938E+04</pdfrwt>
<pdfrwt beam="2">  1       -2 0.15736537E+00 0.15778938E+04</pdfrwt>
<totfact> 0.12331040E+01</totfact>
</mgrwt>
</event>
<event>
 4    1  0.1714834E-005  0.6861433E+03  0.7818608E-02  0.9741227E-01
          2   -1    0    0  501    0  0.00000000000E+00  0.00000000000E+00  0.15241352720E+03  0.15241352722E+03  0.25500000000E-02 0.  1.
         -2   -1    0    0    0  501 -0.00000000000E+00 -0.00000000000E+00 -0.77222904500E+03  0.77222904501E+03  0.25500000000E-02 0. -1.
   -5000001    1    1    2    0    0 -0.66755206534E+01  0.10515075870E+03 -0.26922941501E+02  0.27262811559E+03  0.25000000000E+03 0.  0.
    5000001    1    1    2    0    0  0.66755206534E+01 -0.10515075870E+03 -0.59289257630E+03  0.65201445664E+03  0.25000000000E+03 0.  0.
<mgrwt>
<rscale>  0 0.68614329E+03</rscale>
<asrwt>0</asrwt>
<pdfrwt beam="1">  1        2 0.23448235E-01 0.68614329E+03</pdfrwt>
<pdfrwt beam="2">  1       -2 0.11880447E+00 0.68614329E+03</pdfrwt>
<totfact> 0.12992475E+02</totfact>
</mgrwt>
</event>
<event>
 4    1  0.1714834E-005  0.7647188E+03  0.7818608E-02  0.9612538E-01
         -2   -1    0    0    0  501 -0.00000000000E+00  0.00000000000E+00  0.32383883277E+03  0.32383883278E+03  0.25500000000E-02 0. -1.
          2   -1    0    0  501    0  0.00000000000E+00 -0.00000000000E+00 -0.45145515200E+03  0.45145515201E+03  0.25500000000E-02 0.  1.
   -5000001    1    1    2    0    0 -0.88948315377E+02 -0.25368712483E+03 -0.17219660888E+03  0.40548814067E+03  0.25000000000E+03 0.  0.
    5000001    1    1    2    0    0  0.88948315377E+02  0.25368712483E+03  0.44580289646E+02  0.36980584411E+03  0.25000000000E+03 0.  0.
<mgrwt>
<rscale>  0 0.76471880E+03</rscale>
<asrwt>0</asrwt>
<pdfrwt beam="1">  1        2 0.69454639E-01 0.76471880E+03</pdfrwt>
<pdfrwt beam="2">  1       -2 0.49821359E-01 0.76471880E+03</pdfrwt>
<totfact> 0.26626212E+02</totfact>
</mgrwt>
</event>
<event>
 4    1  0.1714834E-005  0.6300625E+03  0.7818608E-02  0.9844927E-01
         -2   -1    0    0    0  501 -0.00000000000E+00  0.00000000000E+00  0.16603228750E+03  0.16603228752E+03  0.25500000000E-02 0. -1.
          2   -1    0    0  501    0  0.00000000000E+00 -0.00000000000E+00 -0.59774330426E+03  0.59774330426E+03  0.25500000000E-02 0.  1.
   -5000001    1    1    2    0    0  0.13843760899E+03  0.69737643092E+02 -0.35255404126E+03  0.45915429046E+03  0.25000000000E+03 0.  0.
    5000001    1    1    2    0    0 -0.13843760899E+03 -0.69737643092E+02 -0.79156975498E+02  0.30462130132E+03  0.25000000000E+03 0.  0.
<mgrwt>
<rscale>  0 0.63006250E+03</rscale>
<asrwt>0</asrwt>
<pdfrwt beam="1">  1        2 0.91960508E-01 0.63006250E+03</pdfrwt>
<pdfrwt beam="2">  1       -2 0.25543429E-01 0.63006250E+03</pdfrwt>
<totfact> 0.69058258E+02</totfact>
</mgrwt>
</event>
<event>
 4    1  0.1714834E-005  0.7268263E+03  0.7818608E-02  0.9672424E-01
          2   -1    0    0  501    0  0.00000000000E+00  0.00000000000E+00  0.47858541625E+03  0.47858541626E+03  0.25500000000E-02 0.  1.
         -2   -1    0    0    0  501 -0.00000000000E+00 -0.00000000000E+00 -0.27595726294E+03  0.27595726295E+03  0.25500000000E-02 0. -1.
   -5000001    1    1    2    0    0 -0.61740451703E+02 -0.21897722825E+03 -0.37214360823E+02  0.34007031408E+03  0.25000000000E+03 0.  0.
    5000001    1    1    2    0    0  0.61740451703E+02  0.21897722825E+03  0.23984251414E+03  0.41447236513E+03  0.25000000000E+03 0.  0.
<mgrwt>
<rscale>  0 0.72682631E+03</rscale>
<asrwt>0</asrwt>
<pdfrwt beam="1">  1        2 0.73628525E-01 0.72682631E+03</pdfrwt>
<pdfrwt beam="2">  1       -2 0.42454964E-01 0.72682631E+03</pdfrwt>
<totfact> 0.34345825E+02</totfact>
</mgrwt>
</event>
<event>
 4    1  0.1714834E-005  0.7659989E+03  0.7818608E-02  0.9610580E-01
          2   -1    0    0  501    0  0.00000000000E+00  0.00000000000E+00  0.97129829736E+03  0.97129829736E+03  0.25500000000E-02 0.  1.
         -2   -1    0    0    0  501 -0.00000000000E+00 -0.00000000000E+00 -0.15102321852E+03  0.15102321854E+03  0.25500000000E-02 0. -1.
   -5000001    1    1    2    0    0 -0.25714885604E+03  0.95664564146E+02  0.54844987616E+03  0.66224958260E+03  0.25000000000E+03 0.  0.
    5000001    1    1    2    0    0  0.25714885604E+03 -0.95664564146E+02  0.27182520268E+03  0.46007193330E+03  0.25000000000E+03 0.  0.
<mgrwt>
<rscale>  0 0.76599894E+03</rscale>
<asrwt>0</asrwt>
<pdfrwt beam="1">  1        2 0.14943050E+00 0.76599894E+03</pdfrwt>
<pdfrwt beam="2">  1       -2 0.23234342E-01 0.76599894E+03</pdfrwt>
<totfact> 0.43237475E+02</totfact>
</mgrwt>
</event>
<event>
 4    1  0.1714834E-005  0.7563197E+03  0.7818608E-02  0.9625488E-01
         -2   -1    0    0    0  501 -0.00000000000E+00  0.00000000000E+00  0.81487222037E+02  0.81487222077E+02  0.25500000000E-02 0. -1.
          2   -1    0    0  501    0  0.00000000000E+00 -0.00000000000E+00 -0.17549360071E+04  0.17549360071E+04  0.25500000000E-02 0.  1.
   -5000001    1    1    2    0    0  0.19049008519E+03 -0.12650998390E+03 -0.42887790699E+03  0.54655970185E+03  0.25000000000E+03 0.  0.
    5000001    1    1    2    0    0 -0.19049008519E+03  0.12650998390E+03 -0.12445708781E+04  0.12898635273E+04  0.25000000000E+03 0.  0.
<mgrwt>
<rscale>  0 0.75631967E+03</rscale>
<asrwt>0</asrwt>
<pdfrwt beam="1">  1        2 0.26999013E+00 0.75631967E+03</pdfrwt>
<pdfrwt beam="2">  1       -2 0.12536497E-01 0.75631967E+03</pdfrwt>
<totfact> 0.44013723E+02</totfact>
</mgrwt>
</event>
<event>
 4    1  0.1714834E-005  0.6353413E+03  0.7818608E-02  0.9834681E-01
          2   -1    0    0  501    0  0.00000000000E+00  0.00000000000E+00  0.14497662213E+04  0.14497662213E+04  0.25500000000E-02 0.  1.
         -2   -1    0    0    0  501 -0.00000000000E+00 -0.00000000000E+00 -0.69607529975E+02  0.69607530022E+02  0.25500000000E-02 0. -1.
   -5000001    1    1    2    0    0 -0.12376794821E+03  0.61313269324E+02  0.10226240934E+04  0.10617616768E+04  0.25000000000E+03 0.  0.
    5000001    1    1    2    0    0  0.12376794821E+03 -0.61313269324E+02  0.35753459791E+03  0.45761207447E+03  0.25000000000E+03 0.  0.
<mgrwt>
<rscale>  0 0.63534131E+03</rscale>
<asrwt>0</asrwt>
<pdfrwt beam="1">  1        2 0.22304098E+00 0.63534131E+03</pdfrwt>
<pdfrwt beam="2">  1       -2 0.10708850E-01 0.63534131E+03</pdfrwt>
<totfact> 0.84561695E+02</totfact>
</mgrwt>
</event>
<event>
 4    1  0.1714834E-005  0.1007376E+04  0.7818608E-02  0.9300491E-01
          2   -1    0    0  501    0  0.00000000000E+00  0.00000000000E+00  0.16139180255E+04  0.16139180255E+04  0.25500000000E-02 0.  1.
         -2   -1    0    0    0  501 -0.00000000000E+00 -0.00000000000E+00 -0.15719622496E+03  0.15719622498E+03  0.25500000000E-02 0. -1.
   -5000001    1    1    2    0    0 -0.21175592102E+03 -0.36299242942E+02  0.58778394121E+02  0.33483295050E+03  0.25000000000E+03 0.  0.
    5000001    1    1    2    0    0  0.21175592102E+03  0.36299242942E+02  0.13979434064E+04  0.14362813000E+04  0.25000000000E+03 0.  0.
<mgrwt>
<rscale>  0 0.10073764E+04</rscale>
<asrwt>0</asrwt>
<pdfrwt beam="1">  1        2 0.24829509E+00 0.10073764E+04</pdfrwt>
<pdfrwt beam="2">  1       -2 0.24184034E-01 0.10073764E+04</pdfrwt>
<totfact> 0.16650559E+02</totfact>
</mgrwt>
</event>
<event>
 4    1  0.1714834E-005  0.8828259E+03  0.7818608E-02  0.9447308E-01
         -2   -1    0    0    0  501 -0.00000000000E+00  0.00000000000E+00  0.14839800310E+03  0.14839800312E+03  0.25500000000E-02 0. -1.
          2   -1    0    0  501    0  0.00000000000E+00 -0.00000000000E+00 -0.13129919254E+04  0.13129919254E+04  0.25500000000E-02 0.  1.
   -5000001    1    1    2    0    0 -0.54268974520E+02 -0.34798005654E+03 -0.73319902829E+03  0.85095009045E+03  0.25000000000E+03 0.  0.
    5000001    1    1    2    0    0  0.54268974520E+02  0.34798005654E+03 -0.43139489405E+03  0.61043983812E+03  0.25000000000E+03 0.  0.
<mgrwt>
<rscale>  0 0.88282587E+03</rscale>
<asrwt>0</asrwt>
<pdfrwt beam="1">  1        2 0.20199875E+00 0.88282587E+03</pdfrwt>
<pdfrwt beam="2">  1       -2 0.22830463E-01 0.88282587E+03</pdfrwt>
<totfact> 0.27510555E+02</totfact>
</mgrwt>
</event>
<event>
 4    1  0.1714834E-005  0.6980132E+03  0.7818608E-02  0.9720636E-01
          2   -1    0    0  501    0  0.00000000000E+00  0.00000000000E+00  0.14024624740E+04  0.14024624740E+04  0.25500000000E-02 0.  1.
         -2   -1    0    0    0  501 -0.00000000000E+00 -0.00000000000E+00 -0.86851233936E+02  0.86851233973E+02  0.25500000000E-02 0. -1.
   -5000001    1    1    2    0    0  0.20779308922E+03 -0.69139313599E+02  0.88509044610E+03  0.94543286932E+03  0.25000000000E+03 0.  0.
    5000001    1    1    2    0    0 -0.20779308922E+03  0.69139313599E+02  0.43052079392E+03  0.54388083861E+03  0.25000000000E+03 0.  0.
<mgrwt>
<rscale>  0 0.69801317E+03</rscale>
<asrwt>0</asrwt>
<pdfrwt beam="1">  1        2 0.21576348E+00 0.69801317E+03</pdfrwt>
<pdfrwt beam="2">  1       -2 0.13361727E-01 0.69801317E+03</pdfrwt>
<totfact> 0.62192102E+02</totfact>
</mgrwt>
</event>
<event>
 4    1  0.1714834E-005  0.6157328E+03  0.7818608E-02  0.9873293E-01
          2   -1    0    0  501    0  0.00000000000E+00  0.00000000000E+00  0.16927761650E+04  0.16927761650E+04  0.25500000000E-02 0.  1.
         -2   -1    0    0    0  501 -0.00000000000E+00 -0.00000000000E+00 -0.55991882253E+02  0.55991882311E+02  0.25500000000E-02 0. -1.
   -5000001    1    1    2    0    0 -0.17831632756E+03 -0.20586569182E+02  0.84061145968E+03  0.89518051009E+03  0.25000000000E+03 0.  0.
    5000001    1    1    2    0    0  0.17831632756E+03  0.20586569182E+02  0.79617282308E+03  0.85358753723E+03  0.25000000000E+03 0.  0.
<mgrwt>
<rscale>  0 0.61573281E+03</rscale>
<asrwt>0</asrwt>
<pdfrwt beam="1">  1        2 0.26042709E+00 0.61573281E+03</pdfrwt>
<pdfrwt beam="2">  1       -2 0.86141362E-02 0.61573281E+03</pdfrwt>
<totfact> 0.88510217E+02</totfact>
</mgrwt>
</event>
<event>
 4    1  0.1714834E-005  0.8577666E+03  0.7818608E-02  0.9479972E-01
          2   -1    0    0  501    0  0.00000000000E+00  0.00000000000E+00  0.23932051098E+03  0.23932051100E+03  0.25500000000E-02 0.  1.
         -2   -1    0    0    0  501 -0.00000000000E+00 -0.00000000000E+00 -0.76859642694E+03  0.76859642694E+03  0.25500000000E-02 0. -1.
   -5000001    1    1    2    0    0  0.30970916098E+03  0.15961712568E+03 -0.25688812364E+03  0.49988888693E+03  0.25000000000E+03 0.  0.
    5000001    1    1    2    0    0 -0.30970916098E+03 -0.15961712568E+03 -0.27238779231E+03  0.50802805101E+03  0.25000000000E+03 0.  0.
<mgrwt>
<rscale>  0 0.85776661E+03</rscale>
<asrwt>0</asrwt>
<pdfrwt beam="1">  1        2 0.36818540E-01 0.85776661E+03</pdfrwt>
<pdfrwt beam="2">  1       -2 0.11824560E+00 0.85776661E+03</pdfrwt>
<totfact> 0.78204223E+01</totfact>
</mgrwt>
</event>
<event>
 4    1  0.1714834E-005  0.9612821E+03  0.7818608E-02  0.9352060E-01
         -2   -1    0    0    0  501 -0.00000000000E+00  0.00000000000E+00  0.26465794567E+03  0.26465794568E+03  0.25500000000E-02 0. -1.
          2   -1    0    0  501    0  0.00000000000E+00 -0.00000000000E+00 -0.87288454234E+03  0.87288454235E+03  0.25500000000E-02 0.  1.
   -5000001    1    1    2    0    0 -0.12420382082E+03  0.33080124461E+03 -0.56851217870E+02  0.43656398559E+03  0.25000000000E+03 0.  0.
    5000001    1    1    2    0    0  0.12420382082E+03 -0.33080124461E+03 -0.55137537880E+03  0.70097850244E+03  0.25000000000E+03 0.  0.
<mgrwt>
<rscale>  0 0.96128212E+03</rscale>
<asrwt>0</asrwt>
<pdfrwt beam="1">  1        2 0.13428993E+00 0.96128212E+03</pdfrwt>
<pdfrwt beam="2">  1       -2 0.40716608E-01 0.96128212E+03</pdfrwt>
<totfact> 0.17469088E+02</totfact>
</mgrwt>
</event>
<event>
 4    1  0.1714834E-005  0.7427258E+03  0.7818608E-02  0.9646832E-01
         -2   -1    0    0    0  501 -0.00000000000E+00  0.00000000000E+00  0.56426262709E+03  0.56426262709E+03  0.25500000000E-02 0. -1.
          2   -1    0    0  501    0  0.00000000000E+00 -0.00000000000E+00 -0.24440819936E+03  0.24440819938E+03  0.25500000000E-02 0.  1.
   -5000001    1    1    2    0    0 -0.30826049698E+02 -0.22140161748E+03  0.33359310605E+03  0.47302566734E+03  0.25000000000E+03 0.  0.
    5000001    1    1    2    0    0  0.30826049698E+02  0.22140161748E+03 -0.13738678324E+02  0.33564515913E+03  0.25000000000E+03 0.  0.
<mgrwt>
<rscale>  0 0.74272582E+03</rscale>
<asrwt>0</asrwt>
<pdfrwt beam="1">  1        2 0.37601262E-01 0.74272582E+03</pdfrwt>
<pdfrwt beam="2">  1       -2 0.86809633E-01 0.74272582E+03</pdfrwt>
<totfact> 0.15992925E+02</totfact>
</mgrwt>
</event>
<event>
 4    1  0.1714834E-005  0.1050562E+04  0.7818608E-02  0.9254764E-01
          2   -1    0    0  501    0  0.00000000000E+00  0.00000000000E+00  0.28119982081E+03  0.28119982082E+03  0.25500000000E-02 0.  1.
         -2   -1    0    0    0  501 -0.00000000000E+00 -0.00000000000E+00 -0.98122427717E+03  0.98122427717E+03  0.25500000000E-02 0. -1.
   -5000001    1    1    2    0    0 -0.42095302264E+03  0.16737011686E+02 -0.12220699914E+03  0.50489219193E+03  0.25000000000E+03 0.  0.
    5000001    1    1    2    0    0  0.42095302264E+03 -0.16737011686E+02 -0.57781745722E+03  0.75753190606E+03  0.25000000000E+03 0.  0.
<mgrwt>
<rscale>  0 0.10505619E+04</rscale>
<asrwt>0</asrwt>
<pdfrwt beam="1">  1        2 0.43261511E-01 0.10505619E+04</pdfrwt>
<pdfrwt beam="2">  1       -2 0.15095758E+00 0.10505619E+04</pdfrwt>
<totfact> 0.34580527E+01</totfact>
</mgrwt>
</event>
<event>
 4    1  0.1714834E-005  0.1308688E+04  0.7818608E-02  0.9022704E-01
          2   -1    0    0  501    0  0.00000000000E+00  0.00000000000E+00  0.98587806972E+03  0.98587806972E+03  0.25500000000E-02 0.  1.
         -2   -1    0    0    0  501 -0.00000000000E+00 -0.00000000000E+00 -0.43429918059E+03  0.43429918060E+03  0.25500000000E-02 0. -1.
   -5000001    1    1    2    0    0 -0.18120531916E+03  0.34184352299E+03 -0.22853132925E+03  0.51421681259E+03  0.25000000000E+03 0.  0.
    5000001    1    1    2    0    0  0.18120531916E+03 -0.34184352299E+03  0.78011021838E+03  0.90596043772E+03  0.25000000000E+03 0.  0.
<mgrwt>
<rscale>  0 0.13086880E+04</rscale>
<asrwt>0</asrwt>
<pdfrwt beam="1">  1        2 0.15167355E+00 0.13086880E+04</pdfrwt>
<pdfrwt beam="2">  1       -2 0.66815259E-01 0.13086880E+04</pdfrwt>
<totfact> 0.51846995E+01</totfact>
</mgrwt>
</event>
<event>
 4    1  0.1714834E-005  0.1662464E+04  0.7818608E-02  0.8783067E-01
         -2   -1    0    0    0  501 -0.00000000000E+00  0.00000000000E+00  0.48366932194E+03  0.48366932195E+03  0.25500000000E-02 0. -1.
          2   -1    0    0  501    0  0.00000000000E+00 -0.00000000000E+00 -0.14285519029E+04  0.14285519029E+04  0.25500000000E-02 0.  1.
   -5000001    1    1    2    0    0 -0.52780282396E+03 -0.57453436886E+03 -0.63421644532E+03  0.10360482911E+04  0.25000000000E+03 0.  0.
    5000001    1    1    2    0    0  0.52780282396E+03  0.57453436886E+03 -0.31066613564E+03  0.87617293374E+03  0.25000000000E+03 0.  0.
<mgrwt>
<rscale>  0 0.16624641E+04</rscale>
<asrwt>0</asrwt>
<pdfrwt beam="1">  1        2 0.21977721E+00 0.16624641E+04</pdfrwt>
<pdfrwt beam="2">  1       -2 0.74410666E-01 0.16624641E+04</pdfrwt>
<totfact> 0.21612582E+01</totfact>
</mgrwt>
</event>
<event>
 4    1  0.1714834E-005  0.5920342E+03  0.7818608E-02  0.9922072E-01
          2   -1    0    0  501    0  0.00000000000E+00  0.00000000000E+00  0.18414876714E+04  0.18414876714E+04  0.25500000000E-02 0.  1.
         -2   -1    0    0    0  501 -0.00000000000E+00 -0.00000000000E+00 -0.47584421205E+02  0.47584421273E+02  0.25500000000E-02 0. -1.
   -5000001    1    1    2    0    0 -0.13555545388E+03  0.81056532849E+02  0.85406125995E+03  0.90380643854E+03  0.25000000000E+03 0.  0.
    5000001    1    1    2    0    0  0.13555545388E+03 -0.81056532849E+02  0.93984199020E+03  0.98526565410E+03  0.25000000000E+03 0.  0.
<mgrwt>
<rscale>  0 0.59203421E+03</rscale>
<asrwt>0</asrwt>
<pdfrwt beam="1">  1        2 0.28330580E+00 0.59203421E+03</pdfrwt>
<pdfrwt beam="2">  1       -2 0.73206800E-02 0.59203421E+03</pdfrwt>
<totfact> 0.95414865E+02</totfact>
</mgrwt>
</event>
<event>
 4    1  0.1714834E-005  0.5238983E+03  0.7818608E-02  0.1007723E+00
          2   -1    0    0  501    0  0.00000000000E+00  0.00000000000E+00  0.30079308244E+03  0.30079308245E+03  0.25500000000E-02 0.  1.
         -2   -1    0    0    0  501 -0.00000000000E+00 -0.00000000000E+00 -0.22812145845E+03  0.22812145847E+03  0.25500000000E-02 0. -1.
   -5000001    1    1    2    0    0 -0.64566489681E+02  0.11681811736E+02  0.79311698898E+02  0.27036205706E+03  0.25000000000E+03 0.  0.
    5000001    1    1    2    0    0  0.64566489681E+02 -0.11681811736E+02 -0.66400749129E+01  0.25855248386E+03  0.25000000000E+03 0.  0.
<mgrwt>
<rscale>  0 0.52389830E+03</rscale>
<asrwt>0</asrwt>
<pdfrwt beam="1">  1        2 0.46275858E-01 0.52389830E+03</pdfrwt>
<pdfrwt beam="2">  1       -2 0.35095609E-01 0.52389830E+03</pdfrwt>
<totfact> 0.83731652E+02</totfact>
</mgrwt>
</event>
<event>
 4    1  0.1714834E-005  0.6944156E+03  0.7818608E-02  0.9726830E-01
         -2   -1    0    0    0  501 -0.00000000000E+00  0.00000000000E+00  0.76670007253E+02  0.76670007295E+02  0.25500000000E-02 0. -1.
          2   -1    0    0  501    0  0.00000000000E+00 -0.00000000000E+00 -0.15723652164E+04  0.15723652164E+04  0.25500000000E-02 0.  1.
   -5000001    1    1    2    0    0 -0.76867096522E+02 -0.16827627740E+03 -0.11144137999E+04  0.11569976549E+04  0.25000000000E+03 0.  0.
    5000001    1    1    2    0    0  0.76867096522E+02  0.16827627740E+03 -0.38128140925E+03  0.49203756879E+03  0.25000000000E+03 0.  0.
<mgrwt>
<rscale>  0 0.69441559E+03</rscale>
<asrwt>0</asrwt>
<pdfrwt beam="1">  1        2 0.24190232E+00 0.69441559E+03</pdfrwt>
<pdfrwt beam="2">  1       -2 0.11795387E-01 0.69441559E+03</pdfrwt>
<totfact> 0.61527206E+02</totfact>
</mgrwt>
</event>
<event>
 4    1  0.1714834E-005  0.6308895E+03  0.7818608E-02  0.9843314E-01
         -2   -1    0    0    0  501 -0.00000000000E+00  0.00000000000E+00  0.10871002260E+04  0.10871002260E+04  0.25500000000E-02 0. -1.
          2   -1    0    0  501    0  0.00000000000E+00 -0.00000000000E+00 -0.91532867968E+02  0.91532868003E+02  0.25500000000E-02 0.  1.
   -5000001    1    1    2    0    0  0.14318493947E+03 -0.12106756147E+03  0.57805405330E+03  0.65711929652E+03  0.25000000000E+03 0.  0.
    5000001    1    1    2    0    0 -0.14318493947E+03  0.12106756147E+03  0.41751330472E+03  0.52151379746E+03  0.25000000000E+03 0.  0.
<mgrwt>
<rscale>  0 0.63088954E+03</rscale>
<asrwt>0</asrwt>
<pdfrwt beam="1">  1        2 0.14081980E-01 0.63088954E+03</pdfrwt>
<pdfrwt beam="2">  1       -2 0.16724618E+00 0.63088954E+03</pdfrwt>
<totfact> 0.98361881E+01</totfact>
</mgrwt>
</event>
<event>
 4    1  0.1714834E-005  0.7481194E+03  0.7818608E-02  0.9638305E-01
          2   -1    0    0  501    0  0.00000000000E+00  0.00000000000E+00  0.19673760509E+04  0.19673760509E+04  0.25500000000E-02 0.  1.
         -2   -1    0    0    0  501 -0.00000000000E+00 -0.00000000000E+00 -0.71120453732E+02  0.71120453778E+02  0.25500000000E-02 0. -1.
   -5000001    1    1    2    0    0  0.53685436754E+02 -0.26071833854E+03  0.11688976821E+04  0.12246133959E+04  0.25000000000E+03 0.  0.
    5000001    1    1    2    0    0 -0.53685436754E+02  0.26071833854E+03  0.72735791510E+03  0.81388310882E+03  0.25000000000E+03 0.  0.
<mgrwt>
<rscale>  0 0.74811945E+03</rscale>
<asrwt>0</asrwt>
<pdfrwt beam="1">  1        2 0.30267322E+00 0.74811945E+03</pdfrwt>
<pdfrwt beam="2">  1       -2 0.10941609E-01 0.74811945E+03</pdfrwt>
<totfact> 0.42222243E+02</totfact>
</mgrwt>
</event>
<event>
 4    1  0.1714834E-005  0.1470493E+04  0.7818608E-02  0.8904315E-01
         -2   -1    0    0    0  501 -0.00000000000E+00  0.00000000000E+00  0.48706881346E+03  0.48706881347E+03  0.25500000000E-02 0. -1.
          2   -1    0    0  501    0  0.00000000000E+00 -0.00000000000E+00 -0.11098785460E+04  0.11098785460E+04  0.25500000000E-02 0.  1.
   -5000001    1    1    2    0    0 -0.43359687175E+03  0.37342888211E+03  0.11008401169E+03  0.63409294809E+03  0.25000000000E+03 0.  0.
    5000001    1    1    2    0    0  0.43359687175E+03 -0.37342888211E+03 -0.73289374427E+03  0.96285441141E+03  0.25000000000E+03 0.  0.
<mgrwt>
<rscale>  0 0.14704927E+04</rscale>
<asrwt>0</asrwt>
<pdfrwt beam="1">  1        2 0.17075054E+00 0.14704927E+04</pdfrwt>
<pdfrwt beam="2">  1       -2 0.74933664E-01 0.14704927E+04</pdfrwt>
<totfact> 0.33287695E+01</totfact>
</mgrwt>
</event>
<event>
 4    1  0.1714834E-005  0.9030264E+03  0.7818608E-02  0.9421806E-01
         -2   -1    0    0    0  501 -0.00000000000E+00  0.00000000000E+00  0.12784873148E+03  0.12784873151E+03  0.25500000000E-02 0. -1.
          2   -1    0    0  501    0  0.00000000000E+00 -0.00000000000E+00 -0.15945733766E+04  0.15945733766E+04  0.25500000000E-02 0.  1.
   -5000001    1    1    2    0    0 -0.30832606058E+03 -0.18408715839E+03 -0.94585550508E+03  0.10421591424E+04  0.25000000000E+03 0.  0.
    5000001    1    1    2    0    0  0.30832606058E+03  0.18408715839E+03 -0.52086914001E+03  0.68026296572E+03  0.25000000000E+03 0.  0.
<mgrwt>
<rscale>  0 0.90302643E+03</rscale>
<asrwt>0</asrwt>
<pdfrwt beam="1">  1        2 0.24531897E+00 0.90302643E+03</pdfrwt>
<pdfrwt beam="2">  1       -2 0.19669037E-01 0.90302643E+03</pdfrwt>
<totfact> 0.24801951E+02</totfact>
</mgrwt>
</event>
<event>
 4    1  0.1714834E-005  0.6211176E+03  0.7818608E-02  0.9862537E-01
          2   -1    0    0  501    0  0.00000000000E+00  0.00000000000E+00  0.18802888374E+03  0.18802888376E+03  0.25500000000E-02 0.  1.
         -2   -1    0    0    0  501 -0.00000000000E+00 -0.00000000000E+00 -0.51293591603E+03  0.51293591604E+03  0.25500000000E-02 0. -1.
   -5000001    1    1    2    0    0 -0.11131374271E+03  0.49415670182E+02 -0.64266393583E+01  0.27816175055E+03  0.25000000000E+03 0.  0.
    5000001    1    1    2    0    0  0.11131374271E+03 -0.49415670182E+02 -0.31848039293E+03  0.42280304925E+03  0.25000000000E+03 0.  0.
<mgrwt>
<rscale>  0 0.62111760E+03</rscale>
<asrwt>0</asrwt>
<pdfrwt beam="1">  1        2 0.28927521E-01 0.62111760E+03</pdfrwt>
<pdfrwt beam="2">  1       -2 0.78913217E-01 0.62111760E+03</pdfrwt>
<totfact> 0.26725698E+02</totfact>
</mgrwt>
</event>
<event>
 4    1  0.1714834E-005  0.1031144E+04  0.7818608E-02  0.9275031E-01
         -2   -1    0    0    0  501 -0.00000000000E+00  0.00000000000E+00  0.10442262492E+03  0.10442262495E+03  0.25500000000E-02 0. -1.
          2   -1    0    0  501    0  0.00000000000E+00 -0.00000000000E+00 -0.25455654530E+04  0.25455654530E+04  0.25500000000E-02 0.  1.
   -5000001    1    1    2    0    0  0.29325904537E+03  0.91638274620E+02 -0.20687175711E+04  0.21062978968E+04  0.25000000000E+03 0.  0.
    5000001    1    1    2    0    0 -0.29325904537E+03 -0.91638274620E+02 -0.37242525704E+03  0.54369018121E+03  0.25000000000E+03 0.  0.
<mgrwt>
<rscale>  0 0.10311443E+04</rscale>
<asrwt>0</asrwt>
<pdfrwt beam="1">  1        2 0.39162541E+00 0.10311443E+04</pdfrwt>
<pdfrwt beam="2">  1       -2 0.16065021E-01 0.10311443E+04</pdfrwt>
<totfact> 0.10322851E+02</totfact>
</mgrwt>
</event>
<event>
 4    1  0.1714834E-005  0.5592786E+03  0.7818608E-02  0.9993688E-01
         -2   -1    0    0    0  501 -0.00000000000E+00  0.00000000000E+00  0.11238565136E+04  0.11238565136E+04  0.25500000000E-02 0. -1.
          2   -1    0    0  501    0  0.00000000000E+00 -0.00000000000E+00 -0.69580183327E+02  0.69580183374E+02  0.25500000000E-02 0.  1.
   -5000001    1    1    2    0    0 -0.20678801467E+02  0.10367169671E+03  0.38363202452E+03  0.46994570300E+03  0.25000000000E+03 0.  0.
    5000001    1    1    2    0    0  0.20678801467E+02 -0.10367169671E+03  0.67064430571E+03  0.72349099394E+03  0.25000000000E+03 0.  0.
<mgrwt>
<rscale>  0 0.55927861E+03</rscale>
<asrwt>0</asrwt>
<pdfrwt beam="1">  1        2 0.10704645E-01 0.55927861E+03</pdfrwt>
<pdfrwt beam="2">  1       -2 0.17290099E+00 0.55927861E+03</pdfrwt>
<totfact> 0.12656368E+02</totfact>
</mgrwt>
</event>
<event>
 4    1  0.1714834E-005  0.8775134E+03  0.7818608E-02  0.9454136E-01
          2   -1    0    0  501    0  0.00000000000E+00  0.00000000000E+00  0.60221954966E+03  0.60221954967E+03  0.25500000000E-02 0.  1.
         -2   -1    0    0    0  501 -0.00000000000E+00 -0.00000000000E+00 -0.31966318908E+03  0.31966318909E+03  0.25500000000E-02 0. -1.
   -5000001    1    1    2    0    0  0.31931077846E+03  0.15701639171E+03  0.20248101692E+03  0.47969999241E+03  0.25000000000E+03 0.  0.
    5000001    1    1    2    0    0 -0.31931077846E+03 -0.15701639171E+03  0.80075343662E+02  0.44218274635E+03  0.25000000000E+03 0.  0.
<mgrwt>
<rscale>  0 0.87751335E+03</rscale>
<asrwt>0</asrwt>
<pdfrwt beam="1">  1        2 0.92649162E-01 0.87751335E+03</pdfrwt>
<pdfrwt beam="2">  1       -2 0.49178952E-01 0.87751335E+03</pdfrwt>
<totfact> 0.19407997E+02</totfact>
</mgrwt>
</event>
<event>
 4    1  0.1714834E-005  0.5681399E+03  0.7818608E-02  0.9973803E-01
          2   -1    0    0  501    0  0.00000000000E+00  0.00000000000E+00  0.31498323134E+03  0.31498323135E+03  0.25500000000E-02 0.  1.
         -2   -1    0    0    0  501 -0.00000000000E+00 -0.00000000000E+00 -0.25619056134E+03  0.25619056135E+03  0.25500000000E-02 0. -1.
   -5000001    1    1    2    0    0 -0.99040297655E+02  0.10584412258E+02 -0.62054918798E+02  0.27617353836E+03  0.25000000000E+03 0.  0.
    5000001    1    1    2    0    0  0.99040297655E+02 -0.10584412258E+02  0.12084758880E+03  0.29500025434E+03  0.25000000000E+03 0.  0.
<mgrwt>
<rscale>  0 0.56813988E+03</rscale>
<asrwt>0</asrwt>
<pdfrwt beam="1">  1        2 0.48458959E-01 0.56813988E+03</pdfrwt>
<pdfrwt beam="2">  1       -2 0.39413933E-01 0.56813988E+03</pdfrwt>
<totfact> 0.63712966E+02</totfact>
</mgrwt>
</event>
<event>
 4    1  0.1714834E-005  0.5762994E+03  0.7818608E-02  0.9955835E-01
         -2   -1    0    0    0  501 -0.00000000000E+00  0.00000000000E+00  0.44563376316E+02  0.44563376389E+02  0.25500000000E-02 0. -1.
          2   -1    0    0  501    0  0.00000000000E+00 -0.00000000000E+00 -0.18631949295E+04  0.18631949295E+04  0.25500000000E-02 0.  1.
   -5000001    1    1    2    0    0 -0.10702194049E+03 -0.83460160863E+02 -0.75722059941E+03  0.80888956624E+03  0.25000000000E+03 0.  0.
    5000001    1    1    2    0    0  0.10702194049E+03  0.83460160863E+02 -0.10614109538E+04  0.10988687397E+04  0.25000000000E+03 0.  0.
<mgrwt>
<rscale>  0 0.57629943E+03</rscale>
<asrwt>0</asrwt>
<pdfrwt beam="1">  1        2 0.28664531E+00 0.57629943E+03</pdfrwt>
<pdfrwt beam="2">  1       -2 0.68559055E-02 0.57629943E+03</pdfrwt>
<totfact> 0.10311836E+03</totfact>
</mgrwt>
</event>
<event>
 4    1  0.1714834E-005  0.6094128E+03  0.7818608E-02  0.9886068E-01
         -2   -1    0    0    0  501 -0.00000000000E+00  0.00000000000E+00  0.43188546312E+02  0.43188546387E+02  0.25500000000E-02 0. -1.
          2   -1    0    0  501    0  0.00000000000E+00 -0.00000000000E+00 -0.21497829384E+04  0.21497829384E+04  0.25500000000E-02 0.  1.
   -5000001    1    1    2    0    0  0.17292191577E+03  0.48123533304E+01 -0.11271192773E+04  0.11674001083E+04  0.25000000000E+03 0.  0.
    5000001    1    1    2    0    0 -0.17292191577E+03 -0.48123533304E+01 -0.97947511485E+03  0.10255713765E+04  0.25000000000E+03 0.  0.
<mgrwt>
<rscale>  0 0.60941283E+03</rscale>
<asrwt>0</asrwt>
<pdfrwt beam="1">  1        2 0.33073575E+00 0.60941283E+03</pdfrwt>
<pdfrwt beam="2">  1       -2 0.66443934E-02 0.60941283E+03</pdfrwt>
<totfact> 0.75592500E+02</totfact>
</mgrwt>
</event>
<event>
 4    1  0.1714834E-005  0.9325647E+03  0.7818608E-02  0.9385765E-01
          2   -1    0    0  501    0  0.00000000000E+00  0.00000000000E+00  0.31690027817E+03  0.31690027818E+03  0.25500000000E-02 0.  1.
         -2   -1    0    0    0  501 -0.00000000000E+00 -0.00000000000E+00 -0.68608088022E+03  0.68608088022E+03  0.25500000000E-02 0. -1.
   -5000001    1    1    2    0    0  0.25892520462E+02  0.39036624380E+03 -0.23101185146E+03  0.51857757610E+03  0.25000000000E+03 0.  0.
    5000001    1    1    2    0    0 -0.25892520462E+02 -0.39036624380E+03 -0.13816875059E+03  0.48440358231E+03  0.25000000000E+03 0.  0.
<mgrwt>
<rscale>  0 0.93256468E+03</rscale>
<asrwt>0</asrwt>
<pdfrwt beam="1">  1        2 0.48753889E-01 0.93256468E+03</pdfrwt>
<pdfrwt beam="2">  1       -2 0.10555090E+00 0.93256468E+03</pdfrwt>
<totfact> 0.75098487E+01</totfact>
</mgrwt>
</event>
<event>
 4    1  0.1714834E-005  0.7761737E+03  0.7818608E-02  0.9595160E-01
          2   -1    0    0  501    0  0.00000000000E+00  0.00000000000E+00  0.35493455161E+03  0.35493455162E+03  0.25500000000E-02 0.  1.
         -2   -1    0    0    0  501 -0.00000000000E+00 -0.00000000000E+00 -0.42433574769E+03  0.42433574770E+03  0.25500000000E-02 0. -1.
   -5000001    1    1    2    0    0 -0.10285755925E+03 -0.22330652628E+03  0.13229378535E+03  0.37476276205E+03  0.25000000000E+03 0.  0.
    5000001    1    1    2    0    0  0.10285755925E+03  0.22330652628E+03 -0.20169498143E+03  0.40450753727E+03  0.25000000000E+03 0.  0.
<mgrwt>
<rscale>  0 0.77617374E+03</rscale>
<asrwt>0</asrwt>
<pdfrwt beam="1">  1        2 0.54605315E-01 0.77617374E+03</pdfrwt>
<pdfrwt beam="2">  1       -2 0.65282423E-01 0.77617374E+03</pdfrwt>
<totfact> 0.19840737E+02</totfact>
</mgrwt>
</event>
<event>
 4    1  0.1714834E-005  0.9006281E+03  0.7818608E-02  0.9424797E-01
          2   -1    0    0  501    0  0.00000000000E+00  0.00000000000E+00  0.21429574559E+04  0.21429574559E+04  0.25500000000E-02 0.  1.
         -2   -1    0    0    0  501 -0.00000000000E+00 -0.00000000000E+00 -0.94627508107E+02  0.94627508142E+02  0.25500000000E-02 0. -1.
   -5000001    1    1    2    0    0 -0.31691118668E+02  0.37313240090E+03  0.10064905333E+04  0.11026129463E+04  0.25000000000E+03 0.  0.
    5000001    1    1    2    0    0  0.31691118668E+02 -0.37313240090E+03  0.10418394145E+04  0.11349720178E+04  0.25000000000E+03 0.  0.
<mgrwt>
<rscale>  0 0.90062806E+03</rscale>
<asrwt>0</asrwt>
<pdfrwt beam="1">  1        2 0.32968577E+00 0.90062806E+03</pdfrwt>
<pdfrwt beam="2">  1       -2 0.14558078E-01 0.90062806E+03</pdfrwt>
<totfact> 0.20785862E+02</totfact>
</mgrwt>
</event>
<event>
 4    1  0.1714834E-005  0.9853015E+03  0.7818608E-02  0.9324814E-01
         -2   -1    0    0    0  501 -0.00000000000E+00  0.00000000000E+00  0.10832992260E+03  0.10832992263E+03  0.25500000000E-02 0. -1.
          2   -1    0    0  501    0  0.00000000000E+00 -0.00000000000E+00 -0.22404222917E+04  0.22404222917E+04  0.25500000000E-02 0.  1.
   -5000001    1    1    2    0    0  0.23247857708E+03 -0.22279498030E+03 -0.17254599817E+04  0.17729625040E+04  0.25000000000E+03 0.  0.
    5000001    1    1    2    0    0 -0.23247857708E+03  0.22279498030E+03 -0.40663238736E+03  0.57578971031E+03  0.25000000000E+03 0.  0.
<mgrwt>
<rscale>  0 0.98530152E+03</rscale>
<asrwt>0</asrwt>
<pdfrwt beam="1">  1        2 0.34468032E+00 0.98530152E+03</pdfrwt>
<pdfrwt beam="2">  1       -2 0.16666144E-01 0.98530152E+03</pdfrwt>
<totfact> 0.14477752E+02</totfact>
</mgrwt>
</event>
<event>
 4    1  0.1714834E-005  0.6497396E+03  0.7818608E-02  0.9807268E-01
         -2   -1    0    0    0  501 -0.00000000000E+00  0.00000000000E+00  0.19824614997E+04  0.19824614997E+04  0.25500000000E-02 0. -1.
          2   -1    0    0  501    0  0.00000000000E+00 -0.00000000000E+00 -0.53237039727E+02  0.53237039788E+02  0.25500000000E-02 0.  1.
   -5000001    1    1    2    0    0 -0.20312643513E+03 -0.20348435303E+02  0.10804087183E+04  0.11275892010E+04  0.25000000000E+03 0.  0.
    5000001    1    1    2    0    0  0.20312643513E+03  0.20348435303E+02  0.84881574160E+03  0.90810933849E+03  0.25000000000E+03 0.  0.
<mgrwt>
<rscale>  0 0.64973958E+03</rscale>
<asrwt>0</asrwt>
<pdfrwt beam="1">  1        2 0.81903142E-02 0.64973958E+03</pdfrwt>
<pdfrwt beam="2">  1       -2 0.30499406E+00 0.64973958E+03</pdfrwt>
<totfact> 0.26795885E+01</totfact>
</mgrwt>
</event>
<event>
 4    1  0.1714834E-005  0.6979085E+03  0.7818608E-02  0.9720816E-01
          2   -1    0    0  501    0  0.00000000000E+00  0.00000000000E+00  0.93273457046E+03  0.93273457046E+03  0.25500000000E-02 0.  1.
         -2   -1    0    0    0  501 -0.00000000000E+00 -0.00000000000E+00 -0.13055061993E+03  0.13055061996E+03  0.25500000000E-02 0. -1.
   -5000001    1    1    2    0    0 -0.76253413432E+02  0.23005186262E+03  0.43618725807E+03  0.55811984972E+03  0.25000000000E+03 0.  0.
    5000001    1    1    2    0    0  0.76253413432E+02 -0.23005186262E+03  0.36599669246E+03  0.50516534070E+03  0.25000000000E+03 0.  0.
<mgrwt>
<rscale>  0 0.69790852E+03</rscale>
<asrwt>0</asrwt>
<pdfrwt beam="1">  1        2 0.14349763E+00 0.69790852E+03</pdfrwt>
<pdfrwt beam="2">  1       -2 0.20084710E-01 0.69790852E+03</pdfrwt>
<totfact> 0.59427017E+02</totfact>
</mgrwt>
</event>
<event>
 4    1  0.1714834E-005  0.6517190E+03  0.7818608E-02  0.9803559E-01
          2   -1    0    0  501    0  0.00000000000E+00  0.00000000000E+00  0.17136749181E+03  0.17136749183E+03  0.25500000000E-02 0.  1.
         -2   -1    0    0    0  501 -0.00000000000E+00 -0.00000000000E+00 -0.61962979581E+03  0.61962979581E+03  0.25500000000E-02 0. -1.
   -5000001    1    1    2    0    0 -0.11191822183E+03 -0.11671652556E+03 -0.63407605425E+02  0.30441576855E+03  0.25000000000E+03 0.  0.
    5000001    1    1    2    0    0  0.11191822183E+03  0.11671652556E+03 -0.38485469857E+03  0.48658151910E+03  0.25000000000E+03 0.  0.
<mgrwt>
<rscale>  0 0.65171897E+03</rscale>
<asrwt>0</asrwt>
<pdfrwt beam="1">  1        2 0.26364230E-01 0.65171897E+03</pdfrwt>
<pdfrwt beam="2">  1       -2 0.95327659E-01 0.65171897E+03</pdfrwt>
<totfact> 0.19275368E+02</totfact>
</mgrwt>
</event>
<event>
 4    1  0.1714834E-005  0.5785221E+03  0.7818608E-02  0.9950996E-01
         -2   -1    0    0    0  501 -0.00000000000E+00  0.00000000000E+00  0.53058317843E+02  0.53058317904E+02  0.25500000000E-02 0. -1.
          2   -1    0    0  501    0  0.00000000000E+00 -0.00000000000E+00 -0.15769810144E+04  0.15769810144E+04  0.25500000000E-02 0.  1.
   -5000001    1    1    2    0    0 -0.12436273780E+03  0.30558302539E+02 -0.56732181975E+03  0.63305129932E+03  0.25000000000E+03 0.  0.
    5000001    1    1    2    0    0  0.12436273780E+03 -0.30558302539E+02 -0.95660087683E+03  0.99698803301E+03  0.25000000000E+03 0.  0.
<mgrwt>
<rscale>  0 0.57852212E+03</rscale>
<asrwt>0</asrwt>
<pdfrwt beam="1">  1        2 0.24261243E+00 0.57852212E+03</pdfrwt>
<pdfrwt beam="2">  1       -2 0.81628193E-02 0.57852212E+03</pdfrwt>
<totfact> 0.11177620E+03</totfact>
</mgrwt>
</event>
<event>
 4    1  0.1714834E-005  0.9430105E+03  0.7818608E-02  0.9373358E-01
         -2   -1    0    0    0  501 -0.00000000000E+00  0.00000000000E+00  0.17862631854E+03  0.17862631856E+03  0.25500000000E-02 0. -1.
          2   -1    0    0  501    0  0.00000000000E+00 -0.00000000000E+00 -0.12445937316E+04  0.12445937316E+04  0.25500000000E-02 0.  1.
   -5000001    1    1    2    0    0  0.17459962504E+03 -0.35582822082E+03 -0.45429439052E+03  0.65267307670E+03  0.25000000000E+03 0.  0.
    5000001    1    1    2    0    0 -0.17459962504E+03  0.35582822082E+03 -0.61167302251E+03  0.77054697343E+03  0.25000000000E+03 0.  0.
<mgrwt>
<rscale>  0 0.94301049E+03</rscale>
<asrwt>0</asrwt>
<pdfrwt beam="1">  1        2 0.19147595E+00 0.94301049E+03</pdfrwt>
<pdfrwt beam="2">  1       -2 0.27480973E-01 0.94301049E+03</pdfrwt>
<totfact> 0.21489066E+02</totfact>
</mgrwt>
</event>
<event>
 4    1  0.1714834E-005  0.8904667E+03  0.7818608E-02  0.9437578E-01
          2   -1    0    0  501    0  0.00000000000E+00  0.00000000000E+00  0.84227752818E+03  0.84227752818E+03  0.25500000000E-02 0.  1.
         -2   -1    0    0    0  501 -0.00000000000E+00 -0.00000000000E+00 -0.23535320868E+03  0.23535320870E+03  0.25500000000E-02 0. -1.
   -5000001    1    1    2    0    0  0.23429353987E+03 -0.25966229565E+03  0.44362844682E+03  0.61775737100E+03  0.25000000000E+03 0.  0.
    5000001    1    1    2    0    0 -0.23429353987E+03  0.25966229565E+03  0.16329587268E+03  0.45987336587E+03  0.25000000000E+03 0.  0.
<mgrwt>
<rscale>  0 0.89046666E+03</rscale>
<asrwt>0</asrwt>
<pdfrwt beam="1">  1        2 0.12958116E+00 0.89046666E+03</pdfrwt>
<pdfrwt beam="2">  1       -2 0.36208185E-01 0.89046666E+03</pdfrwt>
<totfact> 0.23115511E+02</totfact>
</mgrwt>
</event>
<event>
 4    1  0.1714834E-005  0.6888981E+03  0.7818608E-02  0.9736409E-01
          2   -1    0    0  501    0  0.00000000000E+00  0.00000000000E+00  0.43670481306E+03  0.43670481307E+03  0.25500000000E-02 0.  1.
         -2   -1    0    0    0  501 -0.00000000000E+00 -0.00000000000E+00 -0.27168267541E+03  0.27168267542E+03  0.25500000000E-02 0. -1.
   -5000001    1    1    2    0    0 -0.12630405355E+02  0.23325541798E+03  0.41669478058E+02  0.34467950702E+03  0.25000000000E+03 0.  0.
    5000001    1    1    2    0    0  0.12630405355E+02 -0.23325541798E+03  0.12335265960E+03  0.36370798147E+03  0.25000000000E+03 0.  0.
<mgrwt>
<rscale>  0 0.68889805E+03</rscale>
<asrwt>0</asrwt>
<pdfrwt beam="1">  1        2 0.67185355E-01 0.68889805E+03</pdfrwt>
<pdfrwt beam="2">  1       -2 0.41797335E-01 0.68889805E+03</pdfrwt>
<totfact> 0.39365451E+02</totfact>
</mgrwt>
</event>
<event>
 4    1  0.1714834E-005  0.1250038E+04  0.7818608E-02  0.9070151E-01
          2   -1    0    0  501    0  0.00000000000E+00  0.00000000000E+00  0.10688244705E+04  0.10688244705E+04  0.25500000000E-02 0. -1.
         -2   -1    0    0    0  501 -0.00000000000E+00 -0.00000000000E+00 -0.36549408313E+03  0.36549408314E+03  0.25500000000E-02 0.  1.
   -5000001    1    1    2    0    0 -0.41689684666E+03  0.28797667772E+03  0.65829785143E+03  0.86751922680E+03  0.25000000000E+03 0.  0.
    5000001    1    1    2    0    0  0.41689684666E+03 -0.28797667772E+03  0.45032535980E+02  0.56679932689E+03  0.25000000000E+03 0.  0.
<mgrwt>
<rscale>  0 0.12500384E+04</rscale>
<asrwt>0</asrwt>
<pdfrwt beam="1">  1        2 0.16443453E+00 0.12500384E+04</pdfrwt>
<pdfrwt beam="2">  1       -2 0.56229860E-01 0.12500384E+04</pdfrwt>
<totfact> 0.66512750E+01</totfact>
</mgrwt>
</event>
<event>
 4    1  0.1714834E-005  0.6891727E+03  0.7818608E-02  0.9735930E-01
          2   -1    0    0  501    0  0.00000000000E+00  0.00000000000E+00  0.43239275488E+03  0.43239275489E+03  0.25500000000E-02 0.  1.
         -2   -1    0    0    0  501 -0.00000000000E+00 -0.00000000000E+00 -0.27461089681E+03  0.27461089682E+03  0.25500000000E-02 0. -1.
   -5000001    1    1    2    0    0  0.12378326393E+03 -0.19738407877E+03  0.12427338678E+03  0.36362981952E+03  0.25000000000E+03 0.  0.
    5000001    1    1    2    0    0 -0.12378326393E+03  0.19738407877E+03  0.33508471296E+02  0.34337383219E+03  0.25000000000E+03 0.  0.
<mgrwt>
<rscale>  0 0.68917273E+03</rscale>
<asrwt>0</asrwt>
<pdfrwt beam="1">  1        2 0.66521962E-01 0.68917273E+03</pdfrwt>
<pdfrwt beam="2">  1       -2 0.42247830E-01 0.68917273E+03</pdfrwt>
<totfact> 0.38980643E+02</totfact>
</mgrwt>
</event>
<event>
 4    1  0.1714834E-005  0.8560445E+03  0.7818608E-02  0.9482260E-01
         -2   -1    0    0    0  501 -0.00000000000E+00  0.00000000000E+00  0.89948724951E+03  0.89948724952E+03  0.25500000000E-02 0. -1.
          2   -1    0    0  501    0  0.00000000000E+00 -0.00000000000E+00 -0.20367495613E+03  0.20367495615E+03  0.25500000000E-02 0.  1.
   -5000001    1    1    2    0    0  0.32186583466E+03  0.12895889246E+03  0.31981971604E+03  0.53386577174E+03  0.25000000000E+03 0.  0.
    5000001    1    1    2    0    0 -0.32186583466E+03 -0.12895889246E+03  0.37599257735E+03  0.56929643393E+03  0.25000000000E+03 0.  0.
<mgrwt>
<rscale>  0 0.85604445E+03</rscale>
<asrwt>0</asrwt>
<pdfrwt beam="1">  1        2 0.31334609E-01 0.85604445E+03</pdfrwt>
<pdfrwt beam="2">  1       -2 0.13838265E+00 0.85604445E+03</pdfrwt>
<totfact> 0.63030886E+01</totfact>
</mgrwt>
</event>
<event>
 4    1  0.1714834E-005  0.8447238E+03  0.7818608E-02  0.9497446E-01
         -2   -1    0    0    0  501 -0.00000000000E+00  0.00000000000E+00  0.15415469427E+03  0.15415469429E+03  0.25500000000E-02 0. -1.
          2   -1    0    0  501    0  0.00000000000E+00 -0.00000000000E+00 -0.11572114863E+04  0.11572114863E+04  0.25500000000E-02 0.  1.
   -5000001    1    1    2    0    0 -0.18122872831E+03  0.17071394044E+03 -0.14110446585E+03  0.37999680486E+03  0.25000000000E+03 0.  0.
    5000001    1    1    2    0    0  0.18122872831E+03 -0.17071394044E+03 -0.86195232621E+03  0.93136937575E+03  0.25000000000E+03 0.  0.
<mgrwt>
<rscale>  0 0.84472382E+03</rscale>
<asrwt>0</asrwt>
<pdfrwt beam="1">  1        2 0.17803253E+00 0.84472382E+03</pdfrwt>
<pdfrwt beam="2">  1       -2 0.23716107E-01 0.84472382E+03</pdfrwt>
<totfact> 0.31809825E+02</totfact>
</mgrwt>
</event>
<event>
 4    1  0.1714834E-005  0.6245564E+03  0.7818608E-02  0.9855730E-01
         -2   -1    0    0    0  501 -0.00000000000E+00  0.00000000000E+00  0.11878707778E+03  0.11878707781E+03  0.25500000000E-02 0.  1.
          2   -1    0    0  501    0  0.00000000000E+00 -0.00000000000E+00 -0.82094509829E+03  0.82094509829E+03  0.25500000000E-02 0. -1.
   -5000001    1    1    2    0    0  0.13364098676E+03  0.13092027346E+03 -0.34475989833E+03  0.46514451393E+03  0.25000000000E+03 0.  0.
    5000001    1    1    2    0    0 -0.13364098676E+03 -0.13092027346E+03 -0.35739812218E+03  0.47458766217E+03  0.25000000000E+03 0.  0.
<mgrwt>
<rscale>  0 0.62455638E+03</rscale>
<asrwt>0</asrwt>
<pdfrwt beam="1">  1        2 0.12629924E+00 0.62455638E+03</pdfrwt>
<pdfrwt beam="2">  1       -2 0.18274936E-01 0.62455638E+03</pdfrwt>
<totfact> 0.83598845E+02</totfact>
</mgrwt>
</event>
<event>
 4    1  0.1714834E-005  0.1146226E+04  0.7818608E-02  0.9161272E-01
         -2   -1    0    0    0  501 -0.00000000000E+00  0.00000000000E+00  0.25753301724E+03  0.25753301725E+03  0.25500000000E-02 0. -1.
          2   -1    0    0  501    0  0.00000000000E+00 -0.00000000000E+00 -0.12754039079E+04  0.12754039079E+04  0.25500000000E-02 0.  1.
   -5000001    1    1    2    0    0 -0.21759946642E+01 -0.51068437311E+03 -0.60496018794E+03  0.83022894004E+03  0.25000000000E+03 0.  0.
    5000001    1    1    2    0    0  0.21759946642E+01  0.51068437311E+03 -0.41291070269E+03  0.70270798507E+03  0.25000000000E+03 0.  0.
<mgrwt>
<rscale>  0 0.11462262E+04</rscale>
<asrwt>0</asrwt>
<pdfrwt beam="1">  1        2 0.19621598E+00 0.11462262E+04</pdfrwt>
<pdfrwt beam="2">  1       -2 0.39620465E-01 0.11462262E+04</pdfrwt>
<totfact> 0.10187877E+02</totfact>
</mgrwt>
</event>
<event>
 4    1  0.1714834E-005  0.7785774E+03  0.7818608E-02  0.9591554E-01
         -2   -1    0    0    0  501 -0.00000000000E+00  0.00000000000E+00  0.10193613277E+04  0.10193613278E+04  0.25500000000E-02 0. -1.
          2   -1    0    0  501    0  0.00000000000E+00 -0.00000000000E+00 -0.14866728856E+03  0.14866728859E+03  0.25500000000E-02 0.  1.
   -5000001    1    1    2    0    0  0.21554312287E+03 -0.36477778193E+02  0.13063021194E+03  0.35686652741E+03  0.25000000000E+03 0.  0.
    5000001    1    1    2    0    0 -0.21554312287E+03  0.36477778193E+02  0.74006382724E+03  0.81116208892E+03  0.25000000000E+03 0.  0.
<mgrwt>
<rscale>  0 0.77857738E+03</rscale>
<asrwt>0</asrwt>
<pdfrwt beam="1">  1        2 0.22871890E-01 0.77857738E+03</pdfrwt>
<pdfrwt beam="2">  1       -2 0.15682482E+00 0.77857738E+03</pdfrwt>
<totfact> 0.65253186E+01</totfact>
</mgrwt>
</event>
<event>
 4    1  0.1714834E-005  0.8888044E+03  0.7818608E-02  0.9439686E-01
          2   -1    0    0  501    0  0.00000000000E+00  0.00000000000E+00  0.12702235772E+04  0.12702235773E+04  0.25500000000E-02 0.  1.
         -2   -1    0    0    0  501 -0.00000000000E+00 -0.00000000000E+00 -0.15547916850E+03  0.15547916852E+03  0.25500000000E-02 0. -1.
   -5000001    1    1    2    0    0  0.20881983291E+03 -0.19925054147E+03  0.19269161896E+03  0.42771083796E+03  0.25000000000E+03 0.  0.
    5000001    1    1    2    0    0 -0.20881983291E+03  0.19925054147E+03  0.92205278979E+03  0.99799190781E+03  0.25000000000E+03 0.  0.
<mgrwt>
<rscale>  0 0.88880438E+03</rscale>
<asrwt>0</asrwt>
<pdfrwt beam="1">  1        2 0.19541901E+00 0.88880438E+03</pdfrwt>
<pdfrwt beam="2">  1       -2 0.23919872E-01 0.88880438E+03</pdfrwt>
<totfact> 0.26787873E+02</totfact>
</mgrwt>
</event>
<event>
 4    1  0.1714834E-005  0.6322841E+03  0.7818608E-02  0.9840602E-01
         -2   -1    0    0    0  501 -0.00000000000E+00  0.00000000000E+00  0.15238921109E+03  0.15238921111E+03  0.25500000000E-02 0. -1.
          2   -1    0    0  501    0  0.00000000000E+00 -0.00000000000E+00 -0.65585879815E+03  0.65585879815E+03  0.25500000000E-02 0.  1.
   -5000001    1    1    2    0    0 -0.88504912412E+02  0.15111048063E+03 -0.14649184388E+03  0.33856662151E+03  0.25000000000E+03 0.  0.
    5000001    1    1    2    0    0  0.88504912412E+02 -0.15111048063E+03 -0.35697774318E+03  0.46968138776E+03  0.25000000000E+03 0.  0.
<mgrwt>
<rscale>  0 0.63228413E+03</rscale>
<asrwt>0</asrwt>
<pdfrwt beam="1">  1        2 0.10090135E+00 0.63228413E+03</pdfrwt>
<pdfrwt beam="2">  1       -2 0.23444494E-01 0.63228413E+03</pdfrwt>
<totfact> 0.71949551E+02</totfact>
</mgrwt>
</event>
<event>
 4    1  0.1714834E-005  0.7302865E+03  0.7818608E-02  0.9666796E-01
         -2   -1    0    0    0  501 -0.00000000000E+00  0.00000000000E+00  0.11286831406E+03  0.11286831409E+03  0.25500000000E-02 0. -1.
          2   -1    0    0  501    0  0.00000000000E+00 -0.00000000000E+00 -0.11812845844E+04  0.11812845844E+04  0.25500000000E-02 0.  1.
   -5000001    1    1    2    0    0  0.18536848892E+03 -0.83929772557E+02 -0.23022986234E+03  0.39612052827E+03  0.25000000000E+03 0.  0.
    5000001    1    1    2    0    0 -0.18536848892E+03  0.83929772557E+02 -0.83818640798E+03  0.89803237020E+03  0.25000000000E+03 0.  0.
<mgrwt>
<rscale>  0 0.73028652E+03</rscale>
<asrwt>0</asrwt>
<pdfrwt beam="1">  1        2 0.18173608E+00 0.73028652E+03</pdfrwt>
<pdfrwt beam="2">  1       -2 0.17364357E-01 0.73028652E+03</pdfrwt>
<totfact> 0.53472371E+02</totfact>
</mgrwt>
</event>
<event>
 4    1  0.1714834E-005  0.7540035E+03  0.7818608E-02  0.9629090E-01
          2   -1    0    0  501    0  0.00000000000E+00  0.00000000000E+00  0.24151003980E+04  0.24151003980E+04  0.25500000000E-02 0.  1.
         -2   -1    0    0    0  501 -0.00000000000E+00 -0.00000000000E+00 -0.58850693475E+02  0.58850693530E+02  0.25500000000E-02 0. -1.
   -5000001    1    1    2    0    0  0.21552147224E+03 -0.13482583901E+03  0.77623763122E+03  0.85420862322E+03  0.25000000000E+03 0.  0.
    5000001    1    1    2    0    0 -0.21552147224E+03  0.13482583901E+03  0.15800120733E+04  0.16197424683E+04  0.25000000000E+03 0.  0.
<mgrwt>
<rscale>  0 0.75400354E+03</rscale>
<asrwt>0</asrwt>
<pdfrwt beam="1">  1        2 0.37155387E+00 0.75400354E+03</pdfrwt>
<pdfrwt beam="2">  1       -2 0.90539536E-02 0.75400354E+03</pdfrwt>
<totfact> 0.32523499E+02</totfact>
</mgrwt>
</event>
<event>
 4    1  0.1714834E-005  0.6014329E+03  0.7818608E-02  0.9902438E-01
          2   -1    0    0  501    0  0.00000000000E+00  0.00000000000E+00  0.22089673570E+04  0.22089673570E+04  0.25500000000E-02 0.  1.
         -2   -1    0    0    0  501 -0.00000000000E+00 -0.00000000000E+00 -0.40937858695E+02  0.40937858774E+02  0.25500000000E-02 0. -1.
   -5000001    1    1    2    0    0  0.81398331719E+02  0.14490147457E+03  0.10183335382E+04  0.10616615849E+04  0.25000000000E+03 0.  0.
    5000001    1    1    2    0    0 -0.81398331719E+02 -0.14490147457E+03  0.11496959601E+04  0.11882436309E+04  0.25000000000E+03 0.  0.
<mgrwt>
<rscale>  0 0.60143293E+03</rscale>
<asrwt>0</asrwt>
<pdfrwt beam="1">  1        2 0.33984124E+00 0.60143293E+03</pdfrwt>
<pdfrwt beam="2">  1       -2 0.62981301E-02 0.60143293E+03</pdfrwt>
<totfact> 0.76375872E+02</totfact>
</mgrwt>
</event>
<event>
 4    1  0.1714834E-005  0.7591768E+03  0.7818608E-02  0.9621062E-01
          2   -1    0    0  501    0  0.00000000000E+00  0.00000000000E+00  0.26287948415E+03  0.26287948416E+03  0.25500000000E-02 0.  1.
         -2   -1    0    0    0  501 -0.00000000000E+00 -0.00000000000E+00 -0.54811177699E+03  0.54811177700E+03  0.25500000000E-02 0. -1.
   -5000001    1    1    2    0    0 -0.22550346493E+03 -0.74185080800E+02  0.27071405179E+02  0.34581512386E+03  0.25000000000E+03 0.  0.
    5000001    1    1    2    0    0  0.22550346493E+03  0.74185080800E+02 -0.31230369803E+03  0.46517613730E+03  0.25000000000E+03 0.  0.
<mgrwt>
<rscale>  0 0.75917677E+03</rscale>
<asrwt>0</asrwt>
<pdfrwt beam="1">  1        2 0.40442998E-01 0.75917677E+03</pdfrwt>
<pdfrwt beam="2">  1       -2 0.84324888E-01 0.75917677E+03</pdfrwt>
<totfact> 0.15745606E+02</totfact>
</mgrwt>
</event>
<event>
 4    1  0.1714834E-005  0.1433551E+04  0.7818608E-02  0.8929884E-01
          2   -1    0    0  501    0  0.00000000000E+00  0.00000000000E+00  0.88677914735E+03  0.88677914735E+03  0.25500000000E-02 0.  1.
         -2   -1    0    0    0  501 -0.00000000000E+00 -0.00000000000E+00 -0.57936312179E+03  0.57936312179E+03  0.25500000000E-02 0. -1.
   -5000001    1    1    2    0    0  0.20189378041E+03  0.53936671453E+03  0.50738730802E+03  0.80722947893E+03  0.25000000000E+03 0.  0.
    5000001    1    1    2    0    0 -0.20189378041E+03 -0.53936671453E+03 -0.19997128246E+03  0.65891279022E+03  0.25000000000E+03 0.  0.
<mgrwt>
<rscale>  0 0.14335510E+04</rscale>
<asrwt>0</asrwt>
<pdfrwt beam="1">  1        2 0.13642756E+00 0.14335510E+04</pdfrwt>
<pdfrwt beam="2">  1       -2 0.89132788E-01 0.14335510E+04</pdfrwt>
<totfact> 0.31419812E+01</totfact>
</mgrwt>
</event>
<event>
 4    1  0.1714834E-005  0.6436634E+03  0.7818608E-02  0.9818742E-01
         -2   -1    0    0    0  501 -0.00000000000E+00  0.00000000000E+00  0.79734533988E+02  0.79734534029E+02  0.25500000000E-02 0. -1.
          2   -1    0    0  501    0  0.00000000000E+00 -0.00000000000E+00 -0.12990062174E+04  0.12990062174E+04  0.25500000000E-02 0.  1.
   -5000001    1    1    2    0    0  0.16765706949E+03  0.12532980275E+02 -0.36720212008E+03  0.47497722633E+03  0.25000000000E+03 0.  0.
    5000001    1    1    2    0    0 -0.16765706949E+03 -0.12532980275E+02 -0.85206956334E+03  0.90376352511E+03  0.25000000000E+03 0.  0.
<mgrwt>
<rscale>  0 0.64366344E+03</rscale>
<asrwt>0</asrwt>
<pdfrwt beam="1">  1        2 0.19984710E+00 0.64366344E+03</pdfrwt>
<pdfrwt beam="2">  1       -2 0.12266852E-01 0.64366344E+03</pdfrwt>
<totfact> 0.82281444E+02</totfact>
</mgrwt>
</event>
<event>
 4    1  0.1714834E-005  0.6644540E+03  0.7818608E-02  0.9780029E-01
          2   -1    0    0  501    0  0.00000000000E+00  0.00000000000E+00  0.17085236082E+03  0.17085236084E+03  0.25500000000E-02 0.  1.
         -2   -1    0    0    0  501 -0.00000000000E+00 -0.00000000000E+00 -0.64602424289E+03  0.64602424289E+03  0.25500000000E-02 0. -1.
   -5000001    1    1    2    0    0 -0.20624355620E+03 -0.45926627129E+02 -0.16772526017E+03  0.36780079180E+03  0.25000000000E+03 0.  0.
    5000001    1    1    2    0    0  0.20624355620E+03  0.45926627129E+02 -0.30744662189E+03  0.44907581193E+03  0.25000000000E+03 0.  0.
<mgrwt>
<rscale>  0 0.66445396E+03</rscale>
<asrwt>0</asrwt>
<pdfrwt beam="1">  1        2 0.26284979E-01 0.66445396E+03</pdfrwt>
<pdfrwt beam="2">  1       -2 0.99388344E-01 0.66445396E+03</pdfrwt>
<totfact> 0.17532288E+02</totfact>
</mgrwt>
</event>
<event>
 4    1  0.1714834E-005  0.8281092E+03  0.7818608E-02  0.9520198E-01
         -2   -1    0    0    0  501 -0.00000000000E+00  0.00000000000E+00  0.15665742847E+03  0.15665742849E+03  0.25500000000E-02 0. -1.
          2   -1    0    0  501    0  0.00000000000E+00 -0.00000000000E+00 -0.10943700144E+04  0.10943700144E+04  0.25500000000E-02 0.  1.
   -5000001    1    1    2    0    0  0.26437520263E+03  0.26543572739E+02 -0.17304223870E+03  0.40378512280E+03  0.25000000000E+03 0.  0.
    5000001    1    1    2    0    0 -0.26437520263E+03 -0.26543572739E+02 -0.76467034723E+03  0.84724232009E+03  0.25000000000E+03 0.  0.
<mgrwt>
<rscale>  0 0.82810915E+03</rscale>
<asrwt>0</asrwt>
<pdfrwt beam="1">  1        2 0.16836461E+00 0.82810915E+03</pdfrwt>
<pdfrwt beam="2">  1       -2 0.24101144E-01 0.82810915E+03</pdfrwt>
<totfact> 0.33774068E+02</totfact>
</mgrwt>
</event>
<event>
 4    1  0.1714834E-005  0.1391131E+04  0.7818608E-02  0.8960263E-01
          2   -1    0    0  501    0  0.00000000000E+00  0.00000000000E+00  0.89580719119E+03  0.89580719119E+03  0.25500000000E-02 0.  1.
         -2   -1    0    0    0  501 -0.00000000000E+00 -0.00000000000E+00 -0.54008455781E+03  0.54008455782E+03  0.25500000000E-02 0. -1.
   -5000001    1    1    2    0    0 -0.66264870768E+02 -0.64444193492E+03  0.13637877267E+03  0.70766913895E+03  0.25000000000E+03 0.  0.
    5000001    1    1    2    0    0  0.66264870768E+02  0.64444193492E+03  0.21934386070E+03  0.72822261006E+03  0.25000000000E+03 0.  0.
<mgrwt>
<rscale>  0 0.13911314E+04</rscale>
<asrwt>0</asrwt>
<pdfrwt beam="1">  1        2 0.13781649E+00 0.13911314E+04</pdfrwt>
<pdfrwt beam="2">  1       -2 0.83089933E-01 0.13911314E+04</pdfrwt>
<totfact> 0.36483472E+01</totfact>
</mgrwt>
</event>
<event>
 4    1  0.1714834E-005  0.5709437E+03  0.7818608E-02  0.9967593E-01
          2   -1    0    0  501    0  0.00000000000E+00  0.00000000000E+00  0.23347440556E+03  0.23347440558E+03  0.25500000000E-02 0.  1.
         -2   -1    0    0    0  501 -0.00000000000E+00 -0.00000000000E+00 -0.34904967635E+03  0.34904967636E+03  0.25500000000E-02 0. -1.
   -5000001    1    1    2    0    0 -0.10470867475E+03  0.24541495684E+02 -0.14572143120E+03  0.30870848237E+03  0.25000000000E+03 0.  0.
    5000001    1    1    2    0    0  0.10470867475E+03 -0.24541495684E+02  0.30146160415E+02  0.27381559957E+03  0.25000000000E+03 0.  0.
<mgrwt>
<rscale>  0 0.57094366E+03</rscale>
<asrwt>0</asrwt>
<pdfrwt beam="1">  1        2 0.35919139E-01 0.57094366E+03</pdfrwt>
<pdfrwt beam="2">  1       -2 0.53699950E-01 0.57094366E+03</pdfrwt>
<totfact> 0.47881865E+02</totfact>
</mgrwt>
</event>
<event>
 4    1  0.1714834E-005  0.9433308E+03  0.7818608E-02  0.9372980E-01
         -2   -1    0    0    0  501 -0.00000000000E+00  0.00000000000E+00  0.11472858579E+03  0.11472858582E+03  0.25500000000E-02 0. -1.
          2   -1    0    0  501    0  0.00000000000E+00 -0.00000000000E+00 -0.19390830733E+04  0.19390830733E+04  0.25500000000E-02 0.  1.
   -5000001    1    1    2    0    0  0.21658677481E+03  0.33394004472E+03 -0.82666947865E+03  0.95095121400E+03  0.25000000000E+03 0.  0.
    5000001    1    1    2    0    0 -0.21658677481E+03 -0.33394004472E+03 -0.99768500882E+03  0.11028604451E+04  0.25000000000E+03 0.  0.
<mgrwt>
<rscale>  0 0.94333082E+03</rscale>
<asrwt>0</asrwt>
<pdfrwt beam="1">  1        2 0.29832045E+00 0.94333082E+03</pdfrwt>
<pdfrwt beam="2">  1       -2 0.17650553E-01 0.94333082E+03</pdfrwt>
<totfact> 0.19300511E+02</totfact>
</mgrwt>
</event>
<event>
 4    1  0.1714834E-005  0.6463175E+03  0.7818608E-02  0.9813714E-01
         -2   -1    0    0    0  501 -0.00000000000E+00  0.00000000000E+00  0.77477443839E+02  0.77477443881E+02  0.25500000000E-02 0. -1.
          2   -1    0    0  501    0  0.00000000000E+00 -0.00000000000E+00 -0.13478964050E+04  0.13478964050E+04  0.25500000000E-02 0.  1.
   -5000001    1    1    2    0    0  0.16040702459E+03  0.11029362936E+03 -0.49509476578E+03  0.58780432571E+03  0.25000000000E+03 0.  0.
    5000001    1    1    2    0    0 -0.16040702459E+03 -0.11029362936E+03 -0.77532419540E+03  0.83756952319E+03  0.25000000000E+03 0.  0.
<mgrwt>
<rscale>  0 0.64631747E+03</rscale>
<asrwt>0</asrwt>
<pdfrwt beam="1">  1        2 0.20736866E+00 0.64631747E+03</pdfrwt>
<pdfrwt beam="2">  1       -2 0.11919608E-01 0.64631747E+03</pdfrwt>
<totfact> 0.80897518E+02</totfact>
</mgrwt>
</event>
<event>
 4    1  0.1714834E-005  0.5698969E+03  0.7818608E-02  0.9969907E-01
         -2   -1    0    0    0  501 -0.00000000000E+00  0.00000000000E+00  0.12826533695E+03  0.12826533698E+03  0.25500000000E-02 0.  1.
          2   -1    0    0  501    0  0.00000000000E+00 -0.00000000000E+00 -0.63302845113E+03  0.63302845114E+03  0.25500000000E-02 0. -1.
   -5000001    1    1    2    0    0  0.12602505827E+03  0.27582655054E+02 -0.31290121805E+03  0.42077344311E+03  0.25000000000E+03 0.  0.
    5000001    1    1    2    0    0 -0.12602505827E+03 -0.27582655054E+02 -0.19186189614E+03  0.34052034501E+03  0.25000000000E+03 0.  0.
<mgrwt>
<rscale>  0 0.56989686E+03</rscale>
<asrwt>0</asrwt>
<pdfrwt beam="1">  1        2 0.97388991E-01 0.56989686E+03</pdfrwt>
<pdfrwt beam="2">  1       -2 0.19733129E-01 0.56989686E+03</pdfrwt>
<totfact> 0.10186718E+03</totfact>
</mgrwt>
</event>
<event>
 4    1  0.1714834E-005  0.6746070E+03  0.7818608E-02  0.9761671E-01
         -2   -1    0    0    0  501 -0.00000000000E+00  0.00000000000E+00  0.20901822753E+03  0.20901822754E+03  0.25500000000E-02 0. -1.
          2   -1    0    0  501    0  0.00000000000E+00 -0.00000000000E+00 -0.54432402727E+03  0.54432402727E+03  0.25500000000E-02 0.  1.
   -5000001    1    1    2    0    0 -0.17463139676E+03 -0.14084063454E+03 -0.13338902210E+03  0.36142058642E+03  0.25000000000E+03 0.  0.
    5000001    1    1    2    0    0  0.17463139676E+03  0.14084063454E+03 -0.20191677763E+03  0.39192166840E+03  0.25000000000E+03 0.  0.
<mgrwt>
<rscale>  0 0.67460698E+03</rscale>
<asrwt>0</asrwt>
<pdfrwt beam="1">  1        2 0.83742158E-01 0.67460698E+03</pdfrwt>
<pdfrwt beam="2">  1       -2 0.32156651E-01 0.67460698E+03</pdfrwt>
<totfact> 0.50492374E+02</totfact>
</mgrwt>
</event>
<event>
 4    1  0.1714834E-005  0.7018254E+03  0.7818608E-02  0.9714116E-01
          2   -1    0    0  501    0  0.00000000000E+00  0.00000000000E+00  0.56626108193E+03  0.56626108194E+03  0.25500000000E-02 0.  1.
         -2   -1    0    0    0  501 -0.00000000000E+00 -0.00000000000E+00 -0.21746102167E+03  0.21746102169E+03  0.25500000000E-02 0. -1.
   -5000001    1    1    2    0    0 -0.19449905816E+03 -0.56772831868E+02  0.18116435006E+02  0.32230613286E+03  0.25000000000E+03 0.  0.
    5000001    1    1    2    0    0  0.19449905816E+03  0.56772831868E+02  0.33068362525E+03  0.46141597076E+03  0.25000000000E+03 0.  0.
<mgrwt>
<rscale>  0 0.70182537E+03</rscale>
<asrwt>0</asrwt>
<pdfrwt beam="1">  1        2 0.87117088E-01 0.70182537E+03</pdfrwt>
<pdfrwt beam="2">  1       -2 0.33455542E-01 0.70182537E+03</pdfrwt>
<totfact> 0.44697781E+02</totfact>
</mgrwt>
</event>
<event>
 4    1  0.1714834E-005  0.9640774E+03  0.7818608E-02  0.9348846E-01
         -2   -1    0    0    0  501 -0.00000000000E+00  0.00000000000E+00  0.26134357912E+03  0.26134357913E+03  0.25500000000E-02 0. -1.
          2   -1    0    0  501    0  0.00000000000E+00 -0.00000000000E+00 -0.88910272565E+03  0.88910272565E+03  0.25500000000E-02 0.  1.
   -5000001    1    1    2    0    0 -0.75920324060E+02  0.27034484672E+03 -0.67387878379E+03  0.77166239185E+03  0.25000000000E+03 0.  0.
    5000001    1    1    2    0    0  0.75920324060E+02 -0.27034484672E+03  0.46119637260E+02  0.37878391293E+03  0.25000000000E+03 0.  0.
<mgrwt>
<rscale>  0 0.96407736E+03</rscale>
<asrwt>0</asrwt>
<pdfrwt beam="1">  1        2 0.13678503E+00 0.96407736E+03</pdfrwt>
<pdfrwt beam="2">  1       -2 0.40206705E-01 0.96407736E+03</pdfrwt>
<totfact> 0.17451140E+02</totfact>
</mgrwt>
</event>
<event>
 4    1  0.1714834E-005  0.7497824E+03  0.7818608E-02  0.9635692E-01
         -2   -1    0    0    0  501 -0.00000000000E+00  0.00000000000E+00  0.98418863194E+02  0.98418863227E+02  0.25500000000E-02 0. -1.
          2   -1    0    0  501    0  0.00000000000E+00 -0.00000000000E+00 -0.14280129377E+04  0.14280129377E+04  0.25500000000E-02 0.  1.
   -5000001    1    1    2    0    0  0.12280343201E+03  0.24617365168E+03 -0.56587020614E+03  0.67704596587E+03  0.25000000000E+03 0.  0.
    5000001    1    1    2    0    0 -0.12280343201E+03 -0.24617365168E+03 -0.76372386836E+03  0.84938583506E+03  0.25000000000E+03 0.  0.
<mgrwt>
<rscale>  0 0.74978240E+03</rscale>
<asrwt>0</asrwt>
<pdfrwt beam="1">  1        2 0.21969428E+00 0.74978240E+03</pdfrwt>
<pdfrwt beam="2">  1       -2 0.15141365E-01 0.74978240E+03</pdfrwt>
<totfact> 0.48628402E+02</totfact>
</mgrwt>
</event>
<event>
 4    1  0.1714834E-005  0.7731132E+03  0.7818608E-02  0.9599771E-01
         -2   -1    0    0    0  501 -0.00000000000E+00  0.00000000000E+00  0.27394119666E+03  0.27394119667E+03  0.25500000000E-02 0. -1.
          2   -1    0    0  501    0  0.00000000000E+00 -0.00000000000E+00 -0.54546741839E+03  0.54546741840E+03  0.25500000000E-02 0.  1.
   -5000001    1    1    2    0    0  0.74422970984E+02 -0.16224701920E+03  0.11294380967E+03  0.32729066285E+03  0.25000000000E+03 0.  0.
    5000001    1    1    2    0    0 -0.74422970984E+02  0.16224701920E+03 -0.38447003140E+03  0.49211795222E+03  0.25000000000E+03 0.  0.
<mgrwt>
<rscale>  0 0.77311318E+03</rscale>
<asrwt>0</asrwt>
<pdfrwt beam="1">  1        2 0.83918064E-01 0.77311318E+03</pdfrwt>
<pdfrwt beam="2">  1       -2 0.42144800E-01 0.77311318E+03</pdfrwt>
<totfact> 0.29872071E+02</totfact>
</mgrwt>
</event>
<event>
 4    1  0.1714834E-005  0.9575146E+03  0.7818608E-02  0.9356410E-01
         -2   -1    0    0    0  501 -0.00000000000E+00  0.00000000000E+00  0.24563293556E+03  0.24563293557E+03  0.25500000000E-02 0. -1.
          2   -1    0    0  501    0  0.00000000000E+00 -0.00000000000E+00 -0.93313435333E+03  0.93313435333E+03  0.25500000000E-02 0.  1.
   -5000001    1    1    2    0    0  0.18951388262E+03 -0.33621820284E+03 -0.17973478460E+03  0.49372338857E+03  0.25000000000E+03 0.  0.
    5000001    1    1    2    0    0 -0.18951388262E+03  0.33621820284E+03 -0.50776663316E+03  0.68504390033E+03  0.25000000000E+03 0.  0.
<mgrwt>
<rscale>  0 0.95751455E+03</rscale>
<asrwt>0</asrwt>
<pdfrwt beam="1">  1        2 0.14355913E+00 0.95751455E+03</pdfrwt>
<pdfrwt beam="2">  1       -2 0.37789683E-01 0.95751455E+03</pdfrwt>
<totfact> 0.18396611E+02</totfact>
</mgrwt>
</event>
<event>
 4    1  0.1714834E-005  0.6304758E+03  0.7818608E-02  0.9844121E-01
          2   -1    0    0  501    0  0.00000000000E+00  0.00000000000E+00  0.13048338614E+04  0.13048338614E+04  0.25500000000E-02 0.  1.
         -2   -1    0    0    0  501 -0.00000000000E+00 -0.00000000000E+00 -0.76159062555E+02  0.76159062598E+02  0.25500000000E-02 0. -1.
   -5000001    1    1    2    0    0  0.38309520204E+02 -0.18813540680E+03  0.62204220813E+03  0.69735146040E+03  0.25000000000E+03 0.  0.
    5000001    1    1    2    0    0 -0.38309520204E+02  0.18813540680E+03  0.60663259071E+03  0.68364146359E+03  0.25000000000E+03 0.  0.
<mgrwt>
<rscale>  0 0.63047577E+03</rscale>
<asrwt>0</asrwt>
<pdfrwt beam="1">  1        2 0.20074366E+00 0.63047577E+03</pdfrwt>
<pdfrwt beam="2">  1       -2 0.11716779E-01 0.63047577E+03</pdfrwt>
<totfact> 0.88116336E+02</totfact>
</mgrwt>
</event>
<event>
 4    1  0.1714834E-005  0.6874921E+03  0.7818608E-02  0.9738865E-01
          2   -1    0    0  501    0  0.00000000000E+00  0.00000000000E+00  0.11499643063E+04  0.11499643063E+04  0.25500000000E-02 0.  1.
         -2   -1    0    0    0  501 -0.00000000000E+00 -0.00000000000E+00 -0.10275217560E+03  0.10275217563E+03  0.25500000000E-02 0. -1.
   -5000001    1    1    2    0    0  0.16545897844E+03 -0.20073365629E+02  0.82786608538E+03  0.88070532466E+03  0.25000000000E+03 0.  0.
    5000001    1    1    2    0    0 -0.16545897844E+03  0.20073365629E+02  0.21934604534E+03  0.37201115731E+03  0.25000000000E+03 0.  0.
<mgrwt>
<rscale>  0 0.68749206E+03</rscale>
<asrwt>0</asrwt>
<pdfrwt beam="1">  1        2 0.17691759E+00 0.68749206E+03</pdfrwt>
<pdfrwt beam="2">  1       -2 0.15808027E-01 0.68749206E+03</pdfrwt>
<totfact> 0.65658636E+02</totfact>
</mgrwt>
</event>
<event>
 4    1  0.1714834E-005  0.1246242E+04  0.7818608E-02  0.9073317E-01
         -2   -1    0    0    0  501 -0.00000000000E+00  0.00000000000E+00  0.22884842677E+03  0.22884842679E+03  0.25500000000E-02 0. -1.
          2   -1    0    0  501    0  0.00000000000E+00 -0.00000000000E+00 -0.16966686292E+04  0.16966686292E+04  0.25500000000E-02 0.  1.
   -5000001    1    1    2    0    0 -0.21454061635E+03  0.39361013411E+03 -0.12797845680E+04  0.13788782231E+04  0.25000000000E+03 0.  0.
    5000001    1    1    2    0    0  0.21454061635E+03 -0.39361013411E+03 -0.18803563438E+03  0.54663883281E+03  0.25000000000E+03 0.  0.
<mgrwt>
<rscale>  0 0.12462423E+04</rscale>
<asrwt>0</asrwt>
<pdfrwt beam="1">  1        2 0.26102594E+00 0.12462423E+04</pdfrwt>
<pdfrwt beam="2">  1       -2 0.35207451E-01 0.12462423E+04</pdfrwt>
<totfact> 0.73375179E+01</totfact>
</mgrwt>
</event>
<event>
 4    1  0.1714834E-005  0.8264853E+03  0.7818608E-02  0.9522453E-01
          2   -1    0    0  501    0  0.00000000000E+00  0.00000000000E+00  0.12752591784E+04  0.12752591784E+04  0.25500000000E-02 0.  1.
         -2   -1    0    0    0  501 -0.00000000000E+00 -0.00000000000E+00 -0.13390962503E+03  0.13390962505E+03  0.25500000000E-02 0. -1.
   -5000001    1    1    2    0    0 -0.24040797111E+03 -0.22466231191E+03  0.57165636327E+03  0.70537943310E+03  0.25000000000E+03 0.  0.
    5000001    1    1    2    0    0  0.24040797111E+03  0.22466231191E+03  0.56969319006E+03  0.70378937031E+03  0.25000000000E+03 0.  0.
<mgrwt>
<rscale>  0 0.82648528E+03</rscale>
<asrwt>0</asrwt>
<pdfrwt beam="1">  1        2 0.19619372E+00 0.82648528E+03</pdfrwt>
<pdfrwt beam="2">  1       -2 0.20601480E-01 0.82648528E+03</pdfrwt>
<totfact> 0.34815018E+02</totfact>
</mgrwt>
</event>
<event>
 4    1  0.1714834E-005  0.9425274E+03  0.7818608E-02  0.9373928E-01
         -2   -1    0    0    0  501 -0.00000000000E+00  0.00000000000E+00  0.95570365274E+02  0.95570365308E+02  0.25500000000E-02 0. -1.
          2   -1    0    0  501    0  0.00000000000E+00 -0.00000000000E+00 -0.23238321675E+04  0.23238321675E+04  0.25500000000E-02 0.  1.
   -5000001    1    1    2    0    0  0.50435405909E+02  0.77200544018E+02 -0.11637108931E+03  0.29076775026E+03  0.25000000000E+03 0.  0.
    5000001    1    1    2    0    0 -0.50435405909E+02 -0.77200544018E+02 -0.21118907129E+04  0.21286347826E+04  0.25000000000E+03 0.  0.
<mgrwt>
<rscale>  0 0.94252743E+03</rscale>
<asrwt>0</asrwt>
<pdfrwt beam="1">  1        2 0.35751260E+00 0.94252743E+03</pdfrwt>
<pdfrwt beam="2">  1       -2 0.14703135E-01 0.94252743E+03</pdfrwt>
<totfact> 0.16160002E+02</totfact>
</mgrwt>
</event>
<event>
 4    1  0.1714834E-005  0.6838945E+03  0.7818608E-02  0.9745178E-01
          2   -1    0    0  501    0  0.00000000000E+00  0.00000000000E+00  0.74333548029E+03  0.74333548029E+03  0.25500000000E-02 0.  1.
         -2   -1    0    0    0  501 -0.00000000000E+00 -0.00000000000E+00 -0.15730167947E+03  0.15730167949E+03  0.25500000000E-02 0. -1.
   -5000001    1    1    2    0    0 -0.13867962455E+03  0.14601291713E+03  0.13788732280E+03  0.34937762382E+03  0.25000000000E+03 0.  0.
    5000001    1    1    2    0    0  0.13867962455E+03 -0.14601291713E+03  0.44814647802E+03  0.55125953596E+03  0.25000000000E+03 0.  0.
<mgrwt>
<rscale>  0 0.68389449E+03</rscale>
<asrwt>0</asrwt>
<pdfrwt beam="1">  1        2 0.11435931E+00 0.68389449E+03</pdfrwt>
<pdfrwt beam="2">  1       -2 0.24200258E-01 0.68389449E+03</pdfrwt>
<totfact> 0.58007850E+02</totfact>
</mgrwt>
</event>
<event>
 4    1  0.1714834E-005  0.5820572E+03  0.7818608E-02  0.9943347E-01
         -2   -1    0    0    0  501 -0.00000000000E+00  0.00000000000E+00  0.15446006319E+03  0.15446006321E+03  0.25500000000E-02 0. -1.
          2   -1    0    0  501    0  0.00000000000E+00 -0.00000000000E+00 -0.54834654410E+03  0.54834654410E+03  0.25500000000E-02 0.  1.
   -5000001    1    1    2    0    0  0.14365305437E+02 -0.14441111156E+03 -0.23765268325E+03  0.37421882502E+03  0.25000000000E+03 0.  0.
    5000001    1    1    2    0    0 -0.14365305437E+02  0.14441111156E+03 -0.15623379766E+03  0.32858778230E+03  0.25000000000E+03 0.  0.
<mgrwt>
<rscale>  0 0.58205719E+03</rscale>
<asrwt>0</asrwt>
<pdfrwt beam="1">  1        2 0.84361006E-01 0.58205719E+03</pdfrwt>
<pdfrwt beam="2">  1       -2 0.23763087E-01 0.58205719E+03</pdfrwt>
<totfact> 0.87150401E+02</totfact>
</mgrwt>
</event>
<event>
 4    1  0.1714834E-005  0.7402062E+03  0.7818608E-02  0.9650842E-01
          2   -1    0    0  501    0  0.00000000000E+00  0.00000000000E+00  0.30096858240E+03  0.30096858241E+03  0.25500000000E-02 0.  1.
         -2   -1    0    0    0  501 -0.00000000000E+00 -0.00000000000E+00 -0.45511828878E+03  0.45511828879E+03  0.25500000000E-02 0. -1.
   -5000001    1    1    2    0    0 -0.16224172178E+03  0.12815580510E+03 -0.25902572708E+03  0.41513927056E+03  0.25000000000E+03 0.  0.
    5000001    1    1    2    0    0  0.16224172178E+03 -0.12815580510E+03  0.10487602070E+03  0.34094760065E+03  0.25000000000E+03 0.  0.
<mgrwt>
<rscale>  0 0.74020620E+03</rscale>
<asrwt>0</asrwt>
<pdfrwt beam="1">  1        2 0.46302859E-01 0.74020620E+03</pdfrwt>
<pdfrwt beam="2">  1       -2 0.70018198E-01 0.74020620E+03</pdfrwt>
<totfact> 0.20511888E+02</totfact>
</mgrwt>
</event>
<event>
 4    1  0.1714834E-005  0.7938618E+03  0.7818608E-02  0.9568945E-01
         -2   -1    0    0    0  501 -0.00000000000E+00  0.00000000000E+00  0.17085126299E+03  0.17085126301E+03  0.25500000000E-02 0. -1.
          2   -1    0    0  501    0  0.00000000000E+00 -0.00000000000E+00 -0.92217142854E+03  0.92217142854E+03  0.25500000000E-02 0.  1.
   -5000001    1    1    2    0    0  0.22011232291E+03  0.21423341962E+03 -0.41231514870E+03  0.57170724556E+03  0.25000000000E+03 0.  0.
    5000001    1    1    2    0    0 -0.22011232291E+03 -0.21423341962E+03 -0.33900501685E+03  0.52131544599E+03  0.25000000000E+03 0.  0.
<mgrwt>
<rscale>  0 0.79386184E+03</rscale>
<asrwt>0</asrwt>
<pdfrwt beam="1">  1        2 0.14187252E+00 0.79386184E+03</pdfrwt>
<pdfrwt beam="2">  1       -2 0.26284810E-01 0.79386184E+03</pdfrwt>
<totfact> 0.37242708E+02</totfact>
</mgrwt>
</event>
<event>
 4    1  0.1714834E-005  0.1191171E+04  0.7818608E-02  0.9120620E-01
         -2   -1    0    0    0  501 -0.00000000000E+00  0.00000000000E+00  0.10531835251E+03  0.10531835254E+03  0.25500000000E-02 0. -1.
          2   -1    0    0  501    0  0.00000000000E+00 -0.00000000000E+00 -0.33680950605E+04  0.33680950605E+04  0.25500000000E-02 0.  1.
   -5000001    1    1    2    0    0  0.29252702512E+03 -0.25581459718E+03 -0.27271435912E+04  0.27660125335E+04  0.25000000000E+03 0.  0.
    5000001    1    1    2    0    0 -0.29252702512E+03  0.25581459718E+03 -0.53563311678E+03  0.70740087952E+03  0.25000000000E+03 0.  0.
<mgrwt>
<rscale>  0 0.11911712E+04</rscale>
<asrwt>0</asrwt>
<pdfrwt beam="1">  1        2 0.51816839E+00 0.11911712E+04</pdfrwt>
<pdfrwt beam="2">  1       -2 0.16202826E-01 0.11911712E+04</pdfrwt>
<totfact> 0.31180083E+01</totfact>
</mgrwt>
</event>
<event>
 4    1  0.1714834E-005  0.8222468E+03  0.7818608E-02  0.9528363E-01
          2   -1    0    0  501    0  0.00000000000E+00  0.00000000000E+00  0.17895818576E+04  0.17895818576E+04  0.25500000000E-02 0.  1.
         -2   -1    0    0    0  501 -0.00000000000E+00 -0.00000000000E+00 -0.94448014436E+02  0.94448014470E+02  0.25500000000E-02 0. -1.
   -5000001    1    1    2    0    0 -0.10403400559E+02 -0.30315436637E+03  0.57154471437E+03  0.69366718325E+03  0.25000000000E+03 0.  0.
    5000001    1    1    2    0    0  0.10403400559E+02  0.30315436637E+03  0.11235891288E+04  0.11903626888E+04  0.25000000000E+03 0.  0.
<mgrwt>
<rscale>  0 0.82224681E+03</rscale>
<asrwt>0</asrwt>
<pdfrwt beam="1">  1        2 0.27532030E+00 0.82224681E+03</pdfrwt>
<pdfrwt beam="2">  1       -2 0.14530463E-01 0.82224681E+03</pdfrwt>
<totfact> 0.32765699E+02</totfact>
</mgrwt>
</event>
<event>
 4    1  0.1714834E-005  0.7687521E+03  0.7818608E-02  0.9606382E-01
          2   -1    0    0  501    0  0.00000000000E+00  0.00000000000E+00  0.55938627451E+03  0.55938627452E+03  0.25500000000E-02 0.  1.
         -2   -1    0    0    0  501 -0.00000000000E+00 -0.00000000000E+00 -0.26411971759E+03  0.26411971760E+03  0.25500000000E-02 0. -1.
   -5000001    1    1    2    0    0 -0.61372360378E+02 -0.28065329440E+03  0.91846172930E+02  0.39175063211E+03  0.25000000000E+03 0.  0.
    5000001    1    1    2    0    0  0.61372360378E+02  0.28065329440E+03  0.20342038399E+03  0.43175536001E+03  0.25000000000E+03 0.  0.
<mgrwt>
<rscale>  0 0.76875209E+03</rscale>
<asrwt>0</asrwt>
<pdfrwt beam="1">  1        2 0.86059426E-01 0.76875209E+03</pdfrwt>
<pdfrwt beam="2">  1       -2 0.40633803E-01 0.76875209E+03</pdfrwt>
<totfact> 0.31152499E+02</totfact>
</mgrwt>
</event>
<event>
 4    1  0.1714834E-005  0.1154543E+04  0.7818608E-02  0.9153602E-01
         -2   -1    0    0    0  501 -0.00000000000E+00  0.00000000000E+00  0.28755912388E+03  0.28755912389E+03  0.25500000000E-02 0. -1.
          2   -1    0    0  501    0  0.00000000000E+00 -0.00000000000E+00 -0.11588660956E+04  0.11588660956E+04  0.25500000000E-02 0.  1.
   -5000001    1    1    2    0    0 -0.13016214901E+03 -0.46331639250E+03 -0.68350210984E+03  0.87251326566E+03  0.25000000000E+03 0.  0.
    5000001    1    1    2    0    0  0.13016214901E+03  0.46331639250E+03 -0.18780486187E+03  0.57391195382E+03  0.25000000000E+03 0.  0.
<mgrwt>
<rscale>  0 0.11545432E+04</rscale>
<asrwt>0</asrwt>
<pdfrwt beam="1">  1        2 0.17828709E+00 0.11545432E+04</pdfrwt>
<pdfrwt beam="2">  1       -2 0.44239866E-01 0.11545432E+04</pdfrwt>
<totfact> 0.96102188E+01</totfact>
</mgrwt>
</event>
<event>
 4    1  0.1714834E-005  0.5717477E+03  0.7818608E-02  0.9965819E-01
         -2   -1    0    0    0  501 -0.00000000000E+00  0.00000000000E+00  0.80597521774E+02  0.80597521814E+02  0.25500000000E-02 0. -1.
          2   -1    0    0  501    0  0.00000000000E+00 -0.00000000000E+00 -0.10139747785E+04  0.10139747785E+04  0.25500000000E-02 0.  1.
   -5000001    1    1    2    0    0 -0.10348080240E+03 -0.58088447282E+02 -0.60395904091E+03  0.66434107751E+03  0.25000000000E+03 0.  0.
    5000001    1    1    2    0    0  0.10348080240E+03  0.58088447282E+02 -0.32941821585E+03  0.43023122284E+03  0.25000000000E+03 0.  0.
<mgrwt>
<rscale>  0 0.57174769E+03</rscale>
<asrwt>0</asrwt>
<pdfrwt beam="1">  1        2 0.15599611E+00 0.57174769E+03</pdfrwt>
<pdfrwt beam="2">  1       -2 0.12399619E-01 0.57174769E+03</pdfrwt>
<totfact> 0.11990994E+03</totfact>
</mgrwt>
</event>
<event>
 4    1  0.1714834E-005  0.6970965E+03  0.7818608E-02  0.9722211E-01
          2   -1    0    0  501    0  0.00000000000E+00  0.00000000000E+00  0.13481587298E+04  0.13481587298E+04  0.25500000000E-02 0.  1.
         -2   -1    0    0    0  501 -0.00000000000E+00 -0.00000000000E+00 -0.90112434491E+02  0.90112434527E+02  0.25500000000E-02 0. -1.
   -5000001    1    1    2    0    0  0.24084122647E+03 -0.28352721303E+02  0.60153551142E+03  0.69509232817E+03  0.25000000000E+03 0.  0.
    5000001    1    1    2    0    0 -0.24084122647E+03  0.28352721303E+02  0.65651078392E+03  0.74317883620E+03  0.25000000000E+03 0.  0.
<mgrwt>
<rscale>  0 0.69709645E+03</rscale>
<asrwt>0</asrwt>
<pdfrwt beam="1">  1        2 0.20740902E+00 0.69709645E+03</pdfrwt>
<pdfrwt beam="2">  1       -2 0.13863452E-01 0.69709645E+03</pdfrwt>
<totfact> 0.62767571E+02</totfact>
</mgrwt>
</event>
<event>
 4    1  0.1714834E-005  0.5714823E+03  0.7818608E-02  0.9966404E-01
         -2   -1    0    0    0  501 -0.00000000000E+00  0.00000000000E+00  0.38903643825E+03  0.38903643826E+03  0.25500000000E-02 0. -1.
          2   -1    0    0  501    0  0.00000000000E+00 -0.00000000000E+00 -0.20987237115E+03  0.20987237117E+03  0.25500000000E-02 0.  1.
   -5000001    1    1    2    0    0  0.66307034110E+02 -0.11708619125E+03  0.12341449803E+03  0.30957541452E+03  0.25000000000E+03 0.  0.
    5000001    1    1    2    0    0 -0.66307034110E+02  0.11708619125E+03  0.55749569066E+02  0.28933339490E+03  0.25000000000E+03 0.  0.
<mgrwt>
<rscale>  0 0.57148228E+03</rscale>
<asrwt>0</asrwt>
<pdfrwt beam="1">  1        2 0.32288058E-01 0.57148228E+03</pdfrwt>
<pdfrwt beam="2">  1       -2 0.59851759E-01 0.57148228E+03</pdfrwt>
<totfact> 0.43039306E+02</totfact>
</mgrwt>
</event>
<event>
 4    1  0.1714834E-005  0.7246395E+03  0.7818608E-02  0.9675999E-01
         -2   -1    0    0    0  501 -0.00000000000E+00  0.00000000000E+00  0.60450358464E+02  0.60450358518E+02  0.25500000000E-02 0. -1.
          2   -1    0    0  501    0  0.00000000000E+00 -0.00000000000E+00 -0.21716264579E+04  0.21716264579E+04  0.25500000000E-02 0.  1.
   -5000001    1    1    2    0    0 -0.48261141226E+02 -0.24915361323E+03 -0.85198933258E+03  0.92346764078E+03  0.25000000000E+03 0.  0.
    5000001    1    1    2    0    0  0.48261141226E+02  0.24915361323E+03 -0.12591867668E+04  0.13086091756E+04  0.25000000000E+03 0.  0.
<mgrwt>
<rscale>  0 0.72463949E+03</rscale>
<asrwt>0</asrwt>
<pdfrwt beam="1">  1        2 0.33409632E+00 0.72463949E+03</pdfrwt>
<pdfrwt beam="2">  1       -2 0.93000568E-02 0.72463949E+03</pdfrwt>
<totfact> 0.42616349E+02</totfact>
</mgrwt>
</event>
<event>
 4    1  0.1714834E-005  0.6468923E+03  0.7818608E-02  0.9812628E-01
         -2   -1    0    0    0  501 -0.00000000000E+00  0.00000000000E+00  0.72581278550E+02  0.72581278594E+02  0.25500000000E-02 0. -1.
          2   -1    0    0  501    0  0.00000000000E+00 -0.00000000000E+00 -0.14413829336E+04  0.14413829336E+04  0.25500000000E-02 0.  1.
   -5000001    1    1    2    0    0  0.64427163847E+02  0.16602426455E+03 -0.44570078925E+03  0.54116920589E+03  0.25000000000E+03 0.  0.
    5000001    1    1    2    0    0 -0.64427163847E+02 -0.16602426455E+03 -0.92310086577E+03  0.97279500628E+03  0.25000000000E+03 0.  0.
<mgrwt>
<rscale>  0 0.64689231E+03</rscale>
<asrwt>0</asrwt>
<pdfrwt beam="1">  1        2 0.22175120E+00 0.64689231E+03</pdfrwt>
<pdfrwt beam="2">  1       -2 0.11166352E-01 0.64689231E+03</pdfrwt>
<totfact> 0.79779950E+02</totfact>
</mgrwt>
</event>
<event>
 4    1  0.1714834E-005  0.7077038E+03  0.7818608E-02  0.9704148E-01
         -2   -1    0    0    0  501 -0.00000000000E+00  0.00000000000E+00  0.86793395820E+03  0.86793395820E+03  0.25500000000E-02 0. -1.
          2   -1    0    0  501    0  0.00000000000E+00 -0.00000000000E+00 -0.14426346530E+03  0.14426346533E+03  0.25500000000E-02 0.  1.
   -5000001    1    1    2    0    0  0.93821133818E+02 -0.22440368392E+03  0.27659701796E+03  0.44515764494E+03  0.25000000000E+03 0.  0.
    5000001    1    1    2    0    0 -0.93821133818E+02  0.22440368392E+03  0.44707347493E+03  0.56703977858E+03  0.25000000000E+03 0.  0.
<mgrwt>
<rscale>  0 0.70770378E+03</rscale>
<asrwt>0</asrwt>
<pdfrwt beam="1">  1        2 0.22194380E-01 0.70770378E+03</pdfrwt>
<pdfrwt beam="2">  1       -2 0.13352830E+00 0.70770378E+03</pdfrwt>
<totfact> 0.10322545E+02</totfact>
</mgrwt>
</event>
<event>
 4    1  0.1714834E-005  0.6786838E+03  0.7818608E-02  0.9754397E-01
         -2   -1    0    0    0  501 -0.00000000000E+00  0.00000000000E+00  0.10059428122E+03  0.10059428126E+03  0.25500000000E-02 0. -1.
          2   -1    0    0  501    0  0.00000000000E+00 -0.00000000000E+00 -0.11447263443E+04  0.11447263443E+04  0.25500000000E-02 0.  1.
   -5000001    1    1    2    0    0  0.19656090666E+03  0.88935838612E+02 -0.37867136156E+03  0.50243185954E+03  0.25000000000E+03 0.  0.
    5000001    1    1    2    0    0 -0.19656090666E+03 -0.88935838612E+02 -0.66546070152E+03  0.74288876603E+03  0.25000000000E+03 0.  0.
<mgrwt>
<rscale>  0 0.67868380E+03</rscale>
<asrwt>0</asrwt>
<pdfrwt beam="1">  1        2 0.17611174E+00 0.67868380E+03</pdfrwt>
<pdfrwt beam="2">  1       -2 0.15476044E-01 0.67868380E+03</pdfrwt>
<totfact> 0.68584230E+02</totfact>
</mgrwt>
</event>
<event>
 4    1  0.1714834E-005  0.7208455E+03  0.7818608E-02  0.9682233E-01
         -2   -1    0    0    0  501 -0.00000000000E+00  0.00000000000E+00  0.37517129230E+02  0.37517129316E+02  0.25500000000E-02 0. -1.
          2   -1    0    0  501    0  0.00000000000E+00 -0.00000000000E+00 -0.34625397699E+04  0.34625397699E+04  0.25500000000E-02 0.  1.
   -5000001    1    1    2    0    0 -0.18252633404E+03  0.47336898374E+02 -0.84600172520E+03  0.90209509676E+03  0.25000000000E+03 0.  0.
    5000001    1    1    2    0    0  0.18252633404E+03 -0.47336898374E+02 -0.25790209155E+04  0.25979618025E+04  0.25000000000E+03 0.  0.
<mgrwt>
<rscale>  0 0.72084548E+03</rscale>
<asrwt>0</asrwt>
<pdfrwt beam="1">  1        2 0.53269817E+00 0.72084548E+03</pdfrwt>
<pdfrwt beam="2">  1       -2 0.57718688E-02 0.72084548E+03</pdfrwt>
<totfact> 0.15366570E+02</totfact>
</mgrwt>
</event>
<event>
 4    1  0.1714834E-005  0.5902520E+03  0.7818608E-02  0.9925839E-01
         -2   -1    0    0    0  501 -0.00000000000E+00  0.00000000000E+00  0.12201744209E+03  0.12201744212E+03  0.25500000000E-02 0. -1.
          2   -1    0    0  501    0  0.00000000000E+00 -0.00000000000E+00 -0.71382712957E+03  0.71382712958E+03  0.25500000000E-02 0.  1.
   -5000001    1    1    2    0    0 -0.14982572747E+03 -0.41453269504E+02 -0.26643000303E+03  0.39705297969E+03  0.25000000000E+03 0.  0.
    5000001    1    1    2    0    0  0.14982572747E+03  0.41453269504E+02 -0.32537968445E+03  0.43879159201E+03  0.25000000000E+03 0.  0.
<mgrwt>
<rscale>  0 0.59025202E+03</rscale>
<asrwt>0</asrwt>
<pdfrwt beam="1">  1        2 0.10981956E+00 0.59025202E+03</pdfrwt>
<pdfrwt beam="2">  1       -2 0.18771915E-01 0.59025202E+03</pdfrwt>
<totfact> 0.95719434E+02</totfact>
</mgrwt>
</event>
<event>
 4    1  0.1714834E-005  0.5961724E+03  0.7818608E-02  0.9913379E-01
         -2   -1    0    0    0  501 -0.00000000000E+00  0.00000000000E+00  0.38258402450E+03  0.38258402450E+03  0.25500000000E-02 0. -1.
          2   -1    0    0  501    0  0.00000000000E+00 -0.00000000000E+00 -0.23225066540E+03  0.23225066541E+03  0.25500000000E-02 0.  1.
   -5000001    1    1    2    0    0 -0.65749163118E+02  0.13086409196E+03  0.29236616140E+01  0.28975318948E+03  0.25000000000E+03 0.  0.
    5000001    1    1    2    0    0  0.65749163118E+02 -0.13086409196E+03  0.14740969748E+03  0.32508150044E+03  0.25000000000E+03 0.  0.
<mgrwt>
<rscale>  0 0.59617244E+03</rscale>
<asrwt>0</asrwt>
<pdfrwt beam="1">  1        2 0.35730872E-01 0.59617244E+03</pdfrwt>
<pdfrwt beam="2">  1       -2 0.58859080E-01 0.59617244E+03</pdfrwt>
<totfact> 0.39797326E+02</totfact>
</mgrwt>
</event>
<event>
 4    1  0.1714834E-005  0.1098779E+04  0.7818608E-02  0.9206382E-01
         -2   -1    0    0    0  501 -0.00000000000E+00  0.00000000000E+00  0.11150255435E+03  0.11150255438E+03  0.25500000000E-02 0. -1.
          2   -1    0    0  501    0  0.00000000000E+00 -0.00000000000E+00 -0.27069250924E+04  0.27069250924E+04  0.25500000000E-02 0.  1.
   -5000001    1    1    2    0    0  0.22998020083E+03 -0.25957528437E+03 -0.21827803985E+04  0.22242527934E+04  0.25000000000E+03 0.  0.
    5000001    1    1    2    0    0 -0.22998020083E+03  0.25957528437E+03 -0.41264213959E+03  0.59417485338E+03  0.25000000000E+03 0.  0.
<mgrwt>
<rscale>  0 0.10987794E+04</rscale>
<asrwt>0</asrwt>
<pdfrwt beam="1">  1        2 0.41644997E+00 0.10987794E+04</pdfrwt>
<pdfrwt beam="2">  1       -2 0.17154241E-01 0.10987794E+04</pdfrwt>
<totfact> 0.73846742E+01</totfact>
</mgrwt>
</event>
<event>
 4    1  0.1714834E-005  0.1194247E+04  0.7818608E-02  0.9117907E-01
         -2   -1    0    0    0  501 -0.00000000000E+00  0.00000000000E+00  0.17668888601E+03  0.17668888603E+03  0.25500000000E-02 0. -1.
          2   -1    0    0  501    0  0.00000000000E+00 -0.00000000000E+00 -0.20179893210E+04  0.20179893210E+04  0.25500000000E-02 0.  1.
   -5000001    1    1    2    0    0 -0.46906076284E+03  0.57596962243E+02 -0.43194089608E+03  0.68731968326E+03  0.25000000000E+03 0.  0.
    5000001    1    1    2    0    0  0.46906076284E+03 -0.57596962243E+02 -0.14093595389E+04  0.15073585238E+04  0.25000000000E+03 0.  0.
<mgrwt>
<rscale>  0 0.11942467E+04</rscale>
<asrwt>0</asrwt>
<pdfrwt beam="1">  1        2 0.31045988E+00 0.11942467E+04</pdfrwt>
<pdfrwt beam="2">  1       -2 0.27182907E-01 0.11942467E+04</pdfrwt>
<totfact> 0.79464341E+01</totfact>
</mgrwt>
</event>
<event>
 4    1  0.1714834E-005  0.1031793E+04  0.7818608E-02  0.9274346E-01
          2   -1    0    0  501    0  0.00000000000E+00  0.00000000000E+00  0.24060215635E+03  0.24060215636E+03  0.25500000000E-02 0.  1.
         -2   -1    0    0    0  501 -0.00000000000E+00 -0.00000000000E+00 -0.11061791698E+04  0.11061791699E+04  0.25500000000E-02 0. -1.
   -5000001    1    1    2    0    0  0.44483152071E+03 -0.73184128176E+02 -0.45947811264E+03  0.69054408580E+03  0.25000000000E+03 0.  0.
    5000001    1    1    2    0    0 -0.44483152071E+03  0.73184128176E+02 -0.40609890086E+03  0.65623724042E+03  0.25000000000E+03 0.  0.
<mgrwt>
<rscale>  0 0.10317928E+04</rscale>
<asrwt>0</asrwt>
<pdfrwt beam="1">  1        2 0.37015717E-01 0.10317928E+04</pdfrwt>
<pdfrwt beam="2">  1       -2 0.17018141E+00 0.10317928E+04</pdfrwt>
<totfact> 0.29734009E+01</totfact>
</mgrwt>
</event>
<event>
 4    1  0.1714834E-005  0.6772827E+03  0.7818608E-02  0.9756890E-01
         -2   -1    0    0    0  501 -0.00000000000E+00  0.00000000000E+00  0.20799358483E+03  0.20799358484E+03  0.25500000000E-02 0.  1.
          2   -1    0    0  501    0  0.00000000000E+00 -0.00000000000E+00 -0.55135332377E+03  0.55135332378E+03  0.25500000000E-02 0. -1.
   -5000001    1    1    2    0    0  0.57021676872E+02 -0.21396214654E+03 -0.23457206127E+03  0.40811190097E+03  0.25000000000E+03 0.  0.
    5000001    1    1    2    0    0 -0.57021676872E+02  0.21396214654E+03 -0.10878767767E+03  0.35123500765E+03  0.25000000000E+03 0.  0.
<mgrwt>
<rscale>  0 0.67728267E+03</rscale>
<asrwt>0</asrwt>
<pdfrwt beam="1">  1        2 0.84823588E-01 0.67728267E+03</pdfrwt>
<pdfrwt beam="2">  1       -2 0.31999013E-01 0.67728267E+03</pdfrwt>
<totfact> 0.50191409E+02</totfact>
</mgrwt>
</event>
<event>
 4    1  0.1714834E-005  0.6684602E+03  0.7818608E-02  0.9772743E-01
         -2   -1    0    0    0  501 -0.00000000000E+00  0.00000000000E+00  0.54602056370E+02  0.54602056430E+02  0.25500000000E-02 0. -1.
          2   -1    0    0  501    0  0.00000000000E+00 -0.00000000000E+00 -0.20458895123E+04  0.20458895123E+04  0.25500000000E-02 0.  1.
   -5000001    1    1    2    0    0  0.16264204049E+03 -0.14867588451E+03 -0.10759303047E+04  0.11263582790E+04  0.25000000000E+03 0.  0.
    5000001    1    1    2    0    0 -0.16264204049E+03  0.14867588451E+03 -0.91535715120E+03  0.97413328976E+03  0.25000000000E+03 0.  0.
<mgrwt>
<rscale>  0 0.66846024E+03</rscale>
<asrwt>0</asrwt>
<pdfrwt beam="1">  1        2 0.31475217E+00 0.66846024E+03</pdfrwt>
<pdfrwt beam="2">  1       -2 0.84003179E-02 0.66846024E+03</pdfrwt>
<totfact> 0.59071042E+02</totfact>
</mgrwt>
</event>
<event>
 4    1  0.1714834E-005  0.7251318E+03  0.7818608E-02  0.9675193E-01
         -2   -1    0    0    0  501 -0.00000000000E+00  0.00000000000E+00  0.17686499865E+03  0.17686499867E+03  0.25500000000E-02 0. -1.
          2   -1    0    0  501    0  0.00000000000E+00 -0.00000000000E+00 -0.74324507989E+03  0.74324507989E+03  0.25500000000E-02 0.  1.
   -5000001    1    1    2    0    0 -0.57000762907E+02 -0.16538248893E+03 -0.34690375387E+02  0.30708936283E+03  0.25000000000E+03 0.  0.
    5000001    1    1    2    0    0  0.57000762907E+02  0.16538248893E+03 -0.53168970585E+03  0.61302071574E+03  0.25000000000E+03 0.  0.
<mgrwt>
<rscale>  0 0.72513182E+03</rscale>
<asrwt>0</asrwt>
<pdfrwt beam="1">  1        2 0.11434540E+00 0.72513182E+03</pdfrwt>
<pdfrwt beam="2">  1       -2 0.27210000E-01 0.72513182E+03</pdfrwt>
<totfact> 0.46869911E+02</totfact>
</mgrwt>
</event>
<event>
 4    1  0.1714834E-005  0.7374501E+03  0.7818608E-02  0.9655247E-01
         -2   -1    0    0    0  501 -0.00000000000E+00  0.00000000000E+00  0.37321009878E+03  0.37321009879E+03  0.25500000000E-02 0. -1.
          2   -1    0    0  501    0  0.00000000000E+00 -0.00000000000E+00 -0.36429393396E+03  0.36429393397E+03  0.25500000000E-02 0.  1.
   -5000001    1    1    2    0    0  0.21270090670E+03 -0.15147382994E+03  0.77073156010E+02  0.36962990713E+03  0.25000000000E+03 0.  0.
    5000001    1    1    2    0    0 -0.21270090670E+03  0.15147382994E+03 -0.68156991191E+02  0.36787412564E+03  0.25000000000E+03 0.  0.
<mgrwt>
<rscale>  0 0.73745013E+03</rscale>
<asrwt>0</asrwt>
<pdfrwt beam="1">  1        2 0.56045221E-01 0.73745013E+03</pdfrwt>
<pdfrwt beam="2">  1       -2 0.57416938E-01 0.73745013E+03</pdfrwt>
<totfact> 0.25334255E+02</totfact>
</mgrwt>
</event>
<event>
 4    1  0.1714834E-005  0.8401831E+03  0.7818608E-02  0.9503608E-01
          2   -1    0    0  501    0  0.00000000000E+00  0.00000000000E+00  0.77126125162E+03  0.77126125162E+03  0.25500000000E-02 0.  1.
         -2   -1    0    0    0  501 -0.00000000000E+00 -0.00000000000E+00 -0.22881599156E+03  0.22881599158E+03  0.25500000000E-02 0. -1.
   -5000001    1    1    2    0    0 -0.29870496929E+03  0.22107621677E+02  0.85811264683E+02  0.39947087348E+03  0.25000000000E+03 0.  0.
    5000001    1    1    2    0    0  0.29870496929E+03 -0.22107621677E+02  0.45663399537E+03  0.60060636972E+03  0.25000000000E+03 0.  0.
<mgrwt>
<rscale>  0 0.84018309E+03</rscale>
<asrwt>0</asrwt>
<pdfrwt beam="1">  1        2 0.11865558E+00 0.84018309E+03</pdfrwt>
<pdfrwt beam="2">  1       -2 0.35202460E-01 0.84018309E+03</pdfrwt>
<totfact> 0.27500256E+02</totfact>
</mgrwt>
</event>
<event>
 4    1  0.1714834E-005  0.6591292E+03  0.7818608E-02  0.9789798E-01
         -2   -1    0    0    0  501 -0.00000000000E+00  0.00000000000E+00  0.10736959018E+03  0.10736959021E+03  0.25500000000E-02 0. -1.
          2   -1    0    0  501    0  0.00000000000E+00 -0.00000000000E+00 -0.10115789995E+04  0.10115789995E+04  0.25500000000E-02 0.  1.
   -5000001    1    1    2    0    0 -0.13960573891E+03  0.14439056007E+03 -0.58110598327E+03  0.66371873559E+03  0.25000000000E+03 0.  0.
    5000001    1    1    2    0    0  0.13960573891E+03 -0.14439056007E+03 -0.32310342609E+03  0.45522985416E+03  0.25000000000E+03 0.  0.
<mgrwt>
<rscale>  0 0.65912919E+03</rscale>
<asrwt>0</asrwt>
<pdfrwt beam="1">  1        2 0.15562753E+00 0.65912919E+03</pdfrwt>
<pdfrwt beam="2">  1       -2 0.16518399E-01 0.65912919E+03</pdfrwt>
<totfact> 0.74183783E+02</totfact>
</mgrwt>
</event>
<event>
 4    1  0.1714834E-005  0.7193177E+03  0.7818608E-02  0.9684755E-01
         -2   -1    0    0    0  501 -0.00000000000E+00  0.00000000000E+00  0.48739170549E+03  0.48739170550E+03  0.25500000000E-02 0. -1.
          2   -1    0    0  501    0  0.00000000000E+00 -0.00000000000E+00 -0.26540152590E+03  0.26540152592E+03  0.25500000000E-02 0.  1.
   -5000001    1    1    2    0    0 -0.39450530732E+02  0.15719567882E+03 -0.99844435869E+02  0.31422243266E+03  0.25000000000E+03 0.  0.
    5000001    1    1    2    0    0  0.39450530732E+02 -0.15719567882E+03  0.32183461546E+03  0.43857079875E+03  0.25000000000E+03 0.  0.
<mgrwt>
<rscale>  0 0.71931774E+03</rscale>
<asrwt>0</asrwt>
<pdfrwt beam="1">  1        2 0.40831004E-01 0.71931774E+03</pdfrwt>
<pdfrwt beam="2">  1       -2 0.74983339E-01 0.71931774E+03</pdfrwt>
<totfact> 0.20303314E+02</totfact>
</mgrwt>
</event>
<event>
 4    1  0.1714834E-005  0.8490701E+03  0.7818608E-02  0.9491586E-01
          2   -1    0    0  501    0  0.00000000000E+00  0.00000000000E+00  0.49281155733E+03  0.49281155734E+03  0.25500000000E-02 0.  1.
         -2   -1    0    0    0  501 -0.00000000000E+00 -0.00000000000E+00 -0.36571785905E+03  0.36571785906E+03  0.25500000000E-02 0. -1.
   -5000001    1    1    2    0    0 -0.22814609623E+03 -0.18430145430E+03 -0.11651664292E+03  0.40260873731E+03  0.25000000000E+03 0.  0.
    5000001    1    1    2    0    0  0.22814609623E+03  0.18430145430E+03  0.24361034120E+03  0.45592067909E+03  0.25000000000E+03 0.  0.
<mgrwt>
<rscale>  0 0.84907005E+03</rscale>
<asrwt>0</asrwt>
<pdfrwt beam="1">  1        2 0.75817163E-01 0.84907005E+03</pdfrwt>
<pdfrwt beam="2">  1       -2 0.56264286E-01 0.84907005E+03</pdfrwt>
<totfact> 0.18676658E+02</totfact>
</mgrwt>
</event>
<event>
 4    1  0.1714834E-005  0.8774143E+03  0.7818608E-02  0.9454264E-01
         -2   -1    0    0    0  501 -0.00000000000E+00  0.00000000000E+00  0.93178758758E+03  0.93178758758E+03  0.25500000000E-02 0. -1.
          2   -1    0    0  501    0  0.00000000000E+00 -0.00000000000E+00 -0.20655346697E+03  0.20655346699E+03  0.25500000000E-02 0.  1.
   -5000001    1    1    2    0    0 -0.87706199067E+02  0.28324882814E+03  0.96601075956E+02  0.39969243660E+03  0.25000000000E+03 0.  0.
    5000001    1    1    2    0    0  0.87706199067E+02 -0.28324882814E+03  0.62863304465E+03  0.73864861797E+03  0.25000000000E+03 0.  0.
<mgrwt>
<rscale>  0 0.87741428E+03</rscale>
<asrwt>0</asrwt>
<pdfrwt beam="1">  1        2 0.31777456E-01 0.87741428E+03</pdfrwt>
<pdfrwt beam="2">  1       -2 0.14335194E+00 0.87741428E+03</pdfrwt>
<totfact> 0.56538285E+01</totfact>
</mgrwt>
</event>
<event>
 4    1  0.1714834E-005  0.5660534E+03  0.7818608E-02  0.9978450E-01
         -2   -1    0    0    0  501 -0.00000000000E+00  0.00000000000E+00  0.63900135737E+02  0.63900135787E+02  0.25500000000E-02 0. -1.
          2   -1    0    0  501    0  0.00000000000E+00 -0.00000000000E+00 -0.12535827343E+04  0.12535827343E+04  0.25500000000E-02 0.  1.
   -5000001    1    1    2    0    0 -0.12651740561E+03 -0.14495133794E+02 -0.50814916720E+03  0.58045873148E+03  0.25000000000E+03 0.  0.
    5000001    1    1    2    0    0  0.12651740561E+03  0.14495133794E+02 -0.68153343134E+03  0.73702413859E+03  0.25000000000E+03 0.  0.
<mgrwt>
<rscale>  0 0.56605338E+03</rscale>
<asrwt>0</asrwt>
<pdfrwt beam="1">  1        2 0.19285886E+00 0.56605338E+03</pdfrwt>
<pdfrwt beam="2">  1       -2 0.98307910E-02 0.56605338E+03</pdfrwt>
<totfact> 0.12585573E+03</totfact>
</mgrwt>
</event>
<event>
 4    1  0.1714834E-005  0.7203253E+03  0.7818608E-02  0.9683091E-01
         -2   -1    0    0    0  501 -0.00000000000E+00  0.00000000000E+00  0.47122849961E+02  0.47122850030E+02  0.25500000000E-02 0. -1.
          2   -1    0    0  501    0  0.00000000000E+00 -0.00000000000E+00 -0.27527440297E+04  0.27527440297E+04  0.25500000000E-02 0.  1.
   -5000001    1    1    2    0    0 -0.79250376441E+02  0.22208597655E+03 -0.17717063668E+04  0.18047288586E+04  0.25000000000E+03 0.  0.
    5000001    1    1    2    0    0  0.79250376441E+02 -0.22208597655E+03 -0.93391481300E+03  0.99513802113E+03  0.25000000000E+03 0.  0.
<mgrwt>
<rscale>  0 0.72032533E+03</rscale>
<asrwt>0</asrwt>
<pdfrwt beam="1">  1        2 0.42349896E+00 0.72032533E+03</pdfrwt>
<pdfrwt beam="2">  1       -2 0.72496714E-02 0.72032533E+03</pdfrwt>
<totfact> 0.29835422E+02</totfact>
</mgrwt>
</event>
<event>
 4    1  0.1714834E-005  0.5153849E+03  0.7818608E-02  0.1009839E+00
          2   -1    0    0  501    0  0.00000000000E+00  0.00000000000E+00  0.45629744511E+03  0.45629744512E+03  0.25500000000E-02 0.  1.
         -2   -1    0    0    0  501 -0.00000000000E+00 -0.00000000000E+00 -0.14553096647E+03  0.14553096649E+03  0.25500000000E-02 0. -1.
   -5000001    1    1    2    0    0 -0.54699619916E+02  0.53651567738E+01  0.19011351762E+03  0.31884789933E+03  0.25000000000E+03 0.  0.
    5000001    1    1    2    0    0  0.54699619916E+02 -0.53651567738E+01  0.12065296102E+03  0.28298051228E+03  0.25000000000E+03 0.  0.
<mgrwt>
<rscale>  0 0.51538494E+03</rscale>
<asrwt>0</asrwt>
<pdfrwt beam="1">  1        2 0.70199604E-01 0.51538494E+03</pdfrwt>
<pdfrwt beam="2">  1       -2 0.22389380E-01 0.51538494E+03</pdfrwt>
<totfact> 0.11971403E+03</totfact>
</mgrwt>
</event>
<event>
 4    1  0.1714834E-005  0.5820563E+03  0.7818608E-02  0.9943349E-01
         -2   -1    0    0    0  501 -0.00000000000E+00  0.00000000000E+00  0.68246442767E+02  0.68246442814E+02  0.25500000000E-02 0. -1.
          2   -1    0    0  501    0  0.00000000000E+00 -0.00000000000E+00 -0.12410519968E+04  0.12410519968E+04  0.25500000000E-02 0.  1.
   -5000001    1    1    2    0    0  0.46757305948E+00 -0.14872467186E+03 -0.60628675628E+03  0.67246031666E+03  0.25000000000E+03 0.  0.
    5000001    1    1    2    0    0 -0.46757305948E+00  0.14872467186E+03 -0.56651879780E+03  0.63683812300E+03  0.25000000000E+03 0.  0.
<mgrwt>
<rscale>  0 0.58205630E+03</rscale>
<asrwt>0</asrwt>
<pdfrwt beam="1">  1        2 0.19093106E+00 0.58205630E+03</pdfrwt>
<pdfrwt beam="2">  1       -2 0.10499454E-01 0.58205630E+03</pdfrwt>
<totfact> 0.11495677E+03</totfact>
</mgrwt>
</event>
<event>
 4    1  0.1714834E-005  0.7703761E+03  0.7818608E-02  0.9603915E-01
          2   -1    0    0  501    0  0.00000000000E+00  0.00000000000E+00  0.32831128069E+03  0.32831128070E+03  0.25500000000E-02 0.  1.
         -2   -1    0    0    0  501 -0.00000000000E+00 -0.00000000000E+00 -0.45191821742E+03  0.45191821743E+03  0.25500000000E-02 0. -1.
   -5000001    1    1    2    0    0 -0.38428466607E+02  0.28969814720E+03 -0.83715467230E+02  0.39358613160E+03  0.25000000000E+03 0.  0.
    5000001    1    1    2    0    0  0.38428466607E+02 -0.28969814720E+03 -0.39891469504E+02  0.38664336652E+03  0.25000000000E+03 0.  0.
<mgrwt>
<rscale>  0 0.77037614E+03</rscale>
<asrwt>0</asrwt>
<pdfrwt beam="1">  1        2 0.50509428E-01 0.77037614E+03</pdfrwt>
<pdfrwt beam="2">  1       -2 0.69525879E-01 0.77037614E+03</pdfrwt>
<totfact> 0.18889926E+02</totfact>
</mgrwt>
</event>
<event>
 4    1  0.1714834E-005  0.8026745E+03  0.7818608E-02  0.9556154E-01
          2   -1    0    0  501    0  0.00000000000E+00  0.00000000000E+00  0.22553183478E+04  0.22553183478E+04  0.25500000000E-02 0.  1.
         -2   -1    0    0    0  501 -0.00000000000E+00 -0.00000000000E+00 -0.71418560530E+02  0.71418560576E+02  0.25500000000E-02 0. -1.
   -5000001    1    1    2    0    0  0.28548472001E+03 -0.11495863533E+03  0.91198153249E+03  0.99444825346E+03  0.25000000000E+03 0.  0.
    5000001    1    1    2    0    0 -0.28548472001E+03  0.11495863533E+03  0.12719182548E+04  0.13322886549E+04  0.25000000000E+03 0.  0.
<mgrwt>
<rscale>  0 0.80267450E+03</rscale>
<asrwt>0</asrwt>
<pdfrwt beam="1">  1        2 0.34697210E+00 0.80267450E+03</pdfrwt>
<pdfrwt beam="2">  1       -2 0.10987469E-01 0.80267450E+03</pdfrwt>
<totfact> 0.29014134E+02</totfact>
</mgrwt>
</event>
<event>
 4    1  0.1714834E-005  0.8589087E+03  0.7818608E-02  0.9478457E-01
         -2   -1    0    0    0  501 -0.00000000000E+00  0.00000000000E+00  0.24534986198E+03  0.24534986199E+03  0.25500000000E-02 0. -1.
          2   -1    0    0  501    0  0.00000000000E+00 -0.00000000000E+00 -0.75170622310E+03  0.75170622310E+03  0.25500000000E-02 0.  1.
   -5000001    1    1    2    0    0 -0.32953563721E+03  0.34336195229E+02 -0.38117794610E+03  0.56353290684E+03  0.25000000000E+03 0.  0.
    5000001    1    1    2    0    0  0.32953563721E+03 -0.34336195229E+02 -0.12517841502E+03  0.43352317825E+03  0.25000000000E+03 0.  0.
<mgrwt>
<rscale>  0 0.85890865E+03</rscale>
<asrwt>0</asrwt>
<pdfrwt beam="1">  1        2 0.11564711E+00 0.85890865E+03</pdfrwt>
<pdfrwt beam="2">  1       -2 0.37746133E-01 0.85890865E+03</pdfrwt>
<totfact> 0.24851040E+02</totfact>
</mgrwt>
</event>
<event>
 4    1  0.1714834E-005  0.5882400E+03  0.7818608E-02  0.9930109E-01
         -2   -1    0    0    0  501 -0.00000000000E+00  0.00000000000E+00  0.51416245857E+03  0.51416245857E+03  0.25500000000E-02 0.  1.
          2   -1    0    0  501    0  0.00000000000E+00 -0.00000000000E+00 -0.16824756692E+03  0.16824756694E+03  0.25500000000E-02 0. -1.
   -5000001    1    1    2    0    0 -0.92534562253E+02 -0.55911157115E+02  0.30171087616E+03  0.40647036238E+03  0.25000000000E+03 0.  0.
    5000001    1    1    2    0    0  0.92534562253E+02  0.55911157115E+02  0.44204015487E+02  0.27593966313E+03  0.25000000000E+03 0.  0.
<mgrwt>
<rscale>  0 0.58824003E+03</rscale>
<asrwt>0</asrwt>
<pdfrwt beam="1">  1        2 0.25884242E-01 0.58824003E+03</pdfrwt>
<pdfrwt beam="2">  1       -2 0.79101915E-01 0.58824003E+03</pdfrwt>
<totfact> 0.30181071E+02</totfact>
</mgrwt>
</event>
<event>
 4    1  0.1714834E-005  0.5474892E+03  0.7818608E-02  0.1002077E+00
          2   -1    0    0  501    0  0.00000000000E+00  0.00000000000E+00  0.18869620894E+04  0.18869620894E+04  0.25500000000E-02 0.  1.
         -2   -1    0    0    0  501 -0.00000000000E+00 -0.00000000000E+00 -0.39712558590E+02  0.39712558672E+02  0.25500000000E-02 0. -1.
   -5000001    1    1    2    0    0  0.92610544712E+02 -0.53928652722E+02  0.10321526649E+04  0.10673912761E+04  0.25000000000E+03 0.  0.
    5000001    1    1    2    0    0 -0.92610544712E+02  0.53928652722E+02  0.81509686587E+03  0.85928337196E+03  0.25000000000E+03 0.  0.
<mgrwt>
<rscale>  0 0.54748915E+03</rscale>
<asrwt>0</asrwt>
<pdfrwt beam="1">  1        2 0.29030187E+00 0.54748915E+03</pdfrwt>
<pdfrwt beam="2">  1       -2 0.61096243E-02 0.54748915E+03</pdfrwt>
<totfact> 0.12019444E+03</totfact>
</mgrwt>
</event>
<event>
 4    1  0.1714834E-005  0.5061730E+03  0.7818608E-02  0.1012180E+00
          2   -1    0    0  501    0  0.00000000000E+00  0.00000000000E+00  0.16700157576E+04  0.16700157576E+04  0.25500000000E-02 0.  1.
         -2   -1    0    0    0  501 -0.00000000000E+00 -0.00000000000E+00 -0.38354600735E+02  0.38354600820E+02  0.25500000000E-02 0. -1.
   -5000001    1    1    2    0    0 -0.26709256800E+02  0.94904419333E+01  0.72344143041E+03  0.76594448632E+03  0.25000000000E+03 0.  0.
    5000001    1    1    2    0    0  0.26709256800E+02 -0.94904419333E+01  0.90821972643E+03  0.94242587208E+03  0.25000000000E+03 0.  0.
<mgrwt>
<rscale>  0 0.50617304E+03</rscale>
<asrwt>0</asrwt>
<pdfrwt beam="1">  1        2 0.25692545E+00 0.50617304E+03</pdfrwt>
<pdfrwt beam="2">  1       -2 0.59007089E-02 0.50617304E+03</pdfrwt>
<totfact> 0.16648236E+03</totfact>
</mgrwt>
</event>
<event>
 4    1  0.1714834E-005  0.9918248E+03  0.7818608E-02  0.9317557E-01
         -2   -1    0    0    0  501 -0.00000000000E+00  0.00000000000E+00  0.42219063904E+03  0.42219063905E+03  0.25500000000E-02 0. -1.
          2   -1    0    0  501    0  0.00000000000E+00 -0.00000000000E+00 -0.58250726362E+03  0.58250726362E+03  0.25500000000E-02 0.  1.
   -5000001    1    1    2    0    0 -0.22294069232E+03  0.16954600838E+03  0.24805431514E+03  0.44997704887E+03  0.25000000000E+03 0.  0.
    5000001    1    1    2    0    0  0.22294069232E+03 -0.16954600838E+03 -0.40837093971E+03  0.55472085381E+03  0.25000000000E+03 0.  0.
<mgrwt>
<rscale>  0 0.99182481E+03</rscale>
<asrwt>0</asrwt>
<pdfrwt beam="1">  1        2 0.89616502E-01 0.99182481E+03</pdfrwt>
<pdfrwt beam="2">  1       -2 0.64952406E-01 0.99182481E+03</pdfrwt>
<totfact> 0.11234013E+02</totfact>
</mgrwt>
</event>
<event>
 4    1  0.1714834E-005  0.9152804E+03  0.7818608E-02  0.9406679E-01
         -2   -1    0    0    0  501 -0.00000000000E+00  0.00000000000E+00  0.99527380252E+02  0.99527380284E+02  0.25500000000E-02 0. -1.
          2   -1    0    0  501    0  0.00000000000E+00 -0.00000000000E+00 -0.21042910272E+04  0.21042910272E+04  0.25500000000E-02 0.  1.
   -5000001    1    1    2    0    0 -0.47317928702E+02 -0.36933116778E+03 -0.78315138000E+03  0.90248023904E+03  0.25000000000E+03 0.  0.
    5000001    1    1    2    0    0  0.47317928702E+02  0.36933116778E+03 -0.12216122669E+04  0.13013381684E+04  0.25000000000E+03 0.  0.
<mgrwt>
<rscale>  0 0.91528045E+03</rscale>
<asrwt>0</asrwt>
<pdfrwt beam="1">  1        2 0.32373705E+00 0.91528045E+03</pdfrwt>
<pdfrwt beam="2">  1       -2 0.15311906E-01 0.91528045E+03</pdfrwt>
<totfact> 0.20018767E+02</totfact>
</mgrwt>
</event>
<event>
 4    1  0.1714834E-005  0.7679526E+03  0.7818608E-02  0.9607599E-01
         -2   -1    0    0    0  501 -0.00000000000E+00  0.00000000000E+00  0.77539525049E+02  0.77539525091E+02  0.25500000000E-02 0. -1.
          2   -1    0    0  501    0  0.00000000000E+00 -0.00000000000E+00 -0.19014535387E+04  0.19014535387E+04  0.25500000000E-02 0.  1.
   -5000001    1    1    2    0    0  0.19316958432E+03  0.21664420833E+03 -0.97957998787E+03  0.10518204000E+04  0.25000000000E+03 0.  0.
    5000001    1    1    2    0    0 -0.19316958432E+03 -0.21664420833E+03 -0.84433402574E+03  0.92717266371E+03  0.25000000000E+03 0.  0.
<mgrwt>
<rscale>  0 0.76795261E+03</rscale>
<asrwt>0</asrwt>
<pdfrwt beam="1">  1        2 0.29253128E+00 0.76795261E+03</pdfrwt>
<pdfrwt beam="2">  1       -2 0.11929159E-01 0.76795261E+03</pdfrwt>
<totfact> 0.39725746E+02</totfact>
</mgrwt>
</event>
<event>
 4    1  0.1714834E-005  0.7456912E+03  0.7818608E-02  0.9642135E-01
          2   -1    0    0  501    0  0.00000000000E+00  0.00000000000E+00  0.12021279604E+04  0.12021279604E+04  0.25500000000E-02 0.  1.
         -2   -1    0    0    0  501 -0.00000000000E+00 -0.00000000000E+00 -0.11563980031E+03  0.11563980033E+03  0.25500000000E-02 0. -1.
   -5000001    1    1    2    0    0 -0.27501933123E+03 -0.22461482486E+02  0.57740531853E+03  0.68704952704E+03  0.25000000000E+03 0.  0.
    5000001    1    1    2    0    0  0.27501933123E+03  0.22461482486E+02  0.50908284161E+03  0.63071823374E+03  0.25000000000E+03 0.  0.
<mgrwt>
<rscale>  0 0.74569119E+03</rscale>
<asrwt>0</asrwt>
<pdfrwt beam="1">  1        2 0.18494275E+00 0.74569119E+03</pdfrwt>
<pdfrwt beam="2">  1       -2 0.17790740E-01 0.74569119E+03</pdfrwt>
<totfact> 0.49811697E+02</totfact>
</mgrwt>
</event>
<event>
 4    1  0.1714834E-005  0.1054700E+04  0.7818608E-02  0.9250505E-01
          2   -1    0    0  501    0  0.00000000000E+00  0.00000000000E+00  0.14733411381E+04  0.14733411381E+04  0.25500000000E-02 0.  1.
         -2   -1    0    0    0  501 -0.00000000000E+00 -0.00000000000E+00 -0.18875321264E+03  0.18875321265E+03  0.25500000000E-02 0. -1.
   -5000001    1    1    2    0    0  0.11956980961E+03 -0.42783927715E+03  0.42937631636E+03  0.66648886524E+03  0.25000000000E+03 0.  0.
    5000001    1    1    2    0    0 -0.11956980961E+03  0.42783927715E+03  0.85521160906E+03  0.99560548548E+03  0.25000000000E+03 0.  0.
<mgrwt>
<rscale>  0 0.10546997E+04</rscale>
<asrwt>0</asrwt>
<pdfrwt beam="1">  1        2 0.22666786E+00 0.10546997E+04</pdfrwt>
<pdfrwt beam="2">  1       -2 0.29038957E-01 0.10546997E+04</pdfrwt>
<totfact> 0.14241960E+02</totfact>
</mgrwt>
</event>
<event>
 4    1  0.1714834E-005  0.7800790E+03  0.7818608E-02  0.9589308E-01
         -2   -1    0    0    0  501 -0.00000000000E+00  0.00000000000E+00  0.15639064512E+03  0.15639064514E+03  0.25500000000E-02 0. -1.
          2   -1    0    0  501    0  0.00000000000E+00 -0.00000000000E+00 -0.97276153820E+03  0.97276153820E+03  0.25500000000E-02 0.  1.
   -5000001    1    1    2    0    0 -0.22715083690E+03  0.18622504218E+03 -0.49200886245E+03  0.62517996591E+03  0.25000000000E+03 0.  0.
    5000001    1    1    2    0    0  0.22715083690E+03 -0.18622504218E+03 -0.32436203062E+03  0.50397221744E+03  0.25000000000E+03 0.  0.
<mgrwt>
<rscale>  0 0.78007898E+03</rscale>
<asrwt>0</asrwt>
<pdfrwt beam="1">  1        2 0.14965562E+00 0.78007898E+03</pdfrwt>
<pdfrwt beam="2">  1       -2 0.24060100E-01 0.78007898E+03</pdfrwt>
<totfact> 0.40504099E+02</totfact>
</mgrwt>
</event>
<event>
 4    1  0.1714834E-005  0.8882726E+03  0.7818608E-02  0.9440361E-01
         -2   -1    0    0    0  501 -0.00000000000E+00  0.00000000000E+00  0.12631640577E+03  0.12631640579E+03  0.25500000000E-02 0. -1.
          2   -1    0    0  501    0  0.00000000000E+00 -0.00000000000E+00 -0.15616108102E+04  0.15616108102E+04  0.25500000000E-02 0.  1.
   -5000001    1    1    2    0    0 -0.14088915573E+03 -0.20637041660E+03 -0.20663375692E+03  0.40943377065E+03  0.25000000000E+03 0.  0.
    5000001    1    1    2    0    0  0.14088915573E+03  0.20637041660E+03 -0.12286606475E+04  0.12784934454E+04  0.25000000000E+03 0.  0.
<mgrwt>
<rscale>  0 0.88827263E+03</rscale>
<asrwt>0</asrwt>
<pdfrwt beam="1">  1        2 0.24024780E+00 0.88827263E+03</pdfrwt>
<pdfrwt beam="2">  1       -2 0.19433294E-01 0.88827263E+03</pdfrwt>
<totfact> 0.26445420E+02</totfact>
</mgrwt>
</event>
<event>
 4    1  0.1714834E-005  0.1070177E+04  0.7818608E-02  0.9234757E-01
          2   -1    0    0  501    0  0.00000000000E+00  0.00000000000E+00  0.90129984955E+03  0.90129984955E+03  0.25500000000E-02 0.  1.
         -2   -1    0    0    0  501 -0.00000000000E+00 -0.00000000000E+00 -0.31767391222E+03  0.31767391223E+03  0.25500000000E-02 0. -1.
   -5000001    1    1    2    0    0 -0.37617242872E+03  0.26795932165E+02 -0.33553396913E+02  0.45370645638E+03  0.25000000000E+03 0.  0.
    5000001    1    1    2    0    0  0.37617242872E+03 -0.26795932165E+02  0.61717933424E+03  0.76526730541E+03  0.25000000000E+03 0.  0.
<mgrwt>
<rscale>  0 0.10701765E+04</rscale>
<asrwt>0</asrwt>
<pdfrwt beam="1">  1        2 0.13866152E+00 0.10701765E+04</pdfrwt>
<pdfrwt beam="2">  1       -2 0.48872909E-01 0.10701765E+04</pdfrwt>
<totfact> 0.11535526E+02</totfact>
</mgrwt>
</event>
<event>
 4    1  0.1714834E-005  0.7712176E+03  0.7818608E-02  0.9602639E-01
         -2   -1    0    0    0  501 -0.00000000000E+00  0.00000000000E+00  0.16040731797E+03  0.16040731799E+03  0.25500000000E-02 0. -1.
          2   -1    0    0  501    0  0.00000000000E+00 -0.00000000000E+00 -0.92697850047E+03  0.92697850048E+03  0.25500000000E-02 0.  1.
   -5000001    1    1    2    0    0 -0.26747108069E+03  0.26879207676E+02 -0.21686932261E+03  0.42637492175E+03  0.25000000000E+03 0.  0.
    5000001    1    1    2    0    0  0.26747108069E+03 -0.26879207676E+02 -0.54970185990E+03  0.66101089672E+03  0.25000000000E+03 0.  0.
<mgrwt>
<rscale>  0 0.77121757E+03</rscale>
<asrwt>0</asrwt>
<pdfrwt beam="1">  1        2 0.14261207E+00 0.77121757E+03</pdfrwt>
<pdfrwt beam="2">  1       -2 0.24678050E-01 0.77121757E+03</pdfrwt>
<totfact> 0.41480204E+02</totfact>
</mgrwt>
</event>
<event>
 4    1  0.1714834E-005  0.8324956E+03  0.7818608E-02  0.9514137E-01
          2   -1    0    0  501    0  0.00000000000E+00  0.00000000000E+00  0.48301324929E+03  0.48301324930E+03  0.25500000000E-02 0.  1.
         -2   -1    0    0    0  501 -0.00000000000E+00 -0.00000000000E+00 -0.35871115001E+03  0.35871115002E+03  0.25500000000E-02 0. -1.
   -5000001    1    1    2    0    0  0.12317153108E+03 -0.30034928617E+03  0.13632173695E+03  0.43181539544E+03  0.25000000000E+03 0.  0.
    5000001    1    1    2    0    0 -0.12317153108E+03  0.30034928617E+03 -0.12019637665E+02  0.40990900388E+03  0.25000000000E+03 0.  0.
<mgrwt>
<rscale>  0 0.83249562E+03</rscale>
<asrwt>0</asrwt>
<pdfrwt beam="1">  1        2 0.74309730E-01 0.83249562E+03</pdfrwt>
<pdfrwt beam="2">  1       -2 0.55186331E-01 0.83249562E+03</pdfrwt>
<totfact> 0.19915353E+02</totfact>
</mgrwt>
</event>
<event>
 4    1  0.1714834E-005  0.7366700E+03  0.7818608E-02  0.9656498E-01
          2   -1    0    0  501    0  0.00000000000E+00  0.00000000000E+00  0.49561025818E+03  0.49561025818E+03  0.25500000000E-02 0.  1.
         -2   -1    0    0    0  501 -0.00000000000E+00 -0.00000000000E+00 -0.27374467865E+03  0.27374467866E+03  0.25500000000E-02 0. -1.
   -5000001    1    1    2    0    0 -0.12875184490E+03 -0.38360816800E+02 -0.13426500821E+03  0.31396764524E+03  0.25000000000E+03 0.  0.
    5000001    1    1    2    0    0  0.12875184490E+03  0.38360816800E+02  0.35613058773E+03  0.45538729160E+03  0.25000000000E+03 0.  0.
<mgrwt>
<rscale>  0 0.73667000E+03</rscale>
<asrwt>0</asrwt>
<pdfrwt beam="1">  1        2 0.76247731E-01 0.73667000E+03</pdfrwt>
<pdfrwt beam="2">  1       -2 0.42114566E-01 0.73667000E+03</pdfrwt>
<totfact> 0.33503796E+02</totfact>
</mgrwt>
</event>
<event>
 4    1  0.1714834E-005  0.7565990E+03  0.7818608E-02  0.9625054E-01
          2   -1    0    0  501    0  0.00000000000E+00  0.00000000000E+00  0.22919244004E+04  0.22919244004E+04  0.25500000000E-02 0.  1.
         -2   -1    0    0    0  501 -0.00000000000E+00 -0.00000000000E+00 -0.62441206105E+02  0.62441206157E+02  0.25500000000E-02 0. -1.
   -5000001    1    1    2    0    0 -0.63473504800E+02  0.24984257175E+03  0.74444922015E+03  0.82653181297E+03  0.25000000000E+03 0.  0.
    5000001    1    1    2    0    0  0.63473504800E+02 -0.24984257175E+03  0.14850339742E+04  0.15278337936E+04  0.25000000000E+03 0.  0.
<mgrwt>
<rscale>  0 0.75659903E+03</rscale>
<asrwt>0</asrwt>
<pdfrwt beam="1">  1        2 0.35260375E+00 0.75659903E+03</pdfrwt>
<pdfrwt beam="2">  1       -2 0.96063395E-02 0.75659903E+03</pdfrwt>
<totfact> 0.34611284E+02</totfact>
</mgrwt>
</event>
<event>
 4    1  0.1714834E-005  0.7922181E+03  0.7818608E-02  0.9571350E-01
         -2   -1    0    0    0  501 -0.00000000000E+00  0.00000000000E+00  0.82405592301E+02  0.82405592341E+02  0.25500000000E-02 0. -1.
          2   -1    0    0  501    0  0.00000000000E+00 -0.00000000000E+00 -0.19040259424E+04  0.19040259424E+04  0.25500000000E-02 0.  1.
   -5000001    1    1    2    0    0 -0.91507182196E+02 -0.29167581668E+03 -0.98825848233E+03  0.10642383071E+04  0.25000000000E+03 0.  0.
    5000001    1    1    2    0    0  0.91507182196E+02  0.29167581668E+03 -0.83336186773E+03  0.92219322759E+03  0.25000000000E+03 0.  0.
<mgrwt>
<rscale>  0 0.79221812E+03</rscale>
<asrwt>0</asrwt>
<pdfrwt beam="1">  1        2 0.29292704E+00 0.79221812E+03</pdfrwt>
<pdfrwt beam="2">  1       -2 0.12677785E-01 0.79221812E+03</pdfrwt>
<totfact> 0.35734457E+02</totfact>
</mgrwt>
</event>
<event>
 4    1  0.1714834E-005  0.9600910E+03  0.7818608E-02  0.9353433E-01
          2   -1    0    0  501    0  0.00000000000E+00  0.00000000000E+00  0.20489438713E+03  0.20489438715E+03  0.25500000000E-02 0.  1.
         -2   -1    0    0    0  501 -0.00000000000E+00 -0.00000000000E+00 -0.11246948785E+04  0.11246948785E+04  0.25500000000E-02 0. -1.
   -5000001    1    1    2    0    0  0.29047621251E+03  0.17284112172E+03 -0.78079653563E+03  0.88678842654E+03  0.25000000000E+03 0.  0.
    5000001    1    1    2    0    0 -0.29047621251E+03 -0.17284112172E+03 -0.13900395572E+03  0.44280083909E+03  0.25000000000E+03 0.  0.
<mgrwt>
<rscale>  0 0.96009097E+03</rscale>
<asrwt>0</asrwt>
<pdfrwt beam="1">  1        2 0.31522214E-01 0.96009097E+03</pdfrwt>
<pdfrwt beam="2">  1       -2 0.17302998E+00 0.96009097E+03</pdfrwt>
<totfact> 0.34160317E+01</totfact>
</mgrwt>
</event>
<event>
 4    1  0.1714834E-005  0.8541169E+03  0.7818608E-02  0.9484828E-01
          2   -1    0    0  501    0  0.00000000000E+00  0.00000000000E+00  0.24771789875E+03  0.24771789877E+03  0.25500000000E-02 0. -1.
         -2   -1    0    0    0  501 -0.00000000000E+00 -0.00000000000E+00 -0.73623629253E+03  0.73623629254E+03  0.25500000000E-02 0.  1.
   -5000001    1    1    2    0    0  0.19186080078E+03 -0.28814508649E+03 -0.23690526749E+03  0.48832598078E+03  0.25000000000E+03 0.  0.
    5000001    1    1    2    0    0 -0.19186080078E+03  0.28814508649E+03 -0.25161312629E+03  0.49562821052E+03  0.25000000000E+03 0.  0.
<mgrwt>
<rscale>  0 0.85411687E+03</rscale>
<asrwt>0</asrwt>
<pdfrwt beam="1">  1        2 0.38110446E-01 0.85411687E+03</pdfrwt>
<pdfrwt beam="2">  1       -2 0.11326712E+00 0.85411687E+03</pdfrwt>
<totfact> 0.83612003E+01</totfact>
</mgrwt>
</event>
<event>
 4    1  0.1714834E-005  0.1107424E+04  0.7818608E-02  0.9197986E-01
         -2   -1    0    0    0  501 -0.00000000000E+00  0.00000000000E+00  0.36188066288E+03  0.36188066289E+03  0.25500000000E-02 0. -1.
          2   -1    0    0  501    0  0.00000000000E+00 -0.00000000000E+00 -0.84723205294E+03  0.84723205294E+03  0.25500000000E-02 0.  1.
   -5000001    1    1    2    0    0  0.36176501563E+03 -0.32402634065E+03 -0.14362666661E+03  0.56479696824E+03  0.25000000000E+03 0.  0.
    5000001    1    1    2    0    0 -0.36176501563E+03  0.32402634065E+03 -0.34172472345E+03  0.64431574759E+03  0.25000000000E+03 0.  0.
<mgrwt>
<rscale>  0 0.11074239E+04</rscale>
<asrwt>0</asrwt>
<pdfrwt beam="1">  1        2 0.13034339E+00 0.11074239E+04</pdfrwt>
<pdfrwt beam="2">  1       -2 0.55673948E-01 0.11074239E+04</pdfrwt>
<totfact> 0.95916242E+01</totfact>
</mgrwt>
</event>
<event>
 4    1  0.1714834E-005  0.1315239E+04  0.7818608E-02  0.9017567E-01
         -2   -1    0    0    0  501 -0.00000000000E+00  0.00000000000E+00  0.42788265940E+03  0.42788265941E+03  0.25500000000E-02 0.  1.
          2   -1    0    0  501    0  0.00000000000E+00 -0.00000000000E+00 -0.10107057230E+04  0.10107057230E+04  0.25500000000E-02 0. -1.
   -5000001    1    1    2    0    0  0.47179546235E+03  0.33782564864E+03 -0.91975477461E+02  0.63849558779E+03  0.25000000000E+03 0.  0.
    5000001    1    1    2    0    0 -0.47179546235E+03 -0.33782564864E+03 -0.49084758610E+03  0.80009279458E+03  0.25000000000E+03 0.  0.
<mgrwt>
<rscale>  0 0.13152391E+04</rscale>
<asrwt>0</asrwt>
<pdfrwt beam="1">  1        2 0.15549319E+00 0.13152391E+04</pdfrwt>
<pdfrwt beam="2">  1       -2 0.65828102E-01 0.13152391E+04</pdfrwt>
<totfact> 0.51581522E+01</totfact>
</mgrwt>
</event>
<event>
 4    1  0.1714834E-005  0.5963994E+03  0.7818608E-02  0.9912904E-01
          2   -1    0    0  501    0  0.00000000000E+00  0.00000000000E+00  0.27677513491E+04  0.27677513491E+04  0.25500000000E-02 0.  1.
         -2   -1    0    0    0  501 -0.00000000000E+00 -0.00000000000E+00 -0.32128272186E+02  0.32128272287E+02  0.25500000000E-02 0. -1.
   -5000001    1    1    2    0    0 -0.98345681218E+02  0.12942315043E+03  0.13721243485E+04  0.14041536428E+04  0.25000000000E+03 0.  0.
    5000001    1    1    2    0    0  0.98345681218E+02 -0.12942315043E+03  0.13634987284E+04  0.13957259786E+04  0.25000000000E+03 0.  0.
<mgrwt>
<rscale>  0 0.59639943E+03</rscale>
<asrwt>0</asrwt>
<pdfrwt beam="1">  1        2 0.42580799E+00 0.59639943E+03</pdfrwt>
<pdfrwt beam="2">  1       -2 0.49428101E-02 0.59639943E+03</pdfrwt>
<totfact> 0.54010774E+02</totfact>
</mgrwt>
</event>
<event>
 4    1  0.1714834E-005  0.7245872E+03  0.7818608E-02  0.9676085E-01
         -2   -1    0    0    0  501 -0.00000000000E+00  0.00000000000E+00  0.72965925930E+02  0.72965925974E+02  0.25500000000E-02 0. -1.
          2   -1    0    0  501    0  0.00000000000E+00 -0.00000000000E+00 -0.17988762045E+04  0.17988762045E+04  0.25500000000E-02 0.  1.
   -5000001    1    1    2    0    0  0.20096950019E+02 -0.26129905874E+03 -0.84049621299E+03  0.91521307330E+03  0.25000000000E+03 0.  0.
    5000001    1    1    2    0    0 -0.20096950019E+02  0.26129905874E+03 -0.88541406557E+03  0.95662905716E+03  0.25000000000E+03 0.  0.
<mgrwt>
<rscale>  0 0.72458724E+03</rscale>
<asrwt>0</asrwt>
<pdfrwt beam="1">  1        2 0.27675015E+00 0.72458724E+03</pdfrwt>
<pdfrwt beam="2">  1       -2 0.11225528E-01 0.72458724E+03</pdfrwt>
<totfact> 0.50089728E+02</totfact>
</mgrwt>
</event>
<event>
 4    1  0.1714834E-005  0.6986741E+03  0.7818608E-02  0.9719502E-01
          2   -1    0    0  501    0  0.00000000000E+00  0.00000000000E+00  0.82559322011E+03  0.82559322012E+03  0.25500000000E-02 0.  1.
         -2   -1    0    0    0  501 -0.00000000000E+00 -0.00000000000E+00 -0.14781659764E+03  0.14781659767E+03  0.25500000000E-02 0. -1.
   -5000001    1    1    2    0    0  0.66917787515E+02  0.15709117112E+03  0.58172837852E+03  0.65579229387E+03  0.25000000000E+03 0.  0.
    5000001    1    1    2    0    0 -0.66917787515E+02 -0.15709117112E+03  0.96048243950E+02  0.31761752391E+03  0.25000000000E+03 0.  0.
<mgrwt>
<rscale>  0 0.69867412E+03</rscale>
<asrwt>0</asrwt>
<pdfrwt beam="1">  1        2 0.12701434E+00 0.69867412E+03</pdfrwt>
<pdfrwt beam="2">  1       -2 0.22741015E-01 0.69867412E+03</pdfrwt>
<totfact> 0.56461097E+02</totfact>
</mgrwt>
</event>
<event>
 4    1  0.1714834E-005  0.9222804E+03  0.7818608E-02  0.9398151E-01
         -2   -1    0    0    0  501 -0.00000000000E+00  0.00000000000E+00  0.97069898007E+02  0.97069898040E+02  0.25500000000E-02 0. -1.
          2   -1    0    0  501    0  0.00000000000E+00 -0.00000000000E+00 -0.21906925052E+04  0.21906925052E+04  0.25500000000E-02 0.  1.
   -5000001    1    1    2    0    0 -0.20027953652E+03  0.28716402654E+03 -0.14587261780E+04  0.15208409296E+04  0.25000000000E+03 0.  0.
    5000001    1    1    2    0    0  0.20027953652E+03 -0.28716402654E+03 -0.63489642928E+03  0.76692147369E+03  0.25000000000E+03 0.  0.
<mgrwt>
<rscale>  0 0.92228043E+03</rscale>
<asrwt>0</asrwt>
<pdfrwt beam="1">  1        2 0.33702958E+00 0.92228043E+03</pdfrwt>
<pdfrwt beam="2">  1       -2 0.14933832E-01 0.92228043E+03</pdfrwt>
<totfact> 0.18701634E+02</totfact>
</mgrwt>
</event>
<event>
 4    1  0.1714834E-005  0.7681938E+03  0.7818608E-02  0.9607232E-01
         -2   -1    0    0    0  501 -0.00000000000E+00  0.00000000000E+00  0.12556114138E+03  0.12556114140E+03  0.25500000000E-02 0. -1.
          2   -1    0    0  501    0  0.00000000000E+00 -0.00000000000E+00 -0.11749688568E+04  0.11749688568E+04  0.25500000000E-02 0.  1.
   -5000001    1    1    2    0    0  0.21717296113E+02  0.23615336643E+03 -0.81196259805E+03  0.88205629869E+03  0.25000000000E+03 0.  0.
    5000001    1    1    2    0    0 -0.21717296113E+02 -0.23615336643E+03 -0.23744511739E+03  0.41847369953E+03  0.25000000000E+03 0.  0.
<mgrwt>
<rscale>  0 0.76819381E+03</rscale>
<asrwt>0</asrwt>
<pdfrwt beam="1">  1        2 0.18076443E+00 0.76819381E+03</pdfrwt>
<pdfrwt beam="2">  1       -2 0.19317099E-01 0.76819381E+03</pdfrwt>
<totfact> 0.44776241E+02</totfact>
</mgrwt>
</event>
<event>
 4    1  0.1714834E-005  0.6053124E+03  0.7818608E-02  0.9894445E-01
         -2   -1    0    0    0  501 -0.00000000000E+00  0.00000000000E+00  0.58642271083E+03  0.58642271083E+03  0.25500000000E-02 0. -1.
          2   -1    0    0  501    0  0.00000000000E+00 -0.00000000000E+00 -0.15620266329E+03  0.15620266331E+03  0.25500000000E-02 0.  1.
   -5000001    1    1    2    0    0  0.95725277962E+02 -0.50354868368E+02  0.37695076607E+03  0.46507077058E+03  0.25000000000E+03 0.  0.
    5000001    1    1    2    0    0 -0.95725277962E+02  0.50354868368E+02  0.53269281464E+02  0.27755460356E+03  0.25000000000E+03 0.  0.
<mgrwt>
<rscale>  0 0.60531245E+03</rscale>
<asrwt>0</asrwt>
<pdfrwt beam="1">  1        2 0.24031179E-01 0.60531245E+03</pdfrwt>
<pdfrwt beam="2">  1       -2 0.90218877E-01 0.60531245E+03</pdfrwt>
<totfact> 0.24382683E+02</totfact>
</mgrwt>
</event>
<event>
 4    1  0.1714834E-005  0.1068743E+04  0.7818608E-02  0.9236205E-01
          2   -1    0    0  501    0  0.00000000000E+00  0.00000000000E+00  0.10461753178E+04  0.10461753178E+04  0.25500000000E-02 0.  1.
         -2   -1    0    0    0  501 -0.00000000000E+00 -0.00000000000E+00 -0.27294917396E+03  0.27294917397E+03  0.25500000000E-02 0. -1.
   -5000001    1    1    2    0    0  0.41512530506E+03 -0.19856013762E+03  0.51780425155E+03  0.73646207647E+03  0.25000000000E+03 0.  0.
    5000001    1    1    2    0    0 -0.41512530506E+03  0.19856013762E+03  0.25542189229E+03  0.58266241531E+03  0.25000000000E+03 0.  0.
<mgrwt>
<rscale>  0 0.10687426E+04</rscale>
<asrwt>0</asrwt>
<pdfrwt beam="1">  1        2 0.16095005E+00 0.10687426E+04</pdfrwt>
<pdfrwt beam="2">  1       -2 0.41992181E-01 0.10687426E+04</pdfrwt>
<totfact> 0.12574652E+02</totfact>
</mgrwt>
</event>
<event>
 4    1  0.1714834E-005  0.6099305E+03  0.7818608E-02  0.9885015E-01
         -2   -1    0    0    0  501 -0.00000000000E+00  0.00000000000E+00  0.23739428245E+03  0.23739428247E+03  0.25500000000E-02 0. -1.
          2   -1    0    0  501    0  0.00000000000E+00 -0.00000000000E+00 -0.39176929977E+03  0.39176929978E+03  0.25500000000E-02 0.  1.
   -5000001    1    1    2    0    0  0.32174824688E+02 -0.17116431778E+03 -0.63684710626E+02  0.31126867075E+03  0.25000000000E+03 0.  0.
    5000001    1    1    2    0    0 -0.32174824688E+02  0.17116431778E+03 -0.90690306689E+02  0.31789491149E+03  0.25000000000E+03 0.  0.
<mgrwt>
<rscale>  0 0.60993046E+03</rscale>
<asrwt>0</asrwt>
<pdfrwt beam="1">  1        2 0.60272200E-01 0.60993046E+03</pdfrwt>
<pdfrwt beam="2">  1       -2 0.36522197E-01 0.60993046E+03</pdfrwt>
<totfact> 0.57870010E+02</totfact>
</mgrwt>
</event>
<event>
 4    1  0.1714834E-005  0.6079369E+03  0.7818608E-02  0.9889075E-01
         -2   -1    0    0    0  501 -0.00000000000E+00  0.00000000000E+00  0.18788803097E+03  0.18788803098E+03  0.25500000000E-02 0. -1.
          2   -1    0    0  501    0  0.00000000000E+00 -0.00000000000E+00 -0.49176534384E+03  0.49176534385E+03  0.25500000000E-02 0.  1.
   -5000001    1    1    2    0    0  0.15103461083E+03 -0.80332511040E+02 -0.18004515852E+03  0.35239328187E+03  0.25000000000E+03 0.  0.
    5000001    1    1    2    0    0 -0.15103461083E+03  0.80332511040E+02 -0.12383215435E+03  0.32726009297E+03  0.25000000000E+03 0.  0.
<mgrwt>
<rscale>  0 0.60793691E+03</rscale>
<asrwt>0</asrwt>
<pdfrwt beam="1">  1        2 0.75656206E-01 0.60793691E+03</pdfrwt>
<pdfrwt beam="2">  1       -2 0.28905851E-01 0.60793691E+03</pdfrwt>
<totfact> 0.69349210E+02</totfact>
</mgrwt>
</event>
<event>
 4    1  0.1714834E-005  0.8440335E+03  0.7818608E-02  0.9498380E-01
         -2   -1    0    0    0  501 -0.00000000000E+00  0.00000000000E+00  0.65662477394E+02  0.65662477443E+02  0.25500000000E-02 0. -1.
          2   -1    0    0  501    0  0.00000000000E+00 -0.00000000000E+00 -0.27123271152E+04  0.27123271152E+04  0.25500000000E-02 0.  1.
   -5000001    1    1    2    0    0 -0.16974541630E+03 -0.28967864427E+03 -0.11469806467E+04  0.12209798636E+04  0.25000000000E+03 0.  0.
    5000001    1    1    2    0    0  0.16974541630E+03  0.28967864427E+03 -0.14996839911E+04  0.15570097291E+04  0.25000000000E+03 0.  0.
<mgrwt>
<rscale>  0 0.84403345E+03</rscale>
<asrwt>0</asrwt>
<pdfrwt beam="1">  1        2 0.41728101E+00 0.84403345E+03</pdfrwt>
<pdfrwt beam="2">  1       -2 0.10101922E-01 0.84403345E+03</pdfrwt>
<totfact> 0.18241801E+02</totfact>
</mgrwt>
</event>
<event>
 4    1  0.1714834E-005  0.7225802E+03  0.7818608E-02  0.9679378E-01
          2   -1    0    0  501    0  0.00000000000E+00  0.00000000000E+00  0.84545586151E+03  0.84545586151E+03  0.25500000000E-02 0.  1.
         -2   -1    0    0    0  501 -0.00000000000E+00 -0.00000000000E+00 -0.15439069611E+03  0.15439069613E+03  0.25500000000E-02 0. -1.
   -5000001    1    1    2    0    0  0.15937488384E+02 -0.25443504073E+03  0.42181701792E+03  0.55264888500E+03  0.25000000000E+03 0.  0.
    5000001    1    1    2    0    0 -0.15937488384E+02  0.25443504073E+03  0.26924814748E+03  0.44719767263E+03  0.25000000000E+03 0.  0.
<mgrwt>
<rscale>  0 0.72258015E+03</rscale>
<asrwt>0</asrwt>
<pdfrwt beam="1">  1        2 0.13007013E+00 0.72258015E+03</pdfrwt>
<pdfrwt beam="2">  1       -2 0.23752415E-01 0.72258015E+03</pdfrwt>
<totfact> 0.50557303E+02</totfact>
</mgrwt>
</event>
<event>
 4    1  0.1714834E-005  0.7908904E+03  0.7818608E-02  0.9573297E-01
         -2   -1    0    0    0  501 -0.00000000000E+00  0.00000000000E+00  0.56848753897E+02  0.56848753954E+02  0.25500000000E-02 0. -1.
          2   -1    0    0  501    0  0.00000000000E+00 -0.00000000000E+00 -0.27507534206E+04  0.27507534206E+04  0.25500000000E-02 0.  1.
   -5000001    1    1    2    0    0 -0.29497139283E+03  0.40120959530E+02 -0.16043914781E+04  0.16508148985E+04  0.25000000000E+03 0.  0.
    5000001    1    1    2    0    0  0.29497139283E+03 -0.40120959530E+02 -0.10895131885E+04  0.11567872760E+04  0.25000000000E+03 0.  0.
<mgrwt>
<rscale>  0 0.79089040E+03</rscale>
<asrwt>0</asrwt>
<pdfrwt beam="1">  1        2 0.42319273E+00 0.79089040E+03</pdfrwt>
<pdfrwt beam="2">  1       -2 0.87459643E-02 0.79089040E+03</pdfrwt>
<totfact> 0.21998916E+02</totfact>
</mgrwt>
</event>
<event>
 4    1  0.1714834E-005  0.5220869E+03  0.7818608E-02  0.1008169E+00
          2   -1    0    0  501    0  0.00000000000E+00  0.00000000000E+00  0.17381341822E+04  0.17381341822E+04  0.25500000000E-02 0.  1.
         -2   -1    0    0    0  501 -0.00000000000E+00 -0.00000000000E+00 -0.39205069619E+02  0.39205069702E+02  0.25500000000E-02 0. -1.
   -5000001    1    1    2    0    0 -0.50767083101E+02 -0.13249875908E+02  0.66642802450E+03  0.71370804099E+03  0.25000000000E+03 0.  0.
    5000001    1    1    2    0    0  0.50767083101E+02  0.13249875908E+02  0.10325010881E+04  0.10636312109E+04  0.25000000000E+03 0.  0.
<mgrwt>
<rscale>  0 0.52208686E+03</rscale>
<asrwt>0</asrwt>
<pdfrwt beam="1">  1        2 0.26740530E+00 0.52208686E+03</pdfrwt>
<pdfrwt beam="2">  1       -2 0.60315481E-02 0.52208686E+03</pdfrwt>
<totfact> 0.14771118E+03</totfact>
</mgrwt>
</event>
<event>
 4    1  0.1714834E-005  0.1226677E+04  0.7818608E-02  0.9089821E-01
          2   -1    0    0  501    0  0.00000000000E+00  0.00000000000E+00  0.32305981295E+04  0.32305981295E+04  0.25500000000E-02 0.  1.
         -2   -1    0    0    0  501 -0.00000000000E+00 -0.00000000000E+00 -0.11644412938E+03  0.11644412941E+03  0.25500000000E-02 0. -1.
   -5000001    1    1    2    0    0 -0.86079083427E+02 -0.52079977160E+03  0.10463057253E+04  0.11982894815E+04  0.25000000000E+03 0.  0.
    5000001    1    1    2    0    0  0.86079083427E+02  0.52079977160E+03  0.20678482748E+04  0.21487527774E+04  0.25000000000E+03 0.  0.
<mgrwt>
<rscale>  0 0.12266771E+04</rscale>
<asrwt>0</asrwt>
<pdfrwt beam="1">  1        2 0.49701510E+00 0.12266771E+04</pdfrwt>
<pdfrwt beam="2">  1       -2 0.17914481E-01 0.12266771E+04</pdfrwt>
<totfact> 0.32176636E+01</totfact>
</mgrwt>
</event>
<event>
 4    1  0.1714834E-005  0.1883118E+04  0.7818608E-02  0.8663306E-01
          2   -1    0    0  501    0  0.00000000000E+00  0.00000000000E+00  0.21039343739E+04  0.21039343739E+04  0.25500000000E-02 0.  1.
         -2   -1    0    0    0  501 -0.00000000000E+00 -0.00000000000E+00 -0.42136926826E+03  0.42136926827E+03  0.25500000000E-02 0. -1.
   -5000001    1    1    2    0    0 -0.24191979391E+03 -0.84077153103E+03  0.51662397107E+03  0.10463375562E+04  0.25000000000E+03 0.  0.
    5000001    1    1    2    0    0  0.24191979391E+03  0.84077153103E+03  0.11659411345E+04  0.14789660859E+04  0.25000000000E+03 0.  0.
<mgrwt>
<rscale>  0 0.18831179E+04</rscale>
<asrwt>0</asrwt>
<pdfrwt beam="1">  1        2 0.32368221E+00 0.18831179E+04</pdfrwt>
<pdfrwt beam="2">  1       -2 0.64826042E-01 0.18831179E+04</pdfrwt>
<totfact> 0.12039150E+01</totfact>
</mgrwt>
</event>
<event>
 4    1  0.1714834E-005  0.6529577E+03  0.7818608E-02  0.9801245E-01
          2   -1    0    0  501    0  0.00000000000E+00  0.00000000000E+00  0.47396733223E+03  0.47396733224E+03  0.25500000000E-02 0.  1.
         -2   -1    0    0    0  501 -0.00000000000E+00 -0.00000000000E+00 -0.22488565306E+03  0.22488565308E+03  0.25500000000E-02 0. -1.
   -5000001    1    1    2    0    0  0.90742715774E+02  0.77082198220E+02 -0.60568123733E+02  0.28345088351E+03  0.25000000000E+03 0.  0.
    5000001    1    1    2    0    0 -0.90742715774E+02 -0.77082198220E+02  0.30964980290E+03  0.41540210181E+03  0.25000000000E+03 0.  0.
<mgrwt>
<rscale>  0 0.65295774E+03</rscale>
<asrwt>0</asrwt>
<pdfrwt beam="1">  1        2 0.72918052E-01 0.65295774E+03</pdfrwt>
<pdfrwt beam="2">  1       -2 0.34597792E-01 0.65295774E+03</pdfrwt>
<totfact> 0.51679240E+02</totfact>
</mgrwt>
</event>
<event>
 4    1  0.1714834E-005  0.6788329E+03  0.7818608E-02  0.9754131E-01
          2   -1    0    0  501    0  0.00000000000E+00  0.00000000000E+00  0.56941839510E+03  0.56941839510E+03  0.25500000000E-02 0.  1.
         -2   -1    0    0    0  501 -0.00000000000E+00 -0.00000000000E+00 -0.20231789460E+03  0.20231789461E+03  0.25500000000E-02 0. -1.
   -5000001    1    1    2    0    0 -0.39635371177E+02 -0.99128684493E+02 -0.47503478519E+02  0.27596021309E+03  0.25000000000E+03 0.  0.
    5000001    1    1    2    0    0  0.39635371177E+02  0.99128684493E+02  0.41460397902E+03  0.49577607663E+03  0.25000000000E+03 0.  0.
<mgrwt>
<rscale>  0 0.67883291E+03</rscale>
<asrwt>0</asrwt>
<pdfrwt beam="1">  1        2 0.87602829E-01 0.67883291E+03</pdfrwt>
<pdfrwt beam="2">  1       -2 0.31125830E-01 0.67883291E+03</pdfrwt>
<totfact> 0.50872317E+02</totfact>
</mgrwt>
</event>
<event>
 4    1  0.1714834E-005  0.7960479E+03  0.7818608E-02  0.9565755E-01
          2   -1    0    0  501    0  0.00000000000E+00  0.00000000000E+00  0.12719784792E+04  0.12719784792E+04  0.25500000000E-02 0.  1.
         -2   -1    0    0    0  501 -0.00000000000E+00 -0.00000000000E+00 -0.12454853673E+03  0.12454853676E+03  0.25500000000E-02 0. -1.
   -5000001    1    1    2    0    0  0.10027311954E+03  0.24967451983E+03  0.84282524997E+03  0.91937286578E+03  0.25000000000E+03 0.  0.
    5000001    1    1    2    0    0 -0.10027311954E+03 -0.24967451983E+03  0.30460469253E+03  0.47715415022E+03  0.25000000000E+03 0.  0.
<mgrwt>
<rscale>  0 0.79604788E+03</rscale>
<asrwt>0</asrwt>
<pdfrwt beam="1">  1        2 0.19568900E+00 0.79604788E+03</pdfrwt>
<pdfrwt beam="2">  1       -2 0.19161313E-01 0.79604788E+03</pdfrwt>
<totfact> 0.39761294E+02</totfact>
</mgrwt>
</event>
<event>
 4    1  0.1714834E-005  0.1063485E+04  0.7818608E-02  0.9241531E-01
          2   -1    0    0  501    0  0.00000000000E+00  0.00000000000E+00  0.87674260453E+03  0.87674260453E+03  0.25500000000E-02 0.  1.
         -2   -1    0    0    0  501 -0.00000000000E+00 -0.00000000000E+00 -0.32250086979E+03  0.32250086980E+03  0.25500000000E-02 0. -1.
   -5000001    1    1    2    0    0 -0.35094206032E+03 -0.15394313772E+03  0.58261196007E+03  0.74080734025E+03  0.25000000000E+03 0.  0.
    5000001    1    1    2    0    0  0.35094206032E+03  0.15394313772E+03 -0.28370225338E+02  0.45843613409E+03  0.25000000000E+03 0.  0.
<mgrwt>
<rscale>  0 0.10634853E+04</rscale>
<asrwt>0</asrwt>
<pdfrwt beam="1">  1        2 0.13488348E+00 0.10634853E+04</pdfrwt>
<pdfrwt beam="2">  1       -2 0.49615519E-01 0.10634853E+04</pdfrwt>
<totfact> 0.11631569E+02</totfact>
</mgrwt>
</event>
<event>
 4    1  0.1714834E-005  0.7576587E+03  0.7818608E-02  0.9623411E-01
         -2   -1    0    0    0  501 -0.00000000000E+00  0.00000000000E+00  0.90952303496E+02  0.90952303532E+02  0.25500000000E-02 0. -1.
          2   -1    0    0  501    0  0.00000000000E+00 -0.00000000000E+00 -0.15778785020E+04  0.15778785020E+04  0.25500000000E-02 0.  1.
   -5000001    1    1    2    0    0 -0.97451634407E+02 -0.15763957679E+03 -0.12192720217E+04  0.12583605684E+04  0.25000000000E+03 0.  0.
    5000001    1    1    2    0    0  0.97451634407E+02  0.15763957679E+03 -0.26765417685E+03  0.41047023718E+03  0.25000000000E+03 0.  0.
<mgrwt>
<rscale>  0 0.75765872E+03</rscale>
<asrwt>0</asrwt>
<pdfrwt beam="1">  1        2 0.24275052E+00 0.75765872E+03</pdfrwt>
<pdfrwt beam="2">  1       -2 0.13992663E-01 0.75765872E+03</pdfrwt>
<totfact> 0.45814408E+02</totfact>
</mgrwt>
</event>
<event>
 4    1  0.1714834E-005  0.9753983E+03  0.7818608E-02  0.9335947E-01
         -2   -1    0    0    0  501 -0.00000000000E+00  0.00000000000E+00  0.18987986023E+03  0.18987986025E+03  0.25500000000E-02 0. -1.
          2   -1    0    0  501    0  0.00000000000E+00 -0.00000000000E+00 -0.12526364881E+04  0.12526364881E+04  0.25500000000E-02 0.  1.
   -5000001    1    1    2    0    0 -0.17948662610E+03 -0.33717764513E+03 -0.78515609881E+03  0.90822591508E+03  0.25000000000E+03 0.  0.
    5000001    1    1    2    0    0  0.17948662610E+03  0.33717764513E+03 -0.27760052902E+03  0.53429043323E+03  0.25000000000E+03 0.  0.
<mgrwt>
<rscale>  0 0.97539826E+03</rscale>
<asrwt>0</asrwt>
<pdfrwt beam="1">  1        2 0.19271330E+00 0.97539826E+03</pdfrwt>
<pdfrwt beam="2">  1       -2 0.29212287E-01 0.97539826E+03</pdfrwt>
<totfact> 0.18955527E+02</totfact>
</mgrwt>
</event>
<event>
 4    1  0.1714834E-005  0.7473036E+03  0.7818608E-02  0.9639590E-01
          2   -1    0    0  501    0  0.00000000000E+00  0.00000000000E+00  0.37157381762E+03  0.37157381763E+03  0.25500000000E-02 0.  1.
         -2   -1    0    0    0  501 -0.00000000000E+00 -0.00000000000E+00 -0.37574139925E+03  0.37574139926E+03  0.25500000000E-02 0. -1.
   -5000001    1    1    2    0    0 -0.23837610559E+03 -0.12658093610E+03 -0.67428246231E+02  0.37402201739E+03  0.25000000000E+03 0.  0.
    5000001    1    1    2    0    0  0.23837610559E+03  0.12658093610E+03  0.63260664599E+02  0.37329319949E+03  0.25000000000E+03 0.  0.
<mgrwt>
<rscale>  0 0.74730360E+03</rscale>
<asrwt>0</asrwt>
<pdfrwt beam="1">  1        2 0.57165203E-01 0.74730360E+03</pdfrwt>
<pdfrwt beam="2">  1       -2 0.57806369E-01 0.74730360E+03</pdfrwt>
<totfact> 0.24423219E+02</totfact>
</mgrwt>
</event>
<event>
 4    1  0.1714834E-005  0.5291795E+03  0.7818608E-02  0.1006431E+00
         -2   -1    0    0    0  501 -0.00000000000E+00  0.00000000000E+00  0.65887063711E+02  0.65887063761E+02  0.25500000000E-02 0. -1.
          2   -1    0    0  501    0  0.00000000000E+00 -0.00000000000E+00 -0.10625415732E+04  0.10625415732E+04  0.25500000000E-02 0.  1.
   -5000001    1    1    2    0    0 -0.73302885855E+02 -0.41599159646E+02 -0.54118508063E+03  0.60206735060E+03  0.25000000000E+03 0.  0.
    5000001    1    1    2    0    0  0.73302885855E+02  0.41599159646E+02 -0.45546942883E+03  0.52636128634E+03  0.25000000000E+03 0.  0.
<mgrwt>
<rscale>  0 0.52917953E+03</rscale>
<asrwt>0</asrwt>
<pdfrwt beam="1">  1        2 0.16346792E+00 0.52917953E+03</pdfrwt>
<pdfrwt beam="2">  1       -2 0.10136472E-01 0.52917953E+03</pdfrwt>
<totfact> 0.15565590E+03</totfact>
</mgrwt>
</event>
<event>
 4    1  0.1714834E-005  0.6276703E+03  0.7818608E-02  0.9849606E-01
         -2   -1    0    0    0  501 -0.00000000000E+00  0.00000000000E+00  0.11938617612E+03  0.11938617614E+03  0.25500000000E-02 0. -1.
          2   -1    0    0  501    0  0.00000000000E+00 -0.00000000000E+00 -0.82499096559E+03  0.82499096560E+03  0.25500000000E-02 0.  1.
   -5000001    1    1    2    0    0  0.65888380695E+02 -0.17688609566E+03 -0.38145051411E+03  0.49359342000E+03  0.25000000000E+03 0.  0.
    5000001    1    1    2    0    0 -0.65888380695E+02  0.17688609566E+03 -0.32415427536E+03  0.45078372174E+03  0.25000000000E+03 0.  0.
<mgrwt>
<rscale>  0 0.62767035E+03</rscale>
<asrwt>0</asrwt>
<pdfrwt beam="1">  1        2 0.12692168E+00 0.62767035E+03</pdfrwt>
<pdfrwt beam="2">  1       -2 0.18367105E-01 0.62767035E+03</pdfrwt>
<totfact> 0.82329025E+02</totfact>
</mgrwt>
</event>
<event>
 4    1  0.1714834E-005  0.1076800E+04  0.7818608E-02  0.9228104E-01
         -2   -1    0    0    0  501 -0.00000000000E+00  0.00000000000E+00  0.54925066050E+03  0.54925066051E+03  0.25500000000E-02 0. -1.
          2   -1    0    0  501    0  0.00000000000E+00 -0.00000000000E+00 -0.52776371072E+03  0.52776371072E+03  0.25500000000E-02 0.  1.
   -5000001    1    1    2    0    0 -0.26584968782E+03  0.39470561670E+03  0.40849073760E+02  0.53910780666E+03  0.25000000000E+03 0.  0.
    5000001    1    1    2    0    0  0.26584968782E+03 -0.39470561670E+03 -0.19362123973E+02  0.53790656458E+03  0.25000000000E+03 0.  0.
<mgrwt>
<rscale>  0 0.10768000E+04</rscale>
<asrwt>0</asrwt>
<pdfrwt beam="1">  1        2 0.81194417E-01 0.10768000E+04</pdfrwt>
<pdfrwt beam="2">  1       -2 0.84500101E-01 0.10768000E+04</pdfrwt>
<totfact> 0.70223633E+01</totfact>
</mgrwt>
</event>
<event>
 4    1  0.1714834E-005  0.9179869E+03  0.7818608E-02  0.9403372E-01
          2   -1    0    0  501    0  0.00000000000E+00  0.00000000000E+00  0.16692296693E+04  0.16692296693E+04  0.25500000000E-02 0.  1.
         -2   -1    0    0    0  501 -0.00000000000E+00 -0.00000000000E+00 -0.12621090120E+03  0.12621090123E+03  0.25500000000E-02 0. -1.
   -5000001    1    1    2    0    0  0.19556821374E+02  0.38403724627E+03  0.73718972156E+03  0.86822563966E+03  0.25000000000E+03 0.  0.
    5000001    1    1    2    0    0 -0.19556821374E+02 -0.38403724627E+03  0.80582904655E+03  0.92721493088E+03  0.25000000000E+03 0.  0.
<mgrwt>
<rscale>  0 0.91798689E+03</rscale>
<asrwt>0</asrwt>
<pdfrwt beam="1">  1        2 0.25680456E+00 0.91798689E+03</pdfrwt>
<pdfrwt beam="2">  1       -2 0.19417062E-01 0.91798689E+03</pdfrwt>
<totfact> 0.23045165E+02</totfact>
</mgrwt>
</event>
<event>
 4    1  0.1714834E-005  0.6708204E+03  0.7818608E-02  0.9768477E-01
         -2   -1    0    0    0  501 -0.00000000000E+00  0.00000000000E+00  0.13757332628E+03  0.13757332630E+03  0.25500000000E-02 0. -1.
          2   -1    0    0  501    0  0.00000000000E+00 -0.00000000000E+00 -0.81774565757E+03  0.81774565757E+03  0.25500000000E-02 0.  1.
   -5000001    1    1    2    0    0  0.11343295420E+03 -0.84960389972E+02 -0.93774827732E+02  0.30228963144E+03  0.25000000000E+03 0.  0.
    5000001    1    1    2    0    0 -0.11343295420E+03  0.84960389972E+02 -0.58639750355E+03  0.65302935243E+03  0.25000000000E+03 0.  0.
<mgrwt>
<rscale>  0 0.67082036E+03</rscale>
<asrwt>0</asrwt>
<pdfrwt beam="1">  1        2 0.12580702E+00 0.67082036E+03</pdfrwt>
<pdfrwt beam="2">  1       -2 0.21165128E-01 0.67082036E+03</pdfrwt>
<totfact> 0.64987883E+02</totfact>
</mgrwt>
</event>
<event>
 4    1  0.1714834E-005  0.7523320E+03  0.7818608E-02  0.9631699E-01
          2   -1    0    0  501    0  0.00000000000E+00  0.00000000000E+00  0.14413184916E+04  0.14413184916E+04  0.25500000000E-02 0.  1.
         -2   -1    0    0    0  501 -0.00000000000E+00 -0.00000000000E+00 -0.98174589576E+02  0.98174589609E+02  0.25500000000E-02 0. -1.
   -5000001    1    1    2    0    0 -0.15086782260E+03  0.24581945795E+02  0.11542350942E+04  0.11908501268E+04  0.25000000000E+03 0.  0.
    5000001    1    1    2    0    0  0.15086782260E+03 -0.24581945795E+02  0.18890880785E+03  0.34864295438E+03  0.25000000000E+03 0.  0.
<mgrwt>
<rscale>  0 0.75233198E+03</rscale>
<asrwt>0</asrwt>
<pdfrwt beam="1">  1        2 0.22174130E+00 0.75233198E+03</pdfrwt>
<pdfrwt beam="2">  1       -2 0.15103784E-01 0.75233198E+03</pdfrwt>
<totfact> 0.47993131E+02</totfact>
</mgrwt>
</event>
<event>
 4    1  0.1714834E-005  0.7972433E+03  0.7818608E-02  0.9564016E-01
         -2   -1    0    0    0  501 -0.00000000000E+00  0.00000000000E+00  0.41954405155E+02  0.41954405232E+02  0.25500000000E-02 0. -1.
          2   -1    0    0  501    0  0.00000000000E+00 -0.00000000000E+00 -0.37874261758E+04  0.37874261758E+04  0.25500000000E-02 0.  1.
   -5000001    1    1    2    0    0  0.25316843033E+03  0.14967640755E+03 -0.23507025605E+04  0.23821838319E+04  0.25000000000E+03 0.  0.
    5000001    1    1    2    0    0 -0.25316843033E+03 -0.14967640755E+03 -0.13947692102E+04  0.14471967491E+04  0.25000000000E+03 0.  0.
<mgrwt>
<rscale>  0 0.79724328E+03</rscale>
<asrwt>0</asrwt>
<pdfrwt beam="1">  1        2 0.58268068E+00 0.79724328E+03</pdfrwt>
<pdfrwt beam="2">  1       -2 0.64545269E-02 0.79724328E+03</pdfrwt>
<totfact> 0.75225321E+01</totfact>
</mgrwt>
</event>
<event>
 4    1  0.1714834E-005  0.6236193E+03  0.7818608E-02  0.9857580E-01
         -2   -1    0    0    0  501 -0.00000000000E+00  0.00000000000E+00  0.27979579502E+02  0.27979579618E+02  0.25500000000E-02 0. -1.
          2   -1    0    0  501    0  0.00000000000E+00 -0.00000000000E+00 -0.34748648757E+04  0.34748648757E+04  0.25500000000E-02 0.  1.
   -5000001    1    1    2    0    0 -0.10081136165E+03 -0.14959097221E+03 -0.19859938258E+04  0.20097790590E+04  0.25000000000E+03 0.  0.
    5000001    1    1    2    0    0  0.10081136165E+03  0.14959097221E+03 -0.14608914703E+04  0.14930653963E+04  0.25000000000E+03 0.  0.
<mgrwt>
<rscale>  0 0.62361930E+03</rscale>
<asrwt>0</asrwt>
<pdfrwt beam="1">  1        2 0.53459425E+00 0.62361930E+03</pdfrwt>
<pdfrwt beam="2">  1       -2 0.43045535E-02 0.62361930E+03</pdfrwt>
<totfact> 0.24102988E+02</totfact>
</mgrwt>
</event>
<event>
 4    1  0.1714834E-005  0.1263364E+04  0.7818608E-02  0.9059133E-01
          2   -1    0    0  501    0  0.00000000000E+00  0.00000000000E+00  0.13341293063E+04  0.13341293063E+04  0.25500000000E-02 0.  1.
         -2   -1    0    0    0  501 -0.00000000000E+00 -0.00000000000E+00 -0.29908790803E+03  0.29908790804E+03  0.25500000000E-02 0. -1.
   -5000001    1    1    2    0    0  0.40696033335E+03 -0.40860842248E+03  0.43633017477E+03  0.76515461003E+03  0.25000000000E+03 0.  0.
    5000001    1    1    2    0    0 -0.40696033335E+03  0.40860842248E+03  0.59871122345E+03  0.86806260427E+03  0.25000000000E+03 0.  0.
<mgrwt>
<rscale>  0 0.12633637E+04</rscale>
<asrwt>0</asrwt>
<pdfrwt beam="1">  1        2 0.20525066E+00 0.12633637E+04</pdfrwt>
<pdfrwt beam="2">  1       -2 0.46013525E-01 0.12633637E+04</pdfrwt>
<totfact> 0.69468665E+01</totfact>
</mgrwt>
</event>
<event>
 4    1  0.1714834E-005  0.6747401E+03  0.7818608E-02  0.9761433E-01
         -2   -1    0    0    0  501 -0.00000000000E+00  0.00000000000E+00  0.99117282819E+02  0.99117282852E+02  0.25500000000E-02 0. -1.
          2   -1    0    0  501    0  0.00000000000E+00 -0.00000000000E+00 -0.11483218543E+04  0.11483218543E+04  0.25500000000E-02 0.  1.
   -5000001    1    1    2    0    0 -0.20365164515E+03  0.14132990206E+01 -0.34118649584E+03  0.46945097181E+03  0.25000000000E+03 0.  0.
    5000001    1    1    2    0    0  0.20365164515E+03 -0.14132990206E+01 -0.70801807565E+03  0.77798816535E+03  0.25000000000E+03 0.  0.
<mgrwt>
<rscale>  0 0.67474007E+03</rscale>
<asrwt>0</asrwt>
<pdfrwt beam="1">  1        2 0.17666489E+00 0.67474007E+03</pdfrwt>
<pdfrwt beam="2">  1       -2 0.15248814E-01 0.67474007E+03</pdfrwt>
<totfact> 0.69985899E+02</totfact>
</mgrwt>
</event>
<event>
 4    1  0.1714834E-005  0.5842335E+03  0.7818608E-02  0.9938667E-01
          2   -1    0    0  501    0  0.00000000000E+00  0.00000000000E+00  0.13366263821E+04  0.13366263821E+04  0.25500000000E-02 0.  1.
         -2   -1    0    0    0  501 -0.00000000000E+00 -0.00000000000E+00 -0.63841470650E+02  0.63841470701E+02  0.25500000000E-02 0. -1.
   -5000001    1    1    2    0    0  0.11929672092E+03 -0.92719097249E+02  0.63180943181E+03  0.69606874427E+03  0.25000000000E+03 0.  0.
    5000001    1    1    2    0    0 -0.11929672092E+03  0.92719097249E+02  0.64097547968E+03  0.70439910858E+03  0.25000000000E+03 0.  0.
<mgrwt>
<rscale>  0 0.58423349E+03</rscale>
<asrwt>0</asrwt>
<pdfrwt beam="1">  1        2 0.20563481E+00 0.58423349E+03</pdfrwt>
<pdfrwt beam="2">  1       -2 0.98217655E-02 0.58423349E+03</pdfrwt>
<totfact> 0.11291332E+03</totfact>
</mgrwt>
</event>
<event>
 4    1  0.1714834E-005  0.5674912E+03  0.7818608E-02  0.9975246E-01
         -2   -1    0    0    0  501 -0.00000000000E+00  0.00000000000E+00  0.22989153050E+03  0.22989153052E+03  0.25500000000E-02 0. -1.
          2   -1    0    0  501    0  0.00000000000E+00 -0.00000000000E+00 -0.35021541462E+03  0.35021541463E+03  0.25500000000E-02 0.  1.
   -5000001    1    1    2    0    0  0.86911553813E+02  0.96204050713E+02 -0.24710717356E+02  0.28270029556E+03  0.25000000000E+03 0.  0.
    5000001    1    1    2    0    0 -0.86911553813E+02 -0.96204050713E+02 -0.95613166762E+02  0.29740664959E+03  0.25000000000E+03 0.  0.
<mgrwt>
<rscale>  0 0.56749117E+03</rscale>
<asrwt>0</asrwt>
<pdfrwt beam="1">  1        2 0.53879294E-01 0.56749117E+03</pdfrwt>
<pdfrwt beam="2">  1       -2 0.35367928E-01 0.56749117E+03</pdfrwt>
<totfact> 0.69735950E+02</totfact>
</mgrwt>
</event>
<event>
 4    1  0.1714834E-005  0.6587758E+03  0.7818608E-02  0.9790450E-01
          2   -1    0    0  501    0  0.00000000000E+00  0.00000000000E+00  0.69662180151E+03  0.69662180151E+03  0.25500000000E-02 0.  1.
         -2   -1    0    0    0  501 -0.00000000000E+00 -0.00000000000E+00 -0.15574647462E+03  0.15574647464E+03  0.25500000000E-02 0. -1.
   -5000001    1    1    2    0    0 -0.97789200386E+02 -0.10862810885E+03  0.67364027105E+02  0.29732256203E+03  0.25000000000E+03 0.  0.
    5000001    1    1    2    0    0  0.97789200386E+02  0.10862810885E+03  0.47351129978E+03  0.55504571412E+03  0.25000000000E+03 0.  0.
<mgrwt>
<rscale>  0 0.65877580E+03</rscale>
<asrwt>0</asrwt>
<pdfrwt beam="1">  1        2 0.10717259E+00 0.65877580E+03</pdfrwt>
<pdfrwt beam="2">  1       -2 0.23960996E-01 0.65877580E+03</pdfrwt>
<totfact> 0.64166263E+02</totfact>
</mgrwt>
</event>
<event>
 4    1  0.1714834E-005  0.8867341E+03  0.7818608E-02  0.9442318E-01
         -2   -1    0    0    0  501 -0.00000000000E+00  0.00000000000E+00  0.10444135664E+03  0.10444135667E+03  0.25500000000E-02 0. -1.
          2   -1    0    0  501    0  0.00000000000E+00 -0.00000000000E+00 -0.18821502804E+04  0.18821502804E+04  0.25500000000E-02 0.  1.
   -5000001    1    1    2    0    0  0.14745518972E+03  0.32034330294E+03 -0.11096333587E+04  0.11908606365E+04  0.25000000000E+03 0.  0.
    5000001    1    1    2    0    0 -0.14745518972E+03 -0.32034330294E+03 -0.66807556504E+03  0.79573100060E+03  0.25000000000E+03 0.  0.
<mgrwt>
<rscale>  0 0.88673407E+03</rscale>
<asrwt>0</asrwt>
<pdfrwt beam="1">  1        2 0.28956156E+00 0.88673407E+03</pdfrwt>
<pdfrwt beam="2">  1       -2 0.16067902E-01 0.88673407E+03</pdfrwt>
<totfact> 0.24470376E+02</totfact>
</mgrwt>
</event>
<event>
 4    1  0.1714834E-005  0.9844984E+03  0.7818608E-02  0.9325712E-01
          2   -1    0    0  501    0  0.00000000000E+00  0.00000000000E+00  0.22713726408E+04  0.22713726408E+04  0.25500000000E-02 0.  1.
         -2   -1    0    0    0  501 -0.00000000000E+00 -0.00000000000E+00 -0.10667967144E+03  0.10667967147E+03  0.25500000000E-02 0. -1.
   -5000001    1    1    2    0    0 -0.26298889002E+03  0.20946987061E+03  0.17065011220E+04  0.17571815110E+04  0.25000000000E+03 0.  0.
    5000001    1    1    2    0    0  0.26298889002E+03 -0.20946987061E+03  0.45819184732E+03  0.62087080131E+03  0.25000000000E+03 0.  0.
<mgrwt>
<rscale>  0 0.98449842E+03</rscale>
<asrwt>0</asrwt>
<pdfrwt beam="1">  1        2 0.34944192E+00 0.98449842E+03</pdfrwt>
<pdfrwt beam="2">  1       -2 0.16412259E-01 0.98449842E+03</pdfrwt>
<totfact> 0.14285782E+02</totfact>
</mgrwt>
</event>
<event>
 4    1  0.1714834E-005  0.6729698E+03  0.7818608E-02  0.9764608E-01
         -2   -1    0    0    0  501 -0.00000000000E+00  0.00000000000E+00  0.76632899954E+02  0.76632899996E+02  0.25500000000E-02 0. -1.
          2   -1    0    0  501    0  0.00000000000E+00 -0.00000000000E+00 -0.14774606953E+04  0.14774606953E+04  0.25500000000E-02 0.  1.
   -5000001    1    1    2    0    0 -0.21554848865E+02 -0.19725276225E+03 -0.45440138455E+03  0.55529621105E+03  0.25000000000E+03 0.  0.
    5000001    1    1    2    0    0  0.21554848865E+02  0.19725276225E+03 -0.94642641075E+03  0.99879738421E+03  0.25000000000E+03 0.  0.
<mgrwt>
<rscale>  0 0.67296983E+03</rscale>
<asrwt>0</asrwt>
<pdfrwt beam="1">  1        2 0.22730162E+00 0.67296983E+03</pdfrwt>
<pdfrwt beam="2">  1       -2 0.11789678E-01 0.67296983E+03</pdfrwt>
<totfact> 0.69574083E+02</totfact>
</mgrwt>
</event>
<event>
 4    1  0.1714834E-005  0.9755986E+03  0.7818608E-02  0.9335720E-01
          2   -1    0    0  501    0  0.00000000000E+00  0.00000000000E+00  0.17227602500E+04  0.17227602500E+04  0.25500000000E-02 0.  1.
         -2   -1    0    0    0  501 -0.00000000000E+00 -0.00000000000E+00 -0.13812030041E+03  0.13812030044E+03  0.25500000000E-02 0. -1.
   -5000001    1    1    2    0    0 -0.24230157378E+03  0.32056063794E+03  0.56679990912E+03  0.73839780080E+03  0.25000000000E+03 0.  0.
    5000001    1    1    2    0    0  0.24230157378E+03 -0.32056063794E+03  0.10178400405E+04  0.11224827497E+04  0.25000000000E+03 0.  0.
<mgrwt>
<rscale>  0 0.97559861E+03</rscale>
<asrwt>0</asrwt>
<pdfrwt beam="1">  1        2 0.26504002E+00 0.97559861E+03</pdfrwt>
<pdfrwt beam="2">  1       -2 0.21249278E-01 0.97559861E+03</pdfrwt>
<totfact> 0.18302179E+02</totfact>
</mgrwt>
</event>
<event>
 4    1  0.1714834E-005  0.9735437E+03  0.7818608E-02  0.9338047E-01
         -2   -1    0    0    0  501 -0.00000000000E+00  0.00000000000E+00  0.22914095721E+03  0.22914095722E+03  0.25500000000E-02 0. -1.
          2   -1    0    0  501    0  0.00000000000E+00 -0.00000000000E+00 -0.10340658135E+04  0.10340658135E+04  0.25500000000E-02 0.  1.
   -5000001    1    1    2    0    0 -0.24611814188E+03 -0.30549972516E+03 -0.21649075767E+03  0.51310083804E+03  0.25000000000E+03 0.  0.
    5000001    1    1    2    0    0  0.24611814188E+03  0.30549972516E+03 -0.58843409866E+03  0.75010593272E+03  0.25000000000E+03 0.  0.
<mgrwt>
<rscale>  0 0.97354369E+03</rscale>
<asrwt>0</asrwt>
<pdfrwt beam="1">  1        2 0.15908705E+00 0.97354369E+03</pdfrwt>
<pdfrwt beam="2">  1       -2 0.35252455E-01 0.97354369E+03</pdfrwt>
<totfact> 0.18073371E+02</totfact>
</mgrwt>
</event>
<event>
 4    1  0.1714834E-005  0.1131700E+04  0.7818608E-02  0.9174834E-01
          2   -1    0    0  501    0  0.00000000000E+00  0.00000000000E+00  0.36540516212E+04  0.36540516212E+04  0.25500000000E-02 0.  1.
         -2   -1    0    0    0  501 -0.00000000000E+00 -0.00000000000E+00 -0.87624974891E+02  0.87624974928E+02  0.25500000000E-02 0. -1.
   -5000001    1    1    2    0    0  0.25599779282E+03 -0.43029125668E+03  0.15065783250E+04  0.16071601304E+04  0.25000000000E+03 0.  0.
    5000001    1    1    2    0    0 -0.25599779282E+03  0.43029125668E+03  0.20598483213E+04  0.21345164657E+04  0.25000000000E+03 0.  0.
<mgrwt>
<rscale>  0 0.11316999E+04</rscale>
<asrwt>0</asrwt>
<pdfrwt beam="1">  1        2 0.56216192E+00 0.11316999E+04</pdfrwt>
<pdfrwt beam="2">  1       -2 0.13480762E-01 0.11316999E+04</pdfrwt>
<totfact> 0.27195458E+01</totfact>
</mgrwt>
</event>
<event>
 4    1  0.1714834E-005  0.8791842E+03  0.7818608E-02  0.9451983E-01
          2   -1    0    0  501    0  0.00000000000E+00  0.00000000000E+00  0.20818995125E+04  0.20818995125E+04  0.25500000000E-02 0.  1.
         -2   -1    0    0    0  501 -0.00000000000E+00 -0.00000000000E+00 -0.92819662727E+02  0.92819662762E+02  0.25500000000E-02 0. -1.
   -5000001    1    1    2    0    0  0.12506098622E+03  0.28658979391E+03  0.54541756574E+03  0.67657540693E+03  0.25000000000E+03 0.  0.
    5000001    1    1    2    0    0 -0.12506098622E+03 -0.28658979391E+03  0.14436622840E+04  0.14981437683E+04  0.25000000000E+03 0.  0.
<mgrwt>
<rscale>  0 0.87918419E+03</rscale>
<asrwt>0</asrwt>
<pdfrwt beam="1">  1        2 0.32029219E+00 0.87918419E+03</pdfrwt>
<pdfrwt beam="2">  1       -2 0.14279950E-01 0.87918419E+03</pdfrwt>
<totfact> 0.23242530E+02</totfact>
</mgrwt>
</event>
<event>
 4    1  0.1714834E-005  0.9366659E+03  0.7818608E-02  0.9380873E-01
          2   -1    0    0  501    0  0.00000000000E+00  0.00000000000E+00  0.11580068584E+04  0.11580068584E+04  0.25500000000E-02 0.  1.
         -2   -1    0    0    0  501 -0.00000000000E+00 -0.00000000000E+00 -0.18940798133E+03  0.18940798134E+03  0.25500000000E-02 0. -1.
   -5000001    1    1    2    0    0  0.38267980970E+03 -0.90725068879E+02  0.55116932712E+03  0.72177732164E+03  0.25000000000E+03 0.  0.
    5000001    1    1    2    0    0 -0.38267980970E+03  0.90725068879E+02  0.41742954994E+03  0.62563751809E+03  0.25000000000E+03 0.  0.
<mgrwt>
<rscale>  0 0.93666588E+03</rscale>
<asrwt>0</asrwt>
<pdfrwt beam="1">  1        2 0.17815490E+00 0.93666588E+03</pdfrwt>
<pdfrwt beam="2">  1       -2 0.29139689E-01 0.93666588E+03</pdfrwt>
<totfact> 0.21727597E+02</totfact>
</mgrwt>
</event>
<event>
 4    1  0.1714834E-005  0.9084609E+03  0.7818608E-02  0.9415066E-01
         -2   -1    0    0    0  501 -0.00000000000E+00  0.00000000000E+00  0.65109360370E+03  0.65109360370E+03  0.25500000000E-02 0. -1.
          2   -1    0    0  501    0  0.00000000000E+00 -0.00000000000E+00 -0.31689040972E+03  0.31689040973E+03  0.25500000000E-02 0.  1.
   -5000001    1    1    2    0    0 -0.33781494561E+03  0.11168614629E+03  0.27227545279E+02  0.43569952028E+03  0.25000000000E+03 0.  0.
    5000001    1    1    2    0    0  0.33781494561E+03 -0.11168614629E+03  0.30697564870E+03  0.53228449315E+03  0.25000000000E+03 0.  0.
<mgrwt>
<rscale>  0 0.90846094E+03</rscale>
<asrwt>0</asrwt>
<pdfrwt beam="1">  1        2 0.48752371E-01 0.90846094E+03</pdfrwt>
<pdfrwt beam="2">  1       -2 0.10016825E+00 0.90846094E+03</pdfrwt>
<totfact> 0.85224626E+01</totfact>
</mgrwt>
</event>
<event>
 4    1  0.1714834E-005  0.5036347E+03  0.7818608E-02  0.1012835E+00
          2   -1    0    0  501    0  0.00000000000E+00  0.00000000000E+00  0.47436425614E+03  0.47436425614E+03  0.25500000000E-02 0.  1.
         -2   -1    0    0    0  501 -0.00000000000E+00 -0.00000000000E+00 -0.13367783791E+03  0.13367783793E+03  0.25500000000E-02 0. -1.
   -5000001    1    1    2    0    0  0.92447426960E+01 -0.25515233705E+02  0.15434942450E+03  0.29505971813E+03  0.25000000000E+03 0.  0.
    5000001    1    1    2    0    0 -0.92447426960E+01  0.25515233705E+02  0.18633699373E+03  0.31298237594E+03  0.25000000000E+03 0.  0.
<mgrwt>
<rscale>  0 0.50363474E+03</rscale>
<asrwt>0</asrwt>
<pdfrwt beam="1">  1        2 0.72979116E-01 0.50363474E+03</pdfrwt>
<pdfrwt beam="2">  1       -2 0.20565821E-01 0.50363474E+03</pdfrwt>
<totfact> 0.13295699E+03</totfact>
</mgrwt>
</event>
<event>
 4    1  0.1714834E-005  0.7583552E+03  0.7818608E-02  0.9622333E-01
         -2   -1    0    0    0  501 -0.00000000000E+00  0.00000000000E+00  0.14156031735E+03  0.14156031738E+03  0.25500000000E-02 0. -1.
          2   -1    0    0  501    0  0.00000000000E+00 -0.00000000000E+00 -0.10156494088E+04  0.10156494088E+04  0.25500000000E-02 0.  1.
   -5000001    1    1    2    0    0 -0.77944007815E+02 -0.26105805782E+03 -0.56516116292E+03  0.67537672301E+03  0.25000000000E+03 0.  0.
    5000001    1    1    2    0    0  0.77944007815E+02  0.26105805782E+03 -0.30892792848E+03  0.48183300313E+03  0.25000000000E+03 0.  0.
<mgrwt>
<rscale>  0 0.75835520E+03</rscale>
<asrwt>0</asrwt>
<pdfrwt beam="1">  1        2 0.15625375E+00 0.75835520E+03</pdfrwt>
<pdfrwt beam="2">  1       -2 0.21778511E-01 0.75835520E+03</pdfrwt>
<totfact> 0.45452671E+02</totfact>
</mgrwt>
</event>
<event>
 4    1  0.1714834E-005  0.9324974E+03  0.7818608E-02  0.9385846E-01
          2   -1    0    0  501    0  0.00000000000E+00  0.00000000000E+00  0.19996751163E+04  0.19996751163E+04  0.25500000000E-02 0.  1.
         -2   -1    0    0    0  501 -0.00000000000E+00 -0.00000000000E+00 -0.10871159485E+03  0.10871159488E+03  0.25500000000E-02 0. -1.
   -5000001    1    1    2    0    0 -0.88494595276E+01  0.37832082913E+03  0.11898687640E+04  0.12733784348E+04  0.25000000000E+03 0.  0.
    5000001    1    1    2    0    0  0.88494595276E+01 -0.37832082913E+03  0.70109475742E+03  0.83500827634E+03  0.25000000000E+03 0.  0.
<mgrwt>
<rscale>  0 0.93249744E+03</rscale>
<asrwt>0</asrwt>
<pdfrwt beam="1">  1        2 0.30764229E+00 0.93249744E+03</pdfrwt>
<pdfrwt beam="2">  1       -2 0.16724863E-01 0.93249744E+03</pdfrwt>
<totfact> 0.19631084E+02</totfact>
</mgrwt>
</event>
<event>
 4    1  0.1714834E-005  0.6242712E+03  0.7818608E-02  0.9856292E-01
         -2   -1    0    0    0  501 -0.00000000000E+00  0.00000000000E+00  0.37633371542E+02  0.37633371628E+02  0.25500000000E-02 0. -1.
          2   -1    0    0  501    0  0.00000000000E+00 -0.00000000000E+00 -0.25888890341E+04  0.25888890341E+04  0.25500000000E-02 0.  1.
   -5000001    1    1    2    0    0 -0.15362786159E+03  0.74164985923E+02 -0.95447068033E+03  0.10013072678E+04  0.25000000000E+03 0.  0.
    5000001    1    1    2    0    0  0.15362786159E+03 -0.74164985923E+02 -0.15967849822E+04  0.16252151379E+04  0.25000000000E+03 0.  0.
<mgrwt>
<rscale>  0 0.62427117E+03</rscale>
<asrwt>0</asrwt>
<pdfrwt beam="1">  1        2 0.39829048E+00 0.62427117E+03</pdfrwt>
<pdfrwt beam="2">  1       -2 0.57897515E-02 0.62427117E+03</pdfrwt>
<totfact> 0.53397619E+02</totfact>
</mgrwt>
</event>
<event>
 4    1  0.1714834E-005  0.6066791E+03  0.7818608E-02  0.9891645E-01
          2   -1    0    0  501    0  0.00000000000E+00  0.00000000000E+00  0.26625195097E+04  0.26625195097E+04  0.25500000000E-02 0.  1.
         -2   -1    0    0    0  501 -0.00000000000E+00 -0.00000000000E+00 -0.34559323674E+02  0.34559323768E+02  0.25500000000E-02 0. -1.
   -5000001    1    1    2    0    0 -0.60471803377E+02  0.15391282784E+03  0.15210190147E+04  0.15502725053E+04  0.25000000000E+03 0.  0.
    5000001    1    1    2    0    0  0.60471803377E+02 -0.15391282784E+03  0.11069411713E+04  0.11468063282E+04  0.25000000000E+03 0.  0.
<mgrwt>
<rscale>  0 0.60667907E+03</rscale>
<asrwt>0</asrwt>
<pdfrwt beam="1">  1        2 0.40961829E+00 0.60667907E+03</pdfrwt>
<pdfrwt beam="2">  1       -2 0.53168202E-02 0.60667907E+03</pdfrwt>
<totfact> 0.55440433E+02</totfact>
</mgrwt>
</event>
<event>
 4    1  0.1714834E-005  0.6315916E+03  0.7818608E-02  0.9841948E-01
          2   -1    0    0  501    0  0.00000000000E+00  0.00000000000E+00  0.85466904948E+02  0.85466904986E+02  0.25500000000E-02 0.  1.
         -2   -1    0    0    0  501 -0.00000000000E+00 -0.00000000000E+00 -0.11668493222E+04  0.11668493222E+04  0.25500000000E-02 0. -1.
   -5000001    1    1    2    0    0  0.18706490512E+03  0.25387439897E+02 -0.46164758929E+03  0.55790348406E+03  0.25000000000E+03 0.  0.
    5000001    1    1    2    0    0 -0.18706490512E+03 -0.25387439897E+02 -0.61973482799E+03  0.69441274315E+03  0.25000000000E+03 0.  0.
<mgrwt>
<rscale>  0 0.63159164E+03</rscale>
<asrwt>0</asrwt>
<pdfrwt beam="1">  1        2 0.13148755E-01 0.63159164E+03</pdfrwt>
<pdfrwt beam="2">  1       -2 0.17951527E+00 0.63159164E+03</pdfrwt>
<totfact> 0.87862226E+01</totfact>
</mgrwt>
</event>
<event>
 4    1  0.1714834E-005  0.1679517E+04  0.7818608E-02  0.8773133E-01
         -2   -1    0    0    0  501 -0.00000000000E+00  0.00000000000E+00  0.83642460982E+03  0.83642460983E+03  0.25500000000E-02 0. -1.
          2   -1    0    0  501    0  0.00000000000E+00 -0.00000000000E+00 -0.84310581923E+03  0.84310581924E+03  0.25500000000E-02 0.  1.
   -5000001    1    1    2    0    0  0.44439303551E+03 -0.54581453092E+03  0.38045376038E+03  0.83823847201E+03  0.25000000000E+03 0.  0.
    5000001    1    1    2    0    0 -0.44439303551E+03  0.54581453092E+03 -0.38713496979E+03  0.84129195705E+03  0.25000000000E+03 0.  0.
<mgrwt>
<rscale>  0 0.16795171E+04</rscale>
<asrwt>0</asrwt>
<pdfrwt beam="1">  1        2 0.12970859E+00 0.16795171E+04</pdfrwt>
<pdfrwt beam="2">  1       -2 0.12868071E+00 0.16795171E+04</pdfrwt>
<totfact> 0.13629968E+01</totfact>
</mgrwt>
</event>
<event>
 4    1  0.1714834E-005  0.8710255E+03  0.7818608E-02  0.9462544E-01
          2   -1    0    0  501    0  0.00000000000E+00  0.00000000000E+00  0.31605970902E+04  0.31605970902E+04  0.25500000000E-02 0.  1.
         -2   -1    0    0    0  501 -0.00000000000E+00 -0.00000000000E+00 -0.60011245257E+02  0.60011245311E+02  0.25500000000E-02 0. -1.
   -5000001    1    1    2    0    0  0.13179752174E+03  0.30611420023E+03  0.20193771812E+04  0.20619070518E+04  0.25000000000E+03 0.  0.
    5000001    1    1    2    0    0 -0.13179752174E+03 -0.30611420023E+03  0.10812086638E+04  0.11587012837E+04  0.25000000000E+03 0.  0.
<mgrwt>
<rscale>  0 0.87102553E+03</rscale>
<asrwt>0</asrwt>
<pdfrwt beam="1">  1        2 0.48624573E+00 0.87102553E+03</pdfrwt>
<pdfrwt beam="2">  1       -2 0.92324988E-02 0.87102553E+03</pdfrwt>
<totfact> 0.11244617E+02</totfact>
</mgrwt>
</event>
<event>
 4    1  0.1714834E-005  0.8820515E+03  0.7818608E-02  0.9448300E-01
          2   -1    0    0  501    0  0.00000000000E+00  0.00000000000E+00  0.83695286970E+03  0.83695286970E+03  0.25500000000E-02 0.  1.
         -2   -1    0    0    0  501 -0.00000000000E+00 -0.00000000000E+00 -0.23239503991E+03  0.23239503993E+03  0.25500000000E-02 0. -1.
   -5000001    1    1    2    0    0  0.29400265193E+03  0.10885527741E+03  0.52489031683E+03  0.66052772498E+03  0.25000000000E+03 0.  0.
    5000001    1    1    2    0    0 -0.29400265193E+03 -0.10885527741E+03  0.79667512950E+02  0.40882018465E+03  0.25000000000E+03 0.  0.
<mgrwt>
<rscale>  0 0.88205146E+03</rscale>
<asrwt>0</asrwt>
<pdfrwt beam="1">  1        2 0.12876198E+00 0.88205146E+03</pdfrwt>
<pdfrwt beam="2">  1       -2 0.35753083E-01 0.88205146E+03</pdfrwt>
<totfact> 0.23896986E+02</totfact>
</mgrwt>
</event>
<event>
 4    1  0.1714834E-005  0.5923196E+03  0.7818608E-02  0.9921470E-01
          2   -1    0    0  501    0  0.00000000000E+00  0.00000000000E+00  0.76663545987E+03  0.76663545987E+03  0.25500000000E-02 0.  1.
         -2   -1    0    0    0  501 -0.00000000000E+00 -0.00000000000E+00 -0.11440981420E+03  0.11440981423E+03  0.25500000000E-02 0. -1.
   -5000001    1    1    2    0    0 -0.14192229418E+03  0.69775063770E+02  0.34715502096E+03  0.45609988565E+03  0.25000000000E+03 0.  0.
    5000001    1    1    2    0    0  0.14192229418E+03 -0.69775063770E+02  0.30507062470E+03  0.42494538845E+03  0.25000000000E+03 0.  0.
<mgrwt>
<rscale>  0 0.59231958E+03</rscale>
<asrwt>0</asrwt>
<pdfrwt beam="1">  1        2 0.11794392E+00 0.59231958E+03</pdfrwt>
<pdfrwt beam="2">  1       -2 0.17601509E-01 0.59231958E+03</pdfrwt>
<totfact> 0.97620578E+02</totfact>
</mgrwt>
</event>
<event>
 4    1  0.1714834E-005  0.8812848E+03  0.7818608E-02  0.9449283E-01
         -2   -1    0    0    0  501 -0.00000000000E+00  0.00000000000E+00  0.20156939770E+03  0.20156939771E+03  0.25500000000E-02 0. -1.
          2   -1    0    0  501    0  0.00000000000E+00 -0.00000000000E+00 -0.96326992072E+03  0.96326992072E+03  0.25500000000E-02 0.  1.
   -5000001    1    1    2    0    0 -0.30387698953E+03  0.18881812652E+03 -0.30075357491E+03  0.53004360433E+03  0.25000000000E+03 0.  0.
    5000001    1    1    2    0    0  0.30387698953E+03 -0.18881812652E+03 -0.46094694811E+03  0.63479571410E+03  0.25000000000E+03 0.  0.
<mgrwt>
<rscale>  0 0.88128483E+03</rscale>
<asrwt>0</asrwt>
<pdfrwt beam="1">  1        2 0.14819537E+00 0.88128483E+03</pdfrwt>
<pdfrwt beam="2">  1       -2 0.31010677E-01 0.88128483E+03</pdfrwt>
<totfact> 0.25693673E+02</totfact>
</mgrwt>
</event>
<event>
 4    1  0.1714834E-005  0.7359105E+03  0.7818608E-02  0.9657718E-01
         -2   -1    0    0    0  501 -0.00000000000E+00  0.00000000000E+00  0.62842222339E+02  0.62842222390E+02  0.25500000000E-02 0. -1.
          2   -1    0    0  501    0  0.00000000000E+00 -0.00000000000E+00 -0.21544599063E+04  0.21544599063E+04  0.25500000000E-02 0.  1.
   -5000001    1    1    2    0    0 -0.22306555243E+03 -0.14652521398E+03 -0.92293253268E+03  0.99273981430E+03  0.25000000000E+03 0.  0.
    5000001    1    1    2    0    0  0.22306555243E+03  0.14652521398E+03 -0.11686851513E+04  0.12245623144E+04  0.25000000000E+03 0.  0.
<mgrwt>
<rscale>  0 0.73591045E+03</rscale>
<asrwt>0</asrwt>
<pdfrwt beam="1">  1        2 0.33145531E+00 0.73591045E+03</pdfrwt>
<pdfrwt beam="2">  1       -2 0.96680358E-02 0.73591045E+03</pdfrwt>
<totfact> 0.40861411E+02</totfact>
</mgrwt>
</event>
<event>
 4    1  0.1714834E-005  0.8474526E+03  0.7818608E-02  0.9493762E-01
         -2   -1    0    0    0  501 -0.00000000000E+00  0.00000000000E+00  0.21755927053E+03  0.21755927055E+03  0.25500000000E-02 0. -1.
          2   -1    0    0  501    0  0.00000000000E+00 -0.00000000000E+00 -0.82526458657E+03  0.82526458658E+03  0.25500000000E-02 0.  1.
   -5000001    1    1    2    0    0 -0.31083825676E+03  0.71379150298E+02 -0.45620396712E+03  0.61019461206E+03  0.25000000000E+03 0.  0.
    5000001    1    1    2    0    0  0.31083825676E+03 -0.71379150298E+02 -0.15150134892E+03  0.43262924507E+03  0.25000000000E+03 0.  0.
<mgrwt>
<rscale>  0 0.84745256E+03</rscale>
<asrwt>0</asrwt>
<pdfrwt beam="1">  1        2 0.12696378E+00 0.84745256E+03</pdfrwt>
<pdfrwt beam="2">  1       -2 0.33470657E-01 0.84745256E+03</pdfrwt>
<totfact> 0.27657030E+02</totfact>
</mgrwt>
</event>
<event>
 4    1  0.1714834E-005  0.7520670E+03  0.7818608E-02  0.9632113E-01
         -2   -1    0    0    0  501 -0.00000000000E+00  0.00000000000E+00  0.26000008229E+03  0.26000008230E+03  0.25500000000E-02 0. -1.
          2   -1    0    0  501    0  0.00000000000E+00 -0.00000000000E+00 -0.54385063268E+03  0.54385063268E+03  0.25500000000E-02 0.  1.
   -5000001    1    1    2    0    0  0.28050470084E+03 -0.14730535067E+02 -0.14315951387E+03  0.40236118385E+03  0.25000000000E+03 0.  0.
    5000001    1    1    2    0    0 -0.28050470084E+03  0.14730535067E+02 -0.14069103651E+03  0.40148953114E+03  0.25000000000E+03 0.  0.
<mgrwt>
<rscale>  0 0.75206704E+03</rscale>
<asrwt>0</asrwt>
<pdfrwt beam="1">  1        2 0.83669328E-01 0.75206704E+03</pdfrwt>
<pdfrwt beam="2">  1       -2 0.40000013E-01 0.75206704E+03</pdfrwt>
<totfact> 0.33231593E+02</totfact>
</mgrwt>
</event>
<event>
 4    1  0.1714834E-005  0.6823380E+03  0.7818608E-02  0.9747923E-01
          2   -1    0    0  501    0  0.00000000000E+00  0.00000000000E+00  0.88986324949E+03  0.88986324949E+03  0.25500000000E-02 0.  1.
         -2   -1    0    0    0  501 -0.00000000000E+00 -0.00000000000E+00 -0.13080244821E+03  0.13080244823E+03  0.25500000000E-02 0. -1.
   -5000001    1    1    2    0    0 -0.95707841315E+02 -0.17156565647E+03  0.19449649003E+03  0.37272463026E+03  0.25000000000E+03 0.  0.
    5000001    1    1    2    0    0  0.95707841315E+02  0.17156565647E+03  0.56456431125E+03  0.64794106747E+03  0.25000000000E+03 0.  0.
<mgrwt>
<rscale>  0 0.68233801E+03</rscale>
<asrwt>0</asrwt>
<pdfrwt beam="1">  1        2 0.13690204E+00 0.68233801E+03</pdfrwt>
<pdfrwt beam="2">  1       -2 0.20123453E-01 0.68233801E+03</pdfrwt>
<totfact> 0.63288868E+02</totfact>
</mgrwt>
</event>
<event>
 4    1  0.1714834E-005  0.8491292E+03  0.7818608E-02  0.9491506E-01
         -2   -1    0    0    0  501 -0.00000000000E+00  0.00000000000E+00  0.15578381778E+03  0.15578381780E+03  0.25500000000E-02 0. -1.
          2   -1    0    0  501    0  0.00000000000E+00 -0.00000000000E+00 -0.11570850086E+04  0.11570850086E+04  0.25500000000E-02 0.  1.
   -5000001    1    1    2    0    0  0.26105257280E+03  0.61294456359E+02 -0.16958380805E+03  0.40393579205E+03  0.25000000000E+03 0.  0.
    5000001    1    1    2    0    0 -0.26105257280E+03 -0.61294456359E+02 -0.83171738279E+03  0.90893303438E+03  0.25000000000E+03 0.  0.
<mgrwt>
<rscale>  0 0.84912925E+03</rscale>
<asrwt>0</asrwt>
<pdfrwt beam="1">  1        2 0.17801307E+00 0.84912925E+03</pdfrwt>
<pdfrwt beam="2">  1       -2 0.23966742E-01 0.84912925E+03</pdfrwt>
<totfact> 0.31213755E+02</totfact>
</mgrwt>
</event>
<event>
 4    1  0.1714834E-005  0.6466561E+03  0.7818608E-02  0.9813074E-01
          2   -1    0    0  501    0  0.00000000000E+00  0.00000000000E+00  0.51101307663E+03  0.51101307664E+03  0.25500000000E-02 0.  1.
         -2   -1    0    0    0  501 -0.00000000000E+00 -0.00000000000E+00 -0.20457606432E+03  0.20457606433E+03  0.25500000000E-02 0. -1.
   -5000001    1    1    2    0    0 -0.11124459075E+03 -0.16257296202E+03  0.90271424421E+02  0.33083871753E+03  0.25000000000E+03 0.  0.
    5000001    1    1    2    0    0  0.11124459075E+03  0.16257296202E+03  0.21616558789E+03  0.38475042344E+03  0.25000000000E+03 0.  0.
<mgrwt>
<rscale>  0 0.64665615E+03</rscale>
<asrwt>0</asrwt>
<pdfrwt beam="1">  1        2 0.78617395E-01 0.64665615E+03</pdfrwt>
<pdfrwt beam="2">  1       -2 0.31473241E-01 0.64665615E+03</pdfrwt>
<totfact> 0.56624025E+02</totfact>
</mgrwt>
</event>
<event>
 4    1  0.1714834E-005  0.5792305E+03  0.7818608E-02  0.9949458E-01
          2   -1    0    0  501    0  0.00000000000E+00  0.00000000000E+00  0.25737112358E+03  0.25737112360E+03  0.25500000000E-02 0.  1.
         -2   -1    0    0    0  501 -0.00000000000E+00 -0.00000000000E+00 -0.32589903183E+03  0.32589903184E+03  0.25500000000E-02 0. -1.
   -5000001    1    1    2    0    0  0.10917391685E+03 -0.94881197568E+02 -0.55757939817E+02  0.29416038759E+03  0.25000000000E+03 0.  0.
    5000001    1    1    2    0    0 -0.10917391685E+03  0.94881197568E+02 -0.12769968427E+02  0.28910976785E+03  0.25000000000E+03 0.  0.
<mgrwt>
<rscale>  0 0.57923052E+03</rscale>
<asrwt>0</asrwt>
<pdfrwt beam="1">  1        2 0.39595557E-01 0.57923052E+03</pdfrwt>
<pdfrwt beam="2">  1       -2 0.50138313E-01 0.57923052E+03</pdfrwt>
<totfact> 0.49433756E+02</totfact>
</mgrwt>
</event>
<event>
 4    1  0.1714834E-005  0.6992759E+03  0.7818608E-02  0.9718471E-01
          2   -1    0    0  501    0  0.00000000000E+00  0.00000000000E+00  0.75047397244E+03  0.75047397244E+03  0.25500000000E-02 0.  1.
         -2   -1    0    0    0  501 -0.00000000000E+00 -0.00000000000E+00 -0.16289263508E+03  0.16289263510E+03  0.25500000000E-02 0. -1.
   -5000001    1    1    2    0    0 -0.10190026950E+03 -0.19999292268E+03  0.42019738960E+03  0.53800249096E+03  0.25000000000E+03 0.  0.
    5000001    1    1    2    0    0  0.10190026950E+03  0.19999292268E+03  0.16738394776E+03  0.37536411658E+03  0.25000000000E+03 0.  0.
<mgrwt>
<rscale>  0 0.69927586E+03</rscale>
<asrwt>0</asrwt>
<pdfrwt beam="1">  1        2 0.11545753E+00 0.69927586E+03</pdfrwt>
<pdfrwt beam="2">  1       -2 0.25060405E-01 0.69927586E+03</pdfrwt>
<totfact> 0.53786657E+02</totfact>
</mgrwt>
</event>
<event>
 4    1  0.1714834E-005  0.1355732E+04  0.7818608E-02  0.8986501E-01
          2   -1    0    0  501    0  0.00000000000E+00  0.00000000000E+00  0.87504566549E+03  0.87504566550E+03  0.25500000000E-02 0.  1.
         -2   -1    0    0    0  501 -0.00000000000E+00 -0.00000000000E+00 -0.52511772731E+03  0.52511772732E+03  0.25500000000E-02 0. -1.
   -5000001    1    1    2    0    0  0.13136420107E+03  0.56524961974E+03 -0.78514687493E+02  0.63673247294E+03  0.25000000000E+03 0.  0.
    5000001    1    1    2    0    0 -0.13136420107E+03 -0.56524961974E+03  0.42844262567E+03  0.76343091988E+03  0.25000000000E+03 0.  0.
<mgrwt>
<rscale>  0 0.13557315E+04</rscale>
<asrwt>0</asrwt>
<pdfrwt beam="1">  1        2 0.13462241E+00 0.13557315E+04</pdfrwt>
<pdfrwt beam="2">  1       -2 0.80787344E-01 0.13557315E+04</pdfrwt>
<totfact> 0.40272908E+01</totfact>
</mgrwt>
</event>
<event>
 4    1  0.1714834E-005  0.6708523E+03  0.7818608E-02  0.9768419E-01
         -2   -1    0    0    0  501 -0.00000000000E+00  0.00000000000E+00  0.70153636158E+02  0.70153636204E+02  0.25500000000E-02 0.  1.
          2   -1    0    0  501    0  0.00000000000E+00 -0.00000000000E+00 -0.16037757826E+04  0.16037757826E+04  0.25500000000E-02 0. -1.
   -5000001    1    1    2    0    0 -0.18308711594E+03  0.51713031910E+02 -0.10600993338E+04  0.11056698093E+04  0.25000000000E+03 0.  0.
    5000001    1    1    2    0    0  0.18308711594E+03 -0.51713031910E+02 -0.47352281264E+03  0.56825960949E+03  0.25000000000E+03 0.  0.
<mgrwt>
<rscale>  0 0.67085230E+03</rscale>
<asrwt>0</asrwt>
<pdfrwt beam="1">  1        2 0.24673471E+00 0.67085230E+03</pdfrwt>
<pdfrwt beam="2">  1       -2 0.10792868E-01 0.67085230E+03</pdfrwt>
<totfact> 0.68503394E+02</totfact>
</mgrwt>
</event>
<event>
 4    1  0.1714834E-005  0.5966252E+03  0.7818608E-02  0.9912433E-01
         -2   -1    0    0    0  501 -0.00000000000E+00  0.00000000000E+00  0.15368632023E+03  0.15368632026E+03  0.25500000000E-02 0. -1.
          2   -1    0    0  501    0  0.00000000000E+00 -0.00000000000E+00 -0.57903920939E+03  0.57903920939E+03  0.25500000000E-02 0.  1.
   -5000001    1    1    2    0    0  0.10654965180E+02 -0.12817691971E+03 -0.33516567201E+03  0.43746871742E+03  0.25000000000E+03 0.  0.
    5000001    1    1    2    0    0 -0.10654965180E+02  0.12817691971E+03 -0.90187217137E+02  0.29525681222E+03  0.25000000000E+03 0.  0.
<mgrwt>
<rscale>  0 0.59662519E+03</rscale>
<asrwt>0</asrwt>
<pdfrwt beam="1">  1        2 0.89082955E-01 0.59662519E+03</pdfrwt>
<pdfrwt beam="2">  1       -2 0.23644049E-01 0.59662519E+03</pdfrwt>
<totfact> 0.82443173E+02</totfact>
</mgrwt>
</event>
<event>
 4    1  0.1714834E-005  0.9148043E+03  0.7818608E-02  0.9407262E-01
         -2   -1    0    0    0  501 -0.00000000000E+00  0.00000000000E+00  0.48873657440E+03  0.48873657441E+03  0.25500000000E-02 0. -1.
          2   -1    0    0  501    0  0.00000000000E+00 -0.00000000000E+00 -0.42807671114E+03  0.42807671114E+03  0.25500000000E-02 0.  1.
   -5000001    1    1    2    0    0  0.12011916304E+03 -0.36154475357E+03  0.70084702972E+02  0.46103697005E+03  0.25000000000E+03 0.  0.
    5000001    1    1    2    0    0 -0.12011916304E+03  0.36154475357E+03 -0.94248397083E+01  0.45577631550E+03  0.25000000000E+03 0.  0.
<mgrwt>
<rscale>  0 0.91480434E+03</rscale>
<asrwt>0</asrwt>
<pdfrwt beam="1">  1        2 0.65857956E-01 0.91480434E+03</pdfrwt>
<pdfrwt beam="2">  1       -2 0.75190242E-01 0.91480434E+03</pdfrwt>
<totfact> 0.11730709E+02</totfact>
</mgrwt>
</event>
<event>
 4    1  0.1714834E-005  0.8435084E+03  0.7818608E-02  0.9499091E-01
         -2   -1    0    0    0  501 -0.00000000000E+00  0.00000000000E+00  0.84420038549E+02  0.84420038588E+02  0.25500000000E-02 0. -1.
          2   -1    0    0  501    0  0.00000000000E+00 -0.00000000000E+00 -0.21070423832E+04  0.21070423832E+04  0.25500000000E-02 0.  1.
   -5000001    1    1    2    0    0 -0.42611614206E+02  0.29433881421E+03 -0.58500010347E+03  0.70226505557E+03  0.25000000000E+03 0.  0.
    5000001    1    1    2    0    0  0.42611614206E+02 -0.29433881421E+03 -0.14376222411E+04  0.14891973662E+04  0.25000000000E+03 0.  0.
<mgrwt>
<rscale>  0 0.84350839E+03</rscale>
<asrwt>0</asrwt>
<pdfrwt beam="1">  1        2 0.32416033E+00 0.84350839E+03</pdfrwt>
<pdfrwt beam="2">  1       -2 0.12987700E-01 0.84350839E+03</pdfrwt>
<totfact> 0.26472186E+02</totfact>
</mgrwt>
</event>
<event>
 4    1  0.1714834E-005  0.6358692E+03  0.7818608E-02  0.9833662E-01
          2   -1    0    0  501    0  0.00000000000E+00  0.00000000000E+00  0.52412980846E+03  0.52412980847E+03  0.25500000000E-02 0.  1.
         -2   -1    0    0    0  501 -0.00000000000E+00 -0.00000000000E+00 -0.19285756960E+03  0.19285756961E+03  0.25500000000E-02 0. -1.
   -5000001    1    1    2    0    0  0.20104834977E+02 -0.19452880085E+03  0.14494459172E+03  0.34893350859E+03  0.25000000000E+03 0.  0.
    5000001    1    1    2    0    0 -0.20104834977E+02  0.19452880085E+03  0.18632764715E+03  0.36805386948E+03  0.25000000000E+03 0.  0.
<mgrwt>
<rscale>  0 0.63586917E+03</rscale>
<asrwt>0</asrwt>
<pdfrwt beam="1">  1        2 0.80635354E-01 0.63586917E+03</pdfrwt>
<pdfrwt beam="2">  1       -2 0.29670396E-01 0.63586917E+03</pdfrwt>
<totfact> 0.61356780E+02</totfact>
</mgrwt>
</event>
<event>
 4    1  0.1714834E-005  0.9830234E+03  0.7818608E-02  0.9327363E-01
          2   -1    0    0  501    0  0.00000000000E+00  0.00000000000E+00  0.17714114179E+04  0.17714114179E+04  0.25500000000E-02 0.  1.
         -2   -1    0    0    0  501 -0.00000000000E+00 -0.00000000000E+00 -0.13637925678E+03  0.13637925681E+03  0.25500000000E-02 0. -1.
   -5000001    1    1    2    0    0  0.22173330182E+03  0.22558989210E+03  0.27193982244E+03  0.48632059753E+03  0.25000000000E+03 0.  0.
    5000001    1    1    2    0    0 -0.22173330182E+03 -0.22558989210E+03  0.13630923387E+04  0.14214700772E+04  0.25000000000E+03 0.  0.
<mgrwt>
<rscale>  0 0.98302344E+03</rscale>
<asrwt>0</asrwt>
<pdfrwt beam="1">  1        2 0.27252483E+00 0.98302344E+03</pdfrwt>
<pdfrwt beam="2">  1       -2 0.20981424E-01 0.98302344E+03</pdfrwt>
<totfact> 0.17588902E+02</totfact>
</mgrwt>
</event>
<event>
 4    1  0.1714834E-005  0.8805858E+03  0.7818608E-02  0.9450181E-01
          2   -1    0    0  501    0  0.00000000000E+00  0.00000000000E+00  0.56401691187E+03  0.56401691188E+03  0.25500000000E-02 0.  1.
         -2   -1    0    0    0  501 -0.00000000000E+00 -0.00000000000E+00 -0.34370924082E+03  0.34370924083E+03  0.25500000000E-02 0. -1.
   -5000001    1    1    2    0    0  0.27167504983E+03 -0.23932564796E+03  0.93099244395E+02  0.44972387948E+03  0.25000000000E+03 0.  0.
    5000001    1    1    2    0    0 -0.27167504983E+03  0.23932564796E+03  0.12720842665E+03  0.45800227323E+03  0.25000000000E+03 0.  0.
<mgrwt>
<rscale>  0 0.88058577E+03</rscale>
<asrwt>0</asrwt>
<pdfrwt beam="1">  1        2 0.86771832E-01 0.88058577E+03</pdfrwt>
<pdfrwt beam="2">  1       -2 0.52878345E-01 0.88058577E+03</pdfrwt>
<totfact> 0.18100634E+02</totfact>
</mgrwt>
</event>
<event>
 4    1  0.1714834E-005  0.8378436E+03  0.7818608E-02  0.9506800E-01
          2   -1    0    0  501    0  0.00000000000E+00  0.00000000000E+00  0.85797125964E+03  0.85797125964E+03  0.25500000000E-02 0.  1.
         -2   -1    0    0    0  501 -0.00000000000E+00 -0.00000000000E+00 -0.20454702071E+03  0.20454702073E+03  0.25500000000E-02 0. -1.
   -5000001    1    1    2    0    0  0.20916911066E+03  0.86490517909E+02  0.11547001674E+02  0.33743986100E+03  0.25000000000E+03 0.  0.
    5000001    1    1    2    0    0 -0.20916911066E+03 -0.86490517909E+02  0.64187723725E+03  0.72507841937E+03  0.25000000000E+03 0.  0.
<mgrwt>
<rscale>  0 0.83784358E+03</rscale>
<asrwt>0</asrwt>
<pdfrwt beam="1">  1        2 0.13199558E+00 0.83784358E+03</pdfrwt>
<pdfrwt beam="2">  1       -2 0.31468772E-01 0.83784358E+03</pdfrwt>
<totfact> 0.29478308E+02</totfact>
</mgrwt>
</event>
<event>
 4    1  0.1714834E-005  0.6345715E+03  0.7818608E-02  0.9836168E-01
         -2   -1    0    0    0  501 -0.00000000000E+00  0.00000000000E+00  0.95113384856E+02  0.95113384890E+02  0.25500000000E-02 0. -1.
          2   -1    0    0  501    0  0.00000000000E+00 -0.00000000000E+00 -0.10584235100E+04  0.10584235100E+04  0.25500000000E-02 0.  1.
   -5000001    1    1    2    0    0 -0.62609693000E+02  0.17869614013E+03 -0.39413577658E+03  0.50368173933E+03  0.25000000000E+03 0.  0.
    5000001    1    1    2    0    0  0.62609693000E+02 -0.17869614013E+03 -0.56917434861E+03  0.64985515561E+03  0.25000000000E+03 0.  0.
<mgrwt>
<rscale>  0 0.63457149E+03</rscale>
<asrwt>0</asrwt>
<pdfrwt beam="1">  1        2 0.16283438E+00 0.63457149E+03</pdfrwt>
<pdfrwt beam="2">  1       -2 0.14632829E-01 0.63457149E+03</pdfrwt>
<totfact> 0.85221084E+02</totfact>
</mgrwt>
</event>
<event>
 4    1  0.1714834E-005  0.5771063E+03  0.7818608E-02  0.9954076E-01
          2   -1    0    0  501    0  0.00000000000E+00  0.00000000000E+00  0.87452349179E+02  0.87452349216E+02  0.25500000000E-02 0.  1.
         -2   -1    0    0    0  501 -0.00000000000E+00 -0.00000000000E+00 -0.95209457574E+03  0.95209457575E+03  0.25500000000E-02 0. -1.
   -5000001    1    1    2    0    0 -0.49500066479E+02 -0.12309530649E+03 -0.33105938313E+03  0.43554910885E+03  0.25000000000E+03 0.  0.
    5000001    1    1    2    0    0  0.49500066479E+02  0.12309530649E+03 -0.53358284344E+03  0.60399781611E+03  0.25000000000E+03 0.  0.
<mgrwt>
<rscale>  0 0.57710625E+03</rscale>
<asrwt>0</asrwt>
<pdfrwt beam="1">  1        2 0.13454208E-01 0.57710625E+03</pdfrwt>
<pdfrwt beam="2">  1       -2 0.14647608E+00 0.57710625E+03</pdfrwt>
<totfact> 0.14862258E+02</totfact>
</mgrwt>
</event>
<event>
 4    1  0.1714834E-005  0.6653740E+03  0.7818608E-02  0.9778351E-01
         -2   -1    0    0    0  501 -0.00000000000E+00  0.00000000000E+00  0.45791543056E+03  0.45791543057E+03  0.25500000000E-02 0. -1.
          2   -1    0    0  501    0  0.00000000000E+00 -0.00000000000E+00 -0.24170543160E+03  0.24170543162E+03  0.25500000000E-02 0.  1.
   -5000001    1    1    2    0    0  0.20080300580E+03 -0.77356151289E+02  0.15363287011E+03  0.36388031007E+03  0.25000000000E+03 0.  0.
    5000001    1    1    2    0    0 -0.20080300580E+03  0.77356151289E+02  0.62577128849E+02  0.33574055211E+03  0.25000000000E+03 0.  0.
<mgrwt>
<rscale>  0 0.66537402E+03</rscale>
<asrwt>0</asrwt>
<pdfrwt beam="1">  1        2 0.37185451E-01 0.66537402E+03</pdfrwt>
<pdfrwt beam="2">  1       -2 0.70448527E-01 0.66537402E+03</pdfrwt>
<totfact> 0.25881303E+02</totfact>
</mgrwt>
</event>
<event>
 4    1  0.1714834E-005  0.6478442E+03  0.7818608E-02  0.9810833E-01
          2   -1    0    0  501    0  0.00000000000E+00  0.00000000000E+00  0.27605222943E+04  0.27605222943E+04  0.25500000000E-02 0.  1.
         -2   -1    0    0    0  501 -0.00000000000E+00 -0.00000000000E+00 -0.38009302515E+02  0.38009302601E+02  0.25500000000E-02 0. -1.
   -5000001    1    1    2    0    0 -0.19217878718E+03 -0.20173496075E+01  0.10412216986E+04  0.10879243455E+04  0.25000000000E+03 0.  0.
    5000001    1    1    2    0    0  0.19217878718E+03  0.20173496075E+01  0.16812912932E+04  0.17106072514E+04  0.25000000000E+03 0.  0.
<mgrwt>
<rscale>  0 0.64784420E+03</rscale>
<asrwt>0</asrwt>
<pdfrwt beam="1">  1        2 0.42469580E+00 0.64784420E+03</pdfrwt>
<pdfrwt beam="2">  1       -2 0.58475841E-02 0.64784420E+03</pdfrwt>
<totfact> 0.41753180E+02</totfact>
</mgrwt>
</event>
<event>
 4    1  0.1714834E-005  0.6679072E+03  0.7818608E-02  0.9773746E-01
          2   -1    0    0  501    0  0.00000000000E+00  0.00000000000E+00  0.94319070491E+02  0.94319070525E+02  0.25500000000E-02 0.  1.
         -2   -1    0    0    0  501 -0.00000000000E+00 -0.00000000000E+00 -0.11824224994E+04  0.11824224994E+04  0.25500000000E-02 0. -1.
   -5000001    1    1    2    0    0  0.20822055238E+03 -0.57164214872E+02 -0.45037681294E+03  0.55853631890E+03  0.25000000000E+03 0.  0.
    5000001    1    1    2    0    0 -0.20822055238E+03  0.57164214872E+02 -0.63772661597E+03  0.71820525104E+03  0.25000000000E+03 0.  0.
<mgrwt>
<rscale>  0 0.66790715E+03</rscale>
<asrwt>0</asrwt>
<pdfrwt beam="1">  1        2 0.14510627E-01 0.66790715E+03</pdfrwt>
<pdfrwt beam="2">  1       -2 0.18191114E+00 0.66790715E+03</pdfrwt>
<totfact> 0.74837865E+01</totfact>
</mgrwt>
</event>
<event>
 4    1  0.1714834E-005  0.1536577E+04  0.7818608E-02  0.8860488E-01
          2   -1    0    0  501    0  0.00000000000E+00  0.00000000000E+00  0.11279218867E+04  0.11279218868E+04  0.25500000000E-02 0.  1.
         -2   -1    0    0    0  501 -0.00000000000E+00 -0.00000000000E+00 -0.52332255725E+03  0.52332255726E+03  0.25500000000E-02 0. -1.
   -5000001    1    1    2    0    0  0.25185532843E+03 -0.31434187524E+03  0.95200390914E+03  0.10635099266E+04  0.25000000000E+03 0.  0.
    5000001    1    1    2    0    0 -0.25185532843E+03  0.31434187524E+03 -0.34740457964E+03  0.58773451740E+03  0.25000000000E+03 0.  0.
<mgrwt>
<rscale>  0 0.15365767E+04</rscale>
<asrwt>0</asrwt>
<pdfrwt beam="1">  1        2 0.17352644E+00 0.15365767E+04</pdfrwt>
<pdfrwt beam="2">  1       -2 0.80511163E-01 0.15365767E+04</pdfrwt>
<totfact> 0.27499728E+01</totfact>
</mgrwt>
</event>
<event>
 4    1  0.1714834E-005  0.6221059E+03  0.7818608E-02  0.9860576E-01
         -2   -1    0    0    0  501 -0.00000000000E+00  0.00000000000E+00  0.18899282142E+03  0.18899282144E+03  0.25500000000E-02 0. -1.
          2   -1    0    0  501    0  0.00000000000E+00 -0.00000000000E+00 -0.51194510565E+03  0.51194510566E+03  0.25500000000E-02 0.  1.
   -5000001    1    1    2    0    0  0.16208859929E+03 -0.53856718838E+02 -0.24178742257E+03  0.38747182852E+03  0.25000000000E+03 0.  0.
    5000001    1    1    2    0    0 -0.16208859929E+03  0.53856718838E+02 -0.81164861663E+02  0.31346609857E+03  0.25000000000E+03 0.  0.
<mgrwt>
<rscale>  0 0.62210594E+03</rscale>
<asrwt>0</asrwt>
<pdfrwt beam="1">  1        2 0.78760785E-01 0.62210594E+03</pdfrwt>
<pdfrwt beam="2">  1       -2 0.29075819E-01 0.62210594E+03</pdfrwt>
<totfact> 0.65474475E+02</totfact>
</mgrwt>
</event>
<event>
 4    1  0.1714834E-005  0.9102950E+03  0.7818608E-02  0.9412803E-01
         -2   -1    0    0    0  501 -0.00000000000E+00  0.00000000000E+00  0.18817416391E+03  0.18817416392E+03  0.25500000000E-02 0. -1.
          2   -1    0    0  501    0  0.00000000000E+00 -0.00000000000E+00 -0.11008911337E+04  0.11008911337E+04  0.25500000000E-02 0.  1.
   -5000001    1    1    2    0    0 -0.63142286977E+02 -0.36436499517E+03 -0.33040972500E+03  0.55535518768E+03  0.25000000000E+03 0.  0.
    5000001    1    1    2    0    0  0.63142286977E+02  0.36436499517E+03 -0.58230724483E+03  0.73371010998E+03  0.25000000000E+03 0.  0.
<mgrwt>
<rscale>  0 0.91029505E+03</rscale>
<asrwt>0</asrwt>
<pdfrwt beam="1">  1        2 0.16936786E+00 0.91029505E+03</pdfrwt>
<pdfrwt beam="2">  1       -2 0.28949872E-01 0.91029505E+03</pdfrwt>
<totfact> 0.23859730E+02</totfact>
</mgrwt>
</event>
<event>
 4    1  0.1714834E-005  0.7438159E+03  0.7818608E-02  0.9645103E-01
         -2   -1    0    0    0  501 -0.00000000000E+00  0.00000000000E+00  0.14710812223E+03  0.14710812225E+03  0.25500000000E-02 0. -1.
          2   -1    0    0  501    0  0.00000000000E+00 -0.00000000000E+00 -0.94023027389E+03  0.94023027389E+03  0.25500000000E-02 0.  1.
   -5000001    1    1    2    0    0  0.26458988958E+03 -0.72206145128E+02 -0.36093379794E+03  0.51768208735E+03  0.25000000000E+03 0.  0.
    5000001    1    1    2    0    0 -0.26458988958E+03  0.72206145128E+02 -0.43218835372E+03  0.56965630880E+03  0.25000000000E+03 0.  0.
<mgrwt>
<rscale>  0 0.74381586E+03</rscale>
<asrwt>0</asrwt>
<pdfrwt beam="1">  1        2 0.14465081E+00 0.74381586E+03</pdfrwt>
<pdfrwt beam="2">  1       -2 0.22632019E-01 0.74381586E+03</pdfrwt>
<totfact> 0.47516949E+02</totfact>
</mgrwt>
</event>
<event>
 4    1  0.1714834E-005  0.1001942E+04  0.7818608E-02  0.9306417E-01
         -2   -1    0    0    0  501 -0.00000000000E+00  0.00000000000E+00  0.15607377663E+03  0.15607377665E+03  0.25500000000E-02 0. -1.
          2   -1    0    0  501    0  0.00000000000E+00 -0.00000000000E+00 -0.16080348161E+04  0.16080348161E+04  0.25500000000E-02 0.  1.
   -5000001    1    1    2    0    0 -0.19183753457E+03 -0.35798999284E+03 -0.45599397797E+03  0.65984011896E+03  0.25000000000E+03 0.  0.
    5000001    1    1    2    0    0  0.19183753457E+03  0.35798999284E+03 -0.99596706153E+03  0.11042684738E+04  0.25000000000E+03 0.  0.
<mgrwt>
<rscale>  0 0.10019422E+04</rscale>
<asrwt>0</asrwt>
<pdfrwt beam="1">  1        2 0.24738996E+00 0.10019422E+04</pdfrwt>
<pdfrwt beam="2">  1       -2 0.24011351E-01 0.10019422E+04</pdfrwt>
<totfact> 0.17000340E+02</totfact>
</mgrwt>
</event>
<event>
 4    1  0.1714834E-005  0.7592063E+03  0.7818608E-02  0.9621017E-01
          2   -1    0    0  501    0  0.00000000000E+00  0.00000000000E+00  0.99781259148E+03  0.99781259148E+03  0.25500000000E-02 0.  1.
         -2   -1    0    0    0  501 -0.00000000000E+00 -0.00000000000E+00 -0.14441445332E+03  0.14441445334E+03  0.25500000000E-02 0. -1.
   -5000001    1    1    2    0    0 -0.27190590213E+03 -0.71439188176E+02  0.35054420085E+03  0.51421553260E+03  0.25000000000E+03 0.  0.
    5000001    1    1    2    0    0  0.27190590213E+03  0.71439188176E+02  0.50285393730E+03  0.62801151222E+03  0.25000000000E+03 0.  0.
<mgrwt>
<rscale>  0 0.75920632E+03</rscale>
<asrwt>0</asrwt>
<pdfrwt beam="1">  1        2 0.15350963E+00 0.75920632E+03</pdfrwt>
<pdfrwt beam="2">  1       -2 0.22217609E-01 0.75920632E+03</pdfrwt>
<totfact> 0.45032707E+02</totfact>
</mgrwt>
</event>
<event>
 4    1  0.1714834E-005  0.7044070E+03  0.7818608E-02  0.9709725E-01
          2   -1    0    0  501    0  0.00000000000E+00  0.00000000000E+00  0.19121502774E+04  0.19121502774E+04  0.25500000000E-02 0. -1.
         -2   -1    0    0    0  501 -0.00000000000E+00 -0.00000000000E+00 -0.64873203179E+02  0.64873203229E+02  0.25500000000E-02 0.  1.
   -5000001    1    1    2    0    0  0.80915550474E+02 -0.23231434732E+03  0.83356165505E+03  0.90434634685E+03  0.25000000000E+03 0.  0.
    5000001    1    1    2    0    0 -0.80915550474E+02  0.23231434732E+03  0.10137154191E+04  0.10726771337E+04  0.25000000000E+03 0.  0.
<mgrwt>
<rscale>  0 0.70440702E+03</rscale>
<asrwt>0</asrwt>
<pdfrwt beam="1">  1        2 0.29417696E+00 0.70440702E+03</pdfrwt>
<pdfrwt beam="2">  1       -2 0.99804930E-02 0.70440702E+03</pdfrwt>
<totfact> 0.52742267E+02</totfact>
</mgrwt>
</event>
<event>
 4    1  0.1714834E-005  0.9063863E+03  0.7818608E-02  0.9417633E-01
         -2   -1    0    0    0  501 -0.00000000000E+00  0.00000000000E+00  0.93572580138E+02  0.93572580172E+02  0.25500000000E-02 0. -1.
          2   -1    0    0  501    0  0.00000000000E+00 -0.00000000000E+00 -0.21949166871E+04  0.21949166871E+04  0.25500000000E-02 0.  1.
   -5000001    1    1    2    0    0 -0.36069447676E+03  0.67742342576E+02 -0.82211404158E+03  0.93437734771E+03  0.25000000000E+03 0.  0.
    5000001    1    1    2    0    0  0.36069447676E+03 -0.67742342576E+02 -0.12792300654E+04  0.13541119196E+04  0.25000000000E+03 0.  0.
<mgrwt>
<rscale>  0 0.90638627E+03</rscale>
<asrwt>0</asrwt>
<pdfrwt beam="1">  1        2 0.33767945E+00 0.90638627E+03</pdfrwt>
<pdfrwt beam="2">  1       -2 0.14395783E-01 0.90638627E+03</pdfrwt>
<totfact> 0.19817862E+02</totfact>
</mgrwt>
</event>
<event>
 4    1  0.1714834E-005  0.6024398E+03  0.7818608E-02  0.9900357E-01
         -2   -1    0    0    0  501 -0.00000000000E+00  0.00000000000E+00  0.73223972215E+02  0.73223972260E+02  0.25500000000E-02 0. -1.
          2   -1    0    0  501    0  0.00000000000E+00 -0.00000000000E+00 -0.12391220805E+04  0.12391220805E+04  0.25500000000E-02 0.  1.
   -5000001    1    1    2    0    0 -0.78261150664E+02  0.38085912950E+02 -0.26985138629E+03  0.37801470230E+03  0.25000000000E+03 0.  0.
    5000001    1    1    2    0    0  0.78261150664E+02 -0.38085912950E+02 -0.89604672198E+03  0.93433135045E+03  0.25000000000E+03 0.  0.
<mgrwt>
<rscale>  0 0.60243984E+03</rscale>
<asrwt>0</asrwt>
<pdfrwt beam="1">  1        2 0.19063415E+00 0.60243984E+03</pdfrwt>
<pdfrwt beam="2">  1       -2 0.11265227E-01 0.60243984E+03</pdfrwt>
<totfact> 0.10266811E+03</totfact>
</mgrwt>
</event>
<event>
 4    1  0.1714834E-005  0.8949231E+03  0.7818608E-02  0.9431950E-01
          2   -1    0    0  501    0  0.00000000000E+00  0.00000000000E+00  0.80329559418E+03  0.80329559419E+03  0.25500000000E-02 0.  1.
         -2   -1    0    0    0  501 -0.00000000000E+00 -0.00000000000E+00 -0.24925050594E+03  0.24925050596E+03  0.25500000000E-02 0. -1.
   -5000001    1    1    2    0    0  0.32646874533E+03  0.15932605360E+03  0.18779773376E+03  0.47930639662E+03  0.25000000000E+03 0.  0.
    5000001    1    1    2    0    0 -0.32646874533E+03 -0.15932605360E+03  0.36624735448E+03  0.57323970353E+03  0.25000000000E+03 0.  0.
<mgrwt>
<rscale>  0 0.89492309E+03</rscale>
<asrwt>0</asrwt>
<pdfrwt beam="1">  1        2 0.12358394E+00 0.89492309E+03</pdfrwt>
<pdfrwt beam="2">  1       -2 0.38346232E-01 0.89492309E+03</pdfrwt>
<totfact> 0.22052637E+02</totfact>
</mgrwt>
</event>
<event>
 4    1  0.1714834E-005  0.5598951E+03  0.7818608E-02  0.9992292E-01
          2   -1    0    0  501    0  0.00000000000E+00  0.00000000000E+00  0.41209538068E+03  0.41209538068E+03  0.25500000000E-02 0.  1.
         -2   -1    0    0    0  501 -0.00000000000E+00 -0.00000000000E+00 -0.19017595512E+03  0.19017595514E+03  0.25500000000E-02 0. -1.
   -5000001    1    1    2    0    0  0.37560596350E+02 -0.12018040782E+03  0.10658975138E+03  0.29952546456E+03  0.25000000000E+03 0.  0.
    5000001    1    1    2    0    0 -0.37560596350E+02  0.12018040782E+03  0.11532967417E+03  0.30274587126E+03  0.25000000000E+03 0.  0.
<mgrwt>
<rscale>  0 0.55989511E+03</rscale>
<asrwt>0</asrwt>
<pdfrwt beam="1">  1        2 0.63399289E-01 0.55989511E+03</pdfrwt>
<pdfrwt beam="2">  1       -2 0.29257839E-01 0.55989511E+03</pdfrwt>
<totfact> 0.82925906E+02</totfact>
</mgrwt>
</event>
<event>
 4    1  0.1714834E-005  0.6951485E+03  0.7818608E-02  0.9725565E-01
          2   -1    0    0  501    0  0.00000000000E+00  0.00000000000E+00  0.68598554127E+03  0.68598554128E+03  0.25500000000E-02 0.  1.
         -2   -1    0    0    0  501 -0.00000000000E+00 -0.00000000000E+00 -0.17610845385E+03  0.17610845387E+03  0.25500000000E-02 0. -1.
   -5000001    1    1    2    0    0  0.52260918244E+02 -0.35504180476E+02  0.54396749122E+03  0.60199035035E+03  0.25000000000E+03 0.  0.
    5000001    1    1    2    0    0 -0.52260918244E+02  0.35504180476E+02 -0.34090403793E+02  0.26010364480E+03  0.25000000000E+03 0.  0.
<mgrwt>
<rscale>  0 0.69514848E+03</rscale>
<asrwt>0</asrwt>
<pdfrwt beam="1">  1        2 0.10553624E+00 0.69514848E+03</pdfrwt>
<pdfrwt beam="2">  1       -2 0.27093608E-01 0.69514848E+03</pdfrwt>
<totfact> 0.52344502E+02</totfact>
</mgrwt>
</event>
<event>
 4    1  0.1714834E-005  0.6566448E+03  0.7818608E-02  0.9794390E-01
          2   -1    0    0  501    0  0.00000000000E+00  0.00000000000E+00  0.34949834621E+03  0.34949834622E+03  0.25500000000E-02 0.  1.
         -2   -1    0    0    0  501 -0.00000000000E+00 -0.00000000000E+00 -0.30842953186E+03  0.30842953187E+03  0.25500000000E-02 0. -1.
   -5000001    1    1    2    0    0 -0.20488587971E+03  0.52612219824E+02 -0.29494337075E+01  0.32749804357E+03  0.25000000000E+03 0.  0.
    5000001    1    1    2    0    0  0.20488587971E+03 -0.52612219824E+02  0.44018248057E+02  0.33042983452E+03  0.25000000000E+03 0.  0.
<mgrwt>
<rscale>  0 0.65664484E+03</rscale>
<asrwt>0</asrwt>
<pdfrwt beam="1">  1        2 0.53768976E-01 0.65664484E+03</pdfrwt>
<pdfrwt beam="2">  1       -2 0.47450697E-01 0.65664484E+03</pdfrwt>
<totfact> 0.39314366E+02</totfact>
</mgrwt>
</event>
<event>
 4    1  0.1714834E-005  0.6373437E+03  0.7818608E-02  0.9830822E-01
          2   -1    0    0  501    0  0.00000000000E+00  0.00000000000E+00  0.14595691269E+04  0.14595691269E+04  0.25500000000E-02 0.  1.
         -2   -1    0    0    0  501 -0.00000000000E+00 -0.00000000000E+00 -0.69576529477E+02  0.69576529524E+02  0.25500000000E-02 0. -1.
   -5000001    1    1    2    0    0 -0.46781837673E+02  0.89000604184E+02  0.11031654828E+04  0.11355984019E+04  0.25000000000E+03 0.  0.
    5000001    1    1    2    0    0  0.46781837673E+02 -0.89000604184E+02  0.28682711459E+03  0.39354725452E+03  0.25000000000E+03 0.  0.
<mgrwt>
<rscale>  0 0.63734372E+03</rscale>
<asrwt>0</asrwt>
<pdfrwt beam="1">  1        2 0.22454909E+00 0.63734372E+03</pdfrwt>
<pdfrwt beam="2">  1       -2 0.10704082E-01 0.63734372E+03</pdfrwt>
<totfact> 0.83557678E+02</totfact>
</mgrwt>
</event>
<event>
 4    1  0.1714834E-005  0.6147157E+03  0.7818608E-02  0.9875337E-01
          2   -1    0    0  501    0  0.00000000000E+00  0.00000000000E+00  0.77768170181E+03  0.77768170181E+03  0.25500000000E-02 0.  1.
         -2   -1    0    0    0  501 -0.00000000000E+00 -0.00000000000E+00 -0.12147496322E+03  0.12147496325E+03  0.25500000000E-02 0. -1.
   -5000001    1    1    2    0    0 -0.17086120488E+03  0.52162646026E+02  0.31731853643E+03  0.44170753507E+03  0.25000000000E+03 0.  0.
    5000001    1    1    2    0    0  0.17086120488E+03 -0.52162646026E+02  0.33888820215E+03  0.45744912999E+03  0.25000000000E+03 0.  0.
<mgrwt>
<rscale>  0 0.61471573E+03</rscale>
<asrwt>0</asrwt>
<pdfrwt beam="1">  1        2 0.11964334E+00 0.61471573E+03</pdfrwt>
<pdfrwt beam="2">  1       -2 0.18688456E-01 0.61471573E+03</pdfrwt>
<totfact> 0.86392842E+02</totfact>
</mgrwt>
</event>
<event>
 4    1  0.1714834E-005  0.5237842E+03  0.7818608E-02  0.1007751E+00
         -2   -1    0    0    0  501 -0.00000000000E+00  0.00000000000E+00  0.14893057003E+03  0.14893057005E+03  0.25500000000E-02 0. -1.
          2   -1    0    0  501    0  0.00000000000E+00 -0.00000000000E+00 -0.46053321977E+03  0.46053321978E+03  0.25500000000E-02 0.  1.
   -5000001    1    1    2    0    0 -0.14325468619E+02  0.76671708909E+02 -0.15356164138E+03  0.30358680423E+03  0.25000000000E+03 0.  0.
    5000001    1    1    2    0    0  0.14325468619E+02 -0.76671708909E+02 -0.15804100835E+03  0.30587698560E+03  0.25000000000E+03 0.  0.
<mgrwt>
<rscale>  0 0.52378421E+03</rscale>
<asrwt>0</asrwt>
<pdfrwt beam="1">  1        2 0.70851264E-01 0.52378421E+03</pdfrwt>
<pdfrwt beam="2">  1       -2 0.22912396E-01 0.52378421E+03</pdfrwt>
<totfact> 0.11373096E+03</totfact>
</mgrwt>
</event>
<event>
 4    1  0.1714834E-005  0.9052200E+03  0.7818608E-02  0.9419080E-01
         -2   -1    0    0    0  501 -0.00000000000E+00  0.00000000000E+00  0.28069511661E+03  0.28069511662E+03  0.25500000000E-02 0. -1.
          2   -1    0    0  501    0  0.00000000000E+00 -0.00000000000E+00 -0.72981600886E+03  0.72981600886E+03  0.25500000000E-02 0.  1.
   -5000001    1    1    2    0    0  0.25896874117E+03  0.27375935823E+03 -0.24534894542E+03  0.51449499526E+03  0.25000000000E+03 0.  0.
    5000001    1    1    2    0    0 -0.25896874117E+03 -0.27375935823E+03 -0.20377194683E+03  0.49601613022E+03  0.25000000000E+03 0.  0.
<mgrwt>
<rscale>  0 0.90521995E+03</rscale>
<asrwt>0</asrwt>
<pdfrwt beam="1">  1        2 0.11227939E+00 0.90521995E+03</pdfrwt>
<pdfrwt beam="2">  1       -2 0.43183864E-01 0.90521995E+03</pdfrwt>
<totfact> 0.19799049E+02</totfact>
</mgrwt>
</event>
<event>
 4    1  0.1714834E-005  0.5904762E+03  0.7818608E-02  0.9925364E-01
          2   -1    0    0  501    0  0.00000000000E+00  0.00000000000E+00  0.21239211505E+04  0.21239211505E+04  0.25500000000E-02 0.  1.
         -2   -1    0    0    0  501 -0.00000000000E+00 -0.00000000000E+00 -0.41039915059E+02  0.41039915139E+02  0.25500000000E-02 0. -1.
   -5000001    1    1    2    0    0  0.90359021767E+02  0.12842601965E+03  0.10313672675E+04  0.10727890919E+04  0.25000000000E+03 0.  0.
    5000001    1    1    2    0    0 -0.90359021767E+02 -0.12842601965E+03  0.10515139679E+04  0.10921719737E+04  0.25000000000E+03 0.  0.
<mgrwt>
<rscale>  0 0.59047623E+03</rscale>
<asrwt>0</asrwt>
<pdfrwt beam="1">  1        2 0.32675707E+00 0.59047623E+03</pdfrwt>
<pdfrwt beam="2">  1       -2 0.63138336E-02 0.59047623E+03</pdfrwt>
<totfact> 0.84731093E+02</totfact>
</mgrwt>
</event>
<event>
 4    1  0.1714834E-005  0.9198208E+03  0.7818608E-02  0.9401138E-01
         -2   -1    0    0    0  501 -0.00000000000E+00  0.00000000000E+00  0.47731458772E+03  0.47731458773E+03  0.25500000000E-02 0. -1.
          2   -1    0    0  501    0  0.00000000000E+00 -0.00000000000E+00 -0.44314080074E+03  0.44314080074E+03  0.25500000000E-02 0.  1.
   -5000001    1    1    2    0    0  0.31857840441E+03 -0.31880837760E+02 -0.19872130449E+03  0.45221537394E+03  0.25000000000E+03 0.  0.
    5000001    1    1    2    0    0 -0.31857840441E+03  0.31880837760E+02  0.23289509148E+03  0.46824001453E+03  0.25000000000E+03 0.  0.
<mgrwt>
<rscale>  0 0.91982078E+03</rscale>
<asrwt>0</asrwt>
<pdfrwt beam="1">  1        2 0.68175508E-01 0.91982078E+03</pdfrwt>
<pdfrwt beam="2">  1       -2 0.73433013E-01 0.91982078E+03</pdfrwt>
<totfact> 0.11880775E+02</totfact>
</mgrwt>
</event>
<event>
 4    1  0.1714834E-005  0.6394793E+03  0.7818608E-02  0.9826723E-01
         -2   -1    0    0    0  501 -0.00000000000E+00  0.00000000000E+00  0.17260349465E+03  0.17260349467E+03  0.25500000000E-02 0. -1.
          2   -1    0    0  501    0  0.00000000000E+00 -0.00000000000E+00 -0.59230230363E+03  0.59230230364E+03  0.25500000000E-02 0.  1.
   -5000001    1    1    2    0    0  0.43207602617E+02 -0.33689371636E+02 -0.43909512672E+03  0.50823852765E+03  0.25000000000E+03 0.  0.
    5000001    1    1    2    0    0 -0.43207602617E+02  0.33689371636E+02  0.19396317739E+02  0.25666727066E+03  0.25000000000E+03 0.  0.
<mgrwt>
<rscale>  0 0.63947931E+03</rscale>
<asrwt>0</asrwt>
<pdfrwt beam="1">  1        2 0.91123430E-01 0.63947931E+03</pdfrwt>
<pdfrwt beam="2">  1       -2 0.26554384E-01 0.63947931E+03</pdfrwt>
<totfact> 0.65069878E+02</totfact>
</mgrwt>
</event>
<event>
 4    1  0.1714834E-005  0.1127544E+04  0.7818608E-02  0.9178754E-01
          2   -1    0    0  501    0  0.00000000000E+00  0.00000000000E+00  0.12248381839E+04  0.12248381839E+04  0.25500000000E-02 0.  1.
         -2   -1    0    0    0  501 -0.00000000000E+00 -0.00000000000E+00 -0.25949445504E+03  0.25949445506E+03  0.25500000000E-02 0. -1.
   -5000001    1    1    2    0    0 -0.24710098690E+03  0.44064187827E+03  0.49676163186E+03  0.75132967565E+03  0.25000000000E+03 0.  0.
    5000001    1    1    2    0    0  0.24710098690E+03 -0.44064187827E+03  0.46858209703E+03  0.73300296335E+03  0.25000000000E+03 0.  0.
<mgrwt>
<rscale>  0 0.11275437E+04</rscale>
<asrwt>0</asrwt>
<pdfrwt beam="1">  1        2 0.18843664E+00 0.11275437E+04</pdfrwt>
<pdfrwt beam="2">  1       -2 0.39922225E-01 0.11275437E+04</pdfrwt>
<totfact> 0.10764341E+02</totfact>
</mgrwt>
</event>
<event>
 4    1  0.1714834E-005  0.7807008E+03  0.7818608E-02  0.9588380E-01
         -2   -1    0    0    0  501 -0.00000000000E+00  0.00000000000E+00  0.17353566681E+03  0.17353566683E+03  0.25500000000E-02 0. -1.
          2   -1    0    0  501    0  0.00000000000E+00 -0.00000000000E+00 -0.87805244954E+03  0.87805244955E+03  0.25500000000E-02 0.  1.
   -5000001    1    1    2    0    0  0.43827507266E+02 -0.29040121961E+03 -0.43329798874E+03  0.58008694675E+03  0.25000000000E+03 0.  0.
    5000001    1    1    2    0    0 -0.43827507266E+02  0.29040121961E+03 -0.27121879400E+03  0.47150116963E+03  0.25000000000E+03 0.  0.
<mgrwt>
<rscale>  0 0.78070076E+03</rscale>
<asrwt>0</asrwt>
<pdfrwt beam="1">  1        2 0.13508499E+00 0.78070076E+03</pdfrwt>
<pdfrwt beam="2">  1       -2 0.26697796E-01 0.78070076E+03</pdfrwt>
<totfact> 0.38786122E+02</totfact>
</mgrwt>
</event>
<event>
 4    1  0.1714834E-005  0.1120749E+04  0.7818608E-02  0.9185201E-01
         -2   -1    0    0    0  501 -0.00000000000E+00  0.00000000000E+00  0.10059241422E+03  0.10059241425E+03  0.25500000000E-02 0. -1.
          2   -1    0    0  501    0  0.00000000000E+00 -0.00000000000E+00 -0.31217015096E+04  0.31217015096E+04  0.25500000000E-02 0.  1.
   -5000001    1    1    2    0    0 -0.42609450293E+02  0.48161160074E+03 -0.18936502780E+04  0.19703240025E+04  0.25000000000E+03 0.  0.
    5000001    1    1    2    0    0  0.42609450293E+02 -0.48161160074E+03 -0.11274588173E+04  0.12519699214E+04  0.25000000000E+03 0.  0.
<mgrwt>
<rscale>  0 0.11207488E+04</rscale>
<asrwt>0</asrwt>
<pdfrwt beam="1">  1        2 0.48026170E+00 0.11207488E+04</pdfrwt>
<pdfrwt beam="2">  1       -2 0.15475758E-01 0.11207488E+04</pdfrwt>
<totfact> 0.49130535E+01</totfact>
</mgrwt>
</event>
<event>
 4    1  0.1714834E-005  0.6665165E+03  0.7818608E-02  0.9776271E-01
          2   -1    0    0  501    0  0.00000000000E+00  0.00000000000E+00  0.18643183640E+04  0.18643183640E+04  0.25500000000E-02 0.  1.
         -2   -1    0    0    0  501 -0.00000000000E+00 -0.00000000000E+00 -0.59571933625E+02  0.59571933679E+02  0.25500000000E-02 0. -1.
   -5000001    1    1    2    0    0  0.98313531463E+02  0.74777793237E+02  0.37560908657E+03  0.46780279471E+03  0.25000000000E+03 0.  0.
    5000001    1    1    2    0    0 -0.98313531463E+02 -0.74777793237E+02  0.14291373438E+04  0.14560875030E+04  0.25000000000E+03 0.  0.
<mgrwt>
<rscale>  0 0.66651647E+03</rscale>
<asrwt>0</asrwt>
<pdfrwt beam="1">  1        2 0.28681816E+00 0.66651647E+03</pdfrwt>
<pdfrwt beam="2">  1       -2 0.91649144E-02 0.66651647E+03</pdfrwt>
<totfact> 0.64451241E+02</totfact>
</mgrwt>
</event>
<event>
 4    1  0.1714834E-005  0.5872969E+03  0.7818608E-02  0.9932117E-01
         -2   -1    0    0    0  501 -0.00000000000E+00  0.00000000000E+00  0.30491473141E+03  0.30491473142E+03  0.25500000000E-02 0. -1.
          2   -1    0    0  501    0  0.00000000000E+00 -0.00000000000E+00 -0.28279843060E+03  0.28279843061E+03  0.25500000000E-02 0.  1.
   -5000001    1    1    2    0    0  0.68198117115E+02  0.10807153906E+03  0.97136366712E+02  0.29709580016E+03  0.25000000000E+03 0.  0.
    5000001    1    1    2    0    0 -0.68198117115E+02 -0.10807153906E+03 -0.75020065905E+02  0.29061736187E+03  0.25000000000E+03 0.  0.
<mgrwt>
<rscale>  0 0.58729688E+03</rscale>
<asrwt>0</asrwt>
<pdfrwt beam="1">  1        2 0.43507451E-01 0.58729688E+03</pdfrwt>
<pdfrwt beam="2">  1       -2 0.46909958E-01 0.58729688E+03</pdfrwt>
<totfact> 0.50932105E+02</totfact>
</mgrwt>
</event>
<event>
 4    1  0.1714834E-005  0.5435000E+03  0.7818608E-02  0.1003010E+00
          2   -1    0    0  501    0  0.00000000000E+00  0.00000000000E+00  0.46940360467E+04  0.46940360467E+04  0.25500000000E-02 0.  1.
         -2   -1    0    0    0  501 -0.00000000000E+00 -0.00000000000E+00 -0.15732318155E+02  0.15732318362E+02  0.25500000000E-02 0. -1.
   -5000001    1    1    2    0    0  0.99415360446E+02 -0.13685059880E+02  0.26488645963E+04  0.26625278110E+04  0.25000000000E+03 0.  0.
    5000001    1    1    2    0    0 -0.99415360446E+02  0.13685059880E+02  0.20294391323E+04  0.20472405541E+04  0.25000000000E+03 0.  0.
<mgrwt>
<rscale>  0 0.54350002E+03</rscale>
<asrwt>0</asrwt>
<pdfrwt beam="1">  1        2 0.72215928E+00 0.54350002E+03</pdfrwt>
<pdfrwt beam="2">  1       -2 0.24203570E-02 0.54350002E+03</pdfrwt>
<totfact> 0.58542163E+01</totfact>
</mgrwt>
</event>
<event>
 4    1  0.1714834E-005  0.5800817E+03  0.7818608E-02  0.9947614E-01
         -2   -1    0    0    0  501 -0.00000000000E+00  0.00000000000E+00  0.32275523309E+02  0.32275523410E+02  0.25500000000E-02 0. -1.
          2   -1    0    0  501    0  0.00000000000E+00 -0.00000000000E+00 -0.26064237461E+04  0.26064237461E+04  0.25500000000E-02 0.  1.
   -5000001    1    1    2    0    0 -0.11695408741E+03 -0.77440561618E+02 -0.14878626137E+04  0.15152262063E+04  0.25000000000E+03 0.  0.
    5000001    1    1    2    0    0  0.11695408741E+03  0.77440561618E+02 -0.10862856091E+04  0.11234730632E+04  0.25000000000E+03 0.  0.
<mgrwt>
<rscale>  0 0.58008169E+03</rscale>
<asrwt>0</asrwt>
<pdfrwt beam="1">  1        2 0.40098810E+00 0.58008169E+03</pdfrwt>
<pdfrwt beam="2">  1       -2 0.49654672E-02 0.58008169E+03</pdfrwt>
<totfact> 0.66555814E+02</totfact>
</mgrwt>
</event>
<event>
 4    1  0.1714834E-005  0.6587950E+03  0.7818608E-02  0.9790415E-01
         -2   -1    0    0    0  501 -0.00000000000E+00  0.00000000000E+00  0.27877950904E+03  0.27877950905E+03  0.25500000000E-02 0. -1.
          2   -1    0    0  501    0  0.00000000000E+00 -0.00000000000E+00 -0.38920617201E+03  0.38920617202E+03  0.25500000000E-02 0.  1.
   -5000001    1    1    2    0    0  0.43025140214E+02 -0.17967212774E+03 -0.16568032282E+03  0.35225446136E+03  0.25000000000E+03 0.  0.
    5000001    1    1    2    0    0 -0.43025140214E+02  0.17967212774E+03  0.55253659850E+02  0.31573121971E+03  0.25000000000E+03 0.  0.
<mgrwt>
<rscale>  0 0.65879498E+03</rscale>
<asrwt>0</asrwt>
<pdfrwt beam="1">  1        2 0.59877873E-01 0.65879498E+03</pdfrwt>
<pdfrwt beam="2">  1       -2 0.42889155E-01 0.65879498E+03</pdfrwt>
<totfact> 0.42632730E+02</totfact>
</mgrwt>
</event>
<event>
 4    1  0.1714834E-005  0.8401841E+03  0.7818608E-02  0.9503607E-01
         -2   -1    0    0    0  501 -0.00000000000E+00  0.00000000000E+00  0.22688316396E+03  0.22688316397E+03  0.25500000000E-02 0. -1.
          2   -1    0    0  501    0  0.00000000000E+00 -0.00000000000E+00 -0.77783360637E+03  0.77783360637E+03  0.25500000000E-02 0.  1.
   -5000001    1    1    2    0    0  0.30226194824E+03 -0.83832198569E+02 -0.12617735651E+03  0.42048882050E+03  0.25000000000E+03 0.  0.
    5000001    1    1    2    0    0 -0.30226194824E+03  0.83832198569E+02 -0.42477308590E+03  0.58422794984E+03  0.25000000000E+03 0.  0.
<mgrwt>
<rscale>  0 0.84018415E+03</rscale>
<asrwt>0</asrwt>
<pdfrwt beam="1">  1        2 0.11966671E+00 0.84018415E+03</pdfrwt>
<pdfrwt beam="2">  1       -2 0.34905102E-01 0.84018415E+03</pdfrwt>
<totfact> 0.27639254E+02</totfact>
</mgrwt>
</event>
<event>
 4    1  0.1714834E-005  0.8031270E+03  0.7818608E-02  0.9555502E-01
         -2   -1    0    0    0  501 -0.00000000000E+00  0.00000000000E+00  0.30412466675E+03  0.30412466676E+03  0.25500000000E-02 0. -1.
          2   -1    0    0  501    0  0.00000000000E+00 -0.00000000000E+00 -0.53022086422E+03  0.53022086423E+03  0.25500000000E-02 0.  1.
   -5000001    1    1    2    0    0  0.31375059681E+03  0.16381345556E+02 -0.10604375144E+03  0.41527468343E+03  0.25000000000E+03 0.  0.
    5000001    1    1    2    0    0 -0.31375059681E+03 -0.16381345556E+02 -0.12005244603E+03  0.41907084756E+03  0.25000000000E+03 0.  0.
<mgrwt>
<rscale>  0 0.80312700E+03</rscale>
<asrwt>0</asrwt>
<pdfrwt beam="1">  1        2 0.81572440E-01 0.80312700E+03</pdfrwt>
<pdfrwt beam="2">  1       -2 0.46788410E-01 0.80312700E+03</pdfrwt>
<totfact> 0.25060426E+02</totfact>
</mgrwt>
</event>
<event>
 4    1  0.1714834E-005  0.1170080E+04  0.7818608E-02  0.9139456E-01
         -2   -1    0    0    0  501 -0.00000000000E+00  0.00000000000E+00  0.35071750061E+03  0.35071750062E+03  0.25500000000E-02 0. -1.
          2   -1    0    0  501    0  0.00000000000E+00 -0.00000000000E+00 -0.97591897553E+03  0.97591897553E+03  0.25500000000E-02 0.  1.
   -5000001    1    1    2    0    0  0.55588622972E+01 -0.38967965118E+03 -0.71806807544E+03  0.85440206721E+03  0.25000000000E+03 0.  0.
    5000001    1    1    2    0    0 -0.55588622972E+01  0.38967965118E+03  0.92866600523E+02  0.47223440894E+03  0.25000000000E+03 0.  0.
<mgrwt>
<rscale>  0 0.11700801E+04</rscale>
<asrwt>0</asrwt>
<pdfrwt beam="1">  1        2 0.15014138E+00 0.11700801E+04</pdfrwt>
<pdfrwt beam="2">  1       -2 0.53956539E-01 0.11700801E+04</pdfrwt>
<totfact> 0.83505237E+01</totfact>
</mgrwt>
</event>
<event>
 4    1  0.1714834E-005  0.9771488E+03  0.7818608E-02  0.9333969E-01
          2   -1    0    0  501    0  0.00000000000E+00  0.00000000000E+00  0.21461143333E+04  0.21461143333E+04  0.25500000000E-02 0.  1.
         -2   -1    0    0    0  501 -0.00000000000E+00 -0.00000000000E+00 -0.11122656789E+03  0.11122656792E+03  0.25500000000E-02 0. -1.
   -5000001    1    1    2    0    0  0.15758928376E+03  0.21001038618E+03  0.17740465721E+04  0.18107125627E+04  0.25000000000E+03 0.  0.
    5000001    1    1    2    0    0 -0.15758928376E+03 -0.21001038618E+03  0.26084119331E+03  0.44662833854E+03  0.25000000000E+03 0.  0.
<mgrwt>
<rscale>  0 0.97714877E+03</rscale>
<asrwt>0</asrwt>
<pdfrwt beam="1">  1        2 0.33017141E+00 0.97714877E+03</pdfrwt>
<pdfrwt beam="2">  1       -2 0.17111781E-01 0.97714877E+03</pdfrwt>
<totfact> 0.15618704E+02</totfact>
</mgrwt>
</event>
<event>
 4    1  0.1714834E-005  0.8187900E+03  0.7818608E-02  0.9533211E-01
         -2   -1    0    0    0  501 -0.00000000000E+00  0.00000000000E+00  0.27346753008E+03  0.27346753009E+03  0.25500000000E-02 0. -1.
          2   -1    0    0  501    0  0.00000000000E+00 -0.00000000000E+00 -0.61288550508E+03  0.61288550509E+03  0.25500000000E-02 0.  1.
   -5000001    1    1    2    0    0  0.25102386868E+03  0.20070921760E+03 -0.12369108794E+03  0.42555452989E+03  0.25000000000E+03 0.  0.
    5000001    1    1    2    0    0 -0.25102386868E+03 -0.20070921760E+03 -0.21572688706E+03  0.46079850529E+03  0.25000000000E+03 0.  0.
<mgrwt>
<rscale>  0 0.81879005E+03</rscale>
<asrwt>0</asrwt>
<pdfrwt beam="1">  1        2 0.94290077E-01 0.81879005E+03</pdfrwt>
<pdfrwt beam="2">  1       -2 0.42071928E-01 0.81879005E+03</pdfrwt>
<totfact> 0.26024109E+02</totfact>
</mgrwt>
</event>
<event>
 4    1  0.1714834E-005  0.5699440E+03  0.7818608E-02  0.9969803E-01
         -2   -1    0    0    0  501 -0.00000000000E+00  0.00000000000E+00  0.97798766056E+03  0.97798766056E+03  0.25500000000E-02 0. -1.
          2   -1    0    0  501    0  0.00000000000E+00 -0.00000000000E+00 -0.83036877188E+02  0.83036877227E+02  0.25500000000E-02 0.  1.
   -5000001    1    1    2    0    0 -0.10141928027E+03 -0.42556975255E+02  0.29609761686E+03  0.40282845638E+03  0.25000000000E+03 0.  0.
    5000001    1    1    2    0    0  0.10141928027E+03  0.42556975255E+02  0.59885316651E+03  0.65819608141E+03  0.25000000000E+03 0.  0.
<mgrwt>
<rscale>  0 0.56994400E+03</rscale>
<asrwt>0</asrwt>
<pdfrwt beam="1">  1        2 0.12774904E-01 0.56994400E+03</pdfrwt>
<pdfrwt beam="2">  1       -2 0.15045964E+00 0.56994400E+03</pdfrwt>
<totfact> 0.14769419E+02</totfact>
</mgrwt>
</event>
<event>
 4    1  0.1714834E-005  0.5760573E+03  0.7818608E-02  0.9956363E-01
         -2   -1    0    0    0  501 -0.00000000000E+00  0.00000000000E+00  0.69089324981E+02  0.69089325028E+02  0.25500000000E-02 0. -1.
          2   -1    0    0  501    0  0.00000000000E+00 -0.00000000000E+00 -0.12007718608E+04  0.12007718608E+04  0.25500000000E-02 0.  1.
   -5000001    1    1    2    0    0  0.41376895924E+02 -0.10527037850E+03 -0.75885687106E+03  0.80694340003E+03  0.25000000000E+03 0.  0.
    5000001    1    1    2    0    0 -0.41376895924E+02  0.10527037850E+03 -0.37282566477E+03  0.46291778581E+03  0.25000000000E+03 0.  0.
<mgrwt>
<rscale>  0 0.57605735E+03</rscale>
<asrwt>0</asrwt>
<pdfrwt beam="1">  1        2 0.18473412E+00 0.57605735E+03</pdfrwt>
<pdfrwt beam="2">  1       -2 0.10629128E-01 0.57605735E+03</pdfrwt>
<totfact> 0.11896604E+03</totfact>
</mgrwt>
</event>
<event>
 4    1  0.1714834E-005  0.1075265E+04  0.7818608E-02  0.9229641E-01
         -2   -1    0    0    0  501 -0.00000000000E+00  0.00000000000E+00  0.93878743953E+02  0.93878743988E+02  0.25500000000E-02 0. -1.
          2   -1    0    0  501    0  0.00000000000E+00 -0.00000000000E+00 -0.30789606327E+04  0.30789606327E+04  0.25500000000E-02 0.  1.
   -5000001    1    1    2    0    0  0.10807654045E+03  0.39349097484E+03 -0.22155244539E+04  0.22666195737E+04  0.25000000000E+03 0.  0.
    5000001    1    1    2    0    0 -0.10807654045E+03 -0.39349097484E+03 -0.76955743486E+03  0.90621980304E+03  0.25000000000E+03 0.  0.
<mgrwt>
<rscale>  0 0.10752655E+04</rscale>
<asrwt>0</asrwt>
<pdfrwt beam="1">  1        2 0.47368617E+00 0.10752655E+04</pdfrwt>
<pdfrwt beam="2">  1       -2 0.14442886E-01 0.10752655E+04</pdfrwt>
<totfact> 0.59053978E+01</totfact>
</mgrwt>
</event>
<event>
 4    1  0.1714834E-005  0.8155985E+03  0.7818608E-02  0.9537709E-01
          2   -1    0    0  501    0  0.00000000000E+00  0.00000000000E+00  0.27882968322E+03  0.27882968323E+03  0.25500000000E-02 0.  1.
         -2   -1    0    0    0  501 -0.00000000000E+00 -0.00000000000E+00 -0.59642226912E+03  0.59642226912E+03  0.25500000000E-02 0. -1.
   -5000001    1    1    2    0    0 -0.26227819419E+03 -0.11558906853E+03 -0.89667258071E+00  0.38033076122E+03  0.25000000000E+03 0.  0.
    5000001    1    1    2    0    0  0.26227819419E+03  0.11558906853E+03 -0.31669591332E+03  0.49492119113E+03  0.25000000000E+03 0.  0.
<mgrwt>
<rscale>  0 0.81559851E+03</rscale>
<asrwt>0</asrwt>
<pdfrwt beam="1">  1        2 0.42896874E-01 0.81559851E+03</pdfrwt>
<pdfrwt beam="2">  1       -2 0.91757272E-01 0.81559851E+03</pdfrwt>
<totfact> 0.12121184E+02</totfact>
</mgrwt>
</event>
<event>
 4    1  0.1714834E-005  0.9367957E+03  0.7818608E-02  0.9380719E-01
          2   -1    0    0  501    0  0.00000000000E+00  0.00000000000E+00  0.22056178581E+04  0.22056178581E+04  0.25500000000E-02 0.  1.
         -2   -1    0    0    0  501 -0.00000000000E+00 -0.00000000000E+00 -0.99471688814E+02  0.99471688847E+02  0.25500000000E-02 0. -1.
   -5000001    1    1    2    0    0  0.33354516357E+03 -0.56710247992E+02  0.54623441520E+03  0.68944939242E+03  0.25000000000E+03 0.  0.
    5000001    1    1    2    0    0 -0.33354516357E+03  0.56710247992E+02  0.15599117541E+04  0.16156401545E+04  0.25000000000E+03 0.  0.
<mgrwt>
<rscale>  0 0.93679567E+03</rscale>
<asrwt>0</asrwt>
<pdfrwt beam="1">  1        2 0.33932582E+00 0.93679567E+03</pdfrwt>
<pdfrwt beam="2">  1       -2 0.15303337E-01 0.93679567E+03</pdfrwt>
<totfact> 0.17582162E+02</totfact>
</mgrwt>
</event>
<event>
 4    1  0.1714834E-005  0.5508519E+03  0.7818608E-02  0.1001297E+00
          2   -1    0    0  501    0  0.00000000000E+00  0.00000000000E+00  0.15970249873E+04  0.15970249873E+04  0.25500000000E-02 0.  1.
         -2   -1    0    0    0  501 -0.00000000000E+00 -0.00000000000E+00 -0.47500484889E+02  0.47500484958E+02  0.25500000000E-02 0. -1.
   -5000001    1    1    2    0    0  0.81813761941E+02 -0.34081841813E+02  0.99625557278E+03  0.10309608285E+04  0.25000000000E+03 0.  0.
    5000001    1    1    2    0    0 -0.81813761941E+02  0.34081841813E+02  0.55326892958E+03  0.61356464372E+03  0.25000000000E+03 0.  0.
<mgrwt>
<rscale>  0 0.55085193E+03</rscale>
<asrwt>0</asrwt>
<pdfrwt beam="1">  1        2 0.24569615E+00 0.55085193E+03</pdfrwt>
<pdfrwt beam="2">  1       -2 0.73077670E-02 0.55085193E+03</pdfrwt>
<totfact> 0.13010606E+03</totfact>
</mgrwt>
</event>
<event>
 4    1  0.1714834E-005  0.9726852E+03  0.7818608E-02  0.9339021E-01
          2   -1    0    0  501    0  0.00000000000E+00  0.00000000000E+00  0.17896371872E+04  0.17896371872E+04  0.25500000000E-02 0.  1.
         -2   -1    0    0    0  501 -0.00000000000E+00 -0.00000000000E+00 -0.13216597445E+03  0.13216597448E+03  0.25500000000E-02 0. -1.
   -5000001    1    1    2    0    0 -0.26387928048E+03 -0.21570338785E+03  0.13040262388E+04  0.13708189733E+04  0.25000000000E+03 0.  0.
    5000001    1    1    2    0    0  0.26387928048E+03  0.21570338785E+03  0.35344497397E+03  0.55098418836E+03  0.25000000000E+03 0.  0.
<mgrwt>
<rscale>  0 0.97268524E+03</rscale>
<asrwt>0</asrwt>
<pdfrwt beam="1">  1        2 0.27532879E+00 0.97268524E+03</pdfrwt>
<pdfrwt beam="2">  1       -2 0.20333228E-01 0.97268524E+03</pdfrwt>
<totfact> 0.18178702E+02</totfact>
</mgrwt>
</event>
<event>
 4    1  0.1714834E-005  0.5872701E+03  0.7818608E-02  0.9932174E-01
          2   -1    0    0  501    0  0.00000000000E+00  0.00000000000E+00  0.11804862218E+04  0.11804862218E+04  0.25500000000E-02 0.  1.
         -2   -1    0    0    0  501 -0.00000000000E+00 -0.00000000000E+00 -0.73039007341E+02  0.73039007385E+02  0.25500000000E-02 0. -1.
   -5000001    1    1    2    0    0  0.78846168320E+01 -0.15365317416E+03  0.56882834473E+03  0.64010714016E+03  0.25000000000E+03 0.  0.
    5000001    1    1    2    0    0 -0.78846168320E+01  0.15365317416E+03  0.53861886968E+03  0.61341808898E+03  0.25000000000E+03 0.  0.
<mgrwt>
<rscale>  0 0.58727010E+03</rscale>
<asrwt>0</asrwt>
<pdfrwt beam="1">  1        2 0.18161325E+00 0.58727010E+03</pdfrwt>
<pdfrwt beam="2">  1       -2 0.11236771E-01 0.58727010E+03</pdfrwt>
<totfact> 0.11163094E+03</totfact>
</mgrwt>
</event>
<event>
 4    1  0.1714834E-005  0.7857199E+03  0.7818608E-02  0.9580920E-01
          2   -1    0    0  501    0  0.00000000000E+00  0.00000000000E+00  0.11763702624E+03  0.11763702626E+03  0.25500000000E-02 0.  1.
         -2   -1    0    0    0  501 -0.00000000000E+00 -0.00000000000E+00 -0.13119927958E+04  0.13119927958E+04  0.25500000000E-02 0. -1.
   -5000001    1    1    2    0    0 -0.16908459574E+03 -0.14395847364E+03 -0.22196348876E+03  0.40134951475E+03  0.25000000000E+03 0.  0.
    5000001    1    1    2    0    0  0.16908459574E+03  0.14395847364E+03 -0.97239228080E+03  0.10282803073E+04  0.25000000000E+03 0.  0.
<mgrwt>
<rscale>  0 0.78571988E+03</rscale>
<asrwt>0</asrwt>
<pdfrwt beam="1">  1        2 0.18098005E-01 0.78571988E+03</pdfrwt>
<pdfrwt beam="2">  1       -2 0.20184504E+00 0.78571988E+03</pdfrwt>
<totfact> 0.41998175E+01</totfact>
</mgrwt>
</event>
<event>
 4    1  0.1714834E-005  0.6837344E+03  0.7818608E-02  0.9745460E-01
         -2   -1    0    0    0  501 -0.00000000000E+00  0.00000000000E+00  0.10402652937E+03  0.10402652940E+03  0.25500000000E-02 0. -1.
          2   -1    0    0  501    0  0.00000000000E+00 -0.00000000000E+00 -0.11234940896E+04  0.11234940896E+04  0.25500000000E-02 0.  1.
   -5000001    1    1    2    0    0 -0.13549266049E+02  0.22919465951E+03 -0.43659982953E+03  0.55302186729E+03  0.25000000000E+03 0.  0.
    5000001    1    1    2    0    0  0.13549266049E+02 -0.22919465951E+03 -0.58286773065E+03  0.67449875166E+03  0.25000000000E+03 0.  0.
<mgrwt>
<rscale>  0 0.68373442E+03</rscale>
<asrwt>0</asrwt>
<pdfrwt beam="1">  1        2 0.17284524E+00 0.68373442E+03</pdfrwt>
<pdfrwt beam="2">  1       -2 0.16004082E-01 0.68373442E+03</pdfrwt>
<totfact> 0.66710477E+02</totfact>
</mgrwt>
</event>
<event>
 4    1  0.1714834E-005  0.8130746E+03  0.7818608E-02  0.9541283E-01
          2   -1    0    0  501    0  0.00000000000E+00  0.00000000000E+00  0.10450578801E+04  0.10450578801E+04  0.25500000000E-02 0.  1.
         -2   -1    0    0    0  501 -0.00000000000E+00 -0.00000000000E+00 -0.15814683410E+03  0.15814683412E+03  0.25500000000E-02 0. -1.
   -5000001    1    1    2    0    0 -0.11555639092E+03  0.23794568535E+03  0.17544382488E+03  0.40404450788E+03  0.25000000000E+03 0.  0.
    5000001    1    1    2    0    0  0.11555639092E+03 -0.23794568535E+03  0.71146722109E+03  0.79916020631E+03  0.25000000000E+03 0.  0.
<mgrwt>
<rscale>  0 0.81307465E+03</rscale>
<asrwt>0</asrwt>
<pdfrwt beam="1">  1        2 0.16077813E+00 0.81307465E+03</pdfrwt>
<pdfrwt beam="2">  1       -2 0.24330282E-01 0.81307465E+03</pdfrwt>
<totfact> 0.35654470E+02</totfact>
</mgrwt>
</event>
<event>
 4    1  0.1714834E-005  0.8209804E+03  0.7818608E-02  0.9530136E-01
          2   -1    0    0  501    0  0.00000000000E+00  0.00000000000E+00  0.91600751444E+03  0.91600751444E+03  0.25500000000E-02 0.  1.
         -2   -1    0    0    0  501 -0.00000000000E+00 -0.00000000000E+00 -0.18395284063E+03  0.18395284065E+03  0.25500000000E-02 0. -1.
   -5000001    1    1    2    0    0 -0.12122579349E+03 -0.25452058041E+03  0.58423913708E+03  0.69520629180E+03  0.25000000000E+03 0.  0.
    5000001    1    1    2    0    0  0.12122579349E+03  0.25452058041E+03  0.14781553673E+03  0.40475406330E+03  0.25000000000E+03 0.  0.
<mgrwt>
<rscale>  0 0.82098035E+03</rscale>
<asrwt>0</asrwt>
<pdfrwt beam="1">  1        2 0.14092423E+00 0.82098035E+03</pdfrwt>
<pdfrwt beam="2">  1       -2 0.28300437E-01 0.82098035E+03</pdfrwt>
<totfact> 0.32803971E+02</totfact>
</mgrwt>
</event>
<event>
 4    1  0.1714834E-005  0.9464388E+03  0.7818608E-02  0.9369323E-01
         -2   -1    0    0    0  501 -0.00000000000E+00  0.00000000000E+00  0.20964346678E+03  0.20964346679E+03  0.25500000000E-02 0. -1.
          2   -1    0    0  501    0  0.00000000000E+00 -0.00000000000E+00 -0.10681783815E+04  0.10681783815E+04  0.25500000000E-02 0.  1.
   -5000001    1    1    2    0    0  0.20605439106E+03 -0.12879358310E+03  0.27560887557E+01  0.34864565844E+03  0.25000000000E+03 0.  0.
    5000001    1    1    2    0    0 -0.20605439106E+03  0.12879358310E+03 -0.86129100350E+03  0.92917618988E+03  0.25000000000E+03 0.  0.
<mgrwt>
<rscale>  0 0.94643884E+03</rscale>
<asrwt>0</asrwt>
<pdfrwt beam="1">  1        2 0.16433513E+00 0.94643884E+03</pdfrwt>
<pdfrwt beam="2">  1       -2 0.32252842E-01 0.94643884E+03</pdfrwt>
<totfact> 0.20394993E+02</totfact>
</mgrwt>
</event>
<event>
 4    1  0.1714834E-005  0.1034045E+04  0.7818608E-02  0.9271973E-01
          2   -1    0    0  501    0  0.00000000000E+00  0.00000000000E+00  0.49353830400E+03  0.49353830401E+03  0.25500000000E-02 0.  1.
         -2   -1    0    0    0  501 -0.00000000000E+00 -0.00000000000E+00 -0.54162459657E+03  0.54162459657E+03  0.25500000000E-02 0. -1.
   -5000001    1    1    2    0    0 -0.81206986238E+02 -0.44494410476E+03 -0.84489622166E+01  0.51685705561E+03  0.25000000000E+03 0.  0.
    5000001    1    1    2    0    0  0.81206986238E+02  0.44494410476E+03 -0.39637330346E+02  0.51830584497E+03  0.25000000000E+03 0.  0.
<mgrwt>
<rscale>  0 0.10340454E+04</rscale>
<asrwt>0</asrwt>
<pdfrwt beam="1">  1        2 0.75928970E-01 0.10340454E+04</pdfrwt>
<pdfrwt beam="2">  1       -2 0.83326861E-01 0.10340454E+04</pdfrwt>
<totfact> 0.78596677E+01</totfact>
</mgrwt>
</event>
<event>
 4    1  0.1714834E-005  0.9410464E+03  0.7818608E-02  0.9375678E-01
         -2   -1    0    0    0  501 -0.00000000000E+00  0.00000000000E+00  0.74529050921E+03  0.74529050922E+03  0.25500000000E-02 0. -1.
          2   -1    0    0  501    0  0.00000000000E+00 -0.00000000000E+00 -0.29705471588E+03  0.29705471589E+03  0.25500000000E-02 0.  1.
   -5000001    1    1    2    0    0 -0.17351112847E+03  0.15933907780E+03 -0.13204981696E+03  0.36801115143E+03  0.25000000000E+03 0.  0.
    5000001    1    1    2    0    0  0.17351112847E+03 -0.15933907780E+03  0.58028561029E+03  0.67433407368E+03  0.25000000000E+03 0.  0.
<mgrwt>
<rscale>  0 0.94104635E+03</rscale>
<asrwt>0</asrwt>
<pdfrwt beam="1">  1        2 0.45700726E-01 0.94104635E+03</pdfrwt>
<pdfrwt beam="2">  1       -2 0.11466008E+00 0.94104635E+03</pdfrwt>
<totfact> 0.66000147E+01</totfact>
</mgrwt>
</event>
<event>
 4    1  0.1714834E-005  0.5856328E+03  0.7818608E-02  0.9935670E-01
          2   -1    0    0  501    0  0.00000000000E+00  0.00000000000E+00  0.11711042592E+04  0.11711042592E+04  0.25500000000E-02 0.  1.
         -2   -1    0    0    0  501 -0.00000000000E+00 -0.00000000000E+00 -0.73214192599E+02  0.73214192644E+02  0.25500000000E-02 0. -1.
   -5000001    1    1    2    0    0  0.54506762022E+01  0.10594783032E+03  0.31631929755E+03  0.41690832400E+03  0.25000000000E+03 0.  0.
    5000001    1    1    2    0    0 -0.54506762022E+01 -0.10594783032E+03  0.78157076904E+03  0.82741012783E+03  0.25000000000E+03 0.  0.
<mgrwt>
<rscale>  0 0.58563283E+03</rscale>
<asrwt>0</asrwt>
<pdfrwt beam="1">  1        2 0.18016989E+00 0.58563283E+03</pdfrwt>
<pdfrwt beam="2">  1       -2 0.11263721E-01 0.58563283E+03</pdfrwt>
<totfact> 0.11262859E+03</totfact>
</mgrwt>
</event>
<event>
 4    1  0.1714834E-005  0.7633042E+03  0.7818608E-02  0.9614706E-01
          2   -1    0    0  501    0  0.00000000000E+00  0.00000000000E+00  0.17901357958E+03  0.17901357960E+03  0.25500000000E-02 0. -1.
         -2   -1    0    0    0  501 -0.00000000000E+00 -0.00000000000E+00 -0.81367194789E+03  0.81367194789E+03  0.25500000000E-02 0.  1.
   -5000001    1    1    2    0    0  0.10302799197E+03 -0.24286605857E+03 -0.16589005984E+03  0.39952246682E+03  0.25000000000E+03 0.  0.
    5000001    1    1    2    0    0 -0.10302799197E+03  0.24286605857E+03 -0.46876830846E+03  0.59316306068E+03  0.25000000000E+03 0.  0.
<mgrwt>
<rscale>  0 0.76330421E+03</rscale>
<asrwt>0</asrwt>
<pdfrwt beam="1">  1        2 0.27540551E-01 0.76330421E+03</pdfrwt>
<pdfrwt beam="2">  1       -2 0.12518030E+00 0.76330421E+03</pdfrwt>
<totfact> 0.94539614E+01</totfact>
</mgrwt>
</event>
<event>
 4    1  0.1714834E-005  0.5643993E+03  0.7818608E-02  0.9982149E-01
          2   -1    0    0  501    0  0.00000000000E+00  0.00000000000E+00  0.31833407567E+03  0.31833407568E+03  0.25500000000E-02 0.  1.
         -2   -1    0    0    0  501 -0.00000000000E+00 -0.00000000000E+00 -0.25016691015E+03  0.25016691016E+03  0.25500000000E-02 0. -1.
   -5000001    1    1    2    0    0 -0.64506036000E+02 -0.69055965991E+02  0.12533386588E+03  0.29519202742E+03  0.25000000000E+03 0.  0.
    5000001    1    1    2    0    0  0.64506036000E+02  0.69055965991E+02 -0.57166700354E+02  0.27330895841E+03  0.25000000000E+03 0.  0.
<mgrwt>
<rscale>  0 0.56439933E+03</rscale>
<asrwt>0</asrwt>
<pdfrwt beam="1">  1        2 0.48974473E-01 0.56439933E+03</pdfrwt>
<pdfrwt beam="2">  1       -2 0.38487217E-01 0.56439933E+03</pdfrwt>
<totfact> 0.65936140E+02</totfact>
</mgrwt>
</event>
<event>
 4    1  0.1714834E-005  0.8154120E+03  0.7818608E-02  0.9537973E-01
         -2   -1    0    0    0  501 -0.00000000000E+00  0.00000000000E+00  0.25637949644E+03  0.25637949646E+03  0.25500000000E-02 0. -1.
          2   -1    0    0  501    0  0.00000000000E+00 -0.00000000000E+00 -0.64835210841E+03  0.64835210841E+03  0.25500000000E-02 0.  1.
   -5000001    1    1    2    0    0 -0.29210905714E+03  0.11296426631E+03 -0.11269278715E+03  0.41627910229E+03  0.25000000000E+03 0.  0.
    5000001    1    1    2    0    0  0.29210905714E+03 -0.11296426631E+03 -0.27927982482E+03  0.48845250258E+03  0.25000000000E+03 0.  0.
<mgrwt>
<rscale>  0 0.81541201E+03</rscale>
<asrwt>0</asrwt>
<pdfrwt beam="1">  1        2 0.99746478E-01 0.81541201E+03</pdfrwt>
<pdfrwt beam="2">  1       -2 0.39443000E-01 0.81541201E+03</pdfrwt>
<totfact> 0.27565678E+02</totfact>
</mgrwt>
</event>
<event>
 4    1  0.1714834E-005  0.6071829E+03  0.7818608E-02  0.9890615E-01
         -2   -1    0    0    0  501 -0.00000000000E+00  0.00000000000E+00  0.39407507328E+02  0.39407507411E+02  0.25500000000E-02 0. -1.
          2   -1    0    0  501    0  0.00000000000E+00 -0.00000000000E+00 -0.23388376040E+04  0.23388376040E+04  0.25500000000E-02 0.  1.
   -5000001    1    1    2    0    0  0.11268021222E+03 -0.34326505595E+02 -0.16419406581E+04  0.16650358146E+04  0.25000000000E+03 0.  0.
    5000001    1    1    2    0    0 -0.11268021222E+03  0.34326505595E+02 -0.65748943860E+03  0.71320929683E+03  0.25000000000E+03 0.  0.
<mgrwt>
<rscale>  0 0.60718287E+03</rscale>
<asrwt>0</asrwt>
<pdfrwt beam="1">  1        2 0.35982106E+00 0.60718287E+03</pdfrwt>
<pdfrwt beam="2">  1       -2 0.60626953E-02 0.60718287E+03</pdfrwt>
<totfact> 0.68742662E+02</totfact>
</mgrwt>
</event>
<event>
 4    1  0.1714834E-005  0.7209583E+03  0.7818608E-02  0.9682047E-01
          2   -1    0    0  501    0  0.00000000000E+00  0.00000000000E+00  0.13060933336E+04  0.13060933336E+04  0.25500000000E-02 0.  1.
         -2   -1    0    0    0  501 -0.00000000000E+00 -0.00000000000E+00 -0.99491514698E+02  0.99491514731E+02  0.25500000000E-02 0. -1.
   -5000001    1    1    2    0    0  0.19522011474E+03  0.12214589947E+03  0.83737298147E+03  0.90372784845E+03  0.25000000000E+03 0.  0.
    5000001    1    1    2    0    0 -0.19522011474E+03 -0.12214589947E+03  0.36922883748E+03  0.50185699993E+03  0.25000000000E+03 0.  0.
<mgrwt>
<rscale>  0 0.72095826E+03</rscale>
<asrwt>0</asrwt>
<pdfrwt beam="1">  1        2 0.20093743E+00 0.72095826E+03</pdfrwt>
<pdfrwt beam="2">  1       -2 0.15306388E-01 0.72095826E+03</pdfrwt>
<totfact> 0.56086565E+02</totfact>
</mgrwt>
</event>
<event>
 4    1  0.1714834E-005  0.6563324E+03  0.7818608E-02  0.9794969E-01
          2   -1    0    0  501    0  0.00000000000E+00  0.00000000000E+00  0.38487187240E+03  0.38487187241E+03  0.25500000000E-02 0.  1.
         -2   -1    0    0    0  501 -0.00000000000E+00 -0.00000000000E+00 -0.27981535196E+03  0.27981535197E+03  0.25500000000E-02 0. -1.
   -5000001    1    1    2    0    0  0.53661314451E+02 -0.20331814554E+03  0.20901680182E+02  0.32734490252E+03  0.25000000000E+03 0.  0.
    5000001    1    1    2    0    0 -0.53661314451E+02  0.20331814554E+03  0.84154840261E+02  0.33734232185E+03  0.25000000000E+03 0.  0.
<mgrwt>
<rscale>  0 0.65633241E+03</rscale>
<asrwt>0</asrwt>
<pdfrwt beam="1">  1        2 0.59211057E-01 0.65633241E+03</pdfrwt>
<pdfrwt beam="2">  1       -2 0.43048516E-01 0.65633241E+03</pdfrwt>
<totfact> 0.42858151E+02</totfact>
</mgrwt>
</event>
<event>
 4    1  0.1714834E-005  0.1216324E+04  0.7818608E-02  0.9098687E-01
          2   -1    0    0  501    0  0.00000000000E+00  0.00000000000E+00  0.85559652081E+03  0.85559652082E+03  0.25500000000E-02 0.  1.
         -2   -1    0    0    0  501 -0.00000000000E+00 -0.00000000000E+00 -0.43228434777E+03  0.43228434778E+03  0.25500000000E-02 0. -1.
   -5000001    1    1    2    0    0  0.20686420610E+03 -0.45417544183E+03  0.46729919436E+03  0.72796749157E+03  0.25000000000E+03 0.  0.
    5000001    1    1    2    0    0 -0.20686420610E+03  0.45417544183E+03 -0.43987021318E+02  0.55991337703E+03  0.25000000000E+03 0.  0.
<mgrwt>
<rscale>  0 0.12163239E+04</rscale>
<asrwt>0</asrwt>
<pdfrwt beam="1">  1        2 0.13163023E+00 0.12163239E+04</pdfrwt>
<pdfrwt beam="2">  1       -2 0.66505285E-01 0.12163239E+04</pdfrwt>
<totfact> 0.64448605E+01</totfact>
</mgrwt>
</event>
<event>
 4    1  0.1714834E-005  0.5634566E+03  0.7818608E-02  0.9984264E-01
          2   -1    0    0  501    0  0.00000000000E+00  0.00000000000E+00  0.73539646567E+02  0.73539646612E+02  0.25500000000E-02 0.  1.
         -2   -1    0    0    0  501 -0.00000000000E+00 -0.00000000000E+00 -0.10792933111E+04  0.10792933111E+04  0.25500000000E-02 0. -1.
   -5000001    1    1    2    0    0  0.41080799043E+02  0.11454427189E+03 -0.40995083807E+03  0.49534605268E+03  0.25000000000E+03 0.  0.
    5000001    1    1    2    0    0 -0.41080799043E+02 -0.11454427189E+03 -0.59580282649E+03  0.65748690506E+03  0.25000000000E+03 0.  0.
<mgrwt>
<rscale>  0 0.56345665E+03</rscale>
<asrwt>0</asrwt>
<pdfrwt beam="1">  1        2 0.11313793E-01 0.56345665E+03</pdfrwt>
<pdfrwt beam="2">  1       -2 0.16604511E+00 0.56345665E+03</pdfrwt>
<totfact> 0.13192883E+02</totfact>
</mgrwt>
</event>
<event>
 4    1  0.1714834E-005  0.8561985E+03  0.7818608E-02  0.9482055E-01
         -2   -1    0    0    0  501 -0.00000000000E+00  0.00000000000E+00  0.60921028583E+02  0.60921028637E+02  0.25500000000E-02 0. -1.
          2   -1    0    0  501    0  0.00000000000E+00 -0.00000000000E+00 -0.30083037152E+04  0.30083037152E+04  0.25500000000E-02 0.  1.
   -5000001    1    1    2    0    0 -0.33283604444E+03 -0.24946562266E+02 -0.18206276163E+04  0.18677759717E+04  0.25000000000E+03 0.  0.
    5000001    1    1    2    0    0  0.33283604444E+03  0.24946562266E+02 -0.11267550703E+04  0.12014487721E+04  0.25000000000E+03 0.  0.
<mgrwt>
<rscale>  0 0.85619847E+03</rscale>
<asrwt>0</asrwt>
<pdfrwt beam="1">  1        2 0.46281584E+00 0.85619847E+03</pdfrwt>
<pdfrwt beam="2">  1       -2 0.93724683E-02 0.85619847E+03</pdfrwt>
<totfact> 0.13681090E+02</totfact>
</mgrwt>
</event>
<event>
 4    1  0.1714834E-005  0.7857138E+03  0.7818608E-02  0.9580929E-01
          2   -1    0    0  501    0  0.00000000000E+00  0.00000000000E+00  0.20517394169E+04  0.20517394169E+04  0.25500000000E-02 0.  1.
         -2   -1    0    0    0  501 -0.00000000000E+00 -0.00000000000E+00 -0.75222302559E+02  0.75222302602E+02  0.25500000000E-02 0. -1.
   -5000001    1    1    2    0    0 -0.97476133605E+02 -0.17808528822E+03  0.37920021553E+03  0.49750253262E+03  0.25000000000E+03 0.  0.
    5000001    1    1    2    0    0  0.97476133605E+02  0.17808528822E+03  0.15973168988E+04  0.16294591869E+04  0.25000000000E+03 0.  0.
<mgrwt>
<rscale>  0 0.78571385E+03</rscale>
<asrwt>0</asrwt>
<pdfrwt beam="1">  1        2 0.31565221E+00 0.78571385E+03</pdfrwt>
<pdfrwt beam="2">  1       -2 0.11572662E-01 0.78571385E+03</pdfrwt>
<totfact> 0.34529921E+02</totfact>
</mgrwt>
</event>
<event>
 4    1  0.1714834E-005  0.6484770E+03  0.7818608E-02  0.9809641E-01
         -2   -1    0    0    0  501 -0.00000000000E+00  0.00000000000E+00  0.64819834249E+02  0.64819834299E+02  0.25500000000E-02 0. -1.
          2   -1    0    0  501    0  0.00000000000E+00 -0.00000000000E+00 -0.16218894596E+04  0.16218894596E+04  0.25500000000E-02 0.  1.
   -5000001    1    1    2    0    0  0.85217771782E+02 -0.18787577649E+03 -0.80048696024E+03  0.86361956297E+03  0.25000000000E+03 0.  0.
    5000001    1    1    2    0    0 -0.85217771782E+02  0.18787577649E+03 -0.75658266506E+03  0.82308973089E+03  0.25000000000E+03 0.  0.
<mgrwt>
<rscale>  0 0.64847700E+03</rscale>
<asrwt>0</asrwt>
<pdfrwt beam="1">  1        2 0.24952142E+00 0.64847700E+03</pdfrwt>
<pdfrwt beam="2">  1       -2 0.99722834E-02 0.64847700E+03</pdfrwt>
<totfact> 0.76257489E+02</totfact>
</mgrwt>
</event>
<event>
 4    1  0.1714834E-005  0.7520732E+03  0.7818608E-02  0.9632103E-01
         -2   -1    0    0    0  501 -0.00000000000E+00  0.00000000000E+00  0.32631515353E+03  0.32631515354E+03  0.25500000000E-02 0. -1.
          2   -1    0    0  501    0  0.00000000000E+00 -0.00000000000E+00 -0.43333420278E+03  0.43333420278E+03  0.25500000000E-02 0.  1.
   -5000001    1    1    2    0    0  0.20328861717E+03 -0.12778800068E+03 -0.20074308261E+03  0.40056687357E+03  0.25000000000E+03 0.  0.
    5000001    1    1    2    0    0 -0.20328861717E+03  0.12778800068E+03  0.93724033367E+02  0.35908248275E+03  0.25000000000E+03 0.  0.
<mgrwt>
<rscale>  0 0.75207318E+03</rscale>
<asrwt>0</asrwt>
<pdfrwt beam="1">  1        2 0.66666801E-01 0.75207318E+03</pdfrwt>
<pdfrwt beam="2">  1       -2 0.50202331E-01 0.75207318E+03</pdfrwt>
<totfact> 0.27480725E+02</totfact>
</mgrwt>
</event>
<event>
 4    1  0.1714834E-005  0.6555619E+03  0.7818608E-02  0.9796398E-01
          2   -1    0    0  501    0  0.00000000000E+00  0.00000000000E+00  0.66075752270E+03  0.66075752271E+03  0.25500000000E-02 0.  1.
         -2   -1    0    0    0  501 -0.00000000000E+00 -0.00000000000E+00 -0.16260177851E+03  0.16260177853E+03  0.25500000000E-02 0. -1.
   -5000001    1    1    2    0    0 -0.16823667809E+03 -0.99196174725E+02  0.35262325419E+03  0.47432754541E+03  0.25000000000E+03 0.  0.
    5000001    1    1    2    0    0  0.16823667809E+03  0.99196174725E+02  0.14553248999E+03  0.34903175583E+03  0.25000000000E+03 0.  0.
<mgrwt>
<rscale>  0 0.65556189E+03</rscale>
<asrwt>0</asrwt>
<pdfrwt beam="1">  1        2 0.10165500E+00 0.65556189E+03</pdfrwt>
<pdfrwt beam="2">  1       -2 0.25015658E-01 0.65556189E+03</pdfrwt>
<totfact> 0.63437449E+02</totfact>
</mgrwt>
</event>
<event>
 4    1  0.1714834E-005  0.1227720E+04  0.7818608E-02  0.9088934E-01
          2   -1    0    0  501    0  0.00000000000E+00  0.00000000000E+00  0.33556488558E+03  0.33556488559E+03  0.25500000000E-02 0.  1.
         -2   -1    0    0    0  501 -0.00000000000E+00 -0.00000000000E+00 -0.11229541362E+04  0.11229541362E+04  0.25500000000E-02 0. -1.
   -5000001    1    1    2    0    0 -0.27474157321E+03  0.42806393706E+03 -0.67382438909E+03  0.88048905365E+03  0.25000000000E+03 0.  0.
    5000001    1    1    2    0    0  0.27474157321E+03 -0.42806393706E+03 -0.11356486148E+03  0.57802996810E+03  0.25000000000E+03 0.  0.
<mgrwt>
<rscale>  0 0.12277198E+04</rscale>
<asrwt>0</asrwt>
<pdfrwt beam="1">  1        2 0.51625368E-01 0.12277198E+04</pdfrwt>
<pdfrwt beam="2">  1       -2 0.17276217E+00 0.12277198E+04</pdfrwt>
<totfact> 0.19416888E+01</totfact>
</mgrwt>
</event>
<event>
 4    1  0.1714834E-005  0.6426244E+03  0.7818608E-02  0.9820718E-01
         -2   -1    0    0    0  501 -0.00000000000E+00  0.00000000000E+00  0.95613377027E+02  0.95613377061E+02  0.25500000000E-02 0. -1.
          2   -1    0    0  501    0  0.00000000000E+00 -0.00000000000E+00 -0.10797813684E+04  0.10797813684E+04  0.25500000000E-02 0.  1.
   -5000001    1    1    2    0    0  0.12122391858E+03  0.78806518062E+02 -0.23448048628E+03  0.37200376903E+03  0.25000000000E+03 0.  0.
    5000001    1    1    2    0    0 -0.12122391858E+03 -0.78806518062E+02 -0.74968750507E+03  0.80339097641E+03  0.25000000000E+03 0.  0.
<mgrwt>
<rscale>  0 0.64262444E+03</rscale>
<asrwt>0</asrwt>
<pdfrwt beam="1">  1        2 0.16612020E+00 0.64262444E+03</pdfrwt>
<pdfrwt beam="2">  1       -2 0.14709751E-01 0.64262444E+03</pdfrwt>
<totfact> 0.81930423E+02</totfact>
</mgrwt>
</event>
<event>
 4    1  0.1714834E-005  0.5941967E+03  0.7818608E-02  0.9917520E-01
         -2   -1    0    0    0  501 -0.00000000000E+00  0.00000000000E+00  0.54926858765E+03  0.54926858765E+03  0.25500000000E-02 0. -1.
          2   -1    0    0  501    0  0.00000000000E+00 -0.00000000000E+00 -0.16069996554E+03  0.16069996556E+03  0.25500000000E-02 0.  1.
   -5000001    1    1    2    0    0 -0.15344999738E+03 -0.47079237898E+02  0.19186885258E+03  0.35366228655E+03  0.25000000000E+03 0.  0.
    5000001    1    1    2    0    0  0.15344999738E+03  0.47079237898E+02  0.19669976952E+03  0.35630626667E+03  0.25000000000E+03 0.  0.
<mgrwt>
<rscale>  0 0.59419675E+03</rscale>
<asrwt>0</asrwt>
<pdfrwt beam="1">  1        2 0.24723071E-01 0.59419675E+03</pdfrwt>
<pdfrwt beam="2">  1       -2 0.84502861E-01 0.59419675E+03</pdfrwt>
<totfact> 0.27411472E+02</totfact>
</mgrwt>
</event>
<event>
 4    1  0.1714834E-005  0.7000523E+03  0.7818608E-02  0.9717143E-01
         -2   -1    0    0    0  501 -0.00000000000E+00  0.00000000000E+00  0.46984848721E+02  0.46984848790E+02  0.25500000000E-02 0. -1.
          2   -1    0    0  501    0  0.00000000000E+00 -0.00000000000E+00 -0.26076127458E+04  0.26076127458E+04  0.25500000000E-02 0.  1.
   -5000001    1    1    2    0    0  0.17194029217E+03  0.13184671264E+03 -0.17138519211E+04  0.17454900249E+04  0.25000000000E+03 0.  0.
    5000001    1    1    2    0    0 -0.17194029217E+03 -0.13184671264E+03 -0.84677597602E+03  0.90910756969E+03  0.25000000000E+03 0.  0.
<mgrwt>
<rscale>  0 0.70005226E+03</rscale>
<asrwt>0</asrwt>
<pdfrwt beam="1">  1        2 0.40117108E+00 0.70005226E+03</pdfrwt>
<pdfrwt beam="2">  1       -2 0.72284403E-02 0.70005226E+03</pdfrwt>
<totfact> 0.36454682E+02</totfact>
</mgrwt>
</event>
<event>
 4    1  0.1714834E-005  0.6249745E+03  0.7818608E-02  0.9854905E-01
         -2   -1    0    0    0  501 -0.00000000000E+00  0.00000000000E+00  0.67898327756E+02  0.67898327804E+02  0.25500000000E-02 0. -1.
          2   -1    0    0  501    0  0.00000000000E+00 -0.00000000000E+00 -0.14381542393E+04  0.14381542393E+04  0.25500000000E-02 0.  1.
   -5000001    1    1    2    0    0  0.92306393897E+02  0.14609715753E+03 -0.50996778713E+03  0.59365982996E+03  0.25000000000E+03 0.  0.
    5000001    1    1    2    0    0 -0.92306393897E+02 -0.14609715753E+03 -0.86028812440E+03  0.91239273713E+03  0.25000000000E+03 0.  0.
<mgrwt>
<rscale>  0 0.62497446E+03</rscale>
<asrwt>0</asrwt>
<pdfrwt beam="1">  1        2 0.22125448E+00 0.62497446E+03</pdfrwt>
<pdfrwt beam="2">  1       -2 0.10445898E-01 0.62497446E+03</pdfrwt>
<totfact> 0.89426804E+02</totfact>
</mgrwt>
</event>
<event>
 4    1  0.1714834E-005  0.7045623E+03  0.7818608E-02  0.9709462E-01
          2   -1    0    0  501    0  0.00000000000E+00  0.00000000000E+00  0.11309407171E+04  0.11309407171E+04  0.25500000000E-02 0.  1.
         -2   -1    0    0    0  501 -0.00000000000E+00 -0.00000000000E+00 -0.10973343758E+03  0.10973343761E+03  0.25500000000E-02 0. -1.
   -5000001    1    1    2    0    0  0.18717387885E+03  0.10612143415E+03  0.29274643937E+03  0.44101734373E+03  0.25000000000E+03 0.  0.
    5000001    1    1    2    0    0 -0.18717387885E+03 -0.10612143415E+03  0.72846084014E+03  0.79965681097E+03  0.25000000000E+03 0.  0.
<mgrwt>
<rscale>  0 0.70456231E+03</rscale>
<asrwt>0</asrwt>
<pdfrwt beam="1">  1        2 0.17399088E+00 0.70456231E+03</pdfrwt>
<pdfrwt beam="2">  1       -2 0.16882067E-01 0.70456231E+03</pdfrwt>
<totfact> 0.60221664E+02</totfact>
</mgrwt>
</event>
<event>
 4    1  0.1714834E-005  0.6814378E+03  0.7818608E-02  0.9749513E-01
         -2   -1    0    0    0  501 -0.00000000000E+00  0.00000000000E+00  0.10723273321E+03  0.10723273324E+03  0.25500000000E-02 0. -1.
          2   -1    0    0  501    0  0.00000000000E+00 -0.00000000000E+00 -0.10825926512E+04  0.10825926512E+04  0.25500000000E-02 0.  1.
   -5000001    1    1    2    0    0  0.17737175971E+03  0.14386091614E+03 -0.42159094420E+03  0.54073619128E+03  0.25000000000E+03 0.  0.
    5000001    1    1    2    0    0 -0.17737175971E+03 -0.14386091614E+03 -0.55376897380E+03  0.64908919316E+03  0.25000000000E+03 0.  0.
<mgrwt>
<rscale>  0 0.68143780E+03</rscale>
<asrwt>0</asrwt>
<pdfrwt beam="1">  1        2 0.16655271E+00 0.68143780E+03</pdfrwt>
<pdfrwt beam="2">  1       -2 0.16497344E-01 0.68143780E+03</pdfrwt>
<totfact> 0.67095461E+02</totfact>
</mgrwt>
</event>
<event>
 4    1  0.1714834E-005  0.5859533E+03  0.7818608E-02  0.9934985E-01
          2   -1    0    0  501    0  0.00000000000E+00  0.00000000000E+00  0.51172022585E+03  0.51172022585E+03  0.25500000000E-02 0.  1.
         -2   -1    0    0    0  501 -0.00000000000E+00 -0.00000000000E+00 -0.16773874184E+03  0.16773874186E+03  0.25500000000E-02 0. -1.
   -5000001    1    1    2    0    0  0.21937106266E+02  0.13648540067E+03  0.24737054816E+03  0.37789110776E+03  0.25000000000E+03 0.  0.
    5000001    1    1    2    0    0 -0.21937106266E+02 -0.13648540067E+03  0.96610935848E+02  0.30156785995E+03  0.25000000000E+03 0.  0.
<mgrwt>
<rscale>  0 0.58595326E+03</rscale>
<asrwt>0</asrwt>
<pdfrwt beam="1">  1        2 0.78726188E-01 0.58595326E+03</pdfrwt>
<pdfrwt beam="2">  1       -2 0.25805960E-01 0.58595326E+03</pdfrwt>
<totfact> 0.81466441E+02</totfact>
</mgrwt>
</event>
<event>
 4    1  0.1714834E-005  0.8269691E+03  0.7818608E-02  0.9521780E-01
         -2   -1    0    0    0  501 -0.00000000000E+00  0.00000000000E+00  0.25354358059E+03  0.25354358060E+03  0.25500000000E-02 0. -1.
          2   -1    0    0  501    0  0.00000000000E+00 -0.00000000000E+00 -0.67431984842E+03  0.67431984842E+03  0.25500000000E-02 0.  1.
   -5000001    1    1    2    0    0  0.14349936501E+03 -0.12056941658E+03 -0.51424319040E+03  0.60172677425E+03  0.25000000000E+03 0.  0.
    5000001    1    1    2    0    0 -0.14349936501E+03  0.12056941658E+03  0.93466922570E+02  0.32613665477E+03  0.25000000000E+03 0.  0.
<mgrwt>
<rscale>  0 0.82696909E+03</rscale>
<asrwt>0</asrwt>
<pdfrwt beam="1">  1        2 0.10374151E+00 0.82696909E+03</pdfrwt>
<pdfrwt beam="2">  1       -2 0.39006705E-01 0.82696909E+03</pdfrwt>
<totfact> 0.26814280E+02</totfact>
</mgrwt>
</event>
<event>
 4    1  0.1714834E-005  0.6815548E+03  0.7818608E-02  0.9749306E-01
          2   -1    0    0  501    0  0.00000000000E+00  0.00000000000E+00  0.89482110881E+03  0.89482110881E+03  0.25500000000E-02 0.  1.
         -2   -1    0    0    0  501 -0.00000000000E+00 -0.00000000000E+00 -0.12977927450E+03  0.12977927452E+03  0.25500000000E-02 0. -1.
   -5000001    1    1    2    0    0  0.13702075291E+03  0.16697049637E+03  0.50807716387E+03  0.60604969914E+03  0.25000000000E+03 0.  0.
    5000001    1    1    2    0    0 -0.13702075291E+03 -0.16697049637E+03  0.25696467044E+03  0.41855068420E+03  0.25000000000E+03 0.  0.
<mgrwt>
<rscale>  0 0.68155479E+03</rscale>
<asrwt>0</asrwt>
<pdfrwt beam="1">  1        2 0.13766479E+00 0.68155479E+03</pdfrwt>
<pdfrwt beam="2">  1       -2 0.19966042E-01 0.68155479E+03</pdfrwt>
<totfact> 0.63673530E+02</totfact>
</mgrwt>
</event>
<event>
 4    1  0.1714834E-005  0.7348154E+03  0.7818608E-02  0.9659478E-01
          2   -1    0    0  501    0  0.00000000000E+00  0.00000000000E+00  0.39726236325E+03  0.39726236326E+03  0.25500000000E-02 0.  1.
         -2   -1    0    0    0  501 -0.00000000000E+00 -0.00000000000E+00 -0.33979662042E+03  0.33979662043E+03  0.25500000000E-02 0. -1.
   -5000001    1    1    2    0    0 -0.24749888171E+03  0.62887801693E+02  0.11430358516E+03  0.37520112158E+03  0.25000000000E+03 0.  0.
    5000001    1    1    2    0    0  0.24749888171E+03 -0.62887801693E+02 -0.56837842331E+02  0.36185786211E+03  0.25000000000E+03 0.  0.
<mgrwt>
<rscale>  0 0.73481537E+03</rscale>
<asrwt>0</asrwt>
<pdfrwt beam="1">  1        2 0.61117286E-01 0.73481537E+03</pdfrwt>
<pdfrwt beam="2">  1       -2 0.52276403E-01 0.73481537E+03</pdfrwt>
<totfact> 0.27924044E+02</totfact>
</mgrwt>
</event>
<event>
 4    1  0.1714834E-005  0.1255146E+04  0.7818608E-02  0.9065911E-01
          2   -1    0    0  501    0  0.00000000000E+00  0.00000000000E+00  0.12046473413E+04  0.12046473413E+04  0.25500000000E-02 0.  1.
         -2   -1    0    0    0  501 -0.00000000000E+00 -0.00000000000E+00 -0.32694027657E+03  0.32694027658E+03  0.25500000000E-02 0. -1.
   -5000001    1    1    2    0    0 -0.36259048118E+03 -0.25114045041E+02 -0.10582664224E+03  0.45365388846E+03  0.25000000000E+03 0.  0.
    5000001    1    1    2    0    0  0.36259048118E+03  0.25114045041E+02  0.98353370696E+03  0.10779337294E+04  0.25000000000E+03 0.  0.
<mgrwt>
<rscale>  0 0.12551458E+04</rscale>
<asrwt>0</asrwt>
<pdfrwt beam="1">  1        2 0.18533036E+00 0.12551458E+04</pdfrwt>
<pdfrwt beam="2">  1       -2 0.50298504E-01 0.12551458E+04</pdfrwt>
<totfact> 0.69155863E+01</totfact>
</mgrwt>
</event>
<event>
 4    1  0.1714834E-005  0.7085322E+03  0.7818608E-02  0.9702751E-01
          2   -1    0    0  501    0  0.00000000000E+00  0.00000000000E+00  0.11098093826E+04  0.11098093826E+04  0.25500000000E-02 0.  1.
         -2   -1    0    0    0  501 -0.00000000000E+00 -0.00000000000E+00 -0.11308650363E+03  0.11308650366E+03  0.25500000000E-02 0. -1.
   -5000001    1    1    2    0    0 -0.10166396638E+03 -0.21712141752E+03  0.37004504977E+03  0.50686350319E+03  0.25000000000E+03 0.  0.
    5000001    1    1    2    0    0  0.10166396638E+03  0.21712141752E+03  0.62667782918E+03  0.71603238306E+03  0.25000000000E+03 0.  0.
<mgrwt>
<rscale>  0 0.70853218E+03</rscale>
<asrwt>0</asrwt>
<pdfrwt beam="1">  1        2 0.17073990E+00 0.70853218E+03</pdfrwt>
<pdfrwt beam="2">  1       -2 0.17397924E-01 0.70853218E+03</pdfrwt>
<totfact> 0.58894245E+02</totfact>
</mgrwt>
</event>
<event>
 4    1  0.1714834E-005  0.7572859E+03  0.7818608E-02  0.9623989E-01
         -2   -1    0    0    0  501 -0.00000000000E+00  0.00000000000E+00  0.10172386834E+03  0.10172386837E+03  0.25500000000E-02 0. -1.
          2   -1    0    0  501    0  0.00000000000E+00 -0.00000000000E+00 -0.14094084782E+04  0.14094084782E+04  0.25500000000E-02 0.  1.
   -5000001    1    1    2    0    0 -0.35646652044E+02  0.23659634735E+03 -0.34715156507E+03  0.49016601730E+03  0.25000000000E+03 0.  0.
    5000001    1    1    2    0    0  0.35646652044E+02 -0.23659634735E+03 -0.96053304478E+03  0.10209663293E+04  0.25000000000E+03 0.  0.
<mgrwt>
<rscale>  0 0.75728590E+03</rscale>
<asrwt>0</asrwt>
<pdfrwt beam="1">  1        2 0.21683206E+00 0.75728590E+03</pdfrwt>
<pdfrwt beam="2">  1       -2 0.15649827E-01 0.75728590E+03</pdfrwt>
<totfact> 0.47083449E+02</totfact>
</mgrwt>
</event>
<event>
 4    1  0.1714834E-005  0.6914348E+03  0.7818608E-02  0.9731993E-01
          2   -1    0    0  501    0  0.00000000000E+00  0.00000000000E+00  0.15057268266E+04  0.15057268266E+04  0.25500000000E-02 0.  1.
         -2   -1    0    0    0  501 -0.00000000000E+00 -0.00000000000E+00 -0.79377287227E+02  0.79377287268E+02  0.25500000000E-02 0. -1.
   -5000001    1    1    2    0    0 -0.16553135357E+03 -0.89648626052E+02  0.37638217058E+03  0.48949059592E+03  0.25000000000E+03 0.  0.
    5000001    1    1    2    0    0  0.16553135357E+03  0.89648626052E+02  0.10499673688E+04  0.10956135179E+04  0.25000000000E+03 0.  0.
<mgrwt>
<rscale>  0 0.69143477E+03</rscale>
<asrwt>0</asrwt>
<pdfrwt beam="1">  1        2 0.23165027E+00 0.69143477E+03</pdfrwt>
<pdfrwt beam="2">  1       -2 0.12211891E-01 0.69143477E+03</pdfrwt>
<totfact> 0.63254387E+02</totfact>
</mgrwt>
</event>
<event>
 4    1  0.1714834E-005  0.1279987E+04  0.7818608E-02  0.9045588E-01
          2   -1    0    0  501    0  0.00000000000E+00  0.00000000000E+00  0.32973226897E+03  0.32973226898E+03  0.25500000000E-02 0.  1.
         -2   -1    0    0    0  501 -0.00000000000E+00 -0.00000000000E+00 -0.12421954425E+04  0.12421954425E+04  0.25500000000E-02 0. -1.
   -5000001    1    1    2    0    0  0.55699099918E+03 -0.13417113886E+03 -0.62484600291E+03  0.88384014110E+03  0.25000000000E+03 0.  0.
    5000001    1    1    2    0    0 -0.55699099918E+03  0.13417113886E+03 -0.28761717061E+03  0.68808757037E+03  0.25000000000E+03 0.  0.
<mgrwt>
<rscale>  0 0.12799874E+04</rscale>
<asrwt>0</asrwt>
<pdfrwt beam="1">  1        2 0.50728042E-01 0.12799874E+04</pdfrwt>
<pdfrwt beam="2">  1       -2 0.19110699E+00 0.12799874E+04</pdfrwt>
<totfact> 0.14760014E+01</totfact>
</mgrwt>
</event>
<event>
 4    1  0.1714834E-005  0.8924783E+03  0.7818608E-02  0.9435033E-01
          2   -1    0    0  501    0  0.00000000000E+00  0.00000000000E+00  0.36419518401E+03  0.36419518402E+03  0.25500000000E-02 0.  1.
         -2   -1    0    0    0  501 -0.00000000000E+00 -0.00000000000E+00 -0.54676550382E+03  0.54676550382E+03  0.25500000000E-02 0. -1.
   -5000001    1    1    2    0    0 -0.29954526321E+03  0.21236545920E+03 -0.13462517402E+03  0.46416633920E+03  0.25000000000E+03 0.  0.
    5000001    1    1    2    0    0  0.29954526321E+03 -0.21236545920E+03 -0.47945145786E+02  0.44679434864E+03  0.25000000000E+03 0.  0.
<mgrwt>
<rscale>  0 0.89247826E+03</rscale>
<asrwt>0</asrwt>
<pdfrwt beam="1">  1        2 0.56030028E-01 0.89247826E+03</pdfrwt>
<pdfrwt beam="2">  1       -2 0.84117770E-01 0.89247826E+03</pdfrwt>
<totfact> 0.10950043E+02</totfact>
</mgrwt>
</event>
<event>
 4    1  0.1714834E-005  0.1297791E+04  0.7818608E-02  0.9031319E-01
          2   -1    0    0  501    0  0.00000000000E+00  0.00000000000E+00  0.58265598362E+03  0.58265598363E+03  0.25500000000E-02 0.  1.
         -2   -1    0    0    0  501 -0.00000000000E+00 -0.00000000000E+00 -0.72266566437E+03  0.72266566438E+03  0.25500000000E-02 0. -1.
   -5000001    1    1    2    0    0 -0.24509823784E+03 -0.53938658142E+03 -0.15742547531E+03  0.66203762030E+03  0.25000000000E+03 0.  0.
    5000001    1    1    2    0    0  0.24509823784E+03  0.53938658142E+03  0.17415794563E+02  0.64328402771E+03  0.25000000000E+03 0.  0.
<mgrwt>
<rscale>  0 0.12977912E+04</rscale>
<asrwt>0</asrwt>
<pdfrwt beam="1">  1        2 0.89639383E-01 0.12977912E+04</pdfrwt>
<pdfrwt beam="2">  1       -2 0.11117933E+00 0.12977912E+04</pdfrwt>
<totfact> 0.32250896E+01</totfact>
</mgrwt>
</event>
<event>
 4    1  0.1714834E-005  0.8699479E+03  0.7818608E-02  0.9463948E-01
          2   -1    0    0  501    0  0.00000000000E+00  0.00000000000E+00  0.14135590552E+04  0.14135590552E+04  0.25500000000E-02 0.  1.
         -2   -1    0    0    0  501 -0.00000000000E+00 -0.00000000000E+00 -0.13384819651E+03  0.13384819654E+03  0.25500000000E-02 0. -1.
   -5000001    1    1    2    0    0 -0.23786233227E+03  0.17632692870E+03  0.28843626636E+03  0.48307882861E+03  0.25000000000E+03 0.  0.
    5000001    1    1    2    0    0  0.23786233227E+03 -0.17632692870E+03  0.99127459236E+03  0.10643284232E+04  0.25000000000E+03 0.  0.
<mgrwt>
<rscale>  0 0.86994788E+03</rscale>
<asrwt>0</asrwt>
<pdfrwt beam="1">  1        2 0.21747063E+00 0.86994788E+03</pdfrwt>
<pdfrwt beam="2">  1       -2 0.20592030E-01 0.86994788E+03</pdfrwt>
<totfact> 0.28955816E+02</totfact>
</mgrwt>
</event>
<event>
 4    1  0.1714834E-005  0.9268560E+03  0.7818608E-02  0.9392619E-01
          2   -1    0    0  501    0  0.00000000000E+00  0.00000000000E+00  0.11053960321E+04  0.11053960321E+04  0.25500000000E-02 0.  1.
         -2   -1    0    0    0  501 -0.00000000000E+00 -0.00000000000E+00 -0.19428829967E+03  0.19428829968E+03  0.25500000000E-02 0. -1.
   -5000001    1    1    2    0    0  0.49327624176E+02  0.31988826639E+03  0.14992823014E+03  0.43559177182E+03  0.25000000000E+03 0.  0.
    5000001    1    1    2    0    0 -0.49327624176E+02 -0.31988826639E+03  0.76117950230E+03  0.86409255998E+03  0.25000000000E+03 0.  0.
<mgrwt>
<rscale>  0 0.92685601E+03</rscale>
<asrwt>0</asrwt>
<pdfrwt beam="1">  1        2 0.17006092E+00 0.92685601E+03</pdfrwt>
<pdfrwt beam="2">  1       -2 0.29890508E-01 0.92685601E+03</pdfrwt>
<totfact> 0.22323441E+02</totfact>
</mgrwt>
</event>
<event>
 4    1  0.1714834E-005  0.6374009E+03  0.7818608E-02  0.9830712E-01
         -2   -1    0    0    0  501 -0.00000000000E+00  0.00000000000E+00  0.66027607196E+02  0.66027607245E+02  0.25500000000E-02 0. -1.
          2   -1    0    0  501    0  0.00000000000E+00 -0.00000000000E+00 -0.15382956974E+04  0.15382956974E+04  0.25500000000E-02 0.  1.
   -5000001    1    1    2    0    0  0.17240392383E+02 -0.56429802692E+02 -0.12109590933E+04  0.12379028554E+04  0.25000000000E+03 0.  0.
    5000001    1    1    2    0    0 -0.17240392383E+02  0.56429802692E+02 -0.26130899689E+03  0.36642044923E+03  0.25000000000E+03 0.  0.
<mgrwt>
<rscale>  0 0.63740092E+03</rscale>
<asrwt>0</asrwt>
<pdfrwt beam="1">  1        2 0.23666085E+00 0.63740092E+03</pdfrwt>
<pdfrwt beam="2">  1       -2 0.10158095E-01 0.63740092E+03</pdfrwt>
<totfact> 0.82303724E+02</totfact>
</mgrwt>
</event>
<event>
 4    1  0.1714834E-005  0.1274522E+04  0.7818608E-02  0.9050017E-01
         -2   -1    0    0    0  501 -0.00000000000E+00  0.00000000000E+00  0.31674336145E+03  0.31674336146E+03  0.25500000000E-02 0. -1.
          2   -1    0    0  501    0  0.00000000000E+00 -0.00000000000E+00 -0.12821155870E+04  0.12821155870E+04  0.25500000000E-02 0.  1.
   -5000001    1    1    2    0    0 -0.35753601299E+03 -0.59578799159E+02 -0.10605904139E+04  0.11483612933E+04  0.25000000000E+03 0.  0.
    5000001    1    1    2    0    0  0.35753601299E+03  0.59578799159E+02  0.95218188372E+02  0.45049765515E+03  0.25000000000E+03 0.  0.
<mgrwt>
<rscale>  0 0.12745220E+04</rscale>
<asrwt>0</asrwt>
<pdfrwt beam="1">  1        2 0.19724855E+00 0.12745220E+04</pdfrwt>
<pdfrwt beam="2">  1       -2 0.48729749E-01 0.12745220E+04</pdfrwt>
<totfact> 0.66290814E+01</totfact>
</mgrwt>
</event>
<event>
 4    1  0.1714834E-005  0.5782746E+03  0.7818608E-02  0.9951534E-01
         -2   -1    0    0    0  501 -0.00000000000E+00  0.00000000000E+00  0.75970987751E+02  0.75970987794E+02  0.25500000000E-02 0. -1.
          2   -1    0    0  501    0  0.00000000000E+00 -0.00000000000E+00 -0.11004248680E+04  0.11004248680E+04  0.25500000000E-02 0.  1.
   -5000001    1    1    2    0    0 -0.86029417178E+02  0.51846177057E+02 -0.72569763281E+03  0.77409698421E+03  0.25000000000E+03 0.  0.
    5000001    1    1    2    0    0  0.86029417178E+02 -0.51846177057E+02 -0.29875624743E+03  0.40229887158E+03  0.25000000000E+03 0.  0.
<mgrwt>
<rscale>  0 0.57827455E+03</rscale>
<asrwt>0</asrwt>
<pdfrwt beam="1">  1        2 0.16929612E+00 0.57827455E+03</pdfrwt>
<pdfrwt beam="2">  1       -2 0.11687845E-01 0.57827455E+03</pdfrwt>
<totfact> 0.11688090E+03</totfact>
</mgrwt>
</event>
<event>
 4    1  0.1714834E-005  0.5845385E+03  0.7818608E-02  0.9938013E-01
          2   -1    0    0  501    0  0.00000000000E+00  0.00000000000E+00  0.83464677535E+03  0.83464677535E+03  0.25500000000E-02 0.  1.
         -2   -1    0    0    0  501 -0.00000000000E+00 -0.00000000000E+00 -0.10234426626E+03  0.10234426630E+03  0.25500000000E-02 0. -1.
   -5000001    1    1    2    0    0  0.14002745312E+03  0.12855361316E+02  0.45609371954E+03  0.53878978178E+03  0.25000000000E+03 0.  0.
    5000001    1    1    2    0    0 -0.14002745312E+03 -0.12855361316E+02  0.27620878954E+03  0.39820125987E+03  0.25000000000E+03 0.  0.
<mgrwt>
<rscale>  0 0.58453849E+03</rscale>
<asrwt>0</asrwt>
<pdfrwt beam="1">  1        2 0.12840720E+00 0.58453849E+03</pdfrwt>
<pdfrwt beam="2">  1       -2 0.15745271E-01 0.58453849E+03</pdfrwt>
<totfact> 0.10556567E+03</totfact>
</mgrwt>
</event>
<event>
 4    1  0.1714834E-005  0.1630552E+04  0.7818608E-02  0.8801995E-01
          2   -1    0    0  501    0  0.00000000000E+00  0.00000000000E+00  0.45069002976E+03  0.45069002976E+03  0.25500000000E-02 0.  1.
         -2   -1    0    0    0  501 -0.00000000000E+00 -0.00000000000E+00 -0.14747944135E+04  0.14747944135E+04  0.25500000000E-02 0. -1.
   -5000001    1    1    2    0    0  0.31244632089E+03  0.70294255255E+03 -0.63261871057E+03  0.10268677464E+04  0.25000000000E+03 0.  0.
    5000001    1    1    2    0    0 -0.31244632089E+03 -0.70294255255E+03 -0.39148567321E+03  0.89861669690E+03  0.25000000000E+03 0.  0.
<mgrwt>
<rscale>  0 0.16305522E+04</rscale>
<asrwt>0</asrwt>
<pdfrwt beam="1">  1        2 0.69336928E-01 0.16305522E+04</pdfrwt>
<pdfrwt beam="2">  1       -2 0.22689145E+00 0.16305522E+04</pdfrwt>
<totfact> 0.59362141E+00</totfact>
</mgrwt>
</event>
<event>
 4    1  0.1714834E-005  0.8287916E+03  0.7818608E-02  0.9519253E-01
          2   -1    0    0  501    0  0.00000000000E+00  0.00000000000E+00  0.92218546665E+03  0.92218546665E+03  0.25500000000E-02 0.  1.
         -2   -1    0    0    0  501 -0.00000000000E+00 -0.00000000000E+00 -0.18621401688E+03  0.18621401690E+03  0.25500000000E-02 0. -1.
   -5000001    1    1    2    0    0 -0.31894392604E+03 -0.79664844642E+02  0.41338035677E+03  0.58434153951E+03  0.25000000000E+03 0.  0.
    5000001    1    1    2    0    0  0.31894392604E+03  0.79664844642E+02  0.32259109300E+03  0.52405794404E+03  0.25000000000E+03 0.  0.
<mgrwt>
<rscale>  0 0.82879155E+03</rscale>
<asrwt>0</asrwt>
<pdfrwt beam="1">  1        2 0.14187469E+00 0.82879155E+03</pdfrwt>
<pdfrwt beam="2">  1       -2 0.28648310E-01 0.82879155E+03</pdfrwt>
<totfact> 0.31759702E+02</totfact>
</mgrwt>
</event>
<event>
 4    1  0.1714834E-005  0.1121080E+04  0.7818608E-02  0.9184886E-01
          2   -1    0    0  501    0  0.00000000000E+00  0.00000000000E+00  0.14122341019E+04  0.14122341019E+04  0.25500000000E-02 0. -1.
         -2   -1    0    0    0  501 -0.00000000000E+00 -0.00000000000E+00 -0.22248792189E+03  0.22248792191E+03  0.25500000000E-02 0.  1.
   -5000001    1    1    2    0    0  0.39551033270E+03  0.25443338724E+03  0.84969907246E+03  0.10028226591E+04  0.25000000000E+03 0.  0.
    5000001    1    1    2    0    0 -0.39551033270E+03 -0.25443338724E+03  0.34004710755E+03  0.63189936474E+03  0.25000000000E+03 0.  0.
<mgrwt>
<rscale>  0 0.11210799E+04</rscale>
<asrwt>0</asrwt>
<pdfrwt beam="1">  1        2 0.21726679E+00 0.11210799E+04</pdfrwt>
<pdfrwt beam="2">  1       -2 0.34228910E-01 0.11210799E+04</pdfrwt>
<totfact> 0.11278100E+02</totfact>
</mgrwt>
</event>
<event>
 4    1  0.1714834E-005  0.1025441E+04  0.7818608E-02  0.9281073E-01
          2   -1    0    0  501    0  0.00000000000E+00  0.00000000000E+00  0.17879346497E+04  0.17879346497E+04  0.25500000000E-02 0.  1.
         -2   -1    0    0    0  501 -0.00000000000E+00 -0.00000000000E+00 -0.14703130732E+03  0.14703130734E+03  0.25500000000E-02 0. -1.
   -5000001    1    1    2    0    0 -0.23381876624E+03 -0.37746576342E+03  0.71319746208E+03  0.87652851518E+03  0.25000000000E+03 0.  0.
    5000001    1    1    2    0    0  0.23381876624E+03  0.37746576342E+03  0.92770588027E+03  0.10584374418E+04  0.25000000000E+03 0.  0.
<mgrwt>
<rscale>  0 0.10254411E+04</rscale>
<asrwt>0</asrwt>
<pdfrwt beam="1">  1        2 0.27506688E+00 0.10254411E+04</pdfrwt>
<pdfrwt beam="2">  1       -2 0.22620200E-01 0.10254411E+04</pdfrwt>
<totfact> 0.15025619E+02</totfact>
</mgrwt>
</event>
<event>
 4    1  0.1714834E-005  0.9693763E+03  0.7818608E-02  0.9342785E-01
          2   -1    0    0  501    0  0.00000000000E+00  0.00000000000E+00  0.23038115945E+04  0.23038115945E+04  0.25500000000E-02 0. -1.
         -2   -1    0    0    0  501 -0.00000000000E+00 -0.00000000000E+00 -0.10197127441E+03  0.10197127444E+03  0.25500000000E-02 0.  1.
   -5000001    1    1    2    0    0  0.37959122113E+01  0.38721364275E+03  0.72886940472E+03  0.86238009208E+03  0.25000000000E+03 0.  0.
    5000001    1    1    2    0    0 -0.37959122113E+01 -0.38721364275E+03  0.14729709154E+04  0.15434027769E+04  0.25000000000E+03 0.  0.
<mgrwt>
<rscale>  0 0.96937630E+03</rscale>
<asrwt>0</asrwt>
<pdfrwt beam="1">  1        2 0.35443257E+00 0.96937630E+03</pdfrwt>
<pdfrwt beam="2">  1       -2 0.15687888E-01 0.96937630E+03</pdfrwt>
<totfact> 0.14819477E+02</totfact>
</mgrwt>
</event>
<event>
 4    1  0.1714834E-005  0.6544186E+03  0.7818608E-02  0.9798523E-01
          2   -1    0    0  501    0  0.00000000000E+00  0.00000000000E+00  0.19163661482E+03  0.19163661484E+03  0.25500000000E-02 0.  1.
         -2   -1    0    0    0  501 -0.00000000000E+00 -0.00000000000E+00 -0.55869246784E+03  0.55869246784E+03  0.25500000000E-02 0. -1.
   -5000001    1    1    2    0    0 -0.15565855266E+03  0.13010406911E+03 -0.25047435789E+03  0.40791427749E+03  0.25000000000E+03 0.  0.
    5000001    1    1    2    0    0  0.15565855266E+03 -0.13010406911E+03 -0.11658149512E+03  0.34241480520E+03  0.25000000000E+03 0.  0.
<mgrwt>
<rscale>  0 0.65441862E+03</rscale>
<asrwt>0</asrwt>
<pdfrwt beam="1">  1        2 0.29482556E-01 0.65441862E+03</pdfrwt>
<pdfrwt beam="2">  1       -2 0.85952687E-01 0.65441862E+03</pdfrwt>
<totfact> 0.21552371E+02</totfact>
</mgrwt>
</event>
<event>
 4    1  0.1714834E-005  0.5907083E+03  0.7818608E-02  0.9924873E-01
          2   -1    0    0  501    0  0.00000000000E+00  0.00000000000E+00  0.13200158351E+03  0.13200158353E+03  0.25500000000E-02 0.  1.
         -2   -1    0    0    0  501 -0.00000000000E+00 -0.00000000000E+00 -0.66085629134E+03  0.66085629134E+03  0.25500000000E-02 0. -1.
   -5000001    1    1    2    0    0  0.99776443739E+02  0.94651521355E+02 -0.16203268930E+03  0.32812930625E+03  0.25000000000E+03 0.  0.
    5000001    1    1    2    0    0 -0.99776443739E+02 -0.94651521355E+02 -0.36682201852E+03  0.46472856862E+03  0.25000000000E+03 0.  0.
<mgrwt>
<rscale>  0 0.59070831E+03</rscale>
<asrwt>0</asrwt>
<pdfrwt beam="1">  1        2 0.20307936E-01 0.59070831E+03</pdfrwt>
<pdfrwt beam="2">  1       -2 0.10167020E+00 0.59070831E+03</pdfrwt>
<totfact> 0.22434473E+02</totfact>
</mgrwt>
</event>
<event>
 4    1  0.1714834E-005  0.7775107E+03  0.7818608E-02  0.9593152E-01
          2   -1    0    0  501    0  0.00000000000E+00  0.00000000000E+00  0.46101082715E+03  0.46101082715E+03  0.25500000000E-02 0.  1.
         -2   -1    0    0    0  501 -0.00000000000E+00 -0.00000000000E+00 -0.32782465863E+03  0.32782465864E+03  0.25500000000E-02 0. -1.
   -5000001    1    1    2    0    0 -0.14871046129E+03  0.24374129751E+03  0.15211857914E+03  0.40885777910E+03  0.25000000000E+03 0.  0.
    5000001    1    1    2    0    0  0.14871046129E+03 -0.24374129751E+03 -0.18932410624E+02  0.37997770669E+03  0.25000000000E+03 0.  0.
<mgrwt>
<rscale>  0 0.77751069E+03</rscale>
<asrwt>0</asrwt>
<pdfrwt beam="1">  1        2 0.70924742E-01 0.77751069E+03</pdfrwt>
<pdfrwt beam="2">  1       -2 0.50434563E-01 0.77751069E+03</pdfrwt>
<totfact> 0.25344725E+02</totfact>
</mgrwt>
</event>
<event>
 4    1  0.1714834E-005  0.5673718E+03  0.7818608E-02  0.9975511E-01
         -2   -1    0    0    0  501 -0.00000000000E+00  0.00000000000E+00  0.64475826896E+02  0.64475826946E+02  0.25500000000E-02 0. -1.
          2   -1    0    0  501    0  0.00000000000E+00 -0.00000000000E+00 -0.12481838286E+04  0.12481838286E+04  0.25500000000E-02 0.  1.
   -5000001    1    1    2    0    0 -0.46951069468E+02 -0.12512045120E+03 -0.61700232891E+03  0.67900766131E+03  0.25000000000E+03 0.  0.
    5000001    1    1    2    0    0  0.46951069468E+02  0.12512045120E+03 -0.56670567282E+03  0.63365199427E+03  0.25000000000E+03 0.  0.
<mgrwt>
<rscale>  0 0.56737178E+03</rscale>
<asrwt>0</asrwt>
<pdfrwt beam="1">  1        2 0.19202826E+00 0.56737178E+03</pdfrwt>
<pdfrwt beam="2">  1       -2 0.99193589E-02 0.56737178E+03</pdfrwt>
<totfact> 0.12493127E+03</totfact>
</mgrwt>
</event>
<event>
 4    1  0.1714834E-005  0.7584399E+03  0.7818608E-02  0.9622202E-01
          2   -1    0    0  501    0  0.00000000000E+00  0.00000000000E+00  0.38538038802E+04  0.38538038802E+04  0.25500000000E-02 0.  1.
         -2   -1    0    0    0  501 -0.00000000000E+00 -0.00000000000E+00 -0.37315803348E+02  0.37315803435E+02  0.25500000000E-02 0. -1.
   -5000001    1    1    2    0    0 -0.22010344268E+03  0.15338661362E+03  0.24039294221E+04  0.24317379886E+04  0.25000000000E+03 0.  0.
    5000001    1    1    2    0    0  0.22010344268E+03 -0.15338661362E+03  0.14125586548E+04  0.14593816951E+04  0.25000000000E+03 0.  0.
<mgrwt>
<rscale>  0 0.75843995E+03</rscale>
<asrwt>0</asrwt>
<pdfrwt beam="1">  1        2 0.59289336E+00 0.75843995E+03</pdfrwt>
<pdfrwt beam="2">  1       -2 0.57408884E-02 0.75843995E+03</pdfrwt>
<totfact> 0.81175043E+01</totfact>
</mgrwt>
</event>
<event>
 4    1  0.1714834E-005  0.5708367E+03  0.7818608E-02  0.9967829E-01
         -2   -1    0    0    0  501 -0.00000000000E+00  0.00000000000E+00  0.21580753984E+02  0.21580754135E+02  0.25500000000E-02 0. -1.
          2   -1    0    0  501    0  0.00000000000E+00 -0.00000000000E+00 -0.37748283224E+04  0.37748283224E+04  0.25500000000E-02 0.  1.
   -5000001    1    1    2    0    0  0.79543254170E+02  0.88336292877E+02 -0.23389824559E+04  0.23553066379E+04  0.25000000000E+03 0.  0.
    5000001    1    1    2    0    0 -0.79543254170E+02 -0.88336292877E+02 -0.14142651126E+04  0.14411024386E+04  0.25000000000E+03 0.  0.
<mgrwt>
<rscale>  0 0.57083672E+03</rscale>
<asrwt>0</asrwt>
<pdfrwt beam="1">  1        2 0.58074229E+00 0.57083672E+03</pdfrwt>
<pdfrwt beam="2">  1       -2 0.33201190E-02 0.57083672E+03</pdfrwt>
<totfact> 0.22284990E+02</totfact>
</mgrwt>
</event>
<event>
 4    1  0.1714834E-005  0.7279741E+03  0.7818608E-02  0.9670554E-01
         -2   -1    0    0    0  501 -0.00000000000E+00  0.00000000000E+00  0.16126521929E+03  0.16126521931E+03  0.25500000000E-02 0. -1.
          2   -1    0    0  501    0  0.00000000000E+00 -0.00000000000E+00 -0.82154465861E+03  0.82154465861E+03  0.25500000000E-02 0.  1.
   -5000001    1    1    2    0    0  0.86624584409E+02  0.24267190012E+03 -0.41106585819E+03  0.54577340490E+03  0.25000000000E+03 0.  0.
    5000001    1    1    2    0    0 -0.86624584409E+02 -0.24267190012E+03 -0.24921358112E+03  0.43703647302E+03  0.25000000000E+03 0.  0.
<mgrwt>
<rscale>  0 0.72797412E+03</rscale>
<asrwt>0</asrwt>
<pdfrwt beam="1">  1        2 0.12639148E+00 0.72797412E+03</pdfrwt>
<pdfrwt beam="2">  1       -2 0.24810034E-01 0.72797412E+03</pdfrwt>
<totfact> 0.48585079E+02</totfact>
</mgrwt>
</event>
<event>
 4    1  0.1714834E-005  0.1567133E+04  0.7818608E-02  0.8840998E-01
          2   -1    0    0  501    0  0.00000000000E+00  0.00000000000E+00  0.34423656241E+04  0.34423656241E+04  0.25500000000E-02 0.  1.
         -2   -1    0    0    0  501 -0.00000000000E+00 -0.00000000000E+00 -0.17835877254E+03  0.17835877255E+03  0.25500000000E-02 0. -1.
   -5000001    1    1    2    0    0 -0.12350310410E+02  0.74167087234E+03  0.17136200527E+04  0.18839378700E+04  0.25000000000E+03 0.  0.
    5000001    1    1    2    0    0  0.12350310410E+02 -0.74167087234E+03  0.15503867989E+04  0.17367865267E+04  0.25000000000E+03 0.  0.
<mgrwt>
<rscale>  0 0.15671326E+04</rscale>
<asrwt>0</asrwt>
<pdfrwt beam="1">  1        2 0.52959472E+00 0.15671326E+04</pdfrwt>
<pdfrwt beam="2">  1       -2 0.27439811E-01 0.15671326E+04</pdfrwt>
<totfact> 0.10493709E+01</totfact>
</mgrwt>
</event>
<event>
 4    1  0.1714834E-005  0.6315696E+03  0.7818608E-02  0.9841991E-01
          2   -1    0    0  501    0  0.00000000000E+00  0.00000000000E+00  0.68672710568E+03  0.68672710568E+03  0.25500000000E-02 0.  1.
         -2   -1    0    0    0  501 -0.00000000000E+00 -0.00000000000E+00 -0.14521057643E+03  0.14521057646E+03  0.25500000000E-02 0. -1.
   -5000001    1    1    2    0    0  0.84272486226E+02 -0.13397498995E+03  0.41606811169E+03  0.51055246883E+03  0.25000000000E+03 0.  0.
    5000001    1    1    2    0    0 -0.84272486226E+02  0.13397498995E+03  0.12544841756E+03  0.32138521331E+03  0.25000000000E+03 0.  0.
<mgrwt>
<rscale>  0 0.63156960E+03</rscale>
<asrwt>0</asrwt>
<pdfrwt beam="1">  1        2 0.10565032E+00 0.63156960E+03</pdfrwt>
<pdfrwt beam="2">  1       -2 0.22340089E-01 0.63156960E+03</pdfrwt>
<totfact> 0.74047793E+02</totfact>
</mgrwt>
</event>
<event>
 4    1  0.1714834E-005  0.8759599E+03  0.7818608E-02  0.9456142E-01
         -2   -1    0    0    0  501 -0.00000000000E+00  0.00000000000E+00  0.17174202501E+03  0.17174202503E+03  0.25500000000E-02 0. -1.
          2   -1    0    0  501    0  0.00000000000E+00 -0.00000000000E+00 -0.11169453047E+04  0.11169453047E+04  0.25500000000E-02 0.  1.
   -5000001    1    1    2    0    0 -0.32108916728E+03 -0.86621022254E+02 -0.67391572375E+03  0.79199991008E+03  0.25000000000E+03 0.  0.
    5000001    1    1    2    0    0  0.32108916728E+03  0.86621022254E+02 -0.27128755594E+03  0.49668741966E+03  0.25000000000E+03 0.  0.
<mgrwt>
<rscale>  0 0.87595993E+03</rscale>
<asrwt>0</asrwt>
<pdfrwt beam="1">  1        2 0.17183773E+00 0.87595993E+03</pdfrwt>
<pdfrwt beam="2">  1       -2 0.26421851E-01 0.87595993E+03</pdfrwt>
<totfact> 0.27635283E+02</totfact>
</mgrwt>
</event>
<event>
 4    1  0.1714834E-005  0.6058985E+03  0.7818608E-02  0.9893244E-01
          2   -1    0    0  501    0  0.00000000000E+00  0.00000000000E+00  0.16589167952E+04  0.16589167952E+04  0.25500000000E-02 0.  1.
         -2   -1    0    0    0  501 -0.00000000000E+00 -0.00000000000E+00 -0.55324193568E+02  0.55324193627E+02  0.25500000000E-02 0. -1.
   -5000001    1    1    2    0    0 -0.30965514199E+02  0.13039766658E+03  0.11027606370E+04  0.11386586131E+04  0.25000000000E+03 0.  0.
    5000001    1    1    2    0    0  0.30965514199E+02 -0.13039766658E+03  0.50083196456E+03  0.57558237572E+03  0.25000000000E+03 0.  0.
<mgrwt>
<rscale>  0 0.60589845E+03</rscale>
<asrwt>0</asrwt>
<pdfrwt beam="1">  1        2 0.25521797E+00 0.60589845E+03</pdfrwt>
<pdfrwt beam="2">  1       -2 0.85114142E-02 0.60589845E+03</pdfrwt>
<totfact> 0.94188858E+02</totfact>
</mgrwt>
</event>
<event>
 4    1  0.1714834E-005  0.7182295E+03  0.7818608E-02  0.9686555E-01
         -2   -1    0    0    0  501 -0.00000000000E+00  0.00000000000E+00  0.71105720663E+02  0.71105720709E+02  0.25500000000E-02 0. -1.
          2   -1    0    0  501    0  0.00000000000E+00 -0.00000000000E+00 -0.18136851638E+04  0.18136851638E+04  0.25500000000E-02 0.  1.
   -5000001    1    1    2    0    0 -0.20227648315E+03  0.15907334451E+03 -0.91222131094E+03  0.98023865701E+03  0.25000000000E+03 0.  0.
    5000001    1    1    2    0    0  0.20227648315E+03 -0.15907334451E+03 -0.83035813222E+03  0.90455222753E+03  0.25000000000E+03 0.  0.
<mgrwt>
<rscale>  0 0.71822946E+03</rscale>
<asrwt>0</asrwt>
<pdfrwt beam="1">  1        2 0.27902845E+00 0.71822946E+03</pdfrwt>
<pdfrwt beam="2">  1       -2 0.10939343E-01 0.71822946E+03</pdfrwt>
<totfact> 0.51318069E+02</totfact>
</mgrwt>
</event>
<event>
 4    1  0.1714834E-005  0.7192822E+03  0.7818608E-02  0.9684814E-01
         -2   -1    0    0    0  501 -0.00000000000E+00  0.00000000000E+00  0.56386241283E+02  0.56386241340E+02  0.25500000000E-02 0. -1.
          2   -1    0    0  501    0  0.00000000000E+00 -0.00000000000E+00 -0.22938526031E+04  0.22938526031E+04  0.25500000000E-02 0.  1.
   -5000001    1    1    2    0    0 -0.23856393827E+03  0.90980842207E+02 -0.98594888236E+03  0.10487065676E+04  0.25000000000E+03 0.  0.
    5000001    1    1    2    0    0  0.23856393827E+03 -0.90980842207E+02 -0.12515174795E+04  0.13015322769E+04  0.25000000000E+03 0.  0.
<mgrwt>
<rscale>  0 0.71928222E+03</rscale>
<asrwt>0</asrwt>
<pdfrwt beam="1">  1        2 0.35290033E+00 0.71928222E+03</pdfrwt>
<pdfrwt beam="2">  1       -2 0.86748081E-02 0.71928222E+03</pdfrwt>
<totfact> 0.40839480E+02</totfact>
</mgrwt>
</event>
<event>
 4    1  0.1714834E-005  0.5593290E+03  0.7818608E-02  0.9993574E-01
          2   -1    0    0  501    0  0.00000000000E+00  0.00000000000E+00  0.75777277306E+03  0.75777277306E+03  0.25500000000E-02 0. -1.
         -2   -1    0    0    0  501 -0.00000000000E+00 -0.00000000000E+00 -0.10321331051E+03  0.10321331054E+03  0.25500000000E-02 0.  1.
   -5000001    1    1    2    0    0 -0.86033955749E+02  0.86667870546E+02  0.28376637208E+03  0.39741227365E+03  0.25000000000E+03 0.  0.
    5000001    1    1    2    0    0  0.86033955749E+02 -0.86667870546E+02  0.37079309047E+03  0.46357380995E+03  0.25000000000E+03 0.  0.
<mgrwt>
<rscale>  0 0.55932901E+03</rscale>
<asrwt>0</asrwt>
<pdfrwt beam="1">  1        2 0.11658043E+00 0.55932901E+03</pdfrwt>
<pdfrwt beam="2">  1       -2 0.15878971E-01 0.55932901E+03</pdfrwt>
<totfact> 0.11815921E+03</totfact>
</mgrwt>
</event>
<event>
 4    1  0.1714834E-005  0.7914660E+03  0.7818608E-02  0.9572453E-01
         -2   -1    0    0    0  501 -0.00000000000E+00  0.00000000000E+00  0.12416713704E+03  0.12416713706E+03  0.25500000000E-02 0. -1.
          2   -1    0    0  501    0  0.00000000000E+00 -0.00000000000E+00 -0.12612403528E+04  0.12612403528E+04  0.25500000000E-02 0.  1.
   -5000001    1    1    2    0    0  0.19465014547E+03 -0.21623559139E+03 -0.39830230469E+03  0.55298393832E+03  0.25000000000E+03 0.  0.
    5000001    1    1    2    0    0 -0.19465014547E+03  0.21623559139E+03 -0.73877091104E+03  0.83242355151E+03  0.25000000000E+03 0.  0.
<mgrwt>
<rscale>  0 0.79146599E+03</rscale>
<asrwt>0</asrwt>
<pdfrwt beam="1">  1        2 0.19403697E+00 0.79146599E+03</pdfrwt>
<pdfrwt beam="2">  1       -2 0.19102637E-01 0.79146599E+03</pdfrwt>
<totfact> 0.40563390E+02</totfact>
</mgrwt>
</event>
<event>
 4    1  0.1714834E-005  0.6243626E+03  0.7818608E-02  0.9856112E-01
          2   -1    0    0  501    0  0.00000000000E+00  0.00000000000E+00  0.77504281337E+03  0.77504281337E+03  0.25500000000E-02 0.  1.
         -2   -1    0    0    0  501 -0.00000000000E+00 -0.00000000000E+00 -0.12574424092E+03  0.12574424095E+03  0.25500000000E-02 0. -1.
   -5000001    1    1    2    0    0  0.17337651720E+02 -0.17190358177E+03  0.22155980293E+03  0.37608533854E+03  0.25000000000E+03 0.  0.
    5000001    1    1    2    0    0 -0.17337651720E+02  0.17190358177E+03  0.42773876952E+03  0.52470171578E+03  0.25000000000E+03 0.  0.
<mgrwt>
<rscale>  0 0.62436262E+03</rscale>
<asrwt>0</asrwt>
<pdfrwt beam="1">  1        2 0.11923735E+00 0.62436262E+03</pdfrwt>
<pdfrwt beam="2">  1       -2 0.19345268E-01 0.62436262E+03</pdfrwt>
<totfact> 0.81715109E+02</totfact>
</mgrwt>
</event>
<event>
 4    1  0.1714834E-005  0.8429571E+03  0.7818608E-02  0.9499839E-01
         -2   -1    0    0    0  501 -0.00000000000E+00  0.00000000000E+00  0.31597950655E+03  0.31597950656E+03  0.25500000000E-02 0. -1.
          2   -1    0    0  501    0  0.00000000000E+00 -0.00000000000E+00 -0.56220157159E+03  0.56220157160E+03  0.25500000000E-02 0.  1.
   -5000001    1    1    2    0    0 -0.15564208966E+03  0.73699701045E+02  0.18148998363E+03  0.35368731977E+03  0.25000000000E+03 0.  0.
    5000001    1    1    2    0    0  0.15564208966E+03 -0.73699701045E+02 -0.42771204867E+03  0.52449375839E+03  0.25000000000E+03 0.  0.
<mgrwt>
<rscale>  0 0.84295712E+03</rscale>
<asrwt>0</asrwt>
<pdfrwt beam="1">  1        2 0.86492549E-01 0.84295712E+03</pdfrwt>
<pdfrwt beam="2">  1       -2 0.48612232E-01 0.84295712E+03</pdfrwt>
<totfact> 0.21612564E+02</totfact>
</mgrwt>
</event>
<event>
 4    1  0.1714834E-005  0.6368323E+03  0.7818608E-02  0.9831806E-01
         -2   -1    0    0    0  501 -0.00000000000E+00  0.00000000000E+00  0.92349643326E+02  0.92349643361E+02  0.25500000000E-02 0. -1.
          2   -1    0    0  501    0  0.00000000000E+00 -0.00000000000E+00 -0.10978802432E+04  0.10978802432E+04  0.25500000000E-02 0.  1.
   -5000001    1    1    2    0    0 -0.11594291149E+02  0.14633790300E+03 -0.74887333375E+03  0.80303205381E+03  0.25000000000E+03 0.  0.
    5000001    1    1    2    0    0  0.11594291149E+02 -0.14633790300E+03 -0.25665726615E+03  0.38719783278E+03  0.25000000000E+03 0.  0.
<mgrwt>
<rscale>  0 0.63683231E+03</rscale>
<asrwt>0</asrwt>
<pdfrwt beam="1">  1        2 0.16890464E+00 0.63683231E+03</pdfrwt>
<pdfrwt beam="2">  1       -2 0.14207638E-01 0.63683231E+03</pdfrwt>
<totfact> 0.84687017E+02</totfact>
</mgrwt>
</event>
<event>
 4    1  0.1714834E-005  0.5874629E+03  0.7818608E-02  0.9931763E-01
         -2   -1    0    0    0  501 -0.00000000000E+00  0.00000000000E+00  0.11933057826E+03  0.11933057829E+03  0.25500000000E-02 0. -1.
          2   -1    0    0  501    0  0.00000000000E+00 -0.00000000000E+00 -0.72301795957E+03  0.72301795957E+03  0.25500000000E-02 0.  1.
   -5000001    1    1    2    0    0 -0.12145192597E+02 -0.13931067025E+03 -0.20866183625E+03  0.35439346842E+03  0.25000000000E+03 0.  0.
    5000001    1    1    2    0    0  0.12145192597E+02  0.13931067025E+03 -0.39502554506E+03  0.48795506944E+03  0.25000000000E+03 0.  0.
<mgrwt>
<rscale>  0 0.58746285E+03</rscale>
<asrwt>0</asrwt>
<pdfrwt beam="1">  1        2 0.11123353E+00 0.58746285E+03</pdfrwt>
<pdfrwt beam="2">  1       -2 0.18358551E-01 0.58746285E+03</pdfrwt>
<totfact> 0.97878360E+02</totfact>
</mgrwt>
</event>
<event>
 4    1  0.1714834E-005  0.7806978E+03  0.7818608E-02  0.9588384E-01
         -2   -1    0    0    0  501 -0.00000000000E+00  0.00000000000E+00  0.25093083913E+03  0.25093083914E+03  0.25500000000E-02 0. -1.
          2   -1    0    0  501    0  0.00000000000E+00 -0.00000000000E+00 -0.60722816854E+03  0.60722816855E+03  0.25500000000E-02 0.  1.
   -5000001    1    1    2    0    0  0.12675721240E+03  0.27101184039E+03 -0.19893135544E+03  0.43770822782E+03  0.25000000000E+03 0.  0.
    5000001    1    1    2    0    0 -0.12675721240E+03 -0.27101184039E+03 -0.15736597397E+03  0.42045077987E+03  0.25000000000E+03 0.  0.
<mgrwt>
<rscale>  0 0.78069783E+03</rscale>
<asrwt>0</asrwt>
<pdfrwt beam="1">  1        2 0.93419718E-01 0.78069783E+03</pdfrwt>
<pdfrwt beam="2">  1       -2 0.38604745E-01 0.78069783E+03</pdfrwt>
<totfact> 0.31179899E+02</totfact>
</mgrwt>
</event>
<event>
 4    1  0.1714834E-005  0.8045219E+03  0.7818608E-02  0.9553495E-01
         -2   -1    0    0    0  501 -0.00000000000E+00  0.00000000000E+00  0.12343605295E+03  0.12343605298E+03  0.25500000000E-02 0. -1.
          2   -1    0    0  501    0  0.00000000000E+00 -0.00000000000E+00 -0.13109125222E+04  0.13109125222E+04  0.25500000000E-02 0.  1.
   -5000001    1    1    2    0    0 -0.23335353688E+03 -0.68433659180E+01 -0.97115365390E+03  0.10296310622E+04  0.25000000000E+03 0.  0.
    5000001    1    1    2    0    0  0.23335353688E+03  0.68433659180E+01 -0.21632281531E+03  0.40471751291E+03  0.25000000000E+03 0.  0.
<mgrwt>
<rscale>  0 0.80452189E+03</rscale>
<asrwt>0</asrwt>
<pdfrwt beam="1">  1        2 0.20167884E+00 0.80452189E+03</pdfrwt>
<pdfrwt beam="2">  1       -2 0.18990163E-01 0.80452189E+03</pdfrwt>
<totfact> 0.38327705E+02</totfact>
</mgrwt>
</event>
<event>
 4    1  0.1714834E-005  0.6367486E+03  0.7818608E-02  0.9831967E-01
          2   -1    0    0  501    0  0.00000000000E+00  0.00000000000E+00  0.14453642415E+04  0.14453642415E+04  0.25500000000E-02 0.  1.
         -2   -1    0    0    0  501 -0.00000000000E+00 -0.00000000000E+00 -0.70129178908E+02  0.70129178954E+02  0.25500000000E-02 0. -1.
   -5000001    1    1    2    0    0  0.33182018989E+02 -0.11841577235E+03  0.10543218408E+04  0.10905126709E+04  0.25000000000E+03 0.  0.
    5000001    1    1    2    0    0 -0.33182018989E+02  0.11841577235E+03  0.32091322179E+03  0.42498074950E+03  0.25000000000E+03 0.  0.
<mgrwt>
<rscale>  0 0.63674864E+03</rscale>
<asrwt>0</asrwt>
<pdfrwt beam="1">  1        2 0.22236373E+00 0.63674864E+03</pdfrwt>
<pdfrwt beam="2">  1       -2 0.10789105E-01 0.63674864E+03</pdfrwt>
<totfact> 0.84004860E+02</totfact>
</mgrwt>
</event>
<event>
 4    1  0.1714834E-005  0.6115452E+03  0.7818608E-02  0.9881739E-01
         -2   -1    0    0    0  501 -0.00000000000E+00  0.00000000000E+00  0.19787685989E+03  0.19787685991E+03  0.25500000000E-02 0. -1.
          2   -1    0    0  501    0  0.00000000000E+00 -0.00000000000E+00 -0.47250037949E+03  0.47250037949E+03  0.25500000000E-02 0.  1.
   -5000001    1    1    2    0    0  0.14829658060E+03 -0.93839806475E+02 -0.15277972476E+03  0.34152515192E+03  0.25000000000E+03 0.  0.
    5000001    1    1    2    0    0 -0.14829658060E+03  0.93839806475E+02 -0.12184379484E+03  0.32885208748E+03  0.25000000000E+03 0.  0.
<mgrwt>
<rscale>  0 0.61154523E+03</rscale>
<asrwt>0</asrwt>
<pdfrwt beam="1">  1        2 0.72692366E-01 0.61154523E+03</pdfrwt>
<pdfrwt beam="2">  1       -2 0.30442594E-01 0.61154523E+03</pdfrwt>
<totfact> 0.65976461E+02</totfact>
</mgrwt>
</event>
<event>
 4    1  0.1714834E-005  0.8278927E+03  0.7818608E-02  0.9520499E-01
          2   -1    0    0  501    0  0.00000000000E+00  0.00000000000E+00  0.53512898113E+03  0.53512898114E+03  0.25500000000E-02 0. -1.
         -2   -1    0    0    0  501 -0.00000000000E+00 -0.00000000000E+00 -0.32020610751E+03  0.32020610752E+03  0.25500000000E-02 0.  1.
   -5000001    1    1    2    0    0 -0.32338289192E+03  0.65376228266E+02  0.10641695677E+03  0.42740509438E+03  0.25000000000E+03 0.  0.
    5000001    1    1    2    0    0  0.32338289192E+03 -0.65376228266E+02  0.10850591686E+03  0.42792999428E+03  0.25000000000E+03 0.  0.
<mgrwt>
<rscale>  0 0.82789267E+03</rscale>
<asrwt>0</asrwt>
<pdfrwt beam="1">  1        2 0.82327534E-01 0.82789267E+03</pdfrwt>
<pdfrwt beam="2">  1       -2 0.49262479E-01 0.82789267E+03</pdfrwt>
<totfact> 0.22317855E+02</totfact>
</mgrwt>
</event>
<event>
 4    1  0.1714834E-005  0.9413336E+03  0.7818608E-02  0.9375338E-01
          2   -1    0    0  501    0  0.00000000000E+00  0.00000000000E+00  0.22640081491E+04  0.22640081491E+04  0.25500000000E-02 0.  1.
         -2   -1    0    0    0  501 -0.00000000000E+00 -0.00000000000E+00 -0.97847363841E+02  0.97847363874E+02  0.25500000000E-02 0. -1.
   -5000001    1    1    2    0    0  0.98182292204E+02  0.21385012270E+03  0.27527613074E+03  0.44005520748E+03  0.25000000000E+03 0.  0.
    5000001    1    1    2    0    0 -0.98182292204E+02 -0.21385012270E+03  0.18908846545E+04  0.19218003055E+04  0.25000000000E+03 0.  0.
<mgrwt>
<rscale>  0 0.94133358E+03</rscale>
<asrwt>0</asrwt>
<pdfrwt beam="1">  1        2 0.34830889E+00 0.94133358E+03</pdfrwt>
<pdfrwt beam="2">  1       -2 0.15053443E-01 0.94133358E+03</pdfrwt>
<totfact> 0.16771926E+02</totfact>
</mgrwt>
</event>
<event>
 4    1  0.1714834E-005  0.1447900E+04  0.7818608E-02  0.8919858E-01
         -2   -1    0    0    0  501 -0.00000000000E+00  0.00000000000E+00  0.39083057926E+03  0.39083057926E+03  0.25500000000E-02 0. -1.
          2   -1    0    0  501    0  0.00000000000E+00 -0.00000000000E+00 -0.13409996324E+04  0.13409996324E+04  0.25500000000E-02 0.  1.
   -5000001    1    1    2    0    0  0.64294135258E+03 -0.11931882722E+03 -0.69561168929E+03  0.98690738556E+03  0.25000000000E+03 0.  0.
    5000001    1    1    2    0    0 -0.64294135258E+03  0.11931882722E+03 -0.25455736388E+03  0.74492282614E+03  0.25000000000E+03 0.  0.
<mgrwt>
<rscale>  0 0.14479001E+04</rscale>
<asrwt>0</asrwt>
<pdfrwt beam="1">  1        2 0.20630763E+00 0.14479001E+04</pdfrwt>
<pdfrwt beam="2">  1       -2 0.60127782E-01 0.14479001E+04</pdfrwt>
<totfact> 0.39129808E+01</totfact>
</mgrwt>
</event>
<event>
 4    1  0.1714834E-005  0.5749138E+03  0.7818608E-02  0.9958864E-01
          2   -1    0    0  501    0  0.00000000000E+00  0.00000000000E+00  0.26764726954E+04  0.26764726954E+04  0.25500000000E-02 0.  1.
         -2   -1    0    0    0  501 -0.00000000000E+00 -0.00000000000E+00 -0.30873269681E+02  0.30873269787E+02  0.25500000000E-02 0. -1.
   -5000001    1    1    2    0    0  0.11098864588E+03 -0.71004787650E+02  0.15707034816E+04  0.15959228009E+04  0.25000000000E+03 0.  0.
    5000001    1    1    2    0    0 -0.11098864588E+03  0.71004787650E+02  0.10748959441E+04  0.11114231642E+04  0.25000000000E+03 0.  0.
<mgrwt>
<rscale>  0 0.57491378E+03</rscale>
<asrwt>0</asrwt>
<pdfrwt beam="1">  1        2 0.41176511E+00 0.57491378E+03</pdfrwt>
<pdfrwt beam="2">  1       -2 0.47497329E-02 0.57491378E+03</pdfrwt>
<totfact> 0.65035258E+02</totfact>
</mgrwt>
</event>
<event>
 4    1  0.1714834E-005  0.8518547E+03  0.7818608E-02  0.9487851E-01
          2   -1    0    0  501    0  0.00000000000E+00  0.00000000000E+00  0.26621186916E+04  0.26621186916E+04  0.25500000000E-02 0.  1.
         -2   -1    0    0    0  501 -0.00000000000E+00 -0.00000000000E+00 -0.68146509888E+02  0.68146509935E+02  0.25500000000E-02 0. -1.
   -5000001    1    1    2    0    0 -0.20950878349E+02 -0.34366372481E+03  0.13586706445E+04  0.14237379026E+04  0.25000000000E+03 0.  0.
    5000001    1    1    2    0    0  0.20950878349E+02  0.34366372481E+03  0.12353015373E+04  0.13065272990E+04  0.25000000000E+03 0.  0.
<mgrwt>
<rscale>  0 0.85185468E+03</rscale>
<asrwt>0</asrwt>
<pdfrwt beam="1">  1        2 0.40955669E+00 0.85185468E+03</pdfrwt>
<pdfrwt beam="2">  1       -2 0.10484079E-01 0.85185468E+03</pdfrwt>
<totfact> 0.18350165E+02</totfact>
</mgrwt>
</event>
<event>
 4    1  0.1714834E-005  0.6202069E+03  0.7818608E-02  0.9864348E-01
          2   -1    0    0  501    0  0.00000000000E+00  0.00000000000E+00  0.67778428670E+03  0.67778428670E+03  0.25500000000E-02 0.  1.
         -2   -1    0    0    0  501 -0.00000000000E+00 -0.00000000000E+00 -0.14188015871E+03  0.14188015874E+03  0.25500000000E-02 0. -1.
   -5000001    1    1    2    0    0 -0.14485318013E+03 -0.98204245235E+02  0.19511262846E+03  0.36220913208E+03  0.25000000000E+03 0.  0.
    5000001    1    1    2    0    0  0.14485318013E+03  0.98204245235E+02  0.34079149952E+03  0.45745531336E+03  0.25000000000E+03 0.  0.
<mgrwt>
<rscale>  0 0.62020688E+03</rscale>
<asrwt>0</asrwt>
<pdfrwt beam="1">  1        2 0.10427451E+00 0.62020688E+03</pdfrwt>
<pdfrwt beam="2">  1       -2 0.21827716E-01 0.62020688E+03</pdfrwt>
<totfact> 0.78436491E+02</totfact>
</mgrwt>
</event>
<event>
 4    1  0.1714834E-005  0.7387039E+03  0.7818608E-02  0.9653241E-01
          2   -1    0    0  501    0  0.00000000000E+00  0.00000000000E+00  0.12839200664E+04  0.12839200664E+04  0.25500000000E-02 0.  1.
         -2   -1    0    0    0  501 -0.00000000000E+00 -0.00000000000E+00 -0.10625339948E+03  0.10625339951E+03  0.25500000000E-02 0. -1.
   -5000001    1    1    2    0    0 -0.37779165686E+02 -0.19715668091E+03  0.24375646537E+03  0.40275952701E+03  0.25000000000E+03 0.  0.
    5000001    1    1    2    0    0  0.37779165686E+02  0.19715668091E+03  0.93391020153E+03  0.98741393889E+03  0.25000000000E+03 0.  0.
<mgrwt>
<rscale>  0 0.73870392E+03</rscale>
<asrwt>0</asrwt>
<pdfrwt beam="1">  1        2 0.19752617E+00 0.73870392E+03</pdfrwt>
<pdfrwt beam="2">  1       -2 0.16346676E-01 0.73870392E+03</pdfrwt>
<totfact> 0.51607963E+02</totfact>
</mgrwt>
</event>
<event>
 4    1  0.1714834E-005  0.5770839E+03  0.7818608E-02  0.9954124E-01
         -2   -1    0    0    0  501 -0.00000000000E+00  0.00000000000E+00  0.64518190000E+02  0.64518190050E+02  0.25500000000E-02 0. -1.
          2   -1    0    0  501    0  0.00000000000E+00 -0.00000000000E+00 -0.12904339864E+04  0.12904339864E+04  0.25500000000E-02 0.  1.
   -5000001    1    1    2    0    0  0.75496104089E+02  0.12171645342E+03 -0.57643960684E+03  0.64443554922E+03  0.25000000000E+03 0.  0.
    5000001    1    1    2    0    0 -0.75496104089E+02 -0.12171645342E+03 -0.64947618953E+03  0.71051662720E+03  0.25000000000E+03 0.  0.
<mgrwt>
<rscale>  0 0.57708393E+03</rscale>
<asrwt>0</asrwt>
<pdfrwt beam="1">  1        2 0.19852829E+00 0.57708393E+03</pdfrwt>
<pdfrwt beam="2">  1       -2 0.99258764E-02 0.57708393E+03</pdfrwt>
<totfact> 0.11796738E+03</totfact>
</mgrwt>
</event>
<event>
 4    1  0.1714834E-005  0.8556537E+03  0.7818608E-02  0.9482780E-01
         -2   -1    0    0    0  501 -0.00000000000E+00  0.00000000000E+00  0.30661859391E+03  0.30661859392E+03  0.25500000000E-02 0. -1.
          2   -1    0    0  501    0  0.00000000000E+00 -0.00000000000E+00 -0.59694949898E+03  0.59694949898E+03  0.25500000000E-02 0.  1.
   -5000001    1    1    2    0    0 -0.34342886205E+02  0.34304532805E+03 -0.18840058483E+03  0.46567618717E+03  0.25000000000E+03 0.  0.
    5000001    1    1    2    0    0  0.34342886205E+02 -0.34304532805E+03 -0.10193032024E+03  0.43789190574E+03  0.25000000000E+03 0.  0.
<mgrwt>
<rscale>  0 0.85565371E+03</rscale>
<asrwt>0</asrwt>
<pdfrwt beam="1">  1        2 0.91838384E-01 0.85565371E+03</pdfrwt>
<pdfrwt beam="2">  1       -2 0.47172092E-01 0.85565371E+03</pdfrwt>
<totfact> 0.21360493E+02</totfact>
</mgrwt>
</event>
<event>
 4    1  0.1714834E-005  0.8876323E+03  0.7818608E-02  0.9441175E-01
         -2   -1    0    0    0  501 -0.00000000000E+00  0.00000000000E+00  0.10421159991E+03  0.10421159994E+03  0.25500000000E-02 0. -1.
          2   -1    0    0  501    0  0.00000000000E+00 -0.00000000000E+00 -0.18901232951E+04  0.18901232951E+04  0.25500000000E-02 0.  1.
   -5000001    1    1    2    0    0 -0.26112384722E+03  0.13939380470E+03 -0.13793068397E+04  0.14326910533E+04  0.25000000000E+03 0.  0.
    5000001    1    1    2    0    0  0.26112384722E+03 -0.13939380470E+03 -0.40660485551E+03  0.56164384168E+03  0.25000000000E+03 0.  0.
<mgrwt>
<rscale>  0 0.88763229E+03</rscale>
<asrwt>0</asrwt>
<pdfrwt beam="1">  1        2 0.29078817E+00 0.88763229E+03</pdfrwt>
<pdfrwt beam="2">  1       -2 0.16032555E-01 0.88763229E+03</pdfrwt>
<totfact> 0.24315327E+02</totfact>
</mgrwt>
</event>
<event>
 4    1  0.1714834E-005  0.8713309E+03  0.7818608E-02  0.9462146E-01
         -2   -1    0    0    0  501 -0.00000000000E+00  0.00000000000E+00  0.18295042018E+03  0.18295042020E+03  0.25500000000E-02 0. -1.
          2   -1    0    0  501    0  0.00000000000E+00 -0.00000000000E+00 -0.10374634859E+04  0.10374634859E+04  0.25500000000E-02 0.  1.
   -5000001    1    1    2    0    0 -0.24529732018E+03 -0.43194165028E+02 -0.78508406588E+03  0.86075170733E+03  0.25000000000E+03 0.  0.
    5000001    1    1    2    0    0  0.24529732018E+03  0.43194165028E+02 -0.69428999789E+02  0.35966219872E+03  0.25000000000E+03 0.  0.
<mgrwt>
<rscale>  0 0.87133089E+03</rscale>
<asrwt>0</asrwt>
<pdfrwt beam="1">  1        2 0.15960976E+00 0.87133089E+03</pdfrwt>
<pdfrwt beam="2">  1       -2 0.28146219E-01 0.87133089E+03</pdfrwt>
<totfact> 0.27578040E+02</totfact>
</mgrwt>
</event>
<event>
 4    1  0.1714834E-005  0.7854204E+03  0.7818608E-02  0.9581364E-01
          2   -1    0    0  501    0  0.00000000000E+00  0.00000000000E+00  0.43993140152E+03  0.43993140153E+03  0.25500000000E-02 0.  1.
         -2   -1    0    0    0  501 -0.00000000000E+00 -0.00000000000E+00 -0.35055757742E+03  0.35055757743E+03  0.25500000000E-02 0. -1.
   -5000001    1    1    2    0    0  0.14618686024E+03  0.23963505855E+03 -0.69738148766E+02  0.38230742706E+03  0.25000000000E+03 0.  0.
    5000001    1    1    2    0    0 -0.14618686024E+03 -0.23963505855E+03  0.15911197287E+03  0.40818155189E+03  0.25000000000E+03 0.  0.
<mgrwt>
<rscale>  0 0.78542036E+03</rscale>
<asrwt>0</asrwt>
<pdfrwt beam="1">  1        2 0.67681754E-01 0.78542036E+03</pdfrwt>
<pdfrwt beam="2">  1       -2 0.53931935E-01 0.78542036E+03</pdfrwt>
<totfact> 0.23292138E+02</totfact>
</mgrwt>
</event>
<event>
 4    1  0.1714834E-005  0.9436218E+03  0.7818608E-02  0.9372637E-01
          2   -1    0    0  501    0  0.00000000000E+00  0.00000000000E+00  0.22470345988E+04  0.22470345988E+04  0.25500000000E-02 0.  1.
         -2   -1    0    0    0  501 -0.00000000000E+00 -0.00000000000E+00 -0.99066351725E+02  0.99066351757E+02  0.25500000000E-02 0. -1.
   -5000001    1    1    2    0    0  0.37490319231E+03 -0.13656285005E+03  0.11487256414E+04  0.12414799293E+04  0.25000000000E+03 0.  0.
    5000001    1    1    2    0    0 -0.37490319231E+03  0.13656285005E+03  0.99924260562E+03  0.11046210212E+04  0.25000000000E+03 0.  0.
<mgrwt>
<rscale>  0 0.94362179E+03</rscale>
<asrwt>0</asrwt>
<pdfrwt beam="1">  1        2 0.34569764E+00 0.94362179E+03</pdfrwt>
<pdfrwt beam="2">  1       -2 0.15240977E-01 0.94362179E+03</pdfrwt>
<totfact> 0.16781256E+02</totfact>
</mgrwt>
</event>
<event>
 4    1  0.1714834E-005  0.6437802E+03  0.7818608E-02  0.9818521E-01
         -2   -1    0    0    0  501 -0.00000000000E+00  0.00000000000E+00  0.11028839998E+03  0.11028840001E+03  0.25500000000E-02 0. -1.
          2   -1    0    0  501    0  0.00000000000E+00 -0.00000000000E+00 -0.93947545936E+03  0.93947545937E+03  0.25500000000E-02 0.  1.
   -5000001    1    1    2    0    0  0.19980918771E+03 -0.97620041241E+01 -0.46853337380E+03  0.56748791228E+03  0.25000000000E+03 0.  0.
    5000001    1    1    2    0    0 -0.19980918771E+03  0.97620041241E+01 -0.36065368559E+03  0.48227594709E+03  0.25000000000E+03 0.  0.
<mgrwt>
<rscale>  0 0.64378023E+03</rscale>
<asrwt>0</asrwt>
<pdfrwt beam="1">  1        2 0.14453468E+00 0.64378023E+03</pdfrwt>
<pdfrwt beam="2">  1       -2 0.16967447E-01 0.64378023E+03</pdfrwt>
<totfact> 0.78882117E+02</totfact>
</mgrwt>
</event>
<event>
 4    1  0.1714834E-005  0.1168571E+04  0.7818608E-02  0.9140820E-01
         -2   -1    0    0    0  501 -0.00000000000E+00  0.00000000000E+00  0.29818142588E+03  0.29818142589E+03  0.25500000000E-02 0. -1.
          2   -1    0    0  501    0  0.00000000000E+00 -0.00000000000E+00 -0.11449052344E+04  0.11449052344E+04  0.25500000000E-02 0.  1.
   -5000001    1    1    2    0    0 -0.76937489763E+02  0.40140408885E+03 -0.10366367148E+02  0.47922028489E+03  0.25000000000E+03 0.  0.
    5000001    1    1    2    0    0  0.76937489763E+02 -0.40140408885E+03 -0.83635744136E+03  0.96386637538E+03  0.25000000000E+03 0.  0.
<mgrwt>
<rscale>  0 0.11685709E+04</rscale>
<asrwt>0</asrwt>
<pdfrwt beam="1">  1        2 0.17613927E+00 0.11685709E+04</pdfrwt>
<pdfrwt beam="2">  1       -2 0.45874066E-01 0.11685709E+04</pdfrwt>
<totfact> 0.91055806E+01</totfact>
</mgrwt>
</event>
<event>
 4    1  0.1714834E-005  0.8029178E+03  0.7818608E-02  0.9555803E-01
         -2   -1    0    0    0  501 -0.00000000000E+00  0.00000000000E+00  0.22791263525E+03  0.22791263526E+03  0.25500000000E-02 0. -1.
          2   -1    0    0  501    0  0.00000000000E+00 -0.00000000000E+00 -0.70715357339E+03  0.70715357339E+03  0.25500000000E-02 0.  1.
   -5000001    1    1    2    0    0 -0.89776808298E+02  0.30099760698E+03 -0.23597479076E+03  0.46566461814E+03  0.25000000000E+03 0.  0.
    5000001    1    1    2    0    0  0.89776808298E+02 -0.30099760698E+03 -0.24326614738E+03  0.46940159051E+03  0.25000000000E+03 0.  0.
<mgrwt>
<rscale>  0 0.80291777E+03</rscale>
<asrwt>0</asrwt>
<pdfrwt beam="1">  1        2 0.10879286E+00 0.80291777E+03</pdfrwt>
<pdfrwt beam="2">  1       -2 0.35063483E-01 0.80291777E+03</pdfrwt>
<totfact> 0.31034419E+02</totfact>
</mgrwt>
</event>
<event>
 4    1  0.1714834E-005  0.6893606E+03  0.7818608E-02  0.9735602E-01
         -2   -1    0    0    0  501 -0.00000000000E+00  0.00000000000E+00  0.11938460927E+03  0.11938460930E+03  0.25500000000E-02 0.  1.
          2   -1    0    0  501    0  0.00000000000E+00 -0.00000000000E+00 -0.99514087816E+03  0.99514087816E+03  0.25500000000E-02 0. -1.
   -5000001    1    1    2    0    0 -0.17928565183E+03 -0.36355968992E+02 -0.68221327546E+03  0.74925299776E+03  0.25000000000E+03 0.  0.
    5000001    1    1    2    0    0  0.17928565183E+03  0.36355968992E+02 -0.19354299342E+03  0.36527248971E+03  0.25000000000E+03 0.  0.
<mgrwt>
<rscale>  0 0.68936059E+03</rscale>
<asrwt>0</asrwt>
<pdfrwt beam="1">  1        2 0.15309859E+00 0.68936059E+03</pdfrwt>
<pdfrwt beam="2">  1       -2 0.18366864E-01 0.68936059E+03</pdfrwt>
<totfact> 0.63269924E+02</totfact>
</mgrwt>
</event>
<event>
 4    1  0.1714834E-005  0.6817189E+03  0.7818608E-02  0.9749016E-01
          2   -1    0    0  501    0  0.00000000000E+00  0.00000000000E+00  0.48816106149E+03  0.48816106149E+03  0.25500000000E-02 0.  1.
         -2   -1    0    0    0  501 -0.00000000000E+00 -0.00000000000E+00 -0.23800577958E+03  0.23800577959E+03  0.25500000000E-02 0. -1.
   -5000001    1    1    2    0    0  0.45779001471E+02 -0.20906765936E+03  0.30519622084E+02  0.33050938035E+03  0.25000000000E+03 0.  0.
    5000001    1    1    2    0    0 -0.45779001471E+02  0.20906765936E+03  0.21963565983E+03  0.39565746073E+03  0.25000000000E+03 0.  0.
<mgrwt>
<rscale>  0 0.68171887E+03</rscale>
<asrwt>0</asrwt>
<pdfrwt beam="1">  1        2 0.75101702E-01 0.68171887E+03</pdfrwt>
<pdfrwt beam="2">  1       -2 0.36616273E-01 0.68171887E+03</pdfrwt>
<totfact> 0.44807294E+02</totfact>
</mgrwt>
</event>
<event>
 4    1  0.1714834E-005  0.1116659E+04  0.7818608E-02  0.9189105E-01
         -2   -1    0    0    0  501 -0.00000000000E+00  0.00000000000E+00  0.13794731635E+03  0.13794731638E+03  0.25500000000E-02 0. -1.
          2   -1    0    0  501    0  0.00000000000E+00 -0.00000000000E+00 -0.22597908019E+04  0.22597908019E+04  0.25500000000E-02 0.  1.
   -5000001    1    1    2    0    0  0.13353841426E+03 -0.46731188834E+03 -0.81591805889E+03  0.98205661135E+03  0.25000000000E+03 0.  0.
    5000001    1    1    2    0    0 -0.13353841426E+03  0.46731188834E+03 -0.13059254266E+04  0.14156815069E+04  0.25000000000E+03 0.  0.
<mgrwt>
<rscale>  0 0.11166594E+04</rscale>
<asrwt>0</asrwt>
<pdfrwt beam="1">  1        2 0.34766010E+00 0.11166594E+04</pdfrwt>
<pdfrwt beam="2">  1       -2 0.21222666E-01 0.11166594E+04</pdfrwt>
<totfact> 0.91661691E+01</totfact>
</mgrwt>
</event>
<event>
 4    1  0.1714834E-005  0.3888149E+04  0.7818608E-02  0.8027499E-01
         -2   -1    0    0    0  501 -0.00000000000E+00  0.00000000000E+00  0.96499987417E+03  0.96499987417E+03  0.25500000000E-02 0. -1.
          2   -1    0    0  501    0  0.00000000000E+00 -0.00000000000E+00 -0.39165038475E+04  0.39165038475E+04  0.25500000000E-02 0.  1.
   -5000001    1    1    2    0    0 -0.18597287059E+03 -0.13821707977E+04  0.19547592809E+03  0.14302771973E+04  0.25000000000E+03 0.  0.
    5000001    1    1    2    0    0  0.18597287059E+03  0.13821707977E+04 -0.31469799015E+04  0.34512265244E+04  0.25000000000E+03 0.  0.
<mgrwt>
<rscale>  0 0.38881490E+04</rscale>
<asrwt>0</asrwt>
<pdfrwt beam="1">  1        2 0.60253905E+00 0.38881490E+04</pdfrwt>
<pdfrwt beam="2">  1       -2 0.14846152E+00 0.38881490E+04</pdfrwt>
<totfact> 0.97480338E-02</totfact>
</mgrwt>
</event>
<event>
 4    1  0.1714834E-005  0.5625158E+03  0.7818608E-02  0.9986378E-01
          2   -1    0    0  501    0  0.00000000000E+00  0.00000000000E+00  0.38740190973E+03  0.38740190974E+03  0.25500000000E-02 0.  1.
         -2   -1    0    0    0  501 -0.00000000000E+00 -0.00000000000E+00 -0.20419622923E+03  0.20419622924E+03  0.25500000000E-02 0. -1.
   -5000001    1    1    2    0    0 -0.11589512765E+03 -0.51925516921E+02  0.68607625420E+02  0.28867792812E+03  0.25000000000E+03 0.  0.
    5000001    1    1    2    0    0  0.11589512765E+03  0.51925516921E+02  0.11459805508E+03  0.30292021086E+03  0.25000000000E+03 0.  0.
<mgrwt>
<rscale>  0 0.56251581E+03</rscale>
<asrwt>0</asrwt>
<pdfrwt beam="1">  1        2 0.59600293E-01 0.56251581E+03</pdfrwt>
<pdfrwt beam="2">  1       -2 0.31414805E-01 0.56251581E+03</pdfrwt>
<totfact> 0.77895704E+02</totfact>
</mgrwt>
</event>
<event>
 4    1  0.1714834E-005  0.8942226E+03  0.7818608E-02  0.9432832E-01
          2   -1    0    0  501    0  0.00000000000E+00  0.00000000000E+00  0.73125432991E+03  0.73125432991E+03  0.25500000000E-02 0.  1.
         -2   -1    0    0    0  501 -0.00000000000E+00 -0.00000000000E+00 -0.27337754014E+03  0.27337754015E+03  0.25500000000E-02 0. -1.
   -5000001    1    1    2    0    0 -0.35340611758E+03 -0.10605789705E+03  0.18899042564E+03  0.48410901919E+03  0.25000000000E+03 0.  0.
    5000001    1    1    2    0    0  0.35340611758E+03  0.10605789705E+03  0.26888636412E+03  0.52052285088E+03  0.25000000000E+03 0.  0.
<mgrwt>
<rscale>  0 0.89422259E+03</rscale>
<asrwt>0</asrwt>
<pdfrwt beam="1">  1        2 0.11250067E+00 0.89422259E+03</pdfrwt>
<pdfrwt beam="2">  1       -2 0.42058083E-01 0.89422259E+03</pdfrwt>
<totfact> 0.20818184E+02</totfact>
</mgrwt>
</event>
<event>
 4    1  0.1714834E-005  0.6894269E+03  0.7818608E-02  0.9735486E-01
          2   -1    0    0  501    0  0.00000000000E+00  0.00000000000E+00  0.14620278852E+04  0.14620278852E+04  0.25500000000E-02 0.  1.
         -2   -1    0    0    0  501 -0.00000000000E+00 -0.00000000000E+00 -0.81275706607E+02  0.81275706647E+02  0.25500000000E-02 0. -1.
   -5000001    1    1    2    0    0 -0.23026084260E+03 -0.57365786091E+02  0.69945813828E+03  0.77977726067E+03  0.25000000000E+03 0.  0.
    5000001    1    1    2    0    0  0.23026084260E+03  0.57365786091E+02  0.68129404036E+03  0.76352633123E+03  0.25000000000E+03 0.  0.
<mgrwt>
<rscale>  0 0.68942686E+03</rscale>
<asrwt>0</asrwt>
<pdfrwt beam="1">  1        2 0.22492735E+00 0.68942686E+03</pdfrwt>
<pdfrwt beam="2">  1       -2 0.12503956E-01 0.68942686E+03</pdfrwt>
<totfact> 0.64336533E+02</totfact>
</mgrwt>
</event>
<event>
 4    1  0.1714834E-005  0.1106097E+04  0.7818608E-02  0.9199270E-01
          2   -1    0    0  501    0  0.00000000000E+00  0.00000000000E+00  0.41350048733E+03  0.41350048734E+03  0.25500000000E-02 0.  1.
         -2   -1    0    0    0  501 -0.00000000000E+00 -0.00000000000E+00 -0.73969085201E+03  0.73969085201E+03  0.25500000000E-02 0. -1.
   -5000001    1    1    2    0    0 -0.45001245494E+03 -0.97008016600E+02  0.21769852726E+02  0.52430496028E+03  0.25000000000E+03 0.  0.
    5000001    1    1    2    0    0  0.45001245494E+03  0.97008016600E+02 -0.34796021741E+03  0.62888637907E+03  0.25000000000E+03 0.  0.
<mgrwt>
<rscale>  0 0.11060968E+04</rscale>
<asrwt>0</asrwt>
<pdfrwt beam="1">  1        2 0.63615460E-01 0.11060968E+04</pdfrwt>
<pdfrwt beam="2">  1       -2 0.11379859E+00 0.11060968E+04</pdfrwt>
<totfact> 0.45976487E+01</totfact>
</mgrwt>
</event>
<event>
 4    1  0.1714834E-005  0.1571279E+04  0.7818608E-02  0.8838389E-01
          2   -1    0    0  501    0  0.00000000000E+00  0.00000000000E+00  0.13985025232E+04  0.13985025232E+04  0.25500000000E-02 0.  1.
         -2   -1    0    0    0  501 -0.00000000000E+00 -0.00000000000E+00 -0.44135019547E+03  0.44135019548E+03  0.25500000000E-02 0. -1.
   -5000001    1    1    2    0    0  0.23594164330E+03 -0.70584315636E+03  0.44451161756E+03  0.90220485400E+03  0.25000000000E+03 0.  0.
    5000001    1    1    2    0    0 -0.23594164330E+03  0.70584315636E+03  0.51264071018E+03  0.93764786469E+03  0.25000000000E+03 0.  0.
<mgrwt>
<rscale>  0 0.15712789E+04</rscale>
<asrwt>0</asrwt>
<pdfrwt beam="1">  1        2 0.21515423E+00 0.15712789E+04</pdfrwt>
<pdfrwt beam="2">  1       -2 0.67900030E-01 0.15712789E+04</pdfrwt>
<totfact> 0.27679304E+01</totfact>
</mgrwt>
</event>
<event>
 4    1  0.1714834E-005  0.6228835E+03  0.7818608E-02  0.9859035E-01
          2   -1    0    0  501    0  0.00000000000E+00  0.00000000000E+00  0.16209681047E+04  0.16209681047E+04  0.25500000000E-02 0.  1.
         -2   -1    0    0    0  501 -0.00000000000E+00 -0.00000000000E+00 -0.59838297311E+02  0.59838297365E+02  0.25500000000E-02 0. -1.
   -5000001    1    1    2    0    0  0.13604194127E+03  0.10477967747E+03  0.97155911866E+03  0.10177982667E+04  0.25000000000E+03 0.  0.
    5000001    1    1    2    0    0 -0.13604194127E+03 -0.10477967747E+03  0.58957068875E+03  0.66300813542E+03  0.25000000000E+03 0.  0.
<mgrwt>
<rscale>  0 0.62288353E+03</rscale>
<asrwt>0</asrwt>
<pdfrwt beam="1">  1        2 0.24937972E+00 0.62288353E+03</pdfrwt>
<pdfrwt beam="2">  1       -2 0.92058916E-02 0.62288353E+03</pdfrwt>
<totfact> 0.87011398E+02</totfact>
</mgrwt>
</event>
<event>
 4    1  0.1714834E-005  0.6665110E+03  0.7818608E-02  0.9776281E-01
          2   -1    0    0  501    0  0.00000000000E+00  0.00000000000E+00  0.73585312620E+03  0.73585312621E+03  0.25500000000E-02 0.  1.
         -2   -1    0    0    0  501 -0.00000000000E+00 -0.00000000000E+00 -0.15092581371E+03  0.15092581373E+03  0.25500000000E-02 0. -1.
   -5000001    1    1    2    0    0  0.13364295892E+03  0.15399141851E+03  0.18126366534E+03  0.37004096235E+03  0.25000000000E+03 0.  0.
    5000001    1    1    2    0    0 -0.13364295892E+03 -0.15399141851E+03  0.40366364716E+03  0.51673797759E+03  0.25000000000E+03 0.  0.
<mgrwt>
<rscale>  0 0.66651101E+03</rscale>
<asrwt>0</asrwt>
<pdfrwt beam="1">  1        2 0.11320817E+00 0.66651101E+03</pdfrwt>
<pdfrwt beam="2">  1       -2 0.23219356E-01 0.66651101E+03</pdfrwt>
<totfact> 0.63306771E+02</totfact>
</mgrwt>
</event>
<event>
 4    1  0.1714834E-005  0.1023346E+04  0.7818608E-02  0.9283304E-01
         -2   -1    0    0    0  501 -0.00000000000E+00  0.00000000000E+00  0.92070300062E+02  0.92070300098E+02  0.25500000000E-02 0. -1.
          2   -1    0    0  501    0  0.00000000000E+00 -0.00000000000E+00 -0.28435785759E+04  0.28435785759E+04  0.25500000000E-02 0.  1.
   -5000001    1    1    2    0    0 -0.38328519262E+03  0.58981557658E+02 -0.74124594188E+03  0.87311620612E+03  0.25000000000E+03 0.  0.
    5000001    1    1    2    0    0  0.38328519262E+03 -0.58981557658E+02 -0.20102623339E+04  0.20625326699E+04  0.25000000000E+03 0.  0.
<mgrwt>
<rscale>  0 0.10233458E+04</rscale>
<asrwt>0</asrwt>
<pdfrwt beam="1">  1        2 0.43747356E+00 0.10233458E+04</pdfrwt>
<pdfrwt beam="2">  1       -2 0.14164664E-01 0.10233458E+04</pdfrwt>
<totfact> 0.85527719E+01</totfact>
</mgrwt>
</event>
<event>
 4    1  0.1714834E-005  0.8712442E+03  0.7818608E-02  0.9462259E-01
          2   -1    0    0  501    0  0.00000000000E+00  0.00000000000E+00  0.26881862047E+04  0.26881862047E+04  0.25500000000E-02 0.  1.
         -2   -1    0    0    0  501 -0.00000000000E+00 -0.00000000000E+00 -0.70592815964E+02  0.70592816010E+02  0.25500000000E-02 0. -1.
   -5000001    1    1    2    0    0  0.15187078686E+03 -0.12053861079E+03  0.36058294850E+03  0.47970236120E+03  0.25000000000E+03 0.  0.
    5000001    1    1    2    0    0 -0.15187078686E+03  0.12053861079E+03  0.22570104403E+04  0.22790766596E+04  0.25000000000E+03 0.  0.
<mgrwt>
<rscale>  0 0.87124425E+03</rscale>
<asrwt>0</asrwt>
<pdfrwt beam="1">  1        2 0.41356711E+00 0.87124425E+03</pdfrwt>
<pdfrwt beam="2">  1       -2 0.10860433E-01 0.87124425E+03</pdfrwt>
<totfact> 0.16692352E+02</totfact>
</mgrwt>
</event>
<event>
 4    1  0.1714834E-005  0.8162445E+03  0.7818608E-02  0.9536797E-01
         -2   -1    0    0    0  501 -0.00000000000E+00  0.00000000000E+00  0.23303112583E+04  0.23303112583E+04  0.25500000000E-02 0. -1.
          2   -1    0    0  501    0  0.00000000000E+00 -0.00000000000E+00 -0.71477050612E+02  0.71477050657E+02  0.25500000000E-02 0.  1.
   -5000001    1    1    2    0    0 -0.16000689458E+03 -0.23310180787E+03  0.67238241590E+03  0.77106210668E+03  0.25000000000E+03 0.  0.
    5000001    1    1    2    0    0  0.16000689458E+03  0.23310180787E+03  0.15864517918E+04  0.16307262023E+04  0.25000000000E+03 0.  0.
<mgrwt>
<rscale>  0 0.81624451E+03</rscale>
<asrwt>0</asrwt>
<pdfrwt beam="1">  1        2 0.10996468E-01 0.81624451E+03</pdfrwt>
<pdfrwt beam="2">  1       -2 0.35850946E+00 0.81624451E+03</pdfrwt>
<totfact> 0.84854953E+00</totfact>
</mgrwt>
</event>
<event>
 4    1  0.1714834E-005  0.1117638E+04  0.7818608E-02  0.9188169E-01
         -2   -1    0    0    0  501 -0.00000000000E+00  0.00000000000E+00  0.79798955838E+02  0.79798955879E+02  0.25500000000E-02 0. -1.
          2   -1    0    0  501    0  0.00000000000E+00 -0.00000000000E+00 -0.39133191712E+04  0.39133191712E+04  0.25500000000E-02 0.  1.
   -5000001    1    1    2    0    0  0.47146560786E+03  0.14920388735E+03 -0.21753187311E+04  0.22447835533E+04  0.25000000000E+03 0.  0.
    5000001    1    1    2    0    0 -0.47146560786E+03 -0.14920388735E+03 -0.16582014843E+04  0.17483345738E+04  0.25000000000E+03 0.  0.
<mgrwt>
<rscale>  0 0.11176382E+04</rscale>
<asrwt>0</asrwt>
<pdfrwt beam="1">  1        2 0.60204895E+00 0.11176382E+04</pdfrwt>
<pdfrwt beam="2">  1       -2 0.12276765E-01 0.11176382E+04</pdfrwt>
<totfact> 0.20423550E+01</totfact>
</mgrwt>
</event>
<event>
 4    1  0.1714834E-005  0.8458674E+03  0.7818608E-02  0.9495900E-01
         -2   -1    0    0    0  501 -0.00000000000E+00  0.00000000000E+00  0.80562182544E+03  0.80562182544E+03  0.25500000000E-02 0. -1.
          2   -1    0    0  501    0  0.00000000000E+00 -0.00000000000E+00 -0.22203084407E+03  0.22203084408E+03  0.25500000000E-02 0.  1.
   -5000001    1    1    2    0    0  0.16692976232E+03  0.25386840456E+03  0.48023653012E+03  0.62083962281E+03  0.25000000000E+03 0.  0.
    5000001    1    1    2    0    0 -0.16692976232E+03 -0.25386840456E+03  0.10335445125E+03  0.40681304671E+03  0.25000000000E+03 0.  0.
<mgrwt>
<rscale>  0 0.84586735E+03</rscale>
<asrwt>0</asrwt>
<pdfrwt beam="1">  1        2 0.34158591E-01 0.84586735E+03</pdfrwt>
<pdfrwt beam="2">  1       -2 0.12394182E+00 0.84586735E+03</pdfrwt>
<totfact> 0.75697501E+01</totfact>
</mgrwt>
</event>
<event>
 4    1  0.1714834E-005  0.7430153E+03  0.7818608E-02  0.9646372E-01
         -2   -1    0    0    0  501 -0.00000000000E+00  0.00000000000E+00  0.38612715694E+03  0.38612715695E+03  0.25500000000E-02 0. -1.
          2   -1    0    0  501    0  0.00000000000E+00 -0.00000000000E+00 -0.35744168528E+03  0.35744168529E+03  0.25500000000E-02 0.  1.
   -5000001    1    1    2    0    0 -0.12153392406E+03 -0.15100568085E+03  0.20928192515E+03  0.37930480427E+03  0.25000000000E+03 0.  0.
    5000001    1    1    2    0    0  0.12153392406E+03  0.15100568085E+03 -0.18059645349E+03  0.36426403797E+03  0.25000000000E+03 0.  0.
<mgrwt>
<rscale>  0 0.74301532E+03</rscale>
<asrwt>0</asrwt>
<pdfrwt beam="1">  1        2 0.54991029E-01 0.74301532E+03</pdfrwt>
<pdfrwt beam="2">  1       -2 0.59404178E-01 0.74301532E+03</pdfrwt>
<totfact> 0.24090060E+02</totfact>
</mgrwt>
</event>
<event>
 4    1  0.1714834E-005  0.8894722E+03  0.7818608E-02  0.9438838E-01
          2   -1    0    0  501    0  0.00000000000E+00  0.00000000000E+00  0.10701951283E+04  0.10701951283E+04  0.25500000000E-02 0.  1.
         -2   -1    0    0    0  501 -0.00000000000E+00 -0.00000000000E+00 -0.18481696649E+03  0.18481696651E+03  0.25500000000E-02 0. -1.
   -5000001    1    1    2    0    0  0.32844408691E+03 -0.43384960007E+02  0.66814503416E+03  0.78655931731E+03  0.25000000000E+03 0.  0.
    5000001    1    1    2    0    0 -0.32844408691E+03  0.43384960007E+02  0.21723312760E+03  0.46845277746E+03  0.25000000000E+03 0.  0.
<mgrwt>
<rscale>  0 0.88947224E+03</rscale>
<asrwt>0</asrwt>
<pdfrwt beam="1">  1        2 0.16464540E+00 0.88947224E+03</pdfrwt>
<pdfrwt beam="2">  1       -2 0.28433380E-01 0.88947224E+03</pdfrwt>
<totfact> 0.25796266E+02</totfact>
</mgrwt>
</event>
<event>
 4    1  0.1714834E-005  0.1221561E+04  0.7818608E-02  0.9094191E-01
         -2   -1    0    0    0  501 -0.00000000000E+00  0.00000000000E+00  0.21717186155E+03  0.21717186156E+03  0.25500000000E-02 0. -1.
          2   -1    0    0  501    0  0.00000000000E+00 -0.00000000000E+00 -0.17177769999E+04  0.17177769999E+04  0.25500000000E-02 0.  1.
   -5000001    1    1    2    0    0 -0.43063729428E+03 -0.28762520742E+03 -0.42422962376E+03  0.71459604872E+03  0.25000000000E+03 0.  0.
    5000001    1    1    2    0    0  0.43063729428E+03  0.28762520742E+03 -0.10763755146E+04  0.12203528128E+04  0.25000000000E+03 0.  0.
<mgrwt>
<rscale>  0 0.12215610E+04</rscale>
<asrwt>0</asrwt>
<pdfrwt beam="1">  1        2 0.26427338E+00 0.12215610E+04</pdfrwt>
<pdfrwt beam="2">  1       -2 0.33411057E-01 0.12215610E+04</pdfrwt>
<totfact> 0.79061720E+01</totfact>
</mgrwt>
</event>
<event>
 4    1  0.1714834E-005  0.6968539E+03  0.7818608E-02  0.9722628E-01
         -2   -1    0    0    0  501 -0.00000000000E+00  0.00000000000E+00  0.19158694490E+03  0.19158694492E+03  0.25500000000E-02 0. -1.
          2   -1    0    0  501    0  0.00000000000E+00 -0.00000000000E+00 -0.63366181379E+03  0.63366181380E+03  0.25500000000E-02 0.  1.
   -5000001    1    1    2    0    0 -0.23425736510E+03  0.35275614365E+01 -0.14602316645E+03  0.37244022599E+03  0.25000000000E+03 0.  0.
    5000001    1    1    2    0    0  0.23425736510E+03 -0.35275614365E+01 -0.29605170244E+03  0.45280853273E+03  0.25000000000E+03 0.  0.
<mgrwt>
<rscale>  0 0.69685388E+03</rscale>
<asrwt>0</asrwt>
<pdfrwt beam="1">  1        2 0.97486432E-01 0.69685388E+03</pdfrwt>
<pdfrwt beam="2">  1       -2 0.29474915E-01 0.69685388E+03</pdfrwt>
<totfact> 0.49462117E+02</totfact>
</mgrwt>
</event>
<event>
 4    1  0.1714834E-005  0.1000683E+04  0.7818608E-02  0.9307795E-01
          2   -1    0    0  501    0  0.00000000000E+00  0.00000000000E+00  0.85469657000E+03  0.85469657000E+03  0.25500000000E-02 0.  1.
         -2   -1    0    0    0  501 -0.00000000000E+00 -0.00000000000E+00 -0.29290143806E+03  0.29290143808E+03  0.25500000000E-02 0. -1.
   -5000001    1    1    2    0    0 -0.44817320577E+02 -0.40367233752E+03  0.10742166259E+03  0.48887560984E+03  0.25000000000E+03 0.  0.
    5000001    1    1    2    0    0  0.44817320577E+02  0.40367233752E+03  0.45437346935E+03  0.65872239824E+03  0.25000000000E+03 0.  0.
<mgrwt>
<rscale>  0 0.10006835E+04</rscale>
<asrwt>0</asrwt>
<pdfrwt beam="1">  1        2 0.13149178E+00 0.10006835E+04</pdfrwt>
<pdfrwt beam="2">  1       -2 0.45061761E-01 0.10006835E+04</pdfrwt>
<totfact> 0.14681681E+02</totfact>
</mgrwt>
</event>
<event>
 4    1  0.1714834E-005  0.5939993E+03  0.7818608E-02  0.9917934E-01
         -2   -1    0    0    0  501 -0.00000000000E+00  0.00000000000E+00  0.55055171214E+02  0.55055171273E+02  0.25500000000E-02 0. -1.
          2   -1    0    0  501    0  0.00000000000E+00 -0.00000000000E+00 -0.16021889497E+04  0.16021889497E+04  0.25500000000E-02 0.  1.
   -5000001    1    1    2    0    0 -0.89008366173E+02  0.25869561878E+02 -0.40854811909E+03  0.48785580769E+03  0.25000000000E+03 0.  0.
    5000001    1    1    2    0    0  0.89008366173E+02 -0.25869561878E+02 -0.11385856594E+04  0.11693883133E+04  0.25000000000E+03 0.  0.
<mgrwt>
<rscale>  0 0.59399928E+03</rscale>
<asrwt>0</asrwt>
<pdfrwt beam="1">  1        2 0.24649057E+00 0.59399928E+03</pdfrwt>
<pdfrwt beam="2">  1       -2 0.84700276E-02 0.59399928E+03</pdfrwt>
<totfact> 0.10199973E+03</totfact>
</mgrwt>
</event>
<event>
 4    1  0.1714834E-005  0.9063380E+03  0.7818608E-02  0.9417693E-01
         -2   -1    0    0    0  501 -0.00000000000E+00  0.00000000000E+00  0.59625373767E+03  0.59625373767E+03  0.25500000000E-02 0. -1.
          2   -1    0    0  501    0  0.00000000000E+00 -0.00000000000E+00 -0.34442074589E+03  0.34442074590E+03  0.25500000000E-02 0.  1.
   -5000001    1    1    2    0    0 -0.12413684579E+02 -0.34675257653E+03  0.28149784715E+03  0.51198875656E+03  0.25000000000E+03 0.  0.
    5000001    1    1    2    0    0  0.12413684579E+02  0.34675257653E+03 -0.29664855374E+02  0.42868572700E+03  0.25000000000E+03 0.  0.
<mgrwt>
<rscale>  0 0.90633803E+03</rscale>
<asrwt>0</asrwt>
<pdfrwt beam="1">  1        2 0.52987807E-01 0.90633803E+03</pdfrwt>
<pdfrwt beam="2">  1       -2 0.91731344E-01 0.90633803E+03</pdfrwt>
<totfact> 0.95464522E+01</totfact>
</mgrwt>
</event>
<event>
 4    1  0.1714834E-005  0.7121057E+03  0.7818608E-02  0.9696751E-01
          2   -1    0    0  501    0  0.00000000000E+00  0.00000000000E+00  0.23171825907E+04  0.23171825907E+04  0.25500000000E-02 0.  1.
         -2   -1    0    0    0  501 -0.00000000000E+00 -0.00000000000E+00 -0.54710247744E+02  0.54710247803E+02  0.25500000000E-02 0. -1.
   -5000001    1    1    2    0    0  0.27659225024E+02 -0.25015476157E+03  0.12328777027E+04  0.12828990090E+04  0.25000000000E+03 0.  0.
    5000001    1    1    2    0    0 -0.27659225024E+02  0.25015476157E+03  0.10295946403E+04  0.10889938295E+04  0.25000000000E+03 0.  0.
<mgrwt>
<rscale>  0 0.71210570E+03</rscale>
<asrwt>0</asrwt>
<pdfrwt beam="1">  1        2 0.35648965E+00 0.71210570E+03</pdfrwt>
<pdfrwt beam="2">  1       -2 0.84169608E-02 0.71210570E+03</pdfrwt>
<totfact> 0.41634915E+02</totfact>
</mgrwt>
</event>
<event>
 4    1  0.1714834E-005  0.1171436E+04  0.7818608E-02  0.9138233E-01
         -2   -1    0    0    0  501 -0.00000000000E+00  0.00000000000E+00  0.73611798479E+03  0.73611798479E+03  0.25500000000E-02 0. -1.
          2   -1    0    0  501    0  0.00000000000E+00 -0.00000000000E+00 -0.46604677613E+03  0.46604677614E+03  0.25500000000E-02 0.  1.
   -5000001    1    1    2    0    0 -0.17941828632E+03 -0.48860236837E+03  0.23580624013E+03  0.62372091413E+03  0.25000000000E+03 0.  0.
    5000001    1    1    2    0    0  0.17941828632E+03  0.48860236837E+03  0.34264968531E+02  0.57844384681E+03  0.25000000000E+03 0.  0.
<mgrwt>
<rscale>  0 0.11714357E+04</rscale>
<asrwt>0</asrwt>
<pdfrwt beam="1">  1        2 0.71699504E-01 0.11714357E+04</pdfrwt>
<pdfrwt beam="2">  1       -2 0.11324892E+00 0.11714357E+04</pdfrwt>
<totfact> 0.40420365E+01</totfact>
</mgrwt>
</event>
<event>
 4    1  0.1714834E-005  0.1284015E+04  0.7818608E-02  0.9042339E-01
          2   -1    0    0  501    0  0.00000000000E+00  0.00000000000E+00  0.82159453766E+03  0.82159453767E+03  0.25500000000E-02 0.  1.
         -2   -1    0    0    0  501 -0.00000000000E+00 -0.00000000000E+00 -0.50167489671E+03  0.50167489671E+03  0.25500000000E-02 0. -1.
   -5000001    1    1    2    0    0 -0.51451682952E+03  0.19384598195E+03 -0.64339434536E+02  0.60740710846E+03  0.25000000000E+03 0.  0.
    5000001    1    1    2    0    0  0.51451682952E+03 -0.19384598195E+03  0.38425907549E+03  0.71586232592E+03  0.25000000000E+03 0.  0.
<mgrwt>
<rscale>  0 0.12840146E+04</rscale>
<asrwt>0</asrwt>
<pdfrwt beam="1">  1        2 0.12639916E+00 0.12840146E+04</pdfrwt>
<pdfrwt beam="2">  1       -2 0.77180754E-01 0.12840146E+04</pdfrwt>
<totfact> 0.48879936E+01</totfact>
</mgrwt>
</event>
<event>
 4    1  0.1714834E-005  0.7753774E+03  0.7818608E-02  0.9596357E-01
         -2   -1    0    0    0  501 -0.00000000000E+00  0.00000000000E+00  0.11384864366E+03  0.11384864369E+03  0.25500000000E-02 0. -1.
          2   -1    0    0  501    0  0.00000000000E+00 -0.00000000000E+00 -0.13201959101E+04  0.13201959101E+04  0.25500000000E-02 0.  1.
   -5000001    1    1    2    0    0  0.14483660661E+03  0.47454332910E+02 -0.10731487511E+04  0.11123748461E+04  0.25000000000E+03 0.  0.
    5000001    1    1    2    0    0 -0.14483660661E+03 -0.47454332910E+02 -0.13319851531E+03  0.32166970763E+03  0.25000000000E+03 0.  0.
<mgrwt>
<rscale>  0 0.77537736E+03</rscale>
<asrwt>0</asrwt>
<pdfrwt beam="1">  1        2 0.20310705E+00 0.77537736E+03</pdfrwt>
<pdfrwt beam="2">  1       -2 0.17515177E-01 0.77537736E+03</pdfrwt>
<totfact> 0.43611597E+02</totfact>
</mgrwt>
</event>
<event>
 4    1  0.1714834E-005  0.6712853E+03  0.7818608E-02  0.9767639E-01
          2   -1    0    0  501    0  0.00000000000E+00  0.00000000000E+00  0.28887239794E+04  0.28887239794E+04  0.25500000000E-02 0.  1.
         -2   -1    0    0    0  501 -0.00000000000E+00 -0.00000000000E+00 -0.38998528682E+02  0.38998528766E+02  0.25500000000E-02 0. -1.
   -5000001    1    1    2    0    0  0.15476433332E+03 -0.14621403945E+03  0.17278269032E+04  0.17587542044E+04  0.25000000000E+03 0.  0.
    5000001    1    1    2    0    0 -0.15476433332E+03  0.14621403945E+03  0.11218985475E+04  0.11689683037E+04  0.25000000000E+03 0.  0.
<mgrwt>
<rscale>  0 0.67128529E+03</rscale>
<asrwt>0</asrwt>
<pdfrwt beam="1">  1        2 0.44441920E+00 0.67128529E+03</pdfrwt>
<pdfrwt beam="2">  1       -2 0.59997719E-02 0.67128529E+03</pdfrwt>
<totfact> 0.33598898E+02</totfact>
</mgrwt>
</event>
<event>
 4    1  0.1714834E-005  0.7048037E+03  0.7818608E-02  0.9709052E-01
          2   -1    0    0  501    0  0.00000000000E+00  0.00000000000E+00  0.48052758064E+03  0.48052758064E+03  0.25500000000E-02 0.  1.
         -2   -1    0    0    0  501 -0.00000000000E+00 -0.00000000000E+00 -0.25843895807E+03  0.25843895808E+03  0.25500000000E-02 0. -1.
   -5000001    1    1    2    0    0 -0.19617744049E+03 -0.13559232799E+03  0.38281751537E+02  0.34761524717E+03  0.25000000000E+03 0.  0.
    5000001    1    1    2    0    0  0.19617744049E+03  0.13559232799E+03  0.18380687103E+03  0.39135129156E+03  0.25000000000E+03 0.  0.
<mgrwt>
<rscale>  0 0.70480365E+03</rscale>
<asrwt>0</asrwt>
<pdfrwt beam="1">  1        2 0.73927319E-01 0.70480365E+03</pdfrwt>
<pdfrwt beam="2">  1       -2 0.39759840E-01 0.70480365E+03</pdfrwt>
<totfact> 0.38895817E+02</totfact>
</mgrwt>
</event>
<event>
 4    1  0.1714834E-005  0.7422347E+03  0.7818608E-02  0.9647612E-01
         -2   -1    0    0    0  501 -0.00000000000E+00  0.00000000000E+00  0.38327506724E+03  0.38327506725E+03  0.25500000000E-02 0. -1.
          2   -1    0    0  501    0  0.00000000000E+00 -0.00000000000E+00 -0.35934529418E+03  0.35934529419E+03  0.25500000000E-02 0.  1.
   -5000001    1    1    2    0    0  0.10708063287E+03 -0.14720261803E+03  0.21723780729E+03  0.37792477771E+03  0.25000000000E+03 0.  0.
    5000001    1    1    2    0    0 -0.10708063287E+03  0.14720261803E+03 -0.19330803423E+03  0.36469558373E+03  0.25000000000E+03 0.  0.
<mgrwt>
<rscale>  0 0.74223471E+03</rscale>
<asrwt>0</asrwt>
<pdfrwt beam="1">  1        2 0.55283892E-01 0.74223471E+03</pdfrwt>
<pdfrwt beam="2">  1       -2 0.58965395E-01 0.74223471E+03</pdfrwt>
<totfact> 0.24324671E+02</totfact>
</mgrwt>
</event>
<event>
 4    1  0.1714834E-005  0.9384327E+03  0.7818608E-02  0.9378774E-01
          2   -1    0    0  501    0  0.00000000000E+00  0.00000000000E+00  0.15559736516E+04  0.15559736516E+04  0.25500000000E-02 0.  1.
         -2   -1    0    0    0  501 -0.00000000000E+00 -0.00000000000E+00 -0.14149595242E+03  0.14149595244E+03  0.25500000000E-02 0. -1.
   -5000001    1    1    2    0    0  0.21234960314E+02  0.38632165160E+03  0.86870844670E+03  0.98328516078E+03  0.25000000000E+03 0.  0.
    5000001    1    1    2    0    0 -0.21234960314E+02 -0.38632165160E+03  0.54576925244E+03  0.71418444322E+03  0.25000000000E+03 0.  0.
<mgrwt>
<rscale>  0 0.93843268E+03</rscale>
<asrwt>0</asrwt>
<pdfrwt beam="1">  1        2 0.23938054E+00 0.93843268E+03</pdfrwt>
<pdfrwt beam="2">  1       -2 0.21768610E-01 0.93843268E+03</pdfrwt>
<totfact> 0.21743081E+02</totfact>
</mgrwt>
</event>
<event>
 4    1  0.1714834E-005  0.9115690E+03  0.7818608E-02  0.9411234E-01
         -2   -1    0    0    0  501 -0.00000000000E+00  0.00000000000E+00  0.17708708236E+03  0.17708708238E+03  0.25500000000E-02 0. -1.
          2   -1    0    0  501    0  0.00000000000E+00 -0.00000000000E+00 -0.11730923359E+04  0.11730923359E+04  0.25500000000E-02 0.  1.
   -5000001    1    1    2    0    0 -0.29483691733E+03  0.11662282501E+02 -0.14075532410E+03  0.41155422233E+03  0.25000000000E+03 0.  0.
    5000001    1    1    2    0    0  0.29483691733E+03 -0.11662282501E+02 -0.85524992940E+03  0.93862519591E+03  0.25000000000E+03 0.  0.
<mgrwt>
<rscale>  0 0.91156898E+03</rscale>
<asrwt>0</asrwt>
<pdfrwt beam="1">  1        2 0.18047574E+00 0.91156898E+03</pdfrwt>
<pdfrwt beam="2">  1       -2 0.27244167E-01 0.91156898E+03</pdfrwt>
<totfact> 0.24118193E+02</totfact>
</mgrwt>
</event>
<event>
 4    1  0.1714834E-005  0.6462128E+03  0.7818608E-02  0.9813912E-01
          2   -1    0    0  501    0  0.00000000000E+00  0.00000000000E+00  0.99239108973E+03  0.99239108973E+03  0.25500000000E-02 0.  1.
         -2   -1    0    0    0  501 -0.00000000000E+00 -0.00000000000E+00 -0.10519819762E+03  0.10519819765E+03  0.25500000000E-02 0. -1.
   -5000001    1    1    2    0    0  0.58477168966E+02 -0.15500635352E+03  0.23941497980E+03  0.38375263058E+03  0.25000000000E+03 0.  0.
    5000001    1    1    2    0    0 -0.58477168966E+02  0.15500635352E+03  0.64777791231E+03  0.71383665680E+03  0.25000000000E+03 0.  0.
<mgrwt>
<rscale>  0 0.64621283E+03</rscale>
<asrwt>0</asrwt>
<pdfrwt beam="1">  1        2 0.15267555E+00 0.64621283E+03</pdfrwt>
<pdfrwt beam="2">  1       -2 0.16184339E-01 0.64621283E+03</pdfrwt>
<totfact> 0.79028300E+02</totfact>
</mgrwt>
</event>
<event>
 4    1  0.1714834E-005  0.8593100E+03  0.7818608E-02  0.9477926E-01
         -2   -1    0    0    0  501 -0.00000000000E+00  0.00000000000E+00  0.19737120791E+03  0.19737120793E+03  0.25500000000E-02 0. -1.
          2   -1    0    0  501    0  0.00000000000E+00 -0.00000000000E+00 -0.93531074469E+03  0.93531074469E+03  0.25500000000E-02 0.  1.
   -5000001    1    1    2    0    0  0.62238918377E+02  0.33636486567E+03 -0.46299599049E+03  0.62759883128E+03  0.25000000000E+03 0.  0.
    5000001    1    1    2    0    0 -0.62238918377E+02 -0.33636486567E+03 -0.27494354629E+03  0.50508312134E+03  0.25000000000E+03 0.  0.
<mgrwt>
<rscale>  0 0.85930998E+03</rscale>
<asrwt>0</asrwt>
<pdfrwt beam="1">  1        2 0.14389396E+00 0.85930998E+03</pdfrwt>
<pdfrwt beam="2">  1       -2 0.30364802E-01 0.85930998E+03</pdfrwt>
<totfact> 0.27906955E+02</totfact>
</mgrwt>
</event>
<event>
 4    1  0.1714834E-005  0.5594532E+03  0.7818608E-02  0.9993293E-01
          2   -1    0    0  501    0  0.00000000000E+00  0.00000000000E+00  0.22965120937E+04  0.22965120937E+04  0.25500000000E-02 0.  1.
         -2   -1    0    0    0  501 -0.00000000000E+00 -0.00000000000E+00 -0.34072092892E+02  0.34072092988E+02  0.25500000000E-02 0. -1.
   -5000001    1    1    2    0    0  0.21192490795E+02 -0.92913504112E+02  0.79112605065E+03  0.83514218486E+03  0.25000000000E+03 0.  0.
    5000001    1    1    2    0    0 -0.21192490795E+02  0.92913504112E+02  0.14713139502E+04  0.14954420018E+04  0.25000000000E+03 0.  0.
<mgrwt>
<rscale>  0 0.55945321E+03</rscale>
<asrwt>0</asrwt>
<pdfrwt beam="1">  1        2 0.35330958E+00 0.55945321E+03</pdfrwt>
<pdfrwt beam="2">  1       -2 0.52418600E-02 0.55945321E+03</pdfrwt>
<totfact> 0.91375041E+02</totfact>
</mgrwt>
</event>
<event>
 4    1  0.1714834E-005  0.5697928E+03  0.7818608E-02  0.9970137E-01
         -2   -1    0    0    0  501 -0.00000000000E+00  0.00000000000E+00  0.17831966828E+03  0.17831966830E+03  0.25500000000E-02 0. -1.
          2   -1    0    0  501    0  0.00000000000E+00 -0.00000000000E+00 -0.45517115111E+03  0.45517115112E+03  0.25500000000E-02 0.  1.
   -5000001    1    1    2    0    0  0.49444965915E+02  0.12608567433E+03 -0.15842460383E+03  0.32548541753E+03  0.25000000000E+03 0.  0.
    5000001    1    1    2    0    0 -0.49444965915E+02 -0.12608567433E+03 -0.11842687900E+03  0.30800540189E+03  0.25000000000E+03 0.  0.
<mgrwt>
<rscale>  0 0.56979283E+03</rscale>
<asrwt>0</asrwt>
<pdfrwt beam="1">  1        2 0.70026331E-01 0.56979283E+03</pdfrwt>
<pdfrwt beam="2">  1       -2 0.27433795E-01 0.56979283E+03</pdfrwt>
<totfact> 0.83398069E+02</totfact>
</mgrwt>
</event>
<event>
 4    1  0.1714834E-005  0.5884939E+03  0.7818608E-02  0.9929569E-01
         -2   -1    0    0    0  501 -0.00000000000E+00  0.00000000000E+00  0.47782612161E+02  0.47782612229E+02  0.25500000000E-02 0. -1.
          2   -1    0    0  501    0  0.00000000000E+00 -0.00000000000E+00 -0.18119827247E+04  0.18119827247E+04  0.25500000000E-02 0.  1.
   -5000001    1    1    2    0    0 -0.12513290282E+03  0.90877989090E+02 -0.92259710309E+03  0.96829874878E+03  0.25000000000E+03 0.  0.
    5000001    1    1    2    0    0  0.12513290282E+03 -0.90877989090E+02 -0.84160300947E+03  0.89146658816E+03  0.25000000000E+03 0.  0.
<mgrwt>
<rscale>  0 0.58849390E+03</rscale>
<asrwt>0</asrwt>
<pdfrwt beam="1">  1        2 0.27876652E+00 0.58849390E+03</pdfrwt>
<pdfrwt beam="2">  1       -2 0.73511725E-02 0.58849390E+03</pdfrwt>
<totfact> 0.98355758E+02</totfact>
</mgrwt>
</event>
<event>
 4    1  0.1714834E-005  0.9685179E+03  0.7818608E-02  0.9343764E-01
          2   -1    0    0  501    0  0.00000000000E+00  0.00000000000E+00  0.99638225900E+03  0.99638225900E+03  0.25500000000E-02 0.  1.
         -2   -1    0    0    0  501 -0.00000000000E+00 -0.00000000000E+00 -0.23535821666E+03  0.23535821667E+03  0.25500000000E-02 0. -1.
   -5000001    1    1    2    0    0 -0.39950138058E+03  0.10660407380E+03  0.33947926966E+03  0.59051837919E+03  0.25000000000E+03 0.  0.
    5000001    1    1    2    0    0  0.39950138058E+03 -0.10660407380E+03  0.42154477268E+03  0.64122209648E+03  0.25000000000E+03 0.  0.
<mgrwt>
<rscale>  0 0.96851794E+03</rscale>
<asrwt>0</asrwt>
<pdfrwt beam="1">  1        2 0.15328958E+00 0.96851794E+03</pdfrwt>
<pdfrwt beam="2">  1       -2 0.36208957E-01 0.96851794E+03</pdfrwt>
<totfact> 0.18151802E+02</totfact>
</mgrwt>
</event>
<event>
 4    1  0.1714834E-005  0.1329253E+04  0.7818608E-02  0.9006684E-01
         -2   -1    0    0    0  501 -0.00000000000E+00  0.00000000000E+00  0.40271424822E+03  0.40271424823E+03  0.25500000000E-02 0. -1.
          2   -1    0    0  501    0  0.00000000000E+00 -0.00000000000E+00 -0.10968777508E+04  0.10968777508E+04  0.25500000000E-02 0.  1.
   -5000001    1    1    2    0    0 -0.42997498333E+03  0.43847130248E+03 -0.29547315477E+03  0.72590629876E+03  0.25000000000E+03 0.  0.
    5000001    1    1    2    0    0  0.42997498333E+03 -0.43847130248E+03 -0.39869034782E+03  0.77368570029E+03  0.25000000000E+03 0.  0.
<mgrwt>
<rscale>  0 0.13292529E+04</rscale>
<asrwt>0</asrwt>
<pdfrwt beam="1">  1        2 0.16875042E+00 0.13292529E+04</pdfrwt>
<pdfrwt beam="2">  1       -2 0.61956039E-01 0.13292529E+04</pdfrwt>
<totfact> 0.51792599E+01</totfact>
</mgrwt>
</event>
<event>
 4    1  0.1714834E-005  0.1226973E+04  0.7818608E-02  0.9089569E-01
          2   -1    0    0  501    0  0.00000000000E+00  0.00000000000E+00  0.25722926212E+03  0.25722926213E+03  0.25500000000E-02 0.  1.
         -2   -1    0    0    0  501 -0.00000000000E+00 -0.00000000000E+00 -0.14631525113E+04  0.14631525113E+04  0.25500000000E-02 0. -1.
   -5000001    1    1    2    0    0  0.95457099547E+02  0.54644496494E+03 -0.71293303051E+03  0.93727672731E+03  0.25000000000E+03 0.  0.
    5000001    1    1    2    0    0 -0.95457099547E+02 -0.54644496494E+03 -0.49299021867E+03  0.78310504613E+03  0.25000000000E+03 0.  0.
<mgrwt>
<rscale>  0 0.12269729E+04</rscale>
<asrwt>0</asrwt>
<pdfrwt beam="1">  1        2 0.39573734E-01 0.12269729E+04</pdfrwt>
<pdfrwt beam="2">  1       -2 0.22510038E+00 0.12269729E+04</pdfrwt>
<totfact> 0.11791215E+01</totfact>
</mgrwt>
</event>
<event>
 4    1  0.1714834E-005  0.8595687E+03  0.7818608E-02  0.9477583E-01
         -2   -1    0    0    0  501 -0.00000000000E+00  0.00000000000E+00  0.69926749712E+02  0.69926749759E+02  0.25500000000E-02 0. -1.
          2   -1    0    0  501    0  0.00000000000E+00 -0.00000000000E+00 -0.26415442557E+04  0.26415442557E+04  0.25500000000E-02 0.  1.
   -5000001    1    1    2    0    0  0.33765115120E+03  0.59842309971E+02 -0.15003395815E+04  0.15592011614E+04  0.25000000000E+03 0.  0.
    5000001    1    1    2    0    0 -0.33765115120E+03 -0.59842309971E+02 -0.10712779244E+04  0.11522698440E+04  0.25000000000E+03 0.  0.
<mgrwt>
<rscale>  0 0.85956874E+03</rscale>
<asrwt>0</asrwt>
<pdfrwt beam="1">  1        2 0.40639135E+00 0.85956874E+03</pdfrwt>
<pdfrwt beam="2">  1       -2 0.10757964E-01 0.85956874E+03</pdfrwt>
<totfact> 0.18067267E+02</totfact>
</mgrwt>
</event>
<event>
 4    1  0.1714834E-005  0.9450467E+03  0.7818608E-02  0.9370959E-01
         -2   -1    0    0    0  501 -0.00000000000E+00  0.00000000000E+00  0.11273443280E+03  0.11273443283E+03  0.25500000000E-02 0. -1.
          2   -1    0    0  501    0  0.00000000000E+00 -0.00000000000E+00 -0.19805690984E+04  0.19805690984E+04  0.25500000000E-02 0.  1.
   -5000001    1    1    2    0    0 -0.31774368919E+03  0.26520648271E+01 -0.14756271702E+04  0.15300142584E+04  0.25000000000E+03 0.  0.
    5000001    1    1    2    0    0  0.31774368919E+03 -0.26520648271E+01 -0.39220749546E+03  0.56328927290E+03  0.25000000000E+03 0.  0.
<mgrwt>
<rscale>  0 0.94504674E+03</rscale>
<asrwt>0</asrwt>
<pdfrwt beam="1">  1        2 0.30470291E+00 0.94504674E+03</pdfrwt>
<pdfrwt beam="2">  1       -2 0.17343760E-01 0.94504674E+03</pdfrwt>
<totfact> 0.18874701E+02</totfact>
</mgrwt>
</event>
<event>
 4    1  0.1714834E-005  0.8083198E+03  0.7818608E-02  0.9548052E-01
          2   -1    0    0  501    0  0.00000000000E+00  0.00000000000E+00  0.13356801920E+04  0.13356801920E+04  0.25500000000E-02 0.  1.
         -2   -1    0    0    0  501 -0.00000000000E+00 -0.00000000000E+00 -0.12229366282E+03  0.12229366284E+03  0.25500000000E-02 0. -1.
   -5000001    1    1    2    0    0  0.27146839904E+03 -0.70954747154E+02  0.33845826472E+03  0.50575059543E+03  0.25000000000E+03 0.  0.
    5000001    1    1    2    0    0 -0.27146839904E+03  0.70954747154E+02  0.87492826445E+03  0.95222325941E+03  0.25000000000E+03 0.  0.
<mgrwt>
<rscale>  0 0.80831980E+03</rscale>
<asrwt>0</asrwt>
<pdfrwt beam="1">  1        2 0.20548925E+00 0.80831980E+03</pdfrwt>
<pdfrwt beam="2">  1       -2 0.18814411E-01 0.80831980E+03</pdfrwt>
<totfact> 0.37688428E+02</totfact>
</mgrwt>
</event>
<event>
 4    1  0.1714834E-005  0.6754330E+03  0.7818608E-02  0.9760193E-01
          2   -1    0    0  501    0  0.00000000000E+00  0.00000000000E+00  0.14025916768E+04  0.14025916768E+04  0.25500000000E-02 0.  1.
         -2   -1    0    0    0  501 -0.00000000000E+00 -0.00000000000E+00 -0.81315496408E+02  0.81315496448E+02  0.25500000000E-02 0. -1.
   -5000001    1    1    2    0    0  0.21760742451E+03 -0.64280661647E+02  0.64259563932E+03  0.72588852473E+03  0.25000000000E+03 0.  0.
    5000001    1    1    2    0    0 -0.21760742451E+03  0.64280661647E+02  0.67868054104E+03  0.75801864849E+03  0.25000000000E+03 0.  0.
<mgrwt>
<rscale>  0 0.67543301E+03</rscale>
<asrwt>0</asrwt>
<pdfrwt beam="1">  1        2 0.21578334E+00 0.67543301E+03</pdfrwt>
<pdfrwt beam="2">  1       -2 0.12510076E-01 0.67543301E+03</pdfrwt>
<totfact> 0.69457914E+02</totfact>
</mgrwt>
</event>
<event>
 4    1  0.1714834E-005  0.6929838E+03  0.7818608E-02  0.9729307E-01
          2   -1    0    0  501    0  0.00000000000E+00  0.00000000000E+00  0.43539262251E+03  0.43539262251E+03  0.25500000000E-02 0. -1.
         -2   -1    0    0    0  501 -0.00000000000E+00 -0.00000000000E+00 -0.27574335740E+03  0.27574335741E+03  0.25500000000E-02 0.  1.
   -5000001    1    1    2    0    0  0.21950462995E+03  0.13569175826E+02 -0.18552126475E+02  0.33348251303E+03  0.25000000000E+03 0.  0.
    5000001    1    1    2    0    0 -0.21950462995E+03 -0.13569175826E+02  0.17820139158E+03  0.37765346690E+03  0.25000000000E+03 0.  0.
<mgrwt>
<rscale>  0 0.69298376E+03</rscale>
<asrwt>0</asrwt>
<pdfrwt beam="1">  1        2 0.66983480E-01 0.69298376E+03</pdfrwt>
<pdfrwt beam="2">  1       -2 0.42422055E-01 0.69298376E+03</pdfrwt>
<totfact> 0.38360461E+02</totfact>
</mgrwt>
</event>
<event>
 4    1  0.1714834E-005  0.8180221E+03  0.7818608E-02  0.9534291E-01
         -2   -1    0    0    0  501 -0.00000000000E+00  0.00000000000E+00  0.88331298289E+02  0.88331298325E+02  0.25500000000E-02 0. -1.
          2   -1    0    0  501    0  0.00000000000E+00 -0.00000000000E+00 -0.18938931752E+04  0.18938931752E+04  0.25500000000E-02 0.  1.
   -5000001    1    1    2    0    0 -0.23478637478E+03  0.28123584159E+02 -0.36707211304E+03  0.50314760652E+03  0.25000000000E+03 0.  0.
    5000001    1    1    2    0    0  0.23478637478E+03 -0.28123584159E+02 -0.14384897638E+04  0.14790768670E+04  0.25000000000E+03 0.  0.
<mgrwt>
<rscale>  0 0.81802211E+03</rscale>
<asrwt>0</asrwt>
<pdfrwt beam="1">  1        2 0.29136815E+00 0.81802211E+03</pdfrwt>
<pdfrwt beam="2">  1       -2 0.13589432E-01 0.81802211E+03</pdfrwt>
<totfact> 0.32170336E+02</totfact>
</mgrwt>
</event>
<event>
 4    1  0.1714834E-005  0.6612323E+03  0.7818608E-02  0.9785928E-01
          2   -1    0    0  501    0  0.00000000000E+00  0.00000000000E+00  0.90234208087E+03  0.90234208087E+03  0.25500000000E-02 0.  1.
         -2   -1    0    0    0  501 -0.00000000000E+00 -0.00000000000E+00 -0.12113702265E+03  0.12113702268E+03  0.25500000000E-02 0. -1.
   -5000001    1    1    2    0    0 -0.12573176898E+03 -0.10473976880E+03  0.17155154971E+03  0.34454147952E+03  0.25000000000E+03 0.  0.
    5000001    1    1    2    0    0  0.12573176898E+03  0.10473976880E+03  0.60965350850E+03  0.67893762404E+03  0.25000000000E+03 0.  0.
<mgrwt>
<rscale>  0 0.66123228E+03</rscale>
<asrwt>0</asrwt>
<pdfrwt beam="1">  1        2 0.13882186E+00 0.66123228E+03</pdfrwt>
<pdfrwt beam="2">  1       -2 0.18636465E-01 0.66123228E+03</pdfrwt>
<totfact> 0.70996008E+02</totfact>
</mgrwt>
</event>
<event>
 4    1  0.1714834E-005  0.6599470E+03  0.7818608E-02  0.9788291E-01
          2   -1    0    0  501    0  0.00000000000E+00  0.00000000000E+00  0.48221994933E+03  0.48221994934E+03  0.25500000000E-02 0.  1.
         -2   -1    0    0    0  501 -0.00000000000E+00 -0.00000000000E+00 -0.22579430220E+03  0.22579430221E+03  0.25500000000E-02 0. -1.
   -5000001    1    1    2    0    0  0.13643642338E+03 -0.69304508789E+02  0.29079070762E+03  0.41288890540E+03  0.25000000000E+03 0.  0.
    5000001    1    1    2    0    0 -0.13643642338E+03  0.69304508789E+02 -0.34365060482E+02  0.29512534616E+03  0.25000000000E+03 0.  0.
<mgrwt>
<rscale>  0 0.65994702E+03</rscale>
<asrwt>0</asrwt>
<pdfrwt beam="1">  1        2 0.74187685E-01 0.65994702E+03</pdfrwt>
<pdfrwt beam="2">  1       -2 0.34737585E-01 0.65994702E+03</pdfrwt>
<totfact> 0.50271271E+02</totfact>
</mgrwt>
</event>
<event>
 4    1  0.1714834E-005  0.9197598E+03  0.7818608E-02  0.9401212E-01
          2   -1    0    0  501    0  0.00000000000E+00  0.00000000000E+00  0.95073956800E+03  0.95073956801E+03  0.25500000000E-02 0.  1.
         -2   -1    0    0    0  501 -0.00000000000E+00 -0.00000000000E+00 -0.22244737189E+03  0.22244737190E+03  0.25500000000E-02 0. -1.
   -5000001    1    1    2    0    0 -0.21322884347E+03  0.84689489838E+02 -0.31785503852E+02  0.34080664259E+03  0.25000000000E+03 0.  0.
    5000001    1    1    2    0    0  0.21322884347E+03 -0.84689489838E+02  0.76007769997E+03  0.83238029732E+03  0.25000000000E+03 0.  0.
<mgrwt>
<rscale>  0 0.91975979E+03</rscale>
<asrwt>0</asrwt>
<pdfrwt beam="1">  1        2 0.14626762E+00 0.91975979E+03</pdfrwt>
<pdfrwt beam="2">  1       -2 0.34222673E-01 0.91975979E+03</pdfrwt>
<totfact> 0.21702906E+02</totfact>
</mgrwt>
</event>
<event>
 4    1  0.1714834E-005  0.8955750E+03  0.7818608E-02  0.9431130E-01
         -2   -1    0    0    0  501 -0.00000000000E+00  0.00000000000E+00  0.16842170846E+03  0.16842170848E+03  0.25500000000E-02 0. -1.
          2   -1    0    0  501    0  0.00000000000E+00 -0.00000000000E+00 -0.11905450588E+04  0.11905450588E+04  0.25500000000E-02 0.  1.
   -5000001    1    1    2    0    0  0.27254327785E+03 -0.21287064613E+03 -0.30511711913E+03  0.52458574768E+03  0.25000000000E+03 0.  0.
    5000001    1    1    2    0    0 -0.27254327785E+03  0.21287064613E+03 -0.71700623119E+03  0.83438101959E+03  0.25000000000E+03 0.  0.
<mgrwt>
<rscale>  0 0.89557497E+03</rscale>
<asrwt>0</asrwt>
<pdfrwt beam="1">  1        2 0.18316077E+00 0.89557497E+03</pdfrwt>
<pdfrwt beam="2">  1       -2 0.25911033E-01 0.89557497E+03</pdfrwt>
<totfact> 0.25824531E+02</totfact>
</mgrwt>
</event>
<event>
 4    1  0.1714834E-005  0.7455520E+03  0.7818608E-02  0.9642355E-01
          2   -1    0    0  501    0  0.00000000000E+00  0.00000000000E+00  0.56001977866E+03  0.56001977866E+03  0.25500000000E-02 0.  1.
         -2   -1    0    0    0  501 -0.00000000000E+00 -0.00000000000E+00 -0.24813754769E+03  0.24813754770E+03  0.25500000000E-02 0. -1.
   -5000001    1    1    2    0    0  0.21430356604E+03  0.14566408975E+03  0.51306167901E+02  0.36369818301E+03  0.25000000000E+03 0.  0.
    5000001    1    1    2    0    0 -0.21430356604E+03 -0.14566408975E+03  0.26057606307E+03  0.44445914335E+03  0.25000000000E+03 0.  0.
<mgrwt>
<rscale>  0 0.74555197E+03</rscale>
<asrwt>0</asrwt>
<pdfrwt beam="1">  1        2 0.86156888E-01 0.74555197E+03</pdfrwt>
<pdfrwt beam="2">  1       -2 0.38175008E-01 0.74555197E+03</pdfrwt>
<totfact> 0.35152859E+02</totfact>
</mgrwt>
</event>
<event>
 4    1  0.1714834E-005  0.9446386E+03  0.7818608E-02  0.9371439E-01
          2   -1    0    0  501    0  0.00000000000E+00  0.00000000000E+00  0.83017416116E+03  0.83017416116E+03  0.25500000000E-02 0.  1.
         -2   -1    0    0    0  501 -0.00000000000E+00 -0.00000000000E+00 -0.26872134839E+03  0.26872134841E+03  0.25500000000E-02 0. -1.
   -5000001    1    1    2    0    0 -0.32597179996E+03 -0.11637307684E+03  0.45794459706E+02  0.42941523020E+03  0.25000000000E+03 0.  0.
    5000001    1    1    2    0    0  0.32597179996E+03  0.11637307684E+03  0.51565835306E+03  0.66948027937E+03  0.25000000000E+03 0.  0.
<mgrwt>
<rscale>  0 0.94463860E+03</rscale>
<asrwt>0</asrwt>
<pdfrwt beam="1">  1        2 0.12771910E+00 0.94463860E+03</pdfrwt>
<pdfrwt beam="2">  1       -2 0.41341746E-01 0.94463860E+03</pdfrwt>
<totfact> 0.18173631E+02</totfact>
</mgrwt>
</event>
<event>
 4    1  0.1714834E-005  0.6696986E+03  0.7818608E-02  0.9770503E-01
          2   -1    0    0  501    0  0.00000000000E+00  0.00000000000E+00  0.52745724044E+03  0.52745724045E+03  0.25500000000E-02 0. -1.
         -2   -1    0    0    0  501 -0.00000000000E+00 -0.00000000000E+00 -0.21257465394E+03  0.21257465395E+03  0.25500000000E-02 0.  1.
   -5000001    1    1    2    0    0 -0.94932720938E+02 -0.12938663022E+03 -0.13287055516E+02  0.29737126194E+03  0.25000000000E+03 0.  0.
    5000001    1    1    2    0    0  0.94932720938E+02  0.12938663022E+03  0.32816964202E+03  0.44266063246E+03  0.25000000000E+03 0.  0.
<mgrwt>
<rscale>  0 0.66969856E+03</rscale>
<asrwt>0</asrwt>
<pdfrwt beam="1">  1        2 0.81147267E-01 0.66969856E+03</pdfrwt>
<pdfrwt beam="2">  1       -2 0.32703793E-01 0.66969856E+03</pdfrwt>
<totfact> 0.50764583E+02</totfact>
</mgrwt>
</event>
<event>
 4    1  0.1714834E-005  0.1645153E+04  0.7818608E-02  0.8793279E-01
         -2   -1    0    0    0  501 -0.00000000000E+00  0.00000000000E+00  0.39315307416E+03  0.39315307417E+03  0.25500000000E-02 0. -1.
          2   -1    0    0  501    0  0.00000000000E+00 -0.00000000000E+00 -0.17210405513E+04  0.17210405513E+04  0.25500000000E-02 0.  1.
   -5000001    1    1    2    0    0 -0.32720170386E+03 -0.65478569374E+03 -0.10236056628E+04  0.12829940813E+04  0.25000000000E+03 0.  0.
    5000001    1    1    2    0    0  0.32720170386E+03  0.65478569374E+03 -0.30428181439E+03  0.83119954421E+03  0.25000000000E+03 0.  0.
<mgrwt>
<rscale>  0 0.16451533E+04</rscale>
<asrwt>0</asrwt>
<pdfrwt beam="1">  1        2 0.26477547E+00 0.16451533E+04</pdfrwt>
<pdfrwt beam="2">  1       -2 0.60485089E-01 0.16451533E+04</pdfrwt>
<totfact> 0.23224068E+01</totfact>
</mgrwt>
</event>
<event>
 4    1  0.1714834E-005  0.5337235E+03  0.7818608E-02  0.1005333E+00
         -2   -1    0    0    0  501 -0.00000000000E+00  0.00000000000E+00  0.13945496481E+03  0.13945496483E+03  0.25500000000E-02 0. -1.
          2   -1    0    0  501    0  0.00000000000E+00 -0.00000000000E+00 -0.51066804879E+03  0.51066804880E+03  0.25500000000E-02 0.  1.
   -5000001    1    1    2    0    0  0.98098385532E+01  0.90579368984E+02 -0.16081191845E+03  0.31090404972E+03  0.25000000000E+03 0.  0.
    5000001    1    1    2    0    0 -0.98098385532E+01 -0.90579368984E+02 -0.21040116553E+03  0.33921896391E+03  0.25000000000E+03 0.  0.
<mgrwt>
<rscale>  0 0.53372350E+03</rscale>
<asrwt>0</asrwt>
<pdfrwt beam="1">  1        2 0.78564314E-01 0.53372350E+03</pdfrwt>
<pdfrwt beam="2">  1       -2 0.21454610E-01 0.53372350E+03</pdfrwt>
<totfact> 0.11347445E+03</totfact>
</mgrwt>
</event>
<event>
 4    1  0.1714834E-005  0.6769251E+03  0.7818608E-02  0.9757528E-01
          2   -1    0    0  501    0  0.00000000000E+00  0.00000000000E+00  0.24552804631E+03  0.24552804633E+03  0.25500000000E-02 0.  1.
         -2   -1    0    0    0  501 -0.00000000000E+00 -0.00000000000E+00 -0.46657360279E+03  0.46657360279E+03  0.25500000000E-02 0. -1.
   -5000001    1    1    2    0    0  0.13704205215E+03 -0.10150310536E+02  0.81077457978E+02  0.29657563463E+03  0.25000000000E+03 0.  0.
    5000001    1    1    2    0    0 -0.13704205215E+03  0.10150310536E+02 -0.30212301445E+03  0.41552601449E+03  0.25000000000E+03 0.  0.
<mgrwt>
<rscale>  0 0.67692512E+03</rscale>
<asrwt>0</asrwt>
<pdfrwt beam="1">  1        2 0.37773546E-01 0.67692512E+03</pdfrwt>
<pdfrwt beam="2">  1       -2 0.71780554E-01 0.67692512E+03</pdfrwt>
<totfact> 0.24404645E+02</totfact>
</mgrwt>
</event>
<event>
 4    1  0.1714834E-005  0.5868773E+03  0.7818608E-02  0.9933012E-01
          2   -1    0    0  501    0  0.00000000000E+00  0.00000000000E+00  0.59511377843E+03  0.59511377844E+03  0.25500000000E-02 0.  1.
         -2   -1    0    0    0  501 -0.00000000000E+00 -0.00000000000E+00 -0.14468869477E+03  0.14468869479E+03  0.25500000000E-02 0. -1.
   -5000001    1    1    2    0    0  0.82806174073E+02 -0.84570180725E+02  0.10171962055E+03  0.29471318114E+03  0.25000000000E+03 0.  0.
    5000001    1    1    2    0    0 -0.82806174073E+02  0.84570180725E+02  0.34870546312E+03  0.44508929210E+03  0.25000000000E+03 0.  0.
<mgrwt>
<rscale>  0 0.58687728E+03</rscale>
<asrwt>0</asrwt>
<pdfrwt beam="1">  1        2 0.91555966E-01 0.58687728E+03</pdfrwt>
<pdfrwt beam="2">  1       -2 0.22259799E-01 0.58687728E+03</pdfrwt>
<totfact> 0.88826642E+02</totfact>
</mgrwt>
</event>
<event>
 4    1  0.1714834E-005  0.7373076E+03  0.7818608E-02  0.9655476E-01
         -2   -1    0    0    0  501 -0.00000000000E+00  0.00000000000E+00  0.22100781547E+03  0.22100781549E+03  0.25500000000E-02 0. -1.
          2   -1    0    0  501    0  0.00000000000E+00 -0.00000000000E+00 -0.61493584483E+03  0.61493584484E+03  0.25500000000E-02 0.  1.
   -5000001    1    1    2    0    0  0.21080857424E+02  0.92628824974E+02  0.90714598418E+02  0.28240686984E+03  0.25000000000E+03 0.  0.
    5000001    1    1    2    0    0 -0.21080857424E+02 -0.92628824974E+02 -0.48464262778E+03  0.55353679049E+03  0.25000000000E+03 0.  0.
<mgrwt>
<rscale>  0 0.73730761E+03</rscale>
<asrwt>0</asrwt>
<pdfrwt beam="1">  1        2 0.94605514E-01 0.73730761E+03</pdfrwt>
<pdfrwt beam="2">  1       -2 0.34001203E-01 0.73730761E+03</pdfrwt>
<totfact> 0.39221802E+02</totfact>
</mgrwt>
</event>
<event>
 4    1  0.1714834E-005  0.7265720E+03  0.7818608E-02  0.9672839E-01
         -2   -1    0    0    0  501 -0.00000000000E+00  0.00000000000E+00  0.92017963753E+02  0.92017963788E+02  0.25500000000E-02 0. -1.
          2   -1    0    0  501    0  0.00000000000E+00 -0.00000000000E+00 -0.14342494811E+04  0.14342494811E+04  0.25500000000E-02 0.  1.
   -5000001    1    1    2    0    0  0.26187724273E+03  0.98334111475E+01 -0.73054315262E+03  0.81539541578E+03  0.25000000000E+03 0.  0.
    5000001    1    1    2    0    0 -0.26187724273E+03 -0.98334111475E+01 -0.61168836476E+03  0.71087202914E+03  0.25000000000E+03 0.  0.
<mgrwt>
<rscale>  0 0.72657200E+03</rscale>
<asrwt>0</asrwt>
<pdfrwt beam="1">  1        2 0.22065375E+00 0.72657200E+03</pdfrwt>
<pdfrwt beam="2">  1       -2 0.14156611E-01 0.72657200E+03</pdfrwt>
<totfact> 0.54098026E+02</totfact>
</mgrwt>
</event>
<event>
 4    1  0.1714834E-005  0.6335341E+03  0.7818608E-02  0.9838176E-01
         -2   -1    0    0    0  501 -0.00000000000E+00  0.00000000000E+00  0.23792564943E+03  0.23792564944E+03  0.25500000000E-02 0. -1.
          2   -1    0    0  501    0  0.00000000000E+00 -0.00000000000E+00 -0.42173415972E+03  0.42173415973E+03  0.25500000000E-02 0.  1.
   -5000001    1    1    2    0    0 -0.58438981842E+02  0.18551518707E+03 -0.95258045495E+02  0.33076440931E+03  0.25000000000E+03 0.  0.
    5000001    1    1    2    0    0  0.58438981842E+02 -0.18551518707E+03 -0.88550464804E+02  0.32889539986E+03  0.25000000000E+03 0.  0.
<mgrwt>
<rscale>  0 0.63353413E+03</rscale>
<asrwt>0</asrwt>
<pdfrwt beam="1">  1        2 0.64882178E-01 0.63353413E+03</pdfrwt>
<pdfrwt beam="2">  1       -2 0.36603946E-01 0.63353413E+03</pdfrwt>
<totfact> 0.53025059E+02</totfact>
</mgrwt>
</event>
<event>
 4    1  0.1714834E-005  0.6025794E+03  0.7818608E-02  0.9900069E-01
          2   -1    0    0  501    0  0.00000000000E+00  0.00000000000E+00  0.56109104718E+03  0.56109104718E+03  0.25500000000E-02 0.  1.
         -2   -1    0    0    0  501 -0.00000000000E+00 -0.00000000000E+00 -0.16178387191E+03  0.16178387193E+03  0.25500000000E-02 0. -1.
   -5000001    1    1    2    0    0  0.79871610781E+02 -0.13894803171E+03  0.13860820163E+03  0.32771674245E+03  0.25000000000E+03 0.  0.
    5000001    1    1    2    0    0 -0.79871610781E+02  0.13894803171E+03  0.26069897364E+03  0.39515817666E+03  0.25000000000E+03 0.  0.
<mgrwt>
<rscale>  0 0.60257940E+03</rscale>
<asrwt>0</asrwt>
<pdfrwt beam="1">  1        2 0.86321699E-01 0.60257940E+03</pdfrwt>
<pdfrwt beam="2">  1       -2 0.24889826E-01 0.60257940E+03</pdfrwt>
<totfact> 0.78055199E+02</totfact>
</mgrwt>
</event>
<event>
 4    1  0.1714834E-005  0.6788974E+03  0.7818608E-02  0.9754017E-01
          2   -1    0    0  501    0  0.00000000000E+00  0.00000000000E+00  0.19679043407E+03  0.19679043408E+03  0.25500000000E-02 0.  1.
         -2   -1    0    0    0  501 -0.00000000000E+00 -0.00000000000E+00 -0.58552350519E+03  0.58552350520E+03  0.25500000000E-02 0. -1.
   -5000001    1    1    2    0    0 -0.22864939337E+03 -0.20786350841E+02 -0.19849040921E+03  0.39320612917E+03  0.25000000000E+03 0.  0.
    5000001    1    1    2    0    0  0.22864939337E+03  0.20786350841E+02 -0.19024266191E+03  0.38910781010E+03  0.25000000000E+03 0.  0.
<mgrwt>
<rscale>  0 0.67889741E+03</rscale>
<asrwt>0</asrwt>
<pdfrwt beam="1">  1        2 0.30275452E-01 0.67889741E+03</pdfrwt>
<pdfrwt beam="2">  1       -2 0.90080538E-01 0.67889741E+03</pdfrwt>
<totfact> 0.18771941E+02</totfact>
</mgrwt>
</event>
<event>
 4    1  0.1714834E-005  0.6988216E+03  0.7818608E-02  0.9719250E-01
         -2   -1    0    0    0  501 -0.00000000000E+00  0.00000000000E+00  0.12317001444E+03  0.12317001447E+03  0.25500000000E-02 0. -1.
          2   -1    0    0  501    0  0.00000000000E+00 -0.00000000000E+00 -0.99121456088E+03  0.99121456088E+03  0.25500000000E-02 0.  1.
   -5000001    1    1    2    0    0  0.19945165863E+03 -0.13642368048E+03 -0.48915995094E+03  0.60014151859E+03  0.25000000000E+03 0.  0.
    5000001    1    1    2    0    0 -0.19945165863E+03  0.13642368048E+03 -0.37888459549E+03  0.51424305676E+03  0.25000000000E+03 0.  0.
<mgrwt>
<rscale>  0 0.69882161E+03</rscale>
<asrwt>0</asrwt>
<pdfrwt beam="1">  1        2 0.15249454E+00 0.69882161E+03</pdfrwt>
<pdfrwt beam="2">  1       -2 0.18949234E-01 0.69882161E+03</pdfrwt>
<totfact> 0.60266159E+02</totfact>
</mgrwt>
</event>
<event>
 4    1  0.1714834E-005  0.5624587E+03  0.7818608E-02  0.9986507E-01
         -2   -1    0    0    0  501 -0.00000000000E+00  0.00000000000E+00  0.90653653022E+02  0.90653653058E+02  0.25500000000E-02 0. -1.
          2   -1    0    0  501    0  0.00000000000E+00 -0.00000000000E+00 -0.87244075084E+03  0.87244075085E+03  0.25500000000E-02 0.  1.
   -5000001    1    1    2    0    0 -0.93925566604E+02  0.84310838988E+02 -0.43487021941E+03  0.51724504576E+03  0.25000000000E+03 0.  0.
    5000001    1    1    2    0    0  0.93925566604E+02 -0.84310838988E+02 -0.34691687841E+03  0.44584935814E+03  0.25000000000E+03 0.  0.
<mgrwt>
<rscale>  0 0.56245868E+03</rscale>
<asrwt>0</asrwt>
<pdfrwt beam="1">  1        2 0.13422165E+00 0.56245868E+03</pdfrwt>
<pdfrwt beam="2">  1       -2 0.13946716E-01 0.56245868E+03</pdfrwt>
<totfact> 0.12198534E+03</totfact>
</mgrwt>
</event>
<event>
 4    1  0.1714834E-005  0.7997422E+03  0.7818608E-02  0.9560390E-01
          2   -1    0    0  501    0  0.00000000000E+00  0.00000000000E+00  0.11709735461E+04  0.11709735461E+04  0.25500000000E-02 0.  1.
         -2   -1    0    0    0  501 -0.00000000000E+00 -0.00000000000E+00 -0.13655038784E+03  0.13655038786E+03  0.25500000000E-02 0. -1.
   -5000001    1    1    2    0    0  0.72624061854E+02 -0.14221517859E+03  0.78825780853E+02  0.30694122419E+03  0.25000000000E+03 0.  0.
    5000001    1    1    2    0    0 -0.72624061854E+02  0.14221517859E+03  0.95559737738E+03  0.10005827097E+04  0.25000000000E+03 0.  0.
<mgrwt>
<rscale>  0 0.79974219E+03</rscale>
<asrwt>0</asrwt>
<pdfrwt beam="1">  1        2 0.18014978E+00 0.79974219E+03</pdfrwt>
<pdfrwt beam="2">  1       -2 0.21007751E-01 0.79974219E+03</pdfrwt>
<totfact> 0.38806813E+02</totfact>
</mgrwt>
</event>
<event>
 4    1  0.1714834E-005  0.9280457E+03  0.7818608E-02  0.9391186E-01
         -2   -1    0    0    0  501 -0.00000000000E+00  0.00000000000E+00  0.64847803266E+02  0.64847803316E+02  0.25500000000E-02 0. -1.
          2   -1    0    0  501    0  0.00000000000E+00 -0.00000000000E+00 -0.33203467467E+04  0.33203467467E+04  0.25500000000E-02 0.  1.
   -5000001    1    1    2    0    0 -0.31844031741E+03 -0.19286198591E+03 -0.11928173410E+04  0.12743285253E+04  0.25000000000E+03 0.  0.
    5000001    1    1    2    0    0  0.31844031741E+03  0.19286198591E+03 -0.20626816024E+04  0.21108660247E+04  0.25000000000E+03 0.  0.
<mgrwt>
<rscale>  0 0.92804567E+03</rscale>
<asrwt>0</asrwt>
<pdfrwt beam="1">  1        2 0.51082244E+00 0.92804567E+03</pdfrwt>
<pdfrwt beam="2">  1       -2 0.99765877E-02 0.92804567E+03</pdfrwt>
<totfact> 0.77677647E+01</totfact>
</mgrwt>
</event>
<event>
 4    1  0.1714834E-005  0.7612026E+03  0.7818608E-02  0.9617937E-01
          2   -1    0    0  501    0  0.00000000000E+00  0.00000000000E+00  0.56911647794E+03  0.56911647795E+03  0.25500000000E-02 0.  1.
         -2   -1    0    0    0  501 -0.00000000000E+00 -0.00000000000E+00 -0.25453022389E+03  0.25453022390E+03  0.25500000000E-02 0. -1.
   -5000001    1    1    2    0    0 -0.65226238148E+01 -0.22164782309E+03 -0.39824282740E+02  0.33653569736E+03  0.25000000000E+03 0.  0.
    5000001    1    1    2    0    0  0.65226238148E+01  0.22164782309E+03  0.35441053680E+03  0.48711100449E+03  0.25000000000E+03 0.  0.
<mgrwt>
<rscale>  0 0.76120259E+03</rscale>
<asrwt>0</asrwt>
<pdfrwt beam="1">  1        2 0.87556381E-01 0.76120259E+03</pdfrwt>
<pdfrwt beam="2">  1       -2 0.39158496E-01 0.76120259E+03</pdfrwt>
<totfact> 0.32809776E+02</totfact>
</mgrwt>
</event>
<event>
 4    1  0.1714834E-005  0.9704322E+03  0.7818608E-02  0.9341582E-01
         -2   -1    0    0    0  501 -0.00000000000E+00  0.00000000000E+00  0.14641324292E+03  0.14641324294E+03  0.25500000000E-02 0. -1.
          2   -1    0    0  501    0  0.00000000000E+00 -0.00000000000E+00 -0.16080148565E+04  0.16080148565E+04  0.25500000000E-02 0.  1.
   -5000001    1    1    2    0    0 -0.26374563421E+03 -0.30742357635E+03 -0.90100756163E+03  0.10190120907E+04  0.25000000000E+03 0.  0.
    5000001    1    1    2    0    0  0.26374563421E+03  0.30742357635E+03 -0.56059405198E+03  0.73541600878E+03  0.25000000000E+03 0.  0.
<mgrwt>
<rscale>  0 0.97043221E+03</rscale>
<asrwt>0</asrwt>
<pdfrwt beam="1">  1        2 0.24738689E+00 0.97043221E+03</pdfrwt>
<pdfrwt beam="2">  1       -2 0.22525115E-01 0.97043221E+03</pdfrwt>
<totfact> 0.19102566E+02</totfact>
</mgrwt>
</event>
<event>
 4    1  0.1714834E-005  0.5695190E+03  0.7818608E-02  0.9970743E-01
         -2   -1    0    0    0  501 -0.00000000000E+00  0.00000000000E+00  0.11906957829E+03  0.11906957831E+03  0.25500000000E-02 0. -1.
          2   -1    0    0  501    0  0.00000000000E+00 -0.00000000000E+00 -0.68101346857E+03  0.68101346857E+03  0.25500000000E-02 0.  1.
   -5000001    1    1    2    0    0 -0.67532229538E+02 -0.11519122853E+03 -0.24228485551E+03  0.37286937708E+03  0.25000000000E+03 0.  0.
    5000001    1    1    2    0    0  0.67532229538E+02  0.11519122853E+03 -0.31965903477E+03  0.42721366981E+03  0.25000000000E+03 0.  0.
<mgrwt>
<rscale>  0 0.56951905E+03</rscale>
<asrwt>0</asrwt>
<pdfrwt beam="1">  1        2 0.10477130E+00 0.56951905E+03</pdfrwt>
<pdfrwt beam="2">  1       -2 0.18318397E-01 0.56951905E+03</pdfrwt>
<totfact> 0.10592602E+03</totfact>
</mgrwt>
</event>
<event>
 4    1  0.1714834E-005  0.6995347E+03  0.7818608E-02  0.9718028E-01
         -2   -1    0    0    0  501 -0.00000000000E+00  0.00000000000E+00  0.63073797562E+02  0.63073797614E+02  0.25500000000E-02 0. -1.
          2   -1    0    0  501    0  0.00000000000E+00 -0.00000000000E+00 -0.19395884191E+04  0.19395884191E+04  0.25500000000E-02 0.  1.
   -5000001    1    1    2    0    0 -0.13305913288E+03 -0.15876198306E+02 -0.35238368760E+03  0.45236163608E+03  0.25000000000E+03 0.  0.
    5000001    1    1    2    0    0  0.13305913288E+03  0.15876198306E+02 -0.15241309340E+04  0.15503005807E+04  0.25000000000E+03 0.  0.
<mgrwt>
<rscale>  0 0.69953472E+03</rscale>
<asrwt>0</asrwt>
<pdfrwt beam="1">  1        2 0.29839817E+00 0.69953472E+03</pdfrwt>
<pdfrwt beam="2">  1       -2 0.97036627E-02 0.69953472E+03</pdfrwt>
<totfact> 0.53361606E+02</totfact>
</mgrwt>
</event>
<event>
 4    1  0.1714834E-005  0.7750647E+03  0.7818608E-02  0.9596828E-01
         -2   -1    0    0    0  501 -0.00000000000E+00  0.00000000000E+00  0.12100799844E+03  0.12100799847E+03  0.25500000000E-02 0.  1.
          2   -1    0    0  501    0  0.00000000000E+00 -0.00000000000E+00 -0.12410859497E+04  0.12410859497E+04  0.25500000000E-02 0. -1.
   -5000001    1    1    2    0    0 -0.14788529018E+03 -0.23329698128E+03 -0.74754380767E+03  0.83523606538E+03  0.25000000000E+03 0.  0.
    5000001    1    1    2    0    0  0.14788529018E+03  0.23329698128E+03 -0.37253414357E+03  0.52685788278E+03  0.25000000000E+03 0.  0.
<mgrwt>
<rscale>  0 0.77506471E+03</rscale>
<asrwt>0</asrwt>
<pdfrwt beam="1">  1        2 0.19093629E+00 0.77506471E+03</pdfrwt>
<pdfrwt beam="2">  1       -2 0.18616616E-01 0.77506471E+03</pdfrwt>
<totfact> 0.43623485E+02</totfact>
</mgrwt>
</event>
<event>
 4    1  0.1714834E-005  0.5863510E+03  0.7818608E-02  0.9934135E-01
          2   -1    0    0  501    0  0.00000000000E+00  0.00000000000E+00  0.29874353357E+02  0.29874353466E+02  0.25500000000E-02 0.  1.
         -2   -1    0    0    0  501 -0.00000000000E+00 -0.00000000000E+00 -0.28771123539E+04  0.28771123539E+04  0.25500000000E-02 0. -1.
   -5000001    1    1    2    0    0  0.54565057123E+02  0.14297478337E+03 -0.13952525054E+04  0.14257098892E+04  0.25000000000E+03 0.  0.
    5000001    1    1    2    0    0 -0.54565057123E+02 -0.14297478337E+03 -0.14519854951E+04  0.14812768182E+04  0.25000000000E+03 0.  0.
<mgrwt>
<rscale>  0 0.58635099E+03</rscale>
<asrwt>0</asrwt>
<pdfrwt beam="1">  1        2 0.45960566E-02 0.58635099E+03</pdfrwt>
<pdfrwt beam="2">  1       -2 0.44263245E+00 0.58635099E+03</pdfrwt>
<totfact> 0.78760727E+00</totfact>
</mgrwt>
</event>
<event>
 4    1  0.1714834E-005  0.8201388E+03  0.7818608E-02  0.9531316E-01
         -2   -1    0    0    0  501 -0.00000000000E+00  0.00000000000E+00  0.30272736364E+03  0.30272736365E+03  0.25500000000E-02 0. -1.
          2   -1    0    0  501    0  0.00000000000E+00 -0.00000000000E+00 -0.55547316615E+03  0.55547316615E+03  0.25500000000E-02 0.  1.
   -5000001    1    1    2    0    0  0.32318007842E+03  0.23380100336E+02 -0.99389853935E+02  0.42115357679E+03  0.25000000000E+03 0.  0.
    5000001    1    1    2    0    0 -0.32318007842E+03 -0.23380100336E+02 -0.15335594857E+03  0.43704695302E+03  0.25000000000E+03 0.  0.
<mgrwt>
<rscale>  0 0.82013884E+03</rscale>
<asrwt>0</asrwt>
<pdfrwt beam="1">  1        2 0.85457410E-01 0.82013884E+03</pdfrwt>
<pdfrwt beam="2">  1       -2 0.46573441E-01 0.82013884E+03</pdfrwt>
<totfact> 0.23925196E+02</totfact>
</mgrwt>
</event>
<event>
 4    1  0.1714834E-005  0.5838026E+03  0.7818608E-02  0.9939592E-01
         -2   -1    0    0    0  501 -0.00000000000E+00  0.00000000000E+00  0.17412538131E+03  0.17412538133E+03  0.25500000000E-02 0. -1.
          2   -1    0    0  501    0  0.00000000000E+00 -0.00000000000E+00 -0.48933918240E+03  0.48933918241E+03  0.25500000000E-02 0.  1.
   -5000001    1    1    2    0    0  0.12966048898E+03 -0.75391981648E+02 -0.17409834304E+03  0.33956741061E+03  0.25000000000E+03 0.  0.
    5000001    1    1    2    0    0 -0.12966048898E+03  0.75391981648E+02 -0.14111545806E+03  0.32389715312E+03  0.25000000000E+03 0.  0.
<mgrwt>
<rscale>  0 0.58380261E+03</rscale>
<asrwt>0</asrwt>
<pdfrwt beam="1">  1        2 0.75282950E-01 0.58380261E+03</pdfrwt>
<pdfrwt beam="2">  1       -2 0.26788521E-01 0.58380261E+03</pdfrwt>
<totfact> 0.80169829E+02</totfact>
</mgrwt>
</event>
<event>
 4    1  0.1714834E-005  0.6562957E+03  0.7818608E-02  0.9795037E-01
          2   -1    0    0  501    0  0.00000000000E+00  0.00000000000E+00  0.58695570066E+03  0.58695570066E+03  0.25500000000E-02 0.  1.
         -2   -1    0    0    0  501 -0.00000000000E+00 -0.00000000000E+00 -0.18345681701E+03  0.18345681703E+03  0.25500000000E-02 0. -1.
   -5000001    1    1    2    0    0  0.20319691151E+03  0.52059522657E+02  0.16139380927E+03  0.36407024104E+03  0.25000000000E+03 0.  0.
    5000001    1    1    2    0    0 -0.20319691151E+03 -0.52059522657E+02  0.24210507438E+03  0.40634227664E+03  0.25000000000E+03 0.  0.
<mgrwt>
<rscale>  0 0.65629574E+03</rscale>
<asrwt>0</asrwt>
<pdfrwt beam="1">  1        2 0.90300879E-01 0.65629574E+03</pdfrwt>
<pdfrwt beam="2">  1       -2 0.28224125E-01 0.65629574E+03</pdfrwt>
<totfact> 0.58830041E+02</totfact>
</mgrwt>
</event>
<event>
 4    1  0.1714834E-005  0.1191868E+04  0.7818608E-02  0.9120004E-01
          2   -1    0    0  501    0  0.00000000000E+00  0.00000000000E+00  0.26353386453E+04  0.26353386453E+04  0.25500000000E-02 0.  1.
         -2   -1    0    0    0  501 -0.00000000000E+00 -0.00000000000E+00 -0.13475968149E+03  0.13475968152E+03  0.25500000000E-02 0. -1.
   -5000001    1    1    2    0    0 -0.54467905095E+02 -0.53777005777E+03  0.13008906080E+04  0.14307270046E+04  0.25000000000E+03 0.  0.
    5000001    1    1    2    0    0  0.54467905095E+02  0.53777005777E+03  0.11996883558E+04  0.13393713222E+04  0.25000000000E+03 0.  0.
<mgrwt>
<rscale>  0 0.11918681E+04</rscale>
<asrwt>0</asrwt>
<pdfrwt beam="1">  1        2 0.40543667E+00 0.11918681E+04</pdfrwt>
<pdfrwt beam="2">  1       -2 0.20732261E-01 0.11918681E+04</pdfrwt>
<totfact> 0.57944364E+01</totfact>
</mgrwt>
</event>
<event>
 4    1  0.1714834E-005  0.6300091E+03  0.7818608E-02  0.9845031E-01
          2   -1    0    0  501    0  0.00000000000E+00  0.00000000000E+00  0.22615480794E+04  0.22615480794E+04  0.25500000000E-02 0.  1.
         -2   -1    0    0    0  501 -0.00000000000E+00 -0.00000000000E+00 -0.43876083796E+02  0.43876083870E+02  0.25500000000E-02 0. -1.
   -5000001    1    1    2    0    0 -0.32956820454E+02  0.69643022099E+02  0.46671048662E+03  0.53502801876E+03  0.25000000000E+03 0.  0.
    5000001    1    1    2    0    0  0.32956820454E+02 -0.69643022099E+02  0.17509615090E+04  0.17703961445E+04  0.25000000000E+03 0.  0.
<mgrwt>
<rscale>  0 0.63000912E+03</rscale>
<asrwt>0</asrwt>
<pdfrwt beam="1">  1        2 0.34793050E+00 0.63000912E+03</pdfrwt>
<pdfrwt beam="2">  1       -2 0.67501662E-02 0.63000912E+03</pdfrwt>
<totfact> 0.63931802E+02</totfact>
</mgrwt>
</event>
<event>
 4    1  0.1714834E-005  0.7462459E+03  0.7818608E-02  0.9641258E-01
         -2   -1    0    0    0  501 -0.00000000000E+00  0.00000000000E+00  0.24372838676E+03  0.24372838678E+03  0.25500000000E-02 0. -1.
          2   -1    0    0  501    0  0.00000000000E+00 -0.00000000000E+00 -0.57121264715E+03  0.57121264715E+03  0.25500000000E-02 0.  1.
   -5000001    1    1    2    0    0  0.22165924374E+03 -0.15901628558E+03 -0.21613499309E+03  0.42852460216E+03  0.25000000000E+03 0.  0.
    5000001    1    1    2    0    0 -0.22165924374E+03  0.15901628558E+03 -0.11134926729E+03  0.38641643177E+03  0.25000000000E+03 0.  0.
<mgrwt>
<rscale>  0 0.74624590E+03</rscale>
<asrwt>0</asrwt>
<pdfrwt beam="1">  1        2 0.87878869E-01 0.74624590E+03</pdfrwt>
<pdfrwt beam="2">  1       -2 0.37496675E-01 0.74624590E+03</pdfrwt>
<totfact> 0.35542883E+02</totfact>
</mgrwt>
</event>
<event>
 4    1  0.1714834E-005  0.1166119E+04  0.7818608E-02  0.9143040E-01
         -2   -1    0    0    0  501 -0.00000000000E+00  0.00000000000E+00  0.20739178636E+03  0.20739178638E+03  0.25500000000E-02 0. -1.
          2   -1    0    0  501    0  0.00000000000E+00 -0.00000000000E+00 -0.16392089773E+04  0.16392089773E+04  0.25500000000E-02 0.  1.
   -5000001    1    1    2    0    0  0.11378864852E+03 -0.44518978368E+03 -0.30811400673E+03  0.60710463774E+03  0.25000000000E+03 0.  0.
    5000001    1    1    2    0    0 -0.11378864852E+03  0.44518978368E+03 -0.11237031842E+04  0.12394961259E+04  0.25000000000E+03 0.  0.
<mgrwt>
<rscale>  0 0.11661192E+04</rscale>
<asrwt>0</asrwt>
<pdfrwt beam="1">  1        2 0.25218599E+00 0.11661192E+04</pdfrwt>
<pdfrwt beam="2">  1       -2 0.31906430E-01 0.11661192E+04</pdfrwt>
<totfact> 0.95741530E+01</totfact>
</mgrwt>
</event>
<event>
 4    1  0.1714834E-005  0.9347480E+03  0.7818608E-02  0.9383158E-01
          2   -1    0    0  501    0  0.00000000000E+00  0.00000000000E+00  0.27589854433E+04  0.27589854433E+04  0.25500000000E-02 0. -1.
         -2   -1    0    0    0  501 -0.00000000000E+00 -0.00000000000E+00 -0.79173469039E+02  0.79173469080E+02  0.25500000000E-02 0.  1.
   -5000001    1    1    2    0    0  0.24690348321E+03  0.25409066042E+03  0.18694309928E+04  0.19190611326E+04  0.25000000000E+03 0.  0.
    5000001    1    1    2    0    0 -0.24690348321E+03 -0.25409066042E+03  0.81038098148E+03  0.91909777983E+03  0.25000000000E+03 0.  0.
<mgrwt>
<rscale>  0 0.93474798E+03</rscale>
<asrwt>0</asrwt>
<pdfrwt beam="1">  1        2 0.42445926E+00 0.93474798E+03</pdfrwt>
<pdfrwt beam="2">  1       -2 0.12180535E-01 0.93474798E+03</pdfrwt>
<totfact> 0.12473919E+02</totfact>
</mgrwt>
</event>
<event>
 4    1  0.1714834E-005  0.7779345E+03  0.7818608E-02  0.9592517E-01
          2   -1    0    0  501    0  0.00000000000E+00  0.00000000000E+00  0.11750665169E+04  0.11750665169E+04  0.25500000000E-02 0.  1.
         -2   -1    0    0    0  501 -0.00000000000E+00 -0.00000000000E+00 -0.12875484689E+03  0.12875484692E+03  0.25500000000E-02 0. -1.
   -5000001    1    1    2    0    0 -0.16289201565E+03 -0.54090141939E+02  0.93141322497E+03  0.97953567973E+03  0.25000000000E+03 0.  0.
    5000001    1    1    2    0    0  0.16289201565E+03  0.54090141939E+02  0.11489844500E+03  0.32428568405E+03  0.25000000000E+03 0.  0.
<mgrwt>
<rscale>  0 0.77793447E+03</rscale>
<asrwt>0</asrwt>
<pdfrwt beam="1">  1        2 0.18077948E+00 0.77793447E+03</pdfrwt>
<pdfrwt beam="2">  1       -2 0.19808437E-01 0.77793447E+03</pdfrwt>
<totfact> 0.42829574E+02</totfact>
</mgrwt>
</event>
<event>
 4    1  0.1714834E-005  0.9697522E+03  0.7818608E-02  0.9342357E-01
         -2   -1    0    0    0  501 -0.00000000000E+00  0.00000000000E+00  0.13517589758E+03  0.13517589761E+03  0.25500000000E-02 0. -1.
          2   -1    0    0  501    0  0.00000000000E+00 -0.00000000000E+00 -0.17392509505E+04  0.17392509505E+04  0.25500000000E-02 0.  1.
   -5000001    1    1    2    0    0  0.33349123854E+03  0.19473652805E+03 -0.10981304865E+04  0.11906003892E+04  0.25000000000E+03 0.  0.
    5000001    1    1    2    0    0 -0.33349123854E+03 -0.19473652805E+03 -0.50594456647E+03  0.68382645889E+03  0.25000000000E+03 0.  0.
<mgrwt>
<rscale>  0 0.96975215E+03</rscale>
<asrwt>0</asrwt>
<pdfrwt beam="1">  1        2 0.26757705E+00 0.96975215E+03</pdfrwt>
<pdfrwt beam="2">  1       -2 0.20796293E-01 0.96975215E+03</pdfrwt>
<totfact> 0.18626603E+02</totfact>
</mgrwt>
</event>
<event>
 4    1  0.1714834E-005  0.7619120E+03  0.7818608E-02  0.9616845E-01
          2   -1    0    0  501    0  0.00000000000E+00  0.00000000000E+00  0.36206063447E+03  0.36206063448E+03  0.25500000000E-02 0.  1.
         -2   -1    0    0    0  501 -0.00000000000E+00 -0.00000000000E+00 -0.40083751980E+03  0.40083751981E+03  0.25500000000E-02 0. -1.
   -5000001    1    1    2    0    0 -0.19642236156E+03 -0.20054999442E+03  0.42541768789E+02  0.37830126417E+03  0.25000000000E+03 0.  0.
    5000001    1    1    2    0    0  0.19642236156E+03  0.20054999442E+03 -0.81318654117E+02  0.38459689012E+03  0.25000000000E+03 0.  0.
<mgrwt>
<rscale>  0 0.76191203E+03</rscale>
<asrwt>0</asrwt>
<pdfrwt beam="1">  1        2 0.55701636E-01 0.76191203E+03</pdfrwt>
<pdfrwt beam="2">  1       -2 0.61667311E-01 0.76191203E+03</pdfrwt>
<totfact> 0.21927233E+02</totfact>
</mgrwt>
</event>
<event>
 4    1  0.1714834E-005  0.8630553E+03  0.7818608E-02  0.9472980E-01
          2   -1    0    0  501    0  0.00000000000E+00  0.00000000000E+00  0.80361566273E+03  0.80361566273E+03  0.25500000000E-02 0. -1.
         -2   -1    0    0    0  501 -0.00000000000E+00 -0.00000000000E+00 -0.23172287390E+03  0.23172287391E+03  0.25500000000E-02 0.  1.
   -5000001    1    1    2    0    0 -0.11438741108E+03 -0.17100666537E+03  0.62818178153E+03  0.70671076832E+03  0.25000000000E+03 0.  0.
    5000001    1    1    2    0    0  0.11438741108E+03  0.17100666537E+03 -0.56288992701E+02  0.32862776833E+03  0.25000000000E+03 0.  0.
<mgrwt>
<rscale>  0 0.86305534E+03</rscale>
<asrwt>0</asrwt>
<pdfrwt beam="1">  1        2 0.12363318E+00 0.86305534E+03</pdfrwt>
<pdfrwt beam="2">  1       -2 0.35649673E-01 0.86305534E+03</pdfrwt>
<totfact> 0.25400905E+02</totfact>
</mgrwt>
</event>
<event>
 4    1  0.1714834E-005  0.6340406E+03  0.7818608E-02  0.9837196E-01
          2   -1    0    0  501    0  0.00000000000E+00  0.00000000000E+00  0.71624676391E+03  0.71624676392E+03  0.25500000000E-02 0.  1.
         -2   -1    0    0    0  501 -0.00000000000E+00 -0.00000000000E+00 -0.14031736468E+03  0.14031736470E+03  0.25500000000E-02 0. -1.
   -5000001    1    1    2    0    0  0.12442844567E+03 -0.13838635729E+03  0.20955497836E+03  0.37556159406E+03  0.25000000000E+03 0.  0.
    5000001    1    1    2    0    0 -0.12442844567E+03  0.13838635729E+03  0.36637442088E+03  0.48100253456E+03  0.25000000000E+03 0.  0.
<mgrwt>
<rscale>  0 0.63404056E+03</rscale>
<asrwt>0</asrwt>
<pdfrwt beam="1">  1        2 0.11019181E+00 0.63404056E+03</pdfrwt>
<pdfrwt beam="2">  1       -2 0.21587287E-01 0.63404056E+03</pdfrwt>
<totfact> 0.74613877E+02</totfact>
</mgrwt>
</event>
<event>
 4    1  0.1714834E-005  0.7683252E+03  0.7818608E-02  0.9607032E-01
         -2   -1    0    0    0  501 -0.00000000000E+00  0.00000000000E+00  0.14788999701E+03  0.14788999703E+03  0.25500000000E-02 0. -1.
          2   -1    0    0  501    0  0.00000000000E+00 -0.00000000000E+00 -0.99790999688E+03  0.99790999689E+03  0.25500000000E-02 0.  1.
   -5000001    1    1    2    0    0  0.12316855381E+03 -0.74910122599E+02 -0.46858818054E+02  0.29236581186E+03  0.25000000000E+03 0.  0.
    5000001    1    1    2    0    0 -0.12316855381E+03  0.74910122599E+02 -0.80316118182E+03  0.85343418206E+03  0.25000000000E+03 0.  0.
<mgrwt>
<rscale>  0 0.76832521E+03</rscale>
<asrwt>0</asrwt>
<pdfrwt beam="1">  1        2 0.15352461E+00 0.76832521E+03</pdfrwt>
<pdfrwt beam="2">  1       -2 0.22752308E-01 0.76832521E+03</pdfrwt>
<totfact> 0.43145719E+02</totfact>
</mgrwt>
</event>
<event>
 4    1  0.1714834E-005  0.1213352E+04  0.7818608E-02  0.9101249E-01
         -2   -1    0    0    0  501 -0.00000000000E+00  0.00000000000E+00  0.28496238793E+03  0.28496238794E+03  0.25500000000E-02 0. -1.
          2   -1    0    0  501    0  0.00000000000E+00 -0.00000000000E+00 -0.12915938435E+04  0.12915938435E+04  0.25500000000E-02 0.  1.
   -5000001    1    1    2    0    0 -0.25446588105E+03  0.30744391104E+03 -0.63611332905E+01  0.47097251201E+03  0.25000000000E+03 0.  0.
    5000001    1    1    2    0    0  0.25446588105E+03 -0.30744391104E+03 -0.10002703223E+04  0.11055837195E+04  0.25000000000E+03 0.  0.
<mgrwt>
<rscale>  0 0.12133518E+04</rscale>
<asrwt>0</asrwt>
<pdfrwt beam="1">  1        2 0.19870674E+00 0.12133518E+04</pdfrwt>
<pdfrwt beam="2">  1       -2 0.43840368E-01 0.12133518E+04</pdfrwt>
<totfact> 0.81288340E+01</totfact>
</mgrwt>
</event>
<event>
 4    1  0.1714834E-005  0.7968616E+03  0.7818608E-02  0.9564571E-01
         -2   -1    0    0    0  501 -0.00000000000E+00  0.00000000000E+00  0.22793227663E+03  0.22793227664E+03  0.25500000000E-02 0. -1.
          2   -1    0    0  501    0  0.00000000000E+00 -0.00000000000E+00 -0.69646608888E+03  0.69646608888E+03  0.25500000000E-02 0.  1.
   -5000001    1    1    2    0    0 -0.17034797006E+03 -0.25088301771E+03 -0.15831796985E+03  0.42370425896E+03  0.25000000000E+03 0.  0.
    5000001    1    1    2    0    0  0.17034797006E+03  0.25088301771E+03 -0.31021584240E+03  0.50069410657E+03  0.25000000000E+03 0.  0.
<mgrwt>
<rscale>  0 0.79686160E+03</rscale>
<asrwt>0</asrwt>
<pdfrwt beam="1">  1        2 0.10714863E+00 0.79686160E+03</pdfrwt>
<pdfrwt beam="2">  1       -2 0.35066504E-01 0.79686160E+03</pdfrwt>
<totfact> 0.31640517E+02</totfact>
</mgrwt>
</event>
<event>
 4    1  0.1714834E-005  0.6941891E+03  0.7818608E-02  0.9727222E-01
         -2   -1    0    0    0  501 -0.00000000000E+00  0.00000000000E+00  0.56927261491E+03  0.56927261491E+03  0.25500000000E-02 0. -1.
          2   -1    0    0  501    0  0.00000000000E+00 -0.00000000000E+00 -0.21162904853E+03  0.21162904855E+03  0.25500000000E-02 0.  1.
   -5000001    1    1    2    0    0 -0.92282843448E+02 -0.22186286142E+03  0.19607990578E+03  0.39835484423E+03  0.25000000000E+03 0.  0.
    5000001    1    1    2    0    0  0.92282843448E+02  0.22186286142E+03  0.16156366060E+03  0.38254681922E+03  0.25000000000E+03 0.  0.
<mgrwt>
<rscale>  0 0.69418909E+03</rscale>
<asrwt>0</asrwt>
<pdfrwt beam="1">  1        2 0.32558315E-01 0.69418909E+03</pdfrwt>
<pdfrwt beam="2">  1       -2 0.87580404E-01 0.69418909E+03</pdfrwt>
<totfact> 0.18443568E+02</totfact>
</mgrwt>
</event>
<event>
 4    1  0.1714834E-005  0.8641936E+03  0.7818608E-02  0.9471482E-01
          2   -1    0    0  501    0  0.00000000000E+00  0.00000000000E+00  0.13857807272E+04  0.13857807272E+04  0.25500000000E-02 0.  1.
         -2   -1    0    0    0  501 -0.00000000000E+00 -0.00000000000E+00 -0.13473101381E+03  0.13473101384E+03  0.25500000000E-02 0. -1.
   -5000001    1    1    2    0    0  0.32549951034E+03 -0.50362468289E+01  0.38795024537E+03  0.56478375321E+03  0.25000000000E+03 0.  0.
    5000001    1    1    2    0    0 -0.32549951034E+03  0.50362468289E+01  0.86309946798E+03  0.95572798779E+03  0.25000000000E+03 0.  0.
<mgrwt>
<rscale>  0 0.86419359E+03</rscale>
<asrwt>0</asrwt>
<pdfrwt beam="1">  1        2 0.21319703E+00 0.86419359E+03</pdfrwt>
<pdfrwt beam="2">  1       -2 0.20727848E-01 0.86419359E+03</pdfrwt>
<totfact> 0.29691074E+02</totfact>
</mgrwt>
</event>
<event>
 4    1  0.1714834E-005  0.6858289E+03  0.7818608E-02  0.9741778E-01
         -2   -1    0    0    0  501 -0.00000000000E+00  0.00000000000E+00  0.36970717039E+03  0.36970717040E+03  0.25500000000E-02 0. -1.
          2   -1    0    0  501    0  0.00000000000E+00 -0.00000000000E+00 -0.31806336765E+03  0.31806336766E+03  0.25500000000E-02 0.  1.
   -5000001    1    1    2    0    0  0.14327407259E+03  0.17780916570E+03 -0.28615744485E+02  0.33979761641E+03  0.25000000000E+03 0.  0.
    5000001    1    1    2    0    0 -0.14327407259E+03 -0.17780916570E+03  0.80259547218E+02  0.34797292165E+03  0.25000000000E+03 0.  0.
<mgrwt>
<rscale>  0 0.68582886E+03</rscale>
<asrwt>0</asrwt>
<pdfrwt beam="1">  1        2 0.48932826E-01 0.68582886E+03</pdfrwt>
<pdfrwt beam="2">  1       -2 0.56878026E-01 0.68582886E+03</pdfrwt>
<totfact> 0.30100928E+02</totfact>
</mgrwt>
</event>
<event>
 4    1  0.1714834E-005  0.9538522E+03  0.7818608E-02  0.9360659E-01
          2   -1    0    0  501    0  0.00000000000E+00  0.00000000000E+00  0.49444939593E+03  0.49444939594E+03  0.25500000000E-02 0.  1.
         -2   -1    0    0    0  501 -0.00000000000E+00 -0.00000000000E+00 -0.46002379703E+03  0.46002379704E+03  0.25500000000E-02 0. -1.
   -5000001    1    1    2    0    0 -0.40629210444E+02 -0.34214950840E+03 -0.19796550440E+03  0.46947562213E+03  0.25000000000E+03 0.  0.
    5000001    1    1    2    0    0  0.40629210444E+02  0.34214950840E+03  0.23239110330E+03  0.48499757085E+03  0.25000000000E+03 0.  0.
<mgrwt>
<rscale>  0 0.95385217E+03</rscale>
<asrwt>0</asrwt>
<pdfrwt beam="1">  1        2 0.76069138E-01 0.95385217E+03</pdfrwt>
<pdfrwt beam="2">  1       -2 0.70772892E-01 0.95385217E+03</pdfrwt>
<totfact> 0.11338851E+02</totfact>
</mgrwt>
</event>
<event>
 4    1  0.1714834E-005  0.1048416E+04  0.7818608E-02  0.9256981E-01
          2   -1    0    0  501    0  0.00000000000E+00  0.00000000000E+00  0.17427380904E+04  0.17427380904E+04  0.25500000000E-02 0.  1.
         -2   -1    0    0    0  501 -0.00000000000E+00 -0.00000000000E+00 -0.15767933556E+03  0.15767933558E+03  0.25500000000E-02 0. -1.
   -5000001    1    1    2    0    0 -0.56268782535E+02 -0.38307895763E+03  0.12452514806E+04  0.13278052996E+04  0.25000000000E+03 0.  0.
    5000001    1    1    2    0    0  0.56268782535E+02  0.38307895763E+03  0.33980727424E+03  0.57261212640E+03  0.25000000000E+03 0.  0.
<mgrwt>
<rscale>  0 0.10484155E+04</rscale>
<asrwt>0</asrwt>
<pdfrwt beam="1">  1        2 0.26811356E+00 0.10484155E+04</pdfrwt>
<pdfrwt beam="2">  1       -2 0.24258359E-01 0.10484155E+04</pdfrwt>
<totfact> 0.14013428E+02</totfact>
</mgrwt>
</event>
<event>
 4    1  0.1714834E-005  0.8967824E+03  0.7818608E-02  0.9429613E-01
          2   -1    0    0  501    0  0.00000000000E+00  0.00000000000E+00  0.48859934261E+03  0.48859934262E+03  0.25500000000E-02 0.  1.
         -2   -1    0    0    0  501 -0.00000000000E+00 -0.00000000000E+00 -0.41149190341E+03  0.41149190342E+03  0.25500000000E-02 0. -1.
   -5000001    1    1    2    0    0  0.21478492567E+03  0.27773079168E+03 -0.85545990506E+02  0.43941446657E+03  0.25000000000E+03 0.  0.
    5000001    1    1    2    0    0 -0.21478492567E+03 -0.27773079168E+03  0.16265342971E+03  0.46067677946E+03  0.25000000000E+03 0.  0.
<mgrwt>
<rscale>  0 0.89678241E+03</rscale>
<asrwt>0</asrwt>
<pdfrwt beam="1">  1        2 0.75169129E-01 0.89678241E+03</pdfrwt>
<pdfrwt beam="2">  1       -2 0.63306447E-01 0.89678241E+03</pdfrwt>
<totfact> 0.14674451E+02</totfact>
</mgrwt>
</event>
<event>
 4    1  0.1714834E-005  0.1046652E+04  0.7818608E-02  0.9258808E-01
          2   -1    0    0  501    0  0.00000000000E+00  0.00000000000E+00  0.55236331461E+03  0.55236331462E+03  0.25500000000E-02 0.  1.
         -2   -1    0    0    0  501 -0.00000000000E+00 -0.00000000000E+00 -0.49581501521E+03  0.49581501522E+03  0.25500000000E-02 0. -1.
   -5000001    1    1    2    0    0 -0.43471737334E+03  0.65814956923E+02  0.16285474612E+03  0.53134966978E+03  0.25000000000E+03 0.  0.
    5000001    1    1    2    0    0  0.43471737334E+03 -0.65814956923E+02 -0.10630644672E+03  0.51682866006E+03  0.25000000000E+03 0.  0.
<mgrwt>
<rscale>  0 0.10466519E+04</rscale>
<asrwt>0</asrwt>
<pdfrwt beam="1">  1        2 0.84978971E-01 0.10466519E+04</pdfrwt>
<pdfrwt beam="2">  1       -2 0.76279234E-01 0.10466519E+04</pdfrwt>
<totfact> 0.83947084E+01</totfact>
</mgrwt>
</event>
<event>
 4    1  0.1714834E-005  0.7656632E+03  0.7818608E-02  0.9611093E-01
          2   -1    0    0  501    0  0.00000000000E+00  0.00000000000E+00  0.10054939341E+04  0.10054939341E+04  0.25500000000E-02 0.  1.
         -2   -1    0    0    0  501 -0.00000000000E+00 -0.00000000000E+00 -0.14575923749E+03  0.14575923752E+03  0.25500000000E-02 0. -1.
   -5000001    1    1    2    0    0 -0.27729310506E+03 -0.29760144564E+02  0.31068469846E+03  0.48662317472E+03  0.25000000000E+03 0.  0.
    5000001    1    1    2    0    0  0.27729310506E+03  0.29760144564E+02  0.54904999816E+03  0.66462999692E+03  0.25000000000E+03 0.  0.
<mgrwt>
<rscale>  0 0.76566319E+03</rscale>
<asrwt>0</asrwt>
<pdfrwt beam="1">  1        2 0.15469137E+00 0.76566319E+03</pdfrwt>
<pdfrwt beam="2">  1       -2 0.22424498E-01 0.76566319E+03</pdfrwt>
<totfact> 0.43788605E+02</totfact>
</mgrwt>
</event>
<event>
 4    1  0.1714834E-005  0.7157412E+03  0.7818608E-02  0.9690685E-01
         -2   -1    0    0    0  501 -0.00000000000E+00  0.00000000000E+00  0.11078128916E+03  0.11078128919E+03  0.25500000000E-02 0. -1.
          2   -1    0    0  501    0  0.00000000000E+00 -0.00000000000E+00 -0.11560741013E+04  0.11560741013E+04  0.25500000000E-02 0.  1.
   -5000001    1    1    2    0    0  0.20615583176E+03 -0.38264777854E+01 -0.79140836237E+03  0.85518539798E+03  0.25000000000E+03 0.  0.
    5000001    1    1    2    0    0 -0.20615583176E+03  0.38264777854E+01 -0.25388444978E+03  0.41166999252E+03  0.25000000000E+03 0.  0.
<mgrwt>
<rscale>  0 0.71574124E+03</rscale>
<asrwt>0</asrwt>
<pdfrwt beam="1">  1        2 0.17785755E+00 0.71574124E+03</pdfrwt>
<pdfrwt beam="2">  1       -2 0.17043276E-01 0.71574124E+03</pdfrwt>
<totfact> 0.57195816E+02</totfact>
</mgrwt>
</event>
<event>
 4    1  0.1714834E-005  0.7313436E+03  0.7818608E-02  0.9665083E-01
         -2   -1    0    0    0  501 -0.00000000000E+00  0.00000000000E+00  0.24566074477E+03  0.24566074478E+03  0.25500000000E-02 0. -1.
          2   -1    0    0  501    0  0.00000000000E+00 -0.00000000000E+00 -0.54431115022E+03  0.54431115022E+03  0.25500000000E-02 0.  1.
   -5000001    1    1    2    0    0  0.23557725815E+03  0.21455273395E+02 -0.15895692361E+02  0.34454266260E+03  0.25000000000E+03 0.  0.
    5000001    1    1    2    0    0 -0.23557725815E+03 -0.21455273395E+02 -0.28275471309E+03  0.44542923241E+03  0.25000000000E+03 0.  0.
<mgrwt>
<rscale>  0 0.73134365E+03</rscale>
<asrwt>0</asrwt>
<pdfrwt beam="1">  1        2 0.83740177E-01 0.73134365E+03</pdfrwt>
<pdfrwt beam="2">  1       -2 0.37793961E-01 0.73134365E+03</pdfrwt>
<totfact> 0.37084274E+02</totfact>
</mgrwt>
</event>
<event>
 4    1  0.1714834E-005  0.9425055E+03  0.7818608E-02  0.9373954E-01
          2   -1    0    0  501    0  0.00000000000E+00  0.00000000000E+00  0.78731326450E+03  0.78731326450E+03  0.25500000000E-02 0.  1.
         -2   -1    0    0    0  501 -0.00000000000E+00 -0.00000000000E+00 -0.28207214047E+03  0.28207214049E+03  0.25500000000E-02 0. -1.
   -5000001    1    1    2    0    0 -0.14352916444E+02 -0.37997980638E+03  0.39152916609E+03  0.60032137008E+03  0.25000000000E+03 0.  0.
    5000001    1    1    2    0    0  0.14352916444E+02  0.37997980638E+03  0.11371195793E+03  0.46906403491E+03  0.25000000000E+03 0.  0.
<mgrwt>
<rscale>  0 0.94250546E+03</rscale>
<asrwt>0</asrwt>
<pdfrwt beam="1">  1        2 0.12112512E+00 0.94250546E+03</pdfrwt>
<pdfrwt beam="2">  1       -2 0.43395714E-01 0.94250546E+03</pdfrwt>
<totfact> 0.17729556E+02</totfact>
</mgrwt>
</event>
<event>
 4    1  0.1714834E-005  0.6756636E+03  0.7818608E-02  0.9759780E-01
         -2   -1    0    0    0  501 -0.00000000000E+00  0.00000000000E+00  0.84962992488E+02  0.84962992526E+02  0.25500000000E-02 0. -1.
          2   -1    0    0  501    0  0.00000000000E+00 -0.00000000000E+00 -0.13432946063E+04  0.13432946063E+04  0.25500000000E-02 0.  1.
   -5000001    1    1    2    0    0 -0.12661734371E+03 -0.18617850751E+03 -0.69383542438E+03  0.77110439274E+03  0.25000000000E+03 0.  0.
    5000001    1    1    2    0    0  0.12661734371E+03  0.18617850751E+03 -0.56449618946E+03  0.65715320611E+03  0.25000000000E+03 0.  0.
<mgrwt>
<rscale>  0 0.67566361E+03</rscale>
<asrwt>0</asrwt>
<pdfrwt beam="1">  1        2 0.20666069E+00 0.67566361E+03</pdfrwt>
<pdfrwt beam="2">  1       -2 0.13071231E-01 0.67566361E+03</pdfrwt>
<totfact> 0.69763506E+02</totfact>
</mgrwt>
</event>
<event>
 4    1  0.1714834E-005  0.7227623E+03  0.7818608E-02  0.9679078E-01
         -2   -1    0    0    0  501 -0.00000000000E+00  0.00000000000E+00  0.92956491206E+03  0.92956491207E+03  0.25500000000E-02 0.  1.
          2   -1    0    0  501    0  0.00000000000E+00 -0.00000000000E+00 -0.14049190156E+03  0.14049190158E+03  0.25500000000E-02 0. -1.
   -5000001    1    1    2    0    0 -0.76132486281E+02 -0.21432402770E+03  0.20513884133E+03  0.39536424793E+03  0.25000000000E+03 0.  0.
    5000001    1    1    2    0    0  0.76132486281E+02  0.21432402770E+03  0.58393416917E+03  0.67469256572E+03  0.25000000000E+03 0.  0.
<mgrwt>
<rscale>  0 0.72276232E+03</rscale>
<asrwt>0</asrwt>
<pdfrwt beam="1">  1        2 0.21614139E-01 0.72276232E+03</pdfrwt>
<pdfrwt beam="2">  1       -2 0.14300999E+00 0.72276232E+03</pdfrwt>
<totfact> 0.89165954E+01</totfact>
</mgrwt>
</event>
<event>
 4    1  0.1714834E-005  0.5219640E+03  0.7818608E-02  0.1008200E+00
          2   -1    0    0  501    0  0.00000000000E+00  0.00000000000E+00  0.31251060527E+04  0.31251060527E+04  0.25500000000E-02 0.  1.
         -2   -1    0    0    0  501 -0.00000000000E+00 -0.00000000000E+00 -0.21794973841E+02  0.21794973991E+02  0.25500000000E-02 0. -1.
   -5000001    1    1    2    0    0 -0.92665826329E+01 -0.62618536083E+02  0.17931645133E+04  0.18116141759E+04  0.25000000000E+03 0.  0.
    5000001    1    1    2    0    0  0.92665826329E+01  0.62618536083E+02  0.13101465656E+04  0.13352868508E+04  0.25000000000E+03 0.  0.
<mgrwt>
<rscale>  0 0.52196400E+03</rscale>
<asrwt>0</asrwt>
<pdfrwt beam="1">  1        2 0.48078568E+00 0.52196400E+03</pdfrwt>
<pdfrwt beam="2">  1       -2 0.33530720E-02 0.52196400E+03</pdfrwt>
<totfact> 0.60259920E+02</totfact>
</mgrwt>
</event>
<event>
 4    1  0.1714834E-005  0.1089047E+04  0.7818608E-02  0.9215933E-01
         -2   -1    0    0    0  501 -0.00000000000E+00  0.00000000000E+00  0.96899516415E+02  0.96899516448E+02  0.25500000000E-02 0. -1.
          2   -1    0    0  501    0  0.00000000000E+00 -0.00000000000E+00 -0.30599330228E+04  0.30599330228E+04  0.25500000000E-02 0.  1.
   -5000001    1    1    2    0    0  0.26203911886E+03  0.30813427557E+03 -0.71243046399E+03  0.85654445163E+03  0.25000000000E+03 0.  0.
    5000001    1    1    2    0    0 -0.26203911886E+03 -0.30813427557E+03 -0.22506030423E+04  0.23002880876E+04  0.25000000000E+03 0.  0.
<mgrwt>
<rscale>  0 0.10890473E+04</rscale>
<asrwt>0</asrwt>
<pdfrwt beam="1">  1        2 0.47075885E+00 0.10890473E+04</pdfrwt>
<pdfrwt beam="2">  1       -2 0.14907620E-01 0.10890473E+04</pdfrwt>
<totfact> 0.57442405E+01</totfact>
</mgrwt>
</event>
<event>
 4    1  0.1714834E-005  0.7148798E+03  0.7818608E-02  0.9692119E-01
         -2   -1    0    0    0  501 -0.00000000000E+00  0.00000000000E+00  0.67356248137E+02  0.67356248186E+02  0.25500000000E-02 0.  1.
          2   -1    0    0  501    0  0.00000000000E+00 -0.00000000000E+00 -0.18968290059E+04  0.18968290059E+04  0.25500000000E-02 0. -1.
   -5000001    1    1    2    0    0  0.12571916963E+03 -0.21656656160E+03 -0.10536696590E+04  0.11114972494E+04  0.25000000000E+03 0.  0.
    5000001    1    1    2    0    0 -0.12571916963E+03  0.21656656160E+03 -0.77580309878E+03  0.85268800466E+03  0.25000000000E+03 0.  0.
<mgrwt>
<rscale>  0 0.71487981E+03</rscale>
<asrwt>0</asrwt>
<pdfrwt beam="1">  1        2 0.29181981E+00 0.71487981E+03</pdfrwt>
<pdfrwt beam="2">  1       -2 0.10362501E-01 0.71487981E+03</pdfrwt>
<totfact> 0.50536456E+02</totfact>
</mgrwt>
</event>
<event>
 4    1  0.1714834E-005  0.1187961E+04  0.7818608E-02  0.9123460E-01
          2   -1    0    0  501    0  0.00000000000E+00  0.00000000000E+00  0.40715751997E+03  0.40715751998E+03  0.25500000000E-02 0.  1.
         -2   -1    0    0    0  501 -0.00000000000E+00 -0.00000000000E+00 -0.86652710850E+03  0.86652710850E+03  0.25500000000E-02 0. -1.
   -5000001    1    1    2    0    0 -0.34371307472E+03  0.18750267796E+03  0.16718403034E+03  0.49370682796E+03  0.25000000000E+03 0.  0.
    5000001    1    1    2    0    0  0.34371307472E+03 -0.18750267796E+03 -0.62655361887E+03  0.77997780052E+03  0.25000000000E+03 0.  0.
<mgrwt>
<rscale>  0 0.11879613E+04</rscale>
<asrwt>0</asrwt>
<pdfrwt beam="1">  1        2 0.62639619E-01 0.11879613E+04</pdfrwt>
<pdfrwt beam="2">  1       -2 0.13331186E+00 0.11879613E+04</pdfrwt>
<totfact> 0.31332860E+01</totfact>
</mgrwt>
</event>
<event>
 4    1  0.1714834E-005  0.1880710E+04  0.7818608E-02  0.8664518E-01
          2   -1    0    0  501    0  0.00000000000E+00  0.00000000000E+00  0.20560931472E+04  0.20560931472E+04  0.25500000000E-02 0.  1.
         -2   -1    0    0    0  501 -0.00000000000E+00 -0.00000000000E+00 -0.43007177186E+03  0.43007177187E+03  0.25500000000E-02 0. -1.
   -5000001    1    1    2    0    0  0.30307174035E+03  0.46146515777E+03 -0.13745987033E+03  0.62144813749E+03  0.25000000000E+03 0.  0.
    5000001    1    1    2    0    0 -0.30307174035E+03 -0.46146515777E+03  0.17634812456E+04  0.18647167815E+04  0.25000000000E+03 0.  0.
<mgrwt>
<rscale>  0 0.18807101E+04</rscale>
<asrwt>0</asrwt>
<pdfrwt beam="1">  1        2 0.31632202E+00 0.18807101E+04</pdfrwt>
<pdfrwt beam="2">  1       -2 0.66164888E-01 0.18807101E+04</pdfrwt>
<totfact> 0.12253086E+01</totfact>
</mgrwt>
</event>
<event>
 4    1  0.1714834E-005  0.9087324E+03  0.7818608E-02  0.9414731E-01
         -2   -1    0    0    0  501 -0.00000000000E+00  0.00000000000E+00  0.96866114926E+02  0.96866114960E+02  0.25500000000E-02 0. -1.
          2   -1    0    0  501    0  0.00000000000E+00 -0.00000000000E+00 -0.21312781458E+04  0.21312781458E+04  0.25500000000E-02 0.  1.
   -5000001    1    1    2    0    0  0.19144137944E+03 -0.14619071341E+03 -0.17359469822E+04  0.17703201551E+04  0.25000000000E+03 0.  0.
    5000001    1    1    2    0    0 -0.19144137944E+03  0.14619071341E+03 -0.29846504861E+03  0.45782410563E+03  0.25000000000E+03 0.  0.
<mgrwt>
<rscale>  0 0.90873238E+03</rscale>
<asrwt>0</asrwt>
<pdfrwt beam="1">  1        2 0.32788891E+00 0.90873238E+03</pdfrwt>
<pdfrwt beam="2">  1       -2 0.14902481E-01 0.90873238E+03</pdfrwt>
<totfact> 0.20265238E+02</totfact>
</mgrwt>
</event>
<event>
 4    1  0.1714834E-005  0.9874099E+03  0.7818608E-02  0.9322462E-01
          2   -1    0    0  501    0  0.00000000000E+00  0.00000000000E+00  0.61981741196E+03  0.61981741197E+03  0.25500000000E-02 0.  1.
         -2   -1    0    0    0  501 -0.00000000000E+00 -0.00000000000E+00 -0.39325221998E+03  0.39325221999E+03  0.25500000000E-02 0. -1.
   -5000001    1    1    2    0    0  0.37446389999E+03  0.15606581664E+03 -0.19164414377E+02  0.47691406595E+03  0.25000000000E+03 0.  0.
    5000001    1    1    2    0    0 -0.37446389999E+03 -0.15606581664E+03  0.24572960636E+03  0.53615556601E+03  0.25000000000E+03 0.  0.
<mgrwt>
<rscale>  0 0.98740989E+03</rscale>
<asrwt>0</asrwt>
<pdfrwt beam="1">  1        2 0.95356524E-01 0.98740989E+03</pdfrwt>
<pdfrwt beam="2">  1       -2 0.60500342E-01 0.98740989E+03</pdfrwt>
<totfact> 0.12127329E+02</totfact>
</mgrwt>
</event>
<event>
 4    1  0.1714834E-005  0.5894161E+03  0.7818608E-02  0.9927611E-01
         -2   -1    0    0    0  501 -0.00000000000E+00  0.00000000000E+00  0.59829232394E+02  0.59829232448E+02  0.25500000000E-02 0. -1.
          2   -1    0    0  501    0  0.00000000000E+00 -0.00000000000E+00 -0.14516790931E+04  0.14516790931E+04  0.25500000000E-02 0.  1.
   -5000001    1    1    2    0    0  0.12788069249E+03  0.87621363833E+02 -0.74193251271E+03  0.79811955766E+03  0.25000000000E+03 0.  0.
    5000001    1    1    2    0    0 -0.12788069249E+03 -0.87621363833E+02 -0.64991734797E+03  0.71338876786E+03  0.25000000000E+03 0.  0.
<mgrwt>
<rscale>  0 0.58941614E+03</rscale>
<asrwt>0</asrwt>
<pdfrwt beam="1">  1        2 0.22333522E+00 0.58941614E+03</pdfrwt>
<pdfrwt beam="2">  1       -2 0.92044984E-02 0.58941614E+03</pdfrwt>
<totfact> 0.10804572E+03</totfact>
</mgrwt>
</event>
<event>
 4    1  0.1714834E-005  0.5251688E+03  0.7818608E-02  0.1007411E+00
          2   -1    0    0  501    0  0.00000000000E+00  0.00000000000E+00  0.30535603658E+04  0.30535603658E+04  0.25500000000E-02 0.  1.
         -2   -1    0    0    0  501 -0.00000000000E+00 -0.00000000000E+00 -0.22580381355E+02  0.22580381499E+02  0.25500000000E-02 0. -1.
   -5000001    1    1    2    0    0 -0.65250538800E+02 -0.11049899774E+02  0.17820401725E+04  0.18007073359E+04  0.25000000000E+03 0.  0.
    5000001    1    1    2    0    0  0.65250538800E+02  0.11049899774E+02  0.12489398120E+04  0.12754334114E+04  0.25000000000E+03 0.  0.
<mgrwt>
<rscale>  0 0.52516876E+03</rscale>
<asrwt>0</asrwt>
<pdfrwt beam="1">  1        2 0.46977881E+00 0.52516876E+03</pdfrwt>
<pdfrwt beam="2">  1       -2 0.34739027E-02 0.52516876E+03</pdfrwt>
<totfact> 0.63171961E+02</totfact>
</mgrwt>
</event>
<event>
 4    1  0.1714834E-005  0.8563023E+03  0.7818608E-02  0.9481917E-01
         -2   -1    0    0    0  501 -0.00000000000E+00  0.00000000000E+00  0.18327751299E+03  0.18327751301E+03  0.25500000000E-02 0. -1.
          2   -1    0    0  501    0  0.00000000000E+00 -0.00000000000E+00 -0.10001959368E+04  0.10001959368E+04  0.25500000000E-02 0.  1.
   -5000001    1    1    2    0    0  0.25942550402E+03  0.44423173468E+02 -0.94699692335E+02  0.37515735659E+03  0.25000000000E+03 0.  0.
    5000001    1    1    2    0    0 -0.25942550402E+03 -0.44423173468E+02 -0.72221873151E+03  0.80831609326E+03  0.25000000000E+03 0.  0.
<mgrwt>
<rscale>  0 0.85630234E+03</rscale>
<asrwt>0</asrwt>
<pdfrwt beam="1">  1        2 0.15387629E+00 0.85630234E+03</pdfrwt>
<pdfrwt beam="2">  1       -2 0.28196541E-01 0.85630234E+03</pdfrwt>
<totfact> 0.29048477E+02</totfact>
</mgrwt>
</event>
<event>
 4    1  0.1714834E-005  0.5805290E+03  0.7818608E-02  0.9946646E-01
         -2   -1    0    0    0  501 -0.00000000000E+00  0.00000000000E+00  0.59102042661E+02  0.59102042716E+02  0.25500000000E-02 0. -1.
          2   -1    0    0  501    0  0.00000000000E+00 -0.00000000000E+00 -0.14255596220E+04  0.14255596220E+04  0.25500000000E-02 0.  1.
   -5000001    1    1    2    0    0  0.12794334058E+03 -0.73164321736E+02 -0.69746089008E+03  0.75542981777E+03  0.25000000000E+03 0.  0.
    5000001    1    1    2    0    0 -0.12794334058E+03  0.73164321736E+02 -0.66899668926E+03  0.72923184696E+03  0.25000000000E+03 0.  0.
<mgrwt>
<rscale>  0 0.58052902E+03</rscale>
<asrwt>0</asrwt>
<pdfrwt beam="1">  1        2 0.21931684E+00 0.58052902E+03</pdfrwt>
<pdfrwt beam="2">  1       -2 0.90926230E-02 0.58052902E+03</pdfrwt>
<totfact> 0.11398869E+03</totfact>
</mgrwt>
</event>
<event>
 4    1  0.1714834E-005  0.7003087E+03  0.7818608E-02  0.9716704E-01
         -2   -1    0    0    0  501 -0.00000000000E+00  0.00000000000E+00  0.77389075162E+02  0.77389075204E+02  0.25500000000E-02 0. -1.
          2   -1    0    0  501    0  0.00000000000E+00 -0.00000000000E+00 -0.15843070358E+04  0.15843070358E+04  0.25500000000E-02 0.  1.
   -5000001    1    1    2    0    0  0.19942900185E+03  0.10507352734E+03 -0.52468703489E+03  0.62338499943E+03  0.25000000000E+03 0.  0.
    5000001    1    1    2    0    0 -0.19942900185E+03 -0.10507352734E+03 -0.98223092573E+03  0.10383111116E+04  0.25000000000E+03 0.  0.
<mgrwt>
<rscale>  0 0.70030866E+03</rscale>
<asrwt>0</asrwt>
<pdfrwt beam="1">  1        2 0.24373952E+00 0.70030866E+03</pdfrwt>
<pdfrwt beam="2">  1       -2 0.11906013E-01 0.70030866E+03</pdfrwt>
<totfact> 0.59656342E+02</totfact>
</mgrwt>
</event>
<event>
 4    1  0.1714834E-005  0.5911978E+03  0.7818608E-02  0.9923838E-01
          2   -1    0    0  501    0  0.00000000000E+00  0.00000000000E+00  0.40816246221E+03  0.40816246222E+03  0.25500000000E-02 0.  1.
         -2   -1    0    0    0  501 -0.00000000000E+00 -0.00000000000E+00 -0.21407824993E+03  0.21407824995E+03  0.25500000000E-02 0. -1.
   -5000001    1    1    2    0    0  0.20814020019E+01  0.14060050242E+03  0.21834703660E+02  0.28766228081E+03  0.25000000000E+03 0.  0.
    5000001    1    1    2    0    0 -0.20814020019E+01 -0.14060050242E+03  0.17224950862E+03  0.33457843136E+03  0.25000000000E+03 0.  0.
<mgrwt>
<rscale>  0 0.59119779E+03</rscale>
<asrwt>0</asrwt>
<pdfrwt beam="1">  1        2 0.62794225E-01 0.59119779E+03</pdfrwt>
<pdfrwt beam="2">  1       -2 0.32935115E-01 0.59119779E+03</pdfrwt>
<totfact> 0.67250515E+02</totfact>
</mgrwt>
</event>
<event>
 4    1  0.1714834E-005  0.9170546E+03  0.7818608E-02  0.9404510E-01
         -2   -1    0    0    0  501 -0.00000000000E+00  0.00000000000E+00  0.13830539212E+03  0.13830539214E+03  0.25500000000E-02 0. -1.
          2   -1    0    0  501    0  0.00000000000E+00 -0.00000000000E+00 -0.15201670928E+04  0.15201670928E+04  0.25500000000E-02 0.  1.
   -5000001    1    1    2    0    0  0.21571491667E+03  0.30760020380E+03 -0.83781322379E+03  0.95162062220E+03  0.25000000000E+03 0.  0.
    5000001    1    1    2    0    0 -0.21571491667E+03 -0.30760020380E+03 -0.54404847689E+03  0.70685186274E+03  0.25000000000E+03 0.  0.
<mgrwt>
<rscale>  0 0.91705465E+03</rscale>
<asrwt>0</asrwt>
<pdfrwt beam="1">  1        2 0.23387185E+00 0.91705465E+03</pdfrwt>
<pdfrwt beam="2">  1       -2 0.21277754E-01 0.91705465E+03</pdfrwt>
<totfact> 0.23737499E+02</totfact>
</mgrwt>
</event>
<event>
 4    1  0.1714834E-005  0.8508920E+03  0.7818608E-02  0.9489141E-01
         -2   -1    0    0    0  501 -0.00000000000E+00  0.00000000000E+00  0.15263535736E+03  0.15263535738E+03  0.25500000000E-02 0. -1.
          2   -1    0    0  501    0  0.00000000000E+00 -0.00000000000E+00 -0.11858607830E+04  0.11858607831E+04  0.25500000000E-02 0.  1.
   -5000001    1    1    2    0    0  0.30229528665E+03  0.21391309611E+02 -0.77347919320E+03  0.86753103159E+03  0.25000000000E+03 0.  0.
    5000001    1    1    2    0    0 -0.30229528665E+03 -0.21391309611E+02 -0.25974623249E+03  0.47096510884E+03  0.25000000000E+03 0.  0.
<mgrwt>
<rscale>  0 0.85089197E+03</rscale>
<asrwt>0</asrwt>
<pdfrwt beam="1">  1        2 0.18244011E+00 0.85089197E+03</pdfrwt>
<pdfrwt beam="2">  1       -2 0.23482364E-01 0.85089197E+03</pdfrwt>
<totfact> 0.31114799E+02</totfact>
</mgrwt>
</event>
<event>
 4    1  0.1714834E-005  0.6198061E+03  0.7818608E-02  0.9865146E-01
          2   -1    0    0  501    0  0.00000000000E+00  0.00000000000E+00  0.14558431814E+04  0.14558431814E+04  0.25500000000E-02 0.  1.
         -2   -1    0    0    0  501 -0.00000000000E+00 -0.00000000000E+00 -0.65968579036E+02  0.65968579086E+02  0.25500000000E-02 0. -1.
   -5000001    1    1    2    0    0  0.16108190006E+03 -0.86853245062E+02  0.71213166492E+03  0.77660953696E+03  0.25000000000E+03 0.  0.
    5000001    1    1    2    0    0 -0.16108190006E+03  0.86853245062E+02  0.67774293743E+03  0.74520222352E+03  0.25000000000E+03 0.  0.
<mgrwt>
<rscale>  0 0.61980612E+03</rscale>
<asrwt>0</asrwt>
<pdfrwt beam="1">  1        2 0.22397589E+00 0.61980612E+03</pdfrwt>
<pdfrwt beam="2">  1       -2 0.10149012E-01 0.61980612E+03</pdfrwt>
<totfact> 0.91639109E+02</totfact>
</mgrwt>
</event>
<event>
 4    1  0.1714834E-005  0.6377280E+03  0.7818608E-02  0.9830083E-01
         -2   -1    0    0    0  501 -0.00000000000E+00  0.00000000000E+00  0.76284316444E+02  0.76284316486E+02  0.25500000000E-02 0. -1.
          2   -1    0    0  501    0  0.00000000000E+00 -0.00000000000E+00 -0.13328330299E+04  0.13328330299E+04  0.25500000000E-02 0.  1.
   -5000001    1    1    2    0    0  0.10003153112E+03  0.11358569732E+03 -0.91008360036E+03  0.95585573048E+03  0.25000000000E+03 0.  0.
    5000001    1    1    2    0    0 -0.10003153112E+03 -0.11358569732E+03 -0.34646511306E+03  0.45326161587E+03  0.25000000000E+03 0.  0.
<mgrwt>
<rscale>  0 0.63772802E+03</rscale>
<asrwt>0</asrwt>
<pdfrwt beam="1">  1        2 0.20505122E+00 0.63772802E+03</pdfrwt>
<pdfrwt beam="2">  1       -2 0.11736050E-01 0.63772802E+03</pdfrwt>
<totfact> 0.84676809E+02</totfact>
</mgrwt>
</event>
<event>
 4    1  0.1714834E-005  0.9485326E+03  0.7818608E-02  0.9366867E-01
         -2   -1    0    0    0  501 -0.00000000000E+00  0.00000000000E+00  0.29590713744E+03  0.29590713745E+03  0.25500000000E-02 0. -1.
          2   -1    0    0  501    0  0.00000000000E+00 -0.00000000000E+00 -0.76013209483E+03  0.76013209484E+03  0.25500000000E-02 0.  1.
   -5000001    1    1    2    0    0 -0.37634325653E+03 -0.98894795001E+02 -0.11526966288E+03  0.47665660847E+03  0.25000000000E+03 0.  0.
    5000001    1    1    2    0    0  0.37634325653E+03  0.98894795001E+02 -0.34895529451E+03  0.57938262382E+03  0.25000000000E+03 0.  0.
<mgrwt>
<rscale>  0 0.94853258E+03</rscale>
<asrwt>0</asrwt>
<pdfrwt beam="1">  1        2 0.11694340E+00 0.94853258E+03</pdfrwt>
<pdfrwt beam="2">  1       -2 0.45524175E-01 0.94853258E+03</pdfrwt>
<totfact> 0.16872536E+02</totfact>
</mgrwt>
</event>
<event>
 4    1  0.1714834E-005  0.1142723E+04  0.7818608E-02  0.9164524E-01
          2   -1    0    0  501    0  0.00000000000E+00  0.00000000000E+00  0.19415902423E+04  0.19415902423E+04  0.25500000000E-02 0.  1.
         -2   -1    0    0    0  501 -0.00000000000E+00 -0.00000000000E+00 -0.16813728903E+03  0.16813728905E+03  0.25500000000E-02 0. -1.
   -5000001    1    1    2    0    0  0.27064215426E+03 -0.26245850777E+03  0.15311161346E+04  0.15965425962E+04  0.25000000000E+03 0.  0.
    5000001    1    1    2    0    0 -0.27064215426E+03  0.26245850777E+03  0.24233681868E+03  0.51318493513E+03  0.25000000000E+03 0.  0.
<mgrwt>
<rscale>  0 0.11427226E+04</rscale>
<asrwt>0</asrwt>
<pdfrwt beam="1">  1        2 0.29870620E+00 0.11427226E+04</pdfrwt>
<pdfrwt beam="2">  1       -2 0.25867274E-01 0.11427226E+04</pdfrwt>
<totfact> 0.96261947E+01</totfact>
</mgrwt>
</event>
<event>
 4    1  0.1714834E-005  0.7266578E+03  0.7818608E-02  0.9672699E-01
         -2   -1    0    0    0  501 -0.00000000000E+00  0.00000000000E+00  0.21499163269E+03  0.21499163270E+03  0.25500000000E-02 0. -1.
          2   -1    0    0  501    0  0.00000000000E+00 -0.00000000000E+00 -0.61401413772E+03  0.61401413773E+03  0.25500000000E-02 0.  1.
   -5000001    1    1    2    0    0  0.18482080723E+03  0.18519734469E+03 -0.16252395087E+03  0.39669991413E+03  0.25000000000E+03 0.  0.
    5000001    1    1    2    0    0 -0.18482080723E+03 -0.18519734469E+03 -0.23649855417E+03  0.43230585630E+03  0.25000000000E+03 0.  0.
<mgrwt>
<rscale>  0 0.72665783E+03</rscale>
<asrwt>0</asrwt>
<pdfrwt beam="1">  1        2 0.94463713E-01 0.72665783E+03</pdfrwt>
<pdfrwt beam="2">  1       -2 0.33075636E-01 0.72665783E+03</pdfrwt>
<totfact> 0.41410940E+02</totfact>
</mgrwt>
</event>
<event>
 4    1  0.1714834E-005  0.1704621E+04  0.7818608E-02  0.8758733E-01
         -2   -1    0    0    0  501 -0.00000000000E+00  0.00000000000E+00  0.47042141714E+03  0.47042141715E+03  0.25500000000E-02 0. -1.
          2   -1    0    0  501    0  0.00000000000E+00 -0.00000000000E+00 -0.15442183008E+04  0.15442183008E+04  0.25500000000E-02 0.  1.
   -5000001    1    1    2    0    0  0.17887799575E+03 -0.79479178301E+03 -0.55528575359E+03  0.10171202406E+04  0.25000000000E+03 0.  0.
    5000001    1    1    2    0    0 -0.17887799575E+03  0.79479178301E+03 -0.51851113010E+03  0.99751947737E+03  0.25000000000E+03 0.  0.
<mgrwt>
<rscale>  0 0.17046212E+04</rscale>
<asrwt>0</asrwt>
<pdfrwt beam="1">  1        2 0.23757204E+00 0.17046212E+04</pdfrwt>
<pdfrwt beam="2">  1       -2 0.72372527E-01 0.17046212E+04</pdfrwt>
<totfact> 0.19696862E+01</totfact>
</mgrwt>
</event>
<event>
 4    1  0.1714834E-005  0.6714958E+03  0.7818608E-02  0.9767259E-01
          2   -1    0    0  501    0  0.00000000000E+00  0.00000000000E+00  0.77374923327E+03  0.77374923327E+03  0.25500000000E-02 0.  1.
         -2   -1    0    0    0  501 -0.00000000000E+00 -0.00000000000E+00 -0.14568886112E+03  0.14568886114E+03  0.25500000000E-02 0. -1.
   -5000001    1    1    2    0    0 -0.13116094450E+03  0.12183193799E+03  0.49865126507E+03  0.58583214202E+03  0.25000000000E+03 0.  0.
    5000001    1    1    2    0    0  0.13116094450E+03 -0.12183193799E+03  0.12940910708E+03  0.33360595239E+03  0.25000000000E+03 0.  0.
<mgrwt>
<rscale>  0 0.67149578E+03</rscale>
<asrwt>0</asrwt>
<pdfrwt beam="1">  1        2 0.11903834E+00 0.67149578E+03</pdfrwt>
<pdfrwt beam="2">  1       -2 0.22413671E-01 0.67149578E+03</pdfrwt>
<totfact> 0.63168038E+02</totfact>
</mgrwt>
</event>
<event>
 4    1  0.1714834E-005  0.6780975E+03  0.7818608E-02  0.9755439E-01
          2   -1    0    0  501    0  0.00000000000E+00  0.00000000000E+00  0.21678278941E+04  0.21678278941E+04  0.25500000000E-02 0.  1.
         -2   -1    0    0    0  501 -0.00000000000E+00 -0.00000000000E+00 -0.53027295432E+02  0.53027295493E+02  0.25500000000E-02 0. -1.
   -5000001    1    1    2    0    0  0.18344666021E+03  0.13085116903E+03  0.11916143635E+04  0.12382324082E+04  0.25000000000E+03 0.  0.
    5000001    1    1    2    0    0 -0.18344666021E+03 -0.13085116903E+03  0.92318623516E+03  0.98262278132E+03  0.25000000000E+03 0.  0.
<mgrwt>
<rscale>  0 0.67809749E+03</rscale>
<asrwt>0</asrwt>
<pdfrwt beam="1">  1        2 0.33351204E+00 0.67809749E+03</pdfrwt>
<pdfrwt beam="2">  1       -2 0.81580440E-02 0.67809749E+03</pdfrwt>
<totfact> 0.53064548E+02</totfact>
</mgrwt>
</event>
<event>
 4    1  0.1714834E-005  0.6330155E+03  0.7818608E-02  0.9839182E-01
         -2   -1    0    0    0  501 -0.00000000000E+00  0.00000000000E+00  0.84905217122E+02  0.84905217160E+02  0.25500000000E-02 0. -1.
          2   -1    0    0  501    0  0.00000000000E+00 -0.00000000000E+00 -0.11798705972E+04  0.11798705972E+04  0.25500000000E-02 0.  1.
   -5000001    1    1    2    0    0  0.94082019362E+02 -0.16095574829E+03 -0.43953447108E+03  0.53893295552E+03  0.25000000000E+03 0.  0.
    5000001    1    1    2    0    0 -0.94082019362E+02  0.16095574829E+03 -0.65543090903E+03  0.72584285887E+03  0.25000000000E+03 0.  0.
<mgrwt>
<rscale>  0 0.63301554E+03</rscale>
<asrwt>0</asrwt>
<pdfrwt beam="1">  1        2 0.18151854E+00 0.63301554E+03</pdfrwt>
<pdfrwt beam="2">  1       -2 0.13062342E-01 0.63301554E+03</pdfrwt>
<totfact> 0.87022093E+02</totfact>
</mgrwt>
</event>
<event>
 4    1  0.1714834E-005  0.6288079E+03  0.7818608E-02  0.9847378E-01
         -2   -1    0    0    0  501 -0.00000000000E+00  0.00000000000E+00  0.45718944479E+02  0.45718944550E+02  0.25500000000E-02 0.  1.
          2   -1    0    0  501    0  0.00000000000E+00 -0.00000000000E+00 -0.21621203264E+04  0.21621203264E+04  0.25500000000E-02 0. -1.
   -5000001    1    1    2    0    0  0.12272138539E+02 -0.18188578402E+03 -0.12542227618E+04  0.12918234322E+04  0.25000000000E+03 0.  0.
    5000001    1    1    2    0    0 -0.12272138539E+02  0.18188578402E+03 -0.86217862008E+03  0.91601583870E+03  0.25000000000E+03 0.  0.
<mgrwt>
<rscale>  0 0.62880795E+03</rscale>
<asrwt>0</asrwt>
<pdfrwt beam="1">  1        2 0.33263382E+00 0.62880795E+03</pdfrwt>
<pdfrwt beam="2">  1       -2 0.70336855E-02 0.62880795E+03</pdfrwt>
<totfact> 0.67929520E+02</totfact>
</mgrwt>
</event>
<event>
 4    1  0.1714834E-005  0.7854423E+03  0.7818608E-02  0.9581331E-01
         -2   -1    0    0    0  501 -0.00000000000E+00  0.00000000000E+00  0.13220044218E+03  0.13220044220E+03  0.25500000000E-02 0. -1.
          2   -1    0    0  501    0  0.00000000000E+00 -0.00000000000E+00 -0.11666367007E+04  0.11666367007E+04  0.25500000000E-02 0.  1.
   -5000001    1    1    2    0    0  0.66734095683E+02 -0.28005533576E+03 -0.67274325920E+03  0.77328385695E+03  0.25000000000E+03 0.  0.
    5000001    1    1    2    0    0 -0.66734095683E+02  0.28005533576E+03 -0.36169299931E+03  0.52555328594E+03  0.25000000000E+03 0.  0.
<mgrwt>
<rscale>  0 0.78544226E+03</rscale>
<asrwt>0</asrwt>
<pdfrwt beam="1">  1        2 0.17948256E+00 0.78544226E+03</pdfrwt>
<pdfrwt beam="2">  1       -2 0.20338530E-01 0.78544226E+03</pdfrwt>
<totfact> 0.41355589E+02</totfact>
</mgrwt>
</event>
<event>
 4    1  0.1714834E-005  0.9010983E+03  0.7818608E-02  0.9424209E-01
         -2   -1    0    0    0  501 -0.00000000000E+00  0.00000000000E+00  0.32054954141E+03  0.32054954142E+03  0.25500000000E-02 0. -1.
          2   -1    0    0  501    0  0.00000000000E+00 -0.00000000000E+00 -0.63327046955E+03  0.63327046956E+03  0.25500000000E-02 0.  1.
   -5000001    1    1    2    0    0  0.11986437613E+03 -0.29116726134E+03  0.58880658783E+02  0.40634071261E+03  0.25000000000E+03 0.  0.
    5000001    1    1    2    0    0 -0.11986437613E+03  0.29116726134E+03 -0.37160158692E+03  0.54747929837E+03  0.25000000000E+03 0.  0.
<mgrwt>
<rscale>  0 0.90109835E+03</rscale>
<asrwt>0</asrwt>
<pdfrwt beam="1">  1        2 0.97426226E-01 0.90109835E+03</pdfrwt>
<pdfrwt beam="2">  1       -2 0.49315314E-01 0.90109835E+03</pdfrwt>
<totfact> 0.18131143E+02</totfact>
</mgrwt>
</event>
<event>
 4    1  0.1714834E-005  0.6455308E+03  0.7818608E-02  0.9815202E-01
         -2   -1    0    0    0  501 -0.00000000000E+00  0.00000000000E+00  0.19753640923E+03  0.19753640924E+03  0.25500000000E-02 0. -1.
          2   -1    0    0  501    0  0.00000000000E+00 -0.00000000000E+00 -0.52738386595E+03  0.52738386596E+03  0.25500000000E-02 0.  1.
   -5000001    1    1    2    0    0  0.14922636206E+03 -0.13708464984E+03 -0.19281368478E+03  0.37515040370E+03  0.25000000000E+03 0.  0.
    5000001    1    1    2    0    0 -0.14922636206E+03  0.13708464984E+03 -0.13703377194E+03  0.34976987150E+03  0.25000000000E+03 0.  0.
<mgrwt>
<rscale>  0 0.64553084E+03</rscale>
<asrwt>0</asrwt>
<pdfrwt beam="1">  1        2 0.81135979E-01 0.64553084E+03</pdfrwt>
<pdfrwt beam="2">  1       -2 0.30390217E-01 0.64553084E+03</pdfrwt>
<totfact> 0.58259061E+02</totfact>
</mgrwt>
</event>
<event>
 4    1  0.1714834E-005  0.8839770E+03  0.7818608E-02  0.9445836E-01
         -2   -1    0    0    0  501 -0.00000000000E+00  0.00000000000E+00  0.30018280208E+03  0.30018280209E+03  0.25500000000E-02 0. -1.
          2   -1    0    0  501    0  0.00000000000E+00 -0.00000000000E+00 -0.65078286851E+03  0.65078286852E+03  0.25500000000E-02 0.  1.
   -5000001    1    1    2    0    0 -0.15476735984E+03  0.17487191428E+03  0.12576628569E+03  0.36448632442E+03  0.25000000000E+03 0.  0.
    5000001    1    1    2    0    0  0.15476735984E+03 -0.17487191428E+03 -0.47636635212E+03  0.58647934619E+03  0.25000000000E+03 0.  0.
<mgrwt>
<rscale>  0 0.88397698E+03</rscale>
<asrwt>0</asrwt>
<pdfrwt beam="1">  1        2 0.10012044E+00 0.88397698E+03</pdfrwt>
<pdfrwt beam="2">  1       -2 0.46181970E-01 0.88397698E+03</pdfrwt>
<totfact> 0.20032042E+02</totfact>
</mgrwt>
</event>
<event>
 4    1  0.1714834E-005  0.1020052E+04  0.7818608E-02  0.9286822E-01
          2   -1    0    0  501    0  0.00000000000E+00  0.00000000000E+00  0.21350226734E+04  0.21350226734E+04  0.25500000000E-02 0.  1.
         -2   -1    0    0    0  501 -0.00000000000E+00 -0.00000000000E+00 -0.12183772202E+03  0.12183772205E+03  0.25500000000E-02 0. -1.
   -5000001    1    1    2    0    0 -0.38109041437E+03  0.16101914510E+02  0.15117840537E+04  0.15790757425E+04  0.25000000000E+03 0.  0.
    5000001    1    1    2    0    0  0.38109041437E+03 -0.16101914510E+02  0.50140089769E+03  0.67778465295E+03  0.25000000000E+03 0.  0.
<mgrwt>
<rscale>  0 0.10200516E+04</rscale>
<asrwt>0</asrwt>
<pdfrwt beam="1">  1        2 0.32846501E+00 0.10200516E+04</pdfrwt>
<pdfrwt beam="2">  1       -2 0.18744266E-01 0.10200516E+04</pdfrwt>
<totfact> 0.13482470E+02</totfact>
</mgrwt>
</event>
<event>
 4    1  0.1714834E-005  0.9766388E+03  0.7818608E-02  0.9334545E-01
         -2   -1    0    0    0  501 -0.00000000000E+00  0.00000000000E+00  0.10417050670E+04  0.10417050670E+04  0.25500000000E-02 0. -1.
          2   -1    0    0  501    0  0.00000000000E+00 -0.00000000000E+00 -0.22890917802E+03  0.22890917804E+03  0.25500000000E-02 0.  1.
   -5000001    1    1    2    0    0 -0.40792079579E+03  0.94608953775E+02  0.37438098055E+03  0.61482627495E+03  0.25000000000E+03 0.  0.
    5000001    1    1    2    0    0  0.40792079579E+03 -0.94608953775E+02  0.43841490841E+03  0.65578797007E+03  0.25000000000E+03 0.  0.
<mgrwt>
<rscale>  0 0.97663883E+03</rscale>
<asrwt>0</asrwt>
<pdfrwt beam="1">  1        2 0.35216797E-01 0.97663883E+03</pdfrwt>
<pdfrwt beam="2">  1       -2 0.16026232E+00 0.97663883E+03</pdfrwt>
<totfact> 0.37217202E+01</totfact>
</mgrwt>
</event>
<event>
 4    1  0.1714834E-005  0.9428301E+03  0.7818608E-02  0.9373571E-01
          2   -1    0    0  501    0  0.00000000000E+00  0.00000000000E+00  0.26532445864E+04  0.26532445864E+04  0.25500000000E-02 0. -1.
         -2   -1    0    0    0  501 -0.00000000000E+00 -0.00000000000E+00 -0.83758630819E+02  0.83758630857E+02  0.25500000000E-02 0.  1.
   -5000001    1    1    2    0    0  0.13011177787E+03 -0.37271123166E+03  0.14657865105E+04  0.15384644394E+04  0.25000000000E+03 0.  0.
    5000001    1    1    2    0    0 -0.13011177787E+03  0.37271123166E+03  0.11036994450E+04  0.11985387778E+04  0.25000000000E+03 0.  0.
<mgrwt>
<rscale>  0 0.94283007E+03</rscale>
<asrwt>0</asrwt>
<pdfrwt beam="1">  1        2 0.40819144E+00 0.94283007E+03</pdfrwt>
<pdfrwt beam="2">  1       -2 0.12885944E-01 0.94283007E+03</pdfrwt>
<totfact> 0.13089932E+02</totfact>
</mgrwt>
</event>
<event>
 4    1  0.1714834E-005  0.6250358E+03  0.7818608E-02  0.9854784E-01
         -2   -1    0    0    0  501 -0.00000000000E+00  0.00000000000E+00  0.93907137788E+02  0.93907137823E+02  0.25500000000E-02 0. -1.
          2   -1    0    0  501    0  0.00000000000E+00 -0.00000000000E+00 -0.10400427609E+04  0.10400427609E+04  0.25500000000E-02 0.  1.
   -5000001    1    1    2    0    0  0.16066141079E+03  0.96360397481E+02 -0.45788641714E+03  0.55430802459E+03  0.25000000000E+03 0.  0.
    5000001    1    1    2    0    0 -0.16066141079E+03 -0.96360397481E+02 -0.48824920596E+03  0.57964187413E+03  0.25000000000E+03 0.  0.
<mgrwt>
<rscale>  0 0.62503580E+03</rscale>
<asrwt>0</asrwt>
<pdfrwt beam="1">  1        2 0.16000657E+00 0.62503580E+03</pdfrwt>
<pdfrwt beam="2">  1       -2 0.14447253E-01 0.62503580E+03</pdfrwt>
<totfact> 0.89413495E+02</totfact>
</mgrwt>
</event>
<event>
 4    1  0.1714834E-005  0.6661977E+03  0.7818608E-02  0.9776851E-01
         -2   -1    0    0    0  501 -0.00000000000E+00  0.00000000000E+00  0.10096922187E+03  0.10096922190E+03  0.25500000000E-02 0. -1.
          2   -1    0    0  501    0  0.00000000000E+00 -0.00000000000E+00 -0.10988976538E+04  0.10988976538E+04  0.25500000000E-02 0.  1.
   -5000001    1    1    2    0    0  0.10822273319E+03  0.16603706408E+03 -0.67147576325E+03  0.74341116972E+03  0.25000000000E+03 0.  0.
    5000001    1    1    2    0    0 -0.10822273319E+03 -0.16603706408E+03 -0.32645266864E+03  0.45645570595E+03  0.25000000000E+03 0.  0.
<mgrwt>
<rscale>  0 0.66619769E+03</rscale>
<asrwt>0</asrwt>
<pdfrwt beam="1">  1        2 0.16906117E+00 0.66619769E+03</pdfrwt>
<pdfrwt beam="2">  1       -2 0.15533727E-01 0.66619769E+03</pdfrwt>
<totfact> 0.72679518E+02</totfact>
</mgrwt>
</event>
<event>
 4    1  0.1714834E-005  0.6364472E+03  0.7818608E-02  0.9832548E-01
          2   -1    0    0  501    0  0.00000000000E+00  0.00000000000E+00  0.20896663908E+03  0.20896663909E+03  0.25500000000E-02 0.  1.
         -2   -1    0    0    0  501 -0.00000000000E+00 -0.00000000000E+00 -0.48460486661E+03  0.48460486662E+03  0.25500000000E-02 0. -1.
   -5000001    1    1    2    0    0 -0.15742744472E+03 -0.10863805956E+03 -0.86930681692E+02  0.32656174264E+03  0.25000000000E+03 0.  0.
    5000001    1    1    2    0    0  0.15742744472E+03  0.10863805956E+03 -0.18870754585E+03  0.36700976308E+03  0.25000000000E+03 0.  0.
<mgrwt>
<rscale>  0 0.63644717E+03</rscale>
<asrwt>0</asrwt>
<pdfrwt beam="1">  1        2 0.32148714E-01 0.63644717E+03</pdfrwt>
<pdfrwt beam="2">  1       -2 0.74554595E-01 0.63644717E+03</pdfrwt>
<totfact> 0.26912823E+02</totfact>
</mgrwt>
</event>
<event>
 4    1  0.1714834E-005  0.5149510E+03  0.7818608E-02  0.1009949E+00
         -2   -1    0    0    0  501 -0.00000000000E+00  0.00000000000E+00  0.19088189329E+03  0.19088189330E+03  0.25500000000E-02 0. -1.
          2   -1    0    0  501    0  0.00000000000E+00 -0.00000000000E+00 -0.34730190177E+03  0.34730190178E+03  0.25500000000E-02 0.  1.
   -5000001    1    1    2    0    0 -0.91594089553E+01 -0.60630618756E+02 -0.72144919292E+02  0.26732911567E+03  0.25000000000E+03 0.  0.
    5000001    1    1    2    0    0  0.91594089553E+01  0.60630618756E+02 -0.84275089194E+02  0.27085467942E+03  0.25000000000E+03 0.  0.
<mgrwt>
<rscale>  0 0.51495104E+03</rscale>
<asrwt>0</asrwt>
<pdfrwt beam="1">  1        2 0.53431062E-01 0.51495104E+03</pdfrwt>
<pdfrwt beam="2">  1       -2 0.29366445E-01 0.51495104E+03</pdfrwt>
<totfact> 0.99627891E+02</totfact>
</mgrwt>
</event>
<event>
 4    1  0.1714834E-005  0.9455988E+03  0.7818608E-02  0.9370310E-01
         -2   -1    0    0    0  501 -0.00000000000E+00  0.00000000000E+00  0.33980019657E+03  0.33980019658E+03  0.25500000000E-02 0. -1.
          2   -1    0    0  501    0  0.00000000000E+00 -0.00000000000E+00 -0.65785498671E+03  0.65785498672E+03  0.25500000000E-02 0.  1.
   -5000001    1    1    2    0    0  0.14080446917E+03 -0.33196263257E+03  0.26775989856E+02  0.43959304088E+03  0.25000000000E+03 0.  0.
    5000001    1    1    2    0    0 -0.14080446917E+03  0.33196263257E+03 -0.34483078000E+03  0.55806214241E+03  0.25000000000E+03 0.  0.
<mgrwt>
<rscale>  0 0.94559876E+03</rscale>
<asrwt>0</asrwt>
<pdfrwt beam="1">  1        2 0.10120846E+00 0.94559876E+03</pdfrwt>
<pdfrwt beam="2">  1       -2 0.52276954E-01 0.94559876E+03</pdfrwt>
<totfact> 0.15319945E+02</totfact>
</mgrwt>
</event>
<event>
 4    1  0.1714834E-005  0.7078021E+03  0.7818608E-02  0.9703982E-01
          2   -1    0    0  501    0  0.00000000000E+00  0.00000000000E+00  0.22835193539E+04  0.22835193539E+04  0.25500000000E-02 0.  1.
         -2   -1    0    0    0  501 -0.00000000000E+00 -0.00000000000E+00 -0.54847781505E+02  0.54847781564E+02  0.25500000000E-02 0. -1.
   -5000001    1    1    2    0    0 -0.10282734180E+03 -0.13208018008E+02  0.36098997451E+03  0.45117809749E+03  0.25000000000E+03 0.  0.
    5000001    1    1    2    0    0  0.10282734180E+03  0.13208018008E+02  0.18676815979E+04  0.18871890380E+04  0.25000000000E+03 0.  0.
<mgrwt>
<rscale>  0 0.70780215E+03</rscale>
<asrwt>0</asrwt>
<pdfrwt beam="1">  1        2 0.35131061E+00 0.70780215E+03</pdfrwt>
<pdfrwt beam="2">  1       -2 0.84381218E-02 0.70780215E+03</pdfrwt>
<totfact> 0.43304588E+02</totfact>
</mgrwt>
</event>
<event>
 4    1  0.1714834E-005  0.9143806E+03  0.7818608E-02  0.9407781E-01
          2   -1    0    0  501    0  0.00000000000E+00  0.00000000000E+00  0.72904623509E+03  0.72904623510E+03  0.25500000000E-02 0.  1.
         -2   -1    0    0    0  501 -0.00000000000E+00 -0.00000000000E+00 -0.28670742971E+03  0.28670742972E+03  0.25500000000E-02 0. -1.
   -5000001    1    1    2    0    0 -0.35646974576E+03 -0.10969466742E+03  0.12548415593E+03  0.46620797193E+03  0.25000000000E+03 0.  0.
    5000001    1    1    2    0    0  0.35646974576E+03  0.10969466742E+03  0.31685464945E+03  0.54954569290E+03  0.25000000000E+03 0.  0.
<mgrwt>
<rscale>  0 0.91438060E+03</rscale>
<asrwt>0</asrwt>
<pdfrwt beam="1">  1        2 0.11216096E+00 0.91438060E+03</pdfrwt>
<pdfrwt beam="2">  1       -2 0.44108836E-01 0.91438060E+03</pdfrwt>
<totfact> 0.19000709E+02</totfact>
</mgrwt>
</event>
<event>
 4    1  0.1714834E-005  0.6538399E+03  0.7818608E-02  0.9799600E-01
          2   -1    0    0  501    0  0.00000000000E+00  0.00000000000E+00  0.62452807520E+03  0.62452807520E+03  0.25500000000E-02 0.  1.
         -2   -1    0    0    0  501 -0.00000000000E+00 -0.00000000000E+00 -0.17113188457E+03  0.17113188459E+03  0.25500000000E-02 0. -1.
   -5000001    1    1    2    0    0  0.20568407098E+03 -0.15993455466E+02  0.27854072854E+03  0.42737181134E+03  0.25000000000E+03 0.  0.
    5000001    1    1    2    0    0 -0.20568407098E+03  0.15993455466E+02  0.17485546208E+03  0.36828814845E+03  0.25000000000E+03 0.  0.
<mgrwt>
<rscale>  0 0.65383994E+03</rscale>
<asrwt>0</asrwt>
<pdfrwt beam="1">  1        2 0.96081242E-01 0.65383994E+03</pdfrwt>
<pdfrwt beam="2">  1       -2 0.26327982E-01 0.65383994E+03</pdfrwt>
<totfact> 0.61977512E+02</totfact>
</mgrwt>
</event>
<event>
 4    1  0.1714834E-005  0.6941911E+03  0.7818608E-02  0.9727218E-01
          2   -1    0    0  501    0  0.00000000000E+00  0.00000000000E+00  0.13055942407E+03  0.13055942410E+03  0.25500000000E-02 0.  1.
         -2   -1    0    0    0  501 -0.00000000000E+00 -0.00000000000E+00 -0.92276237325E+03  0.92276237325E+03  0.25500000000E-02 0. -1.
   -5000001    1    1    2    0    0 -0.49030502694E+02  0.19584304700E+03 -0.19700724169E+03  0.37692219692E+03  0.25000000000E+03 0.  0.
    5000001    1    1    2    0    0  0.49030502694E+02 -0.19584304700E+03 -0.59519570749E+03  0.67639960043E+03  0.25000000000E+03 0.  0.
<mgrwt>
<rscale>  0 0.69419111E+03</rscale>
<asrwt>0</asrwt>
<pdfrwt beam="1">  1        2 0.20086066E-01 0.69419111E+03</pdfrwt>
<pdfrwt beam="2">  1       -2 0.14196344E+00 0.69419111E+03</pdfrwt>
<totfact> 0.99159573E+01</totfact>
</mgrwt>
</event>
<event>
 4    1  0.1714834E-005  0.8283884E+03  0.7818608E-02  0.9519811E-01
         -2   -1    0    0    0  501 -0.00000000000E+00  0.00000000000E+00  0.98061196843E+02  0.98061196877E+02  0.25500000000E-02 0. -1.
          2   -1    0    0  501    0  0.00000000000E+00 -0.00000000000E+00 -0.17494874917E+04  0.17494874918E+04  0.25500000000E-02 0.  1.
   -5000001    1    1    2    0    0  0.17862761640E+03 -0.26454483008E+03 -0.63692647219E+03  0.75502789580E+03  0.25000000000E+03 0.  0.
    5000001    1    1    2    0    0 -0.17862761640E+03  0.26454483008E+03 -0.10144998227E+04  0.10925207928E+04  0.25000000000E+03 0.  0.
<mgrwt>
<rscale>  0 0.82838840E+03</rscale>
<asrwt>0</asrwt>
<pdfrwt beam="1">  1        2 0.26915190E+00 0.82838840E+03</pdfrwt>
<pdfrwt beam="2">  1       -2 0.15086339E-01 0.82838840E+03</pdfrwt>
<totfact> 0.32330136E+02</totfact>
</mgrwt>
</event>
<event>
 4    1  0.1714834E-005  0.7128269E+03  0.7818608E-02  0.9695545E-01
         -2   -1    0    0    0  501 -0.00000000000E+00  0.00000000000E+00  0.32710915975E+02  0.32710916075E+02  0.25500000000E-02 0. -1.
          2   -1    0    0  501    0  0.00000000000E+00 -0.00000000000E+00 -0.38834296229E+04  0.38834296229E+04  0.25500000000E-02 0.  1.
   -5000001    1    1    2    0    0  0.22794351272E+03  0.87243858464E+02 -0.23123052584E+04  0.23385519759E+04  0.25000000000E+03 0.  0.
    5000001    1    1    2    0    0 -0.22794351272E+03 -0.87243858464E+02 -0.15384134484E+04  0.15775885630E+04  0.25000000000E+03 0.  0.
<mgrwt>
<rscale>  0 0.71282688E+03</rscale>
<asrwt>0</asrwt>
<pdfrwt beam="1">  1        2 0.59745035E+00 0.71282688E+03</pdfrwt>
<pdfrwt beam="2">  1       -2 0.50324517E-02 0.71282688E+03</pdfrwt>
<totfact> 0.95363942E+01</totfact>
</mgrwt>
</event>
<event>
 4    1  0.1714834E-005  0.6163580E+03  0.7818608E-02  0.9872038E-01
         -2   -1    0    0    0  501 -0.00000000000E+00  0.00000000000E+00  0.72169759076E+02  0.72169759121E+02  0.25500000000E-02 0. -1.
          2   -1    0    0  501    0  0.00000000000E+00 -0.00000000000E+00 -0.13159848138E+04  0.13159848138E+04  0.25500000000E-02 0.  1.
   -5000001    1    1    2    0    0  0.11147099149E+03 -0.12488496252E+03 -0.47162947070E+03  0.55942505614E+03  0.25000000000E+03 0.  0.
    5000001    1    1    2    0    0 -0.11147099149E+03  0.12488496252E+03 -0.77218558398E+03  0.82872951673E+03  0.25000000000E+03 0.  0.
<mgrwt>
<rscale>  0 0.61635804E+03</rscale>
<asrwt>0</asrwt>
<pdfrwt beam="1">  1        2 0.20245918E+00 0.61635804E+03</pdfrwt>
<pdfrwt beam="2">  1       -2 0.11103041E-01 0.61635804E+03</pdfrwt>
<totfact> 0.94902092E+02</totfact>
</mgrwt>
</event>
<event>
 4    1  0.1714834E-005  0.5618856E+03  0.7818608E-02  0.9987797E-01
          2   -1    0    0  501    0  0.00000000000E+00  0.00000000000E+00  0.14046671379E+04  0.14046671379E+04  0.25500000000E-02 0.  1.
         -2   -1    0    0    0  501 -0.00000000000E+00 -0.00000000000E+00 -0.56190427244E+02  0.56190427302E+02  0.25500000000E-02 0. -1.
   -5000001    1    1    2    0    0  0.88619238849E+02 -0.55022918153E+02  0.48058434733E+03  0.55167219063E+03  0.25000000000E+03 0.  0.
    5000001    1    1    2    0    0 -0.88619238849E+02  0.55022918153E+02  0.86789236328E+03  0.90918537453E+03  0.25000000000E+03 0.  0.
<mgrwt>
<rscale>  0 0.56188556E+03</rscale>
<asrwt>0</asrwt>
<pdfrwt beam="1">  1        2 0.21610264E+00 0.56188556E+03</pdfrwt>
<pdfrwt beam="2">  1       -2 0.86446808E-02 0.56188556E+03</pdfrwt>
<totfact> 0.12707297E+03</totfact>
</mgrwt>
</event>
<event>
 4    1  0.1714834E-005  0.9183013E+03  0.7818608E-02  0.9402989E-01
         -2   -1    0    0    0  501 -0.00000000000E+00  0.00000000000E+00  0.12460001202E+03  0.12460001204E+03  0.25500000000E-02 0. -1.
          2   -1    0    0  501    0  0.00000000000E+00 -0.00000000000E+00 -0.16919685644E+04  0.16919685644E+04  0.25500000000E-02 0.  1.
   -5000001    1    1    2    0    0 -0.31509290687E+03 -0.16110350009E+03 -0.10842212651E+04  0.11675930924E+04  0.25000000000E+03 0.  0.
    5000001    1    1    2    0    0  0.31509290687E+03  0.16110350009E+03 -0.48314728731E+03  0.64897548408E+03  0.25000000000E+03 0.  0.
<mgrwt>
<rscale>  0 0.91830127E+03</rscale>
<asrwt>0</asrwt>
<pdfrwt beam="1">  1        2 0.26030284E+00 0.91830127E+03</pdfrwt>
<pdfrwt beam="2">  1       -2 0.19169234E-01 0.91830127E+03</pdfrwt>
<totfact> 0.22897111E+02</totfact>
</mgrwt>
</event>
<event>
 4    1  0.1714834E-005  0.6158992E+03  0.7818608E-02  0.9872958E-01
         -2   -1    0    0    0  501 -0.00000000000E+00  0.00000000000E+00  0.30472526168E+02  0.30472526275E+02  0.25500000000E-02 0. -1.
          2   -1    0    0  501    0  0.00000000000E+00 -0.00000000000E+00 -0.31120805508E+04  0.31120805508E+04  0.25500000000E-02 0.  1.
   -5000001    1    1    2    0    0  0.15406089329E+03 -0.91971068778E+02 -0.16010725970E+04  0.16303763054E+04  0.25000000000E+03 0.  0.
    5000001    1    1    2    0    0 -0.15406089329E+03  0.91971068778E+02 -0.14805354276E+04  0.15121767717E+04  0.25000000000E+03 0.  0.
<mgrwt>
<rscale>  0 0.61589920E+03</rscale>
<asrwt>0</asrwt>
<pdfrwt beam="1">  1        2 0.47878137E+00 0.61589920E+03</pdfrwt>
<pdfrwt beam="2">  1       -2 0.46880834E-02 0.61589920E+03</pdfrwt>
<totfact> 0.36298974E+02</totfact>
</mgrwt>
</event>
<event>
 4    1  0.1714834E-005  0.1328365E+04  0.7818608E-02  0.9007369E-01
         -2   -1    0    0    0  501 -0.00000000000E+00  0.00000000000E+00  0.16396343037E+04  0.16396343037E+04  0.25500000000E-02 0. -1.
          2   -1    0    0  501    0  0.00000000000E+00 -0.00000000000E+00 -0.26904680326E+03  0.26904680328E+03  0.25500000000E-02 0.  1.
   -5000001    1    1    2    0    0 -0.89990704903E+01 -0.60852188891E+03  0.55471682777E+03  0.86057575585E+03  0.25000000000E+03 0.  0.
    5000001    1    1    2    0    0  0.89990704903E+01  0.60852188891E+03  0.81587067267E+03  0.10481053511E+04  0.25000000000E+03 0.  0.
<mgrwt>
<rscale>  0 0.13283650E+04</rscale>
<asrwt>0</asrwt>
<pdfrwt beam="1">  1        2 0.41391816E-01 0.13283650E+04</pdfrwt>
<pdfrwt beam="2">  1       -2 0.25225143E+00 0.13283650E+04</pdfrwt>
<totfact> 0.75626364E+00</totfact>
</mgrwt>
</event>
<event>
 4    1  0.1714834E-005  0.8345929E+03  0.7818608E-02  0.9511252E-01
          2   -1    0    0  501    0  0.00000000000E+00  0.00000000000E+00  0.70128623170E+03  0.70128623170E+03  0.25500000000E-02 0.  1.
         -2   -1    0    0    0  501 -0.00000000000E+00 -0.00000000000E+00 -0.24830994451E+03  0.24830994453E+03  0.25500000000E-02 0. -1.
   -5000001    1    1    2    0    0 -0.30608196553E+03  0.10683070003E+03  0.31848352424E+03  0.51868171676E+03  0.25000000000E+03 0.  0.
    5000001    1    1    2    0    0  0.30608196553E+03 -0.10683070003E+03  0.13449276295E+03  0.43091445947E+03  0.25000000000E+03 0.  0.
<mgrwt>
<rscale>  0 0.83459294E+03</rscale>
<asrwt>0</asrwt>
<pdfrwt beam="1">  1        2 0.10789019E+00 0.83459294E+03</pdfrwt>
<pdfrwt beam="2">  1       -2 0.38201530E-01 0.83459294E+03</pdfrwt>
<totfact> 0.26568714E+02</totfact>
</mgrwt>
</event>
<event>
 4    1  0.1714834E-005  0.1363443E+04  0.7818608E-02  0.8980714E-01
         -2   -1    0    0    0  501 -0.00000000000E+00  0.00000000000E+00  0.64476701062E+03  0.64476701063E+03  0.25500000000E-02 0.  1.
          2   -1    0    0  501    0  0.00000000000E+00 -0.00000000000E+00 -0.72079406866E+03  0.72079406867E+03  0.25500000000E-02 0. -1.
   -5000001    1    1    2    0    0  0.48389680556E+03  0.12198238436E+03  0.35401298418E+03  0.66095462287E+03  0.25000000000E+03 0.  0.
    5000001    1    1    2    0    0 -0.48389680556E+03 -0.12198238436E+03 -0.43004004222E+03  0.70460645642E+03  0.25000000000E+03 0.  0.
<mgrwt>
<rscale>  0 0.13634430E+04</rscale>
<asrwt>0</asrwt>
<pdfrwt beam="1">  1        2 0.11089140E+00 0.13634430E+04</pdfrwt>
<pdfrwt beam="2">  1       -2 0.99194924E-01 0.13634430E+04</pdfrwt>
<totfact> 0.32439520E+01</totfact>
</mgrwt>
</event>
<event>
 4    1  0.1714834E-005  0.7630550E+03  0.7818608E-02  0.9615089E-01
         -2   -1    0    0    0  501 -0.00000000000E+00  0.00000000000E+00  0.51167892415E+03  0.51167892415E+03  0.25500000000E-02 0. -1.
          2   -1    0    0  501    0  0.00000000000E+00 -0.00000000000E+00 -0.28448159933E+03  0.28448159935E+03  0.25500000000E-02 0.  1.
   -5000001    1    1    2    0    0 -0.64492459430E+02  0.11931431763E+03  0.37893069792E+03  0.47379706367E+03  0.25000000000E+03 0.  0.
    5000001    1    1    2    0    0  0.64492459430E+02 -0.11931431763E+03 -0.15173337311E+03  0.32236345983E+03  0.25000000000E+03 0.  0.
<mgrwt>
<rscale>  0 0.76305501E+03</rscale>
<asrwt>0</asrwt>
<pdfrwt beam="1">  1        2 0.43766400E-01 0.76305501E+03</pdfrwt>
<pdfrwt beam="2">  1       -2 0.78719834E-01 0.76305501E+03</pdfrwt>
<totfact> 0.16841448E+02</totfact>
</mgrwt>
</event>
<event>
 4    1  0.1714834E-005  0.7110416E+03  0.7818608E-02  0.9698534E-01
          2   -1    0    0  501    0  0.00000000000E+00  0.00000000000E+00  0.11481957592E+04  0.11481957592E+04  0.25500000000E-02 0.  1.
         -2   -1    0    0    0  501 -0.00000000000E+00 -0.00000000000E+00 -0.11008142960E+03  0.11008142963E+03  0.25500000000E-02 0. -1.
   -5000001    1    1    2    0    0  0.22608821851E+03 -0.15426918507E+02  0.71723275151E+03  0.79263906805E+03  0.25000000000E+03 0.  0.
    5000001    1    1    2    0    0 -0.22608821851E+03  0.15426918507E+02  0.32088157809E+03  0.46563812078E+03  0.25000000000E+03 0.  0.
<mgrwt>
<rscale>  0 0.71104158E+03</rscale>
<asrwt>0</asrwt>
<pdfrwt beam="1">  1        2 0.17664550E+00 0.71104158E+03</pdfrwt>
<pdfrwt beam="2">  1       -2 0.16935604E-01 0.71104158E+03</pdfrwt>
<totfact> 0.58464449E+02</totfact>
</mgrwt>
</event>
<event>
 4    1  0.1714834E-005  0.5540694E+03  0.7818608E-02  0.1000556E+00
          2   -1    0    0  501    0  0.00000000000E+00  0.00000000000E+00  0.20162414815E+03  0.20162414817E+03  0.25500000000E-02 0.  1.
         -2   -1    0    0    0  501 -0.00000000000E+00 -0.00000000000E+00 -0.38064998604E+03  0.38064998605E+03  0.25500000000E-02 0. -1.
   -5000001    1    1    2    0    0 -0.73484860492E+02  0.10221037948E+02  0.87550116482E+01  0.26092363743E+03  0.25000000000E+03 0.  0.
    5000001    1    1    2    0    0  0.73484860492E+02 -0.10221037948E+02 -0.18778084954E+03  0.32135049680E+03  0.25000000000E+03 0.  0.
<mgrwt>
<rscale>  0 0.55406942E+03</rscale>
<asrwt>0</asrwt>
<pdfrwt beam="1">  1        2 0.31019100E-01 0.55406942E+03</pdfrwt>
<pdfrwt beam="2">  1       -2 0.58561536E-01 0.55406942E+03</pdfrwt>
<totfact> 0.47129492E+02</totfact>
</mgrwt>
</event>
<event>
 4    1  0.1714834E-005  0.6547682E+03  0.7818608E-02  0.9797873E-01
          2   -1    0    0  501    0  0.00000000000E+00  0.00000000000E+00  0.14665265636E+04  0.14665265636E+04  0.25500000000E-02 0.  1.
         -2   -1    0    0    0  501 -0.00000000000E+00 -0.00000000000E+00 -0.73084492784E+02  0.73084492829E+02  0.25500000000E-02 0. -1.
   -5000001    1    1    2    0    0 -0.18571085176E+03 -0.85346671826E+02  0.82351654014E+03  0.88456320675E+03  0.25000000000E+03 0.  0.
    5000001    1    1    2    0    0  0.18571085176E+03  0.85346671826E+02  0.56992553068E+03  0.65504784969E+03  0.25000000000E+03 0.  0.
<mgrwt>
<rscale>  0 0.65476820E+03</rscale>
<asrwt>0</asrwt>
<pdfrwt beam="1">  1        2 0.22561948E+00 0.65476820E+03</pdfrwt>
<pdfrwt beam="2">  1       -2 0.11243768E-01 0.65476820E+03</pdfrwt>
<totfact> 0.76345833E+02</totfact>
</mgrwt>
</event>
<event>
 4    1  0.1714834E-005  0.5842295E+03  0.7818608E-02  0.9938676E-01
         -2   -1    0    0    0  501 -0.00000000000E+00  0.00000000000E+00  0.43036696731E+02  0.43036696807E+02  0.25500000000E-02 0. -1.
          2   -1    0    0  501    0  0.00000000000E+00 -0.00000000000E+00 -0.19827503740E+04  0.19827503740E+04  0.25500000000E-02 0.  1.
   -5000001    1    1    2    0    0 -0.86853643553E+02 -0.96985711678E+02 -0.12357730864E+04  0.12675113036E+04  0.25000000000E+03 0.  0.
    5000001    1    1    2    0    0  0.86853643553E+02  0.96985711678E+02 -0.70394059081E+03  0.75827576716E+03  0.25000000000E+03 0.  0.
<mgrwt>
<rscale>  0 0.58422950E+03</rscale>
<asrwt>0</asrwt>
<pdfrwt beam="1">  1        2 0.30503845E+00 0.58422950E+03</pdfrwt>
<pdfrwt beam="2">  1       -2 0.66210318E-02 0.58422950E+03</pdfrwt>
<totfact> 0.93836659E+02</totfact>
</mgrwt>
</event>
<event>
 4    1  0.1714834E-005  0.6455719E+03  0.7818608E-02  0.9815124E-01
          2   -1    0    0  501    0  0.00000000000E+00  0.00000000000E+00  0.11432434695E+03  0.11432434697E+03  0.25500000000E-02 0.  1.
         -2   -1    0    0    0  501 -0.00000000000E+00 -0.00000000000E+00 -0.91136120234E+03  0.91136120234E+03  0.25500000000E-02 0. -1.
   -5000001    1    1    2    0    0 -0.16304141120E+03  0.50319632395E+02 -0.57669247663E+03  0.65129776583E+03  0.25000000000E+03 0.  0.
    5000001    1    1    2    0    0  0.16304141120E+03 -0.50319632395E+02 -0.22034437876E+03  0.37438778349E+03  0.25000000000E+03 0.  0.
<mgrwt>
<rscale>  0 0.64557191E+03</rscale>
<asrwt>0</asrwt>
<pdfrwt beam="1">  1        2 0.17588362E-01 0.64557191E+03</pdfrwt>
<pdfrwt beam="2">  1       -2 0.14020941E+00 0.64557191E+03</pdfrwt>
<totfact> 0.12008284E+02</totfact>
</mgrwt>
</event>
<event>
 4    1  0.1714834E-005  0.6192749E+03  0.7818608E-02  0.9866205E-01
         -2   -1    0    0    0  501 -0.00000000000E+00  0.00000000000E+00  0.10163274337E+03  0.10163274340E+03  0.25500000000E-02 0. -1.
          2   -1    0    0  501    0  0.00000000000E+00 -0.00000000000E+00 -0.94335087319E+03  0.94335087320E+03  0.25500000000E-02 0.  1.
   -5000001    1    1    2    0    0 -0.95539237634E+02  0.70663080683E+02 -0.18671123882E+03  0.33388935832E+03  0.25000000000E+03 0.  0.
    5000001    1    1    2    0    0  0.95539237634E+02 -0.70663080683E+02 -0.65500689100E+03  0.71109425828E+03  0.25000000000E+03 0.  0.
<mgrwt>
<rscale>  0 0.61927486E+03</rscale>
<asrwt>0</asrwt>
<pdfrwt beam="1">  1        2 0.14513090E+00 0.61927486E+03</pdfrwt>
<pdfrwt beam="2">  1       -2 0.15635807E-01 0.61927486E+03</pdfrwt>
<totfact> 0.90189633E+02</totfact>
</mgrwt>
</event>
<event>
 4    1  0.1714834E-005  0.7482522E+03  0.7818608E-02  0.9638096E-01
         -2   -1    0    0    0  501 -0.00000000000E+00  0.00000000000E+00  0.84811111019E+02  0.84811111057E+02  0.25500000000E-02 0. -1.
          2   -1    0    0  501    0  0.00000000000E+00 -0.00000000000E+00 -0.16503771772E+04  0.16503771772E+04  0.25500000000E-02 0.  1.
   -5000001    1    1    2    0    0 -0.15943437624E+03  0.75639100179E+02 -0.28363598454E+03  0.41724089628E+03  0.25000000000E+03 0.  0.
    5000001    1    1    2    0    0  0.15943437624E+03 -0.75639100179E+02 -0.12819300816E+04  0.13179473919E+04  0.25000000000E+03 0.  0.
<mgrwt>
<rscale>  0 0.74825216E+03</rscale>
<asrwt>0</asrwt>
<pdfrwt beam="1">  1        2 0.25390416E+00 0.74825216E+03</pdfrwt>
<pdfrwt beam="2">  1       -2 0.13047865E-01 0.74825216E+03</pdfrwt>
<totfact> 0.47005096E+02</totfact>
</mgrwt>
</event>
<event>
 4    1  0.1714834E-005  0.8295424E+03  0.7818608E-02  0.9518213E-01
         -2   -1    0    0    0  501 -0.00000000000E+00  0.00000000000E+00  0.19503183092E+04  0.19503183092E+04  0.25500000000E-02 0. -1.
          2   -1    0    0  501    0  0.00000000000E+00 -0.00000000000E+00 -0.88208745905E+02  0.88208745942E+02  0.25500000000E-02 0.  1.
   -5000001    1    1    2    0    0  0.51108315533E+02 -0.32408995882E+03  0.10378538713E+04  0.11168200479E+04  0.25000000000E+03 0.  0.
    5000001    1    1    2    0    0 -0.51108315533E+02  0.32408995882E+03  0.82425569199E+03  0.92170700719E+03  0.25000000000E+03 0.  0.
<mgrwt>
<rscale>  0 0.82954236E+03</rscale>
<asrwt>0</asrwt>
<pdfrwt beam="1">  1        2 0.13570576E-01 0.82954236E+03</pdfrwt>
<pdfrwt beam="2">  1       -2 0.30004898E+00 0.82954236E+03</pdfrwt>
<totfact> 0.14866363E+01</totfact>
</mgrwt>
</event>
<event>
 4    1  0.1714834E-005  0.7315928E+03  0.7818608E-02  0.9664679E-01
         -2   -1    0    0    0  501 -0.00000000000E+00  0.00000000000E+00  0.91304942277E+02  0.91304942313E+02  0.25500000000E-02 0. -1.
          2   -1    0    0  501    0  0.00000000000E+00 -0.00000000000E+00 -0.14654955736E+04  0.14654955736E+04  0.25500000000E-02 0.  1.
   -5000001    1    1    2    0    0 -0.10508322001E+03  0.24101601410E+03 -0.78635473305E+03  0.86601672523E+03  0.25000000000E+03 0.  0.
    5000001    1    1    2    0    0  0.10508322001E+03 -0.24101601410E+03 -0.58783589827E+03  0.69078379069E+03  0.25000000000E+03 0.  0.
<mgrwt>
<rscale>  0 0.73159275E+03</rscale>
<asrwt>0</asrwt>
<pdfrwt beam="1">  1        2 0.22546084E+00 0.73159275E+03</pdfrwt>
<pdfrwt beam="2">  1       -2 0.14046915E-01 0.73159275E+03</pdfrwt>
<totfact> 0.52630280E+02</totfact>
</mgrwt>
</event>
<event>
 4    1  0.1714834E-005  0.9642002E+03  0.7818608E-02  0.9348705E-01
         -2   -1    0    0    0  501 -0.00000000000E+00  0.00000000000E+00  0.63175530849E+03  0.63175530849E+03  0.25500000000E-02 0. -1.
          2   -1    0    0  501    0  0.00000000000E+00 -0.00000000000E+00 -0.36789644091E+03  0.36789644092E+03  0.25500000000E-02 0.  1.
   -5000001    1    1    2    0    0 -0.16330679958E+03 -0.32522402635E+03 -0.68788249703E+02  0.44684628386E+03  0.25000000000E+03 0.  0.
    5000001    1    1    2    0    0  0.16330679958E+03  0.32522402635E+03  0.33264711728E+03  0.55280546555E+03  0.25000000000E+03 0.  0.
<mgrwt>
<rscale>  0 0.96420025E+03</rscale>
<asrwt>0</asrwt>
<pdfrwt beam="1">  1        2 0.56599452E-01 0.96420025E+03</pdfrwt>
<pdfrwt beam="2">  1       -2 0.97193124E-01 0.96420025E+03</pdfrwt>
<totfact> 0.77233088E+01</totfact>
</mgrwt>
</event>
<event>
 4    1  0.1714834E-005  0.1306608E+04  0.7818608E-02  0.9024341E-01
         -2   -1    0    0    0  501 -0.00000000000E+00  0.00000000000E+00  0.34779662495E+03  0.34779662496E+03  0.25500000000E-02 0. -1.
          2   -1    0    0  501    0  0.00000000000E+00 -0.00000000000E+00 -0.12271722831E+04  0.12271722831E+04  0.25500000000E-02 0.  1.
   -5000001    1    1    2    0    0  0.25858947927E+03 -0.32685417767E+03  0.86562982350E+02  0.49365506395E+03  0.25000000000E+03 0.  0.
    5000001    1    1    2    0    0 -0.25858947927E+03  0.32685417767E+03 -0.96593864050E+03  0.10813138441E+04  0.25000000000E+03 0.  0.
<mgrwt>
<rscale>  0 0.13066084E+04</rscale>
<asrwt>0</asrwt>
<pdfrwt beam="1">  1        2 0.18879573E+00 0.13066084E+04</pdfrwt>
<pdfrwt beam="2">  1       -2 0.53507174E-01 0.13066084E+04</pdfrwt>
<totfact> 0.58838185E+01</totfact>
</mgrwt>
</event>
<event>
 4    1  0.1714834E-005  0.1235391E+04  0.7818608E-02  0.9082430E-01
         -2   -1    0    0    0  501 -0.00000000000E+00  0.00000000000E+00  0.27487429500E+03  0.27487429501E+03  0.25500000000E-02 0. -1.
          2   -1    0    0  501    0  0.00000000000E+00 -0.00000000000E+00 -0.13880815060E+04  0.13880815060E+04  0.25500000000E-02 0.  1.
   -5000001    1    1    2    0    0 -0.29696356936E+03  0.43832688858E+03 -0.82151490691E+03  0.10088134441E+04  0.25000000000E+03 0.  0.
    5000001    1    1    2    0    0  0.29696356936E+03 -0.43832688858E+03 -0.29169230405E+03  0.65414235685E+03  0.25000000000E+03 0.  0.
<mgrwt>
<rscale>  0 0.12353913E+04</rscale>
<asrwt>0</asrwt>
<pdfrwt beam="1">  1        2 0.21355100E+00 0.12353913E+04</pdfrwt>
<pdfrwt beam="2">  1       -2 0.42288354E-01 0.12353913E+04</pdfrwt>
<totfact> 0.76664749E+01</totfact>
</mgrwt>
</event>
<event>
 4    1  0.1714834E-005  0.9834723E+03  0.7818608E-02  0.9326860E-01
         -2   -1    0    0    0  501 -0.00000000000E+00  0.00000000000E+00  0.50103730097E+03  0.50103730098E+03  0.25500000000E-02 0.  1.
          2   -1    0    0  501    0  0.00000000000E+00 -0.00000000000E+00 -0.48260766326E+03  0.48260766327E+03  0.25500000000E-02 0. -1.
   -5000001    1    1    2    0    0 -0.30449901170E+03 -0.24136675355E+03 -0.15912065143E+03  0.48866853751E+03  0.25000000000E+03 0.  0.
    5000001    1    1    2    0    0  0.30449901170E+03  0.24136675355E+03  0.17755028914E+03  0.49497642673E+03  0.25000000000E+03 0.  0.
<mgrwt>
<rscale>  0 0.98347230E+03</rscale>
<asrwt>0</asrwt>
<pdfrwt beam="1">  1        2 0.74247333E-01 0.98347230E+03</pdfrwt>
<pdfrwt beam="2">  1       -2 0.77082661E-01 0.98347230E+03</pdfrwt>
<totfact> 0.96400118E+01</totfact>
</mgrwt>
</event>
<event>
 4    1  0.1714834E-005  0.7149718E+03  0.7818608E-02  0.9691965E-01
          2   -1    0    0  501    0  0.00000000000E+00  0.00000000000E+00  0.13484385775E+03  0.13484385777E+03  0.25500000000E-02 0.  1.
         -2   -1    0    0    0  501 -0.00000000000E+00 -0.00000000000E+00 -0.94773452356E+03  0.94773452357E+03  0.25500000000E-02 0. -1.
   -5000001    1    1    2    0    0  0.16758823478E+03 -0.23224427148E+02 -0.11648957992E+03  0.32356608704E+03  0.25000000000E+03 0.  0.
    5000001    1    1    2    0    0 -0.16758823478E+03  0.23224427148E+02 -0.69640108590E+03  0.75901229430E+03  0.25000000000E+03 0.  0.
<mgrwt>
<rscale>  0 0.71497183E+03</rscale>
<asrwt>0</asrwt>
<pdfrwt beam="1">  1        2 0.20745209E-01 0.71497183E+03</pdfrwt>
<pdfrwt beam="2">  1       -2 0.14580531E+00 0.71497183E+03</pdfrwt>
<totfact> 0.88967865E+01</totfact>
</mgrwt>
</event>
<event>
 4    1  0.1714834E-005  0.6466381E+03  0.7818608E-02  0.9813108E-01
          2   -1    0    0  501    0  0.00000000000E+00  0.00000000000E+00  0.24646059110E+04  0.24646059110E+04  0.25500000000E-02 0.  1.
         -2   -1    0    0    0  501 -0.00000000000E+00 -0.00000000000E+00 -0.42414567147E+02  0.42414567224E+02  0.25500000000E-02 0. -1.
   -5000001    1    1    2    0    0 -0.90123058718E+02  0.15316889136E+03  0.16074676375E+04  0.16364703115E+04  0.25000000000E+03 0.  0.
    5000001    1    1    2    0    0  0.90123058718E+02 -0.15316889136E+03  0.81472370634E+03  0.87055016665E+03  0.25000000000E+03 0.  0.
<mgrwt>
<rscale>  0 0.64663805E+03</rscale>
<asrwt>0</asrwt>
<pdfrwt beam="1">  1        2 0.37917021E+00 0.64663805E+03</pdfrwt>
<pdfrwt beam="2">  1       -2 0.65253169E-02 0.64663805E+03</pdfrwt>
<totfact> 0.51929153E+02</totfact>
</mgrwt>
</event>
<event>
 4    1  0.1714834E-005  0.5363940E+03  0.7818608E-02  0.1004693E+00
         -2   -1    0    0    0  501 -0.00000000000E+00  0.00000000000E+00  0.23730123719E+03  0.23730123721E+03  0.25500000000E-02 0. -1.
          2   -1    0    0  501    0  0.00000000000E+00 -0.00000000000E+00 -0.30311531648E+03  0.30311531650E+03  0.25500000000E-02 0.  1.
   -5000001    1    1    2    0    0  0.43738172009E+00  0.85580413627E+02  0.13322147389E+02  0.26457830242E+03  0.25000000000E+03 0.  0.
    5000001    1    1    2    0    0 -0.43738172009E+00 -0.85580413627E+02 -0.79136226679E+02  0.27583825129E+03  0.25000000000E+03 0.  0.
<mgrwt>
<rscale>  0 0.53639403E+03</rscale>
<asrwt>0</asrwt>
<pdfrwt beam="1">  1        2 0.46633126E-01 0.53639403E+03</pdfrwt>
<pdfrwt beam="2">  1       -2 0.36507882E-01 0.53639403E+03</pdfrwt>
<totfact> 0.77025640E+02</totfact>
</mgrwt>
</event>
<event>
 4    1  0.1714834E-005  0.7829288E+03  0.7818608E-02  0.9585061E-01
         -2   -1    0    0    0  501 -0.00000000000E+00  0.00000000000E+00  0.94161267665E+02  0.94161267699E+02  0.25500000000E-02 0. -1.
          2   -1    0    0  501    0  0.00000000000E+00 -0.00000000000E+00 -0.16274673532E+04  0.16274673532E+04  0.25500000000E-02 0.  1.
   -5000001    1    1    2    0    0  0.11262758120E+03  0.23938713222E+03 -0.44987146984E+03  0.57868429259E+03  0.25000000000E+03 0.  0.
    5000001    1    1    2    0    0 -0.11262758120E+03 -0.23938713222E+03 -0.10834346157E+04  0.11429443283E+04  0.25000000000E+03 0.  0.
<mgrwt>
<rscale>  0 0.78292883E+03</rscale>
<asrwt>0</asrwt>
<pdfrwt beam="1">  1        2 0.25037957E+00 0.78292883E+03</pdfrwt>
<pdfrwt beam="2">  1       -2 0.14486350E-01 0.78292883E+03</pdfrwt>
<totfact> 0.40518795E+02</totfact>
</mgrwt>
</event>
<event>
 4    1  0.1714834E-005  0.6403844E+03  0.7818608E-02  0.9824991E-01
          2   -1    0    0  501    0  0.00000000000E+00  0.00000000000E+00  0.26832325249E+04  0.26832325249E+04  0.25500000000E-02 0.  1.
         -2   -1    0    0    0  501 -0.00000000000E+00 -0.00000000000E+00 -0.38208775641E+02  0.38208775726E+02  0.25500000000E-02 0. -1.
   -5000001    1    1    2    0    0 -0.68316195635E+02  0.18637380880E+03  0.12166328847E+04  0.12578147222E+04  0.25000000000E+03 0.  0.
    5000001    1    1    2    0    0  0.68316195635E+02 -0.18637380880E+03  0.14283908645E+04  0.14636265784E+04  0.25000000000E+03 0.  0.
<mgrwt>
<rscale>  0 0.64038435E+03</rscale>
<asrwt>0</asrwt>
<pdfrwt beam="1">  1        2 0.41280499E+00 0.64038435E+03</pdfrwt>
<pdfrwt beam="2">  1       -2 0.58782734E-02 0.64038435E+03</pdfrwt>
<totfact> 0.45960765E+02</totfact>
</mgrwt>
</event>
<event>
 4    1  0.1714834E-005  0.1036276E+04  0.7818608E-02  0.9269629E-01
          2   -1    0    0  501    0  0.00000000000E+00  0.00000000000E+00  0.23068437726E+04  0.23068437726E+04  0.25500000000E-02 0.  1.
         -2   -1    0    0    0  501 -0.00000000000E+00 -0.00000000000E+00 -0.11637849043E+03  0.11637849046E+03  0.25500000000E-02 0. -1.
   -5000001    1    1    2    0    0 -0.42483166060E+03  0.15914823717E+03  0.10659424666E+04  0.11851343567E+04  0.25000000000E+03 0.  0.
    5000001    1    1    2    0    0  0.42483166060E+03 -0.15914823717E+03  0.11245228155E+04  0.12380879064E+04  0.25000000000E+03 0.  0.
<mgrwt>
<rscale>  0 0.10362760E+04</rscale>
<asrwt>0</asrwt>
<pdfrwt beam="1">  1        2 0.35489903E+00 0.10362760E+04</pdfrwt>
<pdfrwt beam="2">  1       -2 0.17904384E-01 0.10362760E+04</pdfrwt>
<totfact> 0.11696321E+02</totfact>
</mgrwt>
</event>
<event>
 4    1  0.1714834E-005  0.1119240E+04  0.7818608E-02  0.9186640E-01
         -2   -1    0    0    0  501 -0.00000000000E+00  0.00000000000E+00  0.95993140891E+02  0.95993140924E+02  0.25500000000E-02 0. -1.
          2   -1    0    0  501    0  0.00000000000E+00 -0.00000000000E+00 -0.32624655252E+04  0.32624655252E+04  0.25500000000E-02 0.  1.
   -5000001    1    1    2    0    0 -0.17811374604E+03  0.32810408935E+03 -0.58217719077E+03  0.73539586716E+03  0.25000000000E+03 0.  0.
    5000001    1    1    2    0    0  0.17811374604E+03 -0.32810408935E+03 -0.25842951935E+04  0.26230627989E+04  0.25000000000E+03 0.  0.
<mgrwt>
<rscale>  0 0.11192396E+04</rscale>
<asrwt>0</asrwt>
<pdfrwt beam="1">  1        2 0.50191769E+00 0.11192396E+04</pdfrwt>
<pdfrwt beam="2">  1       -2 0.14768178E-01 0.11192396E+04</pdfrwt>
<totfact> 0.43212880E+01</totfact>
</mgrwt>
</event>
<event>
 4    1  0.1714834E-005  0.6165356E+03  0.7818608E-02  0.9871682E-01
         -2   -1    0    0    0  501 -0.00000000000E+00  0.00000000000E+00  0.84669450067E+02  0.84669450106E+02  0.25500000000E-02 0. -1.
          2   -1    0    0  501    0  0.00000000000E+00 -0.00000000000E+00 -0.11223533482E+04  0.11223533482E+04  0.25500000000E-02 0.  1.
   -5000001    1    1    2    0    0  0.21673096575E+02 -0.15047660214E+03 -0.70881546651E+03  0.76683263916E+03  0.25000000000E+03 0.  0.
    5000001    1    1    2    0    0 -0.21673096575E+02  0.15047660214E+03 -0.32886843167E+03  0.44019015920E+03  0.25000000000E+03 0.  0.
<mgrwt>
<rscale>  0 0.61653561E+03</rscale>
<asrwt>0</asrwt>
<pdfrwt beam="1">  1        2 0.17266973E+00 0.61653561E+03</pdfrwt>
<pdfrwt beam="2">  1       -2 0.13026070E-01 0.61653561E+03</pdfrwt>
<totfact> 0.94675480E+02</totfact>
</mgrwt>
</event>
<event>
 4    1  0.1714834E-005  0.9920617E+03  0.7818608E-02  0.9317295E-01
         -2   -1    0    0    0  501 -0.00000000000E+00  0.00000000000E+00  0.15884753757E+03  0.15884753759E+03  0.25500000000E-02 0. -1.
          2   -1    0    0  501    0  0.00000000000E+00 -0.00000000000E+00 -0.15489480304E+04  0.15489480304E+04  0.25500000000E-02 0.  1.
   -5000001    1    1    2    0    0  0.37459275061E+03  0.10835364262E+01 -0.10529555424E+04  0.11452232433E+04  0.25000000000E+03 0.  0.
    5000001    1    1    2    0    0 -0.37459275061E+03 -0.10835364262E+01 -0.33714495050E+03  0.56257232469E+03  0.25000000000E+03 0.  0.
<mgrwt>
<rscale>  0 0.99206165E+03</rscale>
<asrwt>0</asrwt>
<pdfrwt beam="1">  1        2 0.23829969E+00 0.99206165E+03</pdfrwt>
<pdfrwt beam="2">  1       -2 0.24438084E-01 0.99206165E+03</pdfrwt>
<totfact> 0.17776828E+02</totfact>
</mgrwt>
</event>
<event>
 4    1  0.1714834E-005  0.1196456E+04  0.7818608E-02  0.9115965E-01
         -2   -1    0    0    0  501 -0.00000000000E+00  0.00000000000E+00  0.15064907392E+03  0.15064907394E+03  0.25500000000E-02 0. -1.
          2   -1    0    0  501    0  0.00000000000E+00 -0.00000000000E+00 -0.23755639242E+04  0.23755639242E+04  0.25500000000E-02 0.  1.
   -5000001    1    1    2    0    0 -0.13477882059E+03  0.36763079961E+03 -0.19082637763E+04  0.19639980588E+04  0.25000000000E+03 0.  0.
    5000001    1    1    2    0    0  0.13477882059E+03 -0.36763079961E+03 -0.31665107402E+03  0.56221493931E+03  0.25000000000E+03 0.  0.
<mgrwt>
<rscale>  0 0.11964556E+04</rscale>
<asrwt>0</asrwt>
<pdfrwt beam="1">  1        2 0.36547135E+00 0.11964556E+04</pdfrwt>
<pdfrwt beam="2">  1       -2 0.23176782E-01 0.11964556E+04</pdfrwt>
<totfact> 0.66979536E+01</totfact>
</mgrwt>
</event>
<event>
 4    1  0.1714834E-005  0.5893281E+03  0.7818608E-02  0.9927797E-01
         -2   -1    0    0    0  501 -0.00000000000E+00  0.00000000000E+00  0.87777254122E+02  0.87777254159E+02  0.25500000000E-02 0. -1.
          2   -1    0    0  501    0  0.00000000000E+00 -0.00000000000E+00 -0.98917330779E+03  0.98917330779E+03  0.25500000000E-02 0.  1.
   -5000001    1    1    2    0    0  0.49895225724E+02 -0.13788598180E+03 -0.35357203759E+03  0.45718187114E+03  0.25000000000E+03 0.  0.
    5000001    1    1    2    0    0 -0.49895225724E+02  0.13788598180E+03 -0.54782401608E+03  0.61976869082E+03  0.25000000000E+03 0.  0.
<mgrwt>
<rscale>  0 0.58932815E+03</rscale>
<asrwt>0</asrwt>
<pdfrwt beam="1">  1        2 0.15218050E+00 0.58932815E+03</pdfrwt>
<pdfrwt beam="2">  1       -2 0.13504194E-01 0.58932815E+03</pdfrwt>
<totfact> 0.10786787E+03</totfact>
</mgrwt>
</event>
<event>
 4    1  0.1714834E-005  0.7721361E+03  0.7818608E-02  0.9601248E-01
          2   -1    0    0  501    0  0.00000000000E+00  0.00000000000E+00  0.15282602556E+04  0.15282602556E+04  0.25500000000E-02 0.  1.
         -2   -1    0    0    0  501 -0.00000000000E+00 -0.00000000000E+00 -0.97528246452E+02  0.97528246485E+02  0.25500000000E-02 0. -1.
   -5000001    1    1    2    0    0  0.27444188791E+03 -0.10444944364E+03  0.75306144200E+03  0.84606712000E+03  0.25000000000E+03 0.  0.
    5000001    1    1    2    0    0 -0.27444188791E+03  0.10444944364E+03  0.67767056717E+03  0.77972138211E+03  0.25000000000E+03 0.  0.
<mgrwt>
<rscale>  0 0.77213611E+03</rscale>
<asrwt>0</asrwt>
<pdfrwt beam="1">  1        2 0.23511698E+00 0.77213611E+03</pdfrwt>
<pdfrwt beam="2">  1       -2 0.15004345E-01 0.77213611E+03</pdfrwt>
<totfact> 0.43351992E+02</totfact>
</mgrwt>
</event>
<event>
 4    1  0.1714834E-005  0.1160733E+04  0.7818608E-02  0.9147938E-01
         -2   -1    0    0    0  501 -0.00000000000E+00  0.00000000000E+00  0.15277156691E+04  0.15277156691E+04  0.25500000000E-02 0. -1.
          2   -1    0    0  501    0  0.00000000000E+00 -0.00000000000E+00 -0.22047646303E+03  0.22047646304E+03  0.25500000000E-02 0.  1.
   -5000001    1    1    2    0    0  0.17464633099E+03 -0.36323082974E+03  0.14983218533E+03  0.49738080015E+03  0.25000000000E+03 0.  0.
    5000001    1    1    2    0    0 -0.17464633099E+03  0.36323082974E+03  0.11574070208E+04  0.12508113320E+04  0.25000000000E+03 0.  0.
<mgrwt>
<rscale>  0 0.11607331E+04</rscale>
<asrwt>0</asrwt>
<pdfrwt beam="1">  1        2 0.33919455E-01 0.11607331E+04</pdfrwt>
<pdfrwt beam="2">  1       -2 0.23503318E+00 0.11607331E+04</pdfrwt>
<totfact> 0.12217755E+01</totfact>
</mgrwt>
</event>
<event>
 4    1  0.1714834E-005  0.7061196E+03  0.7818608E-02  0.9706824E-01
         -2   -1    0    0    0  501 -0.00000000000E+00  0.00000000000E+00  0.48471106110E+03  0.48471106110E+03  0.25500000000E-02 0. -1.
          2   -1    0    0  501    0  0.00000000000E+00 -0.00000000000E+00 -0.25716605236E+03  0.25716605238E+03  0.25500000000E-02 0.  1.
   -5000001    1    1    2    0    0 -0.16962006534E+03 -0.14109616936E+03 -0.81747142571E+01  0.33353548766E+03  0.25000000000E+03 0.  0.
    5000001    1    1    2    0    0  0.16962006534E+03  0.14109616936E+03  0.23571972299E+03  0.40834162582E+03  0.25000000000E+03 0.  0.
<mgrwt>
<rscale>  0 0.70611962E+03</rscale>
<asrwt>0</asrwt>
<pdfrwt beam="1">  1        2 0.39564008E-01 0.70611962E+03</pdfrwt>
<pdfrwt beam="2">  1       -2 0.74570932E-01 0.70611962E+03</pdfrwt>
<totfact> 0.21293972E+02</totfact>
</mgrwt>
</event>
<event>
 4    1  0.1714834E-005  0.9259304E+03  0.7818608E-02  0.9393735E-01
         -2   -1    0    0    0  501 -0.00000000000E+00  0.00000000000E+00  0.70634205881E+03  0.70634205881E+03  0.25500000000E-02 0. -1.
          2   -1    0    0  501    0  0.00000000000E+00 -0.00000000000E+00 -0.30344615954E+03  0.30344615955E+03  0.25500000000E-02 0.  1.
   -5000001    1    1    2    0    0  0.24503907021E+03 -0.21008158360E+03 -0.36631290553E+02  0.40990275572E+03  0.25000000000E+03 0.  0.
    5000001    1    1    2    0    0 -0.24503907021E+03  0.21008158360E+03  0.43952718982E+03  0.59988546264E+03  0.25000000000E+03 0.  0.
<mgrwt>
<rscale>  0 0.92593042E+03</rscale>
<asrwt>0</asrwt>
<pdfrwt beam="1">  1        2 0.46684025E-01 0.92593042E+03</pdfrwt>
<pdfrwt beam="2">  1       -2 0.10866801E+00 0.92593042E+03</pdfrwt>
<totfact> 0.73497402E+01</totfact>
</mgrwt>
</event>
<event>
 4    1  0.1714834E-005  0.9107838E+03  0.7818608E-02  0.9412201E-01
         -2   -1    0    0    0  501 -0.00000000000E+00  0.00000000000E+00  0.24467986759E+03  0.24467986760E+03  0.25500000000E-02 0. -1.
          2   -1    0    0  501    0  0.00000000000E+00 -0.00000000000E+00 -0.84756377288E+03  0.84756377288E+03  0.25500000000E-02 0.  1.
   -5000001    1    1    2    0    0  0.27381579346E+03  0.11529278824E+03 -0.58678493536E+03  0.70362211174E+03  0.25000000000E+03 0.  0.
    5000001    1    1    2    0    0 -0.27381579346E+03 -0.11529278824E+03 -0.16098969925E+02  0.38862152874E+03  0.25000000000E+03 0.  0.
<mgrwt>
<rscale>  0 0.91078382E+03</rscale>
<asrwt>0</asrwt>
<pdfrwt beam="1">  1        2 0.13039443E+00 0.91078382E+03</pdfrwt>
<pdfrwt beam="2">  1       -2 0.37643057E-01 0.91078382E+03</pdfrwt>
<totfact> 0.21246125E+02</totfact>
</mgrwt>
</event>
<event>
 4    1  0.1714834E-005  0.7297379E+03  0.7818608E-02  0.9667686E-01
          2   -1    0    0  501    0  0.00000000000E+00  0.00000000000E+00  0.32732189600E+03  0.32732189601E+03  0.25500000000E-02 0.  1.
         -2   -1    0    0    0  501 -0.00000000000E+00 -0.00000000000E+00 -0.40672306817E+03  0.40672306818E+03  0.25500000000E-02 0. -1.
   -5000001    1    1    2    0    0 -0.14170537630E+03  0.19156574087E+03 -0.15808770145E+03  0.37982834030E+03  0.25000000000E+03 0.  0.
    5000001    1    1    2    0    0  0.14170537630E+03 -0.19156574087E+03  0.78686529269E+02  0.35421662389E+03  0.25000000000E+03 0.  0.
<mgrwt>
<rscale>  0 0.72973794E+03</rscale>
<asrwt>0</asrwt>
<pdfrwt beam="1">  1        2 0.50357215E-01 0.72973794E+03</pdfrwt>
<pdfrwt beam="2">  1       -2 0.62572780E-01 0.72973794E+03</pdfrwt>
<totfact> 0.23815486E+02</totfact>
</mgrwt>
</event>
<event>
 4    1  0.1714834E-005  0.7214221E+03  0.7818608E-02  0.9681283E-01
          2   -1    0    0  501    0  0.00000000000E+00  0.00000000000E+00  0.98660049728E+03  0.98660049728E+03  0.25500000000E-02 0.  1.
         -2   -1    0    0    0  501 -0.00000000000E+00 -0.00000000000E+00 -0.13187958104E+03  0.13187958106E+03  0.25500000000E-02 0. -1.
   -5000001    1    1    2    0    0  0.13507013005E+03 -0.14961620704E+03  0.17268444622E+03  0.36462153997E+03  0.25000000000E+03 0.  0.
    5000001    1    1    2    0    0 -0.13507013005E+03  0.14961620704E+03  0.68203647003E+03  0.75385853838E+03  0.25000000000E+03 0.  0.
<mgrwt>
<rscale>  0 0.72142210E+03</rscale>
<asrwt>0</asrwt>
<pdfrwt beam="1">  1        2 0.15178469E+00 0.72142210E+03</pdfrwt>
<pdfrwt beam="2">  1       -2 0.20289166E-01 0.72142210E+03</pdfrwt>
<totfact> 0.53815199E+02</totfact>
</mgrwt>
</event>
<event>
 4    1  0.1714834E-005  0.6033429E+03  0.7818608E-02  0.9898495E-01
          2   -1    0    0  501    0  0.00000000000E+00  0.00000000000E+00  0.65013387261E+02  0.65013387311E+02  0.25500000000E-02 0.  1.
         -2   -1    0    0    0  501 -0.00000000000E+00 -0.00000000000E+00 -0.13997987260E+04  0.13997987260E+04  0.25500000000E-02 0. -1.
   -5000001    1    1    2    0    0 -0.89091187757E+02  0.23566066670E+02 -0.32393402272E+03  0.41943515626E+03  0.25000000000E+03 0.  0.
    5000001    1    1    2    0    0  0.89091187757E+02 -0.23566066670E+02 -0.10108513160E+04  0.10453769571E+04  0.25000000000E+03 0.  0.
<mgrwt>
<rscale>  0 0.60334288E+03</rscale>
<asrwt>0</asrwt>
<pdfrwt beam="1">  1        2 0.10002061E-01 0.60334288E+03</pdfrwt>
<pdfrwt beam="2">  1       -2 0.21535363E+00 0.60334288E+03</pdfrwt>
<totfact> 0.72357257E+01</totfact>
</mgrwt>
</event>
<event>
 4    1  0.1714834E-005  0.7291855E+03  0.7818608E-02  0.9668583E-01
         -2   -1    0    0    0  501 -0.00000000000E+00  0.00000000000E+00  0.14165165158E+03  0.14165165161E+03  0.25500000000E-02 0. -1.
          2   -1    0    0  501    0  0.00000000000E+00 -0.00000000000E+00 -0.93841376711E+03  0.93841376711E+03  0.25500000000E-02 0.  1.
   -5000001    1    1    2    0    0 -0.10601769841E+03 -0.12880866564E+03 -0.92678771243E+02  0.31451673939E+03  0.25000000000E+03 0.  0.
    5000001    1    1    2    0    0  0.10601769841E+03  0.12880866564E+03 -0.70408334428E+03  0.76554867933E+03  0.25000000000E+03 0.  0.
<mgrwt>
<rscale>  0 0.72918546E+03</rscale>
<asrwt>0</asrwt>
<pdfrwt beam="1">  1        2 0.14437135E+00 0.72918546E+03</pdfrwt>
<pdfrwt beam="2">  1       -2 0.21792562E-01 0.72918546E+03</pdfrwt>
<totfact> 0.50980922E+02</totfact>
</mgrwt>
</event>
<event>
 4    1  0.1714834E-005  0.7882174E+03  0.7818608E-02  0.9577230E-01
         -2   -1    0    0    0  501 -0.00000000000E+00  0.00000000000E+00  0.65330652758E+02  0.65330652808E+02  0.25500000000E-02 0. -1.
          2   -1    0    0  501    0  0.00000000000E+00 -0.00000000000E+00 -0.23774699758E+04  0.23774699758E+04  0.25500000000E-02 0.  1.
   -5000001    1    1    2    0    0  0.13593207790E+03  0.25267896494E+03 -0.14735994403E+04  0.15219459582E+04  0.25000000000E+03 0.  0.
    5000001    1    1    2    0    0 -0.13593207790E+03 -0.25267896494E+03 -0.83853988270E+03  0.92085467040E+03  0.25000000000E+03 0.  0.
<mgrwt>
<rscale>  0 0.78821740E+03</rscale>
<asrwt>0</asrwt>
<pdfrwt beam="1">  1        2 0.36576454E+00 0.78821740E+03</pdfrwt>
<pdfrwt beam="2">  1       -2 0.10050872E-01 0.78821740E+03</pdfrwt>
<totfact> 0.28733442E+02</totfact>
</mgrwt>
</event>
<event>
 4    1  0.1714834E-005  0.8628784E+03  0.7818608E-02  0.9473213E-01
          2   -1    0    0  501    0  0.00000000000E+00  0.00000000000E+00  0.32939216205E+04  0.32939216205E+04  0.25500000000E-02 0.  1.
         -2   -1    0    0    0  501 -0.00000000000E+00 -0.00000000000E+00 -0.56510077152E+02  0.56510077209E+02  0.25500000000E-02 0. -1.
   -5000001    1    1    2    0    0  0.20292097533E+03 -0.16222578136E+03  0.25387510599E+04  0.25642252379E+04  0.25000000000E+03 0.  0.
    5000001    1    1    2    0    0 -0.20292097533E+03  0.16222578136E+03  0.69866048342E+03  0.78620645982E+03  0.25000000000E+03 0.  0.
<mgrwt>
<rscale>  0 0.86287836E+03</rscale>
<asrwt>0</asrwt>
<pdfrwt beam="1">  1        2 0.50675735E+00 0.86287836E+03</pdfrwt>
<pdfrwt beam="2">  1       -2 0.86938550E-02 0.86287836E+03</pdfrwt>
<totfact> 0.10183358E+02</totfact>
</mgrwt>
</event>
<event>
 4    1  0.1714834E-005  0.5949240E+03  0.7818608E-02  0.9915993E-01
          2   -1    0    0  501    0  0.00000000000E+00  0.00000000000E+00  0.51945420765E+03  0.51945420765E+03  0.25500000000E-02 0.  1.
         -2   -1    0    0    0  501 -0.00000000000E+00 -0.00000000000E+00 -0.17033965959E+03  0.17033965960E+03  0.25500000000E-02 0. -1.
   -5000001    1    1    2    0    0  0.36448078461E+02  0.13816563700E+03  0.26105562866E+03  0.38867498881E+03  0.25000000000E+03 0.  0.
    5000001    1    1    2    0    0 -0.36448078461E+02 -0.13816563700E+03  0.88058919397E+02  0.30111887845E+03  0.25000000000E+03 0.  0.
<mgrwt>
<rscale>  0 0.59492404E+03</rscale>
<asrwt>0</asrwt>
<pdfrwt beam="1">  1        2 0.79916032E-01 0.59492404E+03</pdfrwt>
<pdfrwt beam="2">  1       -2 0.26206102E-01 0.59492404E+03</pdfrwt>
<totfact> 0.77857692E+02</totfact>
</mgrwt>
</event>
<event>
 4    1  0.1714834E-005  0.7141817E+03  0.7818608E-02  0.9693282E-01
         -2   -1    0    0    0  501 -0.00000000000E+00  0.00000000000E+00  0.90456641514E+03  0.90456641515E+03  0.25500000000E-02 0.  1.
          2   -1    0    0  501    0  0.00000000000E+00 -0.00000000000E+00 -0.14096683149E+03  0.14096683151E+03  0.25500000000E-02 0. -1.
   -5000001    1    1    2    0    0 -0.19742975886E+03  0.15535238453E+03  0.31797066811E+03  0.47614936610E+03  0.25000000000E+03 0.  0.
    5000001    1    1    2    0    0  0.19742975886E+03 -0.15535238453E+03  0.44562891555E+03  0.56938388055E+03  0.25000000000E+03 0.  0.
<mgrwt>
<rscale>  0 0.71418166E+03</rscale>
<asrwt>0</asrwt>
<pdfrwt beam="1">  1        2 0.21687205E-01 0.71418166E+03</pdfrwt>
<pdfrwt beam="2">  1       -2 0.13916406E+00 0.71418166E+03</pdfrwt>
<totfact> 0.95362234E+01</totfact>
</mgrwt>
</event>
<event>
 4    1  0.1714834E-005  0.8615585E+03  0.7818608E-02  0.9474953E-01
         -2   -1    0    0    0  501 -0.00000000000E+00  0.00000000000E+00  0.67289063709E+02  0.67289063758E+02  0.25500000000E-02 0. -1.
          2   -1    0    0  501    0  0.00000000000E+00 -0.00000000000E+00 -0.27578146562E+04  0.27578146562E+04  0.25500000000E-02 0.  1.
   -5000001    1    1    2    0    0 -0.18685962252E+03  0.19268922570E+03 -0.60456407399E+03  0.70713745183E+03  0.25000000000E+03 0.  0.
    5000001    1    1    2    0    0  0.18685962252E+03 -0.19268922570E+03 -0.20859615185E+04  0.21179662681E+04  0.25000000000E+03 0.  0.
<mgrwt>
<rscale>  0 0.86155851E+03</rscale>
<asrwt>0</asrwt>
<pdfrwt beam="1">  1        2 0.42427909E+00 0.86155851E+03</pdfrwt>
<pdfrwt beam="2">  1       -2 0.10352166E-01 0.86155851E+03</pdfrwt>
<totfact> 0.16452333E+02</totfact>
</mgrwt>
</event>
<event>
 4    1  0.1714834E-005  0.7704428E+03  0.7818608E-02  0.9603814E-01
         -2   -1    0    0    0  501 -0.00000000000E+00  0.00000000000E+00  0.61403326754E+02  0.61403326807E+02  0.25500000000E-02 0. -1.
          2   -1    0    0  501    0  0.00000000000E+00 -0.00000000000E+00 -0.24167344069E+04  0.24167344069E+04  0.25500000000E-02 0.  1.
   -5000001    1    1    2    0    0 -0.23838547246E+03  0.17040013511E+03 -0.11595576954E+04  0.12218583750E+04  0.25000000000E+03 0.  0.
    5000001    1    1    2    0    0  0.23838547246E+03 -0.17040013511E+03 -0.11957733847E+04  0.12562793587E+04  0.25000000000E+03 0.  0.
<mgrwt>
<rscale>  0 0.77044281E+03</rscale>
<asrwt>0</asrwt>
<pdfrwt beam="1">  1        2 0.37180522E+00 0.77044281E+03</pdfrwt>
<pdfrwt beam="2">  1       -2 0.94466675E-02 0.77044281E+03</pdfrwt>
<totfact> 0.30255445E+02</totfact>
</mgrwt>
</event>
<event>
 4    1  0.1714834E-005  0.7650602E+03  0.7818608E-02  0.9612015E-01
          2   -1    0    0  501    0  0.00000000000E+00  0.00000000000E+00  0.39622585850E+04  0.39622585851E+04  0.25500000000E-02 0.  1.
         -2   -1    0    0    0  501 -0.00000000000E+00 -0.00000000000E+00 -0.36930776836E+02  0.36930776924E+02  0.25500000000E-02 0. -1.
   -5000001    1    1    2    0    0 -0.21919007321E+03 -0.18065483278E+03  0.16693375959E+04  0.17116858549E+04  0.25000000000E+03 0.  0.
    5000001    1    1    2    0    0  0.21919007321E+03  0.18065483278E+03  0.22559902123E+04  0.22875035071E+04  0.25000000000E+03 0.  0.
<mgrwt>
<rscale>  0 0.76506023E+03</rscale>
<asrwt>0</asrwt>
<pdfrwt beam="1">  1        2 0.60957824E+00 0.76506023E+03</pdfrwt>
<pdfrwt beam="2">  1       -2 0.56816580E-02 0.76506023E+03</pdfrwt>
<totfact> 0.68078574E+01</totfact>
</mgrwt>
</event>
<event>
 4    1  0.1714834E-005  0.6439131E+03  0.7818608E-02  0.9818268E-01
          2   -1    0    0  501    0  0.00000000000E+00  0.00000000000E+00  0.19455615458E+04  0.19455615458E+04  0.25500000000E-02 0.  1.
         -2   -1    0    0    0  501 -0.00000000000E+00 -0.00000000000E+00 -0.53278194843E+02  0.53278194904E+02  0.25500000000E-02 0. -1.
   -5000001    1    1    2    0    0 -0.49671693886E+02 -0.18681874644E+03  0.75510081788E+03  0.81856323296E+03  0.25000000000E+03 0.  0.
    5000001    1    1    2    0    0  0.49671693886E+02  0.18681874644E+03  0.11371825331E+04  0.11802765078E+04  0.25000000000E+03 0.  0.
<mgrwt>
<rscale>  0 0.64391306E+03</rscale>
<asrwt>0</asrwt>
<pdfrwt beam="1">  1        2 0.29931718E+00 0.64391306E+03</pdfrwt>
<pdfrwt beam="2">  1       -2 0.81966449E-02 0.64391306E+03</pdfrwt>
<totfact> 0.69775798E+02</totfact>
</mgrwt>
</event>
<event>
 4    1  0.1714834E-005  0.9766146E+03  0.7818608E-02  0.9334572E-01
          2   -1    0    0  501    0  0.00000000000E+00  0.00000000000E+00  0.81516606810E+03  0.81516606811E+03  0.25500000000E-02 0.  1.
         -2   -1    0    0    0  501 -0.00000000000E+00 -0.00000000000E+00 -0.29250972294E+03  0.29250972295E+03  0.25500000000E-02 0. -1.
   -5000001    1    1    2    0    0 -0.16717292872E+03  0.32627190639E+03  0.49250423869E+03  0.66291822280E+03  0.25000000000E+03 0.  0.
    5000001    1    1    2    0    0  0.16717292872E+03 -0.32627190639E+03  0.30152106477E+02  0.44475756826E+03  0.25000000000E+03 0.  0.
<mgrwt>
<rscale>  0 0.97661456E+03</rscale>
<asrwt>0</asrwt>
<pdfrwt beam="1">  1        2 0.12541017E+00 0.97661456E+03</pdfrwt>
<pdfrwt beam="2">  1       -2 0.45001495E-01 0.97661456E+03</pdfrwt>
<totfact> 0.15717883E+02</totfact>
</mgrwt>
</event>
<event>
 4    1  0.1714834E-005  0.1088709E+04  0.7818608E-02  0.9216268E-01
         -2   -1    0    0    0  501 -0.00000000000E+00  0.00000000000E+00  0.34079841367E+03  0.34079841368E+03  0.25500000000E-02 0.  1.
          2   -1    0    0  501    0  0.00000000000E+00 -0.00000000000E+00 -0.86949224256E+03  0.86949224256E+03  0.25500000000E-02 0. -1.
   -5000001    1    1    2    0    0  0.10570873946E+03 -0.40791960452E+03 -0.69264099433E+00  0.48997267384E+03  0.25000000000E+03 0.  0.
    5000001    1    1    2    0    0 -0.10570873946E+03  0.40791960452E+03 -0.52800118790E+03  0.72031798240E+03  0.25000000000E+03 0.  0.
<mgrwt>
<rscale>  0 0.10887086E+04</rscale>
<asrwt>0</asrwt>
<pdfrwt beam="1">  1        2 0.13376804E+00 0.10887086E+04</pdfrwt>
<pdfrwt beam="2">  1       -2 0.52430526E-01 0.10887086E+04</pdfrwt>
<totfact> 0.10493164E+02</totfact>
</mgrwt>
</event>
<event>
 4    1  0.1714834E-005  0.7626707E+03  0.7818608E-02  0.9615679E-01
         -2   -1    0    0    0  501 -0.00000000000E+00  0.00000000000E+00  0.12463896906E+03  0.12463896909E+03  0.25500000000E-02 0. -1.
          2   -1    0    0  501    0  0.00000000000E+00 -0.00000000000E+00 -0.11667027859E+04  0.11667027859E+04  0.25500000000E-02 0.  1.
   -5000001    1    1    2    0    0 -0.17078372422E+03 -0.21867763661E+03 -0.65141414869E+03  0.75088440011E+03  0.25000000000E+03 0.  0.
    5000001    1    1    2    0    0  0.17078372422E+03  0.21867763661E+03 -0.39064966813E+03  0.54045735486E+03  0.25000000000E+03 0.  0.
<mgrwt>
<rscale>  0 0.76267066E+03</rscale>
<asrwt>0</asrwt>
<pdfrwt beam="1">  1        2 0.17949273E+00 0.76267066E+03</pdfrwt>
<pdfrwt beam="2">  1       -2 0.19175227E-01 0.76267066E+03</pdfrwt>
<totfact> 0.45885527E+02</totfact>
</mgrwt>
</event>
<event>
 4    1  0.1714834E-005  0.5877047E+03  0.7818608E-02  0.9931248E-01
         -2   -1    0    0    0  501 -0.00000000000E+00  0.00000000000E+00  0.35149432371E+02  0.35149432463E+02  0.25500000000E-02 0. -1.
          2   -1    0    0  501    0  0.00000000000E+00 -0.00000000000E+00 -0.24566315931E+04  0.24566315931E+04  0.25500000000E-02 0.  1.
   -5000001    1    1    2    0    0  0.50470180590E+02 -0.13868098260E+03 -0.10178603305E+04  0.10584513718E+04  0.25000000000E+03 0.  0.
    5000001    1    1    2    0    0 -0.50470180590E+02  0.13868098260E+03 -0.14036218302E+04  0.14333296538E+04  0.25000000000E+03 0.  0.
<mgrwt>
<rscale>  0 0.58770471E+03</rscale>
<asrwt>0</asrwt>
<pdfrwt beam="1">  1        2 0.37794319E+00 0.58770471E+03</pdfrwt>
<pdfrwt beam="2">  1       -2 0.54076069E-02 0.58770471E+03</pdfrwt>
<totfact> 0.70784825E+02</totfact>
</mgrwt>
</event>
<event>
 4    1  0.1714834E-005  0.6194192E+03  0.7818608E-02  0.9865917E-01
          2   -1    0    0  501    0  0.00000000000E+00  0.00000000000E+00  0.81684604192E+03  0.81684604192E+03  0.25500000000E-02 0.  1.
         -2   -1    0    0    0  501 -0.00000000000E+00 -0.00000000000E+00 -0.11742730597E+03  0.11742730600E+03  0.25500000000E-02 0. -1.
   -5000001    1    1    2    0    0 -0.17658574334E+03 -0.21236954234E+02  0.41346087763E+03  0.51486253535E+03  0.25000000000E+03 0.  0.
    5000001    1    1    2    0    0  0.17658574334E+03  0.21236954234E+02  0.28595785832E+03  0.41941081258E+03  0.25000000000E+03 0.  0.
<mgrwt>
<rscale>  0 0.61941918E+03</rscale>
<asrwt>0</asrwt>
<pdfrwt beam="1">  1        2 0.12566862E+00 0.61941918E+03</pdfrwt>
<pdfrwt beam="2">  1       -2 0.18065739E-01 0.61941918E+03</pdfrwt>
<totfact> 0.85853796E+02</totfact>
</mgrwt>
</event>
<event>
 4    1  0.1714834E-005  0.6389737E+03  0.7818608E-02  0.9827692E-01
         -2   -1    0    0    0  501 -0.00000000000E+00  0.00000000000E+00  0.45498427864E+02  0.45498427935E+02  0.25500000000E-02 0. -1.
          2   -1    0    0  501    0  0.00000000000E+00 -0.00000000000E+00 -0.22434147404E+04  0.22434147404E+04  0.25500000000E-02 0.  1.
   -5000001    1    1    2    0    0 -0.18744820637E+02 -0.18706780806E+03 -0.13318298902E+04  0.13680703891E+04  0.25000000000E+03 0.  0.
    5000001    1    1    2    0    0  0.18744820637E+02  0.18706780806E+03 -0.86608642235E+03  0.92084277925E+03  0.25000000000E+03 0.  0.
<mgrwt>
<rscale>  0 0.63897369E+03</rscale>
<asrwt>0</asrwt>
<pdfrwt beam="1">  1        2 0.34514064E+00 0.63897369E+03</pdfrwt>
<pdfrwt beam="2">  1       -2 0.69997599E-02 0.63897369E+03</pdfrwt>
<totfact> 0.61725257E+02</totfact>
</mgrwt>
</event>
<event>
 4    1  0.1714834E-005  0.6982563E+03  0.7818608E-02  0.9720219E-01
         -2   -1    0    0    0  501 -0.00000000000E+00  0.00000000000E+00  0.29215144648E+03  0.29215144649E+03  0.25500000000E-02 0. -1.
          2   -1    0    0  501    0  0.00000000000E+00 -0.00000000000E+00 -0.41721668724E+03  0.41721668725E+03  0.25500000000E-02 0.  1.
   -5000001    1    1    2    0    0 -0.17045923849E+03  0.17408869112E+03 -0.67834319411E+02  0.35561878361E+03  0.25000000000E+03 0.  0.
    5000001    1    1    2    0    0  0.17045923849E+03 -0.17408869112E+03 -0.57230921349E+02  0.35374935014E+03  0.25000000000E+03 0.  0.
<mgrwt>
<rscale>  0 0.69825628E+03</rscale>
<asrwt>0</asrwt>
<pdfrwt beam="1">  1        2 0.64187183E-01 0.69825628E+03</pdfrwt>
<pdfrwt beam="2">  1       -2 0.44946376E-01 0.69825628E+03</pdfrwt>
<totfact> 0.35898758E+02</totfact>
</mgrwt>
</event>
<event>
 4    1  0.1714834E-005  0.8844898E+03  0.7818608E-02  0.9445180E-01
         -2   -1    0    0    0  501 -0.00000000000E+00  0.00000000000E+00  0.18644963969E+03  0.18644963971E+03  0.25500000000E-02 0. -1.
          2   -1    0    0  501    0  0.00000000000E+00 -0.00000000000E+00 -0.10489725368E+04  0.10489725368E+04  0.25500000000E-02 0.  1.
   -5000001    1    1    2    0    0  0.17980119081E+03  0.29658476490E+03 -0.58922263064E+03  0.72799333750E+03  0.25000000000E+03 0.  0.
    5000001    1    1    2    0    0 -0.17980119081E+03 -0.29658476490E+03 -0.27330026644E+03  0.50742883898E+03  0.25000000000E+03 0.  0.
<mgrwt>
<rscale>  0 0.88448980E+03</rscale>
<asrwt>0</asrwt>
<pdfrwt beam="1">  1        2 0.16138039E+00 0.88448980E+03</pdfrwt>
<pdfrwt beam="2">  1       -2 0.28684561E-01 0.88448980E+03</pdfrwt>
<totfact> 0.26174164E+02</totfact>
</mgrwt>
</event>
<event>
 4    1  0.1714834E-005  0.6536916E+03  0.7818608E-02  0.9799877E-01
          2   -1    0    0  501    0  0.00000000000E+00  0.00000000000E+00  0.26765596350E+04  0.26765596350E+04  0.25500000000E-02 0.  1.
         -2   -1    0    0    0  501 -0.00000000000E+00 -0.00000000000E+00 -0.39912496924E+02  0.39912497006E+02  0.25500000000E-02 0. -1.
   -5000001    1    1    2    0    0 -0.10306751309E+03 -0.17459486313E+03  0.15542020726E+04  0.15871831529E+04  0.25000000000E+03 0.  0.
    5000001    1    1    2    0    0  0.10306751309E+03  0.17459486313E+03  0.10824450655E+04  0.11292889791E+04  0.25000000000E+03 0.  0.
<mgrwt>
<rscale>  0 0.65369160E+03</rscale>
<asrwt>0</asrwt>
<pdfrwt beam="1">  1        2 0.41177827E+00 0.65369160E+03</pdfrwt>
<pdfrwt beam="2">  1       -2 0.61403862E-02 0.65369160E+03</pdfrwt>
<totfact> 0.43247168E+02</totfact>
</mgrwt>
</event>
<event>
 4    1  0.1714834E-005  0.9123724E+03  0.7818608E-02  0.9410246E-01
          2   -1    0    0  501    0  0.00000000000E+00  0.00000000000E+00  0.11414568324E+04  0.11414568324E+04  0.25500000000E-02 0.  1.
         -2   -1    0    0    0  501 -0.00000000000E+00 -0.00000000000E+00 -0.18231600225E+03  0.18231600227E+03  0.25500000000E-02 0. -1.
   -5000001    1    1    2    0    0  0.26948167262E+03 -0.22978347055E+03  0.27343337249E+03  0.51252963272E+03  0.25000000000E+03 0.  0.
    5000001    1    1    2    0    0 -0.26948167262E+03  0.22978347055E+03  0.68570745765E+03  0.81124320194E+03  0.25000000000E+03 0.  0.
<mgrwt>
<rscale>  0 0.91237239E+03</rscale>
<asrwt>0</asrwt>
<pdfrwt beam="1">  1        2 0.17560874E+00 0.91237239E+03</pdfrwt>
<pdfrwt beam="2">  1       -2 0.28048616E-01 0.91237239E+03</pdfrwt>
<totfact> 0.23888824E+02</totfact>
</mgrwt>
</event>
<event>
 4    1  0.1714834E-005  0.7800315E+03  0.7818608E-02  0.9589379E-01
          2   -1    0    0  501    0  0.00000000000E+00  0.00000000000E+00  0.15864681819E+04  0.15864681819E+04  0.25500000000E-02 0.  1.
         -2   -1    0    0    0  501 -0.00000000000E+00 -0.00000000000E+00 -0.95881081242E+02  0.95881081276E+02  0.25500000000E-02 0. -1.
   -5000001    1    1    2    0    0  0.88623261120E+02 -0.10625547262E+03  0.13178257586E+04  0.13484468984E+04  0.25000000000E+03 0.  0.
    5000001    1    1    2    0    0 -0.88623261120E+02  0.10625547262E+03  0.17276134207E+03  0.33390236475E+03  0.25000000000E+03 0.  0.
<mgrwt>
<rscale>  0 0.78003150E+03</rscale>
<asrwt>0</asrwt>
<pdfrwt beam="1">  1        2 0.24407204E+00 0.78003150E+03</pdfrwt>
<pdfrwt beam="2">  1       -2 0.14750935E-01 0.78003150E+03</pdfrwt>
<totfact> 0.41407010E+02</totfact>
</mgrwt>
</event>
<event>
 4    1  0.1714834E-005  0.5740848E+03  0.7818608E-02  0.9960680E-01
         -2   -1    0    0    0  501 -0.00000000000E+00  0.00000000000E+00  0.27398731226E+03  0.27398731228E+03  0.25500000000E-02 0. -1.
          2   -1    0    0  501    0  0.00000000000E+00 -0.00000000000E+00 -0.30071950755E+03  0.30071950756E+03  0.25500000000E-02 0.  1.
   -5000001    1    1    2    0    0 -0.10845784274E+03  0.86489204888E+02 -0.38885746129E+02  0.28854044338E+03  0.25000000000E+03 0.  0.
    5000001    1    1    2    0    0  0.10845784274E+03 -0.86489204888E+02  0.12153550845E+02  0.28616637645E+03  0.25000000000E+03 0.  0.
<mgrwt>
<rscale>  0 0.57408477E+03</rscale>
<asrwt>0</asrwt>
<pdfrwt beam="1">  1        2 0.46264540E-01 0.57408477E+03</pdfrwt>
<pdfrwt beam="2">  1       -2 0.42151894E-01 0.57408477E+03</pdfrwt>
<totfact> 0.58830827E+02</totfact>
</mgrwt>
</event>
<event>
 4    1  0.1714834E-005  0.8079179E+03  0.7818608E-02  0.9548626E-01
          2   -1    0    0  501    0  0.00000000000E+00  0.00000000000E+00  0.45132114166E+03  0.45132114167E+03  0.25500000000E-02 0.  1.
         -2   -1    0    0    0  501 -0.00000000000E+00 -0.00000000000E+00 -0.36156702008E+03  0.36156702009E+03  0.25500000000E-02 0. -1.
   -5000001    1    1    2    0    0 -0.20429518642E+03 -0.19758115622E+03  0.18684079577E+03  0.42211884517E+03  0.25000000000E+03 0.  0.
    5000001    1    1    2    0    0  0.20429518642E+03  0.19758115622E+03 -0.97086674189E+02  0.39076931659E+03  0.25000000000E+03 0.  0.
<mgrwt>
<rscale>  0 0.80791792E+03</rscale>
<asrwt>0</asrwt>
<pdfrwt beam="1">  1        2 0.69434021E-01 0.80791792E+03</pdfrwt>
<pdfrwt beam="2">  1       -2 0.55625696E-01 0.80791792E+03</pdfrwt>
<totfact> 0.21199536E+02</totfact>
</mgrwt>
</event>
<event>
 4    1  0.1714834E-005  0.6818118E+03  0.7818608E-02  0.9748852E-01
         -2   -1    0    0    0  501 -0.00000000000E+00  0.00000000000E+00  0.40594390629E+03  0.40594390629E+03  0.25500000000E-02 0. -1.
          2   -1    0    0  501    0  0.00000000000E+00 -0.00000000000E+00 -0.28628787901E+03  0.28628787902E+03  0.25500000000E-02 0.  1.
   -5000001    1    1    2    0    0  0.14807305185E+03 -0.16632739211E+03  0.12504671960E+03  0.35738930053E+03  0.25000000000E+03 0.  0.
    5000001    1    1    2    0    0 -0.14807305185E+03  0.16632739211E+03 -0.53906923264E+01  0.33484248478E+03  0.25000000000E+03 0.  0.
<mgrwt>
<rscale>  0 0.68181176E+03</rscale>
<asrwt>0</asrwt>
<pdfrwt beam="1">  1        2 0.44044289E-01 0.68181176E+03</pdfrwt>
<pdfrwt beam="2">  1       -2 0.62452909E-01 0.68181176E+03</pdfrwt>
<totfact> 0.27786035E+02</totfact>
</mgrwt>
</event>
<event>
 4    1  0.1714834E-005  0.1379036E+04  0.7818608E-02  0.8969134E-01
          2   -1    0    0  501    0  0.00000000000E+00  0.00000000000E+00  0.15423392536E+04  0.15423392536E+04  0.25500000000E-02 0.  1.
         -2   -1    0    0    0  501 -0.00000000000E+00 -0.00000000000E+00 -0.30825604386E+03  0.30825604387E+03  0.25500000000E-02 0. -1.
   -5000001    1    1    2    0    0 -0.41533371796E+02 -0.63134750872E+03  0.76773883859E+03  0.10257912176E+04  0.25000000000E+03 0.  0.
    5000001    1    1    2    0    0  0.41533371796E+02  0.63134750872E+03  0.46634437115E+03  0.82480407991E+03  0.25000000000E+03 0.  0.
<mgrwt>
<rscale>  0 0.13790365E+04</rscale>
<asrwt>0</asrwt>
<pdfrwt beam="1">  1        2 0.23728296E+00 0.13790365E+04</pdfrwt>
<pdfrwt beam="2">  1       -2 0.47424006E-01 0.13790365E+04</pdfrwt>
<totfact> 0.49338606E+01</totfact>
</mgrwt>
</event>
<event>
 4    1  0.1714834E-005  0.8459921E+03  0.7818608E-02  0.9495732E-01
          2   -1    0    0  501    0  0.00000000000E+00  0.00000000000E+00  0.78732641547E+03  0.78732641547E+03  0.25500000000E-02 0.  1.
         -2   -1    0    0    0  501 -0.00000000000E+00 -0.00000000000E+00 -0.22725729735E+03  0.22725729737E+03  0.25500000000E-02 0. -1.
   -5000001    1    1    2    0    0  0.30424042792E+03  0.15060570757E+03  0.23881417905E+03  0.48453743844E+03  0.25000000000E+03 0.  0.
    5000001    1    1    2    0    0 -0.30424042792E+03 -0.15060570757E+03  0.32125493906E+03  0.53004627440E+03  0.25000000000E+03 0.  0.
<mgrwt>
<rscale>  0 0.84599214E+03</rscale>
<asrwt>0</asrwt>
<pdfrwt beam="1">  1        2 0.12112714E+00 0.84599214E+03</pdfrwt>
<pdfrwt beam="2">  1       -2 0.34962661E-01 0.84599214E+03</pdfrwt>
<totfact> 0.27108924E+02</totfact>
</mgrwt>
</event>
<event>
 4    1  0.1714834E-005  0.8390406E+03  0.7818608E-02  0.9505165E-01
          2   -1    0    0  501    0  0.00000000000E+00  0.00000000000E+00  0.20643262305E+04  0.20643262305E+04  0.25500000000E-02 0.  1.
         -2   -1    0    0    0  501 -0.00000000000E+00 -0.00000000000E+00 -0.85256529728E+02  0.85256529766E+02  0.25500000000E-02 0. -1.
   -5000001    1    1    2    0    0  0.32215663751E+03 -0.91490517066E+02  0.10833833900E+04  0.11611954975E+04  0.25000000000E+03 0.  0.
    5000001    1    1    2    0    0 -0.32215663751E+03  0.91490517066E+02  0.89568631086E+03  0.98838726280E+03  0.25000000000E+03 0.  0.
<mgrwt>
<rscale>  0 0.83904062E+03</rscale>
<asrwt>0</asrwt>
<pdfrwt beam="1">  1        2 0.31758862E+00 0.83904062E+03</pdfrwt>
<pdfrwt beam="2">  1       -2 0.13116391E-01 0.83904062E+03</pdfrwt>
<totfact> 0.27495253E+02</totfact>
</mgrwt>
</event>
<event>
 4    1  0.1714834E-005  0.6652793E+03  0.7818608E-02  0.9778524E-01
         -2   -1    0    0    0  501 -0.00000000000E+00  0.00000000000E+00  0.41861265239E+03  0.41861265240E+03  0.25500000000E-02 0. -1.
          2   -1    0    0  501    0  0.00000000000E+00 -0.00000000000E+00 -0.26432342701E+03  0.26432342702E+03  0.25500000000E-02 0.  1.
   -5000001    1    1    2    0    0 -0.97788126746E+01 -0.20346646224E+03 -0.65980893738E+01  0.32254885090E+03  0.25000000000E+03 0.  0.
    5000001    1    1    2    0    0  0.97788126746E+01  0.20346646224E+03  0.16088731475E+03  0.36038722852E+03  0.25000000000E+03 0.  0.
<mgrwt>
<rscale>  0 0.66527928E+03</rscale>
<asrwt>0</asrwt>
<pdfrwt beam="1">  1        2 0.40665143E-01 0.66527928E+03</pdfrwt>
<pdfrwt beam="2">  1       -2 0.64401946E-01 0.66527928E+03</pdfrwt>
<totfact> 0.28444078E+02</totfact>
</mgrwt>
</event>
<event>
 4    1  0.1714834E-005  0.1126190E+04  0.7818608E-02  0.9180034E-01
         -2   -1    0    0    0  501 -0.00000000000E+00  0.00000000000E+00  0.11703730251E+03  0.11703730254E+03  0.25500000000E-02 0. -1.
          2   -1    0    0  501    0  0.00000000000E+00 -0.00000000000E+00 -0.27091888581E+04  0.27091888581E+04  0.25500000000E-02 0.  1.
   -5000001    1    1    2    0    0 -0.19140557769E+03  0.33301225457E+03 -0.47501736453E+03  0.66005662899E+03  0.25000000000E+03 0.  0.
    5000001    1    1    2    0    0  0.19140557769E+03 -0.33301225457E+03 -0.21171341911E+04  0.21661695317E+04  0.25000000000E+03 0.  0.
<mgrwt>
<rscale>  0 0.11261903E+04</rscale>
<asrwt>0</asrwt>
<pdfrwt beam="1">  1        2 0.41679824E+00 0.11261903E+04</pdfrwt>
<pdfrwt beam="2">  1       -2 0.18005741E-01 0.11261903E+04</pdfrwt>
<totfact> 0.67532293E+01</totfact>
</mgrwt>
</event>
<event>
 4    1  0.1714834E-005  0.7137661E+03  0.7818608E-02  0.9693976E-01
         -2   -1    0    0    0  501 -0.00000000000E+00  0.00000000000E+00  0.44961324854E+03  0.44961324854E+03  0.25500000000E-02 0. -1.
          2   -1    0    0  501    0  0.00000000000E+00 -0.00000000000E+00 -0.28327791103E+03  0.28327791104E+03  0.25500000000E-02 0.  1.
   -5000001    1    1    2    0    0  0.18122465711E+03  0.15167038176E+03  0.18068192008E+03  0.38857719605E+03  0.25000000000E+03 0.  0.
    5000001    1    1    2    0    0 -0.18122465711E+03 -0.15167038176E+03 -0.14346582572E+02  0.34431396353E+03  0.25000000000E+03 0.  0.
<mgrwt>
<rscale>  0 0.71376607E+03</rscale>
<asrwt>0</asrwt>
<pdfrwt beam="1">  1        2 0.43581217E-01 0.71376607E+03</pdfrwt>
<pdfrwt beam="2">  1       -2 0.69171269E-01 0.71376607E+03</pdfrwt>
<totfact> 0.22547641E+02</totfact>
</mgrwt>
</event>
<event>
 4    1  0.1714834E-005  0.9891547E+03  0.7818608E-02  0.9320520E-01
         -2   -1    0    0    0  501 -0.00000000000E+00  0.00000000000E+00  0.22772289681E+03  0.22772289682E+03  0.25500000000E-02 0. -1.
          2   -1    0    0  501    0  0.00000000000E+00 -0.00000000000E+00 -0.10741420972E+04  0.10741420972E+04  0.25500000000E-02 0.  1.
   -5000001    1    1    2    0    0 -0.21565540966E+03  0.15533600930E+02  0.61011848483E+02  0.33611157988E+03  0.25000000000E+03 0.  0.
    5000001    1    1    2    0    0  0.21565540966E+03 -0.15533600930E+02 -0.90743104884E+03  0.96575341412E+03  0.25000000000E+03 0.  0.
<mgrwt>
<rscale>  0 0.98915469E+03</rscale>
<asrwt>0</asrwt>
<pdfrwt beam="1">  1        2 0.16525263E+00 0.98915469E+03</pdfrwt>
<pdfrwt beam="2">  1       -2 0.35034292E-01 0.98915469E+03</pdfrwt>
<totfact> 0.17245314E+02</totfact>
</mgrwt>
</event>
<event>
 4    1  0.1714834E-005  0.7086144E+03  0.7818608E-02  0.9702613E-01
          2   -1    0    0  501    0  0.00000000000E+00  0.00000000000E+00  0.57192015202E+03  0.57192015203E+03  0.25500000000E-02 0.  1.
         -2   -1    0    0    0  501 -0.00000000000E+00 -0.00000000000E+00 -0.21949495319E+03  0.21949495320E+03  0.25500000000E-02 0. -1.
   -5000001    1    1    2    0    0 -0.12518594069E+03  0.16826459948E+03  0.33035833258E+03  0.46435021599E+03  0.25000000000E+03 0.  0.
    5000001    1    1    2    0    0  0.12518594069E+03 -0.16826459948E+03  0.22066866250E+02  0.32706488924E+03  0.25000000000E+03 0.  0.
<mgrwt>
<rscale>  0 0.70861439E+03</rscale>
<asrwt>0</asrwt>
<pdfrwt beam="1">  1        2 0.87987716E-01 0.70861439E+03</pdfrwt>
<pdfrwt beam="2">  1       -2 0.33768454E-01 0.70861439E+03</pdfrwt>
<totfact> 0.43393757E+02</totfact>
</mgrwt>
</event>
<event>
 4    1  0.1714834E-005  0.6850118E+03  0.7818608E-02  0.9743213E-01
          2   -1    0    0  501    0  0.00000000000E+00  0.00000000000E+00  0.19177765391E+03  0.19177765392E+03  0.25500000000E-02 0.  1.
         -2   -1    0    0    0  501 -0.00000000000E+00 -0.00000000000E+00 -0.61169955711E+03  0.61169955711E+03  0.25500000000E-02 0. -1.
   -5000001    1    1    2    0    0 -0.18733970425E+03 -0.56510978616E+00 -0.37464855044E+03  0.48780941000E+03  0.25000000000E+03 0.  0.
    5000001    1    1    2    0    0  0.18733970425E+03  0.56510978616E+00 -0.45273352758E+02  0.31566780103E+03  0.25000000000E+03 0.  0.
<mgrwt>
<rscale>  0 0.68501184E+03</rscale>
<asrwt>0</asrwt>
<pdfrwt beam="1">  1        2 0.29504255E-01 0.68501184E+03</pdfrwt>
<pdfrwt beam="2">  1       -2 0.94107623E-01 0.68501184E+03</pdfrwt>
<totfact> 0.17462112E+02</totfact>
</mgrwt>
</event>
<event>
 4    1  0.1714834E-005  0.1139268E+04  0.7818608E-02  0.9167742E-01
         -2   -1    0    0    0  501 -0.00000000000E+00  0.00000000000E+00  0.32736914333E+03  0.32736914334E+03  0.25500000000E-02 0. -1.
          2   -1    0    0  501    0  0.00000000000E+00 -0.00000000000E+00 -0.99118365266E+03  0.99118365267E+03  0.25500000000E-02 0.  1.
   -5000001    1    1    2    0    0  0.14892229551E+02  0.50838024646E+03 -0.26531390889E+03  0.62575052836E+03  0.25000000000E+03 0.  0.
    5000001    1    1    2    0    0 -0.14892229551E+02 -0.50838024646E+03 -0.39850060045E+03  0.69280226764E+03  0.25000000000E+03 0.  0.
<mgrwt>
<rscale>  0 0.11392681E+04</rscale>
<asrwt>0</asrwt>
<pdfrwt beam="1">  1        2 0.15248979E+00 0.11392681E+04</pdfrwt>
<pdfrwt beam="2">  1       -2 0.50364484E-01 0.11392681E+04</pdfrwt>
<totfact> 0.94234222E+01</totfact>
</mgrwt>
</event>
<event>
 4    1  0.1714834E-005  0.7343723E+03  0.7818608E-02  0.9660192E-01
          2   -1    0    0  501    0  0.00000000000E+00  0.00000000000E+00  0.29154089039E+04  0.29154089039E+04  0.25500000000E-02 0.  1.
         -2   -1    0    0    0  501 -0.00000000000E+00 -0.00000000000E+00 -0.46245888882E+02  0.46245888952E+02  0.25500000000E-02 0. -1.
   -5000001    1    1    2    0    0  0.17541843631E+02 -0.18778106260E+03  0.66139612964E+03  0.73178841482E+03  0.25000000000E+03 0.  0.
    5000001    1    1    2    0    0 -0.17541843631E+02  0.18778106260E+03  0.22077668854E+04  0.22298663781E+04  0.25000000000E+03 0.  0.
<mgrwt>
<rscale>  0 0.73437232E+03</rscale>
<asrwt>0</asrwt>
<pdfrwt beam="1">  1        2 0.44852437E+00 0.73437232E+03</pdfrwt>
<pdfrwt beam="2">  1       -2 0.71147534E-02 0.73437232E+03</pdfrwt>
<totfact> 0.24573288E+02</totfact>
</mgrwt>
</event>
<event>
 4    1  0.1714834E-005  0.5240872E+03  0.7818608E-02  0.1007676E+00
         -2   -1    0    0    0  501 -0.00000000000E+00  0.00000000000E+00  0.92541170753E+02  0.92541170788E+02  0.25500000000E-02 0. -1.
          2   -1    0    0  501    0  0.00000000000E+00 -0.00000000000E+00 -0.74201395367E+03  0.74201395367E+03  0.25500000000E-02 0.  1.
   -5000001    1    1    2    0    0 -0.76658805972E+02  0.75156219350E+01 -0.34908408741E+03  0.43622558062E+03  0.25000000000E+03 0.  0.
    5000001    1    1    2    0    0  0.76658805972E+02 -0.75156219350E+01 -0.30038869550E+03  0.39832954383E+03  0.25000000000E+03 0.  0.
<mgrwt>
<rscale>  0 0.52408717E+03</rscale>
<asrwt>0</asrwt>
<pdfrwt beam="1">  1        2 0.11415599E+00 0.52408717E+03</pdfrwt>
<pdfrwt beam="2">  1       -2 0.14237104E-01 0.52408717E+03</pdfrwt>
<totfact> 0.14588006E+03</totfact>
</mgrwt>
</event>
<event>
 4    1  0.1714834E-005  0.8949684E+03  0.7818608E-02  0.9431893E-01
          2   -1    0    0  501    0  0.00000000000E+00  0.00000000000E+00  0.23791950930E+03  0.23791950931E+03  0.25500000000E-02 0.  1.
         -2   -1    0    0    0  501 -0.00000000000E+00 -0.00000000000E+00 -0.84163811364E+03  0.84163811364E+03  0.25500000000E-02 0. -1.
   -5000001    1    1    2    0    0 -0.33197104499E+03 -0.16114436942E+03 -0.25406606726E+03  0.51305150720E+03  0.25000000000E+03 0.  0.
    5000001    1    1    2    0    0  0.33197104499E+03  0.16114436942E+03 -0.34965253707E+03  0.56650611575E+03  0.25000000000E+03 0.  0.
<mgrwt>
<rscale>  0 0.89496844E+03</rscale>
<asrwt>0</asrwt>
<pdfrwt beam="1">  1        2 0.36603002E-01 0.89496844E+03</pdfrwt>
<pdfrwt beam="2">  1       -2 0.12948279E+00 0.89496844E+03</pdfrwt>
<totfact> 0.62595339E+01</totfact>
</mgrwt>
</event>
<event>
 4    1  0.1714834E-005  0.6472759E+03  0.7818608E-02  0.9811904E-01
         -2   -1    0    0    0  501 -0.00000000000E+00  0.00000000000E+00  0.32165530316E+03  0.32165530317E+03  0.25500000000E-02 0. -1.
          2   -1    0    0  501    0  0.00000000000E+00 -0.00000000000E+00 -0.32563277427E+03  0.32563277428E+03  0.25500000000E-02 0.  1.
   -5000001    1    1    2    0    0 -0.15114093770E+03  0.13926673790E+03 -0.36323595263E+01  0.32365413850E+03  0.25000000000E+03 0.  0.
    5000001    1    1    2    0    0  0.15114093770E+03 -0.13926673790E+03 -0.34511158420E+00  0.32363393894E+03  0.25000000000E+03 0.  0.
<mgrwt>
<rscale>  0 0.64727586E+03</rscale>
<asrwt>0</asrwt>
<pdfrwt beam="1">  1        2 0.50097350E-01 0.64727586E+03</pdfrwt>
<pdfrwt beam="2">  1       -2 0.49485431E-01 0.64727586E+03</pdfrwt>
<totfact> 0.39081708E+02</totfact>
</mgrwt>
</event>
<event>
 4    1  0.1714834E-005  0.6775909E+03  0.7818608E-02  0.9756341E-01
          2   -1    0    0  501    0  0.00000000000E+00  0.00000000000E+00  0.85183162810E+03  0.85183162810E+03  0.25500000000E-02 0.  1.
         -2   -1    0    0    0  501 -0.00000000000E+00 -0.00000000000E+00 -0.13474770954E+03  0.13474770956E+03  0.25500000000E-02 0. -1.
   -5000001    1    1    2    0    0 -0.76910881556E+02 -0.17606664610E+03  0.17804592910E+03  0.36209819171E+03  0.25000000000E+03 0.  0.
    5000001    1    1    2    0    0  0.76910881556E+02  0.17606664610E+03  0.53903798946E+03  0.62448114596E+03  0.25000000000E+03 0.  0.
<mgrwt>
<rscale>  0 0.67759091E+03</rscale>
<asrwt>0</asrwt>
<pdfrwt beam="1">  1        2 0.13105102E+00 0.67759091E+03</pdfrwt>
<pdfrwt beam="2">  1       -2 0.20730416E-01 0.67759091E+03</pdfrwt>
<totfact> 0.63789763E+02</totfact>
</mgrwt>
</event>
<event>
 4    1  0.1714834E-005  0.1207724E+04  0.7818608E-02  0.9106122E-01
          2   -1    0    0  501    0  0.00000000000E+00  0.00000000000E+00  0.12572828139E+04  0.12572828139E+04  0.25500000000E-02 0.  1.
         -2   -1    0    0    0  501 -0.00000000000E+00 -0.00000000000E+00 -0.29002969138E+03  0.29002969139E+03  0.25500000000E-02 0. -1.
   -5000001    1    1    2    0    0  0.34174690647E+03 -0.34193116788E+03  0.81880031234E+03  0.98317944605E+03  0.25000000000E+03 0.  0.
    5000001    1    1    2    0    0 -0.34174690647E+03  0.34193116788E+03  0.14845281014E+03  0.56413305920E+03  0.25000000000E+03 0.  0.
<mgrwt>
<rscale>  0 0.12077241E+04</rscale>
<asrwt>0</asrwt>
<pdfrwt beam="1">  1        2 0.19342813E+00 0.12077241E+04</pdfrwt>
<pdfrwt beam="2">  1       -2 0.44619952E-01 0.12077241E+04</pdfrwt>
<totfact> 0.82236415E+01</totfact>
</mgrwt>
</event>
<event>
 4    1  0.1714834E-005  0.8066216E+03  0.7818608E-02  0.9550482E-01
          2   -1    0    0  501    0  0.00000000000E+00  0.00000000000E+00  0.20199105338E+03  0.20199105340E+03  0.25500000000E-02 0.  1.
         -2   -1    0    0    0  501 -0.00000000000E+00 -0.00000000000E+00 -0.80528129467E+03  0.80528129467E+03  0.25500000000E-02 0. -1.
   -5000001    1    1    2    0    0 -0.21383162209E+03 -0.21779547410E+02 -0.59172544227E+03  0.67737530979E+03  0.25000000000E+03 0.  0.
    5000001    1    1    2    0    0  0.21383162209E+03  0.21779547410E+02 -0.11564799019E+02  0.32989703828E+03  0.25000000000E+03 0.  0.
<mgrwt>
<rscale>  0 0.80662164E+03</rscale>
<asrwt>0</asrwt>
<pdfrwt beam="1">  1        2 0.31075547E-01 0.80662164E+03</pdfrwt>
<pdfrwt beam="2">  1       -2 0.12388943E+00 0.80662164E+03</pdfrwt>
<totfact> 0.84447496E+01</totfact>
</mgrwt>
</event>
<event>
 4    1  0.1714834E-005  0.1112764E+04  0.7818608E-02  0.9192839E-01
         -2   -1    0    0    0  501 -0.00000000000E+00  0.00000000000E+00  0.91080975299E+03  0.91080975299E+03  0.25500000000E-02 0. -1.
          2   -1    0    0  501    0  0.00000000000E+00 -0.00000000000E+00 -0.33987462372E+03  0.33987462373E+03  0.25500000000E-02 0.  1.
   -5000001    1    1    2    0    0  0.28455912521E+03  0.18248495894E+03  0.69503123799E+03  0.81230725576E+03  0.25000000000E+03 0.  0.
    5000001    1    1    2    0    0 -0.28455912521E+03 -0.18248495894E+03 -0.12409610872E+03  0.43837712096E+03  0.25000000000E+03 0.  0.
<mgrwt>
<rscale>  0 0.11127643E+04</rscale>
<asrwt>0</asrwt>
<pdfrwt beam="1">  1        2 0.52288405E-01 0.11127643E+04</pdfrwt>
<pdfrwt beam="2">  1       -2 0.14012457E+00 0.11127643E+04</pdfrwt>
<totfact> 0.33918867E+01</totfact>
</mgrwt>
</event>
<event>
 4    1  0.1714834E-005  0.8377907E+03  0.7818608E-02  0.9506872E-01
         -2   -1    0    0    0  501 -0.00000000000E+00  0.00000000000E+00  0.88052685035E+02  0.88052685072E+02  0.25500000000E-02 0. -1.
          2   -1    0    0  501    0  0.00000000000E+00 -0.00000000000E+00 -0.19928217419E+04  0.19928217419E+04  0.25500000000E-02 0.  1.
   -5000001    1    1    2    0    0  0.10226872440E+03 -0.29865066102E+03 -0.12390650967E+04  0.13028558720E+04  0.25000000000E+03 0.  0.
    5000001    1    1    2    0    0 -0.10226872440E+03  0.29865066102E+03 -0.66570396016E+03  0.77801855497E+03  0.25000000000E+03 0.  0.
<mgrwt>
<rscale>  0 0.83779068E+03</rscale>
<asrwt>0</asrwt>
<pdfrwt beam="1">  1        2 0.30658793E+00 0.83779068E+03</pdfrwt>
<pdfrwt beam="2">  1       -2 0.13546568E-01 0.83779068E+03</pdfrwt>
<totfact> 0.28512448E+02</totfact>
</mgrwt>
</event>
<event>
 4    1  0.1714834E-005  0.6343543E+03  0.7818608E-02  0.9836588E-01
          2   -1    0    0  501    0  0.00000000000E+00  0.00000000000E+00  0.34699029632E+04  0.34699029632E+04  0.25500000000E-02 0.  1.
         -2   -1    0    0    0  501 -0.00000000000E+00 -0.00000000000E+00 -0.28992555742E+02  0.28992555854E+02  0.25500000000E-02 0. -1.
   -5000001    1    1    2    0    0  0.84984327702E+02  0.13910798164E+03  0.23126653381E+04  0.23318435480E+04  0.25000000000E+03 0.  0.
    5000001    1    1    2    0    0 -0.84984327702E+02 -0.13910798164E+03  0.11282450694E+04  0.11670519710E+04  0.25000000000E+03 0.  0.
<mgrwt>
<rscale>  0 0.63435433E+03</rscale>
<asrwt>0</asrwt>
<pdfrwt beam="1">  1        2 0.53383119E+00 0.63435433E+03</pdfrwt>
<pdfrwt beam="2">  1       -2 0.44603935E-02 0.63435433E+03</pdfrwt>
<totfact> 0.22958223E+02</totfact>
</mgrwt>
</event>
<event>
 4    1  0.1714834E-005  0.9422730E+03  0.7818608E-02  0.9374228E-01
         -2   -1    0    0    0  501 -0.00000000000E+00  0.00000000000E+00  0.14244453865E+03  0.14244453868E+03  0.25500000000E-02 0. -1.
          2   -1    0    0  501    0  0.00000000000E+00 -0.00000000000E+00 -0.15582879124E+04  0.15582879124E+04  0.25500000000E-02 0.  1.
   -5000001    1    1    2    0    0 -0.18486070151E+03 -0.35396241135E+03 -0.70323750443E+03  0.84646668880E+03  0.25000000000E+03 0.  0.
    5000001    1    1    2    0    0  0.18486070151E+03  0.35396241135E+03 -0.71260586931E+03  0.85426576227E+03  0.25000000000E+03 0.  0.
<mgrwt>
<rscale>  0 0.94227300E+03</rscale>
<asrwt>0</asrwt>
<pdfrwt beam="1">  1        2 0.23973659E+00 0.94227300E+03</pdfrwt>
<pdfrwt beam="2">  1       -2 0.21914545E-01 0.94227300E+03</pdfrwt>
<totfact> 0.21417721E+02</totfact>
</mgrwt>
</event>
<event>
 4    1  0.1714834E-005  0.1205939E+04  0.7818608E-02  0.9107674E-01
          2   -1    0    0  501    0  0.00000000000E+00  0.00000000000E+00  0.23536203339E+04  0.23536203339E+04  0.25500000000E-02 0.  1.
         -2   -1    0    0    0  501 -0.00000000000E+00 -0.00000000000E+00 -0.15447370402E+03  0.15447370405E+03  0.25500000000E-02 0. -1.
   -5000001    1    1    2    0    0 -0.12103782286E+03 -0.52568199898E+03  0.89075702449E+03  0.10709527512E+04  0.25000000000E+03 0.  0.
    5000001    1    1    2    0    0  0.12103782286E+03  0.52568199898E+03  0.13083896054E+04  0.14371412868E+04  0.25000000000E+03 0.  0.
<mgrwt>
<rscale>  0 0.12059394E+04</rscale>
<asrwt>0</asrwt>
<pdfrwt beam="1">  1        2 0.36209539E+00 0.12059394E+04</pdfrwt>
<pdfrwt beam="2">  1       -2 0.23765188E-01 0.12059394E+04</pdfrwt>
<totfact> 0.65833858E+01</totfact>
</mgrwt>
</event>
<event>
 4    1  0.1714834E-005  0.6782846E+03  0.7818608E-02  0.9755106E-01
         -2   -1    0    0    0  501 -0.00000000000E+00  0.00000000000E+00  0.42851000073E+02  0.42851000149E+02  0.25500000000E-02 0. -1.
          2   -1    0    0  501    0  0.00000000000E+00 -0.00000000000E+00 -0.26841261065E+04  0.26841261065E+04  0.25500000000E-02 0.  1.
   -5000001    1    1    2    0    0  0.14499175688E+03  0.17665917771E+03 -0.12525972457E+04  0.12975865807E+04  0.25000000000E+03 0.  0.
    5000001    1    1    2    0    0 -0.14499175688E+03 -0.17665917771E+03 -0.13886778608E+04  0.14293905260E+04  0.25000000000E+03 0.  0.
<mgrwt>
<rscale>  0 0.67828457E+03</rscale>
<asrwt>0</asrwt>
<pdfrwt beam="1">  1        2 0.41294235E+00 0.67828457E+03</pdfrwt>
<pdfrwt beam="2">  1       -2 0.65924637E-02 0.67828457E+03</pdfrwt>
<totfact> 0.38188511E+02</totfact>
</mgrwt>
</event>
<event>
 4    1  0.1714834E-005  0.9926328E+03  0.7818608E-02  0.9316662E-01
          2   -1    0    0  501    0  0.00000000000E+00  0.00000000000E+00  0.49706105147E+03  0.49706105148E+03  0.25500000000E-02 0.  1.
         -2   -1    0    0    0  501 -0.00000000000E+00 -0.00000000000E+00 -0.49557289233E+03  0.49557289234E+03  0.25500000000E-02 0. -1.
   -5000001    1    1    2    0    0 -0.34007861803E+03  0.25069910651E+03  0.73726861606E+02  0.49642638787E+03  0.25000000000E+03 0.  0.
    5000001    1    1    2    0    0  0.34007861803E+03 -0.25069910651E+03 -0.72238702468E+02  0.49620755595E+03  0.25000000000E+03 0.  0.
<mgrwt>
<rscale>  0 0.99263283E+03</rscale>
<asrwt>0</asrwt>
<pdfrwt beam="1">  1        2 0.76470931E-01 0.99263283E+03</pdfrwt>
<pdfrwt beam="2">  1       -2 0.76241983E-01 0.99263283E+03</pdfrwt>
<totfact> 0.95415369E+01</totfact>
</mgrwt>
</event>
<event>
 4    1  0.1714834E-005  0.1600611E+04  0.7818608E-02  0.8820173E-01
          2   -1    0    0  501    0  0.00000000000E+00  0.00000000000E+00  0.21414295193E+04  0.21414295193E+04  0.25500000000E-02 0.  1.
         -2   -1    0    0    0  501 -0.00000000000E+00 -0.00000000000E+00 -0.29909398282E+03  0.29909398283E+03  0.25500000000E-02 0. -1.
   -5000001    1    1    2    0    0  0.61081870182E+03 -0.14842117004E+02  0.23136774403E+03  0.69953613767E+03  0.25000000000E+03 0.  0.
    5000001    1    1    2    0    0 -0.61081870182E+03  0.14842117004E+02  0.16109677925E+04  0.17409873645E+04  0.25000000000E+03 0.  0.
<mgrwt>
<rscale>  0 0.16006107E+04</rscale>
<asrwt>0</asrwt>
<pdfrwt beam="1">  1        2 0.32945069E+00 0.16006107E+04</pdfrwt>
<pdfrwt beam="2">  1       -2 0.46014459E-01 0.16006107E+04</pdfrwt>
<totfact> 0.23933334E+01</totfact>
</mgrwt>
</event>
<event>
 4    1  0.1714834E-005  0.7185329E+03  0.7818608E-02  0.9686053E-01
         -2   -1    0    0    0  501 -0.00000000000E+00  0.00000000000E+00  0.58989369743E+03  0.58989369743E+03  0.25500000000E-02 0. -1.
          2   -1    0    0  501    0  0.00000000000E+00 -0.00000000000E+00 -0.21880617255E+03  0.21880617256E+03  0.25500000000E-02 0.  1.
   -5000001    1    1    2    0    0  0.20226904917E+03  0.15994197804E+03  0.17559241774E+03  0.39978356865E+03  0.25000000000E+03 0.  0.
    5000001    1    1    2    0    0 -0.20226904917E+03 -0.15994197804E+03  0.19549510714E+03  0.40891630135E+03  0.25000000000E+03 0.  0.
<mgrwt>
<rscale>  0 0.71853290E+03</rscale>
<asrwt>0</asrwt>
<pdfrwt beam="1">  1        2 0.33662488E-01 0.71853290E+03</pdfrwt>
<pdfrwt beam="2">  1       -2 0.90752877E-01 0.71853290E+03</pdfrwt>
<totfact> 0.16357378E+02</totfact>
</mgrwt>
</event>
<event>
 4    1  0.1714834E-005  0.1195521E+04  0.7818608E-02  0.9116786E-01
          2   -1    0    0  501    0  0.00000000000E+00  0.00000000000E+00  0.11910846248E+04  0.11910846248E+04  0.25500000000E-02 0.  1.
         -2   -1    0    0    0  501 -0.00000000000E+00 -0.00000000000E+00 -0.29999366797E+03  0.29999366799E+03  0.25500000000E-02 0. -1.
   -5000001    1    1    2    0    0 -0.23043381847E+03  0.45131011490E+03  0.68879266788E+03  0.89090734862E+03  0.25000000000E+03 0.  0.
    5000001    1    1    2    0    0  0.23043381847E+03 -0.45131011490E+03  0.20229828893E+03  0.60017094415E+03  0.25000000000E+03 0.  0.
<mgrwt>
<rscale>  0 0.11955214E+04</rscale>
<asrwt>0</asrwt>
<pdfrwt beam="1">  1        2 0.18324379E+00 0.11955214E+04</pdfrwt>
<pdfrwt beam="2">  1       -2 0.46152872E-01 0.11955214E+04</pdfrwt>
<totfact> 0.84211945E+01</totfact>
</mgrwt>
</event>
<event>
 4    1  0.1714834E-005  0.1086950E+04  0.7818608E-02  0.9218006E-01
         -2   -1    0    0    0  501 -0.00000000000E+00  0.00000000000E+00  0.96326015073E+03  0.96326015073E+03  0.25500000000E-02 0. -1.
          2   -1    0    0  501    0  0.00000000000E+00 -0.00000000000E+00 -0.30663048640E+03  0.30663048641E+03  0.25500000000E-02 0.  1.
   -5000001    1    1    2    0    0  0.24149806895E+03  0.10167124195E+02  0.81627031384E+03  0.88725526934E+03  0.25000000000E+03 0.  0.
    5000001    1    1    2    0    0 -0.24149806895E+03 -0.10167124195E+02 -0.15964064951E+03  0.38263536781E+03  0.25000000000E+03 0.  0.
<mgrwt>
<rscale>  0 0.10869497E+04</rscale>
<asrwt>0</asrwt>
<pdfrwt beam="1">  1        2 0.47173922E-01 0.10869497E+04</pdfrwt>
<pdfrwt beam="2">  1       -2 0.14819387E+00 0.10869497E+04</pdfrwt>
<totfact> 0.32903319E+01</totfact>
</mgrwt>
</event>
<event>
 4    1  0.1714834E-005  0.1220747E+04  0.7818608E-02  0.9094888E-01
          2   -1    0    0  501    0  0.00000000000E+00  0.00000000000E+00  0.19317691986E+04  0.19317691986E+04  0.25500000000E-02 0.  1.
         -2   -1    0    0    0  501 -0.00000000000E+00 -0.00000000000E+00 -0.19285736274E+03  0.19285736276E+03  0.25500000000E-02 0. -1.
   -5000001    1    1    2    0    0 -0.51991472319E+03 -0.13953767677E+03  0.62164251824E+03  0.85948909424E+03  0.25000000000E+03 0.  0.
    5000001    1    1    2    0    0  0.51991472319E+03  0.13953767677E+03  0.11172693177E+04  0.12651374672E+04  0.25000000000E+03 0.  0.
<mgrwt>
<rscale>  0 0.12207472E+04</rscale>
<asrwt>0</asrwt>
<pdfrwt beam="1">  1        2 0.29719527E+00 0.12207472E+04</pdfrwt>
<pdfrwt beam="2">  1       -2 0.29670363E-01 0.12207472E+04</pdfrwt>
<totfact> 0.75273406E+01</totfact>
</mgrwt>
</event>
<event>
 4    1  0.1714834E-005  0.7961201E+03  0.7818608E-02  0.9565650E-01
         -2   -1    0    0    0  501 -0.00000000000E+00  0.00000000000E+00  0.15327722404E+03  0.15327722406E+03  0.25500000000E-02 0. -1.
          2   -1    0    0  501    0  0.00000000000E+00 -0.00000000000E+00 -0.10337595126E+04  0.10337595126E+04  0.25500000000E-02 0.  1.
   -5000001    1    1    2    0    0 -0.20697743367E+03 -0.21880662460E+03 -0.54813004289E+03  0.67354475793E+03  0.25000000000E+03 0.  0.
    5000001    1    1    2    0    0  0.20697743367E+03  0.21880662460E+03 -0.33235224567E+03  0.51349197873E+03  0.25000000000E+03 0.  0.
<mgrwt>
<rscale>  0 0.79612006E+03</rscale>
<asrwt>0</asrwt>
<pdfrwt beam="1">  1        2 0.15903992E+00 0.79612006E+03</pdfrwt>
<pdfrwt beam="2">  1       -2 0.23581112E-01 0.79612006E+03</pdfrwt>
<totfact> 0.38364134E+02</totfact>
</mgrwt>
</event>
<event>
 4    1  0.1714834E-005  0.7051970E+03  0.7818608E-02  0.9708386E-01
         -2   -1    0    0    0  501 -0.00000000000E+00  0.00000000000E+00  0.15769476647E+03  0.15769476649E+03  0.25500000000E-02 0. -1.
          2   -1    0    0  501    0  0.00000000000E+00 -0.00000000000E+00 -0.78839464521E+03  0.78839464521E+03  0.25500000000E-02 0.  1.
   -5000001    1    1    2    0    0  0.39687935597E+02 -0.24123914629E+03 -0.25454364698E+03  0.43250887407E+03  0.25000000000E+03 0.  0.
    5000001    1    1    2    0    0 -0.39687935597E+02  0.24123914629E+03 -0.37615623176E+03  0.51358053762E+03  0.25000000000E+03 0.  0.
<mgrwt>
<rscale>  0 0.70519702E+03</rscale>
<asrwt>0</asrwt>
<pdfrwt beam="1">  1        2 0.12129148E+00 0.70519702E+03</pdfrwt>
<pdfrwt beam="2">  1       -2 0.24260734E-01 0.70519702E+03</pdfrwt>
<totfact> 0.53461874E+02</totfact>
</mgrwt>
</event>
<event>
 4    1  0.1714834E-005  0.7522632E+03  0.7818608E-02  0.9631806E-01
         -2   -1    0    0    0  501 -0.00000000000E+00  0.00000000000E+00  0.45423261503E+03  0.45423261504E+03  0.25500000000E-02 0. -1.
          2   -1    0    0  501    0  0.00000000000E+00 -0.00000000000E+00 -0.31145931002E+03  0.31145931003E+03  0.25500000000E-02 0.  1.
   -5000001    1    1    2    0    0  0.10552766235E+03  0.22550020264E+03  0.20405349285E+03  0.40758343545E+03  0.25000000000E+03 0.  0.
    5000001    1    1    2    0    0 -0.10552766235E+03 -0.22550020264E+03 -0.61280187834E+02  0.35810848961E+03  0.25000000000E+03 0.  0.
<mgrwt>
<rscale>  0 0.75226319E+03</rscale>
<asrwt>0</asrwt>
<pdfrwt beam="1">  1        2 0.47916817E-01 0.75226319E+03</pdfrwt>
<pdfrwt beam="2">  1       -2 0.69881941E-01 0.75226319E+03</pdfrwt>
<totfact> 0.19821468E+02</totfact>
</mgrwt>
</event>
<event>
 4    1  0.1714834E-005  0.9815605E+03  0.7818608E-02  0.9329003E-01
         -2   -1    0    0    0  501 -0.00000000000E+00  0.00000000000E+00  0.80860591510E+02  0.80860591550E+02  0.25500000000E-02 0. -1.
          2   -1    0    0  501    0  0.00000000000E+00 -0.00000000000E+00 -0.29787719692E+04  0.29787719692E+04  0.25500000000E-02 0.  1.
   -5000001    1    1    2    0    0  0.35566792573E+03  0.21567825970E+03 -0.12209911401E+04  0.13139011186E+04  0.25000000000E+03 0.  0.
    5000001    1    1    2    0    0 -0.35566792573E+03 -0.21567825970E+03 -0.16769202376E+04  0.17457314422E+04  0.25000000000E+03 0.  0.
<mgrwt>
<rscale>  0 0.98156052E+03</rscale>
<asrwt>0</asrwt>
<pdfrwt beam="1">  1        2 0.45827253E+00 0.98156052E+03</pdfrwt>
<pdfrwt beam="2">  1       -2 0.12440093E-01 0.98156052E+03</pdfrwt>
<totfact> 0.88398007E+01</totfact>
</mgrwt>
</event>
<event>
 4    1  0.1714834E-005  0.7586004E+03  0.7818608E-02  0.9621953E-01
          2   -1    0    0  501    0  0.00000000000E+00  0.00000000000E+00  0.15346917341E+04  0.15346917341E+04  0.25500000000E-02 0.  1.
         -2   -1    0    0    0  501 -0.00000000000E+00 -0.00000000000E+00 -0.93744333221E+02  0.93744333256E+02  0.25500000000E-02 0. -1.
   -5000001    1    1    2    0    0 -0.32778428625E+02 -0.15407805689E+03  0.12309669270E+04  0.12659360364E+04  0.25000000000E+03 0.  0.
    5000001    1    1    2    0    0  0.32778428625E+02  0.15407805689E+03  0.20998047387E+03  0.36250003090E+03  0.25000000000E+03 0.  0.
<mgrwt>
<rscale>  0 0.75860043E+03</rscale>
<asrwt>0</asrwt>
<pdfrwt beam="1">  1        2 0.23610642E+00 0.75860043E+03</pdfrwt>
<pdfrwt beam="2">  1       -2 0.14422205E-01 0.75860043E+03</pdfrwt>
<totfact> 0.46003892E+02</totfact>
</mgrwt>
</event>
<event>
 4    1  0.1714834E-005  0.6558118E+03  0.7818608E-02  0.9795935E-01
          2   -1    0    0  501    0  0.00000000000E+00  0.00000000000E+00  0.61418026584E+03  0.61418026584E+03  0.25500000000E-02 0.  1.
         -2   -1    0    0    0  501 -0.00000000000E+00 -0.00000000000E+00 -0.17506629638E+03  0.17506629640E+03  0.25500000000E-02 0. -1.
   -5000001    1    1    2    0    0  0.19731752562E+03 -0.19338865956E+02  0.12858531648E+03  0.34400927497E+03  0.25000000000E+03 0.  0.
    5000001    1    1    2    0    0 -0.19731752562E+03  0.19338865956E+02  0.31052865298E+03  0.44523728727E+03  0.25000000000E+03 0.  0.
<mgrwt>
<rscale>  0 0.65581175E+03</rscale>
<asrwt>0</asrwt>
<pdfrwt beam="1">  1        2 0.94489271E-01 0.65581175E+03</pdfrwt>
<pdfrwt beam="2">  1       -2 0.26933277E-01 0.65581175E+03</pdfrwt>
<totfact> 0.60684126E+02</totfact>
</mgrwt>
</event>
<event>
 4    1  0.1714834E-005  0.9189943E+03  0.7818608E-02  0.9402144E-01
         -2   -1    0    0    0  501 -0.00000000000E+00  0.00000000000E+00  0.12462423026E+03  0.12462423028E+03  0.25500000000E-02 0. -1.
          2   -1    0    0  501    0  0.00000000000E+00 -0.00000000000E+00 -0.16941940470E+04  0.16941940470E+04  0.25500000000E-02 0.  1.
   -5000001    1    1    2    0    0 -0.25041259876E+03 -0.28030984207E+03 -0.61502186201E+03  0.76291019650E+03  0.25000000000E+03 0.  0.
    5000001    1    1    2    0    0  0.25041259876E+03  0.28030984207E+03 -0.95454795474E+03  0.10559080808E+04  0.25000000000E+03 0.  0.
<mgrwt>
<rscale>  0 0.91899430E+03</rscale>
<asrwt>0</asrwt>
<pdfrwt beam="1">  1        2 0.26064522E+00 0.91899430E+03</pdfrwt>
<pdfrwt beam="2">  1       -2 0.19172960E-01 0.91899430E+03</pdfrwt>
<totfact> 0.22823765E+02</totfact>
</mgrwt>
</event>
<event>
 4    1  0.1714834E-005  0.9600927E+03  0.7818608E-02  0.9353431E-01
         -2   -1    0    0    0  501 -0.00000000000E+00  0.00000000000E+00  0.14311962253E+03  0.14311962256E+03  0.25500000000E-02 0. -1.
          2   -1    0    0  501    0  0.00000000000E+00 -0.00000000000E+00 -0.16101530889E+04  0.16101530889E+04  0.25500000000E-02 0.  1.
   -5000001    1    1    2    0    0  0.28242992882E+03 -0.29615995024E+03 -0.69404817760E+03  0.84361143523E+03  0.25000000000E+03 0.  0.
    5000001    1    1    2    0    0 -0.28242992882E+03  0.29615995024E+03 -0.77298528872E+03  0.90966127619E+03  0.25000000000E+03 0.  0.
<mgrwt>
<rscale>  0 0.96009271E+03</rscale>
<asrwt>0</asrwt>
<pdfrwt beam="1">  1        2 0.24771585E+00 0.96009271E+03</pdfrwt>
<pdfrwt beam="2">  1       -2 0.22018405E-01 0.96009271E+03</pdfrwt>
<totfact> 0.19851603E+02</totfact>
</mgrwt>
</event>
<event>
 4    1  0.1714834E-005  0.5350125E+03  0.7818608E-02  0.1005024E+00
          2   -1    0    0  501    0  0.00000000000E+00  0.00000000000E+00  0.19092810801E+04  0.19092810802E+04  0.25500000000E-02 0.  1.
         -2   -1    0    0    0  501 -0.00000000000E+00 -0.00000000000E+00 -0.37479867363E+02  0.37479867450E+02  0.25500000000E-02 0. -1.
   -5000001    1    1    2    0    0 -0.71240065025E+02 -0.62907622813E+02  0.91696322352E+03  0.95517227198E+03  0.25000000000E+03 0.  0.
    5000001    1    1    2    0    0  0.71240065025E+02  0.62907622813E+02  0.95483798927E+03  0.99158867562E+03  0.25000000000E+03 0.  0.
<mgrwt>
<rscale>  0 0.53501253E+03</rscale>
<asrwt>0</asrwt>
<pdfrwt beam="1">  1        2 0.29373550E+00 0.53501253E+03</pdfrwt>
<pdfrwt beam="2">  1       -2 0.57661344E-02 0.53501253E+03</pdfrwt>
<totfact> 0.12806048E+03</totfact>
</mgrwt>
</event>
<event>
 4    1  0.1714834E-005  0.7857815E+03  0.7818608E-02  0.9580829E-01
         -2   -1    0    0    0  501 -0.00000000000E+00  0.00000000000E+00  0.22292344881E+03  0.22292344883E+03  0.25500000000E-02 0. -1.
          2   -1    0    0  501    0  0.00000000000E+00 -0.00000000000E+00 -0.69244907218E+03  0.69244907218E+03  0.25500000000E-02 0.  1.
   -5000001    1    1    2    0    0  0.19015006545E+03 -0.21924734583E+03 -0.33656301362E+03  0.50990303802E+03  0.25000000000E+03 0.  0.
    5000001    1    1    2    0    0 -0.19015006545E+03  0.21924734583E+03 -0.13296260975E+03  0.40546948299E+03  0.25000000000E+03 0.  0.
<mgrwt>
<rscale>  0 0.78578148E+03</rscale>
<asrwt>0</asrwt>
<pdfrwt beam="1">  1        2 0.10653063E+00 0.78578148E+03</pdfrwt>
<pdfrwt beam="2">  1       -2 0.34295916E-01 0.78578148E+03</pdfrwt>
<totfact> 0.33262182E+02</totfact>
</mgrwt>
</event>
<event>
 4    1  0.1714834E-005  0.7674899E+03  0.7818608E-02  0.9608304E-01
         -2   -1    0    0    0  501 -0.00000000000E+00  0.00000000000E+00  0.83572675124E+02  0.83572675163E+02  0.25500000000E-02 0. -1.
          2   -1    0    0  501    0  0.00000000000E+00 -0.00000000000E+00 -0.17620616276E+04  0.17620616276E+04  0.25500000000E-02 0.  1.
   -5000001    1    1    2    0    0 -0.26994165199E+03 -0.89519175239E+02 -0.68949052002E+03  0.78662529544E+03  0.25000000000E+03 0.  0.
    5000001    1    1    2    0    0  0.26994165199E+03  0.89519175239E+02 -0.98899843250E+03  0.10590090074E+04  0.25000000000E+03 0.  0.
<mgrwt>
<rscale>  0 0.76748995E+03</rscale>
<asrwt>0</asrwt>
<pdfrwt beam="1">  1        2 0.27108638E+00 0.76748995E+03</pdfrwt>
<pdfrwt beam="2">  1       -2 0.12857336E-01 0.76748995E+03</pdfrwt>
<totfact> 0.41795727E+02</totfact>
</mgrwt>
</event>
<event>
 4    1  0.1714834E-005  0.9720783E+03  0.7818608E-02  0.9339710E-01
         -2   -1    0    0    0  501 -0.00000000000E+00  0.00000000000E+00  0.15871027421E+03  0.15871027423E+03  0.25500000000E-02 0. -1.
          2   -1    0    0  501    0  0.00000000000E+00 -0.00000000000E+00 -0.14884610072E+04  0.14884610072E+04  0.25500000000E-02 0.  1.
   -5000001    1    1    2    0    0 -0.10972450627E+03  0.37326370775E+03 -0.91830580674E+03  0.10281783977E+04  0.25000000000E+03 0.  0.
    5000001    1    1    2    0    0  0.10972450627E+03 -0.37326370775E+03 -0.41144492629E+03  0.61899288378E+03  0.25000000000E+03 0.  0.
<mgrwt>
<rscale>  0 0.97207830E+03</rscale>
<asrwt>0</asrwt>
<pdfrwt beam="1">  1        2 0.22899399E+00 0.97207830E+03</pdfrwt>
<pdfrwt beam="2">  1       -2 0.24416966E-01 0.97207830E+03</pdfrwt>
<totfact> 0.19273743E+02</totfact>
</mgrwt>
</event>
<event>
 4    1  0.1714834E-005  0.5321727E+03  0.7818608E-02  0.1005707E+00
         -2   -1    0    0    0  501 -0.00000000000E+00  0.00000000000E+00  0.19362873382E+03  0.19362873383E+03  0.25500000000E-02 0. -1.
          2   -1    0    0  501    0  0.00000000000E+00 -0.00000000000E+00 -0.36565823135E+03  0.36565823135E+03  0.25500000000E-02 0.  1.
   -5000001    1    1    2    0    0 -0.80268266643E+02  0.20052691781E+02 -0.45901545293E+02  0.26730517567E+03  0.25000000000E+03 0.  0.
    5000001    1    1    2    0    0  0.80268266643E+02 -0.20052691781E+02 -0.12612795224E+03  0.29198178952E+03  0.25000000000E+03 0.  0.
<mgrwt>
<rscale>  0 0.53217268E+03</rscale>
<asrwt>0</asrwt>
<pdfrwt beam="1">  1        2 0.56255112E-01 0.53217268E+03</pdfrwt>
<pdfrwt beam="2">  1       -2 0.29789036E-01 0.53217268E+03</pdfrwt>
<totfact> 0.91662536E+02</totfact>
</mgrwt>
</event>
<event>
 4    1  0.1714834E-005  0.9621935E+03  0.7818608E-02  0.9351011E-01
         -2   -1    0    0    0  501 -0.00000000000E+00  0.00000000000E+00  0.10894039646E+03  0.10894039649E+03  0.25500000000E-02 0. -1.
          2   -1    0    0  501    0  0.00000000000E+00 -0.00000000000E+00 -0.21245937349E+04  0.21245937349E+04  0.25500000000E-02 0.  1.
   -5000001    1    1    2    0    0 -0.16335373875E+03  0.36297098528E+03 -0.76971909657E+03  0.90188683755E+03  0.25000000000E+03 0.  0.
    5000001    1    1    2    0    0  0.16335373875E+03 -0.36297098528E+03 -0.12459342418E+04  0.13316472938E+04  0.25000000000E+03 0.  0.
<mgrwt>
<rscale>  0 0.96219350E+03</rscale>
<asrwt>0</asrwt>
<pdfrwt beam="1">  1        2 0.32686055E+00 0.96219350E+03</pdfrwt>
<pdfrwt beam="2">  1       -2 0.16760063E-01 0.96219350E+03</pdfrwt>
<totfact> 0.16656177E+02</totfact>
</mgrwt>
</event>
<event>
 4    1  0.1714834E-005  0.8360895E+03  0.7818608E-02  0.9509200E-01
         -2   -1    0    0    0  501 -0.00000000000E+00  0.00000000000E+00  0.33921394498E+03  0.33921394499E+03  0.25500000000E-02 0. -1.
          2   -1    0    0  501    0  0.00000000000E+00 -0.00000000000E+00 -0.51519526235E+03  0.51519526235E+03  0.25500000000E-02 0.  1.
   -5000001    1    1    2    0    0 -0.33492231891E+03 -0.63695699452E+01 -0.80919043821E+02  0.42574807431E+03  0.25000000000E+03 0.  0.
    5000001    1    1    2    0    0  0.33492231891E+03  0.63695699452E+01 -0.95062273542E+02  0.42866113304E+03  0.25000000000E+03 0.  0.
<mgrwt>
<rscale>  0 0.83608951E+03</rscale>
<asrwt>0</asrwt>
<pdfrwt beam="1">  1        2 0.79260810E-01 0.83608951E+03</pdfrwt>
<pdfrwt beam="2">  1       -2 0.52186761E-01 0.83608951E+03</pdfrwt>
<totfact> 0.20735105E+02</totfact>
</mgrwt>
</event>
<event>
 4    1  0.1714834E-005  0.1044446E+04  0.7818608E-02  0.9261097E-01
         -2   -1    0    0    0  501 -0.00000000000E+00  0.00000000000E+00  0.24346478246E+03  0.24346478247E+03  0.25500000000E-02 0. -1.
          2   -1    0    0  501    0  0.00000000000E+00 -0.00000000000E+00 -0.11201488261E+04  0.11201488261E+04  0.25500000000E-02 0.  1.
   -5000001    1    1    2    0    0 -0.35503992443E+03  0.27532633370E+03 -0.31897655017E+03  0.60506526716E+03  0.25000000000E+03 0.  0.
    5000001    1    1    2    0    0  0.35503992443E+03 -0.27532633370E+03 -0.55770749343E+03  0.75854834137E+03  0.25000000000E+03 0.  0.
<mgrwt>
<rscale>  0 0.10444459E+04</rscale>
<asrwt>0</asrwt>
<pdfrwt beam="1">  1        2 0.17233059E+00 0.10444459E+04</pdfrwt>
<pdfrwt beam="2">  1       -2 0.37456121E-01 0.10444459E+04</pdfrwt>
<totfact> 0.14161754E+02</totfact>
</mgrwt>
</event>
<event>
 4    1  0.1714834E-005  0.7202778E+03  0.7818608E-02  0.9683169E-01
          2   -1    0    0  501    0  0.00000000000E+00  0.00000000000E+00  0.74536432002E+03  0.74536432002E+03  0.25500000000E-02 0.  1.
         -2   -1    0    0    0  501 -0.00000000000E+00 -0.00000000000E+00 -0.17400890630E+03  0.17400890631E+03  0.25500000000E-02 0. -1.
   -5000001    1    1    2    0    0 -0.21196485393E+03 -0.14846675494E+03  0.26638088623E+03  0.44769437474E+03  0.25000000000E+03 0.  0.
    5000001    1    1    2    0    0  0.21196485393E+03  0.14846675494E+03  0.30497452749E+03  0.47167885160E+03  0.25000000000E+03 0.  0.
<mgrwt>
<rscale>  0 0.72027781E+03</rscale>
<asrwt>0</asrwt>
<pdfrwt beam="1">  1        2 0.11467144E+00 0.72027781E+03</pdfrwt>
<pdfrwt beam="2">  1       -2 0.26770601E-01 0.72027781E+03</pdfrwt>
<totfact> 0.48113417E+02</totfact>
</mgrwt>
</event>
<event>
 4    1  0.1714834E-005  0.7625761E+03  0.7818608E-02  0.9615824E-01
          2   -1    0    0  501    0  0.00000000000E+00  0.00000000000E+00  0.67819485710E+03  0.67819485711E+03  0.25500000000E-02 0.  1.
         -2   -1    0    0    0  501 -0.00000000000E+00 -0.00000000000E+00 -0.21436403020E+03  0.21436403022E+03  0.25500000000E-02 0. -1.
   -5000001    1    1    2    0    0 -0.24746621636E+03 -0.89277820921E+02  0.95064947150E+02  0.37516316680E+03  0.25000000000E+03 0.  0.
    5000001    1    1    2    0    0  0.24746621636E+03  0.89277820921E+02  0.36876587975E+03  0.51739572053E+03  0.25000000000E+03 0.  0.
<mgrwt>
<rscale>  0 0.76257612E+03</rscale>
<asrwt>0</asrwt>
<pdfrwt beam="1">  1        2 0.10433767E+00 0.76257612E+03</pdfrwt>
<pdfrwt beam="2">  1       -2 0.32979083E-01 0.76257612E+03</pdfrwt>
<totfact> 0.36797910E+02</totfact>
</mgrwt>
</event>
<event>
 4    1  0.1714834E-005  0.7170200E+03  0.7818608E-02  0.9688560E-01
         -2   -1    0    0    0  501 -0.00000000000E+00  0.00000000000E+00  0.23104483689E+03  0.23104483690E+03  0.25500000000E-02 0. -1.
          2   -1    0    0  501    0  0.00000000000E+00 -0.00000000000E+00 -0.55629644837E+03  0.55629644837E+03  0.25500000000E-02 0.  1.
   -5000001    1    1    2    0    0  0.22194770329E+03 -0.52572825218E+02 -0.29257369630E+03  0.44735226915E+03  0.25000000000E+03 0.  0.
    5000001    1    1    2    0    0 -0.22194770329E+03  0.52572825218E+02 -0.32677915182E+02  0.33998901613E+03  0.25000000000E+03 0.  0.
<mgrwt>
<rscale>  0 0.71702001E+03</rscale>
<asrwt>0</asrwt>
<pdfrwt beam="1">  1        2 0.85584068E-01 0.71702001E+03</pdfrwt>
<pdfrwt beam="2">  1       -2 0.35545360E-01 0.71702001E+03</pdfrwt>
<totfact> 0.40673192E+02</totfact>
</mgrwt>
</event>
<event>
 4    1  0.1714834E-005  0.6509815E+03  0.7818608E-02  0.9804939E-01
          2   -1    0    0  501    0  0.00000000000E+00  0.00000000000E+00  0.37863569413E+04  0.37863569413E+04  0.25500000000E-02 0.  1.
         -2   -1    0    0    0  501 -0.00000000000E+00 -0.00000000000E+00 -0.27980514976E+02  0.27980515092E+02  0.25500000000E-02 0. -1.
   -5000001    1    1    2    0    0 -0.62539756203E+02  0.19512947867E+03  0.21028811147E+04  0.21275797793E+04  0.25000000000E+03 0.  0.
    5000001    1    1    2    0    0  0.62539756203E+02 -0.19512947867E+03  0.16554953116E+04  0.16867576771E+04  0.25000000000E+03 0.  0.
<mgrwt>
<rscale>  0 0.65098147E+03</rscale>
<asrwt>0</asrwt>
<pdfrwt beam="1">  1        2 0.58251619E+00 0.65098147E+03</pdfrwt>
<pdfrwt beam="2">  1       -2 0.43046966E-02 0.65098147E+03</pdfrwt>
<totfact> 0.14494237E+02</totfact>
</mgrwt>
</event>
<event>
 4    1  0.1714834E-005  0.6195077E+03  0.7818608E-02  0.9865740E-01
         -2   -1    0    0    0  501 -0.00000000000E+00  0.00000000000E+00  0.79979871378E+03  0.79979871378E+03  0.25500000000E-02 0. -1.
          2   -1    0    0  501    0  0.00000000000E+00 -0.00000000000E+00 -0.11996450541E+03  0.11996450544E+03  0.25500000000E-02 0.  1.
   -5000001    1    1    2    0    0 -0.56492784942E+02  0.17198955315E+03  0.37850750326E+03  0.48840533491E+03  0.25000000000E+03 0.  0.
    5000001    1    1    2    0    0  0.56492784942E+02 -0.17198955315E+03  0.30132670510E+03  0.43135788431E+03  0.25000000000E+03 0.  0.
<mgrwt>
<rscale>  0 0.61950773E+03</rscale>
<asrwt>0</asrwt>
<pdfrwt beam="1">  1        2 0.18456077E-01 0.61950773E+03</pdfrwt>
<pdfrwt beam="2">  1       -2 0.12304596E+00 0.61950773E+03</pdfrwt>
<totfact> 0.15795546E+02</totfact>
</mgrwt>
</event>
<event>
 4    1  0.1714834E-005  0.5894701E+03  0.7818608E-02  0.9927496E-01
         -2   -1    0    0    0  501 -0.00000000000E+00  0.00000000000E+00  0.72177299759E+03  0.72177299759E+03  0.25500000000E-02 0. -1.
          2   -1    0    0  501    0  0.00000000000E+00 -0.00000000000E+00 -0.12035468670E+03  0.12035468673E+03  0.25500000000E-02 0.  1.
   -5000001    1    1    2    0    0  0.64558430008E+02  0.13191698460E+03  0.22512889740E+03  0.36708704983E+03  0.25000000000E+03 0.  0.
    5000001    1    1    2    0    0 -0.64558430008E+02 -0.13191698460E+03  0.37628941348E+03  0.47504063448E+03  0.25000000000E+03 0.  0.
<mgrwt>
<rscale>  0 0.58947015E+03</rscale>
<asrwt>0</asrwt>
<pdfrwt beam="1">  1        2 0.18516106E-01 0.58947015E+03</pdfrwt>
<pdfrwt beam="2">  1       -2 0.11104200E+00 0.58947015E+03</pdfrwt>
<totfact> 0.20249037E+02</totfact>
</mgrwt>
</event>
<event>
 4    1  0.1714834E-005  0.5764877E+03  0.7818608E-02  0.9955424E-01
         -2   -1    0    0    0  501 -0.00000000000E+00  0.00000000000E+00  0.68264926080E+02  0.68264926128E+02  0.25500000000E-02 0. -1.
          2   -1    0    0  501    0  0.00000000000E+00 -0.00000000000E+00 -0.12170893191E+04  0.12170893191E+04  0.25500000000E-02 0.  1.
   -5000001    1    1    2    0    0  0.83877200780E+02 -0.81000691591E+02 -0.38802772129E+03  0.47609033737E+03  0.25000000000E+03 0.  0.
    5000001    1    1    2    0    0 -0.83877200780E+02  0.81000691591E+02 -0.76079667174E+03  0.80926390787E+03  0.25000000000E+03 0.  0.
<mgrwt>
<rscale>  0 0.57648768E+03</rscale>
<asrwt>0</asrwt>
<pdfrwt beam="1">  1        2 0.18724450E+00 0.57648768E+03</pdfrwt>
<pdfrwt beam="2">  1       -2 0.10502297E-01 0.57648768E+03</pdfrwt>
<totfact> 0.11867516E+03</totfact>
</mgrwt>
</event>
<event>
 4    1  0.1714834E-005  0.9535275E+03  0.7818608E-02  0.9361037E-01
         -2   -1    0    0    0  501 -0.00000000000E+00  0.00000000000E+00  0.21232633778E+03  0.21232633780E+03  0.25500000000E-02 0. -1.
          2   -1    0    0  501    0  0.00000000000E+00 -0.00000000000E+00 -0.10705392119E+04  0.10705392120E+04  0.25500000000E-02 0.  1.
   -5000001    1    1    2    0    0 -0.32082506747E+03  0.16901600309E+02 -0.76299419401E+03  0.86479739136E+03  0.25000000000E+03 0.  0.
    5000001    1    1    2    0    0  0.32082506747E+03 -0.16901600309E+02 -0.95218680156E+02  0.41806815839E+03  0.25000000000E+03 0.  0.
<mgrwt>
<rscale>  0 0.95352749E+03</rscale>
<asrwt>0</asrwt>
<pdfrwt beam="1">  1        2 0.16469834E+00 0.95352749E+03</pdfrwt>
<pdfrwt beam="2">  1       -2 0.32665591E-01 0.95352749E+03</pdfrwt>
<totfact> 0.19837063E+02</totfact>
</mgrwt>
</event>
<event>
 4    1  0.1714834E-005  0.6823883E+03  0.7818608E-02  0.9747834E-01
         -2   -1    0    0    0  501 -0.00000000000E+00  0.00000000000E+00  0.52472708827E+03  0.52472708827E+03  0.25500000000E-02 0. -1.
          2   -1    0    0  501    0  0.00000000000E+00 -0.00000000000E+00 -0.22185521902E+03  0.22185521903E+03  0.25500000000E-02 0.  1.
   -5000001    1    1    2    0    0 -0.15811730621E+03 -0.13936265220E+03  0.44852758379E+02  0.33005272501E+03  0.25000000000E+03 0.  0.
    5000001    1    1    2    0    0  0.15811730621E+03  0.13936265220E+03  0.25801911087E+03  0.41652958230E+03  0.25000000000E+03 0.  0.
<mgrwt>
<rscale>  0 0.68238829E+03</rscale>
<asrwt>0</asrwt>
<pdfrwt beam="1">  1        2 0.34131572E-01 0.68238829E+03</pdfrwt>
<pdfrwt beam="2">  1       -2 0.80727244E-01 0.68238829E+03</pdfrwt>
<totfact> 0.21052794E+02</totfact>
</mgrwt>
</event>
<event>
 4    1  0.1714834E-005  0.5683342E+03  0.7818608E-02  0.9973372E-01
         -2   -1    0    0    0  501 -0.00000000000E+00  0.00000000000E+00  0.18121676419E+03  0.18121676421E+03  0.25500000000E-02 0. -1.
          2   -1    0    0  501    0  0.00000000000E+00 -0.00000000000E+00 -0.44560409361E+03  0.44560409361E+03  0.25500000000E-02 0.  1.
   -5000001    1    1    2    0    0 -0.12944684078E+03  0.32450399269E+02 -0.15536575244E+03  0.32318420449E+03  0.25000000000E+03 0.  0.
    5000001    1    1    2    0    0  0.12944684078E+03 -0.32450399269E+02 -0.10902157698E+03  0.30363665333E+03  0.25000000000E+03 0.  0.
<mgrwt>
<rscale>  0 0.56833417E+03</rscale>
<asrwt>0</asrwt>
<pdfrwt beam="1">  1        2 0.68554475E-01 0.56833417E+03</pdfrwt>
<pdfrwt beam="2">  1       -2 0.27879502E-01 0.56833417E+03</pdfrwt>
<totfact> 0.82956399E+02</totfact>
</mgrwt>
</event>
<event>
 4    1  0.1714834E-005  0.1125098E+04  0.7818608E-02  0.9181069E-01
         -2   -1    0    0    0  501 -0.00000000000E+00  0.00000000000E+00  0.11800805684E+03  0.11800805687E+03  0.25500000000E-02 0. -1.
          2   -1    0    0  501    0  0.00000000000E+00 -0.00000000000E+00 -0.26816927676E+04  0.26816927676E+04  0.25500000000E-02 0.  1.
   -5000001    1    1    2    0    0  0.30487006007E+03  0.71397363527E+02 -0.22644257918E+04  0.22996015967E+04  0.25000000000E+03 0.  0.
    5000001    1    1    2    0    0 -0.30487006007E+03 -0.71397363527E+02 -0.29925891904E+03  0.50009922782E+03  0.25000000000E+03 0.  0.
<mgrwt>
<rscale>  0 0.11250980E+04</rscale>
<asrwt>0</asrwt>
<pdfrwt beam="1">  1        2 0.41256807E+00 0.11250980E+04</pdfrwt>
<pdfrwt beam="2">  1       -2 0.18155088E-01 0.11250980E+04</pdfrwt>
<totfact> 0.69103036E+01</totfact>
</mgrwt>
</event>
<event>
 4    1  0.1714834E-005  0.6125854E+03  0.7818608E-02  0.9879634E-01
         -2   -1    0    0    0  501 -0.00000000000E+00  0.00000000000E+00  0.14345615354E+03  0.14345615357E+03  0.25500000000E-02 0. -1.
          2   -1    0    0  501    0  0.00000000000E+00 -0.00000000000E+00 -0.65396434254E+03  0.65396434254E+03  0.25500000000E-02 0.  1.
   -5000001    1    1    2    0    0 -0.54192849660E+01  0.17067923068E+03 -0.19483307535E+03  0.36002874286E+03  0.25000000000E+03 0.  0.
    5000001    1    1    2    0    0  0.54192849660E+01 -0.17067923068E+03 -0.31567511365E+03  0.43739175325E+03  0.25000000000E+03 0.  0.
<mgrwt>
<rscale>  0 0.61258537E+03</rscale>
<asrwt>0</asrwt>
<pdfrwt beam="1">  1        2 0.10060990E+00 0.61258537E+03</pdfrwt>
<pdfrwt beam="2">  1       -2 0.22070178E-01 0.61258537E+03</pdfrwt>
<totfact> 0.80409360E+02</totfact>
</mgrwt>
</event>
<event>
 4    1  0.1714834E-005  0.5844766E+03  0.7818608E-02  0.9938146E-01
         -2   -1    0    0    0  501 -0.00000000000E+00  0.00000000000E+00  0.46739665957E+02  0.46739666026E+02  0.25500000000E-02 0. -1.
          2   -1    0    0  501    0  0.00000000000E+00 -0.00000000000E+00 -0.18272107791E+04  0.18272107791E+04  0.25500000000E-02 0.  1.
   -5000001    1    1    2    0    0  0.12877306713E+03  0.76519994425E+02 -0.82106704364E+03  0.87125708176E+03  0.25000000000E+03 0.  0.
    5000001    1    1    2    0    0 -0.12877306713E+03 -0.76519994425E+02 -0.95940406955E+03  0.10026933634E+04  0.25000000000E+03 0.  0.
<mgrwt>
<rscale>  0 0.58447659E+03</rscale>
<asrwt>0</asrwt>
<pdfrwt beam="1">  1        2 0.28110930E+00 0.58447659E+03</pdfrwt>
<pdfrwt beam="2">  1       -2 0.71907193E-02 0.58447659E+03</pdfrwt>
<totfact> 0.99965166E+02</totfact>
</mgrwt>
</event>
<event>
 4    1  0.1714834E-005  0.6312473E+03  0.7818608E-02  0.9842618E-01
         -2   -1    0    0    0  501 -0.00000000000E+00  0.00000000000E+00  0.58705006425E+02  0.58705006480E+02  0.25500000000E-02 0. -1.
          2   -1    0    0  501    0  0.00000000000E+00 -0.00000000000E+00 -0.16969298888E+04  0.16969298888E+04  0.25500000000E-02 0.  1.
   -5000001    1    1    2    0    0 -0.15042846534E+03 -0.74283273320E+02 -0.10825444133E+04  0.11236321171E+04  0.25000000000E+03 0.  0.
    5000001    1    1    2    0    0  0.15042846534E+03  0.74283273320E+02 -0.55568046907E+03  0.63200277815E+03  0.25000000000E+03 0.  0.
<mgrwt>
<rscale>  0 0.63124727E+03</rscale>
<asrwt>0</asrwt>
<pdfrwt beam="1">  1        2 0.26106610E+00 0.63124727E+03</pdfrwt>
<pdfrwt beam="2">  1       -2 0.90315408E-02 0.63124727E+03</pdfrwt>
<totfact> 0.81533719E+02</totfact>
</mgrwt>
</event>
<event>
 4    1  0.1714834E-005  0.2407233E+04  0.7818608E-02  0.8436800E-01
         -2   -1    0    0    0  501 -0.00000000000E+00  0.00000000000E+00  0.26511403086E+04  0.26511403086E+04  0.25500000000E-02 0. -1.
          2   -1    0    0  501    0  0.00000000000E+00 -0.00000000000E+00 -0.54644148245E+03  0.54644148245E+03  0.25500000000E-02 0.  1.
   -5000001    1    1    2    0    0 -0.41269241197E+03 -0.63330619686E+03  0.22513774253E+04  0.23880100664E+04  0.25000000000E+03 0.  0.
    5000001    1    1    2    0    0  0.41269241197E+03  0.63330619686E+03 -0.14667859921E+03  0.80957172464E+03  0.25000000000E+03 0.  0.
<mgrwt>
<rscale>  0 0.24072333E+04</rscale>
<asrwt>0</asrwt>
<pdfrwt beam="1">  1        2 0.84067919E-01 0.24072333E+04</pdfrwt>
<pdfrwt beam="2">  1       -2 0.40786775E+00 0.24072333E+04</pdfrwt>
<totfact> 0.32880208E-01</totfact>
</mgrwt>
</event>
<event>
 4    1  0.1714834E-005  0.5353097E+03  0.7818608E-02  0.1004953E+00
         -2   -1    0    0    0  501 -0.00000000000E+00  0.00000000000E+00  0.80454205521E+02  0.80454205561E+02  0.25500000000E-02 0. -1.
          2   -1    0    0  501    0  0.00000000000E+00 -0.00000000000E+00 -0.89043338261E+03  0.89043338261E+03  0.25500000000E-02 0.  1.
   -5000001    1    1    2    0    0  0.50473233348E+02 -0.80153049077E+02 -0.38154786841E+03  0.46588714776E+03  0.25000000000E+03 0.  0.
    5000001    1    1    2    0    0 -0.50473233348E+02  0.80153049077E+02 -0.42843130868E+03  0.50500044041E+03  0.25000000000E+03 0.  0.
<mgrwt>
<rscale>  0 0.53530967E+03</rscale>
<asrwt>0</asrwt>
<pdfrwt beam="1">  1        2 0.13698974E+00 0.53530967E+03</pdfrwt>
<pdfrwt beam="2">  1       -2 0.12377571E-01 0.53530967E+03</pdfrwt>
<totfact> 0.14466542E+03</totfact>
</mgrwt>
</event>
<event>
 4    1  0.1714834E-005  0.6056541E+03  0.7818608E-02  0.9893745E-01
          2   -1    0    0  501    0  0.00000000000E+00  0.00000000000E+00  0.12673925915E+04  0.12673925915E+04  0.25500000000E-02 0.  1.
         -2   -1    0    0    0  501 -0.00000000000E+00 -0.00000000000E+00 -0.72356597124E+02  0.72356597169E+02  0.25500000000E-02 0. -1.
   -5000001    1    1    2    0    0  0.15246627850E+03  0.70177483111E+02  0.52640863650E+03  0.60644612110E+03  0.25000000000E+03 0.  0.
    5000001    1    1    2    0    0 -0.15246627850E+03 -0.70177483111E+02  0.66862735790E+03  0.73330306760E+03  0.25000000000E+03 0.  0.
<mgrwt>
<rscale>  0 0.60565408E+03</rscale>
<asrwt>0</asrwt>
<pdfrwt beam="1">  1        2 0.19498349E+00 0.60565408E+03</pdfrwt>
<pdfrwt beam="2">  1       -2 0.11131783E-01 0.60565408E+03</pdfrwt>
<totfact> 0.10080778E+03</totfact>
</mgrwt>
</event>
<event>
 4    1  0.1714834E-005  0.7085635E+03  0.7818608E-02  0.9702698E-01
          2   -1    0    0  501    0  0.00000000000E+00  0.00000000000E+00  0.91073433926E+03  0.91073433926E+03  0.25500000000E-02 0.  1.
         -2   -1    0    0    0  501 -0.00000000000E+00 -0.00000000000E+00 -0.13781797645E+03  0.13781797648E+03  0.25500000000E-02 0. -1.
   -5000001    1    1    2    0    0 -0.47432889536E+02 -0.24458349626E+03  0.43193968862E+03  0.55780181091E+03  0.25000000000E+03 0.  0.
    5000001    1    1    2    0    0  0.47432889536E+02  0.24458349626E+03  0.34097667418E+03  0.49075050482E+03  0.25000000000E+03 0.  0.
<mgrwt>
<rscale>  0 0.70856352E+03</rscale>
<asrwt>0</asrwt>
<pdfrwt beam="1">  1        2 0.14011297E+00 0.70856352E+03</pdfrwt>
<pdfrwt beam="2">  1       -2 0.21202767E-01 0.70856352E+03</pdfrwt>
<totfact> 0.55861091E+02</totfact>
</mgrwt>
</event>
<event>
 4    1  0.1714834E-005  0.6705700E+03  0.7818608E-02  0.9768929E-01
         -2   -1    0    0    0  501 -0.00000000000E+00  0.00000000000E+00  0.12629650116E+03  0.12629650119E+03  0.25500000000E-02 0. -1.
          2   -1    0    0  501    0  0.00000000000E+00 -0.00000000000E+00 -0.89009613701E+03  0.89009613702E+03  0.25500000000E-02 0.  1.
   -5000001    1    1    2    0    0  0.20060916884E+03 -0.48355028124E+02 -0.25209782827E+03  0.41065260547E+03  0.25000000000E+03 0.  0.
    5000001    1    1    2    0    0 -0.20060916884E+03  0.48355028124E+02 -0.51170180758E+03  0.60574003273E+03  0.25000000000E+03 0.  0.
<mgrwt>
<rscale>  0 0.67056999E+03</rscale>
<asrwt>0</asrwt>
<pdfrwt beam="1">  1        2 0.13693786E+00 0.67056999E+03</pdfrwt>
<pdfrwt beam="2">  1       -2 0.19430231E-01 0.67056999E+03</pdfrwt>
<totfact> 0.67281251E+02</totfact>
</mgrwt>
</event>
<event>
 4    1  0.1714834E-005  0.9865965E+03  0.7818608E-02  0.9323369E-01
          2   -1    0    0  501    0  0.00000000000E+00  0.00000000000E+00  0.56536637388E+03  0.56536637388E+03  0.25500000000E-02 0.  1.
         -2   -1    0    0    0  501 -0.00000000000E+00 -0.00000000000E+00 -0.43041676976E+03  0.43041676977E+03  0.25500000000E-02 0. -1.
   -5000001    1    1    2    0    0  0.28829430152E+03 -0.29173575144E+03  0.18085878194E+03  0.51325749090E+03  0.25000000000E+03 0.  0.
    5000001    1    1    2    0    0 -0.28829430152E+03  0.29173575144E+03 -0.45909177824E+02  0.48252565275E+03  0.25000000000E+03 0.  0.
<mgrwt>
<rscale>  0 0.98659651E+03</rscale>
<asrwt>0</asrwt>
<pdfrwt beam="1">  1        2 0.86979442E-01 0.98659651E+03</pdfrwt>
<pdfrwt beam="2">  1       -2 0.66217964E-01 0.98659651E+03</pdfrwt>
<totfact> 0.11172277E+02</totfact>
</mgrwt>
</event>
<event>
 4    1  0.1714834E-005  0.5620904E+03  0.7818608E-02  0.9987336E-01
         -2   -1    0    0    0  501 -0.00000000000E+00  0.00000000000E+00  0.45108338563E+02  0.45108338635E+02  0.25500000000E-02 0. -1.
          2   -1    0    0  501    0  0.00000000000E+00 -0.00000000000E+00 -0.17510379389E+04  0.17510379389E+04  0.25500000000E-02 0.  1.
   -5000001    1    1    2    0    0 -0.10162761134E+03  0.77150962746E+02 -0.89882514305E+03  0.94163001238E+03  0.25000000000E+03 0.  0.
    5000001    1    1    2    0    0  0.10162761134E+03 -0.77150962746E+02 -0.80710445726E+03  0.85451626513E+03  0.25000000000E+03 0.  0.
<mgrwt>
<rscale>  0 0.56209043E+03</rscale>
<asrwt>0</asrwt>
<pdfrwt beam="1">  1        2 0.26939040E+00 0.56209043E+03</pdfrwt>
<pdfrwt beam="2">  1       -2 0.69397457E-02 0.56209043E+03</pdfrwt>
<totfact> 0.11639778E+03</totfact>
</mgrwt>
</event>
<event>
 4    1  0.1714834E-005  0.5278967E+03  0.7818608E-02  0.1006743E+00
         -2   -1    0    0    0  501 -0.00000000000E+00  0.00000000000E+00  0.11400306773E+04  0.11400306773E+04  0.25500000000E-02 0. -1.
          2   -1    0    0  501    0  0.00000000000E+00 -0.00000000000E+00 -0.61111285411E+02  0.61111285464E+02  0.25500000000E-02 0.  1.
   -5000001    1    1    2    0    0 -0.31170459820E+02 -0.73107227451E+02  0.60589308535E+03  0.66024442076E+03  0.25000000000E+03 0.  0.
    5000001    1    1    2    0    0  0.31170459820E+02  0.73107227451E+02  0.47302630655E+03  0.54089754201E+03  0.25000000000E+03 0.  0.
<mgrwt>
<rscale>  0 0.52789673E+03</rscale>
<asrwt>0</asrwt>
<pdfrwt beam="1">  1        2 0.94017373E-02 0.52789673E+03</pdfrwt>
<pdfrwt beam="2">  1       -2 0.17538931E+00 0.52789673E+03</pdfrwt>
<totfact> 0.14356566E+02</totfact>
</mgrwt>
</event>
<event>
 4    1  0.1714834E-005  0.1243749E+04  0.7818608E-02  0.9075402E-01
          2   -1    0    0  501    0  0.00000000000E+00  0.00000000000E+00  0.96703680718E+03  0.96703680718E+03  0.25500000000E-02 0.  1.
         -2   -1    0    0    0  501 -0.00000000000E+00 -0.00000000000E+00 -0.39991000763E+03  0.39991000764E+03  0.25500000000E-02 0. -1.
   -5000001    1    1    2    0    0  0.67942293635E+02  0.56303302747E+03  0.33966201732E+03  0.70674792628E+03  0.25000000000E+03 0.  0.
    5000001    1    1    2    0    0 -0.67942293635E+02 -0.56303302747E+03  0.22746478222E+03  0.66019888855E+03  0.25000000000E+03 0.  0.
<mgrwt>
<rscale>  0 0.12437487E+04</rscale>
<asrwt>0</asrwt>
<pdfrwt beam="1">  1        2 0.14877489E+00 0.12437487E+04</pdfrwt>
<pdfrwt beam="2">  1       -2 0.61524617E-01 0.12437487E+04</pdfrwt>
<totfact> 0.63940242E+01</totfact>
</mgrwt>
</event>
<event>
 4    1  0.1714834E-005  0.8102468E+03  0.7818608E-02  0.9545303E-01
         -2   -1    0    0    0  501 -0.00000000000E+00  0.00000000000E+00  0.40532756628E+03  0.40532756629E+03  0.25500000000E-02 0. -1.
          2   -1    0    0  501    0  0.00000000000E+00 -0.00000000000E+00 -0.40491936445E+03  0.40491936446E+03  0.25500000000E-02 0.  1.
   -5000001    1    1    2    0    0  0.28066809290E+03  0.67137050015E+02  0.13564051898E+03  0.40519169814E+03  0.25000000000E+03 0.  0.
    5000001    1    1    2    0    0 -0.28066809290E+03 -0.67137050015E+02 -0.13523231715E+03  0.40505523260E+03  0.25000000000E+03 0.  0.
<mgrwt>
<rscale>  0 0.81024683E+03</rscale>
<asrwt>0</asrwt>
<pdfrwt beam="1">  1        2 0.62295287E-01 0.81024683E+03</pdfrwt>
<pdfrwt beam="2">  1       -2 0.62358087E-01 0.81024683E+03</pdfrwt>
<totfact> 0.18852262E+02</totfact>
</mgrwt>
</event>
<event>
 4    1  0.1714834E-005  0.7001272E+03  0.7818608E-02  0.9717015E-01
         -2   -1    0    0    0  501 -0.00000000000E+00  0.00000000000E+00  0.80479073147E+02  0.80479073188E+02  0.25500000000E-02 0. -1.
          2   -1    0    0  501    0  0.00000000000E+00 -0.00000000000E+00 -0.15226879460E+04  0.15226879460E+04  0.25500000000E-02 0.  1.
   -5000001    1    1    2    0    0  0.15326871230E+03 -0.18603873331E+03 -0.82203357623E+03  0.89237935258E+03  0.25000000000E+03 0.  0.
    5000001    1    1    2    0    0 -0.15326871230E+03  0.18603873331E+03 -0.62017529663E+03  0.71078766662E+03  0.25000000000E+03 0.  0.
<mgrwt>
<rscale>  0 0.70012717E+03</rscale>
<asrwt>0</asrwt>
<pdfrwt beam="1">  1        2 0.23425966E+00 0.70012717E+03</pdfrwt>
<pdfrwt beam="2">  1       -2 0.12381397E-01 0.70012717E+03</pdfrwt>
<totfact> 0.60474424E+02</totfact>
</mgrwt>
</event>
<event>
 4    1  0.1714834E-005  0.8956153E+03  0.7818608E-02  0.9431079E-01
          2   -1    0    0  501    0  0.00000000000E+00  0.00000000000E+00  0.12659370889E+04  0.12659370889E+04  0.25500000000E-02 0. -1.
         -2   -1    0    0    0  501 -0.00000000000E+00 -0.00000000000E+00 -0.15840573059E+03  0.15840573061E+03  0.25500000000E-02 0.  1.
   -5000001    1    1    2    0    0  0.30192415516E+03  0.21230311156E+03  0.62125510835E+03  0.76464940744E+03  0.25000000000E+03 0.  0.
    5000001    1    1    2    0    0 -0.30192415516E+03 -0.21230311156E+03  0.48627624992E+03  0.65969341203E+03  0.25000000000E+03 0.  0.
<mgrwt>
<rscale>  0 0.89561530E+03</rscale>
<asrwt>0</asrwt>
<pdfrwt beam="1">  1        2 0.19475955E+00 0.89561530E+03</pdfrwt>
<pdfrwt beam="2">  1       -2 0.24370113E-01 0.89561530E+03</pdfrwt>
<totfact> 0.26044012E+02</totfact>
</mgrwt>
</event>
<event>
 4    1  0.1714834E-005  0.7773153E+03  0.7818608E-02  0.9593445E-01
          2   -1    0    0  501    0  0.00000000000E+00  0.00000000000E+00  0.20081588420E+04  0.20081588420E+04  0.25500000000E-02 0.  1.
         -2   -1    0    0    0  501 -0.00000000000E+00 -0.00000000000E+00 -0.75220528376E+02  0.75220528419E+02  0.25500000000E-02 0. -1.
   -5000001    1    1    2    0    0  0.12820836850E+03  0.26752096898E+03  0.90361720493E+03  0.98337627978E+03  0.25000000000E+03 0.  0.
    5000001    1    1    2    0    0 -0.12820836850E+03 -0.26752096898E+03  0.10293211087E+04  0.11000030906E+04  0.25000000000E+03 0.  0.
<mgrwt>
<rscale>  0 0.77731530E+03</rscale>
<asrwt>0</asrwt>
<pdfrwt beam="1">  1        2 0.30894751E+00 0.77731530E+03</pdfrwt>
<pdfrwt beam="2">  1       -2 0.11572389E-01 0.77731530E+03</pdfrwt>
<totfact> 0.36502469E+02</totfact>
</mgrwt>
</event>
<event>
 4    1  0.1714834E-005  0.9504710E+03  0.7818608E-02  0.9364600E-01
         -2   -1    0    0    0  501 -0.00000000000E+00  0.00000000000E+00  0.68417949148E+03  0.68417949149E+03  0.25500000000E-02 0. -1.
          2   -1    0    0  501    0  0.00000000000E+00 -0.00000000000E+00 -0.33010164436E+03  0.33010164437E+03  0.25500000000E-02 0.  1.
   -5000001    1    1    2    0    0 -0.21448892240E+03  0.31310390178E+03  0.28752328311E+02  0.45537484288E+03  0.25000000000E+03 0.  0.
    5000001    1    1    2    0    0  0.21448892240E+03 -0.31310390178E+03  0.32532551881E+03  0.55890629298E+03  0.25000000000E+03 0.  0.
<mgrwt>
<rscale>  0 0.95047099E+03</rscale>
<asrwt>0</asrwt>
<pdfrwt beam="1">  1        2 0.50784870E-01 0.95047099E+03</pdfrwt>
<pdfrwt beam="2">  1       -2 0.10525838E+00 0.95047099E+03</pdfrwt>
<totfact> 0.72170351E+01</totfact>
</mgrwt>
</event>
<event>
 4    1  0.1714834E-005  0.1914244E+04  0.7818608E-02  0.8647799E-01
          2   -1    0    0  501    0  0.00000000000E+00  0.00000000000E+00  0.18290064029E+04  0.18290064029E+04  0.25500000000E-02 0.  1.
         -2   -1    0    0    0  501 -0.00000000000E+00 -0.00000000000E+00 -0.50086325988E+03  0.50086325988E+03  0.25500000000E-02 0. -1.
   -5000001    1    1    2    0    0 -0.84389558732E+03  0.34886588229E+03  0.49317545455E+03  0.10675154308E+04  0.25000000000E+03 0.  0.
    5000001    1    1    2    0    0  0.84389558732E+03 -0.34886588229E+03  0.83496768849E+03  0.12623542320E+04  0.25000000000E+03 0.  0.
<mgrwt>
<rscale>  0 0.19142436E+04</rscale>
<asrwt>0</asrwt>
<pdfrwt beam="1">  1        2 0.28138560E+00 0.19142436E+04</pdfrwt>
<pdfrwt beam="2">  1       -2 0.77055886E-01 0.19142436E+04</pdfrwt>
<totfact> 0.11693874E+01</totfact>
</mgrwt>
</event>
<event>
 4    1  0.1714834E-005  0.8772009E+03  0.7818608E-02  0.9454539E-01
         -2   -1    0    0    0  501 -0.00000000000E+00  0.00000000000E+00  0.46535433499E+03  0.46535433500E+03  0.25500000000E-02 0. -1.
          2   -1    0    0  501    0  0.00000000000E+00 -0.00000000000E+00 -0.41338466069E+03  0.41338466070E+03  0.25500000000E-02 0.  1.
   -5000001    1    1    2    0    0 -0.60220736296E+02  0.34488978423E+03  0.11154445451E+03  0.44442959586E+03  0.25000000000E+03 0.  0.
    5000001    1    1    2    0    0  0.60220736296E+02 -0.34488978423E+03 -0.59574780211E+02  0.43430939983E+03  0.25000000000E+03 0.  0.
<mgrwt>
<rscale>  0 0.87720088E+03</rscale>
<asrwt>0</asrwt>
<pdfrwt beam="1">  1        2 0.63597640E-01 0.87720088E+03</pdfrwt>
<pdfrwt beam="2">  1       -2 0.71592974E-01 0.87720088E+03</pdfrwt>
<totfact> 0.13623824E+02</totfact>
</mgrwt>
</event>
<event>
 4    1  0.1714834E-005  0.8962028E+03  0.7818608E-02  0.9430341E-01
         -2   -1    0    0    0  501 -0.00000000000E+00  0.00000000000E+00  0.88398461161E+02  0.88398461198E+02  0.25500000000E-02 0. -1.
          2   -1    0    0  501    0  0.00000000000E+00 -0.00000000000E+00 -0.22714746874E+04  0.22714746874E+04  0.25500000000E-02 0.  1.
   -5000001    1    1    2    0    0 -0.57270868954E+02  0.36743484978E+03 -0.10848012018E+04  0.11737043787E+04  0.25000000000E+03 0.  0.
    5000001    1    1    2    0    0  0.57270868954E+02 -0.36743484978E+03 -0.10982750244E+04  0.11861687699E+04  0.25000000000E+03 0.  0.
<mgrwt>
<rscale>  0 0.89620281E+03</rscale>
<asrwt>0</asrwt>
<pdfrwt beam="1">  1        2 0.34945760E+00 0.89620281E+03</pdfrwt>
<pdfrwt beam="2">  1       -2 0.13599765E-01 0.89620281E+03</pdfrwt>
<totfact> 0.19791628E+02</totfact>
</mgrwt>
</event>
<event>
 4    1  0.1714834E-005  0.7484148E+03  0.7818608E-02  0.9637841E-01
         -2   -1    0    0    0  501 -0.00000000000E+00  0.00000000000E+00  0.59620280854E+03  0.59620280854E+03  0.25500000000E-02 0. -1.
          2   -1    0    0  501    0  0.00000000000E+00 -0.00000000000E+00 -0.23487171698E+03  0.23487171699E+03  0.25500000000E-02 0.  1.
   -5000001    1    1    2    0    0  0.27479428822E+03 -0.41770183457E+02  0.19906441482E+03  0.42353664577E+03  0.25000000000E+03 0.  0.
    5000001    1    1    2    0    0 -0.27479428822E+03  0.41770183457E+02  0.16226667674E+03  0.40753787977E+03  0.25000000000E+03 0.  0.
<mgrwt>
<rscale>  0 0.74841480E+03</rscale>
<asrwt>0</asrwt>
<pdfrwt beam="1">  1        2 0.36134111E-01 0.74841480E+03</pdfrwt>
<pdfrwt beam="2">  1       -2 0.91723508E-01 0.74841480E+03</pdfrwt>
<totfact> 0.14726840E+02</totfact>
</mgrwt>
</event>
<event>
 4    1  0.1714834E-005  0.7796463E+03  0.7818608E-02  0.9589955E-01
         -2   -1    0    0    0  501 -0.00000000000E+00  0.00000000000E+00  0.61222622361E+03  0.61222622361E+03  0.25500000000E-02 0. -1.
          2   -1    0    0  501    0  0.00000000000E+00 -0.00000000000E+00 -0.24821230869E+03  0.24821230871E+03  0.25500000000E-02 0.  1.
   -5000001    1    1    2    0    0  0.20693298857E+03  0.21276037904E+03  0.22291332420E+03  0.44752496104E+03  0.25000000000E+03 0.  0.
    5000001    1    1    2    0    0 -0.20693298857E+03 -0.21276037904E+03  0.14110059071E+03  0.41291357128E+03  0.25000000000E+03 0.  0.
<mgrwt>
<rscale>  0 0.77964629E+03</rscale>
<asrwt>0</asrwt>
<pdfrwt beam="1">  1        2 0.38186509E-01 0.77964629E+03</pdfrwt>
<pdfrwt beam="2">  1       -2 0.94188649E-01 0.77964629E+03</pdfrwt>
<totfact> 0.13002285E+02</totfact>
</mgrwt>
</event>
<event>
 4    1  0.1714834E-005  0.7464344E+03  0.7818608E-02  0.9640961E-01
         -2   -1    0    0    0  501 -0.00000000000E+00  0.00000000000E+00  0.16841474959E+03  0.16841474961E+03  0.25500000000E-02 0. -1.
          2   -1    0    0  501    0  0.00000000000E+00 -0.00000000000E+00 -0.82707171765E+03  0.82707171765E+03  0.25500000000E-02 0.  1.
   -5000001    1    1    2    0    0 -0.26970720902E+03  0.14642081991E+01 -0.41416988619E+03  0.55387798036E+03  0.25000000000E+03 0.  0.
    5000001    1    1    2    0    0  0.26970720902E+03 -0.14642081991E+01 -0.24448708187E+03  0.44160848690E+03  0.25000000000E+03 0.  0.
<mgrwt>
<rscale>  0 0.74643439E+03</rscale>
<asrwt>0</asrwt>
<pdfrwt beam="1">  1        2 0.12724180E+00 0.74643439E+03</pdfrwt>
<pdfrwt beam="2">  1       -2 0.25909962E-01 0.74643439E+03</pdfrwt>
<totfact> 0.44489901E+02</totfact>
</mgrwt>
</event>
<event>
 4    1  0.1714834E-005  0.1121332E+04  0.7818608E-02  0.9184646E-01
          2   -1    0    0  501    0  0.00000000000E+00  0.00000000000E+00  0.14277260285E+04  0.14277260285E+04  0.25500000000E-02 0. -1.
         -2   -1    0    0    0  501 -0.00000000000E+00 -0.00000000000E+00 -0.22017272433E+03  0.22017272435E+03  0.25500000000E-02 0.  1.
   -5000001    1    1    2    0    0  0.25145416519E+03 -0.18609472218E+03  0.27094126850E+02  0.40136583627E+03  0.25000000000E+03 0.  0.
    5000001    1    1    2    0    0 -0.25145416519E+03  0.18609472218E+03  0.11804591774E+04  0.12465329166E+04  0.25000000000E+03 0.  0.
<mgrwt>
<rscale>  0 0.11213319E+04</rscale>
<asrwt>0</asrwt>
<pdfrwt beam="1">  1        2 0.21965015E+00 0.11213319E+04</pdfrwt>
<pdfrwt beam="2">  1       -2 0.33872729E-01 0.11213319E+04</pdfrwt>
<totfact> 0.11273226E+02</totfact>
</mgrwt>
</event>
<event>
 4    1  0.1714834E-005  0.6892619E+03  0.7818608E-02  0.9735774E-01
          2   -1    0    0  501    0  0.00000000000E+00  0.00000000000E+00  0.81615078239E+02  0.81615078279E+02  0.25500000000E-02 0.  1.
         -2   -1    0    0    0  501 -0.00000000000E+00 -0.00000000000E+00 -0.14552519015E+04  0.14552519015E+04  0.25500000000E-02 0. -1.
   -5000001    1    1    2    0    0 -0.14093475741E+03  0.18939840501E+03 -0.63518990679E+03  0.72228843224E+03  0.25000000000E+03 0.  0.
    5000001    1    1    2    0    0  0.14093475741E+03 -0.18939840501E+03 -0.73844691648E+03  0.81457854755E+03  0.25000000000E+03 0.  0.
<mgrwt>
<rscale>  0 0.68926192E+03</rscale>
<asrwt>0</asrwt>
<pdfrwt beam="1">  1        2 0.12556167E-01 0.68926192E+03</pdfrwt>
<pdfrwt beam="2">  1       -2 0.22388489E+00 0.68926192E+03</pdfrwt>
<totfact> 0.47829954E+01</totfact>
</mgrwt>
</event>
<event>
 4    1  0.1714834E-005  0.5111399E+03  0.7818608E-02  0.1010911E+00
         -2   -1    0    0    0  501 -0.00000000000E+00  0.00000000000E+00  0.12477813130E+03  0.12477813133E+03  0.25500000000E-02 0. -1.
          2   -1    0    0  501    0  0.00000000000E+00 -0.00000000000E+00 -0.52345712353E+03  0.52345712354E+03  0.25500000000E-02 0.  1.
   -5000001    1    1    2    0    0  0.50138900127E+02  0.46957918441E+01 -0.17811661260E+03  0.31106508556E+03  0.25000000000E+03 0.  0.
    5000001    1    1    2    0    0 -0.50138900127E+02 -0.46957918441E+01 -0.22056237962E+03  0.33717016931E+03  0.25000000000E+03 0.  0.
<mgrwt>
<rscale>  0 0.51113991E+03</rscale>
<asrwt>0</asrwt>
<pdfrwt beam="1">  1        2 0.80531864E-01 0.51113991E+03</pdfrwt>
<pdfrwt beam="2">  1       -2 0.19196636E-01 0.51113991E+03</pdfrwt>
<totfact> 0.13384937E+03</totfact>
</mgrwt>
</event>
<event>
 4    1  0.1714834E-005  0.8798557E+03  0.7818608E-02  0.9451119E-01
         -2   -1    0    0    0  501 -0.00000000000E+00  0.00000000000E+00  0.73790494512E+03  0.73790494513E+03  0.25500000000E-02 0. -1.
          2   -1    0    0  501    0  0.00000000000E+00 -0.00000000000E+00 -0.26227838949E+03  0.26227838950E+03  0.25500000000E-02 0.  1.
   -5000001    1    1    2    0    0  0.30255511330E+03  0.99177264067E+02  0.42037236617E+02  0.40699245147E+03  0.25000000000E+03 0.  0.
    5000001    1    1    2    0    0 -0.30255511330E+03 -0.99177264067E+02  0.43358931902E+03  0.59319088316E+03  0.25000000000E+03 0.  0.
<mgrwt>
<rscale>  0 0.87985572E+03</rscale>
<asrwt>0</asrwt>
<pdfrwt beam="1">  1        2 0.40350521E-01 0.87985572E+03</pdfrwt>
<pdfrwt beam="2">  1       -2 0.11352384E+00 0.87985572E+03</pdfrwt>
<totfact> 0.77921801E+01</totfact>
</mgrwt>
</event>
<event>
 4    1  0.1714834E-005  0.1385699E+04  0.7818608E-02  0.8964236E-01
          2   -1    0    0  501    0  0.00000000000E+00  0.00000000000E+00  0.12922780321E+04  0.12922780321E+04  0.25500000000E-02 0.  1.
         -2   -1    0    0    0  501 -0.00000000000E+00 -0.00000000000E+00 -0.37146825989E+03  0.37146825990E+03  0.25500000000E-02 0. -1.
   -5000001    1    1    2    0    0 -0.52079491352E+03 -0.42244375642E+02  0.39532378313E+01  0.57924740596E+03  0.25000000000E+03 0.  0.
    5000001    1    1    2    0    0  0.52079491352E+03  0.42244375642E+02  0.91685653440E+03  0.10844988861E+04  0.25000000000E+03 0.  0.
<mgrwt>
<rscale>  0 0.13856988E+04</rscale>
<asrwt>0</asrwt>
<pdfrwt beam="1">  1        2 0.19881200E+00 0.13856988E+04</pdfrwt>
<pdfrwt beam="2">  1       -2 0.57148964E-01 0.13856988E+04</pdfrwt>
<totfact> 0.46698999E+01</totfact>
</mgrwt>
</event>
<event>
 4    1  0.1714834E-005  0.6661227E+03  0.7818608E-02  0.9776988E-01
         -2   -1    0    0    0  501 -0.00000000000E+00  0.00000000000E+00  0.50431219301E+03  0.50431219301E+03  0.25500000000E-02 0. -1.
          2   -1    0    0  501    0  0.00000000000E+00 -0.00000000000E+00 -0.21996271166E+03  0.21996271168E+03  0.25500000000E-02 0.  1.
   -5000001    1    1    2    0    0 -0.28234435451E+01 -0.21581807590E+03  0.95478250195E+02  0.34380446475E+03  0.25000000000E+03 0.  0.
    5000001    1    1    2    0    0  0.28234435451E+01  0.21581807590E+03  0.18887123115E+03  0.38047043995E+03  0.25000000000E+03 0.  0.
<mgrwt>
<rscale>  0 0.66612274E+03</rscale>
<asrwt>0</asrwt>
<pdfrwt beam="1">  1        2 0.33840417E-01 0.66612274E+03</pdfrwt>
<pdfrwt beam="2">  1       -2 0.77586491E-01 0.66612274E+03</pdfrwt>
<totfact> 0.23241486E+02</totfact>
</mgrwt>
</event>
<event>
 4    1  0.1714834E-005  0.5683467E+03  0.7818608E-02  0.9973344E-01
         -2   -1    0    0    0  501 -0.00000000000E+00  0.00000000000E+00  0.78205854593E+02  0.78205854635E+02  0.25500000000E-02 0. -1.
          2   -1    0    0  501    0  0.00000000000E+00 -0.00000000000E+00 -0.10325887191E+04  0.10325887191E+04  0.25500000000E-02 0.  1.
   -5000001    1    1    2    0    0  0.65369314925E+02 -0.65983466165E+01 -0.24645428890E+03  0.35715039134E+03  0.25000000000E+03 0.  0.
    5000001    1    1    2    0    0 -0.65369314925E+02  0.65983466165E+01 -0.70792857556E+03  0.75364418236E+03  0.25000000000E+03 0.  0.
<mgrwt>
<rscale>  0 0.56834667E+03</rscale>
<asrwt>0</asrwt>
<pdfrwt beam="1">  1        2 0.15885979E+00 0.56834667E+03</pdfrwt>
<pdfrwt beam="2">  1       -2 0.12031671E-01 0.56834667E+03</pdfrwt>
<totfact> 0.12269109E+03</totfact>
</mgrwt>
</event>
<event>
 4    1  0.1714834E-005  0.5453167E+03  0.7818608E-02  0.1002584E+00
          2   -1    0    0  501    0  0.00000000000E+00  0.00000000000E+00  0.88087480566E+03  0.88087480566E+03  0.25500000000E-02 0.  1.
         -2   -1    0    0    0  501 -0.00000000000E+00 -0.00000000000E+00 -0.84396293569E+02  0.84396293607E+02  0.25500000000E-02 0. -1.
   -5000001    1    1    2    0    0 -0.43359900827E+01 -0.72551552730E+02  0.54160776659E+03  0.60093385780E+03  0.25000000000E+03 0.  0.
    5000001    1    1    2    0    0  0.43359900827E+01  0.72551552730E+02  0.25487074550E+03  0.36433724147E+03  0.25000000000E+03 0.  0.
<mgrwt>
<rscale>  0 0.54531667E+03</rscale>
<asrwt>0</asrwt>
<pdfrwt beam="1">  1        2 0.13551921E+00 0.54531667E+03</pdfrwt>
<pdfrwt beam="2">  1       -2 0.12984045E-01 0.54531667E+03</pdfrwt>
<totfact> 0.13564228E+03</totfact>
</mgrwt>
</event>
<event>
 4    1  0.1714834E-005  0.1247949E+04  0.7818608E-02  0.9071892E-01
          2   -1    0    0  501    0  0.00000000000E+00  0.00000000000E+00  0.19098745749E+04  0.19098745749E+04  0.25500000000E-02 0.  1.
         -2   -1    0    0    0  501 -0.00000000000E+00 -0.00000000000E+00 -0.20385852169E+03  0.20385852171E+03  0.25500000000E-02 0. -1.
   -5000001    1    1    2    0    0 -0.16136360019E+03  0.49678339342E+03  0.12466482339E+04  0.13745776699E+04  0.25000000000E+03 0.  0.
    5000001    1    1    2    0    0  0.16136360019E+03 -0.49678339342E+03  0.45936781928E+03  0.73915542671E+03  0.25000000000E+03 0.  0.
<mgrwt>
<rscale>  0 0.12479490E+04</rscale>
<asrwt>0</asrwt>
<pdfrwt beam="1">  1        2 0.29382686E+00 0.12479490E+04</pdfrwt>
<pdfrwt beam="2">  1       -2 0.31362849E-01 0.12479490E+04</pdfrwt>
<totfact> 0.69629764E+01</totfact>
</mgrwt>
</event>
<event>
 4    1  0.1714834E-005  0.1033730E+04  0.7818608E-02  0.9272305E-01
         -2   -1    0    0    0  501 -0.00000000000E+00  0.00000000000E+00  0.97637655993E+02  0.97637656026E+02  0.25500000000E-02 0. -1.
          2   -1    0    0  501    0  0.00000000000E+00 -0.00000000000E+00 -0.27361312988E+04  0.27361312988E+04  0.25500000000E-02 0.  1.
   -5000001    1    1    2    0    0 -0.15758732436E+03  0.36854045067E+03 -0.74426761034E+03  0.88152714331E+03  0.25000000000E+03 0.  0.
    5000001    1    1    2    0    0  0.15758732436E+03 -0.36854045067E+03 -0.18942260324E+04  0.19522418115E+04  0.25000000000E+03 0.  0.
<mgrwt>
<rscale>  0 0.10337300E+04</rscale>
<asrwt>0</asrwt>
<pdfrwt beam="1">  1        2 0.42094322E+00 0.10337300E+04</pdfrwt>
<pdfrwt beam="2">  1       -2 0.15021180E-01 0.10337300E+04</pdfrwt>
<totfact> 0.89627446E+01</totfact>
</mgrwt>
</event>
<event>
 4    1  0.1714834E-005  0.6504034E+03  0.7818608E-02  0.9806022E-01
          2   -1    0    0  501    0  0.00000000000E+00  0.00000000000E+00  0.29324091047E+04  0.29324091047E+04  0.25500000000E-02 0.  1.
         -2   -1    0    0    0  501 -0.00000000000E+00 -0.00000000000E+00 -0.36064597344E+02  0.36064597435E+02  0.25500000000E-02 0. -1.
   -5000001    1    1    2    0    0  0.21609810196E+02  0.20664046249E+03  0.14912025829E+04  0.15262216117E+04  0.25000000000E+03 0.  0.
    5000001    1    1    2    0    0 -0.21609810196E+02 -0.20664046249E+03  0.14051419245E+04  0.14422520905E+04  0.25000000000E+03 0.  0.
<mgrwt>
<rscale>  0 0.65040342E+03</rscale>
<asrwt>0</asrwt>
<pdfrwt beam="1">  1        2 0.45114001E+00 0.65040342E+03</pdfrwt>
<pdfrwt beam="2">  1       -2 0.55483977E-02 0.65040342E+03</pdfrwt>
<totfact> 0.35833900E+02</totfact>
</mgrwt>
</event>
<event>
 4    1  0.1714834E-005  0.7058156E+03  0.7818608E-02  0.9707338E-01
         -2   -1    0    0    0  501 -0.00000000000E+00  0.00000000000E+00  0.36746423524E+02  0.36746423613E+02  0.25500000000E-02 0. -1.
          2   -1    0    0  501    0  0.00000000000E+00 -0.00000000000E+00 -0.33892802951E+04  0.33892802951E+04  0.25500000000E-02 0.  1.
   -5000001    1    1    2    0    0 -0.22336017019E+03  0.95992729429E+02 -0.19394394942E+04  0.19705405151E+04  0.25000000000E+03 0.  0.
    5000001    1    1    2    0    0  0.22336017019E+03 -0.95992729429E+02 -0.14130943774E+04  0.14554862037E+04  0.25000000000E+03 0.  0.
<mgrwt>
<rscale>  0 0.70581564E+03</rscale>
<asrwt>0</asrwt>
<pdfrwt beam="1">  1        2 0.52142749E+00 0.70581564E+03</pdfrwt>
<pdfrwt beam="2">  1       -2 0.56532986E-02 0.70581564E+03</pdfrwt>
<totfact> 0.17806879E+02</totfact>
</mgrwt>
</event>
<event>
 4    1  0.1714834E-005  0.6588170E+03  0.7818608E-02  0.9790374E-01
         -2   -1    0    0    0  501 -0.00000000000E+00  0.00000000000E+00  0.72335552340E+02  0.72335552385E+02  0.25500000000E-02 0. -1.
          2   -1    0    0  501    0  0.00000000000E+00 -0.00000000000E+00 -0.15000917499E+04  0.15000917499E+04  0.25500000000E-02 0.  1.
   -5000001    1    1    2    0    0 -0.20056186630E+03  0.67471726601E+02 -0.79766841113E+03  0.86229483949E+03  0.25000000000E+03 0.  0.
    5000001    1    1    2    0    0  0.20056186630E+03 -0.67471726601E+02 -0.63008778644E+03  0.71013246280E+03  0.25000000000E+03 0.  0.
<mgrwt>
<rscale>  0 0.65881702E+03</rscale>
<asrwt>0</asrwt>
<pdfrwt beam="1">  1        2 0.23078332E+00 0.65881702E+03</pdfrwt>
<pdfrwt beam="2">  1       -2 0.11128548E-01 0.65881702E+03</pdfrwt>
<totfact> 0.74367736E+02</totfact>
</mgrwt>
</event>
<event>
 4    1  0.1714834E-005  0.7315033E+03  0.7818608E-02  0.9664824E-01
          2   -1    0    0  501    0  0.00000000000E+00  0.00000000000E+00  0.15438594349E+04  0.15438594349E+04  0.25500000000E-02 0.  1.
         -2   -1    0    0    0  501 -0.00000000000E+00 -0.00000000000E+00 -0.86649251564E+02  0.86649251601E+02  0.25500000000E-02 0. -1.
   -5000001    1    1    2    0    0  0.70200587442E+02  0.17175560024E+03  0.11564663142E+04  0.11976403653E+04  0.25000000000E+03 0.  0.
    5000001    1    1    2    0    0 -0.70200587442E+02 -0.17175560024E+03  0.30074386915E+03  0.43286832123E+03  0.25000000000E+03 0.  0.
<mgrwt>
<rscale>  0 0.73150329E+03</rscale>
<asrwt>0</asrwt>
<pdfrwt beam="1">  1        2 0.23751682E+00 0.73150329E+03</pdfrwt>
<pdfrwt beam="2">  1       -2 0.13330655E-01 0.73150329E+03</pdfrwt>
<totfact> 0.51966465E+02</totfact>
</mgrwt>
</event>
<event>
 4    1  0.1714834E-005  0.6574575E+03  0.7818608E-02  0.9792886E-01
          2   -1    0    0  501    0  0.00000000000E+00  0.00000000000E+00  0.18668385744E+03  0.18668385746E+03  0.25500000000E-02 0.  1.
         -2   -1    0    0    0  501 -0.00000000000E+00 -0.00000000000E+00 -0.57885337808E+03  0.57885337809E+03  0.25500000000E-02 0. -1.
   -5000001    1    1    2    0    0 -0.17280148953E+03 -0.80111645710E+02 -0.83889521024E+02  0.32529322511E+03  0.25000000000E+03 0.  0.
    5000001    1    1    2    0    0  0.17280148953E+03  0.80111645710E+02 -0.30827999962E+03  0.44024401044E+03  0.25000000000E+03 0.  0.
<mgrwt>
<rscale>  0 0.65745747E+03</rscale>
<asrwt>0</asrwt>
<pdfrwt beam="1">  1        2 0.28720594E-01 0.65745747E+03</pdfrwt>
<pdfrwt beam="2">  1       -2 0.89054365E-01 0.65745747E+03</pdfrwt>
<totfact> 0.20469451E+02</totfact>
</mgrwt>
</event>
<event>
 4    1  0.1714834E-005  0.7213237E+03  0.7818608E-02  0.9681445E-01
         -2   -1    0    0    0  501 -0.00000000000E+00  0.00000000000E+00  0.15727933634E+03  0.15727933636E+03  0.25500000000E-02 0. -1.
          2   -1    0    0  501    0  0.00000000000E+00 -0.00000000000E+00 -0.82704427863E+03  0.82704427864E+03  0.25500000000E-02 0.  1.
   -5000001    1    1    2    0    0 -0.24852565362E+03 -0.14153076670E+02 -0.43710663571E+03  0.56171836454E+03  0.25000000000E+03 0.  0.
    5000001    1    1    2    0    0  0.24852565362E+03  0.14153076670E+02 -0.23265830659E+03  0.42260525045E+03  0.25000000000E+03 0.  0.
<mgrwt>
<rscale>  0 0.72132371E+03</rscale>
<asrwt>0</asrwt>
<pdfrwt beam="1">  1        2 0.12723758E+00 0.72132371E+03</pdfrwt>
<pdfrwt beam="2">  1       -2 0.24196821E-01 0.72132371E+03</pdfrwt>
<totfact> 0.50380585E+02</totfact>
</mgrwt>
</event>
<event>
 4    1  0.1714834E-005  0.1108772E+04  0.7818608E-02  0.9196684E-01
         -2   -1    0    0    0  501 -0.00000000000E+00  0.00000000000E+00  0.17958213316E+03  0.17958213318E+03  0.25500000000E-02 0. -1.
          2   -1    0    0  501    0  0.00000000000E+00 -0.00000000000E+00 -0.17114379956E+04  0.17114379956E+04  0.25500000000E-02 0.  1.
   -5000001    1    1    2    0    0  0.48362748735E+03  0.10079155625E+03 -0.81384034152E+03  0.98432239933E+03  0.25000000000E+03 0.  0.
    5000001    1    1    2    0    0 -0.48362748735E+03 -0.10079155625E+03 -0.71801552096E+03  0.90669772949E+03  0.25000000000E+03 0.  0.
<mgrwt>
<rscale>  0 0.11087717E+04</rscale>
<asrwt>0</asrwt>
<pdfrwt beam="1">  1        2 0.26329814E+00 0.11087717E+04</pdfrwt>
<pdfrwt beam="2">  1       -2 0.27628022E-01 0.11087717E+04</pdfrwt>
<totfact> 0.11459004E+02</totfact>
</mgrwt>
</event>
<event>
 4    1  0.1714834E-005  0.8456831E+03  0.7818608E-02  0.9496149E-01
          2   -1    0    0  501    0  0.00000000000E+00  0.00000000000E+00  0.12639937119E+04  0.12639937119E+04  0.25500000000E-02 0.  1.
         -2   -1    0    0    0  501 -0.00000000000E+00 -0.00000000000E+00 -0.14145242016E+03  0.14145242019E+03  0.25500000000E-02 0. -1.
   -5000001    1    1    2    0    0 -0.10893474357E+03  0.31105963378E+03  0.41572240956E+03  0.58647250228E+03  0.25000000000E+03 0.  0.
    5000001    1    1    2    0    0  0.10893474357E+03 -0.31105963378E+03  0.70681888221E+03  0.81897362984E+03  0.25000000000E+03 0.  0.
<mgrwt>
<rscale>  0 0.84568308E+03</rscale>
<asrwt>0</asrwt>
<pdfrwt beam="1">  1        2 0.19446057E+00 0.84568308E+03</pdfrwt>
<pdfrwt beam="2">  1       -2 0.21761911E-01 0.84568308E+03</pdfrwt>
<totfact> 0.32052739E+02</totfact>
</mgrwt>
</event>
<event>
 4    1  0.1714834E-005  0.9008404E+03  0.7818608E-02  0.9424531E-01
          2   -1    0    0  501    0  0.00000000000E+00  0.00000000000E+00  0.20330089942E+04  0.20330089942E+04  0.25500000000E-02 0.  1.
         -2   -1    0    0    0  501 -0.00000000000E+00 -0.00000000000E+00 -0.99792160361E+02  0.99792160394E+02  0.25500000000E-02 0. -1.
   -5000001    1    1    2    0    0  0.65180663961E+02  0.36465100814E+03  0.83352911493E+03  0.94577463602E+03  0.25000000000E+03 0.  0.
    5000001    1    1    2    0    0 -0.65180663961E+02 -0.36465100814E+03  0.10996877189E+04  0.11870265186E+04  0.25000000000E+03 0.  0.
<mgrwt>
<rscale>  0 0.90084041E+03</rscale>
<asrwt>0</asrwt>
<pdfrwt beam="1">  1        2 0.31277060E+00 0.90084041E+03</pdfrwt>
<pdfrwt beam="2">  1       -2 0.15352641E-01 0.90084041E+03</pdfrwt>
<totfact> 0.21836406E+02</totfact>
</mgrwt>
</event>
<event>
 4    1  0.1714834E-005  0.6572317E+03  0.7818608E-02  0.9793303E-01
          2   -1    0    0  501    0  0.00000000000E+00  0.00000000000E+00  0.10848303214E+04  0.10848303214E+04  0.25500000000E-02 0.  1.
         -2   -1    0    0    0  501 -0.00000000000E+00 -0.00000000000E+00 -0.99544011239E+02  0.99544011272E+02  0.25500000000E-02 0. -1.
   -5000001    1    1    2    0    0  0.14743955795E+03 -0.14639477851E+03  0.40587212576E+03  0.52000195855E+03  0.25000000000E+03 0.  0.
    5000001    1    1    2    0    0 -0.14743955795E+03  0.14639477851E+03  0.57941418441E+03  0.66437237414E+03  0.25000000000E+03 0.  0.
<mgrwt>
<rscale>  0 0.65723165E+03</rscale>
<asrwt>0</asrwt>
<pdfrwt beam="1">  1        2 0.16689696E+00 0.65723165E+03</pdfrwt>
<pdfrwt beam="2">  1       -2 0.15314464E-01 0.65723165E+03</pdfrwt>
<totfact> 0.75963136E+02</totfact>
</mgrwt>
</event>
<event>
 4    1  0.1714834E-005  0.8352261E+03  0.7818608E-02  0.9510383E-01
          2   -1    0    0  501    0  0.00000000000E+00  0.00000000000E+00  0.16257749952E+04  0.16257749952E+04  0.25500000000E-02 0.  1.
         -2   -1    0    0    0  501 -0.00000000000E+00 -0.00000000000E+00 -0.10727233286E+03  0.10727233289E+03  0.25500000000E-02 0. -1.
   -5000001    1    1    2    0    0  0.20798828760E+03  0.24006666780E+02  0.13005899353E+04  0.13408466085E+04  0.25000000000E+03 0.  0.
    5000001    1    1    2    0    0 -0.20798828760E+03 -0.24006666780E+02  0.21791272707E+03  0.39220071959E+03  0.25000000000E+03 0.  0.
<mgrwt>
<rscale>  0 0.83522614E+03</rscale>
<asrwt>0</asrwt>
<pdfrwt beam="1">  1        2 0.25011921E+00 0.83522614E+03</pdfrwt>
<pdfrwt beam="2">  1       -2 0.16503437E-01 0.83522614E+03</pdfrwt>
<totfact> 0.32433093E+02</totfact>
</mgrwt>
</event>
<event>
 4    1  0.1714834E-005  0.1467504E+04  0.7818608E-02  0.8906355E-01
         -2   -1    0    0    0  501 -0.00000000000E+00  0.00000000000E+00  0.11112675859E+04  0.11112675859E+04  0.25500000000E-02 0. -1.
          2   -1    0    0  501    0  0.00000000000E+00 -0.00000000000E+00 -0.48448460277E+03  0.48448460278E+03  0.25500000000E-02 0.  1.
   -5000001    1    1    2    0    0 -0.66202246827E+03 -0.84940138275E+02  0.12378742812E+03  0.72340300175E+03  0.25000000000E+03 0.  0.
    5000001    1    1    2    0    0  0.66202246827E+03  0.84940138275E+02  0.50299555500E+03  0.87234918692E+03  0.25000000000E+03 0.  0.
<mgrwt>
<rscale>  0 0.14675041E+04</rscale>
<asrwt>0</asrwt>
<pdfrwt beam="1">  1        2 0.74536093E-01 0.14675041E+04</pdfrwt>
<pdfrwt beam="2">  1       -2 0.17096424E+00 0.14675041E+04</pdfrwt>
<totfact> 0.12965125E+01</totfact>
</mgrwt>
</event>
<event>
 4    1  0.1714834E-005  0.6592472E+03  0.7818608E-02  0.9789581E-01
          2   -1    0    0  501    0  0.00000000000E+00  0.00000000000E+00  0.50264077113E+03  0.50264077114E+03  0.25500000000E-02 0.  1.
         -2   -1    0    0    0  501 -0.00000000000E+00 -0.00000000000E+00 -0.21616173984E+03  0.21616173986E+03  0.25500000000E-02 0. -1.
   -5000001    1    1    2    0    0  0.11839333188E+03  0.17913758422E+03  0.15050876999E+03  0.36229841976E+03  0.25000000000E+03 0.  0.
    5000001    1    1    2    0    0 -0.11839333188E+03 -0.17913758422E+03  0.13597026130E+03  0.35650409124E+03  0.25000000000E+03 0.  0.
<mgrwt>
<rscale>  0 0.65924716E+03</rscale>
<asrwt>0</asrwt>
<pdfrwt beam="1">  1        2 0.77329349E-01 0.65924716E+03</pdfrwt>
<pdfrwt beam="2">  1       -2 0.33255653E-01 0.65924716E+03</pdfrwt>
<totfact> 0.52040791E+02</totfact>
</mgrwt>
</event>
<event>
 4    1  0.1714834E-005  0.7599850E+03  0.7818608E-02  0.9619814E-01
          2   -1    0    0  501    0  0.00000000000E+00  0.00000000000E+00  0.12417130312E+04  0.12417130312E+04  0.25500000000E-02 0.  1.
         -2   -1    0    0    0  501 -0.00000000000E+00 -0.00000000000E+00 -0.11628637619E+03  0.11628637621E+03  0.25500000000E-02 0. -1.
   -5000001    1    1    2    0    0 -0.18251766992E+03  0.16387025021E+03  0.82610735426E+03  0.89728452538E+03  0.25000000000E+03 0.  0.
    5000001    1    1    2    0    0  0.18251766992E+03 -0.16387025021E+03  0.29931930079E+03  0.46071488207E+03  0.25000000000E+03 0.  0.
<mgrwt>
<rscale>  0 0.75998502E+03</rscale>
<asrwt>0</asrwt>
<pdfrwt beam="1">  1        2 0.19103277E+00 0.75998502E+03</pdfrwt>
<pdfrwt beam="2">  1       -2 0.17890212E-01 0.75998502E+03</pdfrwt>
<totfact> 0.46727800E+02</totfact>
</mgrwt>
</event>
<event>
 4    1  0.1714834E-005  0.6700832E+03  0.7818608E-02  0.9769807E-01
          2   -1    0    0  501    0  0.00000000000E+00  0.00000000000E+00  0.33949199147E+03  0.33949199148E+03  0.25500000000E-02 0.  1.
         -2   -1    0    0    0  501 -0.00000000000E+00 -0.00000000000E+00 -0.33064957546E+03  0.33064957547E+03  0.25500000000E-02 0. -1.
   -5000001    1    1    2    0    0 -0.90453372512E+02 -0.19506553799E+03  0.63760227144E+02  0.33585375281E+03  0.25000000000E+03 0.  0.
    5000001    1    1    2    0    0  0.90453372512E+02  0.19506553799E+03 -0.54917811131E+02  0.33428781415E+03  0.25000000000E+03 0.  0.
<mgrwt>
<rscale>  0 0.67008323E+03</rscale>
<asrwt>0</asrwt>
<pdfrwt beam="1">  1        2 0.52229537E-01 0.67008323E+03</pdfrwt>
<pdfrwt beam="2">  1       -2 0.50869166E-01 0.67008323E+03</pdfrwt>
<totfact> 0.35260800E+02</totfact>
</mgrwt>
</event>
<event>
 4    1  0.1714834E-005  0.6462305E+03  0.7818608E-02  0.9813878E-01
          2   -1    0    0  501    0  0.00000000000E+00  0.00000000000E+00  0.16738191332E+03  0.16738191334E+03  0.25500000000E-02 0.  1.
         -2   -1    0    0    0  501 -0.00000000000E+00 -0.00000000000E+00 -0.62374396265E+03  0.62374396266E+03  0.25500000000E-02 0. -1.
   -5000001    1    1    2    0    0 -0.99481031575E+02 -0.17762523538E+03 -0.20203152374E+03  0.38047856243E+03  0.25000000000E+03 0.  0.
    5000001    1    1    2    0    0  0.99481031575E+02  0.17762523538E+03 -0.25433052560E+03  0.41064731356E+03  0.25000000000E+03 0.  0.
<mgrwt>
<rscale>  0 0.64623048E+03</rscale>
<asrwt>0</asrwt>
<pdfrwt beam="1">  1        2 0.25751064E-01 0.64623048E+03</pdfrwt>
<pdfrwt beam="2">  1       -2 0.95960609E-01 0.64623048E+03</pdfrwt>
<totfact> 0.19500291E+02</totfact>
</mgrwt>
</event>
<event>
 4    1  0.1714834E-005  0.6770235E+03  0.7818608E-02  0.9757352E-01
          2   -1    0    0  501    0  0.00000000000E+00  0.00000000000E+00  0.55741697740E+03  0.55741697740E+03  0.25500000000E-02 0.  1.
         -2   -1    0    0    0  501 -0.00000000000E+00 -0.00000000000E+00 -0.20557359536E+03  0.20557359538E+03  0.25500000000E-02 0. -1.
   -5000001    1    1    2    0    0  0.55258571998E+02 -0.13311951713E+03  0.37535506628E+03  0.47346144658E+03  0.25000000000E+03 0.  0.
    5000001    1    1    2    0    0 -0.55258571998E+02  0.13311951713E+03 -0.23511684244E+02  0.28952912619E+03  0.25000000000E+03 0.  0.
<mgrwt>
<rscale>  0 0.67702352E+03</rscale>
<asrwt>0</asrwt>
<pdfrwt beam="1">  1        2 0.85756458E-01 0.67702352E+03</pdfrwt>
<pdfrwt beam="2">  1       -2 0.31626707E-01 0.67702352E+03</pdfrwt>
<totfact> 0.50644123E+02</totfact>
</mgrwt>
</event>
<event>
 4    1  0.1714834E-005  0.1032730E+04  0.7818608E-02  0.9273358E-01
         -2   -1    0    0    0  501 -0.00000000000E+00  0.00000000000E+00  0.22244632272E+03  0.22244632274E+03  0.25500000000E-02 0. -1.
          2   -1    0    0  501    0  0.00000000000E+00 -0.00000000000E+00 -0.11986400496E+04  0.11986400496E+04  0.25500000000E-02 0.  1.
   -5000001    1    1    2    0    0  0.82796801219E+02  0.44366494367E+03 -0.51693413355E+03  0.73035251143E+03  0.25000000000E+03 0.  0.
    5000001    1    1    2    0    0 -0.82796801219E+02 -0.44366494367E+03 -0.45925959333E+03  0.69073386090E+03  0.25000000000E+03 0.  0.
<mgrwt>
<rscale>  0 0.10327305E+04</rscale>
<asrwt>0</asrwt>
<pdfrwt beam="1">  1        2 0.18440616E+00 0.10327305E+04</pdfrwt>
<pdfrwt beam="2">  1       -2 0.34222512E-01 0.10327305E+04</pdfrwt>
<totfact> 0.15106282E+02</totfact>
</mgrwt>
</event>
<event>
 4    1  0.1714834E-005  0.6538039E+03  0.7818608E-02  0.9799668E-01
         -2   -1    0    0    0  501 -0.00000000000E+00  0.00000000000E+00  0.39340666306E+02  0.39340666389E+02  0.25500000000E-02 0. -1.
          2   -1    0    0  501    0  0.00000000000E+00 -0.00000000000E+00 -0.27163971133E+04  0.27163971133E+04  0.25500000000E-02 0.  1.
   -5000001    1    1    2    0    0  0.17502376310E+03  0.94543881072E+02 -0.10467220006E+04  0.10943942661E+04  0.25000000000E+03 0.  0.
    5000001    1    1    2    0    0 -0.17502376310E+03 -0.94543881072E+02 -0.16303344464E+04  0.16613435136E+04  0.25000000000E+03 0.  0.
<mgrwt>
<rscale>  0 0.65380386E+03</rscale>
<asrwt>0</asrwt>
<pdfrwt beam="1">  1        2 0.41790710E+00 0.65380386E+03</pdfrwt>
<pdfrwt beam="2">  1       -2 0.60524123E-02 0.65380386E+03</pdfrwt>
<totfact> 0.41947920E+02</totfact>
</mgrwt>
</event>
<event>
 4    1  0.1714834E-005  0.6997583E+03  0.7818608E-02  0.9717646E-01
          2   -1    0    0  501    0  0.00000000000E+00  0.00000000000E+00  0.42539134057E+03  0.42539134058E+03  0.25500000000E-02 0.  1.
         -2   -1    0    0    0  501 -0.00000000000E+00 -0.00000000000E+00 -0.28777133046E+03  0.28777133047E+03  0.25500000000E-02 0. -1.
   -5000001    1    1    2    0    0  0.23000900360E+03  0.29727400639E+02  0.14858829676E+03  0.37197626540E+03  0.25000000000E+03 0.  0.
    5000001    1    1    2    0    0 -0.23000900360E+03 -0.29727400639E+02 -0.10968286645E+02  0.34118640565E+03  0.25000000000E+03 0.  0.
<mgrwt>
<rscale>  0 0.69975834E+03</rscale>
<asrwt>0</asrwt>
<pdfrwt beam="1">  1        2 0.65444821E-01 0.69975834E+03</pdfrwt>
<pdfrwt beam="2">  1       -2 0.44272513E-01 0.69975834E+03</pdfrwt>
<totfact> 0.36189316E+02</totfact>
</mgrwt>
</event>
<event>
 4    1  0.1714834E-005  0.5869316E+03  0.7818608E-02  0.9932896E-01
         -2   -1    0    0    0  501 -0.00000000000E+00  0.00000000000E+00  0.21647538220E+03  0.21647538221E+03  0.25500000000E-02 0. -1.
          2   -1    0    0  501    0  0.00000000000E+00 -0.00000000000E+00 -0.39783817106E+03  0.39783817107E+03  0.25500000000E-02 0.  1.
   -5000001    1    1    2    0    0  0.91574365847E+02 -0.77764164976E+02 -0.19101298499E+03  0.33677750856E+03  0.25000000000E+03 0.  0.
    5000001    1    1    2    0    0 -0.91574365847E+02  0.77764164976E+02  0.96501961268E+01  0.27753604472E+03  0.25000000000E+03 0.  0.
<mgrwt>
<rscale>  0 0.58693158E+03</rscale>
<asrwt>0</asrwt>
<pdfrwt beam="1">  1        2 0.61205873E-01 0.58693158E+03</pdfrwt>
<pdfrwt beam="2">  1       -2 0.33303905E-01 0.58693158E+03</pdfrwt>
<totfact> 0.67778118E+02</totfact>
</mgrwt>
</event>
<event>
 4    1  0.1714834E-005  0.8566196E+03  0.7818608E-02  0.9481495E-01
          2   -1    0    0  501    0  0.00000000000E+00  0.00000000000E+00  0.32391492041E+03  0.32391492042E+03  0.25500000000E-02 0.  1.
         -2   -1    0    0    0  501 -0.00000000000E+00 -0.00000000000E+00 -0.56635027866E+03  0.56635027866E+03  0.25500000000E-02 0. -1.
   -5000001    1    1    2    0    0 -0.17598990039E+02  0.17874544862E+03  0.18828743183E+03  0.36084874510E+03  0.25000000000E+03 0.  0.
    5000001    1    1    2    0    0  0.17598990039E+02 -0.17874544862E+03 -0.43072279008E+03  0.52941645398E+03  0.25000000000E+03 0.  0.
<mgrwt>
<rscale>  0 0.85661965E+03</rscale>
<asrwt>0</asrwt>
<pdfrwt beam="1">  1        2 0.49833065E-01 0.85661965E+03</pdfrwt>
<pdfrwt beam="2">  1       -2 0.87130812E-01 0.85661965E+03</pdfrwt>
<totfact> 0.11538033E+02</totfact>
</mgrwt>
</event>
<event>
 4    1  0.1714834E-005  0.9085161E+03  0.7818608E-02  0.9414998E-01
          2   -1    0    0  501    0  0.00000000000E+00  0.00000000000E+00  0.39130836523E+03  0.39130836524E+03  0.25500000000E-02 0.  1.
         -2   -1    0    0    0  501 -0.00000000000E+00 -0.00000000000E+00 -0.52733441576E+03  0.52733441576E+03  0.25500000000E-02 0. -1.
   -5000001    1    1    2    0    0 -0.73948756529E+02  0.35773713220E+03  0.35134286868E+02  0.44404807450E+03  0.25000000000E+03 0.  0.
    5000001    1    1    2    0    0  0.73948756529E+02 -0.35773713220E+03 -0.17116033740E+03  0.47459470651E+03  0.25000000000E+03 0.  0.
<mgrwt>
<rscale>  0 0.90851608E+03</rscale>
<asrwt>0</asrwt>
<pdfrwt beam="1">  1        2 0.60201287E-01 0.90851608E+03</pdfrwt>
<pdfrwt beam="2">  1       -2 0.81128372E-01 0.90851608E+03</pdfrwt>
<totfact> 0.10956415E+02</totfact>
</mgrwt>
</event>
<event>
 4    1  0.1714834E-005  0.6769153E+03  0.7818608E-02  0.9757545E-01
         -2   -1    0    0    0  501 -0.00000000000E+00  0.00000000000E+00  0.52296525546E+02  0.52296525608E+02  0.25500000000E-02 0. -1.
          2   -1    0    0  501    0  0.00000000000E+00 -0.00000000000E+00 -0.21904625645E+04  0.21904625645E+04  0.25500000000E-02 0.  1.
   -5000001    1    1    2    0    0 -0.96761155198E+02  0.19523480662E+03 -0.84500083771E+03  0.90774763377E+03  0.25000000000E+03 0.  0.
    5000001    1    1    2    0    0  0.96761155198E+02 -0.19523480662E+03 -0.12931652012E+04  0.13350114563E+04  0.25000000000E+03 0.  0.
<mgrwt>
<rscale>  0 0.67691530E+03</rscale>
<asrwt>0</asrwt>
<pdfrwt beam="1">  1        2 0.33699417E+00 0.67691530E+03</pdfrwt>
<pdfrwt beam="2">  1       -2 0.80456210E-02 0.67691530E+03</pdfrwt>
<totfact> 0.52731034E+02</totfact>
</mgrwt>
</event>
<event>
 4    1  0.1714834E-005  0.6779875E+03  0.7818608E-02  0.9755635E-01
         -2   -1    0    0    0  501 -0.00000000000E+00  0.00000000000E+00  0.92832831106E+02  0.92832831141E+02  0.25500000000E-02 0.  1.
          2   -1    0    0  501    0  0.00000000000E+00 -0.00000000000E+00 -0.12378893429E+04  0.12378893429E+04  0.25500000000E-02 0. -1.
   -5000001    1    1    2    0    0 -0.21445864932E+03 -0.74055199895E+02 -0.63270792701E+03  0.71714434099E+03  0.25000000000E+03 0.  0.
    5000001    1    1    2    0    0  0.21445864932E+03  0.74055199895E+02 -0.51234858481E+03  0.61357783309E+03  0.25000000000E+03 0.  0.
<mgrwt>
<rscale>  0 0.67798753E+03</rscale>
<asrwt>0</asrwt>
<pdfrwt beam="1">  1        2 0.19044450E+00 0.67798753E+03</pdfrwt>
<pdfrwt beam="2">  1       -2 0.14281975E-01 0.67798753E+03</pdfrwt>
<totfact> 0.69176817E+02</totfact>
</mgrwt>
</event>
<event>
 4    1  0.1714834E-005  0.7979723E+03  0.7818608E-02  0.9562957E-01
          2   -1    0    0  501    0  0.00000000000E+00  0.00000000000E+00  0.28476993215E+04  0.28476993215E+04  0.25500000000E-02 0.  1.
         -2   -1    0    0    0  501 -0.00000000000E+00 -0.00000000000E+00 -0.55901255044E+02  0.55901255102E+02  0.25500000000E-02 0. -1.
   -5000001    1    1    2    0    0  0.21923591930E+03  0.11560676071E+03  0.71262609702E+03  0.79483662824E+03  0.25000000000E+03 0.  0.
    5000001    1    1    2    0    0 -0.21923591930E+03 -0.11560676071E+03  0.20791719694E+04  0.21087639483E+04  0.25000000000E+03 0.  0.
<mgrwt>
<rscale>  0 0.79797235E+03</rscale>
<asrwt>0</asrwt>
<pdfrwt beam="1">  1        2 0.43810768E+00 0.79797235E+03</pdfrwt>
<pdfrwt beam="2">  1       -2 0.86001913E-02 0.79797235E+03</pdfrwt>
<totfact> 0.19790807E+02</totfact>
</mgrwt>
</event>
<event>
 4    1  0.1714834E-005  0.9180340E+03  0.7818608E-02  0.9403315E-01
         -2   -1    0    0    0  501 -0.00000000000E+00  0.00000000000E+00  0.24581424013E+03  0.24581424014E+03  0.25500000000E-02 0. -1.
          2   -1    0    0  501    0  0.00000000000E+00 -0.00000000000E+00 -0.85713754115E+03  0.85713754116E+03  0.25500000000E-02 0.  1.
   -5000001    1    1    2    0    0  0.30842919017E+03 -0.12985199762E+03 -0.53426946194E+03  0.67818431462E+03  0.25000000000E+03 0.  0.
    5000001    1    1    2    0    0 -0.30842919017E+03  0.12985199762E+03 -0.77053839082E+02  0.42476746668E+03  0.25000000000E+03 0.  0.
<mgrwt>
<rscale>  0 0.91803402E+03</rscale>
<asrwt>0</asrwt>
<pdfrwt beam="1">  1        2 0.13186731E+00 0.91803402E+03</pdfrwt>
<pdfrwt beam="2">  1       -2 0.37817576E-01 0.91803402E+03</pdfrwt>
<totfact> 0.20728747E+02</totfact>
</mgrwt>
</event>
<event>
 4    1  0.1714834E-005  0.1286275E+04  0.7818608E-02  0.9040521E-01
         -2   -1    0    0    0  501 -0.00000000000E+00  0.00000000000E+00  0.15494350820E+03  0.15494350822E+03  0.25500000000E-02 0. -1.
          2   -1    0    0  501    0  0.00000000000E+00 -0.00000000000E+00 -0.26695247549E+04  0.26695247549E+04  0.25500000000E-02 0.  1.
   -5000001    1    1    2    0    0  0.31069065285E+03 -0.39550535633E+03 -0.56927602195E+03  0.79970516931E+03  0.25000000000E+03 0.  0.
    5000001    1    1    2    0    0 -0.31069065285E+03  0.39550535633E+03 -0.19453052248E+04  0.20247630938E+04  0.25000000000E+03 0.  0.
<mgrwt>
<rscale>  0 0.12862745E+04</rscale>
<asrwt>0</asrwt>
<pdfrwt beam="1">  1        2 0.41069608E+00 0.12862745E+04</pdfrwt>
<pdfrwt beam="2">  1       -2 0.23837465E-01 0.12862745E+04</pdfrwt>
<totfact> 0.42772386E+01</totfact>
</mgrwt>
</event>
<event>
 4    1  0.1714834E-005  0.6281199E+03  0.7818608E-02  0.9848725E-01
         -2   -1    0    0    0  501 -0.00000000000E+00  0.00000000000E+00  0.10709584403E+03  0.10709584406E+03  0.25500000000E-02 0. -1.
          2   -1    0    0  501    0  0.00000000000E+00 -0.00000000000E+00 -0.92098478248E+03  0.92098478248E+03  0.25500000000E-02 0.  1.
   -5000001    1    1    2    0    0  0.50444307276E+02 -0.18056322631E+03 -0.45833805999E+03  0.55472649483E+03  0.25000000000E+03 0.  0.
    5000001    1    1    2    0    0 -0.50444307276E+02  0.18056322631E+03 -0.35555087846E+03  0.47335413171E+03  0.25000000000E+03 0.  0.
<mgrwt>
<rscale>  0 0.62811987E+03</rscale>
<asrwt>0</asrwt>
<pdfrwt beam="1">  1        2 0.14168996E+00 0.62811987E+03</pdfrwt>
<pdfrwt beam="2">  1       -2 0.16476284E-01 0.62811987E+03</pdfrwt>
<totfact> 0.85331808E+02</totfact>
</mgrwt>
</event>
<event>
 4    1  0.1714834E-005  0.7216550E+03  0.7818608E-02  0.9680899E-01
         -2   -1    0    0    0  501 -0.00000000000E+00  0.00000000000E+00  0.61034341997E+02  0.61034342050E+02  0.25500000000E-02 0. -1.
          2   -1    0    0  501    0  0.00000000000E+00 -0.00000000000E+00 -0.21331678193E+04  0.21331678193E+04  0.25500000000E-02 0.  1.
   -5000001    1    1    2    0    0 -0.24349345467E+03 -0.50394389752E+02 -0.12689756091E+04  0.13170526768E+04  0.25000000000E+03 0.  0.
    5000001    1    1    2    0    0  0.24349345467E+03  0.50394389752E+02 -0.80315786818E+03  0.87714948453E+03  0.25000000000E+03 0.  0.
<mgrwt>
<rscale>  0 0.72165503E+03</rscale>
<asrwt>0</asrwt>
<pdfrwt beam="1">  1        2 0.32817961E+00 0.72165503E+03</pdfrwt>
<pdfrwt beam="2">  1       -2 0.93899004E-02 0.72165503E+03</pdfrwt>
<totfact> 0.44058148E+02</totfact>
</mgrwt>
</event>
<event>
 4    1  0.1714834E-005  0.7013807E+03  0.7818608E-02  0.9714874E-01
         -2   -1    0    0    0  501 -0.00000000000E+00  0.00000000000E+00  0.19537374738E+03  0.19537374739E+03  0.25500000000E-02 0.  1.
          2   -1    0    0  501    0  0.00000000000E+00 -0.00000000000E+00 -0.62947928336E+03  0.62947928336E+03  0.25500000000E-02 0. -1.
   -5000001    1    1    2    0    0  0.59427441382E+02  0.20493026328E+03 -0.73230536108E+02  0.33673542287E+03  0.25000000000E+03 0.  0.
    5000001    1    1    2    0    0 -0.59427441382E+02 -0.20493026328E+03 -0.36087499988E+03  0.48811760789E+03  0.25000000000E+03 0.  0.
<mgrwt>
<rscale>  0 0.70138071E+03</rscale>
<asrwt>0</asrwt>
<pdfrwt beam="1">  1        2 0.96842966E-01 0.70138071E+03</pdfrwt>
<pdfrwt beam="2">  1       -2 0.30057500E-01 0.70138071E+03</pdfrwt>
<totfact> 0.48082885E+02</totfact>
</mgrwt>
</event>
<event>
 4    1  0.1714834E-005  0.1029658E+04  0.7818608E-02  0.9276602E-01
          2   -1    0    0  501    0  0.00000000000E+00  0.00000000000E+00  0.10132590413E+04  0.10132590414E+04  0.25500000000E-02 0.  1.
         -2   -1    0    0    0  501 -0.00000000000E+00 -0.00000000000E+00 -0.26158052362E+03  0.26158052363E+03  0.25500000000E-02 0. -1.
   -5000001    1    1    2    0    0 -0.29661239309E+03 -0.22940763773E+03  0.68398445028E+03  0.81911019051E+03  0.25000000000E+03 0.  0.
    5000001    1    1    2    0    0  0.29661239309E+03  0.22940763773E+03  0.67694067456E+02  0.45572937447E+03  0.25000000000E+03 0.  0.
<mgrwt>
<rscale>  0 0.10296579E+04</rscale>
<asrwt>0</asrwt>
<pdfrwt beam="1">  1        2 0.15588601E+00 0.10296579E+04</pdfrwt>
<pdfrwt beam="2">  1       -2 0.40243157E-01 0.10296579E+04</pdfrwt>
<totfact> 0.14377611E+02</totfact>
</mgrwt>
</event>
<event>
 4    1  0.1714834E-005  0.8577818E+03  0.7818608E-02  0.9479952E-01
          2   -1    0    0  501    0  0.00000000000E+00  0.00000000000E+00  0.51647761683E+03  0.51647761684E+03  0.25500000000E-02 0.  1.
         -2   -1    0    0    0  501 -0.00000000000E+00 -0.00000000000E+00 -0.35615759374E+03  0.35615759375E+03  0.25500000000E-02 0. -1.
   -5000001    1    1    2    0    0 -0.33868650891E+03 -0.48763381561E+02  0.12978580715E+02  0.42397507269E+03  0.25000000000E+03 0.  0.
    5000001    1    1    2    0    0  0.33868650891E+03  0.48763381561E+02  0.14734144237E+03  0.44866013790E+03  0.25000000000E+03 0.  0.
<mgrwt>
<rscale>  0 0.85778185E+03</rscale>
<asrwt>0</asrwt>
<pdfrwt beam="1">  1        2 0.79458095E-01 0.85778185E+03</pdfrwt>
<pdfrwt beam="2">  1       -2 0.54793476E-01 0.85778185E+03</pdfrwt>
<totfact> 0.18678492E+02</totfact>
</mgrwt>
</event>
<event>
 4    1  0.1714834E-005  0.1103460E+04  0.7818608E-02  0.9201826E-01
          2   -1    0    0  501    0  0.00000000000E+00  0.00000000000E+00  0.56314341391E+03  0.56314341391E+03  0.25500000000E-02 0.  1.
         -2   -1    0    0    0  501 -0.00000000000E+00 -0.00000000000E+00 -0.54054771340E+03  0.54054771341E+03  0.25500000000E-02 0. -1.
   -5000001    1    1    2    0    0  0.45051894717E+03  0.17612685193E+03 -0.77703357925E+02  0.55002345547E+03  0.25000000000E+03 0.  0.
    5000001    1    1    2    0    0 -0.45051894717E+03 -0.17612685193E+03  0.10029905843E+03  0.55366767185E+03  0.25000000000E+03 0.  0.
<mgrwt>
<rscale>  0 0.11034598E+04</rscale>
<asrwt>0</asrwt>
<pdfrwt beam="1">  1        2 0.86637448E-01 0.11034598E+04</pdfrwt>
<pdfrwt beam="2">  1       -2 0.83161187E-01 0.11034598E+04</pdfrwt>
<totfact> 0.67324357E+01</totfact>
</mgrwt>
</event>
<event>
 4    1  0.1714834E-005  0.1178317E+04  0.7818608E-02  0.9132050E-01
          2   -1    0    0  501    0  0.00000000000E+00  0.00000000000E+00  0.15690800071E+04  0.15690800071E+04  0.25500000000E-02 0.  1.
         -2   -1    0    0    0  501 -0.00000000000E+00 -0.00000000000E+00 -0.22121729622E+03  0.22121729623E+03  0.25500000000E-02 0. -1.
   -5000001    1    1    2    0    0  0.47290786128E+03 -0.21208770220E+03  0.48183729469E+03  0.75052662660E+03  0.25000000000E+03 0.  0.
    5000001    1    1    2    0    0 -0.47290786128E+03  0.21208770220E+03  0.86602541616E+03  0.10397706767E+04  0.25000000000E+03 0.  0.
<mgrwt>
<rscale>  0 0.11783168E+04</rscale>
<asrwt>0</asrwt>
<pdfrwt beam="1">  1        2 0.24139693E+00 0.11783168E+04</pdfrwt>
<pdfrwt beam="2">  1       -2 0.34033430E-01 0.11783168E+04</pdfrwt>
<totfact> 0.92638953E+01</totfact>
</mgrwt>
</event>
<event>
 4    1  0.1714834E-005  0.6543549E+03  0.7818608E-02  0.9798642E-01
         -2   -1    0    0    0  501 -0.00000000000E+00  0.00000000000E+00  0.18807538042E+03  0.18807538044E+03  0.25500000000E-02 0. -1.
          2   -1    0    0  501    0  0.00000000000E+00 -0.00000000000E+00 -0.56916047237E+03  0.56916047237E+03  0.25500000000E-02 0.  1.
   -5000001    1    1    2    0    0  0.11307386437E+03 -0.80493257198E+02 -0.37453845356E+03  0.47121536101E+03  0.25000000000E+03 0.  0.
    5000001    1    1    2    0    0 -0.11307386437E+03  0.80493257198E+02 -0.65466383879E+01  0.28602049180E+03  0.25000000000E+03 0.  0.
<mgrwt>
<rscale>  0 0.65435487E+03</rscale>
<asrwt>0</asrwt>
<pdfrwt beam="1">  1        2 0.87563149E-01 0.65435487E+03</pdfrwt>
<pdfrwt beam="2">  1       -2 0.28934674E-01 0.65435487E+03</pdfrwt>
<totfact> 0.58304884E+02</totfact>
</mgrwt>
</event>
<event>
 4    1  0.1714834E-005  0.7841672E+03  0.7818608E-02  0.9583221E-01
          2   -1    0    0  501    0  0.00000000000E+00  0.00000000000E+00  0.14028496944E+04  0.14028496944E+04  0.25500000000E-02 0.  1.
         -2   -1    0    0    0  501 -0.00000000000E+00 -0.00000000000E+00 -0.10958376351E+03  0.10958376354E+03  0.25500000000E-02 0. -1.
   -5000001    1    1    2    0    0  0.12957273225E+03  0.18815328422E+03  0.26555325928E+03  0.43035948325E+03  0.25000000000E+03 0.  0.
    5000001    1    1    2    0    0 -0.12957273225E+03 -0.18815328422E+03  0.10277126716E+04  0.10820739747E+04  0.25000000000E+03 0.  0.
<mgrwt>
<rscale>  0 0.78416720E+03</rscale>
<asrwt>0</asrwt>
<pdfrwt beam="1">  1        2 0.21582303E+00 0.78416720E+03</pdfrwt>
<pdfrwt beam="2">  1       -2 0.16859040E-01 0.78416720E+03</pdfrwt>
<totfact> 0.41761271E+02</totfact>
</mgrwt>
</event>
<event>
 4    1  0.1714834E-005  0.6838625E+03  0.7818608E-02  0.9745234E-01
         -2   -1    0    0    0  501 -0.00000000000E+00  0.00000000000E+00  0.50372647013E+02  0.50372647077E+02  0.25500000000E-02 0. -1.
          2   -1    0    0  501    0  0.00000000000E+00 -0.00000000000E+00 -0.23210410922E+04  0.23210410922E+04  0.25500000000E-02 0.  1.
   -5000001    1    1    2    0    0  0.20038308976E+03  0.63322110239E+02 -0.14864766567E+04  0.15219316421E+04  0.25000000000E+03 0.  0.
    5000001    1    1    2    0    0 -0.20038308976E+03 -0.63322110239E+02 -0.78419178856E+03  0.84948209725E+03  0.25000000000E+03 0.  0.
<mgrwt>
<rscale>  0 0.68386251E+03</rscale>
<asrwt>0</asrwt>
<pdfrwt beam="1">  1        2 0.35708316E+00 0.68386251E+03</pdfrwt>
<pdfrwt beam="2">  1       -2 0.77496398E-02 0.68386251E+03</pdfrwt>
<totfact> 0.47397777E+02</totfact>
</mgrwt>
</event>
<event>
 4    1  0.1714834E-005  0.6244900E+03  0.7818608E-02  0.9855861E-01
         -2   -1    0    0    0  501 -0.00000000000E+00  0.00000000000E+00  0.15819971111E+03  0.15819971113E+03  0.25500000000E-02 0. -1.
          2   -1    0    0  501    0  0.00000000000E+00 -0.00000000000E+00 -0.61629021746E+03  0.61629021746E+03  0.25500000000E-02 0.  1.
   -5000001    1    1    2    0    0 -0.78316133178E+02  0.13386535754E+03 -0.99306392174E+02  0.31050782630E+03  0.25000000000E+03 0.  0.
    5000001    1    1    2    0    0  0.78316133178E+02 -0.13386535754E+03 -0.35878411417E+03  0.46398210229E+03  0.25000000000E+03 0.  0.
<mgrwt>
<rscale>  0 0.62448998E+03</rscale>
<asrwt>0</asrwt>
<pdfrwt beam="1">  1        2 0.94813879E-01 0.62448998E+03</pdfrwt>
<pdfrwt beam="2">  1       -2 0.24338417E-01 0.62448998E+03</pdfrwt>
<totfact> 0.72613490E+02</totfact>
</mgrwt>
</event>
<event>
 4    1  0.1714834E-005  0.1017780E+04  0.7818608E-02  0.9289257E-01
          2   -1    0    0  501    0  0.00000000000E+00  0.00000000000E+00  0.62133263260E+03  0.62133263260E+03  0.25500000000E-02 0.  1.
         -2   -1    0    0    0  501 -0.00000000000E+00 -0.00000000000E+00 -0.41679584520E+03  0.41679584520E+03  0.25500000000E-02 0. -1.
   -5000001    1    1    2    0    0 -0.21982415681E+03 -0.28977066279E+03  0.36066949520E+03  0.56997559746E+03  0.25000000000E+03 0.  0.
    5000001    1    1    2    0    0  0.21982415681E+03  0.28977066279E+03 -0.15613270780E+03  0.46815288035E+03  0.25000000000E+03 0.  0.
<mgrwt>
<rscale>  0 0.10177797E+04</rscale>
<asrwt>0</asrwt>
<pdfrwt beam="1">  1        2 0.95589636E-01 0.10177797E+04</pdfrwt>
<pdfrwt beam="2">  1       -2 0.64122438E-01 0.10177797E+04</pdfrwt>
<totfact> 0.10664197E+02</totfact>
</mgrwt>
</event>
<event>
 4    1  0.1714834E-005  0.9676380E+03  0.7818608E-02  0.9344769E-01
          2   -1    0    0  501    0  0.00000000000E+00  0.00000000000E+00  0.73458790038E+03  0.73458790039E+03  0.25500000000E-02 0.  1.
         -2   -1    0    0    0  501 -0.00000000000E+00 -0.00000000000E+00 -0.31865594952E+03  0.31865594953E+03  0.25500000000E-02 0. -1.
   -5000001    1    1    2    0    0  0.19325003299E+03 -0.24760885179E+03 -0.85971196001E+02  0.41054447418E+03  0.25000000000E+03 0.  0.
    5000001    1    1    2    0    0 -0.19325003299E+03  0.24760885179E+03  0.50190314686E+03  0.64269937573E+03  0.25000000000E+03 0.  0.
<mgrwt>
<rscale>  0 0.96763796E+03</rscale>
<asrwt>0</asrwt>
<pdfrwt beam="1">  1        2 0.11301352E+00 0.96763796E+03</pdfrwt>
<pdfrwt beam="2">  1       -2 0.49023992E-01 0.96763796E+03</pdfrwt>
<totfact> 0.15175937E+02</totfact>
</mgrwt>
</event>
<event>
 4    1  0.1714834E-005  0.7151889E+03  0.7818608E-02  0.9691604E-01
         -2   -1    0    0    0  501 -0.00000000000E+00  0.00000000000E+00  0.17372239402E+03  0.17372239404E+03  0.25500000000E-02 0. -1.
          2   -1    0    0  501    0  0.00000000000E+00 -0.00000000000E+00 -0.73608122354E+03  0.73608122355E+03  0.25500000000E-02 0.  1.
   -5000001    1    1    2    0    0  0.19507069219E+02 -0.25387888119E+03 -0.25165150246E+03  0.43665030717E+03  0.25000000000E+03 0.  0.
    5000001    1    1    2    0    0 -0.19507069219E+02  0.25387888119E+03 -0.31070732707E+03  0.47315331041E+03  0.25000000000E+03 0.  0.
<mgrwt>
<rscale>  0 0.71518890E+03</rscale>
<asrwt>0</asrwt>
<pdfrwt beam="1">  1        2 0.11324326E+00 0.71518890E+03</pdfrwt>
<pdfrwt beam="2">  1       -2 0.26726523E-01 0.71518890E+03</pdfrwt>
<totfact> 0.49049565E+02</totfact>
</mgrwt>
</event>
<event>
 4    1  0.1714834E-005  0.1651486E+04  0.7818608E-02  0.8789528E-01
         -2   -1    0    0    0  501 -0.00000000000E+00  0.00000000000E+00  0.47086270498E+03  0.47086270499E+03  0.25500000000E-02 0. -1.
          2   -1    0    0  501    0  0.00000000000E+00 -0.00000000000E+00 -0.14480897305E+04  0.14480897305E+04  0.25500000000E-02 0.  1.
   -5000001    1    1    2    0    0 -0.44852908462E+03  0.62681303034E+03 -0.30387167351E+03  0.86539638820E+03  0.25000000000E+03 0.  0.
    5000001    1    1    2    0    0  0.44852908462E+03 -0.62681303034E+03 -0.67335535205E+03  0.10535560473E+04  0.25000000000E+03 0.  0.
<mgrwt>
<rscale>  0 0.16514859E+04</rscale>
<asrwt>0</asrwt>
<pdfrwt beam="1">  1        2 0.22278303E+00 0.16514859E+04</pdfrwt>
<pdfrwt beam="2">  1       -2 0.72440417E-01 0.16514859E+04</pdfrwt>
<totfact> 0.22370827E+01</totfact>
</mgrwt>
</event>
<event>
 4    1  0.1714834E-005  0.8526018E+03  0.7818608E-02  0.9486852E-01
         -2   -1    0    0    0  501 -0.00000000000E+00  0.00000000000E+00  0.28357640062E+03  0.28357640063E+03  0.25500000000E-02 0. -1.
          2   -1    0    0  501    0  0.00000000000E+00 -0.00000000000E+00 -0.64085891933E+03  0.64085891934E+03  0.25500000000E-02 0.  1.
   -5000001    1    1    2    0    0 -0.31189553328E+03 -0.57325917193E+02 -0.32678113411E+03  0.51947184146E+03  0.25000000000E+03 0.  0.
    5000001    1    1    2    0    0  0.31189553328E+03  0.57325917193E+02 -0.30501384597E+02  0.40496347850E+03  0.25000000000E+03 0.  0.
<mgrwt>
<rscale>  0 0.85260182E+03</rscale>
<asrwt>0</asrwt>
<pdfrwt beam="1">  1        2 0.98593679E-01 0.85260182E+03</pdfrwt>
<pdfrwt beam="2">  1       -2 0.43627139E-01 0.85260182E+03</pdfrwt>
<totfact> 0.22902457E+02</totfact>
</mgrwt>
</event>
<event>
 4    1  0.1714834E-005  0.1372432E+04  0.7818608E-02  0.8974019E-01
          2   -1    0    0  501    0  0.00000000000E+00  0.00000000000E+00  0.33265004254E+03  0.33265004255E+03  0.25500000000E-02 0.  1.
         -2   -1    0    0    0  501 -0.00000000000E+00 -0.00000000000E+00 -0.14155783933E+04  0.14155783934E+04  0.25500000000E-02 0. -1.
   -5000001    1    1    2    0    0 -0.35771420781E+03 -0.52703545514E+03 -0.60724041619E+03  0.91485886807E+03  0.25000000000E+03 0.  0.
    5000001    1    1    2    0    0  0.35771420781E+03  0.52703545514E+03 -0.47568793462E+03  0.83336956783E+03  0.25000000000E+03 0.  0.
<mgrwt>
<rscale>  0 0.13724317E+04</rscale>
<asrwt>0</asrwt>
<pdfrwt beam="1">  1        2 0.51176930E-01 0.13724317E+04</pdfrwt>
<pdfrwt beam="2">  1       -2 0.21778129E+00 0.13724317E+04</pdfrwt>
<totfact> 0.97359327E+00</totfact>
</mgrwt>
</event>
<event>
 4    1  0.1714834E-005  0.6335046E+03  0.7818608E-02  0.9838234E-01
         -2   -1    0    0    0  501 -0.00000000000E+00  0.00000000000E+00  0.11216325427E+03  0.11216325430E+03  0.25500000000E-02 0. -1.
          2   -1    0    0  501    0  0.00000000000E+00 -0.00000000000E+00 -0.89451774182E+03  0.89451774182E+03  0.25500000000E-02 0.  1.
   -5000001    1    1    2    0    0  0.11055932514E+03  0.15971675197E+03 -0.40700547215E+03  0.51564159994E+03  0.25000000000E+03 0.  0.
    5000001    1    1    2    0    0 -0.11055932514E+03 -0.15971675197E+03 -0.37534901540E+03  0.49103939618E+03  0.25000000000E+03 0.  0.
<mgrwt>
<rscale>  0 0.63350460E+03</rscale>
<asrwt>0</asrwt>
<pdfrwt beam="1">  1        2 0.13761811E+00 0.63350460E+03</pdfrwt>
<pdfrwt beam="2">  1       -2 0.17255886E-01 0.63350460E+03</pdfrwt>
<totfact> 0.82105420E+02</totfact>
</mgrwt>
</event>
<event>
 4    1  0.1714834E-005  0.1004120E+04  0.7818608E-02  0.9304038E-01
          2   -1    0    0  501    0  0.00000000000E+00  0.00000000000E+00  0.15395939355E+04  0.15395939355E+04  0.25500000000E-02 0.  1.
         -2   -1    0    0    0  501 -0.00000000000E+00 -0.00000000000E+00 -0.16372113782E+03  0.16372113784E+03  0.25500000000E-02 0. -1.
   -5000001    1    1    2    0    0 -0.30813355856E+03 -0.24355638900E+03  0.10066385382E+04  0.11090929407E+04  0.25000000000E+03 0.  0.
    5000001    1    1    2    0    0  0.30813355856E+03  0.24355638900E+03  0.36923425945E+03  0.59422213261E+03  0.25000000000E+03 0.  0.
<mgrwt>
<rscale>  0 0.10041197E+04</rscale>
<asrwt>0</asrwt>
<pdfrwt beam="1">  1        2 0.23686060E+00 0.10041197E+04</pdfrwt>
<pdfrwt beam="2">  1       -2 0.25187868E-01 0.10041197E+04</pdfrwt>
<totfact> 0.17021925E+02</totfact>
</mgrwt>
</event>
<event>
 4    1  0.1714834E-005  0.5133103E+03  0.7818608E-02  0.1010362E+00
          2   -1    0    0  501    0  0.00000000000E+00  0.00000000000E+00  0.78357861442E+03  0.78357861442E+03  0.25500000000E-02 0.  1.
         -2   -1    0    0    0  501 -0.00000000000E+00 -0.00000000000E+00 -0.84065427815E+02  0.84065427854E+02  0.25500000000E-02 0. -1.
   -5000001    1    1    2    0    0  0.34556732721E+02  0.67465894839E-01  0.42863543633E+03  0.49741583168E+03  0.25000000000E+03 0.  0.
    5000001    1    1    2    0    0 -0.34556732721E+02 -0.67465894839E-01  0.27087775027E+03  0.37022821059E+03  0.25000000000E+03 0.  0.
<mgrwt>
<rscale>  0 0.51331032E+03</rscale>
<asrwt>0</asrwt>
<pdfrwt beam="1">  1        2 0.12055056E+00 0.51331032E+03</pdfrwt>
<pdfrwt beam="2">  1       -2 0.12933142E-01 0.51331032E+03</pdfrwt>
<totfact> 0.15957757E+03</totfact>
</mgrwt>
</event>
<event>
 4    1  0.1714834E-005  0.1299760E+04  0.7818608E-02  0.9029756E-01
          2   -1    0    0  501    0  0.00000000000E+00  0.00000000000E+00  0.17654536595E+04  0.17654536595E+04  0.25500000000E-02 0. -1.
         -2   -1    0    0    0  501 -0.00000000000E+00 -0.00000000000E+00 -0.23922676214E+03  0.23922676216E+03  0.25500000000E-02 0.  1.
   -5000001    1    1    2    0    0 -0.20131868029E+02 -0.57438654907E+03  0.10281035892E+04  0.12040856241E+04  0.25000000000E+03 0.  0.
    5000001    1    1    2    0    0  0.20131868029E+02  0.57438654907E+03  0.49812330814E+03  0.80059479762E+03  0.25000000000E+03 0.  0.
<mgrwt>
<rscale>  0 0.12997596E+04</rscale>
<asrwt>0</asrwt>
<pdfrwt beam="1">  1        2 0.27160825E+00 0.12997596E+04</pdfrwt>
<pdfrwt beam="2">  1       -2 0.36804118E-01 0.12997596E+04</pdfrwt>
<totfact> 0.61478632E+01</totfact>
</mgrwt>
</event>
<event>
 4    1  0.1714834E-005  0.1042443E+04  0.7818608E-02  0.9263182E-01
         -2   -1    0    0    0  501 -0.00000000000E+00  0.00000000000E+00  0.61730918425E+03  0.61730918426E+03  0.25500000000E-02 0. -1.
          2   -1    0    0  501    0  0.00000000000E+00 -0.00000000000E+00 -0.44009007976E+03  0.44009007976E+03  0.25500000000E-02 0.  1.
   -5000001    1    1    2    0    0 -0.53768049830E+02  0.42490155212E+03 -0.74127089626E+02  0.50142512661E+03  0.25000000000E+03 0.  0.
    5000001    1    1    2    0    0  0.53768049830E+02 -0.42490155212E+03  0.25134619412E+03  0.55597413742E+03  0.25000000000E+03 0.  0.
<mgrwt>
<rscale>  0 0.10424426E+04</rscale>
<asrwt>0</asrwt>
<pdfrwt beam="1">  1        2 0.67706167E-01 0.10424426E+04</pdfrwt>
<pdfrwt beam="2">  1       -2 0.94970643E-01 0.10424426E+04</pdfrwt>
<totfact> 0.66309034E+01</totfact>
</mgrwt>
</event>
<event>
 4    1  0.1714834E-005  0.5766018E+03  0.7818608E-02  0.9955175E-01
         -2   -1    0    0    0  501 -0.00000000000E+00  0.00000000000E+00  0.31630220232E+02  0.31630220335E+02  0.25500000000E-02 0. -1.
          2   -1    0    0  501    0  0.00000000000E+00 -0.00000000000E+00 -0.26277847198E+04  0.26277847198E+04  0.25500000000E-02 0.  1.
   -5000001    1    1    2    0    0  0.33313768103E+02 -0.38591996570E+02 -0.19171854209E+04  0.19340886969E+04  0.25000000000E+03 0.  0.
    5000001    1    1    2    0    0 -0.33313768103E+02  0.38591996570E+02 -0.67896907864E+03  0.72532624321E+03  0.25000000000E+03 0.  0.
<mgrwt>
<rscale>  0 0.57660180E+03</rscale>
<asrwt>0</asrwt>
<pdfrwt beam="1">  1        2 0.40427440E+00 0.57660180E+03</pdfrwt>
<pdfrwt beam="2">  1       -2 0.48661898E-02 0.57660180E+03</pdfrwt>
<totfact> 0.66792136E+02</totfact>
</mgrwt>
</event>
<event>
 4    1  0.1714834E-005  0.7785548E+03  0.7818608E-02  0.9591588E-01
          2   -1    0    0  501    0  0.00000000000E+00  0.00000000000E+00  0.72644824012E+03  0.72644824013E+03  0.25500000000E-02 0.  1.
         -2   -1    0    0    0  501 -0.00000000000E+00 -0.00000000000E+00 -0.20859972792E+03  0.20859972793E+03  0.25500000000E-02 0. -1.
   -5000001    1    1    2    0    0  0.14547526946E+03  0.12771464852E+03 -0.13793250719E+02  0.31648750250E+03  0.25000000000E+03 0.  0.
    5000001    1    1    2    0    0 -0.14547526946E+03 -0.12771464852E+03  0.53164176293E+03  0.61856046556E+03  0.25000000000E+03 0.  0.
<mgrwt>
<rscale>  0 0.77855483E+03</rscale>
<asrwt>0</asrwt>
<pdfrwt beam="1">  1        2 0.11176127E+00 0.77855483E+03</pdfrwt>
<pdfrwt beam="2">  1       -2 0.32092266E-01 0.77855483E+03</pdfrwt>
<totfact> 0.35489135E+02</totfact>
</mgrwt>
</event>
<event>
 4    1  0.1714834E-005  0.1032488E+04  0.7818608E-02  0.9273613E-01
          2   -1    0    0  501    0  0.00000000000E+00  0.00000000000E+00  0.26347586642E+04  0.26347586642E+04  0.25500000000E-02 0.  1.
         -2   -1    0    0    0  501 -0.00000000000E+00 -0.00000000000E+00 -0.10115079995E+03  0.10115079999E+03  0.25500000000E-02 0. -1.
   -5000001    1    1    2    0    0 -0.43052483465E+03 -0.89844614650E+02  0.15394171225E+04  0.16204100608E+04  0.25000000000E+03 0.  0.
    5000001    1    1    2    0    0  0.43052483465E+03  0.89844614650E+02  0.99419074174E+03  0.11154994034E+04  0.25000000000E+03 0.  0.
<mgrwt>
<rscale>  0 0.10324882E+04</rscale>
<asrwt>0</asrwt>
<pdfrwt beam="1">  1        2 0.40534748E+00 0.10324882E+04</pdfrwt>
<pdfrwt beam="2">  1       -2 0.15561662E-01 0.10324882E+04</pdfrwt>
<totfact> 0.96776475E+01</totfact>
</mgrwt>
</event>
<event>
 4    1  0.1714834E-005  0.1119702E+04  0.7818608E-02  0.9186199E-01
         -2   -1    0    0    0  501 -0.00000000000E+00  0.00000000000E+00  0.19690669974E+04  0.19690669974E+04  0.25500000000E-02 0. -1.
          2   -1    0    0  501    0  0.00000000000E+00 -0.00000000000E+00 -0.15917839521E+03  0.15917839523E+03  0.25500000000E-02 0.  1.
   -5000001    1    1    2    0    0 -0.70849331834E+02 -0.48561369879E+03  0.10958951650E+04  0.12265098878E+04  0.25000000000E+03 0.  0.
    5000001    1    1    2    0    0  0.70849331834E+02  0.48561369879E+03  0.71399343720E+03  0.90173550481E+03  0.25000000000E+03 0.  0.
<mgrwt>
<rscale>  0 0.11197016E+04</rscale>
<asrwt>0</asrwt>
<pdfrwt beam="1">  1        2 0.24488982E-01 0.11197016E+04</pdfrwt>
<pdfrwt beam="2">  1       -2 0.30293340E+00 0.11197016E+04</pdfrwt>
<totfact> 0.68699115E+00</totfact>
</mgrwt>
</event>
<event>
 4    1  0.1714834E-005  0.6630129E+03  0.7818608E-02  0.9782663E-01
          2   -1    0    0  501    0  0.00000000000E+00  0.00000000000E+00  0.18987883684E+03  0.18987883686E+03  0.25500000000E-02 0.  1.
         -2   -1    0    0    0  501 -0.00000000000E+00 -0.00000000000E+00 -0.57877184942E+03  0.57877184943E+03  0.25500000000E-02 0. -1.
   -5000001    1    1    2    0    0  0.13943253552E+03  0.61116886351E+02 -0.14023258436E+02  0.29304156281E+03  0.25000000000E+03 0.  0.
    5000001    1    1    2    0    0 -0.13943253552E+03 -0.61116886351E+02 -0.37486975415E+03  0.47560912348E+03  0.25000000000E+03 0.  0.
<mgrwt>
<rscale>  0 0.66301290E+03</rscale>
<asrwt>0</asrwt>
<pdfrwt beam="1">  1        2 0.29212129E-01 0.66301290E+03</pdfrwt>
<pdfrwt beam="2">  1       -2 0.89041823E-01 0.66301290E+03</pdfrwt>
<totfact> 0.20083455E+02</totfact>
</mgrwt>
</event>
<event>
 4    1  0.1714834E-005  0.9367133E+03  0.7818608E-02  0.9380817E-01
         -2   -1    0    0    0  501 -0.00000000000E+00  0.00000000000E+00  0.20167274526E+03  0.20167274528E+03  0.25500000000E-02 0. -1.
          2   -1    0    0  501    0  0.00000000000E+00 -0.00000000000E+00 -0.10876925729E+04  0.10876925729E+04  0.25500000000E-02 0.  1.
   -5000001    1    1    2    0    0  0.19121953762E+02  0.39011588820E+03 -0.53329147186E+03  0.70672190379E+03  0.25000000000E+03 0.  0.
    5000001    1    1    2    0    0 -0.19121953762E+02 -0.39011588820E+03 -0.35272835573E+03  0.58264341434E+03  0.25000000000E+03 0.  0.
<mgrwt>
<rscale>  0 0.93671329E+03</rscale>
<asrwt>0</asrwt>
<pdfrwt beam="1">  1        2 0.16733732E+00 0.93671329E+03</pdfrwt>
<pdfrwt beam="2">  1       -2 0.31026577E-01 0.93671329E+03</pdfrwt>
<totfact> 0.21341644E+02</totfact>
</mgrwt>
</event>
<event>
 4    1  0.1714834E-005  0.5556540E+03  0.7818608E-02  0.1000194E+00
          2   -1    0    0  501    0  0.00000000000E+00  0.00000000000E+00  0.52275687031E+02  0.52275687093E+02  0.25500000000E-02 0.  1.
         -2   -1    0    0    0  501 -0.00000000000E+00 -0.00000000000E+00 -0.14765535168E+04  0.14765535168E+04  0.25500000000E-02 0. -1.
   -5000001    1    1    2    0    0 -0.22460823652E+02  0.11756178330E+03 -0.65974736228E+03  0.71560592754E+03  0.25000000000E+03 0.  0.
    5000001    1    1    2    0    0  0.22460823652E+02 -0.11756178330E+03 -0.76453046749E+03  0.81322327636E+03  0.25000000000E+03 0.  0.
<mgrwt>
<rscale>  0 0.55565403E+03</rscale>
<asrwt>0</asrwt>
<pdfrwt beam="1">  1        2 0.80424145E-02 0.55565403E+03</pdfrwt>
<pdfrwt beam="2">  1       -2 0.22716205E+00 0.55565403E+03</pdfrwt>
<totfact> 0.81127139E+01</totfact>
</mgrwt>
</event>
<event>
 4    1  0.1714834E-005  0.5538819E+03  0.7818608E-02  0.1000599E+00
         -2   -1    0    0    0  501 -0.00000000000E+00  0.00000000000E+00  0.24289933407E+02  0.24289933541E+02  0.25500000000E-02 0. -1.
          2   -1    0    0  501    0  0.00000000000E+00 -0.00000000000E+00 -0.31575333945E+04  0.31575333945E+04  0.25500000000E-02 0.  1.
   -5000001    1    1    2    0    0  0.11625404705E+03 -0.87489007043E+01 -0.14253551410E+04  0.14518019234E+04  0.25000000000E+03 0.  0.
    5000001    1    1    2    0    0 -0.11625404705E+03  0.87489007043E+01 -0.17078883201E+04  0.17300214047E+04  0.25000000000E+03 0.  0.
<mgrwt>
<rscale>  0 0.55388185E+03</rscale>
<asrwt>0</asrwt>
<pdfrwt beam="1">  1        2 0.48577404E+00 0.55388185E+03</pdfrwt>
<pdfrwt beam="2">  1       -2 0.37369153E-02 0.55388185E+03</pdfrwt>
<totfact> 0.48566663E+02</totfact>
</mgrwt>
</event>
<event>
 4    1  0.1714834E-005  0.5800753E+03  0.7818608E-02  0.9947628E-01
         -2   -1    0    0    0  501 -0.00000000000E+00  0.00000000000E+00  0.91615134223E+02  0.91615134259E+02  0.25500000000E-02 0. -1.
          2   -1    0    0  501    0  0.00000000000E+00 -0.00000000000E+00 -0.91820883701E+03  0.91820883701E+03  0.25500000000E-02 0.  1.
   -5000001    1    1    2    0    0 -0.74985361046E+02  0.12629859819E+03 -0.42531824781E+03  0.51475212695E+03  0.25000000000E+03 0.  0.
    5000001    1    1    2    0    0  0.74985361046E+02 -0.12629859819E+03 -0.40127545498E+03  0.49507184432E+03  0.25000000000E+03 0.  0.
<mgrwt>
<rscale>  0 0.58007526E+03</rscale>
<asrwt>0</asrwt>
<pdfrwt beam="1">  1        2 0.14126289E+00 0.58007526E+03</pdfrwt>
<pdfrwt beam="2">  1       -2 0.14094637E-01 0.58007526E+03</pdfrwt>
<totfact> 0.11166340E+03</totfact>
</mgrwt>
</event>
<event>
 4    1  0.1714834E-005  0.6746515E+03  0.7818608E-02  0.9761591E-01
          2   -1    0    0  501    0  0.00000000000E+00  0.00000000000E+00  0.18391525063E+04  0.18391525063E+04  0.25500000000E-02 0.  1.
         -2   -1    0    0    0  501 -0.00000000000E+00 -0.00000000000E+00 -0.61870162743E+02  0.61870162796E+02  0.25500000000E-02 0. -1.
   -5000001    1    1    2    0    0 -0.20246491689E+03  0.10146972111E+03  0.89066930190E+03  0.95240745074E+03  0.25000000000E+03 0.  0.
    5000001    1    1    2    0    0  0.20246491689E+03 -0.10146972111E+03  0.88661304168E+03  0.94861521839E+03  0.25000000000E+03 0.  0.
<mgrwt>
<rscale>  0 0.67465151E+03</rscale>
<asrwt>0</asrwt>
<pdfrwt beam="1">  1        2 0.28294658E+00 0.67465151E+03</pdfrwt>
<pdfrwt beam="2">  1       -2 0.95184852E-02 0.67465151E+03</pdfrwt>
<totfact> 0.62530097E+02</totfact>
</mgrwt>
</event>
<event>
 4    1  0.1714834E-005  0.6343566E+03  0.7818608E-02  0.9836584E-01
          2   -1    0    0  501    0  0.00000000000E+00  0.00000000000E+00  0.22050175622E+04  0.22050175622E+04  0.25500000000E-02 0.  1.
         -2   -1    0    0    0  501 -0.00000000000E+00 -0.00000000000E+00 -0.45624154230E+02  0.45624154301E+02  0.25500000000E-02 0. -1.
   -5000001    1    1    2    0    0 -0.80554963152E+02  0.17667503413E+03  0.11505565817E+04  0.11933078469E+04  0.25000000000E+03 0.  0.
    5000001    1    1    2    0    0  0.80554963152E+02 -0.17667503413E+03  0.10088368262E+04  0.10573338696E+04  0.25000000000E+03 0.  0.
<mgrwt>
<rscale>  0 0.63435656E+03</rscale>
<asrwt>0</asrwt>
<pdfrwt beam="1">  1        2 0.33923356E+00 0.63435656E+03</pdfrwt>
<pdfrwt beam="2">  1       -2 0.70190987E-02 0.63435656E+03</pdfrwt>
<totfact> 0.64537474E+02</totfact>
</mgrwt>
</event>
<event>
 4    1  0.1714834E-005  0.6056070E+03  0.7818608E-02  0.9893841E-01
         -2   -1    0    0    0  501 -0.00000000000E+00  0.00000000000E+00  0.23695277250E+03  0.23695277251E+03  0.25500000000E-02 0. -1.
          2   -1    0    0  501    0  0.00000000000E+00 -0.00000000000E+00 -0.38695457361E+03  0.38695457361E+03  0.25500000000E-02 0.  1.
   -5000001    1    1    2    0    0 -0.14659116393E+03 -0.23658258292E+02  0.12058794018E+02  0.29102250264E+03  0.25000000000E+03 0.  0.
    5000001    1    1    2    0    0  0.14659116393E+03  0.23658258292E+02 -0.16206059513E+03  0.33288484349E+03  0.25000000000E+03 0.  0.
<mgrwt>
<rscale>  0 0.60560700E+03</rscale>
<asrwt>0</asrwt>
<pdfrwt beam="1">  1        2 0.59531473E-01 0.60560700E+03</pdfrwt>
<pdfrwt beam="2">  1       -2 0.36454273E-01 0.60560700E+03</pdfrwt>
<totfact> 0.58888410E+02</totfact>
</mgrwt>
</event>
<event>
 4    1  0.1714834E-005  0.1126639E+04  0.7818608E-02  0.9179610E-01
         -2   -1    0    0    0  501 -0.00000000000E+00  0.00000000000E+00  0.27376913755E+03  0.27376913756E+03  0.25500000000E-02 0. -1.
          2   -1    0    0  501    0  0.00000000000E+00 -0.00000000000E+00 -0.11591104777E+04  0.11591104777E+04  0.25500000000E-02 0.  1.
   -5000001    1    1    2    0    0 -0.32628833724E+03 -0.38247103738E+03 -0.38465983007E+03  0.68059632553E+03  0.25000000000E+03 0.  0.
    5000001    1    1    2    0    0  0.32628833724E+03  0.38247103738E+03 -0.50068151006E+03  0.75228328970E+03  0.25000000000E+03 0.  0.
<mgrwt>
<rscale>  0 0.11266387E+04</rscale>
<asrwt>0</asrwt>
<pdfrwt beam="1">  1        2 0.17832469E+00 0.11266387E+04</pdfrwt>
<pdfrwt beam="2">  1       -2 0.42118329E-01 0.11266387E+04</pdfrwt>
<totfact> 0.10609519E+02</totfact>
</mgrwt>
</event>
<event>
 4    1  0.1714834E-005  0.2430772E+04  0.7818608E-02  0.8428072E-01
          2   -1    0    0  501    0  0.00000000000E+00  0.00000000000E+00  0.30684532477E+04  0.30684532477E+04  0.25500000000E-02 0.  1.
         -2   -1    0    0    0  501 -0.00000000000E+00 -0.00000000000E+00 -0.48140334606E+03  0.48140334607E+03  0.25500000000E-02 0. -1.
   -5000001    1    1    2    0    0 -0.93089109740E+02  0.10191821828E+04  0.40849753483E+03  0.11299416533E+04  0.25000000000E+03 0.  0.
    5000001    1    1    2    0    0  0.93089109740E+02 -0.10191821828E+04  0.21785523669E+04  0.24199149405E+04  0.25000000000E+03 0.  0.
<mgrwt>
<rscale>  0 0.24307724E+04</rscale>
<asrwt>0</asrwt>
<pdfrwt beam="1">  1        2 0.47206971E+00 0.24307724E+04</pdfrwt>
<pdfrwt beam="2">  1       -2 0.74062056E-01 0.24307724E+04</pdfrwt>
<totfact> 0.23225752E+00</totfact>
</mgrwt>
</event>
<event>
 4    1  0.1714834E-005  0.9195218E+03  0.7818608E-02  0.9401502E-01
          2   -1    0    0  501    0  0.00000000000E+00  0.00000000000E+00  0.85451554468E+03  0.85451554468E+03  0.25500000000E-02 0.  1.
         -2   -1    0    0    0  501 -0.00000000000E+00 -0.00000000000E+00 -0.24736831300E+03  0.24736831301E+03  0.25500000000E-02 0. -1.
   -5000001    1    1    2    0    0 -0.18498506691E+03 -0.28883508089E+03  0.51535793287E+03  0.66763686080E+03  0.25000000000E+03 0.  0.
    5000001    1    1    2    0    0  0.18498506691E+03  0.28883508089E+03  0.91789298813E+02  0.43424699689E+03  0.25000000000E+03 0.  0.
<mgrwt>
<rscale>  0 0.91952176E+03</rscale>
<asrwt>0</asrwt>
<pdfrwt beam="1">  1        2 0.13146393E+00 0.91952176E+03</pdfrwt>
<pdfrwt beam="2">  1       -2 0.38056664E-01 0.91952176E+03</pdfrwt>
<totfact> 0.20562082E+02</totfact>
</mgrwt>
</event>
<event>
 4    1  0.1714834E-005  0.5967299E+03  0.7818608E-02  0.9912214E-01
         -2   -1    0    0    0  501 -0.00000000000E+00  0.00000000000E+00  0.20882600803E+03  0.20882600804E+03  0.25500000000E-02 0. -1.
          2   -1    0    0  501    0  0.00000000000E+00 -0.00000000000E+00 -0.42629572147E+03  0.42629572148E+03  0.25500000000E-02 0.  1.
   -5000001    1    1    2    0    0 -0.25325689646E+02 -0.92752011022E+02  0.31164986923E+02  0.26965826988E+03  0.25000000000E+03 0.  0.
    5000001    1    1    2    0    0  0.25325689646E+02  0.92752011022E+02 -0.24863470037E+03  0.36546345964E+03  0.25000000000E+03 0.  0.
<mgrwt>
<rscale>  0 0.59672987E+03</rscale>
<asrwt>0</asrwt>
<pdfrwt beam="1">  1        2 0.65583957E-01 0.59672987E+03</pdfrwt>
<pdfrwt beam="2">  1       -2 0.32127078E-01 0.59672987E+03</pdfrwt>
<totfact> 0.67090081E+02</totfact>
</mgrwt>
</event>
<event>
 4    1  0.1714834E-005  0.6797694E+03  0.7818608E-02  0.9752469E-01
          2   -1    0    0  501    0  0.00000000000E+00  0.00000000000E+00  0.11974601641E+03  0.11974601644E+03  0.25500000000E-02 0.  1.
         -2   -1    0    0    0  501 -0.00000000000E+00 -0.00000000000E+00 -0.96472199396E+03  0.96472199397E+03  0.25500000000E-02 0. -1.
   -5000001    1    1    2    0    0  0.19929183759E+03  0.11023778118E+03 -0.36833986666E+03  0.50004386038E+03  0.25000000000E+03 0.  0.
    5000001    1    1    2    0    0 -0.19929183759E+03 -0.11023778118E+03 -0.47663611089E+03  0.58442415003E+03  0.25000000000E+03 0.  0.
<mgrwt>
<rscale>  0 0.67976942E+03</rscale>
<asrwt>0</asrwt>
<pdfrwt beam="1">  1        2 0.18422465E-01 0.67976942E+03</pdfrwt>
<pdfrwt beam="2">  1       -2 0.14841876E+00 0.67976942E+03</pdfrwt>
<totfact> 0.97833267E+01</totfact>
</mgrwt>
</event>
<event>
 4    1  0.1714834E-005  0.7421831E+03  0.7818608E-02  0.9647694E-01
          2   -1    0    0  501    0  0.00000000000E+00  0.00000000000E+00  0.25526516168E+04  0.25526516168E+04  0.25500000000E-02 0.  1.
         -2   -1    0    0    0  501 -0.00000000000E+00 -0.00000000000E+00 -0.53947400940E+02  0.53947401000E+02  0.25500000000E-02 0. -1.
   -5000001    1    1    2    0    0 -0.22133072356E+03  0.14993361252E+03  0.14641789591E+04  0.15092340447E+04  0.25000000000E+03 0.  0.
    5000001    1    1    2    0    0  0.22133072356E+03 -0.14993361252E+03  0.10345252567E+04  0.10973649731E+04  0.25000000000E+03 0.  0.
<mgrwt>
<rscale>  0 0.74218305E+03</rscale>
<asrwt>0</asrwt>
<pdfrwt beam="1">  1        2 0.39271571E+00 0.74218305E+03</pdfrwt>
<pdfrwt beam="2">  1       -2 0.82995986E-02 0.74218305E+03</pdfrwt>
<totfact> 0.31307505E+02</totfact>
</mgrwt>
</event>
<event>
 4    1  0.1714834E-005  0.6254758E+03  0.7818608E-02  0.9853918E-01
          2   -1    0    0  501    0  0.00000000000E+00  0.00000000000E+00  0.19852199191E+04  0.19852199191E+04  0.25500000000E-02 0.  1.
         -2   -1    0    0    0  501 -0.00000000000E+00 -0.00000000000E+00 -0.49266571397E+02  0.49266571463E+02  0.25500000000E-02 0. -1.
   -5000001    1    1    2    0    0 -0.84018013873E+02 -0.16715117469E+03  0.91103699652E+03  0.96306123942E+03  0.25000000000E+03 0.  0.
    5000001    1    1    2    0    0  0.84018013873E+02  0.16715117469E+03  0.10249163512E+04  0.10714252512E+04  0.25000000000E+03 0.  0.
<mgrwt>
<rscale>  0 0.62547575E+03</rscale>
<asrwt>0</asrwt>
<pdfrwt beam="1">  1        2 0.30541835E+00 0.62547575E+03</pdfrwt>
<pdfrwt beam="2">  1       -2 0.75794750E-02 0.62547575E+03</pdfrwt>
<totfact> 0.75326675E+02</totfact>
</mgrwt>
</event>
<event>
 4    1  0.1714834E-005  0.8150859E+03  0.7818608E-02  0.9538434E-01
          2   -1    0    0  501    0  0.00000000000E+00  0.00000000000E+00  0.13473263479E+04  0.13473263479E+04  0.25500000000E-02 0.  1.
         -2   -1    0    0    0  501 -0.00000000000E+00 -0.00000000000E+00 -0.12327471415E+03  0.12327471418E+03  0.25500000000E-02 0. -1.
   -5000001    1    1    2    0    0  0.16132282420E+03 -0.24555967370E+03  0.37494539658E+03  0.53796715269E+03  0.25000000000E+03 0.  0.
    5000001    1    1    2    0    0 -0.16132282420E+03  0.24555967370E+03  0.84910623720E+03  0.93263390942E+03  0.25000000000E+03 0.  0.
<mgrwt>
<rscale>  0 0.81508594E+03</rscale>
<asrwt>0</asrwt>
<pdfrwt beam="1">  1        2 0.20728098E+00 0.81508594E+03</pdfrwt>
<pdfrwt beam="2">  1       -2 0.18965341E-01 0.81508594E+03</pdfrwt>
<totfact> 0.36588165E+02</totfact>
</mgrwt>
</event>
<event>
 4    1  0.1714834E-005  0.1099142E+04  0.7818608E-02  0.9206028E-01
         -2   -1    0    0    0  501 -0.00000000000E+00  0.00000000000E+00  0.27860316581E+03  0.27860316582E+03  0.25500000000E-02 0. -1.
          2   -1    0    0  501    0  0.00000000000E+00 -0.00000000000E+00 -0.10840811624E+04  0.10840811624E+04  0.25500000000E-02 0.  1.
   -5000001    1    1    2    0    0  0.30799561116E+03 -0.33222501317E+03 -0.17315139248E+03  0.54563372383E+03  0.25000000000E+03 0.  0.
    5000001    1    1    2    0    0 -0.30799561116E+03  0.33222501317E+03 -0.63232660411E+03  0.81705060439E+03  0.25000000000E+03 0.  0.
<mgrwt>
<rscale>  0 0.10991423E+04</rscale>
<asrwt>0</asrwt>
<pdfrwt beam="1">  1        2 0.16678171E+00 0.10991423E+04</pdfrwt>
<pdfrwt beam="2">  1       -2 0.42862026E-01 0.10991423E+04</pdfrwt>
<totfact> 0.11412558E+02</totfact>
</mgrwt>
</event>
<event>
 4    1  0.1714834E-005  0.1011043E+04  0.7818608E-02  0.9296515E-01
         -2   -1    0    0    0  501 -0.00000000000E+00  0.00000000000E+00  0.91103725319E+02  0.91103725354E+02  0.25500000000E-02 0. -1.
          2   -1    0    0  501    0  0.00000000000E+00 -0.00000000000E+00 -0.28050653157E+04  0.28050653157E+04  0.25500000000E-02 0.  1.
   -5000001    1    1    2    0    0 -0.22946689552E+03  0.21037107051E+03 -0.46878574686E+03  0.61576872274E+03  0.25000000000E+03 0.  0.
    5000001    1    1    2    0    0  0.22946689552E+03 -0.21037107051E+03 -0.22451758436E+04  0.22804003183E+04  0.25000000000E+03 0.  0.
<mgrwt>
<rscale>  0 0.10110428E+04</rscale>
<asrwt>0</asrwt>
<pdfrwt beam="1">  1        2 0.43154844E+00 0.10110428E+04</pdfrwt>
<pdfrwt beam="2">  1       -2 0.14015960E-01 0.10110428E+04</pdfrwt>
<totfact> 0.91919346E+01</totfact>
</mgrwt>
</event>
<event>
 4    1  0.1714834E-005  0.7378534E+03  0.7818608E-02  0.9654602E-01
         -2   -1    0    0    0  501 -0.00000000000E+00  0.00000000000E+00  0.55347426305E+02  0.55347426363E+02  0.25500000000E-02 0. -1.
          2   -1    0    0  501    0  0.00000000000E+00 -0.00000000000E+00 -0.24591370197E+04  0.24591370197E+04  0.25500000000E-02 0.  1.
   -5000001    1    1    2    0    0  0.16032889491E+03  0.18687899711E+03 -0.15901160127E+04  0.16283728221E+04  0.25000000000E+03 0.  0.
    5000001    1    1    2    0    0 -0.16032889491E+03 -0.18687899711E+03 -0.81367358074E+03  0.88611162395E+03  0.25000000000E+03 0.  0.
<mgrwt>
<rscale>  0 0.73785339E+03</rscale>
<asrwt>0</asrwt>
<pdfrwt beam="1">  1        2 0.37832869E+00 0.73785339E+03</pdfrwt>
<pdfrwt beam="2">  1       -2 0.85149906E-02 0.73785339E+03</pdfrwt>
<totfact> 0.33961159E+02</totfact>
</mgrwt>
</event>
<event>
 4    1  0.1714834E-005  0.7311033E+03  0.7818608E-02  0.9665472E-01
          2   -1    0    0  501    0  0.00000000000E+00  0.00000000000E+00  0.12782551506E+04  0.12782551506E+04  0.25500000000E-02 0.  1.
         -2   -1    0    0    0  501 -0.00000000000E+00 -0.00000000000E+00 -0.10453939903E+03  0.10453939906E+03  0.25500000000E-02 0. -1.
   -5000001    1    1    2    0    0  0.16606153560E+03 -0.13735463570E+02  0.98071453368E+03  0.10257027314E+04  0.25000000000E+03 0.  0.
    5000001    1    1    2    0    0 -0.16606153560E+03  0.13735463570E+02  0.19300121785E+03  0.35709181825E+03  0.25000000000E+03 0.  0.
<mgrwt>
<rscale>  0 0.73110334E+03</rscale>
<asrwt>0</asrwt>
<pdfrwt beam="1">  1        2 0.19665464E+00 0.73110334E+03</pdfrwt>
<pdfrwt beam="2">  1       -2 0.16082984E-01 0.73110334E+03</pdfrwt>
<totfact> 0.53480861E+02</totfact>
</mgrwt>
</event>
<event>
 4    1  0.1714834E-005  0.7970135E+03  0.7818608E-02  0.9564350E-01
         -2   -1    0    0    0  501 -0.00000000000E+00  0.00000000000E+00  0.64749548938E+03  0.64749548938E+03  0.25500000000E-02 0. -1.
          2   -1    0    0  501    0  0.00000000000E+00 -0.00000000000E+00 -0.24526447638E+03  0.24526447639E+03  0.25500000000E-02 0.  1.
   -5000001    1    1    2    0    0  0.29762786901E+03  0.69580111276E+02  0.14096223502E+03  0.41927806048E+03  0.25000000000E+03 0.  0.
    5000001    1    1    2    0    0 -0.29762786901E+03 -0.69580111276E+02  0.26126877797E+03  0.47348190529E+03  0.25000000000E+03 0.  0.
<mgrwt>
<rscale>  0 0.79701353E+03</rscale>
<asrwt>0</asrwt>
<pdfrwt beam="1">  1        2 0.37732996E-01 0.79701353E+03</pdfrwt>
<pdfrwt beam="2">  1       -2 0.99614691E-01 0.79701353E+03</pdfrwt>
<totfact> 0.11544943E+02</totfact>
</mgrwt>
</event>
<event>
 4    1  0.1714834E-005  0.6982318E+03  0.7818608E-02  0.9720261E-01
          2   -1    0    0  501    0  0.00000000000E+00  0.00000000000E+00  0.35437550257E+04  0.35437550257E+04  0.25500000000E-02 0.  1.
         -2   -1    0    0    0  501 -0.00000000000E+00 -0.00000000000E+00 -0.34393438290E+02  0.34393438384E+02  0.25500000000E-02 0. -1.
   -5000001    1    1    2    0    0 -0.22666133275E+03  0.40270420093E+02  0.21641621984E+04  0.21906837032E+04  0.25000000000E+03 0.  0.
    5000001    1    1    2    0    0  0.22666133275E+03 -0.40270420093E+02  0.13451993891E+04  0.13874647609E+04  0.25000000000E+03 0.  0.
<mgrwt>
<rscale>  0 0.69823182E+03</rscale>
<asrwt>0</asrwt>
<pdfrwt beam="1">  1        2 0.54519318E+00 0.69823182E+03</pdfrwt>
<pdfrwt beam="2">  1       -2 0.52912973E-02 0.69823182E+03</pdfrwt>
<totfact> 0.15545454E+02</totfact>
</mgrwt>
</event>
<event>
 4    1  0.1714834E-005  0.7544615E+03  0.7818608E-02  0.9628377E-01
         -2   -1    0    0    0  501 -0.00000000000E+00  0.00000000000E+00  0.44796983892E+03  0.44796983893E+03  0.25500000000E-02 0. -1.
          2   -1    0    0  501    0  0.00000000000E+00 -0.00000000000E+00 -0.31766211561E+03  0.31766211563E+03  0.25500000000E-02 0.  1.
   -5000001    1    1    2    0    0  0.15303625553E+03  0.23567217630E+03  0.35714405868E+02  0.37780549093E+03  0.25000000000E+03 0.  0.
    5000001    1    1    2    0    0 -0.15303625553E+03 -0.23567217630E+03  0.94593317441E+02  0.38782646363E+03  0.25000000000E+03 0.  0.
<mgrwt>
<rscale>  0 0.75446152E+03</rscale>
<asrwt>0</asrwt>
<pdfrwt beam="1">  1        2 0.48871095E-01 0.75446152E+03</pdfrwt>
<pdfrwt beam="2">  1       -2 0.68918436E-01 0.75446152E+03</pdfrwt>
<totfact> 0.19985313E+02</totfact>
</mgrwt>
</event>
<event>
 4    1  0.1714834E-005  0.1639023E+04  0.7818608E-02  0.8796927E-01
          2   -1    0    0  501    0  0.00000000000E+00  0.00000000000E+00  0.27226508201E+04  0.27226508201E+04  0.25500000000E-02 0.  1.
         -2   -1    0    0    0  501 -0.00000000000E+00 -0.00000000000E+00 -0.24667109226E+03  0.24667109227E+03  0.25500000000E-02 0. -1.
   -5000001    1    1    2    0    0  0.61477003270E+03  0.38483707528E+03  0.17600993351E+04  0.19200238116E+04  0.25000000000E+03 0.  0.
    5000001    1    1    2    0    0 -0.61477003270E+03 -0.38483707528E+03  0.71588039275E+03  0.10492981008E+04  0.25000000000E+03 0.  0.
<mgrwt>
<rscale>  0 0.16390232E+04</rscale>
<asrwt>0</asrwt>
<pdfrwt beam="1">  1        2 0.41886935E+00 0.16390232E+04</pdfrwt>
<pdfrwt beam="2">  1       -2 0.37949399E-01 0.16390232E+04</pdfrwt>
<totfact> 0.16182338E+01</totfact>
</mgrwt>
</event>
<event>
 4    1  0.1714834E-005  0.7796620E+03  0.7818608E-02  0.9589931E-01
          2   -1    0    0  501    0  0.00000000000E+00  0.00000000000E+00  0.58784219581E+03  0.58784219582E+03  0.25500000000E-02 0.  1.
         -2   -1    0    0    0  501 -0.00000000000E+00 -0.00000000000E+00 -0.25851874386E+03  0.25851874387E+03  0.25500000000E-02 0. -1.
   -5000001    1    1    2    0    0  0.55012497307E+02 -0.25778184103E+03  0.11178939510E+02  0.36345951784E+03  0.25000000000E+03 0.  0.
    5000001    1    1    2    0    0 -0.55012497307E+02  0.25778184103E+03  0.31814451244E+03  0.48290142184E+03  0.25000000000E+03 0.  0.
<mgrwt>
<rscale>  0 0.77966204E+03</rscale>
<asrwt>0</asrwt>
<pdfrwt beam="1">  1        2 0.90437261E-01 0.77966204E+03</pdfrwt>
<pdfrwt beam="2">  1       -2 0.39772115E-01 0.77966204E+03</pdfrwt>
<totfact> 0.30602405E+02</totfact>
</mgrwt>
</event>
<event>
 4    1  0.1714834E-005  0.7142046E+03  0.7818608E-02  0.9693244E-01
         -2   -1    0    0    0  501 -0.00000000000E+00  0.00000000000E+00  0.13487664131E+03  0.13487664134E+03  0.25500000000E-02 0. -1.
          2   -1    0    0  501    0  0.00000000000E+00 -0.00000000000E+00 -0.94547183701E+03  0.94547183701E+03  0.25500000000E-02 0.  1.
   -5000001    1    1    2    0    0 -0.25498748329E+03  0.87927549425E+00 -0.40777211888E+03  0.54203089460E+03  0.25000000000E+03 0.  0.
    5000001    1    1    2    0    0  0.25498748329E+03 -0.87927549425E+00 -0.40282307681E+03  0.53831758375E+03  0.25000000000E+03 0.  0.
<mgrwt>
<rscale>  0 0.71420464E+03</rscale>
<asrwt>0</asrwt>
<pdfrwt beam="1">  1        2 0.14545720E+00 0.71420464E+03</pdfrwt>
<pdfrwt beam="2">  1       -2 0.20750253E-01 0.71420464E+03</pdfrwt>
<totfact> 0.55023308E+02</totfact>
</mgrwt>
</event>
<event>
 4    1  0.1714834E-005  0.5789255E+03  0.7818608E-02  0.9950120E-01
         -2   -1    0    0    0  501 -0.00000000000E+00  0.00000000000E+00  0.12306001660E+03  0.12306001663E+03  0.25500000000E-02 0. -1.
          2   -1    0    0  501    0  0.00000000000E+00 -0.00000000000E+00 -0.68087650841E+03  0.68087650841E+03  0.25500000000E-02 0.  1.
   -5000001    1    1    2    0    0 -0.31545381752E+02  0.14238315273E+03 -0.28521120989E+03  0.40634161433E+03  0.25000000000E+03 0.  0.
    5000001    1    1    2    0    0  0.31545381752E+02 -0.14238315273E+03 -0.27260528192E+03  0.39759491071E+03  0.25000000000E+03 0.  0.
<mgrwt>
<rscale>  0 0.57892547E+03</rscale>
<asrwt>0</asrwt>
<pdfrwt beam="1">  1        2 0.10475023E+00 0.57892547E+03</pdfrwt>
<pdfrwt beam="2">  1       -2 0.18932311E-01 0.57892547E+03</pdfrwt>
<totfact> 0.10008154E+03</totfact>
</mgrwt>
</event>
<event>
 4    1  0.1714834E-005  0.7247110E+03  0.7818608E-02  0.9675882E-01
         -2   -1    0    0    0  501 -0.00000000000E+00  0.00000000000E+00  0.30282867262E+02  0.30282867370E+02  0.25500000000E-02 0. -1.
          2   -1    0    0  501    0  0.00000000000E+00 -0.00000000000E+00 -0.43358346411E+04  0.43358346411E+04  0.25500000000E-02 0.  1.
   -5000001    1    1    2    0    0 -0.14520238527E+03  0.15151540674E+03 -0.12047648761E+04  0.12481983247E+04  0.25000000000E+03 0.  0.
    5000001    1    1    2    0    0  0.14520238527E+03 -0.15151540674E+03 -0.31007868977E+04  0.31179191837E+04  0.25000000000E+03 0.  0.
<mgrwt>
<rscale>  0 0.72471099E+03</rscale>
<asrwt>0</asrwt>
<pdfrwt beam="1">  1        2 0.66705099E+00 0.72471099E+03</pdfrwt>
<pdfrwt beam="2">  1       -2 0.46589061E-02 0.72471099E+03</pdfrwt>
<totfact> 0.45687978E+01</totfact>
</mgrwt>
</event>
<event>
 4    1  0.1714834E-005  0.6673171E+03  0.7818608E-02  0.9774817E-01
          2   -1    0    0  501    0  0.00000000000E+00  0.00000000000E+00  0.18587592830E+04  0.18587592830E+04  0.25500000000E-02 0.  1.
         -2   -1    0    0    0  501 -0.00000000000E+00 -0.00000000000E+00 -0.59893732390E+02  0.59893732444E+02  0.25500000000E-02 0. -1.
   -5000001    1    1    2    0    0 -0.14751880269E+03 -0.14702485375E+03  0.68717700887E+03  0.76032252781E+03  0.25000000000E+03 0.  0.
    5000001    1    1    2    0    0  0.14751880269E+03  0.14702485375E+03  0.11116885417E+04  0.11583304876E+04  0.25000000000E+03 0.  0.
<mgrwt>
<rscale>  0 0.66731711E+03</rscale>
<asrwt>0</asrwt>
<pdfrwt beam="1">  1        2 0.28596294E+00 0.66731711E+03</pdfrwt>
<pdfrwt beam="2">  1       -2 0.92144211E-02 0.66731711E+03</pdfrwt>
<totfact> 0.64335207E+02</totfact>
</mgrwt>
</event>
<event>
 4    1  0.1714834E-005  0.7669910E+03  0.7818608E-02  0.9609065E-01
          2   -1    0    0  501    0  0.00000000000E+00  0.00000000000E+00  0.10262067977E+04  0.10262067977E+04  0.25500000000E-02 0.  1.
         -2   -1    0    0    0  501 -0.00000000000E+00 -0.00000000000E+00 -0.14331302258E+03  0.14331302260E+03  0.25500000000E-02 0. -1.
   -5000001    1    1    2    0    0  0.41971845712E+02 -0.25590526091E+03  0.24077478772E+03  0.43326855044E+03  0.25000000000E+03 0.  0.
    5000001    1    1    2    0    0 -0.41971845712E+02  0.25590526091E+03  0.64211898737E+03  0.73625126984E+03  0.25000000000E+03 0.  0.
<mgrwt>
<rscale>  0 0.76699100E+03</rscale>
<asrwt>0</asrwt>
<pdfrwt beam="1">  1        2 0.15787798E+00 0.76699100E+03</pdfrwt>
<pdfrwt beam="2">  1       -2 0.22048156E-01 0.76699100E+03</pdfrwt>
<totfact> 0.43778111E+02</totfact>
</mgrwt>
</event>
<event>
 4    1  0.1714834E-005  0.5972473E+03  0.7818608E-02  0.9911134E-01
         -2   -1    0    0    0  501 -0.00000000000E+00  0.00000000000E+00  0.56442481729E+02  0.56442481786E+02  0.25500000000E-02 0. -1.
          2   -1    0    0  501    0  0.00000000000E+00 -0.00000000000E+00 -0.15799460417E+04  0.15799460417E+04  0.25500000000E-02 0.  1.
   -5000001    1    1    2    0    0  0.59156312445E+02 -0.83497512087E+02 -0.11105334967E+04  0.11429155486E+04  0.25000000000E+03 0.  0.
    5000001    1    1    2    0    0 -0.59156312445E+02  0.83497512087E+02 -0.41297006321E+03  0.49347297488E+03  0.25000000000E+03 0.  0.
<mgrwt>
<rscale>  0 0.59724727E+03</rscale>
<asrwt>0</asrwt>
<pdfrwt beam="1">  1        2 0.24306859E+00 0.59724727E+03</pdfrwt>
<pdfrwt beam="2">  1       -2 0.86834599E-02 0.59724727E+03</pdfrwt>
<totfact> 0.10078257E+03</totfact>
</mgrwt>
</event>
<event>
 4    1  0.1714834E-005  0.8110686E+03  0.7818608E-02  0.9544132E-01
         -2   -1    0    0    0  501 -0.00000000000E+00  0.00000000000E+00  0.67705345093E+02  0.67705345141E+02  0.25500000000E-02 0. -1.
          2   -1    0    0  501    0  0.00000000000E+00 -0.00000000000E+00 -0.24290265321E+04  0.24290265321E+04  0.25500000000E-02 0.  1.
   -5000001    1    1    2    0    0  0.19153066764E+03  0.24478375678E+03 -0.95539552308E+03  0.10353181587E+04  0.25000000000E+03 0.  0.
    5000001    1    1    2    0    0 -0.19153066764E+03 -0.24478375678E+03 -0.14059256639E+04  0.14614137185E+04  0.25000000000E+03 0.  0.
<mgrwt>
<rscale>  0 0.81106863E+03</rscale>
<asrwt>0</asrwt>
<pdfrwt beam="1">  1        2 0.37369632E+00 0.81106863E+03</pdfrwt>
<pdfrwt beam="2">  1       -2 0.10416209E-01 0.81106863E+03</pdfrwt>
<totfact> 0.25306006E+02</totfact>
</mgrwt>
</event>
<event>
 4    1  0.1714834E-005  0.1173831E+04  0.7818608E-02  0.9136075E-01
          2   -1    0    0  501    0  0.00000000000E+00  0.00000000000E+00  0.43584673182E+03  0.43584673183E+03  0.25500000000E-02 0.  1.
         -2   -1    0    0    0  501 -0.00000000000E+00 -0.00000000000E+00 -0.79034658404E+03  0.79034658404E+03  0.25500000000E-02 0. -1.
   -5000001    1    1    2    0    0 -0.79489163256E+00  0.42031749980E+03 -0.51622884603E+03  0.71109749961E+03  0.25000000000E+03 0.  0.
    5000001    1    1    2    0    0  0.79489163256E+00 -0.42031749980E+03  0.16172899381E+03  0.51509581626E+03  0.25000000000E+03 0.  0.
<mgrwt>
<rscale>  0 0.11738313E+04</rscale>
<asrwt>0</asrwt>
<pdfrwt beam="1">  1        2 0.67053343E-01 0.11738313E+04</pdfrwt>
<pdfrwt beam="2">  1       -2 0.12159178E+00 0.11738313E+04</pdfrwt>
<totfact> 0.36622084E+01</totfact>
</mgrwt>
</event>
<event>
 4    1  0.1714834E-005  0.6715008E+03  0.7818608E-02  0.9767250E-01
         -2   -1    0    0    0  501 -0.00000000000E+00  0.00000000000E+00  0.88804333905E+03  0.88804333906E+03  0.25500000000E-02 0.  1.
          2   -1    0    0  501    0  0.00000000000E+00 -0.00000000000E+00 -0.12694013189E+03  0.12694013192E+03  0.25500000000E-02 0. -1.
   -5000001    1    1    2    0    0 -0.79264780861E+02  0.20136124966E+03  0.29242782104E+03  0.44141056724E+03  0.25000000000E+03 0.  0.
    5000001    1    1    2    0    0  0.79264780861E+02 -0.20136124966E+03  0.46867538612E+03  0.57357290374E+03  0.25000000000E+03 0.  0.
<mgrwt>
<rscale>  0 0.67150082E+03</rscale>
<asrwt>0</asrwt>
<pdfrwt beam="1">  1        2 0.19529251E-01 0.67150082E+03</pdfrwt>
<pdfrwt beam="2">  1       -2 0.13662205E+00 0.67150082E+03</pdfrwt>
<totfact> 0.11327557E+02</totfact>
</mgrwt>
</event>
<event>
 4    1  0.1714834E-005  0.6065962E+03  0.7818608E-02  0.9891815E-01
         -2   -1    0    0    0  501 -0.00000000000E+00  0.00000000000E+00  0.18158374351E+03  0.18158374353E+03  0.25500000000E-02 0. -1.
          2   -1    0    0  501    0  0.00000000000E+00 -0.00000000000E+00 -0.50659684150E+03  0.50659684151E+03  0.25500000000E-02 0.  1.
   -5000001    1    1    2    0    0 -0.75387112181E+02 -0.14642021049E+02  0.11748920186E+02  0.26179312938E+03  0.25000000000E+03 0.  0.
    5000001    1    1    2    0    0  0.75387112181E+02  0.14642021049E+02 -0.33676201817E+03  0.42638745566E+03  0.25000000000E+03 0.  0.
<mgrwt>
<rscale>  0 0.60659624E+03</rscale>
<asrwt>0</asrwt>
<pdfrwt beam="1">  1        2 0.77937975E-01 0.60659624E+03</pdfrwt>
<pdfrwt beam="2">  1       -2 0.27935961E-01 0.60659624E+03</pdfrwt>
<totfact> 0.71341479E+02</totfact>
</mgrwt>
</event>
<event>
 4    1  0.1714834E-005  0.5534394E+03  0.7818608E-02  0.1000701E+00
         -2   -1    0    0    0  501 -0.00000000000E+00  0.00000000000E+00  0.53868710138E+02  0.53868710198E+02  0.25500000000E-02 0. -1.
          2   -1    0    0  501    0  0.00000000000E+00 -0.00000000000E+00 -0.14214892235E+04  0.14214892235E+04  0.25500000000E-02 0.  1.
   -5000001    1    1    2    0    0 -0.11772709684E+03  0.69868348399E+01 -0.64953573776E+03  0.70590733090E+03  0.25000000000E+03 0.  0.
    5000001    1    1    2    0    0  0.11772709684E+03 -0.69868348399E+01 -0.71808477555E+03  0.76945060275E+03  0.25000000000E+03 0.  0.
<mgrwt>
<rscale>  0 0.55343940E+03</rscale>
<asrwt>0</asrwt>
<pdfrwt beam="1">  1        2 0.21869062E+00 0.55343940E+03</pdfrwt>
<pdfrwt beam="2">  1       -2 0.82874950E-02 0.55343940E+03</pdfrwt>
<totfact> 0.13307353E+03</totfact>
</mgrwt>
</event>
<event>
 4    1  0.1714834E-005  0.5631364E+03  0.7818608E-02  0.9984983E-01
         -2   -1    0    0    0  501 -0.00000000000E+00  0.00000000000E+00  0.54500129985E+02  0.54500130044E+02  0.25500000000E-02 0. -1.
          2   -1    0    0  501    0  0.00000000000E+00 -0.00000000000E+00 -0.14546875522E+04  0.14546875522E+04  0.25500000000E-02 0.  1.
   -5000001    1    1    2    0    0 -0.10615540213E+03  0.30301417878E+02 -0.88172983027E+03  0.92311139031E+03  0.25000000000E+03 0.  0.
    5000001    1    1    2    0    0  0.10615540213E+03 -0.30301417878E+02 -0.51845759193E+03  0.58607629192E+03  0.25000000000E+03 0.  0.
<mgrwt>
<rscale>  0 0.56313643E+03</rscale>
<asrwt>0</asrwt>
<pdfrwt beam="1">  1        2 0.22379805E+00 0.56313643E+03</pdfrwt>
<pdfrwt beam="2">  1       -2 0.83846365E-02 0.56313643E+03</pdfrwt>
<totfact> 0.12513935E+03</totfact>
</mgrwt>
</event>
<event>
 4    1  0.1714834E-005  0.5465877E+03  0.7818608E-02  0.1002287E+00
         -2   -1    0    0    0  501 -0.00000000000E+00  0.00000000000E+00  0.46077004788E+02  0.46077004858E+02  0.25500000000E-02 0. -1.
          2   -1    0    0  501    0  0.00000000000E+00 -0.00000000000E+00 -0.16209718169E+04  0.16209718169E+04  0.25500000000E-02 0.  1.
   -5000001    1    1    2    0    0  0.87357019803E+02 -0.66317455062E+02 -0.82605901847E+03  0.87000158376E+03  0.25000000000E+03 0.  0.
    5000001    1    1    2    0    0 -0.87357019803E+02  0.66317455062E+02 -0.74883579361E+03  0.79704723796E+03  0.25000000000E+03 0.  0.
<mgrwt>
<rscale>  0 0.54658769E+03</rscale>
<asrwt>0</asrwt>
<pdfrwt beam="1">  1        2 0.24938024E+00 0.54658769E+03</pdfrwt>
<pdfrwt beam="2">  1       -2 0.70887712E-02 0.54658769E+03</pdfrwt>
<totfact> 0.13250206E+03</totfact>
</mgrwt>
</event>
<event>
 4    1  0.1714834E-005  0.9466382E+03  0.7818608E-02  0.9369089E-01
          2   -1    0    0  501    0  0.00000000000E+00  0.00000000000E+00  0.52116094107E+03  0.52116094108E+03  0.25500000000E-02 0.  1.
         -2   -1    0    0    0  501 -0.00000000000E+00 -0.00000000000E+00 -0.42986905170E+03  0.42986905171E+03  0.25500000000E-02 0. -1.
   -5000001    1    1    2    0    0 -0.34984510605E+03 -0.15408059880E+03  0.17031246436E+03  0.48748206600E+03  0.25000000000E+03 0.  0.
    5000001    1    1    2    0    0  0.34984510605E+03  0.15408059880E+03 -0.79020574988E+02  0.46354792678E+03  0.25000000000E+03 0.  0.
<mgrwt>
<rscale>  0 0.94663818E+03</rscale>
<asrwt>0</asrwt>
<pdfrwt beam="1">  1        2 0.80178606E-01 0.94663818E+03</pdfrwt>
<pdfrwt beam="2">  1       -2 0.66133701E-01 0.94663818E+03</pdfrwt>
<totfact> 0.12361700E+02</totfact>
</mgrwt>
</event>
<event>
 4    1  0.1714834E-005  0.1028067E+04  0.7818608E-02  0.9278287E-01
          2   -1    0    0  501    0  0.00000000000E+00  0.00000000000E+00  0.43811035712E+03  0.43811035713E+03  0.25500000000E-02 0.  1.
         -2   -1    0    0    0  501 -0.00000000000E+00 -0.00000000000E+00 -0.60311331553E+03  0.60311331554E+03  0.25500000000E-02 0. -1.
   -5000001    1    1    2    0    0 -0.27572030248E+03  0.32323117829E+03 -0.23007177365E+03  0.54399733534E+03  0.25000000000E+03 0.  0.
    5000001    1    1    2    0    0  0.27572030248E+03 -0.32323117829E+03  0.65068815246E+02  0.49722633733E+03  0.25000000000E+03 0.  0.
<mgrwt>
<rscale>  0 0.10280665E+04</rscale>
<asrwt>0</asrwt>
<pdfrwt beam="1">  1        2 0.67401593E-01 0.10280665E+04</pdfrwt>
<pdfrwt beam="2">  1       -2 0.92786664E-01 0.10280665E+04</pdfrwt>
<totfact> 0.70427803E+01</totfact>
</mgrwt>
</event>
<event>
 4    1  0.1714834E-005  0.1338285E+04  0.7818608E-02  0.8999744E-01
          2   -1    0    0  501    0  0.00000000000E+00  0.00000000000E+00  0.10897862871E+04  0.10897862871E+04  0.25500000000E-02 0.  1.
         -2   -1    0    0    0  501 -0.00000000000E+00 -0.00000000000E+00 -0.41086180946E+03  0.41086180947E+03  0.25500000000E-02 0. -1.
   -5000001    1    1    2    0    0  0.62050409545E+03  0.15103384483E+01  0.32268161818E+03  0.74273214573E+03  0.25000000000E+03 0.  0.
    5000001    1    1    2    0    0 -0.62050409545E+03 -0.15103384483E+01  0.35624285942E+03  0.75791595080E+03  0.25000000000E+03 0.  0.
<mgrwt>
<rscale>  0 0.13382848E+04</rscale>
<asrwt>0</asrwt>
<pdfrwt beam="1">  1        2 0.16765943E+00 0.13382848E+04</pdfrwt>
<pdfrwt beam="2">  1       -2 0.63209509E-01 0.13382848E+04</pdfrwt>
<totfact> 0.50097967E+01</totfact>
</mgrwt>
</event>
<event>
 4    1  0.1714834E-005  0.6354635E+03  0.7818608E-02  0.9834445E-01
          2   -1    0    0  501    0  0.00000000000E+00  0.00000000000E+00  0.34026629872E+03  0.34026629873E+03  0.25500000000E-02 0.  1.
         -2   -1    0    0    0  501 -0.00000000000E+00 -0.00000000000E+00 -0.29668959370E+03  0.29668959371E+03  0.25500000000E-02 0. -1.
   -5000001    1    1    2    0    0 -0.30700835368E+02 -0.17166363844E+03  0.11167908466E+03  0.32462773142E+03  0.25000000000E+03 0.  0.
    5000001    1    1    2    0    0  0.30700835368E+02  0.17166363844E+03 -0.68102379641E+02  0.31232816102E+03  0.25000000000E+03 0.  0.
<mgrwt>
<rscale>  0 0.63546352E+03</rscale>
<asrwt>0</asrwt>
<pdfrwt beam="1">  1        2 0.52348661E-01 0.63546352E+03</pdfrwt>
<pdfrwt beam="2">  1       -2 0.45644553E-01 0.63546352E+03</pdfrwt>
<totfact> 0.43794462E+02</totfact>
</mgrwt>
</event>
<event>
 4    1  0.1714834E-005  0.9107427E+03  0.7818608E-02  0.9412251E-01
         -2   -1    0    0    0  501 -0.00000000000E+00  0.00000000000E+00  0.97592209369E+02  0.97592209402E+02  0.25500000000E-02 0. -1.
          2   -1    0    0  501    0  0.00000000000E+00 -0.00000000000E+00 -0.21247911945E+04  0.21247911945E+04  0.25500000000E-02 0.  1.
   -5000001    1    1    2    0    0 -0.36204702567E+03  0.10651279295E+02 -0.12989196525E+04  0.13714531571E+04  0.25000000000E+03 0.  0.
    5000001    1    1    2    0    0  0.36204702567E+03 -0.10651279295E+02 -0.72827933268E+03  0.85093024682E+03  0.25000000000E+03 0.  0.
<mgrwt>
<rscale>  0 0.91074270E+03</rscale>
<asrwt>0</asrwt>
<pdfrwt beam="1">  1        2 0.32689092E+00 0.91074270E+03</pdfrwt>
<pdfrwt beam="2">  1       -2 0.15014188E-01 0.91074270E+03</pdfrwt>
<totfact> 0.20172714E+02</totfact>
</mgrwt>
</event>
<event>
 4    1  0.1714834E-005  0.7706506E+03  0.7818608E-02  0.9603498E-01
         -2   -1    0    0    0  501 -0.00000000000E+00  0.00000000000E+00  0.16352548209E+03  0.16352548211E+03  0.25500000000E-02 0. -1.
          2   -1    0    0  501    0  0.00000000000E+00 -0.00000000000E+00 -0.90796605241E+03  0.90796605241E+03  0.25500000000E-02 0.  1.
   -5000001    1    1    2    0    0  0.28378327689E+03  0.73657460768E+02 -0.36645121271E+03  0.53173758666E+03  0.25000000000E+03 0.  0.
    5000001    1    1    2    0    0 -0.28378327689E+03 -0.73657460768E+02 -0.37798935760E+03  0.53975394786E+03  0.25000000000E+03 0.  0.
<mgrwt>
<rscale>  0 0.77065060E+03</rscale>
<asrwt>0</asrwt>
<pdfrwt beam="1">  1        2 0.13968708E+00 0.77065060E+03</pdfrwt>
<pdfrwt beam="2">  1       -2 0.25157767E-01 0.77065060E+03</pdfrwt>
<totfact> 0.41251592E+02</totfact>
</mgrwt>
</event>
<event>
 4    1  0.1714834E-005  0.7961865E+03  0.7818608E-02  0.9565553E-01
         -2   -1    0    0    0  501 -0.00000000000E+00  0.00000000000E+00  0.11014596441E+03  0.11014596444E+03  0.25500000000E-02 0. -1.
          2   -1    0    0  501    0  0.00000000000E+00 -0.00000000000E+00 -0.14388021499E+04  0.14388021499E+04  0.25500000000E-02 0.  1.
   -5000001    1    1    2    0    0 -0.48006065954E+02 -0.30558619665E+03 -0.63115562574E+03  0.74601938973E+03  0.25000000000E+03 0.  0.
    5000001    1    1    2    0    0  0.48006065954E+02  0.30558619665E+03 -0.69750055973E+03  0.80292872459E+03  0.25000000000E+03 0.  0.
<mgrwt>
<rscale>  0 0.79618654E+03</rscale>
<asrwt>0</asrwt>
<pdfrwt beam="1">  1        2 0.22135416E+00 0.79618654E+03</pdfrwt>
<pdfrwt beam="2">  1       -2 0.16945534E-01 0.79618654E+03</pdfrwt>
<totfact> 0.39481037E+02</totfact>
</mgrwt>
</event>
<event>
 4    1  0.1714834E-005  0.5752004E+03  0.7818608E-02  0.9958236E-01
          2   -1    0    0  501    0  0.00000000000E+00  0.00000000000E+00  0.88855532118E+03  0.88855532119E+03  0.25500000000E-02 0.  1.
         -2   -1    0    0    0  501 -0.00000000000E+00 -0.00000000000E+00 -0.93088057105E+02  0.93088057139E+02  0.25500000000E-02 0. -1.
   -5000001    1    1    2    0    0  0.79839873956E+02 -0.68311549116E+02  0.56118576234E+03  0.62327388287E+03  0.25000000000E+03 0.  0.
    5000001    1    1    2    0    0 -0.79839873956E+02  0.68311549116E+02  0.23428150174E+03  0.35836949545E+03  0.25000000000E+03 0.  0.
<mgrwt>
<rscale>  0 0.57520045E+03</rscale>
<asrwt>0</asrwt>
<pdfrwt beam="1">  1        2 0.13670082E+00 0.57520045E+03</pdfrwt>
<pdfrwt beam="2">  1       -2 0.14321239E-01 0.57520045E+03</pdfrwt>
<totfact> 0.11378705E+03</totfact>
</mgrwt>
</event>
<event>
 4    1  0.1714834E-005  0.7480793E+03  0.7818608E-02  0.9638368E-01
          2   -1    0    0  501    0  0.00000000000E+00  0.00000000000E+00  0.12903355822E+04  0.12903355822E+04  0.25500000000E-02 0.  1.
         -2   -1    0    0    0  501 -0.00000000000E+00 -0.00000000000E+00 -0.10842580740E+03  0.10842580743E+03  0.25500000000E-02 0. -1.
   -5000001    1    1    2    0    0 -0.11981055106E+03  0.24829000381E+03  0.66099601988E+03  0.75856326858E+03  0.25000000000E+03 0.  0.
    5000001    1    1    2    0    0  0.11981055106E+03 -0.24829000381E+03  0.52091375492E+03  0.64019812106E+03  0.25000000000E+03 0.  0.
<mgrwt>
<rscale>  0 0.74807935E+03</rscale>
<asrwt>0</asrwt>
<pdfrwt beam="1">  1        2 0.19851316E+00 0.74807935E+03</pdfrwt>
<pdfrwt beam="2">  1       -2 0.16680894E-01 0.74807935E+03</pdfrwt>
<totfact> 0.49406751E+02</totfact>
</mgrwt>
</event>
<event>
 4    1  0.1714834E-005  0.6872248E+03  0.7818608E-02  0.9739332E-01
          2   -1    0    0  501    0  0.00000000000E+00  0.00000000000E+00  0.70433475402E+03  0.70433475402E+03  0.25500000000E-02 0.  1.
         -2   -1    0    0    0  501 -0.00000000000E+00 -0.00000000000E+00 -0.16763263680E+03  0.16763263682E+03  0.25500000000E-02 0. -1.
   -5000001    1    1    2    0    0 -0.55574223333E+02  0.15365423822E+03  0.48394428807E+03  0.56868285817E+03  0.25000000000E+03 0.  0.
    5000001    1    1    2    0    0  0.55574223333E+02 -0.15365423822E+03  0.52757829144E+02  0.30328453267E+03  0.25000000000E+03 0.  0.
<mgrwt>
<rscale>  0 0.68722483E+03</rscale>
<asrwt>0</asrwt>
<pdfrwt beam="1">  1        2 0.10835919E+00 0.68722483E+03</pdfrwt>
<pdfrwt beam="2">  1       -2 0.25789636E-01 0.68722483E+03</pdfrwt>
<totfact> 0.55396162E+02</totfact>
</mgrwt>
</event>
<event>
 4    1  0.1714834E-005  0.7496592E+03  0.7818608E-02  0.9635885E-01
         -2   -1    0    0    0  501 -0.00000000000E+00  0.00000000000E+00  0.10753624900E+03  0.10753624903E+03  0.25500000000E-02 0. -1.
          2   -1    0    0  501    0  0.00000000000E+00 -0.00000000000E+00 -0.13065104467E+04  0.13065104467E+04  0.25500000000E-02 0.  1.
   -5000001    1    1    2    0    0  0.24501713499E+03 -0.43810338229E+02 -0.83841278205E+03  0.90960911126E+03  0.25000000000E+03 0.  0.
    5000001    1    1    2    0    0 -0.24501713499E+03  0.43810338229E+02 -0.36056141562E+03  0.50443758445E+03  0.25000000000E+03 0.  0.
<mgrwt>
<rscale>  0 0.74965921E+03</rscale>
<asrwt>0</asrwt>
<pdfrwt beam="1">  1        2 0.20100160E+00 0.74965921E+03</pdfrwt>
<pdfrwt beam="2">  1       -2 0.16544039E-01 0.74965921E+03</pdfrwt>
<totfact> 0.49039052E+02</totfact>
</mgrwt>
</event>
<event>
 4    1  0.1714834E-005  0.8857680E+03  0.7818608E-02  0.9443549E-01
          2   -1    0    0  501    0  0.00000000000E+00  0.00000000000E+00  0.59998907341E+03  0.59998907342E+03  0.25500000000E-02 0.  1.
         -2   -1    0    0    0  501 -0.00000000000E+00 -0.00000000000E+00 -0.32691635907E+03  0.32691635908E+03  0.25500000000E-02 0. -1.
   -5000001    1    1    2    0    0 -0.22908806418E+03  0.22640062501E+03  0.31750638205E+03  0.51676773003E+03  0.25000000000E+03 0.  0.
    5000001    1    1    2    0    0  0.22908806418E+03 -0.22640062501E+03 -0.44433667711E+02  0.41013770247E+03  0.25000000000E+03 0.  0.
<mgrwt>
<rscale>  0 0.88576801E+03</rscale>
<asrwt>0</asrwt>
<pdfrwt beam="1">  1        2 0.92306011E-01 0.88576801E+03</pdfrwt>
<pdfrwt beam="2">  1       -2 0.50294825E-01 0.88576801E+03</pdfrwt>
<totfact> 0.18618121E+02</totfact>
</mgrwt>
</event>
<event>
 4    1  0.1714834E-005  0.9171233E+03  0.7818608E-02  0.9404426E-01
         -2   -1    0    0    0  501 -0.00000000000E+00  0.00000000000E+00  0.16433170523E+03  0.16433170525E+03  0.25500000000E-02 0. -1.
          2   -1    0    0  501    0  0.00000000000E+00 -0.00000000000E+00 -0.12795997499E+04  0.12795997499E+04  0.25500000000E-02 0.  1.
   -5000001    1    1    2    0    0  0.22616452847E+03 -0.27071604196E+03 -0.31709763384E+03  0.53617952096E+03  0.25000000000E+03 0.  0.
    5000001    1    1    2    0    0 -0.22616452847E+03  0.27071604196E+03 -0.79817041084E+03  0.90775193420E+03  0.25000000000E+03 0.  0.
<mgrwt>
<rscale>  0 0.91712335E+03</rscale>
<asrwt>0</asrwt>
<pdfrwt beam="1">  1        2 0.19686149E+00 0.91712335E+03</pdfrwt>
<pdfrwt beam="2">  1       -2 0.25281802E-01 0.91712335E+03</pdfrwt>
<totfact> 0.23899895E+02</totfact>
</mgrwt>
</event>
<event>
 4    1  0.1714834E-005  0.1122520E+04  0.7818608E-02  0.9183516E-01
          2   -1    0    0  501    0  0.00000000000E+00  0.00000000000E+00  0.80258187908E+03  0.80258187909E+03  0.25500000000E-02 0.  1.
         -2   -1    0    0    0  501 -0.00000000000E+00 -0.00000000000E+00 -0.39249952688E+03  0.39249952689E+03  0.25500000000E-02 0. -1.
   -5000001    1    1    2    0    0 -0.36259886492E+02 -0.42746518492E+03  0.48362695641E+03  0.69313512150E+03  0.25000000000E+03 0.  0.
    5000001    1    1    2    0    0  0.36259886492E+02  0.42746518492E+03 -0.73544604210E+02  0.50194628448E+03  0.25000000000E+03 0.  0.
<mgrwt>
<rscale>  0 0.11225204E+04</rscale>
<asrwt>0</asrwt>
<pdfrwt beam="1">  1        2 0.12347414E+00 0.11225204E+04</pdfrwt>
<pdfrwt beam="2">  1       -2 0.60384543E-01 0.11225204E+04</pdfrwt>
<totfact> 0.86924460E+01</totfact>
</mgrwt>
</event>
<event>
 4    1  0.1714834E-005  0.7919929E+03  0.7818608E-02  0.9571680E-01
          2   -1    0    0  501    0  0.00000000000E+00  0.00000000000E+00  0.17333578498E+04  0.17333578498E+04  0.25500000000E-02 0.  1.
         -2   -1    0    0    0  501 -0.00000000000E+00 -0.00000000000E+00 -0.90467861852E+02  0.90467861888E+02  0.25500000000E-02 0. -1.
   -5000001    1    1    2    0    0  0.24197401778E+03 -0.78604595700E+02  0.12175256983E+04  0.12686997020E+04  0.25000000000E+03 0.  0.
    5000001    1    1    2    0    0 -0.24197401778E+03  0.78604595700E+02  0.42536428957E+03  0.55512600965E+03  0.25000000000E+03 0.  0.
<mgrwt>
<rscale>  0 0.79199288E+03</rscale>
<asrwt>0</asrwt>
<pdfrwt beam="1">  1        2 0.26667041E+00 0.79199288E+03</pdfrwt>
<pdfrwt beam="2">  1       -2 0.13918134E-01 0.79199288E+03</pdfrwt>
<totfact> 0.37891537E+02</totfact>
</mgrwt>
</event>
<event>
 4    1  0.1714834E-005  0.5606158E+03  0.7818608E-02  0.9990662E-01
         -2   -1    0    0    0  501 -0.00000000000E+00  0.00000000000E+00  0.33272864209E+02  0.33272864307E+02  0.25500000000E-02 0. -1.
          2   -1    0    0  501    0  0.00000000000E+00 -0.00000000000E+00 -0.23614591339E+04  0.23614591339E+04  0.25500000000E-02 0.  1.
   -5000001    1    1    2    0    0  0.69474587814E+01  0.12634732488E+03 -0.11308415844E+04  0.11650384555E+04  0.25000000000E+03 0.  0.
    5000001    1    1    2    0    0 -0.69474587814E+01 -0.12634732488E+03 -0.11973446853E+04  0.12296935427E+04  0.25000000000E+03 0.  0.
<mgrwt>
<rscale>  0 0.56061577E+03</rscale>
<asrwt>0</asrwt>
<pdfrwt beam="1">  1        2 0.36330127E+00 0.56061577E+03</pdfrwt>
<pdfrwt beam="2">  1       -2 0.51189041E-02 0.56061577E+03</pdfrwt>
<totfact> 0.87287252E+02</totfact>
</mgrwt>
</event>
<event>
 4    1  0.1714834E-005  0.7914307E+03  0.7818608E-02  0.9572504E-01
         -2   -1    0    0    0  501 -0.00000000000E+00  0.00000000000E+00  0.26792445358E+03  0.26792445359E+03  0.25500000000E-02 0. -1.
          2   -1    0    0  501    0  0.00000000000E+00 -0.00000000000E+00 -0.58445822765E+03  0.58445822766E+03  0.25500000000E-02 0.  1.
   -5000001    1    1    2    0    0  0.65750730208E+02  0.29960123230E+03 -0.16103260923E+03  0.42721839632E+03  0.25000000000E+03 0.  0.
    5000001    1    1    2    0    0 -0.65750730208E+02 -0.29960123230E+03 -0.15550116484E+03  0.42516428493E+03  0.25000000000E+03 0.  0.
<mgrwt>
<rscale>  0 0.79143073E+03</rscale>
<asrwt>0</asrwt>
<pdfrwt beam="1">  1        2 0.89916650E-01 0.79143073E+03</pdfrwt>
<pdfrwt beam="2">  1       -2 0.41219147E-01 0.79143073E+03</pdfrwt>
<totfact> 0.28723354E+02</totfact>
</mgrwt>
</event>
<event>
 4    1  0.1714834E-005  0.1023620E+04  0.7818608E-02  0.9283011E-01
         -2   -1    0    0    0  501 -0.00000000000E+00  0.00000000000E+00  0.18615388876E+03  0.18615388877E+03  0.25500000000E-02 0. -1.
          2   -1    0    0  501    0  0.00000000000E+00 -0.00000000000E+00 -0.14071676257E+04  0.14071676257E+04  0.25500000000E-02 0.  1.
   -5000001    1    1    2    0    0 -0.64757205597E+02  0.44151054339E+03 -0.58245992260E+03  0.77516747676E+03  0.25000000000E+03 0.  0.
    5000001    1    1    2    0    0  0.64757205597E+02 -0.44151054339E+03 -0.63855381433E+03  0.81815403769E+03  0.25000000000E+03 0.  0.
<mgrwt>
<rscale>  0 0.10236205E+04</rscale>
<asrwt>0</asrwt>
<pdfrwt beam="1">  1        2 0.21648732E+00 0.10236205E+04</pdfrwt>
<pdfrwt beam="2">  1       -2 0.28639061E-01 0.10236205E+04</pdfrwt>
<totfact> 0.15962093E+02</totfact>
</mgrwt>
</event>
<event>
 4    1  0.1714834E-005  0.8798582E+03  0.7818608E-02  0.9451116E-01
         -2   -1    0    0    0  501 -0.00000000000E+00  0.00000000000E+00  0.31336510137E+03  0.31336510138E+03  0.25500000000E-02 0. -1.
          2   -1    0    0  501    0  0.00000000000E+00 -0.00000000000E+00 -0.61761064898E+03  0.61761064898E+03  0.25500000000E-02 0.  1.
   -5000001    1    1    2    0    0 -0.26676879898E+03  0.23897564900E+03 -0.20773755492E+03  0.48366294529E+03  0.25000000000E+03 0.  0.
    5000001    1    1    2    0    0  0.26676879898E+03 -0.23897564900E+03 -0.96507992688E+02  0.44731280507E+03  0.25000000000E+03 0.  0.
<mgrwt>
<rscale>  0 0.87985822E+03</rscale>
<asrwt>0</asrwt>
<pdfrwt beam="1">  1        2 0.95017023E-01 0.87985822E+03</pdfrwt>
<pdfrwt beam="2">  1       -2 0.48210016E-01 0.87985822E+03</pdfrwt>
<totfact> 0.19594161E+02</totfact>
</mgrwt>
</event>
<event>
 4    1  0.1714834E-005  0.8379756E+03  0.7818608E-02  0.9506619E-01
         -2   -1    0    0    0  501 -0.00000000000E+00  0.00000000000E+00  0.34880708916E+03  0.34880708917E+03  0.25500000000E-02 0. -1.
          2   -1    0    0  501    0  0.00000000000E+00 -0.00000000000E+00 -0.50328905633E+03  0.50328905634E+03  0.25500000000E-02 0.  1.
   -5000001    1    1    2    0    0  0.32439755230E+03 -0.76138173353E+01 -0.16681075092E+03  0.44228674949E+03  0.25000000000E+03 0.  0.
    5000001    1    1    2    0    0 -0.32439755230E+03  0.76138173353E+01  0.12328783748E+02  0.40980939601E+03  0.25000000000E+03 0.  0.
<mgrwt>
<rscale>  0 0.83797563E+03</rscale>
<asrwt>0</asrwt>
<pdfrwt beam="1">  1        2 0.77429086E-01 0.83797563E+03</pdfrwt>
<pdfrwt beam="2">  1       -2 0.53662629E-01 0.83797563E+03</pdfrwt>
<totfact> 0.20117250E+02</totfact>
</mgrwt>
</event>
<event>
 4    1  0.1714834E-005  0.7501621E+03  0.7818608E-02  0.9635096E-01
          2   -1    0    0  501    0  0.00000000000E+00  0.00000000000E+00  0.24807225458E+03  0.24807225459E+03  0.25500000000E-02 0.  1.
         -2   -1    0    0    0  501 -0.00000000000E+00 -0.00000000000E+00 -0.56711618095E+03  0.56711618095E+03  0.25500000000E-02 0. -1.
   -5000001    1    1    2    0    0  0.12012965148E+03  0.25243217446E+03 -0.16573164643E+03  0.41002452914E+03  0.25000000000E+03 0.  0.
    5000001    1    1    2    0    0 -0.12012965148E+03 -0.25243217446E+03 -0.15331227994E+03  0.40516390640E+03  0.25000000000E+03 0.  0.
<mgrwt>
<rscale>  0 0.75016209E+03</rscale>
<asrwt>0</asrwt>
<pdfrwt beam="1">  1        2 0.38164962E-01 0.75016209E+03</pdfrwt>
<pdfrwt beam="2">  1       -2 0.87248643E-01 0.75016209E+03</pdfrwt>
<totfact> 0.15544882E+02</totfact>
</mgrwt>
</event>
<event>
 4    1  0.1714834E-005  0.6205120E+03  0.7818608E-02  0.9863741E-01
          2   -1    0    0  501    0  0.00000000000E+00  0.00000000000E+00  0.10389085237E+04  0.10389085237E+04  0.25500000000E-02 0.  1.
         -2   -1    0    0    0  501 -0.00000000000E+00 -0.00000000000E+00 -0.92653777974E+02  0.92653778009E+02  0.25500000000E-02 0. -1.
   -5000001    1    1    2    0    0  0.55861020489E+02 -0.16493663396E+03  0.36626018308E+03  0.47641480723E+03  0.25000000000E+03 0.  0.
    5000001    1    1    2    0    0 -0.55861020489E+02  0.16493663396E+03  0.57999456263E+03  0.65514749447E+03  0.25000000000E+03 0.  0.
<mgrwt>
<rscale>  0 0.62051205E+03</rscale>
<asrwt>0</asrwt>
<pdfrwt beam="1">  1        2 0.15983208E+00 0.62051205E+03</pdfrwt>
<pdfrwt beam="2">  1       -2 0.14254428E-01 0.62051205E+03</pdfrwt>
<totfact> 0.91614395E+02</totfact>
</mgrwt>
</event>
<event>
 4    1  0.1714834E-005  0.7199398E+03  0.7818608E-02  0.9683727E-01
         -2   -1    0    0    0  501 -0.00000000000E+00  0.00000000000E+00  0.70122680418E+02  0.70122680465E+02  0.25500000000E-02 0. -1.
          2   -1    0    0  501    0  0.00000000000E+00 -0.00000000000E+00 -0.18478805430E+04  0.18478805430E+04  0.25500000000E-02 0.  1.
   -5000001    1    1    2    0    0  0.23204268763E+03  0.11502384807E+03 -0.88352259456E+03  0.95403693304E+03  0.25000000000E+03 0.  0.
    5000001    1    1    2    0    0 -0.23204268763E+03 -0.11502384807E+03 -0.89423526801E+03  0.96396629041E+03  0.25000000000E+03 0.  0.
<mgrwt>
<rscale>  0 0.71993982E+03</rscale>
<asrwt>0</asrwt>
<pdfrwt beam="1">  1        2 0.28428928E+00 0.71993982E+03</pdfrwt>
<pdfrwt beam="2">  1       -2 0.10788106E-01 0.71993982E+03</pdfrwt>
<totfact> 0.50293703E+02</totfact>
</mgrwt>
</event>
<event>
 4    1  0.1714834E-005  0.7338596E+03  0.7818608E-02  0.9661018E-01
         -2   -1    0    0    0  501 -0.00000000000E+00  0.00000000000E+00  0.48606516332E+02  0.48606516399E+02  0.25500000000E-02 0. -1.
          2   -1    0    0  501    0  0.00000000000E+00 -0.00000000000E+00 -0.27699472634E+04  0.27699472634E+04  0.25500000000E-02 0.  1.
   -5000001    1    1    2    0    0 -0.75838585296E+02 -0.22294345369E+03 -0.86460358141E+03  0.93031963730E+03  0.25000000000E+03 0.  0.
    5000001    1    1    2    0    0  0.75838585296E+02  0.22294345369E+03 -0.18567371656E+04  0.18882341425E+04  0.25000000000E+03 0.  0.
<mgrwt>
<rscale>  0 0.73385962E+03</rscale>
<asrwt>0</asrwt>
<pdfrwt beam="1">  1        2 0.42614561E+00 0.73385962E+03</pdfrwt>
<pdfrwt beam="2">  1       -2 0.74779277E-02 0.73385962E+03</pdfrwt>
<totfact> 0.27709149E+02</totfact>
</mgrwt>
</event>
<event>
 4    1  0.1714834E-005  0.6279853E+03  0.7818608E-02  0.9848988E-01
          2   -1    0    0  501    0  0.00000000000E+00  0.00000000000E+00  0.26685071634E+04  0.26685071634E+04  0.25500000000E-02 0.  1.
         -2   -1    0    0    0  501 -0.00000000000E+00 -0.00000000000E+00 -0.36946264067E+02  0.36946264155E+02  0.25500000000E-02 0. -1.
   -5000001    1    1    2    0    0 -0.94838958322E+02  0.16142509000E+03  0.11769214982E+04  0.12176603387E+04  0.25000000000E+03 0.  0.
    5000001    1    1    2    0    0  0.94838958322E+02 -0.16142509000E+03  0.14546394011E+04  0.14877930888E+04  0.25000000000E+03 0.  0.
<mgrwt>
<rscale>  0 0.62798526E+03</rscale>
<asrwt>0</asrwt>
<pdfrwt beam="1">  1        2 0.41053948E+00 0.62798526E+03</pdfrwt>
<pdfrwt beam="2">  1       -2 0.56840418E-02 0.62798526E+03</pdfrwt>
<totfact> 0.49458983E+02</totfact>
</mgrwt>
</event>
<event>
 4    1  0.1714834E-005  0.6896182E+03  0.7818608E-02  0.9735153E-01
         -2   -1    0    0    0  501 -0.00000000000E+00  0.00000000000E+00  0.30235369293E+03  0.30235369294E+03  0.25500000000E-02 0. -1.
          2   -1    0    0  501    0  0.00000000000E+00 -0.00000000000E+00 -0.39322594041E+03  0.39322594041E+03  0.25500000000E-02 0.  1.
   -5000001    1    1    2    0    0  0.18686339432E+03 -0.63275643419E+02  0.87886617439E+02  0.33037220330E+03  0.25000000000E+03 0.  0.
    5000001    1    1    2    0    0 -0.18686339432E+03  0.63275643419E+02 -0.17875886491E+03  0.36520743006E+03  0.25000000000E+03 0.  0.
<mgrwt>
<rscale>  0 0.68961820E+03</rscale>
<asrwt>0</asrwt>
<pdfrwt beam="1">  1        2 0.60496299E-01 0.68961820E+03</pdfrwt>
<pdfrwt beam="2">  1       -2 0.46515952E-01 0.68961820E+03</pdfrwt>
<totfact> 0.35838240E+02</totfact>
</mgrwt>
</event>
<event>
 4    1  0.1714834E-005  0.6264997E+03  0.7818608E-02  0.9851903E-01
          2   -1    0    0  501    0  0.00000000000E+00  0.00000000000E+00  0.59306767098E+03  0.59306767098E+03  0.25500000000E-02 0.  1.
         -2   -1    0    0    0  501 -0.00000000000E+00 -0.00000000000E+00 -0.16545406615E+03  0.16545406617E+03  0.25500000000E-02 0. -1.
   -5000001    1    1    2    0    0 -0.32283031723E+02 -0.15426098756E+03  0.33955267167E+03  0.45014960098E+03  0.25000000000E+03 0.  0.
    5000001    1    1    2    0    0  0.32283031723E+02  0.15426098756E+03  0.88060933153E+02  0.30837213617E+03  0.25000000000E+03 0.  0.
<mgrwt>
<rscale>  0 0.62649967E+03</rscale>
<asrwt>0</asrwt>
<pdfrwt beam="1">  1        2 0.91241183E-01 0.62649967E+03</pdfrwt>
<pdfrwt beam="2">  1       -2 0.25454471E-01 0.62649967E+03</pdfrwt>
<totfact> 0.70156460E+02</totfact>
</mgrwt>
</event>
<event>
 4    1  0.1714834E-005  0.6712490E+03  0.7818608E-02  0.9767704E-01
         -2   -1    0    0    0  501 -0.00000000000E+00  0.00000000000E+00  0.25926785373E+03  0.25926785374E+03  0.25500000000E-02 0. -1.
          2   -1    0    0  501    0  0.00000000000E+00 -0.00000000000E+00 -0.43446882261E+03  0.43446882262E+03  0.25500000000E-02 0.  1.
   -5000001    1    1    2    0    0  0.13112436753E+03  0.63552099863E+02  0.88129168091E+02  0.30248837899E+03  0.25000000000E+03 0.  0.
    5000001    1    1    2    0    0 -0.13112436753E+03 -0.63552099863E+02 -0.26333013697E+03  0.39124829737E+03  0.25000000000E+03 0.  0.
<mgrwt>
<rscale>  0 0.67124898E+03</rscale>
<asrwt>0</asrwt>
<pdfrwt beam="1">  1        2 0.66841357E-01 0.67124898E+03</pdfrwt>
<pdfrwt beam="2">  1       -2 0.39887362E-01 0.67124898E+03</pdfrwt>
<totfact> 0.43404535E+02</totfact>
</mgrwt>
</event>
<event>
 4    1  0.1714834E-005  0.6727480E+03  0.7818608E-02  0.9765006E-01
          2   -1    0    0  501    0  0.00000000000E+00  0.00000000000E+00  0.45839158401E+03  0.45839158402E+03  0.25500000000E-02 0.  1.
         -2   -1    0    0    0  501 -0.00000000000E+00 -0.00000000000E+00 -0.24683586263E+03  0.24683586265E+03  0.25500000000E-02 0. -1.
   -5000001    1    1    2    0    0 -0.15728430191E+03  0.16033607168E+03  0.90898410833E+02  0.34815015238E+03  0.25000000000E+03 0.  0.
    5000001    1    1    2    0    0  0.15728430191E+03 -0.16033607168E+03  0.12065731055E+03  0.35707729429E+03  0.25000000000E+03 0.  0.
<mgrwt>
<rscale>  0 0.67274804E+03</rscale>
<asrwt>0</asrwt>
<pdfrwt beam="1">  1        2 0.70521782E-01 0.67274804E+03</pdfrwt>
<pdfrwt beam="2">  1       -2 0.37974748E-01 0.67274804E+03</pdfrwt>
<totfact> 0.44913903E+02</totfact>
</mgrwt>
</event>
<event>
 4    1  0.1714834E-005  0.8612748E+03  0.7818608E-02  0.9475328E-01
          2   -1    0    0  501    0  0.00000000000E+00  0.00000000000E+00  0.32628570584E+03  0.32628570585E+03  0.25500000000E-02 0.  1.
         -2   -1    0    0    0  501 -0.00000000000E+00 -0.00000000000E+00 -0.56836258742E+03  0.56836258743E+03  0.25500000000E-02 0. -1.
   -5000001    1    1    2    0    0 -0.15129829664E+02 -0.20127303198E+03 -0.41886940278E+03  0.52791222919E+03  0.25000000000E+03 0.  0.
    5000001    1    1    2    0    0  0.15129829664E+02  0.20127303198E+03  0.17679252120E+03  0.36673606408E+03  0.25000000000E+03 0.  0.
<mgrwt>
<rscale>  0 0.86127484E+03</rscale>
<asrwt>0</asrwt>
<pdfrwt beam="1">  1        2 0.50197801E-01 0.86127484E+03</pdfrwt>
<pdfrwt beam="2">  1       -2 0.87440398E-01 0.86127484E+03</pdfrwt>
<totfact> 0.11349577E+02</totfact>
</mgrwt>
</event>
<event>
 4    1  0.1714834E-005  0.6928267E+03  0.7818608E-02  0.9729579E-01
         -2   -1    0    0    0  501 -0.00000000000E+00  0.00000000000E+00  0.19951931949E+03  0.19951931951E+03  0.25500000000E-02 0. -1.
          2   -1    0    0  501    0  0.00000000000E+00 -0.00000000000E+00 -0.60145657621E+03  0.60145657621E+03  0.25500000000E-02 0.  1.
   -5000001    1    1    2    0    0  0.13836051321E+03 -0.19572571019E+03 -0.20914524066E+03  0.40459104900E+03  0.25000000000E+03 0.  0.
    5000001    1    1    2    0    0 -0.13836051321E+03  0.19572571019E+03 -0.19279201606E+03  0.39638484671E+03  0.25000000000E+03 0.  0.
<mgrwt>
<rscale>  0 0.69282669E+03</rscale>
<asrwt>0</asrwt>
<pdfrwt beam="1">  1        2 0.92531780E-01 0.69282669E+03</pdfrwt>
<pdfrwt beam="2">  1       -2 0.30695280E-01 0.69282669E+03</pdfrwt>
<totfact> 0.48880771E+02</totfact>
</mgrwt>
</event>
<event>
 4    1  0.1714834E-005  0.5823490E+03  0.7818608E-02  0.9942718E-01
         -2   -1    0    0    0  501 -0.00000000000E+00  0.00000000000E+00  0.63421117702E+03  0.63421117703E+03  0.25500000000E-02 0. -1.
          2   -1    0    0  501    0  0.00000000000E+00 -0.00000000000E+00 -0.13368195985E+03  0.13368195987E+03  0.25500000000E-02 0.  1.
   -5000001    1    1    2    0    0 -0.10782877232E+03 -0.72164483269E+02  0.34759074162E+03  0.44738582951E+03  0.25000000000E+03 0.  0.
    5000001    1    1    2    0    0  0.10782877232E+03  0.72164483269E+02  0.15293847555E+03  0.32050730739E+03  0.25000000000E+03 0.  0.
<mgrwt>
<rscale>  0 0.58234901E+03</rscale>
<asrwt>0</asrwt>
<pdfrwt beam="1">  1        2 0.20566455E-01 0.58234901E+03</pdfrwt>
<pdfrwt beam="2">  1       -2 0.97570950E-01 0.58234901E+03</pdfrwt>
<totfact> 0.24361858E+02</totfact>
</mgrwt>
</event>
<event>
 4    1  0.1714834E-005  0.5769396E+03  0.7818608E-02  0.9954439E-01
          2   -1    0    0  501    0  0.00000000000E+00  0.00000000000E+00  0.97591732087E+03  0.97591732088E+03  0.25500000000E-02 0.  1.
         -2   -1    0    0    0  501 -0.00000000000E+00 -0.00000000000E+00 -0.85268319459E+02  0.85268319497E+02  0.25500000000E-02 0. -1.
   -5000001    1    1    2    0    0  0.11328878693E+03  0.73467407042E+02  0.53697844926E+03  0.60751762453E+03  0.25000000000E+03 0.  0.
    5000001    1    1    2    0    0 -0.11328878693E+03 -0.73467407042E+02  0.35367055215E+03  0.45366801585E+03  0.25000000000E+03 0.  0.
<mgrwt>
<rscale>  0 0.57693962E+03</rscale>
<asrwt>0</asrwt>
<pdfrwt beam="1">  1        2 0.15014112E+00 0.57693962E+03</pdfrwt>
<pdfrwt beam="2">  1       -2 0.13118204E-01 0.57693962E+03</pdfrwt>
<totfact> 0.11545742E+03</totfact>
</mgrwt>
</event>
<event>
 4    1  0.1714834E-005  0.1167487E+04  0.7818608E-02  0.9141801E-01
         -2   -1    0    0    0  501 -0.00000000000E+00  0.00000000000E+00  0.19593740105E+03  0.19593740106E+03  0.25500000000E-02 0. -1.
          2   -1    0    0  501    0  0.00000000000E+00 -0.00000000000E+00 -0.17391096689E+04  0.17391096689E+04  0.25500000000E-02 0.  1.
   -5000001    1    1    2    0    0 -0.48611364545E+03  0.18299663595E+03 -0.61911566506E+03  0.84593052421E+03  0.25000000000E+03 0.  0.
    5000001    1    1    2    0    0  0.48611364545E+03 -0.18299663595E+03 -0.92405660276E+03  0.10891165457E+04  0.25000000000E+03 0.  0.
<mgrwt>
<rscale>  0 0.11674873E+04</rscale>
<asrwt>0</asrwt>
<pdfrwt beam="1">  1        2 0.26755532E+00 0.11674873E+04</pdfrwt>
<pdfrwt beam="2">  1       -2 0.30144217E-01 0.11674873E+04</pdfrwt>
<totfact> 0.93737396E+01</totfact>
</mgrwt>
</event>
<event>
 4    1  0.1714834E-005  0.8277563E+03  0.7818608E-02  0.9520688E-01
         -2   -1    0    0    0  501 -0.00000000000E+00  0.00000000000E+00  0.21270116261E+03  0.21270116262E+03  0.25500000000E-02 0. -1.
          2   -1    0    0  501    0  0.00000000000E+00 -0.00000000000E+00 -0.80533226362E+03  0.80533226362E+03  0.25500000000E-02 0.  1.
   -5000001    1    1    2    0    0  0.15715608584E+03  0.27598252983E+03 -0.40584118528E+03  0.57277522620E+03  0.25000000000E+03 0.  0.
    5000001    1    1    2    0    0 -0.15715608584E+03 -0.27598252983E+03 -0.18678991573E+03  0.44525820004E+03  0.25000000000E+03 0.  0.
<mgrwt>
<rscale>  0 0.82775627E+03</rscale>
<asrwt>0</asrwt>
<pdfrwt beam="1">  1        2 0.12389727E+00 0.82775627E+03</pdfrwt>
<pdfrwt beam="2">  1       -2 0.32723256E-01 0.82775627E+03</pdfrwt>
<totfact> 0.29848062E+02</totfact>
</mgrwt>
</event>
<event>
 4    1  0.1714834E-005  0.9508507E+03  0.7818608E-02  0.9364157E-01
          2   -1    0    0  501    0  0.00000000000E+00  0.00000000000E+00  0.19802346063E+04  0.19802346063E+04  0.25500000000E-02 0.  1.
         -2   -1    0    0    0  501 -0.00000000000E+00 -0.00000000000E+00 -0.11414266049E+03  0.11414266052E+03  0.25500000000E-02 0. -1.
   -5000001    1    1    2    0    0  0.72868941283E+01 -0.31464511937E+03  0.14923357963E+04  0.15455163470E+04  0.25000000000E+03 0.  0.
    5000001    1    1    2    0    0 -0.72868941283E+01  0.31464511937E+03  0.37375614945E+03  0.54886091974E+03  0.25000000000E+03 0.  0.
<mgrwt>
<rscale>  0 0.95085066E+03</rscale>
<asrwt>0</asrwt>
<pdfrwt beam="1">  1        2 0.30465149E+00 0.95085066E+03</pdfrwt>
<pdfrwt beam="2">  1       -2 0.17560409E-01 0.95085066E+03</pdfrwt>
<totfact> 0.18474486E+02</totfact>
</mgrwt>
</event>
<event>
 4    1  0.1714834E-005  0.6270753E+03  0.7818608E-02  0.9850773E-01
         -2   -1    0    0    0  501 -0.00000000000E+00  0.00000000000E+00  0.59101039248E+02  0.59101039303E+02  0.25500000000E-02 0. -1.
          2   -1    0    0  501    0  0.00000000000E+00 -0.00000000000E+00 -0.16633527059E+04  0.16633527059E+04  0.25500000000E-02 0.  1.
   -5000001    1    1    2    0    0  0.18254758420E+03  0.41539308836E+02 -0.87768738660E+03  0.93160307174E+03  0.25000000000E+03 0.  0.
    5000001    1    1    2    0    0 -0.18254758420E+03 -0.41539308836E+02 -0.72656428006E+03  0.79085067348E+03  0.25000000000E+03 0.  0.
<mgrwt>
<rscale>  0 0.62707535E+03</rscale>
<asrwt>0</asrwt>
<pdfrwt beam="1">  1        2 0.25590038E+00 0.62707535E+03</pdfrwt>
<pdfrwt beam="2">  1       -2 0.90924688E-02 0.62707535E+03</pdfrwt>
<totfact> 0.84143742E+02</totfact>
</mgrwt>
</event>
<event>
 4    1  0.1714834E-005  0.9030996E+03  0.7818608E-02  0.9421715E-01
          2   -1    0    0  501    0  0.00000000000E+00  0.00000000000E+00  0.39402710890E+03  0.39402710890E+03  0.25500000000E-02 0.  1.
         -2   -1    0    0    0  501 -0.00000000000E+00 -0.00000000000E+00 -0.51747007137E+03  0.51747007138E+03  0.25500000000E-02 0. -1.
   -5000001    1    1    2    0    0 -0.43575257140E+02  0.37342561130E+03 -0.54461125724E+02  0.45476532896E+03  0.25000000000E+03 0.  0.
    5000001    1    1    2    0    0  0.43575257140E+02 -0.37342561130E+03 -0.68981836750E+02  0.45673185132E+03  0.25000000000E+03 0.  0.
<mgrwt>
<rscale>  0 0.90309963E+03</rscale>
<asrwt>0</asrwt>
<pdfrwt beam="1">  1        2 0.60619555E-01 0.90309963E+03</pdfrwt>
<pdfrwt beam="2">  1       -2 0.79610781E-01 0.90309963E+03</pdfrwt>
<totfact> 0.11346739E+02</totfact>
</mgrwt>
</event>
<event>
 4    1  0.1714834E-005  0.7527488E+03  0.7818608E-02  0.9631048E-01
         -2   -1    0    0    0  501 -0.00000000000E+00  0.00000000000E+00  0.11246223420E+03  0.11246223423E+03  0.25500000000E-02 0. -1.
          2   -1    0    0  501    0  0.00000000000E+00 -0.00000000000E+00 -0.12596023291E+04  0.12596023291E+04  0.25500000000E-02 0.  1.
   -5000001    1    1    2    0    0  0.14923774816E+02 -0.26851925325E+03 -0.42290566490E+03  0.56006652268E+03  0.25000000000E+03 0.  0.
    5000001    1    1    2    0    0 -0.14923774816E+02  0.26851925325E+03 -0.72423443001E+03  0.81199804066E+03  0.25000000000E+03 0.  0.
<mgrwt>
<rscale>  0 0.75274881E+03</rscale>
<asrwt>0</asrwt>
<pdfrwt beam="1">  1        2 0.19378496E+00 0.75274881E+03</pdfrwt>
<pdfrwt beam="2">  1       -2 0.17301883E-01 0.75274881E+03</pdfrwt>
<totfact> 0.48338422E+02</totfact>
</mgrwt>
</event>
<event>
 4    1  0.1714834E-005  0.5820290E+03  0.7818608E-02  0.9943408E-01
          2   -1    0    0  501    0  0.00000000000E+00  0.00000000000E+00  0.74585209592E+03  0.74585209592E+03  0.25500000000E-02 0.  1.
         -2   -1    0    0    0  501 -0.00000000000E+00 -0.00000000000E+00 -0.11354723682E+03  0.11354723685E+03  0.25500000000E-02 0. -1.
   -5000001    1    1    2    0    0  0.12295731747E+03  0.63687568144E+02  0.39722654968E+03  0.48935012009E+03  0.25000000000E+03 0.  0.
    5000001    1    1    2    0    0 -0.12295731747E+03 -0.63687568144E+02  0.23507830942E+03  0.37004921269E+03  0.25000000000E+03 0.  0.
<mgrwt>
<rscale>  0 0.58202902E+03</rscale>
<asrwt>0</asrwt>
<pdfrwt beam="1">  1        2 0.11474648E+00 0.58202902E+03</pdfrwt>
<pdfrwt beam="2">  1       -2 0.17468805E-01 0.58202902E+03</pdfrwt>
<totfact> 0.10247093E+03</totfact>
</mgrwt>
</event>
<event>
 4    1  0.1714834E-005  0.9326487E+03  0.7818608E-02  0.9385665E-01
          2   -1    0    0  501    0  0.00000000000E+00  0.00000000000E+00  0.99412055202E+03  0.99412055202E+03  0.25500000000E-02 0.  1.
         -2   -1    0    0    0  501 -0.00000000000E+00 -0.00000000000E+00 -0.21874451286E+03  0.21874451287E+03  0.25500000000E-02 0. -1.
   -5000001    1    1    2    0    0  0.38924575516E+03  0.22858000586E+02  0.45800472925E+03  0.65138550653E+03  0.25000000000E+03 0.  0.
    5000001    1    1    2    0    0 -0.38924575516E+03 -0.22858000586E+02  0.31737130991E+03  0.56147955836E+03  0.25000000000E+03 0.  0.
<mgrwt>
<rscale>  0 0.93264874E+03</rscale>
<asrwt>0</asrwt>
<pdfrwt beam="1">  1        2 0.15294162E+00 0.93264874E+03</pdfrwt>
<pdfrwt beam="2">  1       -2 0.33653002E-01 0.93264874E+03</pdfrwt>
<totfact> 0.20982505E+02</totfact>
</mgrwt>
</event>
<event>
 4    1  0.1714834E-005  0.7831369E+03  0.7818608E-02  0.9584752E-01
          2   -1    0    0  501    0  0.00000000000E+00  0.00000000000E+00  0.51782589949E+03  0.51782589950E+03  0.25500000000E-02 0. -1.
         -2   -1    0    0    0  501 -0.00000000000E+00 -0.00000000000E+00 -0.29609533267E+03  0.29609533268E+03  0.25500000000E-02 0.  1.
   -5000001    1    1    2    0    0 -0.29336365989E+03 -0.57470759559E+02  0.71143727892E+02  0.39613956527E+03  0.25000000000E+03 0.  0.
    5000001    1    1    2    0    0  0.29336365989E+03  0.57470759559E+02  0.15058683893E+03  0.41778166691E+03  0.25000000000E+03 0.  0.
<mgrwt>
<rscale>  0 0.78313685E+03</rscale>
<asrwt>0</asrwt>
<pdfrwt beam="1">  1        2 0.79665523E-01 0.78313685E+03</pdfrwt>
<pdfrwt beam="2">  1       -2 0.45553128E-01 0.78313685E+03</pdfrwt>
<totfact> 0.27204621E+02</totfact>
</mgrwt>
</event>
<event>
 4    1  0.1714834E-005  0.5981564E+03  0.7818608E-02  0.9909238E-01
          2   -1    0    0  501    0  0.00000000000E+00  0.00000000000E+00  0.68169923697E+03  0.68169923697E+03  0.25500000000E-02 0.  1.
         -2   -1    0    0    0  501 -0.00000000000E+00 -0.00000000000E+00 -0.13121295294E+03  0.13121295296E+03  0.25500000000E-02 0. -1.
   -5000001    1    1    2    0    0 -0.72950787880E+02 -0.10539378600E+03  0.13586406713E+03  0.31207164613E+03  0.25000000000E+03 0.  0.
    5000001    1    1    2    0    0  0.72950787880E+02  0.10539378600E+03  0.41462221690E+03  0.50084054381E+03  0.25000000000E+03 0.  0.
<mgrwt>
<rscale>  0 0.59815640E+03</rscale>
<asrwt>0</asrwt>
<pdfrwt beam="1">  1        2 0.10487680E+00 0.59815640E+03</pdfrwt>
<pdfrwt beam="2">  1       -2 0.20186608E-01 0.59815640E+03</pdfrwt>
<totfact> 0.89364678E+02</totfact>
</mgrwt>
</event>
<event>
 4    1  0.1714834E-005  0.6325238E+03  0.7818608E-02  0.9840136E-01
         -2   -1    0    0    0  501 -0.00000000000E+00  0.00000000000E+00  0.82702006537E+02  0.82702006576E+02  0.25500000000E-02 0. -1.
          2   -1    0    0  501    0  0.00000000000E+00 -0.00000000000E+00 -0.12094216358E+04  0.12094216358E+04  0.25500000000E-02 0.  1.
   -5000001    1    1    2    0    0 -0.17207519125E+03  0.46940819486E+02 -0.40901928861E+03  0.51147833819E+03  0.25000000000E+03 0.  0.
    5000001    1    1    2    0    0  0.17207519125E+03 -0.46940819486E+02 -0.71770034061E+03  0.78064530415E+03  0.25000000000E+03 0.  0.
<mgrwt>
<rscale>  0 0.63252382E+03</rscale>
<asrwt>0</asrwt>
<pdfrwt beam="1">  1        2 0.18606485E+00 0.63252382E+03</pdfrwt>
<pdfrwt beam="2">  1       -2 0.12723386E-01 0.63252382E+03</pdfrwt>
<totfact> 0.87333587E+02</totfact>
</mgrwt>
</event>
<event>
 4    1  0.1714834E-005  0.5927646E+03  0.7818608E-02  0.9920532E-01
          2   -1    0    0  501    0  0.00000000000E+00  0.00000000000E+00  0.12843434212E+04  0.12843434212E+04  0.25500000000E-02 0. -1.
         -2   -1    0    0    0  501 -0.00000000000E+00 -0.00000000000E+00 -0.68394834012E+02  0.68394834060E+02  0.25500000000E-02 0.  1.
   -5000001    1    1    2    0    0  0.73488919430E+02  0.60000376832E+02  0.31624412824E+03  0.41413888388E+03  0.25000000000E+03 0.  0.
    5000001    1    1    2    0    0 -0.73488919430E+02 -0.60000376832E+02  0.89970445894E+03  0.93859937137E+03  0.25000000000E+03 0.  0.
<mgrwt>
<rscale>  0 0.59276456E+03</rscale>
<asrwt>0</asrwt>
<pdfrwt beam="1">  1        2 0.19759128E+00 0.59276456E+03</pdfrwt>
<pdfrwt beam="2">  1       -2 0.10522283E-01 0.59276456E+03</pdfrwt>
<totfact> 0.10810979E+03</totfact>
</mgrwt>
</event>
<event>
 4    1  0.1714834E-005  0.8226021E+03  0.7818608E-02  0.9527866E-01
          2   -1    0    0  501    0  0.00000000000E+00  0.00000000000E+00  0.44501649916E+03  0.44501649917E+03  0.25500000000E-02 0.  1.
         -2   -1    0    0    0  501 -0.00000000000E+00 -0.00000000000E+00 -0.38013995840E+03  0.38013995841E+03  0.25500000000E-02 0. -1.
   -5000001    1    1    2    0    0  0.28792598763E+03  0.15146693449E+02  0.18633487030E+03  0.42467809051E+03  0.25000000000E+03 0.  0.
    5000001    1    1    2    0    0 -0.28792598763E+03 -0.15146693449E+02 -0.12145832954E+03  0.40047836707E+03  0.25000000000E+03 0.  0.
<mgrwt>
<rscale>  0 0.82260210E+03</rscale>
<asrwt>0</asrwt>
<pdfrwt beam="1">  1        2 0.68464077E-01 0.82260210E+03</pdfrwt>
<pdfrwt beam="2">  1       -2 0.58483070E-01 0.82260210E+03</pdfrwt>
<totfact> 0.19389445E+02</totfact>
</mgrwt>
</event>
<event>
 4    1  0.1714834E-005  0.8190004E+03  0.7818608E-02  0.9532915E-01
          2   -1    0    0  501    0  0.00000000000E+00  0.00000000000E+00  0.19262014706E+04  0.19262014706E+04  0.25500000000E-02 0.  1.
         -2   -1    0    0    0  501 -0.00000000000E+00 -0.00000000000E+00 -0.87057568165E+02  0.87057568203E+02  0.25500000000E-02 0. -1.
   -5000001    1    1    2    0    0 -0.16577075328E+03  0.38185816740E+01  0.16047675562E+04  0.16325665174E+04  0.25000000000E+03 0.  0.
    5000001    1    1    2    0    0  0.16577075328E+03 -0.38185816740E+01  0.23437634626E+03  0.38069252146E+03  0.25000000000E+03 0.  0.
<mgrwt>
<rscale>  0 0.81900041E+03</rscale>
<asrwt>0</asrwt>
<pdfrwt beam="1">  1        2 0.29633869E+00 0.81900041E+03</pdfrwt>
<pdfrwt beam="2">  1       -2 0.13393472E-01 0.81900041E+03</pdfrwt>
<totfact> 0.31647606E+02</totfact>
</mgrwt>
</event>
<event>
 4    1  0.1714834E-005  0.8553783E+03  0.7818608E-02  0.9483147E-01
          2   -1    0    0  501    0  0.00000000000E+00  0.00000000000E+00  0.43875746496E+03  0.43875746497E+03  0.25500000000E-02 0.  1.
         -2   -1    0    0    0  501 -0.00000000000E+00 -0.00000000000E+00 -0.41690003224E+03  0.41690003225E+03  0.25500000000E-02 0. -1.
   -5000001    1    1    2    0    0 -0.11838488586E+03 -0.19314516964E+03 -0.25202200385E+03  0.42111177635E+03  0.25000000000E+03 0.  0.
    5000001    1    1    2    0    0  0.11838488586E+03  0.19314516964E+03  0.27387943657E+03  0.43454572087E+03  0.25000000000E+03 0.  0.
<mgrwt>
<rscale>  0 0.85537828E+03</rscale>
<asrwt>0</asrwt>
<pdfrwt beam="1">  1        2 0.67501148E-01 0.85537828E+03</pdfrwt>
<pdfrwt beam="2">  1       -2 0.64138466E-01 0.85537828E+03</pdfrwt>
<totfact> 0.16177753E+02</totfact>
</mgrwt>
</event>
<event>
 4    1  0.1714834E-005  0.5475337E+03  0.7818608E-02  0.1002066E+00
         -2   -1    0    0    0  501 -0.00000000000E+00  0.00000000000E+00  0.94919388138E+02  0.94919388172E+02  0.25500000000E-02 0. -1.
          2   -1    0    0  501    0  0.00000000000E+00 -0.00000000000E+00 -0.78959946120E+03  0.78959946120E+03  0.25500000000E-02 0.  1.
   -5000001    1    1    2    0    0  0.79448261306E+01 -0.47017642247E+02 -0.18439049260E+03  0.31428272734E+03  0.25000000000E+03 0.  0.
    5000001    1    1    2    0    0 -0.79448261306E+01  0.47017642247E+02 -0.51028958046E+03  0.57023612203E+03  0.25000000000E+03 0.  0.
<mgrwt>
<rscale>  0 0.54753374E+03</rscale>
<asrwt>0</asrwt>
<pdfrwt beam="1">  1        2 0.12147684E+00 0.54753374E+03</pdfrwt>
<pdfrwt beam="2">  1       -2 0.14602983E-01 0.54753374E+03</pdfrwt>
<totfact> 0.12903018E+03</totfact>
</mgrwt>
</event>
<event>
 4    1  0.1714834E-005  0.7891748E+03  0.7818608E-02  0.9575820E-01
          2   -1    0    0  501    0  0.00000000000E+00  0.00000000000E+00  0.18626358760E+04  0.18626358760E+04  0.25500000000E-02 0.  1.
         -2   -1    0    0    0  501 -0.00000000000E+00 -0.00000000000E+00 -0.83590792693E+02  0.83590792732E+02  0.25500000000E-02 0. -1.
   -5000001    1    1    2    0    0 -0.26687003838E+03  0.13884539999E+03  0.76134070851E+03  0.85594236775E+03  0.25000000000E+03 0.  0.
    5000001    1    1    2    0    0  0.26687003838E+03 -0.13884539999E+03  0.10177043748E+04  0.10902843010E+04  0.25000000000E+03 0.  0.
<mgrwt>
<rscale>  0 0.78917478E+03</rscale>
<asrwt>0</asrwt>
<pdfrwt beam="1">  1        2 0.28655935E+00 0.78917478E+03</pdfrwt>
<pdfrwt beam="2">  1       -2 0.12860123E-01 0.78917478E+03</pdfrwt>
<totfact> 0.36765694E+02</totfact>
</mgrwt>
</event>
<event>
 4    1  0.1714834E-005  0.5683306E+03  0.7818608E-02  0.9973380E-01
         -2   -1    0    0    0  501 -0.00000000000E+00  0.00000000000E+00  0.13098818856E+03  0.13098818858E+03  0.25500000000E-02 0. -1.
          2   -1    0    0  501    0  0.00000000000E+00 -0.00000000000E+00 -0.61646717437E+03  0.61646717438E+03  0.25500000000E-02 0.  1.
   -5000001    1    1    2    0    0  0.14891262637E+02 -0.13313322004E+03 -0.21981936754E+03  0.35884085376E+03  0.25000000000E+03 0.  0.
    5000001    1    1    2    0    0 -0.14891262637E+02  0.13313322004E+03 -0.26565961828E+03  0.38861450921E+03  0.25000000000E+03 0.  0.
<mgrwt>
<rscale>  0 0.56833060E+03</rscale>
<asrwt>0</asrwt>
<pdfrwt beam="1">  1        2 0.94841102E-01 0.56833060E+03</pdfrwt>
<pdfrwt beam="2">  1       -2 0.20152029E-01 0.56833060E+03</pdfrwt>
<totfact> 0.10141131E+03</totfact>
</mgrwt>
</event>
<event>
 4    1  0.1714834E-005  0.8789022E+03  0.7818608E-02  0.9452346E-01
         -2   -1    0    0    0  501 -0.00000000000E+00  0.00000000000E+00  0.29300952415E+03  0.29300952417E+03  0.25500000000E-02 0. -1.
          2   -1    0    0  501    0  0.00000000000E+00 -0.00000000000E+00 -0.65908193969E+03  0.65908193969E+03  0.25500000000E-02 0.  1.
   -5000001    1    1    2    0    0  0.34734080813E+02 -0.33756031730E+03 -0.48327064184E+02  0.42425102159E+03  0.25000000000E+03 0.  0.
    5000001    1    1    2    0    0 -0.34734080813E+02  0.33756031730E+03 -0.31774535135E+03  0.52784044227E+03  0.25000000000E+03 0.  0.
<mgrwt>
<rscale>  0 0.87890224E+03</rscale>
<asrwt>0</asrwt>
<pdfrwt beam="1">  1        2 0.10139722E+00 0.87890224E+03</pdfrwt>
<pdfrwt beam="2">  1       -2 0.45078388E-01 0.87890224E+03</pdfrwt>
<totfact> 0.20702517E+02</totfact>
</mgrwt>
</event>
<event>
 4    1  0.1714834E-005  0.5948053E+03  0.7818608E-02  0.9916242E-01
          2   -1    0    0  501    0  0.00000000000E+00  0.00000000000E+00  0.29370603288E+03  0.29370603289E+03  0.25500000000E-02 0.  1.
         -2   -1    0    0    0  501 -0.00000000000E+00 -0.00000000000E+00 -0.30114584302E+03  0.30114584304E+03  0.25500000000E-02 0. -1.
   -5000001    1    1    2    0    0  0.28584968503E+02  0.82516054437E+02 -0.13909057300E+03  0.29911901839E+03  0.25000000000E+03 0.  0.
    5000001    1    1    2    0    0 -0.28584968503E+02 -0.82516054437E+02  0.13165076285E+03  0.29573285753E+03  0.25000000000E+03 0.  0.
<mgrwt>
<rscale>  0 0.59480535E+03</rscale>
<asrwt>0</asrwt>
<pdfrwt beam="1">  1        2 0.45185544E-01 0.59480535E+03</pdfrwt>
<pdfrwt beam="2">  1       -2 0.46330130E-01 0.59480535E+03</pdfrwt>
<totfact> 0.50071378E+02</totfact>
</mgrwt>
</event>
<event>
 4    1  0.1714834E-005  0.6749941E+03  0.7818608E-02  0.9760978E-01
          2   -1    0    0  501    0  0.00000000000E+00  0.00000000000E+00  0.11754799855E+04  0.11754799855E+04  0.25500000000E-02 0.  1.
         -2   -1    0    0    0  501 -0.00000000000E+00 -0.00000000000E+00 -0.96900202793E+02  0.96900202827E+02  0.25500000000E-02 0. -1.
   -5000001    1    1    2    0    0  0.16034132398E+03 -0.16028410026E+03  0.53555962479E+03  0.63302799676E+03  0.25000000000E+03 0.  0.
    5000001    1    1    2    0    0 -0.16034132398E+03  0.16028410026E+03  0.54302015794E+03  0.63935219160E+03  0.25000000000E+03 0.  0.
<mgrwt>
<rscale>  0 0.67499407E+03</rscale>
<asrwt>0</asrwt>
<pdfrwt beam="1">  1        2 0.18084306E+00 0.67499407E+03</pdfrwt>
<pdfrwt beam="2">  1       -2 0.14907725E-01 0.67499407E+03</pdfrwt>
<totfact> 0.70048610E+02</totfact>
</mgrwt>
</event>
<event>
 4    1  0.1714834E-005  0.6607110E+03  0.7818608E-02  0.9786886E-01
          2   -1    0    0  501    0  0.00000000000E+00  0.00000000000E+00  0.10954368711E+04  0.10954368711E+04  0.25500000000E-02 0.  1.
         -2   -1    0    0    0  501 -0.00000000000E+00 -0.00000000000E+00 -0.99626704937E+02  0.99626704969E+02  0.25500000000E-02 0. -1.
   -5000001    1    1    2    0    0 -0.14923240329E+03 -0.11938970603E+03  0.67977753711E+03  0.74908057781E+03  0.25000000000E+03 0.  0.
    5000001    1    1    2    0    0  0.14923240329E+03  0.11938970603E+03  0.31603262901E+03  0.44598299821E+03  0.25000000000E+03 0.  0.
<mgrwt>
<rscale>  0 0.66071103E+03</rscale>
<asrwt>0</asrwt>
<pdfrwt beam="1">  1        2 0.16852873E+00 0.66071103E+03</pdfrwt>
<pdfrwt beam="2">  1       -2 0.15327187E-01 0.66071103E+03</pdfrwt>
<totfact> 0.74722777E+02</totfact>
</mgrwt>
</event>
<event>
 4    1  0.1714834E-005  0.7671214E+03  0.7818608E-02  0.9608866E-01
          2   -1    0    0  501    0  0.00000000000E+00  0.00000000000E+00  0.40232390780E+03  0.40232390781E+03  0.25500000000E-02 0.  1.
         -2   -1    0    0    0  501 -0.00000000000E+00 -0.00000000000E+00 -0.36567254902E+03  0.36567254903E+03  0.25500000000E-02 0. -1.
   -5000001    1    1    2    0    0 -0.25214029092E+03  0.13868173943E+03  0.60935452837E+02  0.38603170928E+03  0.25000000000E+03 0.  0.
    5000001    1    1    2    0    0  0.25214029092E+03 -0.13868173943E+03 -0.24284094060E+02  0.38196474756E+03  0.25000000000E+03 0.  0.
<mgrwt>
<rscale>  0 0.76712140E+03</rscale>
<asrwt>0</asrwt>
<pdfrwt beam="1">  1        2 0.61895986E-01 0.76712140E+03</pdfrwt>
<pdfrwt beam="2">  1       -2 0.56257315E-01 0.76712140E+03</pdfrwt>
<totfact> 0.23626186E+02</totfact>
</mgrwt>
</event>
<event>
 4    1  0.1714834E-005  0.9333649E+03  0.7818608E-02  0.9384809E-01
          2   -1    0    0  501    0  0.00000000000E+00  0.00000000000E+00  0.24358827641E+04  0.24358827641E+04  0.25500000000E-02 0.  1.
         -2   -1    0    0    0  501 -0.00000000000E+00 -0.00000000000E+00 -0.89410097684E+02  0.89410097721E+02  0.25500000000E-02 0. -1.
   -5000001    1    1    2    0    0  0.93621123119E+02 -0.33667184232E+03  0.16660654094E+04  0.17205774590E+04  0.25000000000E+03 0.  0.
    5000001    1    1    2    0    0 -0.93621123119E+02  0.33667184232E+03  0.68040725704E+03  0.80471540282E+03  0.25000000000E+03 0.  0.
<mgrwt>
<rscale>  0 0.93336491E+03</rscale>
<asrwt>0</asrwt>
<pdfrwt beam="1">  1        2 0.37475115E+00 0.93336491E+03</pdfrwt>
<pdfrwt beam="2">  1       -2 0.13755401E-01 0.93336491E+03</pdfrwt>
<totfact> 0.15649333E+02</totfact>
</mgrwt>
</event>
<event>
 4    1  0.1714834E-005  0.5690628E+03  0.7818608E-02  0.9971755E-01
         -2   -1    0    0    0  501 -0.00000000000E+00  0.00000000000E+00  0.49265979906E+02  0.49265979972E+02  0.25500000000E-02 0. -1.
          2   -1    0    0  501    0  0.00000000000E+00 -0.00000000000E+00 -0.16432865892E+04  0.16432865892E+04  0.25500000000E-02 0.  1.
   -5000001    1    1    2    0    0  0.98422032464E+02 -0.91305813256E+02 -0.73501412691E+03  0.78788921478E+03  0.25000000000E+03 0.  0.
    5000001    1    1    2    0    0 -0.98422032464E+02  0.91305813256E+02 -0.85900648242E+03  0.90466335443E+03  0.25000000000E+03 0.  0.
<mgrwt>
<rscale>  0 0.56906282E+03</rscale>
<asrwt>0</asrwt>
<pdfrwt beam="1">  1        2 0.25281328E+00 0.56906282E+03</pdfrwt>
<pdfrwt beam="2">  1       -2 0.75793828E-02 0.56906282E+03</pdfrwt>
<totfact> 0.11577672E+03</totfact>
</mgrwt>
</event>
<event>
 4    1  0.1714834E-005  0.1064603E+04  0.7818608E-02  0.9240396E-01
         -2   -1    0    0    0  501 -0.00000000000E+00  0.00000000000E+00  0.83398462758E+02  0.83398462797E+02  0.25500000000E-02 0. -1.
          2   -1    0    0  501    0  0.00000000000E+00 -0.00000000000E+00 -0.33974855830E+04  0.33974855830E+04  0.25500000000E-02 0.  1.
   -5000001    1    1    2    0    0  0.49782060067E+02  0.38262988987E+03 -0.25341471557E+04  0.25755165876E+04  0.25000000000E+03 0.  0.
    5000001    1    1    2    0    0 -0.49782060067E+02 -0.38262988987E+03 -0.77993996457E+03  0.90536745825E+03  0.25000000000E+03 0.  0.
<mgrwt>
<rscale>  0 0.10646034E+04</rscale>
<asrwt>0</asrwt>
<pdfrwt beam="1">  1        2 0.52268998E+00 0.10646034E+04</pdfrwt>
<pdfrwt beam="2">  1       -2 0.12830535E-01 0.10646034E+04</pdfrwt>
<totfact> 0.44852417E+01</totfact>
</mgrwt>
</event>
<event>
 4    1  0.1714834E-005  0.7375875E+03  0.7818608E-02  0.9655027E-01
          2   -1    0    0  501    0  0.00000000000E+00  0.00000000000E+00  0.19084867747E+04  0.19084867747E+04  0.25500000000E-02 0.  1.
         -2   -1    0    0    0  501 -0.00000000000E+00 -0.00000000000E+00 -0.71265267364E+02  0.71265267410E+02  0.25500000000E-02 0. -1.
   -5000001    1    1    2    0    0 -0.10085931628E+03 -0.25157661166E+03  0.93670142703E+03  0.10066642720E+04  0.25000000000E+03 0.  0.
    5000001    1    1    2    0    0  0.10085931628E+03  0.25157661166E+03  0.90052008033E+03  0.97308777009E+03  0.25000000000E+03 0.  0.
<mgrwt>
<rscale>  0 0.73758747E+03</rscale>
<asrwt>0</asrwt>
<pdfrwt beam="1">  1        2 0.29361329E+00 0.73758747E+03</pdfrwt>
<pdfrwt beam="2">  1       -2 0.10963890E-01 0.73758747E+03</pdfrwt>
<totfact> 0.45342191E+02</totfact>
</mgrwt>
</event>
<event>
 4    1  0.1714834E-005  0.6079786E+03  0.7818608E-02  0.9888990E-01
          2   -1    0    0  501    0  0.00000000000E+00  0.00000000000E+00  0.21152185046E+04  0.21152185046E+04  0.25500000000E-02 0.  1.
         -2   -1    0    0    0  501 -0.00000000000E+00 -0.00000000000E+00 -0.43687922141E+02  0.43687922215E+02  0.25500000000E-02 0. -1.
   -5000001    1    1    2    0    0 -0.57604840928E+02 -0.85676080930E+02  0.54307974615E+03  0.60670777086E+03  0.25000000000E+03 0.  0.
    5000001    1    1    2    0    0  0.57604840928E+02  0.85676080930E+02  0.15284508363E+04  0.15521986559E+04  0.25000000000E+03 0.  0.
<mgrwt>
<rscale>  0 0.60797862E+03</rscale>
<asrwt>0</asrwt>
<pdfrwt beam="1">  1        2 0.32541812E+00 0.60797862E+03</pdfrwt>
<pdfrwt beam="2">  1       -2 0.67212212E-02 0.60797862E+03</pdfrwt>
<totfact> 0.77534531E+02</totfact>
</mgrwt>
</event>
<event>
 4    1  0.1714834E-005  0.6382497E+03  0.7818608E-02  0.9829081E-01
          2   -1    0    0  501    0  0.00000000000E+00  0.00000000000E+00  0.12226929645E+04  0.12226929645E+04  0.25500000000E-02 0.  1.
         -2   -1    0    0    0  501 -0.00000000000E+00 -0.00000000000E+00 -0.83292091432E+02  0.83292091471E+02  0.25500000000E-02 0. -1.
   -5000001    1    1    2    0    0  0.96856842606E+02  0.96457959796E+02  0.27562209444E+03  0.39642518198E+03  0.25000000000E+03 0.  0.
    5000001    1    1    2    0    0 -0.96856842606E+02 -0.96457959796E+02  0.86377877865E+03  0.90955987401E+03  0.25000000000E+03 0.  0.
<mgrwt>
<rscale>  0 0.63824965E+03</rscale>
<asrwt>0</asrwt>
<pdfrwt beam="1">  1        2 0.18810658E+00 0.63824965E+03</pdfrwt>
<pdfrwt beam="2">  1       -2 0.12814170E-01 0.63824965E+03</pdfrwt>
<totfact> 0.84759960E+02</totfact>
</mgrwt>
</event>
<event>
 4    1  0.1714834E-005  0.8506034E+03  0.7818608E-02  0.9489527E-01
         -2   -1    0    0    0  501 -0.00000000000E+00  0.00000000000E+00  0.45410488379E+03  0.45410488379E+03  0.25500000000E-02 0. -1.
          2   -1    0    0  501    0  0.00000000000E+00 -0.00000000000E+00 -0.39832549185E+03  0.39832549186E+03  0.25500000000E-02 0.  1.
   -5000001    1    1    2    0    0  0.18189298330E+03  0.28555182179E+03 -0.33533470790E+02  0.42219591893E+03  0.25000000000E+03 0.  0.
    5000001    1    1    2    0    0 -0.18189298330E+03 -0.28555182179E+03  0.89312862724E+02  0.43023445672E+03  0.25000000000E+03 0.  0.
<mgrwt>
<rscale>  0 0.85060344E+03</rscale>
<asrwt>0</asrwt>
<pdfrwt beam="1">  1        2 0.61280845E-01 0.85060344E+03</pdfrwt>
<pdfrwt beam="2">  1       -2 0.69862290E-01 0.85060344E+03</pdfrwt>
<totfact> 0.15006503E+02</totfact>
</mgrwt>
</event>
<event>
 4    1  0.1714834E-005  0.8109477E+03  0.7818608E-02  0.9544305E-01
          2   -1    0    0  501    0  0.00000000000E+00  0.00000000000E+00  0.91369586097E+03  0.91369586097E+03  0.25500000000E-02 0.  1.
         -2   -1    0    0    0  501 -0.00000000000E+00 -0.00000000000E+00 -0.17993846902E+03  0.17993846904E+03  0.25500000000E-02 0. -1.
   -5000001    1    1    2    0    0 -0.92963697944E+02 -0.22328469180E+03  0.64786027738E+03  0.73533750192E+03  0.25000000000E+03 0.  0.
    5000001    1    1    2    0    0  0.92963697944E+02  0.22328469180E+03  0.85897114566E+02  0.35829682809E+03  0.25000000000E+03 0.  0.
<mgrwt>
<rscale>  0 0.81094768E+03</rscale>
<asrwt>0</asrwt>
<pdfrwt beam="1">  1        2 0.14056860E+00 0.81094768E+03</pdfrwt>
<pdfrwt beam="2">  1       -2 0.27682841E-01 0.81094768E+03</pdfrwt>
<totfact> 0.34298277E+02</totfact>
</mgrwt>
</event>
<event>
 4    1  0.1714834E-005  0.1021963E+04  0.7818608E-02  0.9284779E-01
         -2   -1    0    0    0  501 -0.00000000000E+00  0.00000000000E+00  0.48158446667E+03  0.48158446667E+03  0.25500000000E-02 0. -1.
          2   -1    0    0  501    0  0.00000000000E+00 -0.00000000000E+00 -0.54217259445E+03  0.54217259446E+03  0.25500000000E-02 0.  1.
   -5000001    1    1    2    0    0 -0.37827280588E+03  0.22754396505E+03 -0.91518708556E+02  0.51550193570E+03  0.25000000000E+03 0.  0.
    5000001    1    1    2    0    0  0.37827280588E+03 -0.22754396505E+03  0.30930580770E+02  0.50825512543E+03  0.25000000000E+03 0.  0.
<mgrwt>
<rscale>  0 0.10219626E+04</rscale>
<asrwt>0</asrwt>
<pdfrwt beam="1">  1        2 0.83411169E-01 0.10219626E+04</pdfrwt>
<pdfrwt beam="2">  1       -2 0.74089918E-01 0.10219626E+04</pdfrwt>
<totfact> 0.91681460E+01</totfact>
</mgrwt>
</event>
<event>
 4    1  0.1714834E-005  0.6982470E+03  0.7818608E-02  0.9720235E-01
          2   -1    0    0  501    0  0.00000000000E+00  0.00000000000E+00  0.14743349411E+04  0.14743349411E+04  0.25500000000E-02 0.  1.
         -2   -1    0    0    0  501 -0.00000000000E+00 -0.00000000000E+00 -0.82672671466E+02  0.82672671506E+02  0.25500000000E-02 0. -1.
   -5000001    1    1    2    0    0 -0.73348950617E+01 -0.24252806631E+03  0.74636363251E+03  0.82367004047E+03  0.25000000000E+03 0.  0.
    5000001    1    1    2    0    0  0.73348950617E+01  0.24252806631E+03  0.64529863712E+03  0.73333757213E+03  0.25000000000E+03 0.  0.
<mgrwt>
<rscale>  0 0.69824697E+03</rscale>
<asrwt>0</asrwt>
<pdfrwt beam="1">  1        2 0.22682073E+00 0.69824697E+03</pdfrwt>
<pdfrwt beam="2">  1       -2 0.12718874E-01 0.69824697E+03</pdfrwt>
<totfact> 0.61533640E+02</totfact>
</mgrwt>
</event>
<event>
 4    1  0.1714834E-005  0.6609925E+03  0.7818608E-02  0.9786368E-01
          2   -1    0    0  501    0  0.00000000000E+00  0.00000000000E+00  0.99719100638E+03  0.99719100638E+03  0.25500000000E-02 0. -1.
         -2   -1    0    0    0  501 -0.00000000000E+00 -0.00000000000E+00 -0.10953544688E+03  0.10953544691E+03  0.25500000000E-02 0.  1.
   -5000001    1    1    2    0    0  0.43728505544E+02  0.60877018888E+02  0.78330859588E+03  0.82564553533E+03  0.25000000000E+03 0.  0.
    5000001    1    1    2    0    0 -0.43728505544E+02 -0.60877018888E+02  0.10434696361E+03  0.28108091796E+03  0.25000000000E+03 0.  0.
<mgrwt>
<rscale>  0 0.66099247E+03</rscale>
<asrwt>0</asrwt>
<pdfrwt beam="1">  1        2 0.15341400E+00 0.66099247E+03</pdfrwt>
<pdfrwt beam="2">  1       -2 0.16851607E-01 0.66099247E+03</pdfrwt>
<totfact> 0.73213896E+02</totfact>
</mgrwt>
</event>
<event>
 4    1  0.1714834E-005  0.6277526E+03  0.7818608E-02  0.9849444E-01
          2   -1    0    0  501    0  0.00000000000E+00  0.00000000000E+00  0.13295118267E+04  0.13295118267E+04  0.25500000000E-02 0.  1.
         -2   -1    0    0    0  501 -0.00000000000E+00 -0.00000000000E+00 -0.74101133318E+02  0.74101133361E+02  0.25500000000E-02 0. -1.
   -5000001    1    1    2    0    0 -0.14329852723E+03  0.12370013425E+03  0.59752918966E+03  0.67481651107E+03  0.25000000000E+03 0.  0.
    5000001    1    1    2    0    0  0.14329852723E+03 -0.12370013425E+03  0.65788150367E+03  0.72879644895E+03  0.25000000000E+03 0.  0.
<mgrwt>
<rscale>  0 0.62775260E+03</rscale>
<asrwt>0</asrwt>
<pdfrwt beam="1">  1        2 0.20454027E+00 0.62775260E+03</pdfrwt>
<pdfrwt beam="2">  1       -2 0.11400175E-01 0.62775260E+03</pdfrwt>
<totfact> 0.89240866E+02</totfact>
</mgrwt>
</event>
<event>
 4    1  0.1714834E-005  0.9365237E+03  0.7818608E-02  0.9381042E-01
         -2   -1    0    0    0  501 -0.00000000000E+00  0.00000000000E+00  0.16389249808E+03  0.16389249810E+03  0.25500000000E-02 0. -1.
          2   -1    0    0  501    0  0.00000000000E+00 -0.00000000000E+00 -0.13378841747E+04  0.13378841747E+04  0.25500000000E-02 0.  1.
   -5000001    1    1    2    0    0  0.59476877333E+02  0.31885712258E+03 -0.95112097867E+03  0.10355377732E+04  0.25000000000E+03 0.  0.
    5000001    1    1    2    0    0 -0.59476877333E+02 -0.31885712258E+03 -0.22287069798E+03  0.46623889968E+03  0.25000000000E+03 0.  0.
<mgrwt>
<rscale>  0 0.93652374E+03</rscale>
<asrwt>0</asrwt>
<pdfrwt beam="1">  1        2 0.20582833E+00 0.93652374E+03</pdfrwt>
<pdfrwt beam="2">  1       -2 0.25214231E-01 0.93652374E+03</pdfrwt>
<totfact> 0.22195197E+02</totfact>
</mgrwt>
</event>
<event>
 4    1  0.1714834E-005  0.6124629E+03  0.7818608E-02  0.9879882E-01
          2   -1    0    0  501    0  0.00000000000E+00  0.00000000000E+00  0.13020893932E+03  0.13020893935E+03  0.25500000000E-02 0.  1.
         -2   -1    0    0    0  501 -0.00000000000E+00 -0.00000000000E+00 -0.72020946312E+03  0.72020946313E+03  0.25500000000E-02 0. -1.
   -5000001    1    1    2    0    0 -0.13194790463E+03 -0.68573458146E+02 -0.42793008626E+03  0.51743282407E+03  0.25000000000E+03 0.  0.
    5000001    1    1    2    0    0  0.13194790463E+03  0.68573458146E+02 -0.16207043754E+03  0.33298557840E+03  0.25000000000E+03 0.  0.
<mgrwt>
<rscale>  0 0.61246293E+03</rscale>
<asrwt>0</asrwt>
<pdfrwt beam="1">  1        2 0.20032145E-01 0.61246293E+03</pdfrwt>
<pdfrwt beam="2">  1       -2 0.11080145E+00 0.61246293E+03</pdfrwt>
<totfact> 0.18541099E+02</totfact>
</mgrwt>
</event>
<event>
 4    1  0.1714834E-005  0.6544736E+03  0.7818608E-02  0.9798421E-01
         -2   -1    0    0    0  501 -0.00000000000E+00  0.00000000000E+00  0.65276860565E+02  0.65276860615E+02  0.25500000000E-02 0. -1.
          2   -1    0    0  501    0  0.00000000000E+00 -0.00000000000E+00 -0.16404575226E+04  0.16404575226E+04  0.25500000000E-02 0.  1.
   -5000001    1    1    2    0    0 -0.69075251359E+01  0.15543625829E+03 -0.11596189307E+04  0.11964214177E+04  0.25000000000E+03 0.  0.
    5000001    1    1    2    0    0  0.69075251359E+01 -0.15543625829E+03 -0.41556173135E+03  0.50931296553E+03  0.25000000000E+03 0.  0.
<mgrwt>
<rscale>  0 0.65447358E+03</rscale>
<asrwt>0</asrwt>
<pdfrwt beam="1">  1        2 0.25237805E+00 0.65447358E+03</pdfrwt>
<pdfrwt beam="2">  1       -2 0.10042595E-01 0.65447358E+03</pdfrwt>
<totfact> 0.73624903E+02</totfact>
</mgrwt>
</event>
<event>
 4    1  0.1714834E-005  0.6571692E+03  0.7818608E-02  0.9793419E-01
          2   -1    0    0  501    0  0.00000000000E+00  0.00000000000E+00  0.55402856459E+03  0.55402856460E+03  0.25500000000E-02 0.  1.
         -2   -1    0    0    0  501 -0.00000000000E+00 -0.00000000000E+00 -0.19487774072E+03  0.19487774073E+03  0.25500000000E-02 0. -1.
   -5000001    1    1    2    0    0 -0.12204282609E+03 -0.16710173861E+03  0.23824396723E+03  0.40258866150E+03  0.25000000000E+03 0.  0.
    5000001    1    1    2    0    0  0.12204282609E+03  0.16710173861E+03  0.12090685665E+03  0.34631764383E+03  0.25000000000E+03 0.  0.
<mgrwt>
<rscale>  0 0.65716919E+03</rscale>
<asrwt>0</asrwt>
<pdfrwt beam="1">  1        2 0.85235163E-01 0.65716919E+03</pdfrwt>
<pdfrwt beam="2">  1       -2 0.29981191E-01 0.65716919E+03</pdfrwt>
<totfact> 0.56368243E+02</totfact>
</mgrwt>
</event>
<event>
 4    1  0.1714834E-005  0.8349963E+03  0.7818608E-02  0.9510699E-01
          2   -1    0    0  501    0  0.00000000000E+00  0.00000000000E+00  0.15716851869E+04  0.15716851869E+04  0.25500000000E-02 0.  1.
         -2   -1    0    0    0  501 -0.00000000000E+00 -0.00000000000E+00 -0.11090305578E+03  0.11090305581E+03  0.25500000000E-02 0. -1.
   -5000001    1    1    2    0    0  0.15807005038E+03 -0.17762016704E+03  0.12041272724E+04  0.12525803578E+04  0.25000000000E+03 0.  0.
    5000001    1    1    2    0    0 -0.15807005038E+03  0.17762016704E+03  0.25665485866E+03  0.43000788486E+03  0.25000000000E+03 0.  0.
<mgrwt>
<rscale>  0 0.83499626E+03</rscale>
<asrwt>0</asrwt>
<pdfrwt beam="1">  1        2 0.24179770E+00 0.83499626E+03</pdfrwt>
<pdfrwt beam="2">  1       -2 0.17062010E-01 0.83499626E+03</pdfrwt>
<totfact> 0.32818153E+02</totfact>
</mgrwt>
</event>
<event>
 4    1  0.1714834E-005  0.6719240E+03  0.7818608E-02  0.9766488E-01
          2   -1    0    0  501    0  0.00000000000E+00  0.00000000000E+00  0.18521599901E+03  0.18521599903E+03  0.25500000000E-02 0.  1.
         -2   -1    0    0    0  501 -0.00000000000E+00 -0.00000000000E+00 -0.60939903701E+03  0.60939903702E+03  0.25500000000E-02 0. -1.
   -5000001    1    1    2    0    0 -0.15472638004E+03  0.53676189017E+02 -0.30613725278E+02  0.30043066775E+03  0.25000000000E+03 0.  0.
    5000001    1    1    2    0    0  0.15472638004E+03 -0.53676189017E+02 -0.39356931272E+03  0.49418436829E+03  0.25000000000E+03 0.  0.
<mgrwt>
<rscale>  0 0.67192396E+03</rscale>
<asrwt>0</asrwt>
<pdfrwt beam="1">  1        2 0.28494769E-01 0.67192396E+03</pdfrwt>
<pdfrwt beam="2">  1       -2 0.93753697E-01 0.67192396E+03</pdfrwt>
<totfact> 0.18331406E+02</totfact>
</mgrwt>
</event>
<event>
 4    1  0.1714834E-005  0.7812569E+03  0.7818608E-02  0.9587550E-01
          2   -1    0    0  501    0  0.00000000000E+00  0.00000000000E+00  0.30728241742E+03  0.30728241743E+03  0.25500000000E-02 0.  1.
         -2   -1    0    0    0  501 -0.00000000000E+00 -0.00000000000E+00 -0.49658096080E+03  0.49658096081E+03  0.25500000000E-02 0. -1.
   -5000001    1    1    2    0    0 -0.27634374834E+03  0.57060128065E+02 -0.19992743958E+03  0.42672322008E+03  0.25000000000E+03 0.  0.
    5000001    1    1    2    0    0  0.27634374834E+03 -0.57060128065E+02  0.10628896195E+02  0.37714015816E+03  0.25000000000E+03 0.  0.
<mgrwt>
<rscale>  0 0.78125693E+03</rscale>
<asrwt>0</asrwt>
<pdfrwt beam="1">  1        2 0.47274218E-01 0.78125693E+03</pdfrwt>
<pdfrwt beam="2">  1       -2 0.76397071E-01 0.78125693E+03</pdfrwt>
<totfact> 0.16516232E+02</totfact>
</mgrwt>
</event>
<event>
 4    1  0.1714834E-005  0.8642622E+03  0.7818608E-02  0.9471392E-01
         -2   -1    0    0    0  501 -0.00000000000E+00  0.00000000000E+00  0.21275591169E+03  0.21275591170E+03  0.25500000000E-02 0. -1.
          2   -1    0    0  501    0  0.00000000000E+00 -0.00000000000E+00 -0.87770669967E+03  0.87770669967E+03  0.25500000000E-02 0.  1.
   -5000001    1    1    2    0    0 -0.13324732744E+03  0.14202966622E+03 -0.70315257311E+03  0.77126572426E+03  0.25000000000E+03 0.  0.
    5000001    1    1    2    0    0  0.13324732744E+03 -0.14202966622E+03  0.38201785130E+02  0.31919688711E+03  0.25000000000E+03 0.  0.
<mgrwt>
<rscale>  0 0.86426220E+03</rscale>
<asrwt>0</asrwt>
<pdfrwt beam="1">  1        2 0.13503180E+00 0.86426220E+03</pdfrwt>
<pdfrwt beam="2">  1       -2 0.32731679E-01 0.86426220E+03</pdfrwt>
<totfact> 0.26502306E+02</totfact>
</mgrwt>
</event>
<event>
 4    1  0.1714834E-005  0.8510566E+03  0.7818608E-02  0.9488920E-01
         -2   -1    0    0    0  501 -0.00000000000E+00  0.00000000000E+00  0.36779624217E+03  0.36779624218E+03  0.25500000000E-02 0. -1.
          2   -1    0    0  501    0  0.00000000000E+00 -0.00000000000E+00 -0.49232236349E+03  0.49232236349E+03  0.25500000000E-02 0.  1.
   -5000001    1    1    2    0    0  0.12526387769E+03  0.21761875763E+03  0.17588419599E+03  0.39558085536E+03  0.25000000000E+03 0.  0.
    5000001    1    1    2    0    0 -0.12526387769E+03 -0.21761875763E+03 -0.30041031730E+03  0.46453775032E+03  0.25000000000E+03 0.  0.
<mgrwt>
<rscale>  0 0.85105656E+03</rscale>
<asrwt>0</asrwt>
<pdfrwt beam="1">  1        2 0.75741903E-01 0.85105656E+03</pdfrwt>
<pdfrwt beam="2">  1       -2 0.56584037E-01 0.85105656E+03</pdfrwt>
<totfact> 0.18476739E+02</totfact>
</mgrwt>
</event>
<event>
 4    1  0.1714834E-005  0.5484776E+03  0.7818608E-02  0.1001847E+00
          2   -1    0    0  501    0  0.00000000000E+00  0.00000000000E+00  0.63910249141E+03  0.63910249142E+03  0.25500000000E-02 0.  1.
         -2   -1    0    0    0  501 -0.00000000000E+00 -0.00000000000E+00 -0.11767582266E+03  0.11767582269E+03  0.25500000000E-02 0. -1.
   -5000001    1    1    2    0    0  0.76222129804E+02  0.82972636112E+02  0.26561884227E+03  0.38176909354E+03  0.25000000000E+03 0.  0.
    5000001    1    1    2    0    0 -0.76222129804E+02 -0.82972636112E+02  0.25580782649E+03  0.37500922056E+03  0.25000000000E+03 0.  0.
<mgrwt>
<rscale>  0 0.54847757E+03</rscale>
<asrwt>0</asrwt>
<pdfrwt beam="1">  1        2 0.98323463E-01 0.54847757E+03</pdfrwt>
<pdfrwt beam="2">  1       -2 0.18103972E-01 0.54847757E+03</pdfrwt>
<totfact> 0.11688440E+03</totfact>
</mgrwt>
</event>
<event>
 4    1  0.1714834E-005  0.8354403E+03  0.7818608E-02  0.9510090E-01
          2   -1    0    0  501    0  0.00000000000E+00  0.00000000000E+00  0.14804135000E+04  0.14804135000E+04  0.25500000000E-02 0.  1.
         -2   -1    0    0    0  501 -0.00000000000E+00 -0.00000000000E+00 -0.11786578804E+03  0.11786578807E+03  0.25500000000E-02 0. -1.
   -5000001    1    1    2    0    0  0.49840482456E+02 -0.30429451254E+03  0.43249104168E+03  0.58705001932E+03  0.25000000000E+03 0.  0.
    5000001    1    1    2    0    0 -0.49840482456E+02  0.30429451254E+03  0.93005667031E+03  0.10112292688E+04  0.25000000000E+03 0.  0.
<mgrwt>
<rscale>  0 0.83544025E+03</rscale>
<asrwt>0</asrwt>
<pdfrwt beam="1">  1        2 0.22775592E+00 0.83544025E+03</pdfrwt>
<pdfrwt beam="2">  1       -2 0.18133198E-01 0.83544025E+03</pdfrwt>
<totfact> 0.33216186E+02</totfact>
</mgrwt>
</event>
<event>
 4    1  0.1714834E-005  0.6519276E+03  0.7818608E-02  0.9803169E-01
         -2   -1    0    0    0  501 -0.00000000000E+00  0.00000000000E+00  0.63855103045E+02  0.63855103096E+02  0.25500000000E-02 0. -1.
          2   -1    0    0  501    0  0.00000000000E+00 -0.00000000000E+00 -0.16639612100E+04  0.16639612100E+04  0.25500000000E-02 0.  1.
   -5000001    1    1    2    0    0 -0.20773175865E+03  0.84516915730E+01 -0.73912453212E+03  0.80748311971E+03  0.25000000000E+03 0.  0.
    5000001    1    1    2    0    0  0.20773175865E+03 -0.84516915730E+01 -0.86098157485E+03  0.92033319339E+03  0.25000000000E+03 0.  0.
<mgrwt>
<rscale>  0 0.65192765E+03</rscale>
<asrwt>0</asrwt>
<pdfrwt beam="1">  1        2 0.25599400E+00 0.65192765E+03</pdfrwt>
<pdfrwt beam="2">  1       -2 0.98238633E-02 0.65192765E+03</pdfrwt>
<totfact> 0.74092395E+02</totfact>
</mgrwt>
</event>
<event>
 4    1  0.1714834E-005  0.6597378E+03  0.7818608E-02  0.9788677E-01
          2   -1    0    0  501    0  0.00000000000E+00  0.00000000000E+00  0.99436389359E+03  0.99436389359E+03  0.25500000000E-02 0.  1.
         -2   -1    0    0    0  501 -0.00000000000E+00 -0.00000000000E+00 -0.10943025344E+03  0.10943025347E+03  0.25500000000E-02 0. -1.
   -5000001    1    1    2    0    0 -0.44358991531E+02  0.20392889344E+03  0.35458982729E+03  0.48144434707E+03  0.25000000000E+03 0.  0.
    5000001    1    1    2    0    0  0.44358991531E+02 -0.20392889344E+03  0.53034381286E+03  0.62234979999E+03  0.25000000000E+03 0.  0.
<mgrwt>
<rscale>  0 0.65973781E+03</rscale>
<asrwt>0</asrwt>
<pdfrwt beam="1">  1        2 0.15297905E+00 0.65973781E+03</pdfrwt>
<pdfrwt beam="2">  1       -2 0.16835424E-01 0.65973781E+03</pdfrwt>
<totfact> 0.73641882E+02</totfact>
</mgrwt>
</event>
<event>
 4    1  0.1714834E-005  0.6977251E+03  0.7818608E-02  0.9721131E-01
         -2   -1    0    0    0  501 -0.00000000000E+00  0.00000000000E+00  0.65334732067E+03  0.65334732067E+03  0.25500000000E-02 0. -1.
          2   -1    0    0  501    0  0.00000000000E+00 -0.00000000000E+00 -0.18627927308E+03  0.18627927310E+03  0.25500000000E-02 0.  1.
   -5000001    1    1    2    0    0  0.32763899985E+02  0.22934495866E+03  0.14402603022E+03  0.37002172989E+03  0.25000000000E+03 0.  0.
    5000001    1    1    2    0    0 -0.32763899985E+02 -0.22934495866E+03  0.32304201736E+03  0.46960486389E+03  0.25000000000E+03 0.  0.
<mgrwt>
<rscale>  0 0.69772506E+03</rscale>
<asrwt>0</asrwt>
<pdfrwt beam="1">  1        2 0.28658349E-01 0.69772506E+03</pdfrwt>
<pdfrwt beam="2">  1       -2 0.10051497E+00 0.69772506E+03</pdfrwt>
<totfact> 0.15455083E+02</totfact>
</mgrwt>
</event>
<event>
 4    1  0.1714834E-005  0.7898410E+03  0.7818608E-02  0.9574839E-01
         -2   -1    0    0    0  501 -0.00000000000E+00  0.00000000000E+00  0.89105122271E+02  0.89105122307E+02  0.25500000000E-02 0. -1.
          2   -1    0    0  501    0  0.00000000000E+00 -0.00000000000E+00 -0.17503166959E+04  0.17503166959E+04  0.25500000000E-02 0.  1.
   -5000001    1    1    2    0    0  0.88970368543E+02  0.28687226107E+03 -0.69782528325E+03  0.79979469028E+03  0.25000000000E+03 0.  0.
    5000001    1    1    2    0    0 -0.88970368543E+02 -0.28687226107E+03 -0.96338629040E+03  0.10396271280E+04  0.25000000000E+03 0.  0.
<mgrwt>
<rscale>  0 0.78984095E+03</rscale>
<asrwt>0</asrwt>
<pdfrwt beam="1">  1        2 0.26927947E+00 0.78984095E+03</pdfrwt>
<pdfrwt beam="2">  1       -2 0.13708482E-01 0.78984095E+03</pdfrwt>
<totfact> 0.38052922E+02</totfact>
</mgrwt>
</event>
<event>
 4    1  0.1714834E-005  0.7240140E+03  0.7818608E-02  0.9677024E-01
         -2   -1    0    0    0  501 -0.00000000000E+00  0.00000000000E+00  0.19919261382E+03  0.19919261384E+03  0.25500000000E-02 0. -1.
          2   -1    0    0  501    0  0.00000000000E+00 -0.00000000000E+00 -0.65790122138E+03  0.65790122139E+03  0.25500000000E-02 0.  1.
   -5000001    1    1    2    0    0  0.19012705067E+03 -0.15334640375E+03 -0.34094448707E+03  0.48826894044E+03  0.25000000000E+03 0.  0.
    5000001    1    1    2    0    0 -0.19012705067E+03  0.15334640375E+03 -0.11776412049E+03  0.36882489478E+03  0.25000000000E+03 0.  0.
<mgrwt>
<rscale>  0 0.72401399E+03</rscale>
<asrwt>0</asrwt>
<pdfrwt beam="1">  1        2 0.10121557E+00 0.72401399E+03</pdfrwt>
<pdfrwt beam="2">  1       -2 0.30645018E-01 0.72401399E+03</pdfrwt>
<totfact> 0.43904947E+02</totfact>
</mgrwt>
</event>
<event>
 4    1  0.1714834E-005  0.7165814E+03  0.7818608E-02  0.9689289E-01
          2   -1    0    0  501    0  0.00000000000E+00  0.00000000000E+00  0.20354765398E+04  0.20354765398E+04  0.25500000000E-02 0.  1.
         -2   -1    0    0    0  501 -0.00000000000E+00 -0.00000000000E+00 -0.63067404114E+02  0.63067404166E+02  0.25500000000E-02 0. -1.
   -5000001    1    1    2    0    0 -0.18688559146E+03  0.16900661578E+03  0.84325172612E+03  0.91491143510E+03  0.25000000000E+03 0.  0.
    5000001    1    1    2    0    0  0.18688559146E+03 -0.16900661578E+03  0.11291574096E+04  0.11836325089E+04  0.25000000000E+03 0.  0.
<mgrwt>
<rscale>  0 0.71658139E+03</rscale>
<asrwt>0</asrwt>
<pdfrwt beam="1">  1        2 0.31315022E+00 0.71658139E+03</pdfrwt>
<pdfrwt beam="2">  1       -2 0.97026782E-02 0.71658139E+03</pdfrwt>
<totfact> 0.47265272E+02</totfact>
</mgrwt>
</event>
<event>
 4    1  0.1714834E-005  0.7940591E+03  0.7818608E-02  0.9568656E-01
          2   -1    0    0  501    0  0.00000000000E+00  0.00000000000E+00  0.94283053392E+03  0.94283053393E+03  0.25500000000E-02 0.  1.
         -2   -1    0    0    0  501 -0.00000000000E+00 -0.00000000000E+00 -0.16719066159E+03  0.16719066161E+03  0.25500000000E-02 0. -1.
   -5000001    1    1    2    0    0  0.13396250835E+03 -0.48429081083E+02  0.53928716464E+01  0.28778535856E+03  0.25000000000E+03 0.  0.
    5000001    1    1    2    0    0 -0.13396250835E+03  0.48429081083E+02  0.77024700069E+03  0.82223583697E+03  0.25000000000E+03 0.  0.
<mgrwt>
<rscale>  0 0.79405909E+03</rscale>
<asrwt>0</asrwt>
<pdfrwt beam="1">  1        2 0.14505085E+00 0.79405909E+03</pdfrwt>
<pdfrwt beam="2">  1       -2 0.25721641E-01 0.79405909E+03</pdfrwt>
<totfact> 0.37536324E+02</totfact>
</mgrwt>
</event>
<event>
 4    1  0.1714834E-005  0.8382895E+03  0.7818608E-02  0.9506191E-01
         -2   -1    0    0    0  501 -0.00000000000E+00  0.00000000000E+00  0.23978537685E+03  0.23978537686E+03  0.25500000000E-02 0. -1.
          2   -1    0    0  501    0  0.00000000000E+00 -0.00000000000E+00 -0.73266491180E+03  0.73266491181E+03  0.25500000000E-02 0.  1.
   -5000001    1    1    2    0    0  0.29946390789E+03 -0.10440987169E+03 -0.11621370556E+03  0.42022098804E+03  0.25000000000E+03 0.  0.
    5000001    1    1    2    0    0 -0.29946390789E+03  0.10440987169E+03 -0.37666582940E+03  0.55222930062E+03  0.25000000000E+03 0.  0.
<mgrwt>
<rscale>  0 0.83828953E+03</rscale>
<asrwt>0</asrwt>
<pdfrwt beam="1">  1        2 0.11271768E+00 0.83828953E+03</pdfrwt>
<pdfrwt beam="2">  1       -2 0.36890058E-01 0.83828953E+03</pdfrwt>
<totfact> 0.26873906E+02</totfact>
</mgrwt>
</event>
<event>
 4    1  0.1714834E-005  0.6564184E+03  0.7818608E-02  0.9794810E-01
         -2   -1    0    0    0  501 -0.00000000000E+00  0.00000000000E+00  0.26248551061E+03  0.26248551062E+03  0.25500000000E-02 0. -1.
          2   -1    0    0  501    0  0.00000000000E+00 -0.00000000000E+00 -0.41038939107E+03  0.41038939108E+03  0.25500000000E-02 0.  1.
   -5000001    1    1    2    0    0 -0.25115450142E+02  0.10117279565E+03 -0.26394849498E+03  0.37820038130E+03  0.25000000000E+03 0.  0.
    5000001    1    1    2    0    0  0.25115450142E+02 -0.10117279565E+03  0.11604461451E+03  0.29467452040E+03  0.25000000000E+03 0.  0.
<mgrwt>
<rscale>  0 0.65641837E+03</rscale>
<asrwt>0</asrwt>
<pdfrwt beam="1">  1        2 0.63136830E-01 0.65641837E+03</pdfrwt>
<pdfrwt beam="2">  1       -2 0.40382386E-01 0.65641837E+03</pdfrwt>
<totfact> 0.45207417E+02</totfact>
</mgrwt>
</event>
<event>
 4    1  0.1714834E-005  0.6595694E+03  0.7818608E-02  0.9788987E-01
          2   -1    0    0  501    0  0.00000000000E+00  0.00000000000E+00  0.36563573837E+03  0.36563573837E+03  0.25500000000E-02 0.  1.
         -2   -1    0    0    0  501 -0.00000000000E+00 -0.00000000000E+00 -0.29744885920E+03  0.29744885921E+03  0.25500000000E-02 0. -1.
   -5000001    1    1    2    0    0  0.68102110892E+02  0.20056077072E+03  0.71647755420E+02  0.33540411613E+03  0.25000000000E+03 0.  0.
    5000001    1    1    2    0    0 -0.68102110892E+02 -0.20056077072E+03 -0.34608762500E+01  0.32768048145E+03  0.25000000000E+03 0.  0.
<mgrwt>
<rscale>  0 0.65956935E+03</rscale>
<asrwt>0</asrwt>
<pdfrwt beam="1">  1        2 0.56251652E-01 0.65956935E+03</pdfrwt>
<pdfrwt beam="2">  1       -2 0.45761363E-01 0.65956935E+03</pdfrwt>
<totfact> 0.40198291E+02</totfact>
</mgrwt>
</event>
<event>
 4    1  0.1714834E-005  0.7901989E+03  0.7818608E-02  0.9574313E-01
         -2   -1    0    0    0  501 -0.00000000000E+00  0.00000000000E+00  0.91520691341E+02  0.91520691377E+02  0.25500000000E-02 0. -1.
          2   -1    0    0  501    0  0.00000000000E+00 -0.00000000000E+00 -0.17056643422E+04  0.17056643422E+04  0.25500000000E-02 0.  1.
   -5000001    1    1    2    0    0  0.11717291635E+03 -0.27483244739E+03 -0.65722003647E+03  0.76400297303E+03  0.25000000000E+03 0.  0.
    5000001    1    1    2    0    0 -0.11717291635E+03  0.27483244739E+03 -0.95692361439E+03  0.10331820606E+04  0.25000000000E+03 0.  0.
<mgrwt>
<rscale>  0 0.79019891E+03</rscale>
<asrwt>0</asrwt>
<pdfrwt beam="1">  1        2 0.26240987E+00 0.79019891E+03</pdfrwt>
<pdfrwt beam="2">  1       -2 0.14080108E-01 0.79019891E+03</pdfrwt>
<totfact> 0.38487063E+02</totfact>
</mgrwt>
</event>
<event>
 4    1  0.1714834E-005  0.7418314E+03  0.7818608E-02  0.9648253E-01
         -2   -1    0    0    0  501 -0.00000000000E+00  0.00000000000E+00  0.10946089168E+03  0.10946089171E+03  0.25500000000E-02 0. -1.
          2   -1    0    0  501    0  0.00000000000E+00 -0.00000000000E+00 -0.12568732559E+04  0.12568732559E+04  0.25500000000E-02 0.  1.
   -5000001    1    1    2    0    0  0.68681463971E+02 -0.25484295624E+03 -0.43815393631E+03  0.56933377534E+03  0.25000000000E+03 0.  0.
    5000001    1    1    2    0    0 -0.68681463971E+02  0.25484295624E+03 -0.70925842788E+03  0.79700037224E+03  0.25000000000E+03 0.  0.
<mgrwt>
<rscale>  0 0.74183143E+03</rscale>
<asrwt>0</asrwt>
<pdfrwt beam="1">  1        2 0.19336511E+00 0.74183143E+03</pdfrwt>
<pdfrwt beam="2">  1       -2 0.16840138E-01 0.74183143E+03</pdfrwt>
<totfact> 0.50847006E+02</totfact>
</mgrwt>
</event>
<event>
 4    1  0.1714834E-005  0.1979292E+04  0.7818608E-02  0.8616364E-01
         -2   -1    0    0    0  501 -0.00000000000E+00  0.00000000000E+00  0.10982434142E+04  0.10982434142E+04  0.25500000000E-02 0. -1.
          2   -1    0    0  501    0  0.00000000000E+00 -0.00000000000E+00 -0.89178719887E+03  0.89178719887E+03  0.25500000000E-02 0.  1.
   -5000001    1    1    2    0    0  0.19423427772E+03 -0.89442194373E+03 -0.17969124970E+03  0.96566376823E+03  0.25000000000E+03 0.  0.
    5000001    1    1    2    0    0 -0.19423427772E+03  0.89442194373E+03  0.38614746503E+03  0.10243668448E+04  0.25000000000E+03 0.  0.
<mgrwt>
<rscale>  0 0.19792922E+04</rscale>
<asrwt>0</asrwt>
<pdfrwt beam="1">  1        2 0.13719803E+00 0.19792922E+04</pdfrwt>
<pdfrwt beam="2">  1       -2 0.16896052E+00 0.19792922E+04</pdfrwt>
<totfact> 0.59904149E+00</totfact>
</mgrwt>
</event>
<event>
 4    1  0.1714834E-005  0.8241385E+03  0.7818608E-02  0.9525720E-01
         -2   -1    0    0    0  501 -0.00000000000E+00  0.00000000000E+00  0.57627442622E+03  0.57627442623E+03  0.25500000000E-02 0. -1.
          2   -1    0    0  501    0  0.00000000000E+00 -0.00000000000E+00 -0.29465310103E+03  0.29465310104E+03  0.25500000000E-02 0.  1.
   -5000001    1    1    2    0    0  0.21406715997E+03 -0.87388471664E+02 -0.10439616696E+03  0.35617419002E+03  0.25000000000E+03 0.  0.
    5000001    1    1    2    0    0 -0.21406715997E+03  0.87388471664E+02  0.38601749216E+03  0.51475333725E+03  0.25000000000E+03 0.  0.
<mgrwt>
<rscale>  0 0.82413845E+03</rscale>
<asrwt>0</asrwt>
<pdfrwt beam="1">  1        2 0.45331247E-01 0.82413845E+03</pdfrwt>
<pdfrwt beam="2">  1       -2 0.88657603E-01 0.82413845E+03</pdfrwt>
<totfact> 0.12336605E+02</totfact>
</mgrwt>
</event>
<event>
 4    1  0.1714834E-005  0.8208825E+03  0.7818608E-02  0.9530273E-01
         -2   -1    0    0    0  501 -0.00000000000E+00  0.00000000000E+00  0.57458305126E+02  0.57458305182E+02  0.25500000000E-02 0.  1.
          2   -1    0    0  501    0  0.00000000000E+00 -0.00000000000E+00 -0.29318999245E+04  0.29318999245E+04  0.25500000000E-02 0. -1.
   -5000001    1    1    2    0    0  0.12169621643E+03 -0.64644000615E+02 -0.25111846906E+04  0.25273577836E+04  0.25000000000E+03 0.  0.
    5000001    1    1    2    0    0 -0.12169621643E+03  0.64644000615E+02 -0.36325692882E+03  0.46200044615E+03  0.25000000000E+03 0.  0.
<mgrwt>
<rscale>  0 0.82088245E+03</rscale>
<asrwt>0</asrwt>
<pdfrwt beam="1">  1        2 0.45106141E+00 0.82088245E+03</pdfrwt>
<pdfrwt beam="2">  1       -2 0.88397416E-02 0.82088245E+03</pdfrwt>
<totfact> 0.16809633E+02</totfact>
</mgrwt>
</event>
<event>
 4    1  0.1714834E-005  0.6698569E+03  0.7818608E-02  0.9770216E-01
          2   -1    0    0  501    0  0.00000000000E+00  0.00000000000E+00  0.11765362043E+04  0.11765362043E+04  0.25500000000E-02 0.  1.
         -2   -1    0    0    0  501 -0.00000000000E+00 -0.00000000000E+00 -0.95345200946E+02  0.95345200980E+02  0.25500000000E-02 0. -1.
   -5000001    1    1    2    0    0  0.17747834307E+03  0.13314524647E+03  0.58091232776E+03  0.67021291502E+03  0.25000000000E+03 0.  0.
    5000001    1    1    2    0    0 -0.17747834307E+03 -0.13314524647E+03  0.50027867557E+03  0.60166849024E+03  0.25000000000E+03 0.  0.
<mgrwt>
<rscale>  0 0.66985694E+03</rscale>
<asrwt>0</asrwt>
<pdfrwt beam="1">  1        2 0.18100556E+00 0.66985694E+03</pdfrwt>
<pdfrwt beam="2">  1       -2 0.14668493E-01 0.66985694E+03</pdfrwt>
<totfact> 0.71896262E+02</totfact>
</mgrwt>
</event>
<event>
 4    1  0.1714834E-005  0.6212290E+03  0.7818608E-02  0.9862316E-01
          2   -1    0    0  501    0  0.00000000000E+00  0.00000000000E+00  0.50739334114E+03  0.50739334115E+03  0.25500000000E-02 0.  1.
         -2   -1    0    0    0  501 -0.00000000000E+00 -0.00000000000E+00 -0.19015100452E+03  0.19015100454E+03  0.25500000000E-02 0. -1.
   -5000001    1    1    2    0    0  0.17218478762E+03 -0.23469782746E+02  0.89560017546E+02  0.31736324383E+03  0.25000000000E+03 0.  0.
    5000001    1    1    2    0    0 -0.17218478762E+03  0.23469782746E+02  0.22768231907E+03  0.38018110186E+03  0.25000000000E+03 0.  0.
<mgrwt>
<rscale>  0 0.62122895E+03</rscale>
<asrwt>0</asrwt>
<pdfrwt beam="1">  1        2 0.78060513E-01 0.62122895E+03</pdfrwt>
<pdfrwt beam="2">  1       -2 0.29254001E-01 0.62122895E+03</pdfrwt>
<totfact> 0.65416383E+02</totfact>
</mgrwt>
</event>
<event>
 4    1  0.1714834E-005  0.6748211E+03  0.7818608E-02  0.9761287E-01
          2   -1    0    0  501    0  0.00000000000E+00  0.00000000000E+00  0.84439141125E+03  0.84439141126E+03  0.25500000000E-02 0.  1.
         -2   -1    0    0    0  501 -0.00000000000E+00 -0.00000000000E+00 -0.13482594968E+03  0.13482594970E+03  0.25500000000E-02 0. -1.
   -5000001    1    1    2    0    0  0.19808743421E+03 -0.52635060491E+02  0.49499606629E+03  0.59121078037E+03  0.25000000000E+03 0.  0.
    5000001    1    1    2    0    0 -0.19808743421E+03  0.52635060491E+02  0.21456939529E+03  0.38800658059E+03  0.25000000000E+03 0.  0.
<mgrwt>
<rscale>  0 0.67482108E+03</rscale>
<asrwt>0</asrwt>
<pdfrwt beam="1">  1        2 0.12990637E+00 0.67482108E+03</pdfrwt>
<pdfrwt beam="2">  1       -2 0.20742453E-01 0.67482108E+03</pdfrwt>
<totfact> 0.64491213E+02</totfact>
</mgrwt>
</event>
<event>
 4    1  0.1714834E-005  0.8932147E+03  0.7818608E-02  0.9434103E-01
         -2   -1    0    0    0  501 -0.00000000000E+00  0.00000000000E+00  0.46169687454E+03  0.46169687454E+03  0.25500000000E-02 0. -1.
          2   -1    0    0  501    0  0.00000000000E+00 -0.00000000000E+00 -0.43201096205E+03  0.43201096206E+03  0.25500000000E-02 0.  1.
   -5000001    1    1    2    0    0 -0.34509328365E+03  0.11965897807E+02 -0.11836790196E+03  0.44242910997E+03  0.25000000000E+03 0.  0.
    5000001    1    1    2    0    0  0.34509328365E+03 -0.11965897807E+02  0.14805381445E+03  0.45127872663E+03  0.25000000000E+03 0.  0.
<mgrwt>
<rscale>  0 0.89321467E+03</rscale>
<asrwt>0</asrwt>
<pdfrwt beam="1">  1        2 0.66463225E-01 0.89321467E+03</pdfrwt>
<pdfrwt beam="2">  1       -2 0.71030288E-01 0.89321467E+03</pdfrwt>
<totfact> 0.13175725E+02</totfact>
</mgrwt>
</event>
<event>
 4    1  0.1714834E-005  0.9257652E+03  0.7818608E-02  0.9393935E-01
          2   -1    0    0  501    0  0.00000000000E+00  0.00000000000E+00  0.14306834387E+04  0.14306834387E+04  0.25500000000E-02 0.  1.
         -2   -1    0    0    0  501 -0.00000000000E+00 -0.00000000000E+00 -0.14976080027E+03  0.14976080029E+03  0.25500000000E-02 0. -1.
   -5000001    1    1    2    0    0 -0.10064106733E+03 -0.37564243706E+03  0.60136617427E+03  0.75853618273E+03  0.25000000000E+03 0.  0.
    5000001    1    1    2    0    0  0.10064106733E+03  0.37564243706E+03  0.67955646418E+03  0.82190805627E+03  0.25000000000E+03 0.  0.
<mgrwt>
<rscale>  0 0.92576519E+03</rscale>
<asrwt>0</asrwt>
<pdfrwt beam="1">  1        2 0.22010516E+00 0.92576519E+03</pdfrwt>
<pdfrwt beam="2">  1       -2 0.23040122E-01 0.92576519E+03</pdfrwt>
<totfact> 0.23123711E+02</totfact>
</mgrwt>
</event>
