<event>
 8    1  0.2402290E-028  0.1648314E+04  0.7818608E-02  0.8791404E-01
         -1   -1    0    0    0  501 -0.00000000000E+00  0.00000000000E+00  0.49612591053E+03  0.49612591055E+03  0.50400000000E-02 0. -1.
          1   -1    0    0  501    0  0.00000000000E+00 -0.00000000000E+00 -0.13690776473E+04  0.13690776474E+04  0.50400000000E-02 0.  1.
     200001    2    1    2    0    0 -0.36468936175E+02 -0.12720793245E+03 -0.90546732541E+03  0.11520632457E+04  0.69990485306E+03 0.  0.
    5000001    2    3    3    0    0 -0.47485438296E+02  0.11861056951E+02 -0.30501089685E+03  0.35833188704E+03  0.18158893841E+03 0.  0.
        -13    1    4    4    0    0 -0.19802327277E+02 -0.13945609667E+02 -0.30893078658E+03  0.30987877349E+03  0.10566000000E+00 0. -1.
     200003    1    4    4    0    0 -0.27683111019E+02  0.25806666617E+02  0.39198897346E+01  0.48453113554E+02  0.30000000000E+02 0. -1.
     200000    1    3    3    0    0  0.11016502121E+02 -0.13906898940E+03 -0.60045642856E+03  0.79373135867E+03  0.50000000000E+03 0.  1.
    -200001    1    1    2    0    0  0.36468936175E+02  0.12720793245E+03  0.32515588595E+02  0.71314031220E+03  0.70000000000E+03 0. -1.
<mgrwt>
<rscale>  0 0.16483142E+04</rscale>
<asrwt>0</asrwt>
<pdfrwt beam="1">  1        1 0.19558252E+00 0.16483142E+04</pdfrwt>
<pdfrwt beam="2">  1       -1 0.70875131E-01 0.16483142E+04</pdfrwt>
<totfact> 0.18282679E+01</totfact>
</mgrwt>
</event>
<event>
 8    1  0.2402290E-028  0.1636557E+04  0.7818608E-02  0.8798399E-01
          1   -1    0    0  501    0  0.00000000000E+00  0.00000000000E+00  0.18854127311E+04  0.18854127311E+04  0.50400000000E-02 0. -1.
         -1   -1    0    0    0  501 -0.00000000000E+00 -0.00000000000E+00 -0.35513680526E+03  0.35513680530E+03  0.50400000000E-02 0.  1.
     200001    2    1    2    0    0  0.10611685448E+03 -0.40520575301E+03  0.69847834734E+03  0.10755003097E+04  0.70240759203E+03 0.  0.
    5000001    2    3    3    0    0 -0.46778501875E+02 -0.84142180039E+02  0.30561016987E+03  0.34693719453E+03  0.13304024325E+03 0.  0.
        -13    1    4    4    0    0 -0.74271515242E+02 -0.17232045270E+02  0.20961337074E+03  0.22304927195E+03  0.10566000000E+00 0. -1.
     200003    1    4    4    0    0  0.27493013367E+02 -0.66910134769E+02  0.95996799136E+02  0.12388792259E+03  0.30000000000E+02 0. -1.
     200000    1    3    3    0    0  0.15289535636E+03 -0.32106357297E+03  0.39286817747E+03  0.72856311515E+03  0.50000000000E+03 0.  1.
    -200001    1    1    2    0    0 -0.10611685448E+03  0.40520575301E+03  0.83179757850E+03  0.11650492267E+04  0.70000000000E+03 0. -1.
<mgrwt>
<rscale>  0 0.16365567E+04</rscale>
<asrwt>0</asrwt>
<pdfrwt beam="1">  1        1 0.26934467E+00 0.16365567E+04</pdfrwt>
<pdfrwt beam="2">  1       -1 0.50733831E-01 0.16365567E+04</pdfrwt>
<totfact> 0.16472389E+01</totfact>
</mgrwt>
</event>
<event>
 8    1  0.2674395E-028  0.2016775E+04  0.7818608E-02  0.8598818E-01
          1   -1    0    0  501    0  0.00000000000E+00  0.00000000000E+00  0.16128625170E+04  0.16128625170E+04  0.50400000000E-02 0.  1.
         -1   -1    0    0    0  501 -0.00000000000E+00 -0.00000000000E+00 -0.63045991853E+03  0.63045991855E+03  0.50400000000E-02 0. -1.
     200001    2    1    2    0    0 -0.10389006750E+03  0.14654786070E+03 -0.28821363245E+03  0.78156492220E+03  0.70392272877E+03 0.  0.
    5000001    2    3    3    0    0  0.44094019786E+02  0.21762122839E+02 -0.19827271875E+02  0.18198005831E+03  0.17408546275E+03 0.  0.
        -13    1    4    4    0    0  0.59630413890E+02 -0.64091779211E+02  0.32740872025E+00  0.87542337093E+02  0.10566000000E+00 0. -1.
     200003    1    4    4    0    0 -0.15536394104E+02  0.85853902050E+02 -0.20154680595E+02  0.94437721218E+02  0.30000000000E+02 0. -1.
     200000    1    3    3    0    0 -0.14798408729E+03  0.12478573786E+03 -0.26838636057E+03  0.59958486389E+03  0.50000000000E+03 0. -1.
    -200001    1    1    2    0    0  0.10389006750E+03 -0.14654786070E+03  0.12706162309E+04  0.14617575133E+04  0.70000000000E+03 0.  1.
<mgrwt>
<rscale>  0 0.20167748E+04</rscale>
<asrwt>0</asrwt>
<pdfrwt beam="1">  1        1 0.23040893E+00 0.20167748E+04</pdfrwt>
<pdfrwt beam="2">  1       -1 0.90065702E-01 0.20167748E+04</pdfrwt>
<totfact> 0.73662343E+00</totfact>
</mgrwt>
</event>
<event>
 8    1  0.2402290E-028  0.2082845E+04  0.7818608E-02  0.8568838E-01
          1   -1    0    0  501    0  0.00000000000E+00  0.00000000000E+00  0.11123669628E+04  0.11123669628E+04  0.50400000000E-02 0.  1.
         -1   -1    0    0    0  501 -0.00000000000E+00 -0.00000000000E+00 -0.97500263878E+03  0.97500263879E+03  0.50400000000E-02 0. -1.
     200001    2    1    2    0    0  0.29075809771E+03  0.76171025099E+02 -0.64323200132E+03  0.99664831750E+03  0.69944132335E+03 0.  0.
    5000001    2    3    3    0    0 -0.28843296217E+02 -0.42371424413E+02 -0.73570199616E+02  0.16555750919E+03  0.13917413997E+03 0.  0.
        -13    1    4    4    0    0  0.26096392764E+02 -0.71869628889E+02 -0.54121884312E+02  0.93677397474E+02  0.10566000000E+00 0. -1.
     200003    1    4    4    0    0 -0.54939688981E+02  0.29498204476E+02 -0.19448315304E+02  0.71880111720E+02  0.30000000000E+02 0. -1.
     200000    1    3    3    0    0  0.31960139393E+03  0.11854244951E+03 -0.56966180170E+03  0.83109080831E+03  0.50000000000E+03 0. -1.
    -200001    1    1    2    0    0 -0.29075809771E+03 -0.76171025099E+02  0.78059632535E+03  0.10907212841E+04  0.70000000000E+03 0.  1.
<mgrwt>
<rscale>  0 0.20828449E+04</rscale>
<asrwt>0</asrwt>
<pdfrwt beam="1">  1        1 0.15890957E+00 0.20828449E+04</pdfrwt>
<pdfrwt beam="2">  1       -1 0.13928609E+00 0.20828449E+04</pdfrwt>
<totfact> 0.56093055E+00</totfact>
</mgrwt>
</event>
<event>
 8    1  0.2402290E-028  0.2504166E+04  0.7818608E-02  0.8401503E-01
         -1   -1    0    0    0  501 -0.00000000000E+00  0.00000000000E+00  0.11536522572E+04  0.11536522573E+04  0.50400000000E-02 0. -1.
          1   -1    0    0  501    0  0.00000000000E+00 -0.00000000000E+00 -0.13589120136E+04  0.13589120136E+04  0.50400000000E-02 0.  1.
     200001    2    1    2    0    0 -0.75936145833E+02  0.91513548502E+03 -0.58843370421E+03  0.12959864770E+04  0.70006247592E+03 0.  0.
    5000001    2    3    3    0    0 -0.22039503297E+02  0.40697382617E+03 -0.30244158291E+03  0.52597049469E+03  0.13806018731E+03 0.  0.
        -13    1    4    4    0    0  0.55696633557E+02  0.15984449245E+03 -0.11031759535E+03  0.20204543985E+03  0.10566000000E+00 0. -1.
     200003    1    4    4    0    0 -0.77736136854E+02  0.24712933372E+03 -0.19212398755E+03  0.32392505484E+03  0.30000000000E+02 0. -1.
     200000    1    3    3    0    0 -0.53896642536E+02  0.50816165885E+03 -0.28599212131E+03  0.77001598233E+03  0.50000000000E+03 0.  1.
    -200001    1    1    2    0    0  0.75936145833E+02 -0.91513548502E+03  0.38317394785E+03  0.12165777939E+04  0.70000000000E+03 0. -1.
<mgrwt>
<rscale>  0 0.25041661E+04</rscale>
<asrwt>0</asrwt>
<pdfrwt beam="1">  1        1 0.19413029E+00 0.25041661E+04</pdfrwt>
<pdfrwt beam="2">  1       -1 0.16480747E+00 0.25041661E+04</pdfrwt>
<totfact> 0.23154508E+00</totfact>
</mgrwt>
</event>
<event>
 8    1  0.2402290E-028  0.1403389E+04  0.7818608E-02  0.8951369E-01
         -1   -1    0    0    0  501 -0.00000000000E+00  0.00000000000E+00  0.34133901087E+03  0.34133901090E+03  0.50400000000E-02 0. -1.
          1   -1    0    0  501    0  0.00000000000E+00 -0.00000000000E+00 -0.14424806830E+04  0.14424806830E+04  0.50400000000E-02 0.  1.
     200001    2    1    2    0    0  0.16336148369E+02 -0.24964633675E+02 -0.48408981512E+03  0.85020141166E+03  0.69829033261E+03 0.  0.
    5000001    2    3    3    0    0  0.39752236502E+01 -0.13171618587E+03 -0.13814227520E+03  0.23276446206E+03  0.13315799104E+03 0.  0.
        -13    1    4    4    0    0  0.59376462636E+02 -0.27958356580E+02 -0.42037797606E+02  0.77938575875E+02  0.10566000000E+00 0. -1.
     200003    1    4    4    0    0 -0.55401238985E+02 -0.10375782929E+03 -0.96104477594E+02  0.15482588619E+03  0.30000000000E+02 0. -1.
     200000    1    3    3    0    0  0.12360924718E+02  0.10675155219E+03 -0.34594753992E+03  0.61743694960E+03  0.50000000000E+03 0.  1.
    -200001    1    1    2    0    0 -0.16336148369E+02  0.24964633675E+02 -0.61705185697E+03  0.93361828221E+03  0.70000000000E+03 0.  1.
<mgrwt>
<rscale>  0 0.14033887E+04</rscale>
<asrwt>0</asrwt>
<pdfrwt beam="1">  1        1 0.20606867E+00 0.14033887E+04</pdfrwt>
<pdfrwt beam="2">  1       -1 0.48762716E-01 0.14033887E+04</pdfrwt>
<totfact> 0.34838441E+01</totfact>
</mgrwt>
</event>
<event>
 8    1  0.2402290E-028  0.1514301E+04  0.7818608E-02  0.8874998E-01
         -1   -1    0    0    0  501 -0.00000000000E+00  0.00000000000E+00  0.64604713438E+03  0.64604713440E+03  0.50400000000E-02 0. -1.
          1   -1    0    0  501    0  0.00000000000E+00 -0.00000000000E+00 -0.88736127184E+03  0.88736127185E+03  0.50400000000E-02 0.  1.
     200001    2    1    2    0    0  0.51815152103E+02  0.28710537214E+01  0.16649599831E+03  0.72161892629E+03  0.70022846586E+03 0.  0.
    5000001    2    3    3    0    0  0.83150442034E+01  0.35660904944E+02  0.59913621458E+02  0.20749127990E+03  0.19524894135E+03 0.  0.
        -13    1    4    4    0    0 -0.85843410590E+02  0.43153412824E+02  0.48805314699E+02  0.10776492048E+03  0.10566000000E+00 0. -1.
     200003    1    4    4    0    0  0.94158454793E+02 -0.74925078807E+01  0.11108306759E+02  0.99726359416E+02  0.30000000000E+02 0. -1.
     200000    1    3    3    0    0  0.43500107900E+02 -0.32789851222E+02  0.10658237685E+03  0.51412764639E+03  0.50000000000E+03 0. -1.
    -200001    1    1    2    0    0 -0.51815152103E+02 -0.28710537214E+01 -0.40781013577E+03  0.81178947996E+03  0.70000000000E+03 0.  1.
<mgrwt>
<rscale>  0 0.15143014E+04</rscale>
<asrwt>0</asrwt>
<pdfrwt beam="1">  1        1 0.12676590E+00 0.15143014E+04</pdfrwt>
<pdfrwt beam="2">  1       -1 0.92292448E-01 0.15143014E+04</pdfrwt>
<totfact> 0.23333799E+01</totfact>
</mgrwt>
</event>
<event>
 8    1  0.2402290E-028  0.1814925E+04  0.7818608E-02  0.8698402E-01
         -1   -1    0    0    0  501 -0.00000000000E+00  0.00000000000E+00  0.49148546007E+03  0.49148546010E+03  0.50400000000E-02 0. -1.
          1   -1    0    0  501    0  0.00000000000E+00 -0.00000000000E+00 -0.16755090230E+04  0.16755090230E+04  0.50400000000E-02 0.  1.
     200001    2    1    2    0    0 -0.12033764855E+02  0.56833438791E+03 -0.47894329021E+03  0.10223168084E+04  0.70185197409E+03 0.  0.
    5000001    2    3    3    0    0  0.49392524619E+02  0.25310455416E+03 -0.11543867247E+03  0.32569736837E+03  0.16202207206E+03 0.  0.
        -13    1    4    4    0    0  0.72455805192E+02  0.54512367990E+02 -0.79030388392E+02  0.12027990449E+03  0.10566000000E+00 0. -1.
     200003    1    4    4    0    0 -0.23063280572E+02  0.19859218617E+03 -0.36408284082E+02  0.20541746388E+03  0.30000000000E+02 0. -1.
     200000    1    3    3    0    0 -0.61426289475E+02  0.31522983375E+03 -0.36350461773E+03  0.69661944004E+03  0.50000000000E+03 0. -1.
    -200001    1    1    2    0    0  0.12033764855E+02 -0.56833438791E+03 -0.70508027274E+03  0.11446776747E+04  0.70000000000E+03 0.  1.
<mgrwt>
<rscale>  0 0.18149251E+04</rscale>
<asrwt>0</asrwt>
<pdfrwt beam="1">  1        1 0.23935843E+00 0.18149251E+04</pdfrwt>
<pdfrwt beam="2">  1       -1 0.70212210E-01 0.18149251E+04</pdfrwt>
<totfact> 0.11602057E+01</totfact>
</mgrwt>
</event>
<event>
 8    1  0.2402290E-028  0.1669087E+04  0.7818608E-02  0.8779194E-01
          1   -1    0    0  501    0  0.00000000000E+00  0.00000000000E+00  0.13608858357E+04  0.13608858357E+04  0.50400000000E-02 0. -1.
         -1   -1    0    0    0  501 -0.00000000000E+00 -0.00000000000E+00 -0.51177153795E+03  0.51177153798E+03  0.50400000000E-02 0.  1.
     200001    2    1    2    0    0 -0.20340702173E+03  0.40495535741E+03  0.40580007403E+03  0.92825769192E+03  0.70116002776E+03 0.  0.
    5000001    2    3    3    0    0 -0.18722372792E+02  0.40779656480E+02  0.15412456544E+03  0.23538474373E+03  0.17215716158E+03 0.  0.
        -13    1    4    4    0    0 -0.91933381791E+02  0.29237652829E+02  0.99247633296E+02  0.13840769816E+03  0.10566000000E+00 0. -1.
     200003    1    4    4    0    0  0.73211008998E+02  0.11542003651E+02  0.54876932142E+02  0.96977045574E+02  0.30000000000E+02 0. -1.
     200000    1    3    3    0    0 -0.18468464894E+03  0.36417570093E+03  0.25167550860E+03  0.69287294819E+03  0.50000000000E+03 0. -1.
    -200001    1    1    2    0    0  0.20340702173E+03 -0.40495535741E+03  0.44331422372E+03  0.94439968177E+03  0.70000000000E+03 0.  1.
<mgrwt>
<rscale>  0 0.16690867E+04</rscale>
<asrwt>0</asrwt>
<pdfrwt beam="1">  1        1 0.19441226E+00 0.16690867E+04</pdfrwt>
<pdfrwt beam="2">  1       -1 0.73110221E-01 0.16690867E+04</pdfrwt>
<totfact> 0.17333284E+01</totfact>
</mgrwt>
</event>
<event>
 8    1  0.2402290E-028  0.1630046E+04  0.7818608E-02  0.8802299E-01
         -1   -1    0    0    0  501 -0.00000000000E+00  0.00000000000E+00  0.82434484286E+03  0.82434484288E+03  0.50400000000E-02 0. -1.
          1   -1    0    0  501    0  0.00000000000E+00 -0.00000000000E+00 -0.80580651122E+03  0.80580651124E+03  0.50400000000E-02 0.  1.
     200001    2    1    2    0    0  0.41390829503E+03 -0.46824485230E+02  0.12710699977E+02  0.81556767493E+03  0.70105382203E+03 0.  0.
    5000001    2    3    3    0    0  0.10913057122E+03  0.22127657661E+02  0.16028956890E+02  0.22594502461E+03  0.19594670673E+03 0.  0.
        -13    1    4    4    0    0  0.66285268141E+02 -0.78770470063E+02  0.38834443316E+02  0.11003021802E+03  0.10566000000E+00 0. -1.
     200003    1    4    4    0    0  0.42845303078E+02  0.10089812772E+03 -0.22805486426E+02  0.11591480658E+03  0.30000000000E+02 0. -1.
     200000    1    3    3    0    0  0.30477772381E+03 -0.68952142892E+02 -0.33182569132E+01  0.58962265032E+03  0.50000000000E+03 0.  1.
    -200001    1    1    2    0    0 -0.41390829503E+03  0.46824485230E+02  0.58276316666E+01  0.81458367919E+03  0.70000000000E+03 0.  1.
<mgrwt>
<rscale>  0 0.16300459E+04</rscale>
<asrwt>0</asrwt>
<pdfrwt beam="1">  1        1 0.11511522E+00 0.16300459E+04</pdfrwt>
<pdfrwt beam="2">  1       -1 0.11776355E+00 0.16300459E+04</pdfrwt>
<totfact> 0.15303342E+01</totfact>
</mgrwt>
</event>
<event>
 8    1  0.2402290E-028  0.1505850E+04  0.7818608E-02  0.8880572E-01
         -1   -1    0    0    0  501 -0.00000000000E+00  0.00000000000E+00  0.73115169112E+03  0.73115169113E+03  0.50400000000E-02 0. -1.
          1   -1    0    0  501    0  0.00000000000E+00 -0.00000000000E+00 -0.77534696832E+03  0.77534696834E+03  0.50400000000E-02 0.  1.
     200001    2    1    2    0    0  0.21425798438E+03 -0.13508432884E+03  0.84745073201E+02  0.75099890849E+03  0.70189983143E+03 0.  0.
    5000001    2    3    3    0    0 -0.14557026105E+02 -0.78083638207E-01 -0.51637673024E+02  0.16860449855E+03  0.15984090387E+03 0.  0.
        -13    1    4    4    0    0 -0.19736312203E+02 -0.33287693687E+02  0.46573326791E+02  0.60553104815E+02  0.10566000000E+00 0. -1.
     200003    1    4    4    0    0  0.51792860976E+01  0.33209610049E+02 -0.98210999814E+02  0.10805139374E+03  0.30000000000E+02 0. -1.
     200000    1    3    3    0    0  0.22881501048E+03 -0.13500624520E+03  0.13638274622E+03  0.58239440994E+03  0.50000000000E+03 0. -1.
    -200001    1    1    2    0    0 -0.21425798438E+03  0.13508432884E+03 -0.12894035041E+03  0.75549975098E+03  0.70000000000E+03 0.  1.
<mgrwt>
<rscale>  0 0.15058503E+04</rscale>
<asrwt>0</asrwt>
<pdfrwt beam="1">  1        1 0.11076385E+00 0.15058503E+04</pdfrwt>
<pdfrwt beam="2">  1       -1 0.10445024E+00 0.15058503E+04</pdfrwt>
<totfact> 0.21811320E+01</totfact>
</mgrwt>
</event>
<event>
 8    1  0.2402290E-028  0.1505678E+04  0.7818608E-02  0.8880686E-01
          1   -1    0    0  501    0  0.00000000000E+00  0.00000000000E+00  0.17463406297E+04  0.17463406297E+04  0.50400000000E-02 0.  1.
         -1   -1    0    0    0  501 -0.00000000000E+00 -0.00000000000E+00 -0.32454527842E+03  0.32454527846E+03  0.50400000000E-02 0. -1.
     200001    2    1    2    0    0  0.72138134948E+02  0.15765222805E+03  0.41304973632E+03  0.83087548433E+03  0.69977557135E+03 0.  0.
    5000001    2    3    3    0    0  0.11470627388E+03 -0.99845362736E+01  0.61893048948E+02  0.19587536599E+03  0.14587388135E+03 0.  0.
        -13    1    4    4    0    0  0.85055554357E+02 -0.14626409365E+02 -0.32628009827E+02  0.92265797386E+02  0.10566000000E+00 0. -1.
     200003    1    4    4    0    0  0.29650719524E+02  0.46418730911E+01  0.94521058775E+02  0.10360956860E+03  0.30000000000E+02 0. -1.
     200000    1    3    3    0    0 -0.42568138933E+02  0.16763676432E+03  0.35115668737E+03  0.63500011834E+03  0.50000000000E+03 0. -1.
    -200001    1    1    2    0    0 -0.72138134948E+02 -0.15765222805E+03  0.10087456150E+04  0.12400104238E+04  0.70000000000E+03 0.  1.
<mgrwt>
<rscale>  0 0.15056781E+04</rscale>
<asrwt>0</asrwt>
<pdfrwt beam="1">  1        1 0.24947723E+00 0.15056781E+04</pdfrwt>
<pdfrwt beam="2">  1       -1 0.46363611E-01 0.15056781E+04</pdfrwt>
<totfact> 0.24185874E+01</totfact>
</mgrwt>
</event>
<event>
 8    1  0.2402290E-028  0.1801859E+04  0.7818608E-02  0.8705312E-01
         -1   -1    0    0    0  501 -0.00000000000E+00  0.00000000000E+00  0.67113907002E+03  0.67113907004E+03  0.50400000000E-02 0. -1.
          1   -1    0    0  501    0  0.00000000000E+00 -0.00000000000E+00 -0.12093971915E+04  0.12093971915E+04  0.50400000000E-02 0.  1.
     200001    2    1    2    0    0 -0.49736036014E+03 -0.25342494262E+03 -0.38661300290E+03  0.97246810805E+03  0.69615592922E+03 0.  0.
    5000001    2    3    3    0    0 -0.76982590101E+02 -0.18964083068E+03 -0.65796452597E+02  0.24191411181E+03  0.11092024377E+03 0.  0.
        -13    1    4    4    0    0 -0.80241600028E+02 -0.13022772818E+03 -0.81685699556E+02  0.17340859332E+03  0.10566000000E+00 0. -1.
     200003    1    4    4    0    0  0.32590099270E+01 -0.59413102500E+02  0.15889246958E+02  0.68505518487E+02  0.30000000000E+02 0.  1.
     200000    1    3    3    0    0 -0.42037777004E+03 -0.63784111940E+02 -0.32081655030E+03  0.73055399624E+03  0.50000000000E+03 0.  1.
    -200001    1    1    2    0    0  0.49736036014E+03  0.25342494262E+03 -0.15164511856E+03  0.90806815348E+03  0.70000000000E+03 0. -1.
<mgrwt>
<rscale>  0 0.18018587E+04</rscale>
<asrwt>0</asrwt>
<pdfrwt beam="1">  1        1 0.17277103E+00 0.18018587E+04</pdfrwt>
<pdfrwt beam="2">  1       -1 0.95877011E-01 0.18018587E+04</pdfrwt>
<totfact> 0.12102483E+01</totfact>
</mgrwt>
</event>
<event>
 8    1  0.2402290E-028  0.2209281E+04  0.7818608E-02  0.8514575E-01
         -1   -1    0    0    0  501 -0.00000000000E+00  0.00000000000E+00  0.10024132435E+04  0.10024132435E+04  0.50400000000E-02 0. -1.
          1   -1    0    0  501    0  0.00000000000E+00 -0.00000000000E+00 -0.12172935166E+04  0.12172935166E+04  0.50400000000E-02 0.  1.
     200001    2    1    2    0    0 -0.40067355814E+03  0.74693350386E+03  0.13803388615E+01  0.10993418143E+04  0.70007253910E+03 0.  0.
    5000001    2    3    3    0    0 -0.42701734823E+02  0.16145471389E+03 -0.10079551879E+03  0.24414058322E+03  0.14681220988E+03 0.  0.
        -13    1    4    4    0    0 -0.25179665017E+02  0.55281250989E+02 -0.11644435818E+03  0.13133671214E+03  0.10566000000E+00 0. -1.
     200003    1    4    4    0    0 -0.17522069806E+02  0.10617346290E+03  0.15648839387E+02  0.11280387107E+03  0.30000000000E+02 0. -1.
     200000    1    3    3    0    0 -0.35797182332E+03  0.58547878997E+03  0.10217585765E+03  0.85520123110E+03  0.50000000000E+03 0. -1.
    -200001    1    1    2    0    0  0.40067355814E+03 -0.74693350386E+03 -0.21626061195E+03  0.11203649457E+04  0.70000000000E+03 0. -1.
<mgrwt>
<rscale>  0 0.22092815E+04</rscale>
<asrwt>0</asrwt>
<pdfrwt beam="1">  1        1 0.17389907E+00 0.22092815E+04</pdfrwt>
<pdfrwt beam="2">  1       -1 0.14320189E+00 0.22092815E+04</pdfrwt>
<totfact> 0.43521328E+00</totfact>
</mgrwt>
</event>
<event>
 8    1  0.2402290E-028  0.2338845E+04  0.7818608E-02  0.8462761E-01
          1   -1    0    0  501    0  0.00000000000E+00  0.00000000000E+00  0.28804197903E+04  0.28804197903E+04  0.50400000000E-02 0.  1.
         -1   -1    0    0    0  501 -0.00000000000E+00 -0.00000000000E+00 -0.47477404687E+03  0.47477404689E+03  0.50400000000E-02 0. -1.
     200001    2    1    2    0    0 -0.74300148185E+03 -0.27426145548E+03  0.48411973171E+03  0.11621291410E+04  0.69921504398E+03 0.  0.
    5000001    2    3    3    0    0 -0.13032927281E+03 -0.60153171040E+02  0.79185924701E+02  0.24824677370E+03  0.18641868641E+03 0.  0.
        -13    1    4    4    0    0 -0.92465247529E+02  0.50523835590E+02  0.71308476670E+02  0.12722967410E+03  0.10566000000E+00 0. -1.
     200003    1    4    4    0    0 -0.37864025278E+02 -0.11067700663E+03  0.78774480313E+01  0.12101709959E+03  0.30000000000E+02 0. -1.
     200000    1    3    3    0    0 -0.61267220904E+03 -0.21410828443E+03  0.40493380701E+03  0.91388236730E+03  0.50000000000E+03 0. -1.
    -200001    1    1    2    0    0  0.74300148185E+03  0.27426145548E+03  0.19215260117E+04  0.21930646962E+04  0.70000000000E+03 0.  1.
<mgrwt>
<rscale>  0 0.23388446E+04</rscale>
<asrwt>0</asrwt>
<pdfrwt beam="1">  1        1 0.41148854E+00 0.23388446E+04</pdfrwt>
<pdfrwt beam="2">  1       -1 0.67824865E-01 0.23388446E+04</pdfrwt>
<totfact> 0.20368057E+00</totfact>
</mgrwt>
</event>
<event>
 8    1  0.2402290E-028  0.2066074E+04  0.7818608E-02  0.8576337E-01
          1   -1    0    0  501    0  0.00000000000E+00  0.00000000000E+00  0.66273661238E+03  0.66273661240E+03  0.50400000000E-02 0.  1.
         -1   -1    0    0    0  501 -0.00000000000E+00 -0.00000000000E+00 -0.16102402023E+04  0.16102402023E+04  0.50400000000E-02 0. -1.
     200001    2    1    2    0    0  0.58044912657E+03  0.47957868513E+03 -0.35604783024E+03  0.10869174488E+04  0.69835705723E+03 0.  0.
    5000001    2    3    3    0    0  0.13847928787E+02  0.11874855330E+03 -0.60497094254E+02  0.19889406011E+03  0.14698967546E+03 0.  0.
        -13    1    4    4    0    0  0.55280876460E+02  0.22558088044E+02 -0.67013143977E+02  0.89753079435E+02  0.10566000000E+00 0. -1.
     200003    1    4    4    0    0 -0.41432947673E+02  0.96190465255E+02  0.65160497226E+01  0.10914098068E+03  0.30000000000E+02 0. -1.
     200000    1    3    3    0    0  0.56660119778E+03  0.36083013184E+03 -0.29555073598E+03  0.88802338872E+03  0.50000000000E+03 0.  1.
    -200001    1    1    2    0    0 -0.58044912657E+03 -0.47957868513E+03 -0.59145575970E+03  0.11860593659E+04  0.70000000000E+03 0. -1.
<mgrwt>
<rscale>  0 0.20660737E+04</rscale>
<asrwt>0</asrwt>
<pdfrwt beam="1">  1        1 0.94676659E-01 0.20660737E+04</pdfrwt>
<pdfrwt beam="2">  1       -1 0.23003431E+00 0.20660737E+04</pdfrwt>
<totfact> 0.28847593E+00</totfact>
</mgrwt>
</event>
<event>
 8    1  0.2402290E-028  0.1684081E+04  0.7818608E-02  0.8770496E-01
         -1   -1    0    0    0  501 -0.00000000000E+00  0.00000000000E+00  0.57547471044E+03  0.57547471047E+03  0.50400000000E-02 0. -1.
          1   -1    0    0  501    0  0.00000000000E+00 -0.00000000000E+00 -0.12320822436E+04  0.12320822437E+04  0.50400000000E-02 0.  1.
     200001    2    1    2    0    0  0.10944976856E+03  0.93851298512E+01  0.16019273702E+03  0.72624755625E+03  0.69979030249E+03 0.  0.
    5000001    2    3    3    0    0 -0.35578296811E+01 -0.34557419261E+02  0.10827853642E+02  0.19051298272E+03  0.18700556353E+03 0.  0.
        -13    1    4    4    0    0 -0.85759510525E+02 -0.35166938223E+02  0.36034236038E+02  0.99447898521E+02  0.10566000000E+00 0. -1.
     200003    1    4    4    0    0  0.82201680843E+02  0.60951896208E+00 -0.25206382396E+02  0.91065084200E+02  0.30000000000E+02 0. -1.
     200000    1    3    3    0    0  0.11300759824E+03  0.43942549112E+02  0.14936488338E+03  0.53573457352E+03  0.50000000000E+03 0. -1.
    -200001    1    1    2    0    0 -0.10944976856E+03 -0.93851298512E+01 -0.81680027022E+03  0.10813093979E+04  0.70000000000E+03 0.  1.
<mgrwt>
<rscale>  0 0.16840810E+04</rscale>
<asrwt>0</asrwt>
<pdfrwt beam="1">  1        1 0.17601175E+00 0.16840810E+04</pdfrwt>
<pdfrwt beam="2">  1       -1 0.82210673E-01 0.16840810E+04</pdfrwt>
<totfact> 0.16529617E+01</totfact>
</mgrwt>
</event>
<event>
 8    1  0.2402290E-028  0.2203080E+04  0.7818608E-02  0.8517147E-01
          1   -1    0    0  501    0  0.00000000000E+00  0.00000000000E+00  0.20774097014E+04  0.20774097014E+04  0.50400000000E-02 0.  1.
         -1   -1    0    0    0  501 -0.00000000000E+00 -0.00000000000E+00 -0.58408830733E+03  0.58408830735E+03  0.50400000000E-02 0. -1.
     200001    2    1    2    0    0 -0.20514608871E+03  0.82515369886E+03  0.75078307178E+03  0.13332184055E+04  0.70059442719E+03 0.  0.
    5000001    2    3    3    0    0 -0.14170910037E+03  0.19211548579E+03  0.14998866502E+03  0.32539126263E+03  0.16245936462E+03 0.  0.
        -13    1    4    4    0    0 -0.12929600210E+03  0.53403187233E+02  0.40254991500E+02  0.14556727679E+03  0.10566000000E+00 0. -1.
     200003    1    4    4    0    0 -0.12413098267E+02  0.13871229856E+03  0.10973367352E+03  0.17982398584E+03  0.30000000000E+02 0. -1.
     200000    1    3    3    0    0 -0.63436988336E+02  0.63303821306E+03  0.60079440676E+03  0.10078271429E+04  0.50000000000E+03 0.  1.
    -200001    1    1    2    0    0  0.20514608871E+03 -0.82515369886E+03  0.74253832233E+03  0.13282796033E+04  0.70000000000E+03 0. -1.
<mgrwt>
<rscale>  0 0.22030803E+04</rscale>
<asrwt>0</asrwt>
<pdfrwt beam="1">  1        1 0.29677281E+00 0.22030803E+04</pdfrwt>
<pdfrwt beam="2">  1       -1 0.83441189E-01 0.22030803E+04</pdfrwt>
<totfact> 0.43441556E+00</totfact>
</mgrwt>
</event>
<event>
 8    1  0.2402290E-028  0.1621633E+04  0.7818608E-02  0.8807367E-01
         -1   -1    0    0    0  501 -0.00000000000E+00  0.00000000000E+00  0.62601153076E+03  0.62601153078E+03  0.50400000000E-02 0. -1.
          1   -1    0    0  501    0  0.00000000000E+00 -0.00000000000E+00 -0.10501781440E+04  0.10501781440E+04  0.50400000000E-02 0.  1.
     200001    2    1    2    0    0  0.15244890152E+03  0.33006903849E+03 -0.17591573313E+02  0.78878362297E+03  0.69977417976E+03 0.  0.
    5000001    2    3    3    0    0  0.17866994708E+02 -0.28509282308E+01 -0.38019691832E+02  0.17285724595E+03  0.16765074774E+03 0.  0.
        -13    1    4    4    0    0 -0.34281208244E+01  0.55231522802E+02  0.40437118886E+02  0.68537908279E+02  0.10566000000E+00 0. -1.
     200003    1    4    4    0    0  0.21295115533E+02 -0.58082451033E+02 -0.78456810718E+02  0.10431933767E+03  0.30000000000E+02 0. -1.
     200000    1    3    3    0    0  0.13458190681E+03  0.33291996672E+03  0.20428118520E+02  0.61592637702E+03  0.50000000000E+03 0. -1.
    -200001    1    1    2    0    0 -0.15244890152E+03 -0.33006903849E+03 -0.40657503994E+03  0.88740605184E+03  0.70000000000E+03 0.  1.
<mgrwt>
<rscale>  0 0.16216333E+04</rscale>
<asrwt>0</asrwt>
<pdfrwt beam="1">  1        1 0.15002545E+00 0.16216333E+04</pdfrwt>
<pdfrwt beam="2">  1       -1 0.89430219E-01 0.16216333E+04</pdfrwt>
<totfact> 0.18631422E+01</totfact>
</mgrwt>
</event>
<event>
 8    1  0.2402290E-028  0.1701347E+04  0.7818608E-02  0.8760597E-01
         -1   -1    0    0    0  501 -0.00000000000E+00  0.00000000000E+00  0.31854918137E+03  0.31854918141E+03  0.50400000000E-02 0. -1.
          1   -1    0    0  501    0  0.00000000000E+00 -0.00000000000E+00 -0.22716902823E+04  0.22716902823E+04  0.50400000000E-02 0.  1.
     200001    2    1    2    0    0  0.72770750749E+02 -0.38170954238E+03 -0.14150558167E+04  0.16255978048E+04  0.69941940340E+03 0.  0.
    5000001    2    3    3    0    0 -0.57683935298E+02 -0.65423214028E+02 -0.31622797274E+03  0.37081571330E+03  0.17290612818E+03 0.  0.
        -13    1    4    4    0    0 -0.61362599984E+02 -0.10020893755E+03 -0.29961076668E+03  0.32182887148E+03  0.10566000000E+00 0. -1.
     200003    1    4    4    0    0  0.36786646867E+01  0.34785723522E+02 -0.16617206064E+02  0.48986841827E+02  0.30000000000E+02 0. -1.
     200000    1    3    3    0    0  0.13045468605E+03 -0.31628632835E+03 -0.10988278439E+04  0.12547820915E+04  0.50000000000E+03 0. -1.
    -200001    1    1    2    0    0 -0.72770750749E+02  0.38170954238E+03 -0.53808528422E+03  0.96464165886E+03  0.70000000000E+03 0. -1.
<mgrwt>
<rscale>  0 0.17013466E+04</rscale>
<asrwt>0</asrwt>
<pdfrwt beam="1">  1        1 0.32452717E+00 0.17013466E+04</pdfrwt>
<pdfrwt beam="2">  1       -1 0.45507027E-01 0.17013466E+04</pdfrwt>
<totfact> 0.11489136E+01</totfact>
</mgrwt>
</event>
<event>
 8    1  0.2402290E-028  0.3549323E+04  0.7818608E-02  0.8102199E-01
         -1   -1    0    0    0  501 -0.00000000000E+00  0.00000000000E+00  0.10276345795E+04  0.10276345795E+04  0.50400000000E-02 0. -1.
          1   -1    0    0  501    0  0.00000000000E+00 -0.00000000000E+00 -0.30647314344E+04  0.30647314344E+04  0.50400000000E-02 0.  1.
     200001    2    1    2    0    0  0.15711113375E+04 -0.36505763597E+03 -0.74188131015E+03  0.19085067649E+04  0.70025158388E+03 0.  0.
    5000001    2    3    3    0    0  0.55548443133E+03 -0.14872207833E+03 -0.26589574589E+03  0.66156597098E+03  0.19049350709E+03 0.  0.
        -13    1    4    4    0    0  0.18112300262E+02 -0.22088597509E+02  0.23965418328E+02  0.37286914599E+02  0.10566000000E+00 0. -1.
     200003    1    4    4    0    0  0.53737213107E+03 -0.12663348082E+03 -0.28986116422E+03  0.62427905638E+03  0.30000000000E+02 0. -1.
     200000    1    3    3    0    0  0.10156269062E+04 -0.21633555764E+03 -0.47598556426E+03  0.12469407939E+04  0.50000000000E+03 0. -1.
    -200001    1    1    2    0    0 -0.15711113375E+04  0.36505763597E+03 -0.12952155447E+04  0.21838592491E+04  0.70000000000E+03 0.  1.
<mgrwt>
<rscale>  0 0.35493233E+04</rscale>
<asrwt>0</asrwt>
<pdfrwt beam="1">  1        1 0.43781877E+00 0.35493233E+04</pdfrwt>
<pdfrwt beam="2">  1       -1 0.14680494E+00 0.35493233E+04</pdfrwt>
<totfact> 0.23401446E-01</totfact>
</mgrwt>
</event>
<event>
 8    1  0.2402290E-028  0.1744409E+04  0.7818608E-02  0.8736434E-01
         -1   -1    0    0    0  501 -0.00000000000E+00  0.00000000000E+00  0.45611737871E+03  0.45611737874E+03  0.50400000000E-02 0.  1.
          1   -1    0    0  501    0  0.00000000000E+00 -0.00000000000E+00 -0.16678611118E+04  0.16678611118E+04  0.50400000000E-02 0. -1.
     200001    2    1    2    0    0  0.98497126905E+02 -0.48447922989E+03 -0.79937673886E+03  0.11729430831E+04  0.70169116954E+03 0.  0.
    5000001    2    3    3    0    0  0.12309662427E+03 -0.22274959545E+03 -0.27914820899E+03  0.40499434779E+03  0.14603608449E+03 0.  0.
        -13    1    4    4    0    0 -0.26207338066E+02 -0.19270439014E+02 -0.64844809070E+02  0.72546776742E+02  0.10566000000E+00 0. -1.
     200003    1    4    4    0    0  0.14930396234E+03 -0.20347915644E+03 -0.21430339992E+03  0.33244757104E+03  0.30000000000E+02 0. -1.
     200000    1    3    3    0    0 -0.24599497368E+02 -0.26172963444E+03 -0.52022852987E+03  0.76794873534E+03  0.50000000000E+03 0.  1.
    -200001    1    1    2    0    0 -0.98497126905E+02  0.48447922989E+03 -0.41236699419E+03  0.95103540738E+03  0.70000000000E+03 0. -1.
<mgrwt>
<rscale>  0 0.17444087E+04</rscale>
<asrwt>0</asrwt>
<pdfrwt beam="1">  1        1 0.23826587E+00 0.17444087E+04</pdfrwt>
<pdfrwt beam="2">  1       -1 0.65159627E-01 0.17444087E+04</pdfrwt>
<totfact> 0.13742196E+01</totfact>
</mgrwt>
</event>
<event>
 8    1  0.2402290E-028  0.1983969E+04  0.7818608E-02  0.8614152E-01
          1   -1    0    0  501    0  0.00000000000E+00  0.00000000000E+00  0.13733635783E+04  0.13733635783E+04  0.50400000000E-02 0.  1.
         -1   -1    0    0    0  501 -0.00000000000E+00 -0.00000000000E+00 -0.71651361509E+03  0.71651361511E+03  0.50400000000E-02 0. -1.
     200001    2    1    2    0    0 -0.13099019286E+03 -0.64000371582E+03  0.60176203143E+03  0.11308162636E+04  0.69990334525E+03 0.  0.
    5000001    2    3    3    0    0 -0.17562664057E+02 -0.16853982589E+03  0.11163891732E+03  0.27913283018E+03  0.19167099140E+03 0.  0.
        -13    1    4    4    0    0  0.57650580429E+02 -0.16136392092E+03  0.95787909899E+02  0.19630904015E+03  0.10566000000E+00 0. -1.
     200003    1    4    4    0    0 -0.75213244485E+02 -0.71759049636E+01  0.15851007423E+02  0.82823790027E+02  0.30000000000E+02 0. -1.
     200000    1    3    3    0    0 -0.11342752880E+03 -0.47146388994E+03  0.49012311411E+03  0.85168343344E+03  0.50000000000E+03 0.  1.
    -200001    1    1    2    0    0  0.13099019286E+03  0.64000371582E+03  0.55087931811E+02  0.95906092983E+03  0.70000000000E+03 0.  1.
<mgrwt>
<rscale>  0 0.19839695E+04</rscale>
<asrwt>0</asrwt>
<pdfrwt beam="1">  1        1 0.19619480E+00 0.19839695E+04</pdfrwt>
<pdfrwt beam="2">  1       -1 0.10235909E+00 0.19839695E+04</pdfrwt>
<totfact> 0.79413267E+00</totfact>
</mgrwt>
</event>
<event>
 8    1  0.2402290E-028  0.1468779E+04  0.7818608E-02  0.8905484E-01
         -1   -1    0    0    0  501 -0.00000000000E+00  0.00000000000E+00  0.62088568296E+03  0.62088568298E+03  0.50400000000E-02 0. -1.
          1   -1    0    0  501    0  0.00000000000E+00 -0.00000000000E+00 -0.86864254506E+03  0.86864254507E+03  0.50400000000E-02 0.  1.
     200001    2    1    2    0    0  0.68250719122E+02 -0.18519653512E+03 -0.21825885500E+02  0.72795044249E+03  0.70034245920E+03 0.  0.
    5000001    2    3    3    0    0 -0.27551406890E+02 -0.11345451980E+03  0.41633250351E+02  0.20992339104E+03  0.16942105679E+03 0.  0.
        -13    1    4    4    0    0 -0.90341568820E+02 -0.36380580118E+02  0.42048736451E+02  0.10608135118E+03  0.10566000000E+00 0. -1.
     200003    1    4    4    0    0  0.62790161931E+02 -0.77073939682E+02 -0.41548610019E+00  0.10384203986E+03  0.30000000000E+02 0. -1.
     200000    1    3    3    0    0  0.95802126012E+02 -0.71742015318E+02 -0.63459135851E+02  0.51802705145E+03  0.50000000000E+03 0. -1.
    -200001    1    1    2    0    0 -0.68250719122E+02  0.18519653512E+03 -0.22593097660E+03  0.76157778556E+03  0.70000000000E+03 0.  1.
<mgrwt>
<rscale>  0 0.14687787E+04</rscale>
<asrwt>0</asrwt>
<pdfrwt beam="1">  1        1 0.12409179E+00 0.14687787E+04</pdfrwt>
<pdfrwt beam="2">  1       -1 0.88697955E-01 0.14687787E+04</pdfrwt>
<totfact> 0.26468016E+01</totfact>
</mgrwt>
</event>
<event>
 8    1  0.2402290E-028  0.2273249E+04  0.7818608E-02  0.8488544E-01
         -1   -1    0    0    0  501 -0.00000000000E+00  0.00000000000E+00  0.16076045619E+04  0.16076045619E+04  0.50400000000E-02 0.  1.
          1   -1    0    0  501    0  0.00000000000E+00 -0.00000000000E+00 -0.80362759653E+03  0.80362759654E+03  0.50400000000E-02 0. -1.
     200001    2    1    2    0    0  0.17310097899E+03  0.88581272023E+02  0.13293102486E+04  0.15146912229E+04  0.69958071219E+03 0.  0.
    5000001    2    3    3    0    0  0.10049489553E+03  0.13501630950E+03  0.56354495578E+03  0.59609210477E+03  0.97027070045E+02 0.  0.
        -13    1    4    4    0    0  0.91674673452E+01  0.76708968450E+02  0.16861689973E+03  0.18547231151E+03  0.10566000000E+00 0. -1.
     200003    1    4    4    0    0  0.91327428185E+02  0.58307341052E+02  0.39492805605E+03  0.41061979326E+03  0.30000000000E+02 0. -1.
     200000    1    3    3    0    0  0.72606083463E+02 -0.46435037478E+02  0.76576529285E+03  0.91859911811E+03  0.50000000000E+03 0. -1.
    -200001    1    1    2    0    0 -0.17310097899E+03 -0.88581272023E+02 -0.52533328325E+03  0.89654093558E+03  0.70000000000E+03 0. -1.
<mgrwt>
<rscale>  0 0.22732491E+04</rscale>
<asrwt>0</asrwt>
<pdfrwt beam="1">  1        1 0.11480394E+00 0.22732491E+04</pdfrwt>
<pdfrwt beam="2">  1       -1 0.22965779E+00 0.22732491E+04</pdfrwt>
<totfact> 0.21331110E+00</totfact>
</mgrwt>
</event>
<event>
 8    1  0.2402290E-028  0.1809744E+04  0.7818608E-02  0.8701135E-01
          1   -1    0    0  501    0  0.00000000000E+00  0.00000000000E+00  0.48001037723E+04  0.48001037723E+04  0.50400000000E-02 0. -1.
         -1   -1    0    0    0  501 -0.00000000000E+00 -0.00000000000E+00 -0.17057828290E+03  0.17057828298E+03  0.50400000000E-02 0.  1.
     200001    2    1    2    0    0 -0.18315920439E+03 -0.16645612969E+03  0.37356216932E+04  0.38086498122E+04  0.69977783580E+03 0.  0.
    5000001    2    3    3    0    0 -0.28057372074E+02  0.43315335828E+02  0.75253535839E+03  0.77272083947E+03  0.16770389284E+03 0.  0.
        -13    1    4    4    0    0  0.58855071355E+02 -0.17932470702E+02  0.20003023732E+03  0.20927876131E+03  0.10566000000E+00 0. -1.
     200003    1    4    4    0    0 -0.86912443429E+02  0.61247806531E+02  0.55250512107E+03  0.56344207816E+03  0.30000000000E+02 0. -1.
     200000    1    3    3    0    0 -0.15510183232E+03 -0.20977146552E+03  0.29830863348E+04  0.30359289727E+04  0.50000000000E+03 0.  1.
    -200001    1    1    2    0    0  0.18315920439E+03  0.16645612969E+03  0.89390379620E+03  0.11620322432E+04  0.70000000000E+03 0.  1.
<mgrwt>
<rscale>  0 0.18097441E+04</rscale>
<asrwt>0</asrwt>
<pdfrwt beam="1">  1        1 0.68572894E+00 0.18097441E+04</pdfrwt>
<pdfrwt beam="2">  1       -1 0.24368332E-01 0.18097441E+04</pdfrwt>
<totfact> 0.50125981E-01</totfact>
</mgrwt>
</event>
<event>
 8    1  0.2402290E-028  0.2164667E+04  0.7818608E-02  0.8533280E-01
          1   -1    0    0  501    0  0.00000000000E+00  0.00000000000E+00  0.65015946015E+03  0.65015946017E+03  0.50400000000E-02 0.  1.
         -1   -1    0    0    0  501 -0.00000000000E+00 -0.00000000000E+00 -0.18017824245E+04  0.18017824245E+04  0.50400000000E-02 0. -1.
     200001    2    1    2    0    0 -0.52462681232E+03 -0.35800652969E+03  0.23318552774E+02  0.94399973189E+03  0.69798980752E+03 0.  0.
    5000001    2    3    3    0    0 -0.15479733792E+03 -0.71293980864E+02 -0.45099685725E+02  0.25577085924E+03  0.18530974947E+03 0.  0.
        -13    1    4    4    0    0 -0.20014756969E+02 -0.65179941532E+02 -0.87747542008E+02  0.11112451380E+03  0.10566000000E+00 0. -1.
     200003    1    4    4    0    0 -0.13478258095E+03 -0.61140393321E+01  0.42647856283E+02  0.14464634544E+03  0.30000000000E+02 0. -1.
     200000    1    3    3    0    0 -0.36982947440E+03 -0.28671254883E+03  0.68418238499E+02  0.68822887265E+03  0.50000000000E+03 0. -1.
    -200001    1    1    2    0    0  0.52462681232E+03  0.35800652969E+03 -0.11749415171E+04  0.15079421528E+04  0.70000000000E+03 0. -1.
<mgrwt>
<rscale>  0 0.21646671E+04</rscale>
<asrwt>0</asrwt>
<pdfrwt beam="1">  1        1 0.92879923E-01 0.21646671E+04</pdfrwt>
<pdfrwt beam="2">  1       -1 0.25739749E+00 0.21646671E+04</pdfrwt>
<totfact> 0.19455319E+00</totfact>
</mgrwt>
</event>
<event>
 8    1  0.2402290E-028  0.1622908E+04  0.7818608E-02  0.8806597E-01
         -1   -1    0    0    0  501 -0.00000000000E+00  0.00000000000E+00  0.40774188228E+03  0.40774188232E+03  0.50400000000E-02 0. -1.
          1   -1    0    0  501    0  0.00000000000E+00 -0.00000000000E+00 -0.16148877291E+04  0.16148877291E+04  0.50400000000E-02 0.  1.
     200001    2    1    2    0    0  0.40899473903E+03  0.19430029820E+02 -0.57688864695E+03  0.99555689707E+03  0.70048469056E+03 0.  0.
    5000001    2    3    3    0    0  0.10147117667E+03  0.94514461653E+02 -0.13359461084E+03  0.25615307252E+03  0.16893043941E+03 0.  0.
        -13    1    4    4    0    0  0.13709932009E+03  0.83018521645E+02 -0.66158221542E+02  0.17339325231E+03  0.10566000000E+00 0. -1.
     200003    1    4    4    0    0 -0.35628143414E+02  0.11495940008E+02 -0.67436389301E+02  0.82759820213E+02  0.30000000000E+02 0. -1.
     200000    1    3    3    0    0  0.30752356236E+03 -0.75084431833E+02 -0.44329403610E+03  0.73940382455E+03  0.50000000000E+03 0. -1.
    -200001    1    1    2    0    0 -0.40899473903E+03 -0.19430029820E+02 -0.63025719990E+03  0.10270727144E+04  0.70000000000E+03 0. -1.
<mgrwt>
<rscale>  0 0.16229077E+04</rscale>
<asrwt>0</asrwt>
<pdfrwt beam="1">  1        1 0.23069824E+00 0.16229077E+04</pdfrwt>
<pdfrwt beam="2">  1       -1 0.58248841E-01 0.16229077E+04</pdfrwt>
<totfact> 0.18767303E+01</totfact>
</mgrwt>
</event>
<event>
 8    1  0.2402290E-028  0.1740804E+04  0.7818608E-02  0.8738429E-01
          1   -1    0    0  501    0  0.00000000000E+00  0.00000000000E+00  0.16192563147E+04  0.16192563147E+04  0.50400000000E-02 0.  1.
         -1   -1    0    0    0  501 -0.00000000000E+00 -0.00000000000E+00 -0.46786872798E+03  0.46786872801E+03  0.50400000000E-02 0. -1.
     200001    2    1    2    0    0  0.61636977617E+02 -0.71875879429E+02  0.11853342266E+04  0.13799350870E+04  0.70017023390E+03 0.  0.
    5000001    2    3    3    0    0  0.41910275022E+02 -0.10116235140E+03  0.28485377546E+03  0.34934696210E+03  0.17003333215E+03 0.  0.
        -13    1    4    4    0    0  0.18148559994E+02 -0.11633445145E+03  0.84797933652E+02  0.14509919207E+03  0.10566000000E+00 0. -1.
     200003    1    4    4    0    0  0.23761715028E+02  0.15172100051E+02  0.20005584181E+03  0.20424777003E+03  0.30000000000E+02 0. -1.
     200000    1    3    3    0    0  0.19726702595E+02  0.29286471967E+02  0.90048045117E+03  0.10305881249E+04  0.50000000000E+03 0.  1.
    -200001    1    1    2    0    0 -0.61636977617E+02  0.71875879429E+02 -0.33946639956E+02  0.70718995568E+03  0.70000000000E+03 0. -1.
<mgrwt>
<rscale>  0 0.17408037E+04</rscale>
<asrwt>0</asrwt>
<pdfrwt beam="1">  1        1 0.23132233E+00 0.17408037E+04</pdfrwt>
<pdfrwt beam="2">  1       -1 0.66838391E-01 0.17408037E+04</pdfrwt>
<totfact> 0.14029464E+01</totfact>
</mgrwt>
</event>
<event>
 8    1  0.2402290E-028  0.1649802E+04  0.7818608E-02  0.8790523E-01
          1   -1    0    0  501    0  0.00000000000E+00  0.00000000000E+00  0.45967761874E+03  0.45967761877E+03  0.50400000000E-02 0.  1.
         -1   -1    0    0    0  501 -0.00000000000E+00 -0.00000000000E+00 -0.14803023867E+04  0.14803023867E+04  0.50400000000E-02 0. -1.
     200001    2    1    2    0    0  0.86453137620E+02 -0.41197685871E+03 -0.62591776844E+03  0.10327905586E+04  0.70546736843E+03 0.  0.
    5000001    2    3    3    0    0  0.11552682238E+03 -0.62229768343E+02 -0.17616001554E+03  0.27420612514E+03  0.16412695462E+03 0.  0.
        -13    1    4    4    0    0  0.10234167335E+03 -0.11566987604E+02 -0.18644295784E+03  0.21299906337E+03  0.10566000000E+00 0. -1.
     200003    1    4    4    0    0  0.13185149027E+02 -0.50662780739E+02  0.10282942303E+02  0.61207061762E+02  0.30000000000E+02 0. -1.
     200000    1    3    3    0    0 -0.29073684760E+02 -0.34974709036E+03 -0.44975775291E+03  0.75858443344E+03  0.50000000000E+03 0. -1.
    -200001    1    1    2    0    0 -0.86453137620E+02  0.41197685871E+03 -0.39470699953E+03  0.90718944692E+03  0.70000000000E+03 0. -1.
<mgrwt>
<rscale>  0 0.16498023E+04</rscale>
<asrwt>0</asrwt>
<pdfrwt beam="1">  1        1 0.65668232E-01 0.16498023E+04</pdfrwt>
<pdfrwt beam="2">  1       -1 0.21147177E+00 0.16498023E+04</pdfrwt>
<totfact> 0.66186997E+00</totfact>
</mgrwt>
</event>
<event>
 8    1  0.2402290E-028  0.1524373E+04  0.7818608E-02  0.8868405E-01
          1   -1    0    0  501    0  0.00000000000E+00  0.00000000000E+00  0.16059731497E+04  0.16059731497E+04  0.50400000000E-02 0.  1.
         -1   -1    0    0    0  501 -0.00000000000E+00 -0.00000000000E+00 -0.36172995511E+03  0.36172995514E+03  0.50400000000E-02 0. -1.
     200001    2    1    2    0    0 -0.93565089143E+02  0.27804810152E+03  0.53384168759E+03  0.92811882553E+03  0.70025169347E+03 0.  0.
    5000001    2    3    3    0    0 -0.52268586613E+02 -0.17456740535E+01  0.21471285437E+03  0.27097868053E+03  0.15682086259E+03 0.  0.
        -13    1    4    4    0    0  0.14881915511E+02 -0.53373344859E+02  0.24451070553E+02  0.60564439780E+02  0.10566000000E+00 0. -1.
     200003    1    4    4    0    0 -0.67150502124E+02  0.51627670806E+02  0.19026178381E+03  0.21041424074E+03  0.30000000000E+02 0. -1.
     200000    1    3    3    0    0 -0.41296502530E+02  0.27979377558E+03  0.31912883323E+03  0.65714014500E+03  0.50000000000E+03 0. -1.
    -200001    1    1    2    0    0  0.93565089143E+02 -0.27804810152E+03  0.71040150700E+03  0.10395842793E+04  0.70000000000E+03 0.  1.
<mgrwt>
<rscale>  0 0.15243734E+04</rscale>
<asrwt>0</asrwt>
<pdfrwt beam="1">  1        1 0.22942474E+00 0.15243734E+04</pdfrwt>
<pdfrwt beam="2">  1       -1 0.51675706E-01 0.15243734E+04</pdfrwt>
<totfact> 0.24179745E+01</totfact>
</mgrwt>
</event>
<event>
 8    1  0.2402290E-028  0.1569506E+04  0.7818608E-02  0.8839504E-01
         -1   -1    0    0    0  501 -0.00000000000E+00  0.00000000000E+00  0.83731054470E+03  0.83731054472E+03  0.50400000000E-02 0. -1.
          1   -1    0    0  501    0  0.00000000000E+00 -0.00000000000E+00 -0.73549481012E+03  0.73549481014E+03  0.50400000000E-02 0.  1.
     200001    2    1    2    0    0 -0.13911460005E+03 -0.23446128978E+03 -0.17711219959E+03  0.77147785576E+03  0.69963160472E+03 0.  0.
    5000001    2    3    3    0    0 -0.97914065309E+01 -0.57405755302E+02 -0.20823624825E+02  0.20358766455E+03  0.19396654717E+03 0.  0.
        -13    1    4    4    0    0  0.12843180172E+02  0.21489564898E+02 -0.89187973733E+02  0.92635060852E+02  0.10566000000E+00 0. -1.
     200003    1    4    4    0    0 -0.22634586703E+02 -0.78895320200E+02  0.68364348908E+02  0.11095260369E+03  0.30000000000E+02 0. -1.
     200000    1    3    3    0    0 -0.12932319352E+03 -0.17705553448E+03 -0.15628857476E+03  0.56789019121E+03  0.50000000000E+03 0.  1.
    -200001    1    1    2    0    0  0.13911460005E+03  0.23446128978E+03  0.27892793417E+03  0.80132749910E+03  0.70000000000E+03 0. -1.
<mgrwt>
<rscale>  0 0.15695064E+04</rscale>
<asrwt>0</asrwt>
<pdfrwt beam="1">  1        1 0.10507069E+00 0.15695064E+04</pdfrwt>
<pdfrwt beam="2">  1       -1 0.11961579E+00 0.15695064E+04</pdfrwt>
<totfact> 0.17028987E+01</totfact>
</mgrwt>
</event>
<event>
 8    1  0.2402290E-028  0.1575594E+04  0.7818608E-02  0.8835683E-01
         -1   -1    0    0    0  501 -0.00000000000E+00  0.00000000000E+00  0.24324166429E+03  0.24324166434E+03  0.50400000000E-02 0. -1.
          1   -1    0    0  501    0  0.00000000000E+00 -0.00000000000E+00 -0.25514720606E+04  0.25514720606E+04  0.50400000000E-02 0.  1.
     200001    2    1    2    0    0  0.22894166253E+03  0.95285890117E+02 -0.16227839554E+04  0.17841047457E+04  0.69864747321E+03 0.  0.
    5000001    2    3    3    0    0  0.23692957455E+02  0.71190819385E+02 -0.28268737187E+03  0.33891740258E+03  0.17124066852E+03 0.  0.
        -13    1    4    4    0    0 -0.18468049106E+02  0.11581332701E+03 -0.15844784779E+03  0.19712819987E+03  0.10566000000E+00 0. -1.
     200003    1    4    4    0    0  0.42161006561E+02 -0.44622507621E+02 -0.12423952408E+03  0.14178920271E+03  0.30000000000E+02 0. -1.
     200000    1    3    3    0    0  0.20524870508E+03  0.24095070731E+02 -0.13400965835E+04  0.14451873431E+04  0.50000000000E+03 0.  1.
    -200001    1    1    2    0    0 -0.22894166253E+03 -0.95285890117E+02 -0.68544644092E+03  0.10106089793E+04  0.70000000000E+03 0. -1.
<mgrwt>
<rscale>  0 0.15755943E+04</rscale>
<asrwt>0</asrwt>
<pdfrwt beam="1">  1        1 0.36449599E+00 0.15755943E+04</pdfrwt>
<pdfrwt beam="2">  1       -1 0.34748811E-01 0.15755943E+04</pdfrwt>
<totfact> 0.12646190E+01</totfact>
</mgrwt>
</event>
<event>
 8    1  0.2402290E-028  0.1715963E+04  0.7818608E-02  0.8752312E-01
         -1   -1    0    0    0  501 -0.00000000000E+00  0.00000000000E+00  0.62848275165E+03  0.62848275167E+03  0.50400000000E-02 0.  1.
          1   -1    0    0  501    0  0.00000000000E+00 -0.00000000000E+00 -0.11712841119E+04  0.11712841119E+04  0.50400000000E-02 0. -1.
     200001    2    1    2    0    0 -0.27239405777E+02 -0.54698836826E+02 -0.78698253175E+03  0.10558862330E+04  0.70129899741E+03 0.  0.
    5000001    2    3    3    0    0 -0.69828326943E+01  0.37413608277E+02 -0.12185161719E+03  0.21845315220E+03  0.17727217790E+03 0.  0.
        -13    1    4    4    0    0  0.18034343076E+02  0.26528832814E+02 -0.15975652925E+03  0.16294531691E+03  0.10566000000E+00 0. -1.
     200003    1    4    4    0    0 -0.25017175770E+02  0.10884775463E+02  0.37904912063E+02  0.55507835293E+02  0.30000000000E+02 0. -1.
     200000    1    3    3    0    0 -0.20256573083E+02 -0.92112445103E+02 -0.66513091456E+03  0.83743308079E+03  0.50000000000E+03 0. -1.
    -200001    1    1    2    0    0  0.27239405777E+02  0.54698836826E+02  0.24418117153E+03  0.74388063055E+03  0.70000000000E+03 0.  1.
<mgrwt>
<rscale>  0 0.17159625E+04</rscale>
<asrwt>0</asrwt>
<pdfrwt beam="1">  1        1 0.16732630E+00 0.17159625E+04</pdfrwt>
<pdfrwt beam="2">  1       -1 0.89783250E-01 0.17159625E+04</pdfrwt>
<totfact> 0.15003327E+01</totfact>
</mgrwt>
</event>
<event>
 8    1  0.2402290E-028  0.1460192E+04  0.7818608E-02  0.8911365E-01
          1   -1    0    0  501    0  0.00000000000E+00  0.00000000000E+00  0.19176034184E+04  0.19176034184E+04  0.50400000000E-02 0.  1.
         -1   -1    0    0    0  501 -0.00000000000E+00 -0.00000000000E+00 -0.27797223021E+03  0.27797223025E+03  0.50400000000E-02 0. -1.
     200001    2    1    2    0    0  0.70017529260E+02  0.15421967401E+03  0.99999469129E+03  0.12323409885E+04  0.69999197652E+03 0.  0.
    5000001    2    3    3    0    0  0.71845884656E+01 -0.40839027336E+02  0.37495164959E+03  0.40609969244E+03  0.15036215016E+03 0.  0.
        -13    1    4    4    0    0  0.20064467651E+02  0.36795474677E+02  0.26132332571E+03  0.26466276947E+03  0.10566000000E+00 0. -1.
     200003    1    4    4    0    0 -0.12879879185E+02 -0.77634502013E+02  0.11362832388E+03  0.14143692297E+03  0.30000000000E+02 0. -1.
     200000    1    3    3    0    0  0.62832940794E+02  0.19505870134E+03  0.62504304170E+03  0.82624129611E+03  0.50000000000E+03 0. -1.
    -200001    1    1    2    0    0 -0.70017529260E+02 -0.15421967401E+03  0.63963649687E+03  0.96323466008E+03  0.70000000000E+03 0. -1.
<mgrwt>
<rscale>  0 0.14601925E+04</rscale>
<asrwt>0</asrwt>
<pdfrwt beam="1">  1        1 0.27394335E+00 0.14601925E+04</pdfrwt>
<pdfrwt beam="2">  1       -1 0.39710319E-01 0.14601925E+04</pdfrwt>
<totfact> 0.25193424E+01</totfact>
</mgrwt>
</event>
<event>
 8    1  0.2402290E-028  0.1717145E+04  0.7818608E-02  0.8751646E-01
         -1   -1    0    0    0  501 -0.00000000000E+00  0.00000000000E+00  0.11101872247E+04  0.11101872247E+04  0.50400000000E-02 0.  1.
          1   -1    0    0  501    0  0.00000000000E+00 -0.00000000000E+00 -0.66398404974E+03  0.66398404976E+03  0.50400000000E-02 0. -1.
     200001    2    1    2    0    0 -0.44410552971E+03 -0.17736407185E+03  0.36206122212E+03  0.92225132295E+03  0.70055081088E+03 0.  0.
    5000001    2    3    3    0    0 -0.15041554025E+03 -0.10022214417E+03  0.20012138774E+03  0.31526763546E+03  0.16332727638E+03 0.  0.
        -13    1    4    4    0    0 -0.83348381754E+02 -0.11135501954E+03  0.19665946423E+03  0.24087724914E+03  0.10566000000E+00 0. -1.
     200003    1    4    4    0    0 -0.67067158495E+02  0.11132875376E+02  0.34619235073E+01  0.74390386322E+02  0.30000000000E+02 0. -1.
     200000    1    3    3    0    0 -0.29368998946E+03 -0.77141927680E+02  0.16193983438E+03  0.60698368748E+03  0.50000000000E+03 0. -1.
    -200001    1    1    2    0    0  0.44410552971E+03  0.17736407185E+03  0.84141952804E+02  0.85191995147E+03  0.70000000000E+03 0.  1.
<mgrwt>
<rscale>  0 0.17171449E+04</rscale>
<asrwt>0</asrwt>
<pdfrwt beam="1">  1        1 0.94854864E-01 0.17171449E+04</pdfrwt>
<pdfrwt beam="2">  1       -1 0.15859818E+00 0.17171449E+04</pdfrwt>
<totfact> 0.94001779E+00</totfact>
</mgrwt>
</event>
<event>
 8    1  0.2402290E-028  0.1739609E+04  0.7818608E-02  0.8739091E-01
         -1   -1    0    0    0  501 -0.00000000000E+00  0.00000000000E+00  0.17599388354E+04  0.17599388354E+04  0.50400000000E-02 0. -1.
          1   -1    0    0  501    0  0.00000000000E+00 -0.00000000000E+00 -0.42987859966E+03  0.42987859969E+03  0.50400000000E-02 0.  1.
     200001    2    1    2    0    0  0.12137028916E+03  0.12429342449E+02  0.33715107294E+02  0.71150896671E+03  0.70015931445E+03 0.  0.
    5000001    2    3    3    0    0  0.76337685789E+02  0.67096666076E+02 -0.36418026189E+02  0.20167065112E+03  0.17033899735E+03 0.  0.
        -13    1    4    4    0    0  0.12290697231E+03  0.65554737456E+02 -0.83398312318E+01  0.13954609057E+03  0.10566000000E+00 0. -1.
     200003    1    4    4    0    0 -0.46569286519E+02  0.15419286200E+01 -0.28078194957E+02  0.62124560544E+02  0.30000000000E+02 0. -1.
     200000    1    3    3    0    0  0.45032603374E+02 -0.54667323627E+02  0.70133133484E+02  0.50983831560E+03  0.50000000000E+03 0.  1.
    -200001    1    1    2    0    0 -0.12137028916E+03 -0.12429342449E+02  0.12963451284E+04  0.14783084684E+04  0.70000000000E+03 0. -1.
<mgrwt>
<rscale>  0 0.17396092E+04</rscale>
<asrwt>0</asrwt>
<pdfrwt beam="1">  1        1 0.61411228E-01 0.17396092E+04</pdfrwt>
<pdfrwt beam="2">  1       -1 0.25141984E+00 0.17396092E+04</pdfrwt>
<totfact> 0.39057769E+00</totfact>
</mgrwt>
</event>
<event>
 8    1  0.2402290E-028  0.1818861E+04  0.7818608E-02  0.8696333E-01
         -1   -1    0    0    0  501 -0.00000000000E+00  0.00000000000E+00  0.22159406265E+03  0.22159406270E+03  0.50400000000E-02 0. -1.
          1   -1    0    0  501    0  0.00000000000E+00 -0.00000000000E+00 -0.37323369581E+04  0.37323369581E+04  0.50400000000E-02 0.  1.
     200001    2    1    2    0    0  0.56896293835E+03  0.74209950277E+02 -0.19506385126E+04  0.21502814908E+04  0.69963843563E+03 0.  0.
    5000001    2    3    3    0    0  0.10830065635E+03 -0.46731633356E+02 -0.56337973592E+03  0.60066104746E+03  0.17170931651E+03 0.  0.
        -13    1    4    4    0    0 -0.77151571886E+00  0.45921193762E+02 -0.54918401543E+02  0.71591851946E+02  0.10566000000E+00 0. -1.
     200003    1    4    4    0    0  0.10907217206E+03 -0.92652827118E+02 -0.50846133437E+03  0.52906919552E+03  0.30000000000E+02 0. -1.
     200000    1    3    3    0    0  0.46066228201E+03  0.12094158363E+03 -0.13872587767E+04  0.15496204433E+04  0.50000000000E+03 0. -1.
    -200001    1    1    2    0    0 -0.56896293835E+03 -0.74209950277E+02 -0.15601043828E+04  0.18036495301E+04  0.70000000000E+03 0. -1.
<mgrwt>
<rscale>  0 0.18188609E+04</rscale>
<asrwt>0</asrwt>
<pdfrwt beam="1">  1        1 0.53319096E+00 0.18188609E+04</pdfrwt>
<pdfrwt beam="2">  1       -1 0.31656297E-01 0.18188609E+04</pdfrwt>
<totfact> 0.23436678E+00</totfact>
</mgrwt>
</event>
<event>
 8    1  0.2402290E-028  0.1468277E+04  0.7818608E-02  0.8905827E-01
         -1   -1    0    0    0  501 -0.00000000000E+00  0.00000000000E+00  0.67847224982E+03  0.67847224984E+03  0.50400000000E-02 0.  1.
          1   -1    0    0  501    0  0.00000000000E+00 -0.00000000000E+00 -0.79437215792E+03  0.79437215794E+03  0.50400000000E-02 0. -1.
     200001    2    1    2    0    0  0.20379768604E+03  0.18971479403E+02 -0.14418266949E+03  0.74298597736E+03  0.69953277729E+03 0.  0.
    5000001    2    3    3    0    0  0.76115160071E+02  0.25718939034E+01 -0.74465703189E+02  0.22199439467E+03  0.19477227237E+03 0.  0.
        -13    1    4    4    0    0 -0.27411409812E+02 -0.41000971870E+02 -0.92032564864E+02  0.10441488994E+03  0.10566000000E+00 0. -1.
     200003    1    4    4    0    0  0.10352656988E+03  0.43572865774E+02  0.17566861675E+02  0.11757950473E+03  0.30000000000E+02 0. -1.
     200000    1    3    3    0    0  0.12768252597E+03  0.16399585499E+02 -0.69716966300E+02  0.52099158269E+03  0.50000000000E+03 0. -1.
    -200001    1    1    2    0    0 -0.20379768604E+03 -0.18971479403E+02  0.28282761389E+02  0.72985843042E+03  0.70000000000E+03 0.  1.
<mgrwt>
<rscale>  0 0.14682772E+04</rscale>
<asrwt>0</asrwt>
<pdfrwt beam="1">  1        1 0.11348174E+00 0.14682772E+04</pdfrwt>
<pdfrwt beam="2">  1       -1 0.96924607E-01 0.14682772E+04</pdfrwt>
<totfact> 0.25018230E+01</totfact>
</mgrwt>
</event>
<event>
 8    1  0.2402290E-028  0.1553182E+04  0.7818608E-02  0.8849838E-01
          1   -1    0    0  501    0  0.00000000000E+00  0.00000000000E+00  0.74484720056E+03  0.74484720058E+03  0.50400000000E-02 0. -1.
         -1   -1    0    0    0  501 -0.00000000000E+00 -0.00000000000E+00 -0.80968803741E+03  0.80968803742E+03  0.50400000000E-02 0.  1.
     200001    2    1    2    0    0  0.24309908346E+03 -0.22167204459E+03  0.37387079561E+02  0.77435179379E+03  0.69999089072E+03 0.  0.
    5000001    2    3    3    0    0  0.11737287289E+03 -0.10256083275E+03  0.49565620022E+02  0.24506654210E+03  0.18249861277E+03 0.  0.
        -13    1    4    4    0    0  0.29474541357E+02  0.16225757156E+02 -0.52947663777E+02  0.62733484257E+02  0.10566000000E+00 0. -1.
     200003    1    4    4    0    0  0.87898331530E+02 -0.11878658990E+03  0.10251328380E+03  0.18233305784E+03  0.30000000000E+02 0. -1.
     200000    1    3    3    0    0  0.12572621058E+03 -0.11911121184E+03 -0.12178540461E+02  0.52928525169E+03  0.50000000000E+03 0. -1.
    -200001    1    1    2    0    0 -0.24309908346E+03  0.22167204459E+03 -0.10222791641E+03  0.78018344421E+03  0.70000000000E+03 0.  1.
<mgrwt>
<rscale>  0 0.15531824E+04</rscale>
<asrwt>0</asrwt>
<pdfrwt beam="1">  1        1 0.10640674E+00 0.15531824E+04</pdfrwt>
<pdfrwt beam="2">  1       -1 0.11566972E+00 0.15531824E+04</pdfrwt>
<totfact> 0.18146522E+01</totfact>
</mgrwt>
</event>
<event>
 8    1  0.2402290E-028  0.1569172E+04  0.7818608E-02  0.8839714E-01
          1   -1    0    0  501    0  0.00000000000E+00  0.00000000000E+00  0.22127516628E+04  0.22127516628E+04  0.50400000000E-02 0.  1.
         -1   -1    0    0    0  501 -0.00000000000E+00 -0.00000000000E+00 -0.27819427055E+03  0.27819427060E+03  0.50400000000E-02 0. -1.
     200001    2    1    2    0    0  0.35108980767E+03  0.45501602126E+02  0.92176458003E+03  0.12098980306E+04  0.69919157214E+03 0.  0.
    5000001    2    3    3    0    0  0.92505332355E+02 -0.40700278135E+02  0.24959109553E+03  0.32892476861E+03  0.18889690120E+03 0.  0.
        -13    1    4    4    0    0  0.14491118876E+02  0.34177695984E+02 -0.16132813347E+02  0.40476984319E+02  0.10566000000E+00 0. -1.
     200003    1    4    4    0    0  0.78014213479E+02 -0.74877974119E+02  0.26572390888E+03  0.28844778429E+03  0.30000000000E+02 0. -1.
     200000    1    3    3    0    0  0.25858447532E+03  0.86201880261E+02  0.67217348450E+03  0.88097326197E+03  0.50000000000E+03 0.  1.
    -200001    1    1    2    0    0 -0.35108980767E+03 -0.45501602126E+02  0.10127928122E+04  0.12810479028E+04  0.70000000000E+03 0. -1.
<mgrwt>
<rscale>  0 0.15691715E+04</rscale>
<asrwt>0</asrwt>
<pdfrwt beam="1">  1        1 0.31610740E+00 0.15691715E+04</pdfrwt>
<pdfrwt beam="2">  1       -1 0.39742037E-01 0.15691715E+04</pdfrwt>
<totfact> 0.16256268E+01</totfact>
</mgrwt>
</event>
<event>
 8    1  0.2402290E-028  0.1724336E+04  0.7818608E-02  0.8747605E-01
          1   -1    0    0  501    0  0.00000000000E+00  0.00000000000E+00  0.21803080690E+04  0.21803080690E+04  0.50400000000E-02 0. -1.
         -1   -1    0    0    0  501 -0.00000000000E+00 -0.00000000000E+00 -0.34093044677E+03  0.34093044681E+03  0.50400000000E-02 0.  1.
     200001    2    1    2    0    0  0.24583892619E+02 -0.19390660648E+03  0.24112016955E+03  0.76549621557E+03  0.69974379603E+03 0.  0.
    5000001    2    3    3    0    0  0.48353366903E+02 -0.89532452933E+02  0.34944114714E+02  0.21416372295E+03  0.18517802476E+03 0.  0.
        -13    1    4    4    0    0  0.94807960945E+02 -0.84888772747E+02 -0.27945624937E+02  0.13029053041E+03  0.10566000000E+00 0. -1.
     200003    1    4    4    0    0 -0.46454594042E+02 -0.46436801858E+01  0.62889739651E+02  0.83873192539E+02  0.30000000000E+02 0. -1.
     200000    1    3    3    0    0 -0.23769474284E+02 -0.10437415354E+03  0.20617605483E+03  0.55133249262E+03  0.50000000000E+03 0.  1.
    -200001    1    1    2    0    0 -0.24583892619E+02  0.19390660648E+03  0.15982574527E+04  0.17557423003E+04  0.70000000000E+03 0. -1.
<mgrwt>
<rscale>  0 0.17243357E+04</rscale>
<asrwt>0</asrwt>
<pdfrwt beam="1">  1        1 0.31147259E+00 0.17243357E+04</pdfrwt>
<pdfrwt beam="2">  1       -1 0.48704348E-01 0.17243357E+04</pdfrwt>
<totfact> 0.11521473E+01</totfact>
</mgrwt>
</event>
<event>
 8    1  0.2402290E-028  0.1584071E+04  0.7818608E-02  0.8830394E-01
         -1   -1    0    0    0  501 -0.00000000000E+00  0.00000000000E+00  0.19970253368E+03  0.19970253375E+03  0.50400000000E-02 0. -1.
          1   -1    0    0  501    0  0.00000000000E+00 -0.00000000000E+00 -0.31412715153E+04  0.31412715153E+04  0.50400000000E-02 0.  1.
     200001    2    1    2    0    0 -0.80580974431E+00  0.29106894205E+03 -0.19539635997E+04  0.20959494835E+04  0.70022047260E+03 0.  0.
    5000001    2    3    3    0    0 -0.24708950391E+01  0.11455653774E+03 -0.40536227445E+03  0.45908496076E+03  0.18251334741E+03 0.  0.
        -13    1    4    4    0    0 -0.47450674990E+02 -0.17214458446E+02 -0.32730266935E+02  0.60159668169E+02  0.10566000000E+00 0. -1.
     200003    1    4    4    0    0  0.44979779951E+02  0.13177099619E+03 -0.37263200752E+03  0.39892529259E+03  0.30000000000E+02 0. -1.
     200000    1    3    3    0    0  0.16650852948E+01  0.17651240431E+03 -0.15486013253E+04  0.16368645228E+04  0.50000000000E+03 0.  1.
    -200001    1    1    2    0    0  0.80580974431E+00 -0.29106894205E+03 -0.98760538194E+03  0.12450245655E+04  0.70000000000E+03 0. -1.
<mgrwt>
<rscale>  0 0.15840706E+04</rscale>
<asrwt>0</asrwt>
<pdfrwt beam="1">  1        1 0.44875304E+00 0.15840706E+04</pdfrwt>
<pdfrwt beam="2">  1       -1 0.28528935E-01 0.15840706E+04</pdfrwt>
<totfact> 0.73982115E+00</totfact>
</mgrwt>
</event>
<event>
 8    1  0.2402290E-028  0.2698304E+04  0.7818608E-02  0.8335556E-01
         -1   -1    0    0    0  501 -0.00000000000E+00  0.00000000000E+00  0.40729885058E+03  0.40729885061E+03  0.50400000000E-02 0.  1.
          1   -1    0    0  501    0  0.00000000000E+00 -0.00000000000E+00 -0.44689804390E+04  0.44689804390E+04  0.50400000000E-02 0. -1.
     200001    2    1    2    0    0 -0.20778527542E+03 -0.74037598698E+03 -0.47728978442E+03  0.11440954882E+04  0.69986972008E+03 0.  0.
    5000001    2    3    3    0    0 -0.13094295856E+03 -0.26344631064E+03 -0.16798160059E+03  0.38314988542E+03  0.17898603179E+03 0.  0.
        -13    1    4    4    0    0 -0.10341346661E+03 -0.17570044960E+03 -0.19562036297E+03  0.28254615665E+03  0.10566000000E+00 0. -1.
     200003    1    4    4    0    0 -0.27529491946E+02 -0.87745861043E+02  0.27638762379E+02  0.10060372877E+03  0.30000000000E+02 0. -1.
     200000    1    3    3    0    0 -0.76842316865E+02 -0.47692967634E+03 -0.30930818383E+03  0.76094560280E+03  0.50000000000E+03 0.  1.
    -200001    1    1    2    0    0  0.20778527542E+03  0.74037598698E+03 -0.35843918040E+04  0.37321838014E+04  0.70000000000E+03 0. -1.
<mgrwt>
<rscale>  0 0.26983036E+04</rscale>
<asrwt>0</asrwt>
<pdfrwt beam="1">  1        1 0.63842575E+00 0.26983036E+04</pdfrwt>
<pdfrwt beam="2">  1       -1 0.58185553E-01 0.26983036E+04</pdfrwt>
<totfact> 0.18509577E-01</totfact>
</mgrwt>
</event>
<event>
 8    1  0.2402290E-028  0.1549947E+04  0.7818608E-02  0.8851902E-01
          1   -1    0    0  501    0  0.00000000000E+00  0.00000000000E+00  0.47320117057E+03  0.47320117060E+03  0.50400000000E-02 0.  1.
         -1   -1    0    0    0  501 -0.00000000000E+00 -0.00000000000E+00 -0.12691934068E+04  0.12691934068E+04  0.50400000000E-02 0. -1.
     200001    2    1    2    0    0  0.23102710827E+02 -0.16425430440E+03 -0.70182539257E+02  0.72047827555E+03  0.69760314289E+03 0.  0.
    5000001    2    3    3    0    0 -0.69511373294E+02 -0.97783345909E+02 -0.13299777213E+03  0.20381444831E+03  0.97254862064E+02 0.  0.
        -13    1    4    4    0    0 -0.41430360134E+02  0.51358070879E+01 -0.51274519994E+02  0.66120638381E+02  0.10566000000E+00 0. -1.
     200003    1    4    4    0    0 -0.28081013160E+02 -0.10291915300E+03 -0.81723252135E+02  0.13769380993E+03  0.30000000000E+02 0. -1.
     200000    1    3    3    0    0  0.92614084121E+02 -0.66470958493E+02  0.62815232872E+02  0.51666382724E+03  0.50000000000E+03 0.  1.
    -200001    1    1    2    0    0 -0.23102710827E+02  0.16425430440E+03 -0.72580969694E+03  0.10219163018E+04  0.70000000000E+03 0. -1.
<mgrwt>
<rscale>  0 0.15499468E+04</rscale>
<asrwt>0</asrwt>
<pdfrwt beam="1">  1        1 0.67600168E-01 0.15499468E+04</pdfrwt>
<pdfrwt beam="2">  1       -1 0.18131334E+00 0.15499468E+04</pdfrwt>
<totfact> 0.10398841E+01</totfact>
</mgrwt>
</event>
<event>
 8    1  0.2402290E-028  0.1523227E+04  0.7818608E-02  0.8869153E-01
          1   -1    0    0  501    0  0.00000000000E+00  0.00000000000E+00  0.79338048530E+03  0.79338048532E+03  0.50400000000E-02 0.  1.
         -1   -1    0    0    0  501 -0.00000000000E+00 -0.00000000000E+00 -0.73111803045E+03  0.73111803047E+03  0.50400000000E-02 0. -1.
     200001    2    1    2    0    0 -0.20631737184E+03 -0.17593055047E+03  0.16045453995E+03  0.76742513620E+03  0.69976943615E+03 0.  0.
    5000001    2    3    3    0    0 -0.49850536033E+02 -0.58505016192E+02  0.66427419939E+02  0.22234557677E+03  0.19778028346E+03 0.  0.
        -13    1    4    4    0    0  0.19191651345E+02  0.20523311413E+02  0.10336886781E+03  0.10711983844E+03  0.10566000000E+00 0. -1.
     200003    1    4    4    0    0 -0.69042187378E+02 -0.79028327605E+02 -0.36941447867E+02  0.11522573832E+03  0.30000000000E+02 0. -1.
     200000    1    3    3    0    0 -0.15646683581E+03 -0.11742553428E+03  0.94027120009E+02  0.54507955943E+03  0.50000000000E+03 0.  1.
    -200001    1    1    2    0    0  0.20631737184E+03  0.17593055047E+03 -0.98192085102E+02  0.75707337959E+03  0.70000000000E+03 0.  1.
<mgrwt>
<rscale>  0 0.15232265E+04</rscale>
<asrwt>0</asrwt>
<pdfrwt beam="1">  1        1 0.11334007E+00 0.15232265E+04</pdfrwt>
<pdfrwt beam="2">  1       -1 0.10444543E+00 0.15232265E+04</pdfrwt>
<totfact> 0.21023578E+01</totfact>
</mgrwt>
</event>
<event>
 8    1  0.2402290E-028  0.1435518E+04  0.7818608E-02  0.8928503E-01
         -1   -1    0    0    0  501 -0.00000000000E+00  0.00000000000E+00  0.38757002341E+03  0.38757002345E+03  0.50400000000E-02 0. -1.
          1   -1    0    0  501    0  0.00000000000E+00 -0.00000000000E+00 -0.13292511261E+04  0.13292511261E+04  0.50400000000E-02 0.  1.
     200001    2    1    2    0    0  0.20092070629E+02 -0.11233608653E+03 -0.33935228251E+03  0.78632499412E+03  0.70008852090E+03 0.  0.
    5000001    2    3    3    0    0 -0.17355615470E+02  0.82587768214E+02 -0.10834832933E+02  0.15599067567E+03  0.13074303211E+03 0.  0.
        -13    1    4    4    0    0  0.25901289589E+02  0.60923882942E+02  0.41937803273E+02  0.78367000852E+02  0.10566000000E+00 0. -1.
     200003    1    4    4    0    0 -0.43256905059E+02  0.21663885271E+02 -0.52772636206E+02  0.77623674819E+02  0.30000000000E+02 0. -1.
     200000    1    3    3    0    0  0.37447686100E+02 -0.19492385474E+03 -0.32851744957E+03  0.63033431845E+03  0.50000000000E+03 0.  1.
    -200001    1    1    2    0    0 -0.20092070629E+02  0.11233608653E+03 -0.60232882015E+03  0.93049615540E+03  0.70000000000E+03 0.  1.
<mgrwt>
<rscale>  0 0.14355179E+04</rscale>
<asrwt>0</asrwt>
<pdfrwt beam="1">  1        1 0.18989302E+00 0.14355179E+04</pdfrwt>
<pdfrwt beam="2">  1       -1 0.55367147E-01 0.14355179E+04</pdfrwt>
<totfact> 0.32404768E+01</totfact>
</mgrwt>
</event>
<event>
 8    1  0.2402290E-028  0.1699044E+04  0.7818608E-02  0.8761910E-01
          1   -1    0    0  501    0  0.00000000000E+00  0.00000000000E+00  0.27155091655E+04  0.27155091655E+04  0.50400000000E-02 0.  1.
         -1   -1    0    0    0  501 -0.00000000000E+00 -0.00000000000E+00 -0.26576510691E+03  0.26576510696E+03  0.50400000000E-02 0. -1.
     200001    2    1    2    0    0  0.39641478978E+02  0.91187758109E+02  0.20515450586E+04  0.21698255078E+04  0.69958484306E+03 0.  0.
    5000001    2    3    3    0    0 -0.12441959008E+02 -0.42599420522E+02  0.63366932173E+03  0.65953305302E+03  0.17741906818E+03 0.  0.
        -13    1    4    4    0    0 -0.40780435865E+02 -0.57386683657E+02  0.60036684113E+03  0.60448046329E+03  0.10566000000E+00 0. -1.
     200003    1    4    4    0    0  0.28338476857E+02  0.14787263134E+02  0.33302480597E+02  0.55052589725E+02  0.30000000000E+02 0. -1.
     200000    1    3    3    0    0  0.52083437985E+02  0.13378717863E+03  0.14178757369E+04  0.15102924548E+04  0.50000000000E+03 0.  1.
    -200001    1    1    2    0    0 -0.39641478978E+02 -0.91187758109E+02  0.39819899993E+03  0.81144876464E+03  0.70000000000E+03 0. -1.
<mgrwt>
<rscale>  0 0.16990439E+04</rscale>
<asrwt>0</asrwt>
<pdfrwt beam="1">  1        1 0.38792990E+00 0.16990439E+04</pdfrwt>
<pdfrwt beam="2">  1       -1 0.37966442E-01 0.16990439E+04</pdfrwt>
<totfact> 0.83743910E+00</totfact>
</mgrwt>
</event>
<event>
 8    1  0.2402290E-028  0.1746946E+04  0.7818608E-02  0.8735033E-01
         -1   -1    0    0    0  501 -0.00000000000E+00  0.00000000000E+00  0.33627490380E+03  0.33627490383E+03  0.50400000000E-02 0. -1.
          1   -1    0    0  501    0  0.00000000000E+00 -0.00000000000E+00 -0.22688439154E+04  0.22688439154E+04  0.50400000000E-02 0.  1.
     200001    2    1    2    0    0 -0.32978217747E+03  0.24857696250E+03 -0.14436985883E+04  0.16566774233E+04  0.69983403739E+03 0.  0.
    5000001    2    3    3    0    0 -0.13576069246E+03  0.45012865802E+02 -0.30923007455E+03  0.38541762019E+03  0.18018429244E+03 0.  0.
        -13    1    4    4    0    0 -0.14115400824E+03  0.74228974588E+02 -0.30344417550E+03  0.34280136161E+03  0.10566000000E+00 0. -1.
     200003    1    4    4    0    0  0.53933157805E+01 -0.29216108787E+02 -0.57858990481E+01  0.42616258582E+02  0.30000000000E+02 0. -1.
     200000    1    3    3    0    0 -0.19402148501E+03  0.20356409670E+03 -0.11344685138E+04  0.12712598031E+04  0.50000000000E+03 0.  1.
    -200001    1    1    2    0    0  0.32978217747E+03 -0.24857696250E+03 -0.48887042326E+03  0.94844139597E+03  0.70000000000E+03 0. -1.
<mgrwt>
<rscale>  0 0.17469462E+04</rscale>
<asrwt>0</asrwt>
<pdfrwt beam="1">  1        1 0.32412055E+00 0.17469462E+04</pdfrwt>
<pdfrwt beam="2">  1       -1 0.48039273E-01 0.17469462E+04</pdfrwt>
<totfact> 0.10379640E+01</totfact>
</mgrwt>
</event>
<event>
 8    1  0.2402290E-028  0.2557471E+04  0.7818608E-02  0.8382792E-01
         -1   -1    0    0    0  501 -0.00000000000E+00  0.00000000000E+00  0.81032124698E+03  0.81032124699E+03  0.50400000000E-02 0. -1.
          1   -1    0    0  501    0  0.00000000000E+00 -0.00000000000E+00 -0.20179214284E+04  0.20179214284E+04  0.50400000000E-02 0.  1.
     200001    2    1    2    0    0 -0.12238232608E+03 -0.90799301341E+03 -0.12152220584E+04  0.16752089209E+04  0.70009394459E+03 0.  0.
    5000001    2    3    3    0    0 -0.48885659745E+01 -0.20126160404E+03 -0.23918577282E+03  0.36527728167E+03  0.18891142698E+03 0.  0.
        -13    1    4    4    0    0 -0.41061272537E+01 -0.23262716848E+03 -0.20104057303E+03  0.30748915910E+03  0.10566000000E+00 0. -1.
     200003    1    4    4    0    0 -0.78243872075E+00  0.31365564439E+02 -0.38145199794E+02  0.57788122571E+02  0.30000000000E+02 0. -1.
     200000    1    3    3    0    0 -0.11749376011E+03 -0.70673140937E+03 -0.97603628553E+03  0.13099316392E+04  0.50000000000E+03 0.  1.
    -200001    1    1    2    0    0  0.12238232608E+03  0.90799301341E+03  0.76218769200E+01  0.11530337546E+04  0.70000000000E+03 0.  1.
<mgrwt>
<rscale>  0 0.25574711E+04</rscale>
<asrwt>0</asrwt>
<pdfrwt beam="1">  1        1 0.28827449E+00 0.25574711E+04</pdfrwt>
<pdfrwt beam="2">  1       -1 0.11576018E+00 0.25574711E+04</pdfrwt>
<totfact> 0.21807881E+00</totfact>
</mgrwt>
</event>
<event>
 8    1  0.2402290E-028  0.1550788E+04  0.7818608E-02  0.8851365E-01
         -1   -1    0    0    0  501 -0.00000000000E+00  0.00000000000E+00  0.34033826019E+03  0.34033826023E+03  0.50400000000E-02 0. -1.
          1   -1    0    0  501    0  0.00000000000E+00 -0.00000000000E+00 -0.17665823980E+04  0.17665823980E+04  0.50400000000E-02 0.  1.
     200001    2    1    2    0    0  0.27528095697E+03  0.39296334352E+02 -0.96215646373E+03  0.12222166533E+04  0.70053171208E+03 0.  0.
    5000001    2    3    3    0    0  0.34742637134E+02  0.16068466484E+02 -0.20546783498E+03  0.28361349002E+03  0.19171419890E+03 0.  0.
        -13    1    4    4    0    0 -0.71843471457E+02  0.36705158074E+02 -0.65260378578E+02  0.10376743803E+03  0.10566000000E+00 0. -1.
     200003    1    4    4    0    0  0.10658610859E+03 -0.20636691590E+02 -0.14020745640E+03  0.17984605198E+03  0.30000000000E+02 0. -1.
     200000    1    3    3    0    0  0.24053831984E+03  0.23227867868E+02 -0.75668862875E+03  0.93860316324E+03  0.50000000000E+03 0.  1.
    -200001    1    1    2    0    0 -0.27528095697E+03 -0.39296334352E+02 -0.46408767405E+03  0.88470400495E+03  0.70000000000E+03 0. -1.
<mgrwt>
<rscale>  0 0.15507876E+04</rscale>
<asrwt>0</asrwt>
<pdfrwt beam="1">  1        1 0.25236891E+00 0.15507876E+04</pdfrwt>
<pdfrwt beam="2">  1       -1 0.48619753E-01 0.15507876E+04</pdfrwt>
<totfact> 0.21390162E+01</totfact>
</mgrwt>
</event>
<event>
 8    1  0.2402290E-028  0.1554103E+04  0.7818608E-02  0.8849251E-01
         -1   -1    0    0    0  501 -0.00000000000E+00  0.00000000000E+00  0.49149472144E+03  0.49149472147E+03  0.50400000000E-02 0. -1.
          1   -1    0    0  501    0  0.00000000000E+00 -0.00000000000E+00 -0.12285159417E+04  0.12285159417E+04  0.50400000000E-02 0.  1.
     200001    2    1    2    0    0 -0.32705669083E+03  0.40193511083E+00 -0.28500504942E+03  0.82486550216E+03  0.70157606708E+03 0.  0.
    5000001    2    3    3    0    0 -0.10026295807E+03  0.10354955866E+03 -0.30120872556E+02  0.21082904308E+03  0.15088554134E+03 0.  0.
        -13    1    4    4    0    0 -0.11613045219E+03  0.93491583578E+02  0.18989596260E+02  0.15029163002E+03  0.10566000000E+00 0. -1.
     200003    1    4    4    0    0  0.15867494120E+02  0.10057975081E+02 -0.49110468816E+02  0.60537413057E+02  0.30000000000E+02 0. -1.
     200000    1    3    3    0    0 -0.22679373276E+03 -0.10314762355E+03 -0.25488417686E+03  0.61403645908E+03  0.50000000000E+03 0. -1.
    -200001    1    1    2    0    0  0.32705669083E+03 -0.40193511083E+00 -0.45201617081E+03  0.89514516099E+03  0.70000000000E+03 0.  1.
<mgrwt>
<rscale>  0 0.15541031E+04</rscale>
<asrwt>0</asrwt>
<pdfrwt beam="1">  1        1 0.17550228E+00 0.15541031E+04</pdfrwt>
<pdfrwt beam="2">  1       -1 0.70213532E-01 0.15541031E+04</pdfrwt>
<totfact> 0.23397258E+01</totfact>
</mgrwt>
</event>
<event>
 8    1  0.2402290E-028  0.1698925E+04  0.7818608E-02  0.8761978E-01
          1   -1    0    0  501    0  0.00000000000E+00  0.00000000000E+00  0.61537635184E+03  0.61537635186E+03  0.50400000000E-02 0.  1.
         -1   -1    0    0    0  501 -0.00000000000E+00 -0.00000000000E+00 -0.11725938249E+04  0.11725938249E+04  0.50400000000E-02 0. -1.
     200001    2    1    2    0    0  0.35530652985E+02  0.24527511563E+02 -0.78241483666E+03  0.10513713180E+04  0.70095980309E+03 0.  0.
    5000001    2    3    3    0    0  0.80350525755E+02  0.16305061919E+02 -0.10207768795E+03  0.20583298912E+03  0.15882475563E+03 0.  0.
        -13    1    4    4    0    0  0.67561021648E+02 -0.54125778378E+02 -0.94015153459E+02  0.12780043730E+03  0.10566000000E+00 0. -1.
     200003    1    4    4    0    0  0.12789504107E+02  0.70430840297E+02 -0.80625344865E+01  0.78032551814E+02  0.30000000000E+02 0. -1.
     200000    1    3    3    0    0 -0.44819872769E+02  0.82224496436E+01 -0.68033714871E+03  0.84553832887E+03  0.50000000000E+03 0. -1.
    -200001    1    1    2    0    0 -0.35530652985E+02 -0.24527511563E+02  0.22519736363E+03  0.73659885875E+03  0.70000000000E+03 0.  1.
<mgrwt>
<rscale>  0 0.16989250E+04</rscale>
<asrwt>0</asrwt>
<pdfrwt beam="1">  1        1 0.87910908E-01 0.16989250E+04</pdfrwt>
<pdfrwt beam="2">  1       -1 0.16751340E+00 0.16989250E+04</pdfrwt>
<totfact> 0.90034478E+00</totfact>
</mgrwt>
</event>
<event>
 8    1  0.2402290E-028  0.1664137E+04  0.7818608E-02  0.8782087E-01
          1   -1    0    0  501    0  0.00000000000E+00  0.00000000000E+00  0.31598378580E+04  0.31598378580E+04  0.50400000000E-02 0.  1.
         -1   -1    0    0    0  501 -0.00000000000E+00 -0.00000000000E+00 -0.21910558088E+03  0.21910558094E+03  0.50400000000E-02 0. -1.
     200001    2    1    2    0    0 -0.31800281703E+03 -0.22278322826E+03  0.10085344846E+04  0.12874974158E+04  0.69982114182E+03 0.  0.
    5000001    2    3    3    0    0 -0.14507206719E+03 -0.59265765681E+02  0.44423864400E+03  0.49688195896E+03  0.15806762054E+03 0.  0.
        -13    1    4    4    0    0 -0.15448403407E+02 -0.63436368678E+02  0.26904333924E+03  0.27685222700E+03  0.10566000000E+00 0. -1.
     200003    1    4    4    0    0 -0.12962366378E+03  0.41706029973E+01  0.17519530476E+03  0.22002973197E+03  0.30000000000E+02 0. -1.
     200000    1    3    3    0    0 -0.17293074984E+03 -0.16351746258E+03  0.56429584060E+03  0.79061545680E+03  0.50000000000E+03 0. -1.
    -200001    1    1    2    0    0  0.31800281703E+03  0.22278322826E+03  0.19321977925E+04  0.20914460231E+04  0.70000000000E+03 0. -1.
<mgrwt>
<rscale>  0 0.16641371E+04</rscale>
<asrwt>0</asrwt>
<pdfrwt beam="1">  1        1 0.45140542E+00 0.16641371E+04</pdfrwt>
<pdfrwt beam="2">  1       -1 0.31300797E-01 0.16641371E+04</pdfrwt>
<totfact> 0.60653879E+00</totfact>
</mgrwt>
</event>
<event>
 8    1  0.2402290E-028  0.1479382E+04  0.7818608E-02  0.8898280E-01
          1   -1    0    0  501    0  0.00000000000E+00  0.00000000000E+00  0.16721456899E+04  0.16721456899E+04  0.50400000000E-02 0.  1.
         -1   -1    0    0    0  501 -0.00000000000E+00 -0.00000000000E+00 -0.32721020790E+03  0.32721020794E+03  0.50400000000E-02 0. -1.
     200001    2    1    2    0    0 -0.33465872312E+02 -0.14508891306E+02  0.34944275998E+03  0.78184358492E+03  0.69845449118E+03 0.  0.
    5000001    2    3    3    0    0  0.18720522525E+02 -0.71497486583E+02  0.14116165828E+03  0.23471276224E+03  0.17234012429E+03 0.  0.
        -13    1    4    4    0    0  0.72218807307E+02 -0.66196501775E+02  0.14274381338E+03  0.17312810401E+03  0.10566000000E+00 0. -1.
     200003    1    4    4    0    0 -0.53498284781E+02 -0.53009848078E+01 -0.15821551064E+01  0.61584658230E+02  0.30000000000E+02 0. -1.
     200000    1    3    3    0    0 -0.52186394837E+02  0.56988595277E+02  0.20828110170E+03  0.54713082268E+03  0.50000000000E+03 0. -1.
    -200001    1    1    2    0    0  0.33465872312E+02  0.14508891306E+02  0.99549272207E+03  0.12175123130E+04  0.70000000000E+03 0.  1.
<mgrwt>
<rscale>  0 0.14793825E+04</rscale>
<asrwt>0</asrwt>
<pdfrwt beam="1">  1        1 0.23887796E+00 0.14793825E+04</pdfrwt>
<pdfrwt beam="2">  1       -1 0.46744315E-01 0.14793825E+04</pdfrwt>
<totfact> 0.26616959E+01</totfact>
</mgrwt>
</event>
<event>
 8    1  0.2402290E-028  0.2278757E+04  0.7818608E-02  0.8486344E-01
         -1   -1    0    0    0  501 -0.00000000000E+00  0.00000000000E+00  0.10508198329E+04  0.10508198329E+04  0.50400000000E-02 0. -1.
          1   -1    0    0  501    0  0.00000000000E+00 -0.00000000000E+00 -0.12354000046E+04  0.12354000046E+04  0.50400000000E-02 0.  1.
     200001    2    1    2    0    0 -0.75332304130E+03  0.48461854722E+03 -0.39258473611E+01  0.11351391602E+04  0.69726233217E+03 0.  0.
    5000001    2    3    3    0    0 -0.14072512896E+03  0.14909011198E+03 -0.17105637976E+02  0.27605287819E+03  0.18406837125E+03 0.  0.
        -13    1    4    4    0    0  0.22169198465E+02 -0.12898835065E+02  0.30170867607E+02  0.39599819732E+02  0.10566000000E+00 0. -1.
     200003    1    4    4    0    0 -0.16289432743E+03  0.16198894705E+03 -0.47276505583E+02  0.23645305846E+03  0.30000000000E+02 0. -1.
     200000    1    3    3    0    0 -0.61259791233E+03  0.33552843524E+03  0.13179790615E+02  0.85908628201E+03  0.50000000000E+03 0.  1.
    -200001    1    1    2    0    0  0.75332304130E+03 -0.48461854722E+03 -0.18065432434E+03  0.11510806773E+04  0.70000000000E+03 0.  1.
<mgrwt>
<rscale>  0 0.22787565E+04</rscale>
<asrwt>0</asrwt>
<pdfrwt beam="1">  1        1 0.17648571E+00 0.22787565E+04</pdfrwt>
<pdfrwt beam="2">  1       -1 0.15011712E+00 0.22787565E+04</pdfrwt>
<totfact> 0.37062266E+00</totfact>
</mgrwt>
</event>
<event>
 8    1  0.2402290E-028  0.1589709E+04  0.7818608E-02  0.8826895E-01
         -1   -1    0    0    0  501 -0.00000000000E+00  0.00000000000E+00  0.61468103183E+03  0.61468103185E+03  0.50400000000E-02 0. -1.
          1   -1    0    0  501    0  0.00000000000E+00 -0.00000000000E+00 -0.10278399400E+04  0.10278399400E+04  0.50400000000E-02 0.  1.
     200001    2    1    2    0    0  0.32830416165E+03  0.17922002604E+03 -0.15915172906E+03  0.80920045287E+03  0.69969469040E+03 0.  0.
    5000001    2    3    3    0    0  0.10922158145E+03  0.94053872336E+02  0.18773584208E+02  0.22876280094E+03  0.17664791783E+03 0.  0.
        -13    1    4    4    0    0  0.12411049832E+02 -0.18620490281E+02 -0.55608268778E+02  0.59942034807E+02  0.10566000000E+00 0. -1.
     200003    1    4    4    0    0  0.96810531621E+02  0.11267436262E+03  0.74381852986E+02  0.16882076613E+03  0.30000000000E+02 0. -1.
     200000    1    3    3    0    0  0.21908258019E+03  0.85166153707E+02 -0.17792531327E+03  0.58043765193E+03  0.50000000000E+03 0.  1.
    -200001    1    1    2    0    0 -0.32830416165E+03 -0.17922002604E+03 -0.25400717907E+03  0.83332051895E+03  0.70000000000E+03 0. -1.
<mgrwt>
<rscale>  0 0.15897090E+04</rscale>
<asrwt>0</asrwt>
<pdfrwt beam="1">  1        1 0.14683428E+00 0.15897090E+04</pdfrwt>
<pdfrwt beam="2">  1       -1 0.87811576E-01 0.15897090E+04</pdfrwt>
<totfact> 0.20196617E+01</totfact>
</mgrwt>
</event>
<event>
 8    1  0.2402290E-028  0.1442124E+04  0.7818608E-02  0.8923879E-01
          1   -1    0    0  501    0  0.00000000000E+00  0.00000000000E+00  0.74737680401E+03  0.74737680402E+03  0.50400000000E-02 0.  1.
         -1   -1    0    0    0  501 -0.00000000000E+00 -0.00000000000E+00 -0.69567360097E+03  0.69567360099E+03  0.50400000000E-02 0. -1.
     200001    2    1    2    0    0  0.14029314636E+03 -0.49860654190E+02 -0.60569552966E+02  0.71863793722E+03  0.70043098326E+03 0.  0.
    5000001    2    3    3    0    0 -0.33677835829E+01  0.75084982197E+01 -0.19099660912E+02  0.19361466689E+03  0.19249447440E+03 0.  0.
        -13    1    4    4    0    0  0.51460329817E+01  0.13699064280E+02 -0.10292626524E+03  0.10396140273E+03  0.10566000000E+00 0. -1.
     200003    1    4    4    0    0 -0.85138165645E+01 -0.61905660601E+01  0.83826604330E+02  0.89653264157E+02  0.30000000000E+02 0. -1.
     200000    1    3    3    0    0  0.14366092994E+03 -0.57369152409E+02 -0.41469892055E+02  0.52502327033E+03  0.50000000000E+03 0.  1.
    -200001    1    1    2    0    0 -0.14029314636E+03  0.49860654190E+02  0.11227275600E+03  0.72441246779E+03  0.70000000000E+03 0. -1.
<mgrwt>
<rscale>  0 0.14421239E+04</rscale>
<asrwt>0</asrwt>
<pdfrwt beam="1">  1        1 0.10676811E+00 0.14421239E+04</pdfrwt>
<pdfrwt beam="2">  1       -1 0.99381944E-01 0.14421239E+04</pdfrwt>
<totfact> 0.26005875E+01</totfact>
</mgrwt>
</event>
<event>
 8    1  0.2402290E-028  0.1842218E+04  0.7818608E-02  0.8684165E-01
         -1   -1    0    0    0  501 -0.00000000000E+00  0.00000000000E+00  0.58917424345E+03  0.58917424347E+03  0.50400000000E-02 0. -1.
          1   -1    0    0  501    0  0.00000000000E+00 -0.00000000000E+00 -0.14400521870E+04  0.14400521871E+04  0.50400000000E-02 0.  1.
     200001    2    1    2    0    0 -0.49578916280E+02 -0.10233754384E+03 -0.10728334382E+04  0.12861279960E+04  0.70015897783E+03 0.  0.
    5000001    2    3    3    0    0 -0.33595545481E+02 -0.95322809236E+02 -0.19022441220E+03  0.27158210381E+03  0.16539774326E+03 0.  0.
        -13    1    4    4    0    0  0.20191960658E+02 -0.11457757299E+03 -0.71789947584E+02  0.13670970429E+03  0.10566000000E+00 0. -1.
     200003    1    4    4    0    0 -0.53787506139E+02  0.19254763759E+02 -0.11843446462E+03  0.13487239952E+03  0.30000000000E+02 0. -1.
     200000    1    3    3    0    0 -0.15983370799E+02 -0.70147345996E+01 -0.88260902597E+03  0.10145458922E+04  0.50000000000E+03 0.  1.
    -200001    1    1    2    0    0  0.49578916280E+02  0.10233754384E+03  0.22195549457E+03  0.74309843452E+03  0.70000000000E+03 0. -1.
<mgrwt>
<rscale>  0 0.18422179E+04</rscale>
<asrwt>0</asrwt>
<pdfrwt beam="1">  1        1 0.20572174E+00 0.18422179E+04</pdfrwt>
<pdfrwt beam="2">  1       -1 0.84167750E-01 0.18422179E+04</pdfrwt>
<totfact> 0.11231465E+01</totfact>
</mgrwt>
</event>
<event>
 8    1  0.2402290E-028  0.1829630E+04  0.7818608E-02  0.8690699E-01
          1   -1    0    0  501    0  0.00000000000E+00  0.00000000000E+00  0.13898174467E+04  0.13898174467E+04  0.50400000000E-02 0.  1.
         -1   -1    0    0    0  501 -0.00000000000E+00 -0.00000000000E+00 -0.60215572171E+03  0.60215572173E+03  0.50400000000E-02 0. -1.
     200001    2    1    2    0    0  0.34893989447E+02 -0.45282270015E+03 -0.12437773731E+02  0.83593458946E+03  0.70168793019E+03 0.  0.
    5000001    2    3    3    0    0 -0.33986098734E+02 -0.16727345571E+03 -0.91434236679E+02  0.25067970593E+03  0.15919997309E+03 0.  0.
        -13    1    4    4    0    0 -0.92505581961E+02 -0.12350079141E+03 -0.64074765933E+02  0.16707876875E+03  0.10566000000E+00 0. -1.
     200003    1    4    4    0    0  0.58519483227E+02 -0.43772664303E+02 -0.27359470746E+02  0.83600937177E+02  0.30000000000E+02 0. -1.
     200000    1    3    3    0    0  0.68880088181E+02 -0.28554924444E+03  0.78996462947E+02  0.58525488354E+03  0.50000000000E+03 0.  1.
    -200001    1    1    2    0    0 -0.34893989447E+02  0.45282270015E+03  0.80009949876E+03  0.11560385790E+04  0.70000000000E+03 0. -1.
<mgrwt>
<rscale>  0 0.18296300E+04</rscale>
<asrwt>0</asrwt>
<pdfrwt beam="1">  1        1 0.19854535E+00 0.18296300E+04</pdfrwt>
<pdfrwt beam="2">  1       -1 0.86022248E-01 0.18296300E+04</pdfrwt>
<totfact> 0.11578315E+01</totfact>
</mgrwt>
</event>
<event>
 8    1  0.2402290E-028  0.1586716E+04  0.7818608E-02  0.8828751E-01
         -1   -1    0    0    0  501 -0.00000000000E+00  0.00000000000E+00  0.26202282621E+03  0.26202282626E+03  0.50400000000E-02 0. -1.
          1   -1    0    0  501    0  0.00000000000E+00 -0.00000000000E+00 -0.24021440567E+04  0.24021440567E+04  0.50400000000E-02 0.  1.
     200001    2    1    2    0    0 -0.26789557478E+03 -0.42912423263E+02 -0.15029095240E+04  0.16794596808E+04  0.69874048626E+03 0.  0.
    5000001    2    3    3    0    0 -0.10731188356E+03 -0.32514475624E+02 -0.45392916033E+03  0.50632071098E+03  0.19425742790E+03 0.  0.
        -13    1    4    4    0    0  0.44694614438E+02 -0.51301758621E+01 -0.21898354312E+03  0.22355699628E+03  0.10566000000E+00 0. -1.
     200003    1    4    4    0    0 -0.15200649799E+03 -0.27384299762E+02 -0.23494561721E+03  0.28276371470E+03  0.30000000000E+02 0. -1.
     200000    1    3    3    0    0 -0.16058369122E+03 -0.10397947639E+02 -0.10489803636E+04  0.11731389698E+04  0.50000000000E+03 0. -1.
    -200001    1    1    2    0    0  0.26789557478E+03  0.42912423263E+02 -0.63721170648E+03  0.98470720213E+03  0.70000000000E+03 0.  1.
<mgrwt>
<rscale>  0 0.15867156E+04</rscale>
<asrwt>0</asrwt>
<pdfrwt beam="1">  1        1 0.34316342E+00 0.15867156E+04</pdfrwt>
<pdfrwt beam="2">  1       -1 0.37431834E-01 0.15867156E+04</pdfrwt>
<totfact> 0.13746599E+01</totfact>
</mgrwt>
</event>
<event>
 8    1  0.2402290E-028  0.1736232E+04  0.7818608E-02  0.8740966E-01
          1   -1    0    0  501    0  0.00000000000E+00  0.00000000000E+00  0.14334546754E+04  0.14334546754E+04  0.50400000000E-02 0.  1.
         -1   -1    0    0    0  501 -0.00000000000E+00 -0.00000000000E+00 -0.52574052199E+03  0.52574052202E+03  0.50400000000E-02 0. -1.
     200001    2    1    2    0    0  0.17340527332E+03 -0.47247468027E+03  0.55663991204E+03  0.10283059262E+04  0.70303867167E+03 0.  0.
    5000001    2    3    3    0    0  0.10716673583E+03 -0.10188059294E+03  0.18641839453E+03  0.30112541666E+03  0.18455442085E+03 0.  0.
        -13    1    4    4    0    0  0.74128284286E+02 -0.68399938268E+01  0.18131801636E+03  0.19600515878E+03  0.10566000000E+00 0. -1.
     200003    1    4    4    0    0  0.33038451540E+02 -0.95040599112E+02  0.51003781656E+01  0.10512025788E+03  0.30000000000E+02 0. -1.
     200000    1    3    3    0    0  0.66238537491E+02 -0.37059408733E+03  0.37022151751E+03  0.72718050953E+03  0.50000000000E+03 0.  1.
    -200001    1    1    2    0    0 -0.17340527332E+03  0.47247468027E+03  0.35107424134E+03  0.93088927120E+03  0.70000000000E+03 0.  1.
<mgrwt>
<rscale>  0 0.17362318E+04</rscale>
<asrwt>0</asrwt>
<pdfrwt beam="1">  1        1 0.20477924E+00 0.17362318E+04</pdfrwt>
<pdfrwt beam="2">  1       -1 0.75105790E-01 0.17362318E+04</pdfrwt>
<totfact> 0.14583121E+01</totfact>
</mgrwt>
</event>
<event>
 8    1  0.2402290E-028  0.3084465E+04  0.7818608E-02  0.8220014E-01
         -1   -1    0    0    0  501 -0.00000000000E+00  0.00000000000E+00  0.12288627364E+04  0.12288627364E+04  0.50400000000E-02 0. -1.
          1   -1    0    0  501    0  0.00000000000E+00 -0.00000000000E+00 -0.19355135281E+04  0.19355135281E+04  0.50400000000E-02 0.  1.
     200001    2    1    2    0    0  0.78775604353E+03  0.99996145592E+03 -0.88438135554E+03  0.17007948180E+04  0.70006437798E+03 0.  0.
    5000001    2    3    3    0    0  0.21098817660E+03  0.28589576204E+03 -0.15180994448E+03  0.42438898132E+03  0.17552022905E+03 0.  0.
        -13    1    4    4    0    0  0.25293568295E+02 -0.23288637239E+02 -0.12059519832E+02  0.36435812111E+02  0.10566000000E+00 0. -1.
     200003    1    4    4    0    0  0.18569460831E+03  0.30918439928E+03 -0.13975042465E+03  0.38795316921E+03  0.30000000000E+02 0. -1.
     200000    1    3    3    0    0  0.57676786693E+03  0.71406569388E+03 -0.73257141106E+03  0.12764058366E+04  0.50000000000E+03 0.  1.
    -200001    1    1    2    0    0 -0.78775604353E+03 -0.99996145592E+03  0.17773056380E+03  0.14635814466E+04  0.70000000000E+03 0. -1.
<mgrwt>
<rscale>  0 0.30844646E+04</rscale>
<asrwt>0</asrwt>
<pdfrwt beam="1">  1        1 0.27650193E+00 0.30844646E+04</pdfrwt>
<pdfrwt beam="2">  1       -1 0.17555182E+00 0.30844646E+04</pdfrwt>
<totfact> 0.78104468E-01</totfact>
</mgrwt>
</event>
<event>
 8    1  0.2402290E-028  0.1666619E+04  0.7818608E-02  0.8780635E-01
          1   -1    0    0  501    0  0.00000000000E+00  0.00000000000E+00  0.44376787287E+03  0.44376787289E+03  0.50400000000E-02 0.  1.
         -1   -1    0    0    0  501 -0.00000000000E+00 -0.00000000000E+00 -0.15647926725E+04  0.15647926725E+04  0.50400000000E-02 0. -1.
     200001    2    1    2    0    0 -0.10920197241E+03 -0.13963978030E+03 -0.10620023522E+04  0.12840552050E+04  0.69966022777E+03 0.  0.
    5000001    2    3    3    0    0 -0.22152351913E+02  0.40812231736E+02 -0.15700453363E+03  0.23088778395E+03  0.16279551666E+03 0.  0.
        -13    1    4    4    0    0  0.58833241247E+02 -0.21418217353E+02 -0.64007829314E+02  0.89538280572E+02  0.10566000000E+00 0. -1.
     200003    1    4    4    0    0 -0.80985593160E+02  0.62230449089E+02 -0.92996704314E+02  0.14134950338E+03  0.30000000000E+02 0. -1.
     200000    1    3    3    0    0 -0.87049620499E+02 -0.18045201203E+03 -0.90499781855E+03  0.10531674210E+04  0.50000000000E+03 0. -1.
    -200001    1    1    2    0    0  0.10920197241E+03  0.13963978030E+03 -0.59022447446E+02  0.72450534044E+03  0.70000000000E+03 0.  1.
<mgrwt>
<rscale>  0 0.16666190E+04</rscale>
<asrwt>0</asrwt>
<pdfrwt beam="1">  1        1 0.63395411E-01 0.16666190E+04</pdfrwt>
<pdfrwt beam="2">  1       -1 0.22354181E+00 0.16666190E+04</pdfrwt>
<totfact> 0.57481599E+00</totfact>
</mgrwt>
</event>
<event>
 8    1  0.2402290E-028  0.1502250E+04  0.7818608E-02  0.8882958E-01
          1   -1    0    0  501    0  0.00000000000E+00  0.00000000000E+00  0.72584274958E+03  0.72584274959E+03  0.50400000000E-02 0. -1.
         -1   -1    0    0    0  501 -0.00000000000E+00 -0.00000000000E+00 -0.77728829759E+03  0.77728829761E+03  0.50400000000E-02 0.  1.
     200001    2    1    2    0    0 -0.14207607136E+03  0.13856649546E+02 -0.25365735126E+03  0.76065732365E+03  0.70276588946E+03 0.  0.
    5000001    2    3    3    0    0 -0.50041311804E+02 -0.29806681014E+02  0.99998780446E+01  0.18629505298E+03  0.17667279950E+03 0.  0.
        -13    1    4    4    0    0 -0.59648984479E+02 -0.94373426145E+02 -0.89335339262E+01  0.11200073261E+03  0.10566000000E+00 0. -1.
     200003    1    4    4    0    0  0.96076726754E+01  0.64566745131E+02  0.18933411971E+02  0.74294320375E+02  0.30000000000E+02 0. -1.
     200000    1    3    3    0    0 -0.92034759558E+02  0.43663330560E+02 -0.26365722931E+03  0.57436227067E+03  0.50000000000E+03 0.  1.
    -200001    1    1    2    0    0  0.14207607136E+03 -0.13856649546E+02  0.20221180325E+03  0.74247372355E+03  0.70000000000E+03 0. -1.
<mgrwt>
<rscale>  0 0.15022504E+04</rscale>
<asrwt>0</asrwt>
<pdfrwt beam="1">  1        1 0.10369182E+00 0.15022504E+04</pdfrwt>
<pdfrwt beam="2">  1       -1 0.11104118E+00 0.15022504E+04</pdfrwt>
<totfact> 0.20886802E+01</totfact>
</mgrwt>
</event>
<event>
 8    1  0.2402290E-028  0.1678101E+04  0.7818608E-02  0.8773954E-01
          1   -1    0    0  501    0  0.00000000000E+00  0.00000000000E+00  0.15629705507E+04  0.15629705507E+04  0.50400000000E-02 0. -1.
         -1   -1    0    0    0  501 -0.00000000000E+00 -0.00000000000E+00 -0.45042775989E+03  0.45042775992E+03  0.50400000000E-02 0.  1.
     200001    2    1    2    0    0  0.17704866261E+03 -0.14729965933E+03  0.75604335437E+02  0.74128008546E+03  0.70052603877E+03 0.  0.
    5000001    2    3    3    0    0  0.65830125582E+02 -0.19373528498E+03  0.20853544858E+02  0.22405336595E+03  0.88871111050E+02 0.  0.
        -13    1    4    4    0    0  0.52294989642E+02 -0.10580090589E+03  0.46296702899E+02  0.12677536627E+03  0.10566000000E+00 0. -1.
     200003    1    4    4    0    0  0.13535135940E+02 -0.87934379090E+02 -0.25443158042E+02  0.97277999682E+02  0.30000000000E+02 0. -1.
     200000    1    3    3    0    0  0.11121853703E+03  0.46435625643E+02  0.54750790579E+02  0.51722671951E+03  0.50000000000E+03 0.  1.
    -200001    1    1    2    0    0 -0.17704866261E+03  0.14729965933E+03  0.10369384554E+04  0.12721182252E+04  0.70000000000E+03 0. -1.
<mgrwt>
<rscale>  0 0.16781005E+04</rscale>
<asrwt>0</asrwt>
<pdfrwt beam="1">  1        1 0.22328151E+00 0.16781005E+04</pdfrwt>
<pdfrwt beam="2">  1       -1 0.64346822E-01 0.16781005E+04</pdfrwt>
<totfact> 0.16557260E+01</totfact>
</mgrwt>
</event>
<event>
 8    1  0.2402290E-028  0.1440953E+04  0.7818608E-02  0.8924697E-01
         -1   -1    0    0    0  501 -0.00000000000E+00  0.00000000000E+00  0.80557428571E+03  0.80557428573E+03  0.50400000000E-02 0. -1.
          1   -1    0    0  501    0  0.00000000000E+00 -0.00000000000E+00 -0.64436820573E+03  0.64436820575E+03  0.50400000000E-02 0.  1.
     200001    2    1    2    0    0  0.57592245909E+02 -0.15243962284E+03  0.28455634425E+02  0.71906809311E+03  0.69978174740E+03 0.  0.
    5000001    2    3    3    0    0 -0.65477432048E+02 -0.30965548296E+02  0.26825020621E+02  0.19000783631E+03  0.17360079735E+03 0.  0.
        -13    1    4    4    0    0 -0.86773155731E+02 -0.24263399012E+02 -0.51093584410E+02  0.10358020380E+03  0.10566000000E+00 0. -1.
     200003    1    4    4    0    0  0.21295723684E+02 -0.67021492843E+01  0.77918605031E+02  0.86427632515E+02  0.30000000000E+02 0. -1.
     200000    1    3    3    0    0  0.12306967796E+03 -0.12147407454E+03  0.16306138044E+01  0.52906025679E+03  0.50000000000E+03 0. -1.
    -200001    1    1    2    0    0 -0.57592245909E+02  0.15243962284E+03  0.13275044556E+03  0.73087439837E+03  0.70000000000E+03 0. -1.
<mgrwt>
<rscale>  0 0.14409531E+04</rscale>
<asrwt>0</asrwt>
<pdfrwt beam="1">  1        1 0.92052601E-01 0.14409531E+04</pdfrwt>
<pdfrwt beam="2">  1       -1 0.11508204E+00 0.14409531E+04</pdfrwt>
<totfact> 0.22962279E+01</totfact>
</mgrwt>
</event>
<event>
 8    1  0.2402290E-028  0.1416856E+04  0.7818608E-02  0.8941707E-01
         -1   -1    0    0    0  501 -0.00000000000E+00  0.00000000000E+00  0.36749827778E+03  0.36749827781E+03  0.50400000000E-02 0. -1.
          1   -1    0    0  501    0  0.00000000000E+00 -0.00000000000E+00 -0.13656400571E+04  0.13656400571E+04  0.50400000000E-02 0.  1.
     200001    2    1    2    0    0 -0.10938505157E+03 -0.29512094120E+02 -0.52280926839E+03  0.87945393822E+03  0.69804988727E+03 0.  0.
    5000001    2    3    3    0    0 -0.12508006435E+03  0.40596977802E+02 -0.37096111225E+02  0.17868372878E+03  0.11514606531E+03 0.  0.
        -13    1    4    4    0    0 -0.88332653823E+02  0.74038188493E+02 -0.13559122412E+02  0.11605245388E+03  0.10566000000E+00 0. -1.
     200003    1    4    4    0    0 -0.36747410531E+02 -0.33441210691E+02 -0.23536988813E+02  0.62631274900E+02  0.30000000000E+02 0. -1.
     200000    1    3    3    0    0  0.15695012779E+02 -0.70109071923E+02 -0.48571315717E+03  0.70077020944E+03  0.50000000000E+03 0.  1.
    -200001    1    1    2    0    0  0.10938505157E+03  0.29512094120E+02 -0.47533251090E+03  0.85368439667E+03  0.70000000000E+03 0. -1.
<mgrwt>
<rscale>  0 0.14168562E+04</rscale>
<asrwt>0</asrwt>
<pdfrwt beam="1">  1        1 0.19509143E+00 0.14168562E+04</pdfrwt>
<pdfrwt beam="2">  1       -1 0.52499755E-01 0.14168562E+04</pdfrwt>
<totfact> 0.33996226E+01</totfact>
</mgrwt>
</event>
<event>
 8    1  0.2402290E-028  0.2762033E+04  0.7818608E-02  0.8315154E-01
          1   -1    0    0  501    0  0.00000000000E+00  0.00000000000E+00  0.10571324815E+04  0.10571324815E+04  0.50400000000E-02 0. -1.
         -1   -1    0    0    0  501 -0.00000000000E+00 -0.00000000000E+00 -0.18041313837E+04  0.18041313837E+04  0.50400000000E-02 0.  1.
     200001    2    1    2    0    0  0.14766945445E+03 -0.58509476583E+03 -0.14363872698E+04  0.17082684298E+04  0.70059295369E+03 0.  0.
    5000001    2    3    3    0    0  0.81232693395E+01  0.97362915706E+00 -0.12492210425E+03  0.18088826045E+03  0.13056835444E+03 0.  0.
        -13    1    4    4    0    0 -0.48096115232E+02  0.24652243661E+02 -0.88678046151E+02  0.10384977829E+03  0.10566000000E+00 0. -1.
     200003    1    4    4    0    0  0.56219384571E+02 -0.23678614504E+02 -0.36244058101E+02  0.77038482163E+02  0.30000000000E+02 0. -1.
     200000    1    3    3    0    0  0.13954618511E+03 -0.58606839498E+03 -0.13114651655E+04  0.15273801693E+04  0.50000000000E+03 0.  1.
    -200001    1    1    2    0    0 -0.14766945445E+03  0.58509476583E+03  0.68938836750E+03  0.11529954354E+04  0.70000000000E+03 0. -1.
<mgrwt>
<rscale>  0 0.27620325E+04</rscale>
<asrwt>0</asrwt>
<pdfrwt beam="1">  1        1 0.15101893E+00 0.27620325E+04</pdfrwt>
<pdfrwt beam="2">  1       -1 0.25773305E+00 0.27620325E+04</pdfrwt>
<totfact> 0.84913387E-01</totfact>
</mgrwt>
</event>
<event>
 8    1  0.2402290E-028  0.1539164E+04  0.7818608E-02  0.8858819E-01
         -1   -1    0    0    0  501 -0.00000000000E+00  0.00000000000E+00  0.20694758919E+04  0.20694758919E+04  0.50400000000E-02 0. -1.
          1   -1    0    0  501    0  0.00000000000E+00 -0.00000000000E+00 -0.28618655498E+03  0.28618655502E+03  0.50400000000E-02 0.  1.
     200001    2    1    2    0    0  0.36202478626E+02 -0.90236893656E+02  0.13576186728E+04  0.15306480042E+04  0.70021534937E+03 0.  0.
    5000001    2    3    3    0    0  0.35576694564E+02 -0.44586700732E+02  0.15981541995E+03  0.23187282568E+03  0.15802013718E+03 0.  0.
        -13    1    4    4    0    0  0.31624445483E+02  0.51915945373E+02  0.31420459076E+02  0.68429725622E+02  0.10566000000E+00 0. -1.
     200003    1    4    4    0    0  0.39522490807E+01 -0.96502646105E+02  0.12839496087E+03  0.16344310006E+03  0.30000000000E+02 0. -1.
     200000    1    3    3    0    0  0.62578406144E+00 -0.45650192924E+02  0.11978032528E+04  0.12987751785E+04  0.50000000000E+03 0. -1.
    -200001    1    1    2    0    0 -0.36202478626E+02  0.90236893656E+02  0.42567066408E+03  0.82501444272E+03  0.70000000000E+03 0.  1.
<mgrwt>
<rscale>  0 0.15391636E+04</rscale>
<asrwt>0</asrwt>
<pdfrwt beam="1">  1        1 0.40883795E-01 0.15391636E+04</pdfrwt>
<pdfrwt beam="2">  1       -1 0.29563941E+00 0.15391636E+04</pdfrwt>
<totfact> 0.35040104E+00</totfact>
</mgrwt>
</event>
<event>
 8    1  0.2402290E-028  0.1717257E+04  0.7818608E-02  0.8751583E-01
          1   -1    0    0  501    0  0.00000000000E+00  0.00000000000E+00  0.22778995452E+04  0.22778995452E+04  0.50400000000E-02 0.  1.
         -1   -1    0    0    0  501 -0.00000000000E+00 -0.00000000000E+00 -0.32365036456E+03  0.32365036459E+03  0.50400000000E-02 0. -1.
     200001    2    1    2    0    0  0.32249039094E+02  0.49263231917E+03  0.90809036096E+03  0.12494497366E+04  0.70197573902E+03 0.  0.
    5000001    2    3    3    0    0  0.10234762941E+03  0.10613484182E+03  0.20954690225E+03  0.30485613293E+03  0.16518993810E+03 0.  0.
        -13    1    4    4    0    0  0.77659165459E+01 -0.42125368698E+02  0.35750924047E+02  0.55794228034E+02  0.10566000000E+00 0. -1.
     200003    1    4    4    0    0  0.94581712861E+02  0.14826021052E+03  0.17379597820E+03  0.24906190489E+03  0.30000000000E+02 0. -1.
     200000    1    3    3    0    0 -0.70098590313E+02  0.38649747735E+03  0.69854345871E+03  0.94459360366E+03  0.50000000000E+03 0. -1.
    -200001    1    1    2    0    0 -0.32249039094E+02 -0.49263231917E+03  0.10461588197E+04  0.13521001732E+04  0.70000000000E+03 0. -1.
<mgrwt>
<rscale>  0 0.17172571E+04</rscale>
<asrwt>0</asrwt>
<pdfrwt beam="1">  1        1 0.32541423E+00 0.17172571E+04</pdfrwt>
<pdfrwt beam="2">  1       -1 0.46235765E-01 0.17172571E+04</pdfrwt>
<totfact> 0.11037173E+01</totfact>
</mgrwt>
</event>
<event>
 8    1  0.2402290E-028  0.1768913E+04  0.7818608E-02  0.8723008E-01
         -1   -1    0    0    0  501 -0.00000000000E+00  0.00000000000E+00  0.38625662406E+03  0.38625662409E+03  0.50400000000E-02 0. -1.
          1   -1    0    0  501    0  0.00000000000E+00 -0.00000000000E+00 -0.20252421403E+04  0.20252421403E+04  0.50400000000E-02 0.  1.
     200001    2    1    2    0    0 -0.50700185378E+01  0.45132392254E+03 -0.41273346346E+03  0.92913137233E+03  0.69944063868E+03 0.  0.
    5000001    2    3    3    0    0 -0.88470055045E+01  0.25705257297E+03 -0.11462027135E+03  0.31543185448E+03  0.14214483261E+03 0.  0.
        -13    1    4    4    0    0  0.18358882721E+02  0.23704969554E+03 -0.61268235319E+02  0.24552681025E+03  0.10566000000E+00 0. -1.
     200003    1    4    4    0    0 -0.27205888225E+02  0.20002877432E+02 -0.53352036032E+02  0.69905044228E+02  0.30000000000E+02 0. -1.
     200000    1    3    3    0    0  0.37769869667E+01  0.19427134957E+03 -0.29811319211E+03  0.61369951785E+03  0.50000000000E+03 0. -1.
    -200001    1    1    2    0    0  0.50700185378E+01 -0.45132392254E+03 -0.12262520528E+04  0.14823673921E+04  0.70000000000E+03 0. -1.
<mgrwt>
<rscale>  0 0.17689129E+04</rscale>
<asrwt>0</asrwt>
<pdfrwt beam="1">  1        1 0.28932030E+00 0.17689129E+04</pdfrwt>
<pdfrwt beam="2">  1       -1 0.55179519E-01 0.17689129E+04</pdfrwt>
<totfact> 0.11312247E+01</totfact>
</mgrwt>
</event>
<event>
 8    1  0.2402290E-028  0.1723437E+04  0.7818608E-02  0.8748109E-01
          1   -1    0    0  501    0  0.00000000000E+00  0.00000000000E+00  0.11423979925E+04  0.11423979926E+04  0.50400000000E-02 0.  1.
         -1   -1    0    0    0  501 -0.00000000000E+00 -0.00000000000E+00 -0.65000040359E+03  0.65000040361E+03  0.50400000000E-02 0. -1.
     200001    2    1    2    0    0 -0.36134116181E+03 -0.33730300764E+03  0.15867647922E+03  0.87277318269E+03  0.70157968127E+03 0.  0.
    5000001    2    3    3    0    0 -0.15012851658E+03 -0.50140354227E+02  0.48134462068E+02  0.24883992618E+03  0.18588102595E+03 0.  0.
        -13    1    4    4    0    0 -0.16668085828E+03  0.38580797628E+01 -0.33197497440E+01  0.16675858358E+03  0.10566000000E+00 0. -1.
     200003    1    4    4    0    0  0.16552341696E+02 -0.53998433990E+02  0.51454211812E+02  0.82081342595E+02  0.30000000000E+02 0. -1.
     200000    1    3    3    0    0 -0.21121264523E+03 -0.28716265341E+03  0.11054201716E+03  0.62393325651E+03  0.50000000000E+03 0. -1.
    -200001    1    1    2    0    0  0.36134116181E+03  0.33730300764E+03  0.33372110974E+03  0.91962521348E+03  0.70000000000E+03 0.  1.
<mgrwt>
<rscale>  0 0.17234374E+04</rscale>
<asrwt>0</asrwt>
<pdfrwt beam="1">  1        1 0.16319971E+00 0.17234374E+04</pdfrwt>
<pdfrwt beam="2">  1       -1 0.92857201E-01 0.17234374E+04</pdfrwt>
<totfact> 0.14584477E+01</totfact>
</mgrwt>
</event>
<event>
 8    1  0.2402290E-028  0.1495265E+04  0.7818608E-02  0.8887608E-01
         -1   -1    0    0    0  501 -0.00000000000E+00  0.00000000000E+00  0.11596771058E+04  0.11596771058E+04  0.50400000000E-02 0. -1.
          1   -1    0    0  501    0  0.00000000000E+00 -0.00000000000E+00 -0.48199121215E+03  0.48199121217E+03  0.50400000000E-02 0.  1.
     200001    2    1    2    0    0 -0.23804752782E+03 -0.10237082619E+03  0.39640410514E+03  0.84400557211E+03  0.69861490080E+03 0.  0.
    5000001    2    3    3    0    0  0.29044682696E+02 -0.42603728169E+02  0.15794909936E+03  0.22612925382E+03  0.15338790760E+03 0.  0.
        -13    1    4    4    0    0 -0.16601088057E+02 -0.55120188942E+01 -0.25634265120E+02  0.31033936091E+02  0.10566000000E+00 0. -1.
     200003    1    4    4    0    0  0.45645770754E+02 -0.37091709275E+02  0.18358336448E+03  0.19509531773E+03  0.30000000000E+02 0. -1.
     200000    1    3    3    0    0 -0.26709221052E+03 -0.59767098019E+02  0.23845500578E+03  0.61787631829E+03  0.50000000000E+03 0. -1.
    -200001    1    1    2    0    0  0.23804752782E+03  0.10237082619E+03  0.28128178847E+03  0.79766274583E+03  0.70000000000E+03 0.  1.
<mgrwt>
<rscale>  0 0.14952648E+04</rscale>
<asrwt>0</asrwt>
<pdfrwt beam="1">  1        1 0.68855887E-01 0.14952648E+04</pdfrwt>
<pdfrwt beam="2">  1       -1 0.16566816E+00 0.14952648E+04</pdfrwt>
<totfact> 0.13253119E+01</totfact>
</mgrwt>
</event>
<event>
 8    1  0.2402290E-028  0.3176201E+04  0.7818608E-02  0.8195131E-01
         -1   -1    0    0    0  501 -0.00000000000E+00  0.00000000000E+00  0.12000462698E+04  0.12000462698E+04  0.50400000000E-02 0. -1.
          1   -1    0    0  501    0  0.00000000000E+00 -0.00000000000E+00 -0.21016378100E+04  0.21016378100E+04  0.50400000000E-02 0.  1.
     200001    2    1    2    0    0  0.10172953165E+04 -0.89201117925E+03  0.17709516188E+02  0.15224460021E+04  0.69782125044E+03 0.  0.
    5000001    2    3    3    0    0  0.38798561417E+03 -0.37383979047E+03  0.13085755395E+02  0.56612300818E+03  0.17330608085E+03 0.  0.
        -13    1    4    4    0    0  0.26025914520E+03 -0.14124416129E+03 -0.21244105696E+02  0.29687717822E+03  0.10566000000E+00 0. -1.
     200003    1    4    4    0    0  0.12772646898E+03 -0.23259562918E+03  0.34329861091E+02  0.26924582996E+03  0.30000000000E+02 0. -1.
     200000    1    3    3    0    0  0.62930970229E+03 -0.51817138878E+03  0.46237607934E+01  0.95632299392E+03  0.50000000000E+03 0. -1.
    -200001    1    1    2    0    0 -0.10172953165E+04  0.89201117925E+03 -0.91930105644E+03  0.17792380777E+04  0.70000000000E+03 0.  1.
<mgrwt>
<rscale>  0 0.31762006E+04</rscale>
<asrwt>0</asrwt>
<pdfrwt beam="1">  1        1 0.30023397E+00 0.31762006E+04</pdfrwt>
<pdfrwt beam="2">  1       -1 0.17143518E+00 0.31762006E+04</pdfrwt>
<totfact> 0.65259110E-01</totfact>
</mgrwt>
</event>
<event>
 8    1  0.2402290E-028  0.2630312E+04  0.7818608E-02  0.8357977E-01
         -1   -1    0    0    0  501 -0.00000000000E+00  0.00000000000E+00  0.47351841854E+03  0.47351841857E+03  0.50400000000E-02 0. -1.
          1   -1    0    0  501    0  0.00000000000E+00 -0.00000000000E+00 -0.36527299822E+04  0.36527299822E+04  0.50400000000E-02 0.  1.
     200001    2    1    2    0    0  0.11056919839E+04  0.89754348648E+02 -0.17386078013E+04  0.21779286614E+04  0.70000397233E+03 0.  0.
    5000001    2    3    3    0    0  0.29592154070E+03  0.69033939959E+00 -0.30832706438E+03  0.45764858111E+03  0.16372724375E+03 0.  0.
        -13    1    4    4    0    0  0.16685344318E+03 -0.21949259211E+02 -0.26949156804E+03  0.31772245418E+03  0.10566000000E+00 0. -1.
     200003    1    4    4    0    0  0.12906809752E+03  0.22639598611E+02 -0.38835496343E+02  0.13992612693E+03  0.30000000000E+02 0. -1.
     200000    1    3    3    0    0  0.80977044322E+03  0.89064009248E+02 -0.14302807369E+04  0.17202800803E+04  0.50000000000E+03 0. -1.
    -200001    1    1    2    0    0 -0.11056919839E+04 -0.89754348648E+02 -0.14406037624E+04  0.19483197393E+04  0.70000000000E+03 0. -1.
<mgrwt>
<rscale>  0 0.26303117E+04</rscale>
<asrwt>0</asrwt>
<pdfrwt beam="1">  1        1 0.52181855E+00 0.26303117E+04</pdfrwt>
<pdfrwt beam="2">  1       -1 0.67645490E-01 0.26303117E+04</pdfrwt>
<totfact> 0.59325381E-01</totfact>
</mgrwt>
</event>
<event>
 8    1  0.2402290E-028  0.1961890E+04  0.7818608E-02  0.8624649E-01
          1   -1    0    0  501    0  0.00000000000E+00  0.00000000000E+00  0.12034376548E+04  0.12034376548E+04  0.50400000000E-02 0.  1.
         -1   -1    0    0    0  501 -0.00000000000E+00 -0.00000000000E+00 -0.79958686685E+03  0.79958686687E+03  0.50400000000E-02 0. -1.
     200001    2    1    2    0    0  0.26939508678E+02  0.76548275419E+02 -0.49506303449E+03  0.86081988336E+03  0.69952704585E+03 0.  0.
    5000001    2    3    3    0    0 -0.12379722393E+01  0.43911668893E+02 -0.12081717120E+03  0.23478547160E+03  0.19646287583E+03 0.  0.
        -13    1    4    4    0    0  0.54947155875E+02  0.99308284879E+02 -0.47712842195E+02  0.12311722812E+03  0.10566000000E+00 0. -1.
     200003    1    4    4    0    0 -0.56185128115E+02 -0.55396615986E+02 -0.73104329005E+02  0.11166824349E+03  0.30000000000E+02 0. -1.
     200000    1    3    3    0    0  0.28177480917E+02  0.32636606526E+02 -0.37424586329E+03  0.62603441176E+03  0.50000000000E+03 0. -1.
    -200001    1    1    2    0    0 -0.26939508678E+02 -0.76548275419E+02  0.89891382240E+03  0.11422046383E+04  0.70000000000E+03 0.  1.
<mgrwt>
<rscale>  0 0.19618898E+04</rscale>
<asrwt>0</asrwt>
<pdfrwt beam="1">  1        1 0.17191967E+00 0.19618898E+04</pdfrwt>
<pdfrwt beam="2">  1       -1 0.11422669E+00 0.19618898E+04</pdfrwt>
<totfact> 0.80223659E+00</totfact>
</mgrwt>
</event>
<event>
 8    1  0.2402290E-028  0.1779798E+04  0.7818608E-02  0.8717117E-01
         -1   -1    0    0    0  501 -0.00000000000E+00  0.00000000000E+00  0.49094622310E+03  0.49094622312E+03  0.50400000000E-02 0. -1.
          1   -1    0    0  501    0  0.00000000000E+00 -0.00000000000E+00 -0.16130492938E+04  0.16130492938E+04  0.50400000000E-02 0.  1.
     200001    2    1    2    0    0 -0.23227226042E+03 -0.85804490133E+02 -0.11405163476E+04  0.13612628179E+04  0.70067546474E+03 0.  0.
    5000001    2    3    3    0    0 -0.69787226321E+02 -0.14597434047E+03 -0.37279688159E+03  0.42883857132E+03  0.13691691020E+03 0.  0.
        -13    1    4    4    0    0 -0.20320279263E+02 -0.10786214794E+03 -0.10381583145E+03  0.15107910091E+03  0.10566000000E+00 0. -1.
     200003    1    4    4    0    0 -0.49466947058E+02 -0.38112192524E+02 -0.26898105014E+03  0.27775947041E+03  0.30000000000E+02 0. -1.
     200000    1    3    3    0    0 -0.16248503409E+03  0.60169850335E+02 -0.76771946598E+03  0.93242424659E+03  0.50000000000E+03 0.  1.
    -200001    1    1    2    0    0  0.23227226042E+03  0.85804490133E+02  0.18413276824E+02  0.74273269906E+03  0.70000000000E+03 0. -1.
<mgrwt>
<rscale>  0 0.17797983E+04</rscale>
<asrwt>0</asrwt>
<pdfrwt beam="1">  1        1 0.23043561E+00 0.17797983E+04</pdfrwt>
<pdfrwt beam="2">  1       -1 0.70135175E-01 0.17797983E+04</pdfrwt>
<totfact> 0.12791201E+01</totfact>
</mgrwt>
</event>
<event>
 8    1  0.2402290E-028  0.1734720E+04  0.7818608E-02  0.8741807E-01
         -1   -1    0    0    0  501 -0.00000000000E+00  0.00000000000E+00  0.16255696867E+03  0.16255696875E+03  0.50400000000E-02 0. -1.
          1   -1    0    0  501    0  0.00000000000E+00 -0.00000000000E+00 -0.46279965167E+04  0.46279965167E+04  0.50400000000E-02 0.  1.
     200001    2    1    2    0    0  0.14296370403E+03 -0.20374122088E+02 -0.87688789028E+03  0.11315158079E+04  0.70038698292E+03 0.  0.
    5000001    2    3    3    0    0 -0.67731349491E+02  0.49371234671E+02 -0.16127474553E+03  0.23076112801E+03  0.14218333285E+03 0.  0.
        -13    1    4    4    0    0 -0.13485139197E+02  0.10861524920E+02 -0.15668607001E+03  0.15763996131E+03  0.10566000000E+00 0. -1.
     200003    1    4    4    0    0 -0.54246210295E+02  0.38509709751E+02 -0.45886755160E+01  0.73121166699E+02  0.30000000000E+02 0. -1.
     200000    1    3    3    0    0  0.21069505353E+03 -0.69745356759E+02 -0.71561314475E+03  0.90075467987E+03  0.50000000000E+03 0. -1.
    -200001    1    1    2    0    0 -0.14296370403E+03  0.20374122088E+02 -0.35885516578E+04  0.36590376776E+04  0.70000000000E+03 0. -1.
<mgrwt>
<rscale>  0 0.17347197E+04</rscale>
<asrwt>0</asrwt>
<pdfrwt beam="1">  1        1 0.66114228E+00 0.17347197E+04</pdfrwt>
<pdfrwt beam="2">  1       -1 0.23222427E-01 0.17347197E+04</pdfrwt>
<totfact> 0.78648399E-01</totfact>
</mgrwt>
</event>
<event>
 8    1  0.2402290E-028  0.1511690E+04  0.7818608E-02  0.8876716E-01
         -1   -1    0    0    0  501 -0.00000000000E+00  0.00000000000E+00  0.25886251963E+03  0.25886251968E+03  0.50400000000E-02 0.  1.
          1   -1    0    0  501    0  0.00000000000E+00 -0.00000000000E+00 -0.22069696534E+04  0.22069696534E+04  0.50400000000E-02 0. -1.
     200001    2    1    2    0    0 -0.15102560387E+03  0.42397842713E+02 -0.58748370762E+03  0.92768314977E+03  0.70060874214E+03 0.  0.
    5000001    2    3    3    0    0 -0.99686017891E+02  0.21853644407E+02 -0.18934444018E+03  0.28614383418E+03  0.18871166598E+03 0.  0.
        -13    1    4    4    0    0 -0.14106551934E+03  0.27742465388E+02 -0.78176955782E+02  0.16364832022E+03  0.10566000000E+00 0. -1.
     200003    1    4    4    0    0  0.41379501449E+02 -0.58888209809E+01 -0.11116748439E+03  0.12249551396E+03  0.30000000000E+02 0. -1.
     200000    1    3    3    0    0 -0.51339585976E+02  0.20544198306E+02 -0.39813926744E+03  0.64153931559E+03  0.50000000000E+03 0.  1.
    -200001    1    1    2    0    0  0.15102560387E+03 -0.42397842713E+02 -0.13606234261E+04  0.15381490233E+04  0.70000000000E+03 0. -1.
<mgrwt>
<rscale>  0 0.15116901E+04</rscale>
<asrwt>0</asrwt>
<pdfrwt beam="1">  1        1 0.31528137E+00 0.15116901E+04</pdfrwt>
<pdfrwt beam="2">  1       -1 0.36980361E-01 0.15116901E+04</pdfrwt>
<totfact> 0.18774042E+01</totfact>
</mgrwt>
</event>
<event>
 8    1  0.2402290E-028  0.2024717E+04  0.7818608E-02  0.8595151E-01
         -1   -1    0    0    0  501 -0.00000000000E+00  0.00000000000E+00  0.12900740367E+04  0.12900740367E+04  0.50400000000E-02 0. -1.
          1   -1    0    0  501    0  0.00000000000E+00 -0.00000000000E+00 -0.79442727669E+03  0.79442727671E+03  0.50400000000E-02 0.  1.
     200001    2    1    2    0    0  0.30113437330E+03  0.66661085696E+03  0.25946637215E+03  0.10448700706E+04  0.69955608839E+03 0.  0.
    5000001    2    3    3    0    0  0.18890903161E+03  0.13992206408E+03  0.51262044558E+02  0.28110004378E+03  0.14534314969E+03 0.  0.
        -13    1    4    4    0    0  0.10683245595E+03  0.10190051750E+03 -0.35912481672E+02  0.15194277415E+03  0.10566000000E+00 0. -1.
     200003    1    4    4    0    0  0.82076575661E+02  0.38021546575E+02  0.87174526230E+02  0.12915726963E+03  0.30000000000E+02 0. -1.
     200000    1    3    3    0    0  0.11222534169E+03  0.52668879288E+03  0.20820432759E+03  0.76377002684E+03  0.50000000000E+03 0.  1.
    -200001    1    1    2    0    0 -0.30113437330E+03 -0.66661085696E+03  0.23618038787E+03  0.10396312428E+04  0.70000000000E+03 0. -1.
<mgrwt>
<rscale>  0 0.20247173E+04</rscale>
<asrwt>0</asrwt>
<pdfrwt beam="1">  1        1 0.11348961E+00 0.20247173E+04</pdfrwt>
<pdfrwt beam="2">  1       -1 0.18429629E+00 0.20247173E+04</pdfrwt>
<totfact> 0.45310324E+00</totfact>
</mgrwt>
</event>
<event>
 8    1  0.2402290E-028  0.1504974E+04  0.7818608E-02  0.8881152E-01
         -1   -1    0    0    0  501 -0.00000000000E+00  0.00000000000E+00  0.42855963346E+03  0.42855963349E+03  0.50400000000E-02 0. -1.
          1   -1    0    0  501    0  0.00000000000E+00 -0.00000000000E+00 -0.13212558979E+04  0.13212558979E+04  0.50400000000E-02 0.  1.
     200001    2    1    2    0    0  0.15865369912E+03  0.18891829888E+03 -0.29772292398E+03  0.79857718283E+03  0.69873132003E+03 0.  0.
    5000001    2    3    3    0    0  0.26856060469E+02  0.22185035234E+02  0.65239130716E+02  0.14519211115E+03  0.12494471253E+03 0.  0.
        -13    1    4    4    0    0 -0.34207704581E+02 -0.28773613783E+02  0.23162269064E+02  0.50344709504E+02  0.10566000000E+00 0. -1.
     200003    1    4    4    0    0  0.61063765049E+02  0.50958649018E+02  0.42076861652E+02  0.94847401642E+02  0.30000000000E+02 0. -1.
     200000    1    3    3    0    0  0.13179763865E+03  0.16673326365E+03 -0.36296205469E+03  0.65338507169E+03  0.50000000000E+03 0.  1.
    -200001    1    1    2    0    0 -0.15865369912E+03 -0.18891829888E+03 -0.59497334042E+03  0.95123834853E+03  0.70000000000E+03 0.  1.
<mgrwt>
<rscale>  0 0.15049743E+04</rscale>
<asrwt>0</asrwt>
<pdfrwt beam="1">  1        1 0.18875084E+00 0.15049743E+04</pdfrwt>
<pdfrwt beam="2">  1       -1 0.61222805E-01 0.15049743E+04</pdfrwt>
<totfact> 0.26780562E+01</totfact>
</mgrwt>
</event>
<event>
 8    1  0.2402290E-028  0.1571224E+04  0.7818608E-02  0.8838424E-01
          1   -1    0    0  501    0  0.00000000000E+00  0.00000000000E+00  0.48139182695E+04  0.48139182695E+04  0.50400000000E-02 0. -1.
         -1   -1    0    0    0  501 -0.00000000000E+00 -0.00000000000E+00 -0.12820866253E+03  0.12820866263E+03  0.50400000000E-02 0.  1.
     200001    2    1    2    0    0 -0.12685887841E+03  0.28254219149E+03  0.28965699101E+04  0.29961197071E+04  0.70049467529E+03 0.  0.
    5000001    2    3    3    0    0 -0.79061461675E+02  0.13439282078E+03  0.27652611498E+03  0.32425475589E+03  0.66047781586E+02 0.  0.
        -13    1    4    4    0    0 -0.50235398462E+02  0.92056023702E+02  0.13624296385E+03  0.17193040197E+03  0.10566000000E+00 0. -1.
     200003    1    4    4    0    0 -0.28826063214E+02  0.42336797082E+02  0.14028315112E+03  0.15232435392E+03  0.30000000000E+02 0.  1.
     200000    1    3    3    0    0 -0.47797416733E+02  0.14814937070E+03  0.26200437951E+04  0.26718649512E+04  0.50000000000E+03 0. -1.
    -200001    1    1    2    0    0  0.12685887841E+03 -0.28254219149E+03  0.17891396969E+04  0.19460072250E+04  0.70000000000E+03 0.  1.
<mgrwt>
<rscale>  0 0.15712238E+04</rscale>
<asrwt>0</asrwt>
<pdfrwt beam="1">  1        1 0.68770276E+00 0.15712238E+04</pdfrwt>
<pdfrwt beam="2">  1       -1 0.18315519E-01 0.15712238E+04</pdfrwt>
<totfact> 0.80991878E-01</totfact>
</mgrwt>
</event>
<event>
 8    1  0.2402290E-028  0.2081353E+04  0.7818608E-02  0.8569502E-01
         -1   -1    0    0    0  501 -0.00000000000E+00  0.00000000000E+00  0.46584610697E+03  0.46584610700E+03  0.50400000000E-02 0. -1.
          1   -1    0    0  501    0  0.00000000000E+00 -0.00000000000E+00 -0.23248182289E+04  0.23248182289E+04  0.50400000000E-02 0.  1.
     200001    2    1    2    0    0  0.26641645553E+03 -0.22314417573E+03 -0.73587887688E+01  0.78087753465E+03  0.69924568030E+03 0.  0.
    5000001    2    3    3    0    0  0.82887944168E+02 -0.13142075661E+01 -0.63258641777E+02  0.20120862672E+03  0.17207881124E+03 0.  0.
        -13    1    4    4    0    0 -0.51831503654E+02 -0.80723578074E+01 -0.23014009975E+02  0.57282838187E+02  0.10566000000E+00 0. -1.
     200003    1    4    4    0    0  0.13471944782E+03  0.67581502413E+01 -0.40244631802E+02  0.14392578853E+03  0.30000000000E+02 0. -1.
     200000    1    3    3    0    0  0.18352851136E+03 -0.22182996816E+03  0.55899853008E+02  0.57966890793E+03  0.50000000000E+03 0. -1.
    -200001    1    1    2    0    0 -0.26641645553E+03  0.22314417573E+03 -0.18516133332E+04  0.20097868012E+04  0.70000000000E+03 0.  1.
<mgrwt>
<rscale>  0 0.20813529E+04</rscale>
<asrwt>0</asrwt>
<pdfrwt beam="1">  1        1 0.33211688E+00 0.20813529E+04</pdfrwt>
<pdfrwt beam="2">  1       -1 0.66549445E-01 0.20813529E+04</pdfrwt>
<totfact> 0.49170711E+00</totfact>
</mgrwt>
</event>
<event>
 8    1  0.2402290E-028  0.1820392E+04  0.7818608E-02  0.8695530E-01
         -1   -1    0    0    0  501 -0.00000000000E+00  0.00000000000E+00  0.60193622432E+03  0.60193622434E+03  0.50400000000E-02 0.  1.
          1   -1    0    0  501    0  0.00000000000E+00 -0.00000000000E+00 -0.13763191187E+04  0.13763191187E+04  0.50400000000E-02 0. -1.
     200001    2    1    2    0    0 -0.31876284837E+03  0.31181491533E+03  0.18852156190E+02  0.83018733968E+03  0.70001237149E+03 0.  0.
    5000001    2    3    3    0    0 -0.76403135245E+02  0.10900485250E+03 -0.39076437042E+01  0.23825139667E+03  0.19755748883E+03 0.  0.
        -13    1    4    4    0    0 -0.74045985622E+02  0.10322935501E+02  0.76863623503E+02  0.10722592395E+03  0.10566000000E+00 0. -1.
     200003    1    4    4    0    0 -0.23571496233E+01  0.98681916995E+02 -0.80771267207E+02  0.13102547272E+03  0.30000000000E+02 0. -1.
     200000    1    3    3    0    0 -0.24235971313E+03  0.20281006283E+03  0.22759799894E+02  0.59193594301E+03  0.50000000000E+03 0.  1.
    -200001    1    1    2    0    0  0.31876284837E+03 -0.31181491533E+03 -0.79323505060E+03  0.11480680034E+04  0.70000000000E+03 0. -1.
<mgrwt>
<rscale>  0 0.18203915E+04</rscale>
<asrwt>0</asrwt>
<pdfrwt beam="1">  1        1 0.19661702E+00 0.18203915E+04</pdfrwt>
<pdfrwt beam="2">  1       -1 0.85990890E-01 0.18203915E+04</pdfrwt>
<totfact> 0.11839234E+01</totfact>
</mgrwt>
</event>
<event>
 8    1  0.2402290E-028  0.1454667E+04  0.7818608E-02  0.8915171E-01
          1   -1    0    0  501    0  0.00000000000E+00  0.00000000000E+00  0.34658783330E+04  0.34658783330E+04  0.50400000000E-02 0. -1.
         -1   -1    0    0    0  501 -0.00000000000E+00 -0.00000000000E+00 -0.15263490409E+03  0.15263490417E+03  0.50400000000E-02 0.  1.
     200001    2    1    2    0    0 -0.86215191284E+02 -0.12035870574E+03  0.19836995498E+04  0.21086767547E+04  0.69966740300E+03 0.  0.
    5000001    2    3    3    0    0 -0.10263626270E+02 -0.19764639522E+02  0.53523419447E+03  0.57116587933E+03  0.19813842581E+03 0.  0.
        -13    1    4    4    0    0  0.64301021000E+02 -0.44861378396E+02  0.96069121577E+02  0.12400182199E+03  0.10566000000E+00 0. -1.
     200003    1    4    4    0    0 -0.74564647270E+02  0.25096738875E+02  0.43916507290E+03  0.44716405734E+03  0.30000000000E+02 0. -1.
     200000    1    3    3    0    0 -0.75951565014E+02 -0.10059406622E+03  0.14484653553E+04  0.15375108754E+04  0.50000000000E+03 0.  1.
    -200001    1    1    2    0    0  0.86215191284E+02  0.12035870574E+03  0.13295438791E+04  0.15098364825E+04  0.70000000000E+03 0.  1.
<mgrwt>
<rscale>  0 0.14546670E+04</rscale>
<asrwt>0</asrwt>
<pdfrwt beam="1">  1        1 0.49512543E+00 0.14546670E+04</pdfrwt>
<pdfrwt beam="2">  1       -1 0.21804988E-01 0.14546670E+04</pdfrwt>
<totfact> 0.71449539E+00</totfact>
</mgrwt>
</event>
<event>
 8    1  0.2402290E-028  0.1998883E+04  0.7818608E-02  0.8607143E-01
         -1   -1    0    0    0  501 -0.00000000000E+00  0.00000000000E+00  0.32200574424E+03  0.32200574427E+03  0.50400000000E-02 0. -1.
          1   -1    0    0  501    0  0.00000000000E+00 -0.00000000000E+00 -0.31020652657E+04  0.31020652657E+04  0.50400000000E-02 0.  1.
     200001    2    1    2    0    0 -0.21565707840E+02 -0.71338719333E+03 -0.13959441429E+04  0.17166865341E+04  0.69926120930E+03 0.  0.
    5000001    2    3    3    0    0 -0.57504076969E+01 -0.14121898434E+03 -0.28007293143E+03  0.36657722603E+03  0.18963688195E+03 0.  0.
        -13    1    4    4    0    0 -0.30972048588E+02 -0.34905633904E+02 -0.24287835029E+03  0.24732079427E+03  0.10566000000E+00 0. -1.
     200003    1    4    4    0    0  0.25221640892E+02 -0.10631335044E+03 -0.37194581136E+02  0.11925643176E+03  0.30000000000E+02 0. -1.
     200000    1    3    3    0    0 -0.15815300143E+02 -0.57216820898E+03 -0.11158712115E+04  0.13501093080E+04  0.50000000000E+03 0.  1.
    -200001    1    1    2    0    0  0.21565707840E+02  0.71338719333E+03 -0.13841153786E+04  0.17073844759E+04  0.70000000000E+03 0.  1.
<mgrwt>
<rscale>  0 0.19988825E+04</rscale>
<asrwt>0</asrwt>
<pdfrwt beam="1">  1        1 0.44315216E+00 0.19988825E+04</pdfrwt>
<pdfrwt beam="2">  1       -1 0.46000823E-01 0.19988825E+04</pdfrwt>
<totfact> 0.31958791E+00</totfact>
</mgrwt>
</event>
<event>
 8    1  0.2402290E-028  0.1471383E+04  0.7818608E-02  0.8903709E-01
         -1   -1    0    0    0  501 -0.00000000000E+00  0.00000000000E+00  0.54082442279E+03  0.54082442282E+03  0.50400000000E-02 0. -1.
          1   -1    0    0  501    0  0.00000000000E+00 -0.00000000000E+00 -0.10007716760E+04  0.10007716760E+04  0.50400000000E-02 0.  1.
     200001    2    1    2    0    0  0.11257775516E+03  0.79503039927E+02 -0.38927104370E+02  0.71319254378E+03  0.69866572890E+03 0.  0.
    5000001    2    3    3    0    0 -0.69059231123E+02 -0.76805111870E+02 -0.92431945758E+02  0.15615843248E+03  0.71927663842E+02 0.  0.
        -13    1    4    4    0    0 -0.66761594000E+02 -0.38854599883E+02 -0.52621995257E+02  0.93465907765E+02  0.10566000000E+00 0. -1.
     200003    1    4    4    0    0 -0.22976371232E+01 -0.37950511986E+02 -0.39809950501E+02  0.62692524716E+02  0.30000000000E+02 0. -1.
     200000    1    3    3    0    0  0.18163698628E+03  0.15630815180E+03  0.53504841388E+02  0.55703411130E+03  0.50000000000E+03 0. -1.
    -200001    1    1    2    0    0 -0.11257775516E+03 -0.79503039927E+02 -0.42102014887E+03  0.82840355508E+03  0.70000000000E+03 0.  1.
<mgrwt>
<rscale>  0 0.14713827E+04</rscale>
<asrwt>0</asrwt>
<pdfrwt beam="1">  1        1 0.14296738E+00 0.14713827E+04</pdfrwt>
<pdfrwt beam="2">  1       -1 0.77260632E-01 0.14713827E+04</pdfrwt>
<totfact> 0.28121521E+01</totfact>
</mgrwt>
</event>
<event>
 8    1  0.2402290E-028  0.1464694E+04  0.7818608E-02  0.8908276E-01
         -1   -1    0    0    0  501 -0.00000000000E+00  0.00000000000E+00  0.49558898643E+03  0.49558898645E+03  0.50400000000E-02 0. -1.
          1   -1    0    0  501    0  0.00000000000E+00 -0.00000000000E+00 -0.10822118274E+04  0.10822118274E+04  0.50400000000E-02 0.  1.
     200001    2    1    2    0    0 -0.17452258239E+03  0.51241734577E+02 -0.17154777061E+03  0.74391163585E+03  0.70063687972E+03 0.  0.
    5000001    2    3    3    0    0 -0.95886392337E+02 -0.52281658630E+02 -0.57295323528E+02  0.21480449642E+03  0.17587110485E+03 0.  0.
        -13    1    4    4    0    0 -0.11156149542E+03 -0.40985079600E+02 -0.10268561894E+03  0.15706715606E+03  0.10566000000E+00 0. -1.
     200003    1    4    4    0    0  0.15675103082E+02 -0.11296579030E+02  0.45390295417E+02  0.57737340365E+02  0.30000000000E+02 0. -1.
     200000    1    3    3    0    0 -0.78636190054E+02  0.10352339321E+03 -0.11425244708E+03  0.52910713943E+03  0.50000000000E+03 0. -1.
    -200001    1    1    2    0    0  0.17452258239E+03 -0.51241734577E+02 -0.41507507032E+03  0.83388917797E+03  0.70000000000E+03 0.  1.
<mgrwt>
<rscale>  0 0.14646942E+04</rscale>
<asrwt>0</asrwt>
<pdfrwt beam="1">  1        1 0.15460169E+00 0.14646942E+04</pdfrwt>
<pdfrwt beam="2">  1       -1 0.70798426E-01 0.14646942E+04</pdfrwt>
<totfact> 0.29395204E+01</totfact>
</mgrwt>
</event>
<event>
 8    1  0.2402290E-028  0.1500837E+04  0.7818608E-02  0.8883897E-01
          1   -1    0    0  501    0  0.00000000000E+00  0.00000000000E+00  0.24333015622E+04  0.24333015622E+04  0.50400000000E-02 0.  1.
         -1   -1    0    0    0  501 -0.00000000000E+00 -0.00000000000E+00 -0.23142535119E+03  0.23142535125E+03  0.50400000000E-02 0. -1.
     200001    2    1    2    0    0 -0.19603564849E+03  0.66253795504E+02  0.78493908893E+03  0.10708227919E+04  0.69836418677E+03 0.  0.
    5000001    2    3    3    0    0 -0.80233989224E+02  0.41888386480E+02  0.28448515864E+03  0.35356563172E+03  0.18943262786E+03 0.  0.
        -13    1    4    4    0    0  0.39031415832E+02  0.58376730368E+02  0.17318593076E+03  0.18688143794E+03  0.10566000000E+00 0. -1.
     200003    1    4    4    0    0 -0.11926540506E+03 -0.16488343888E+02  0.11129922788E+03  0.16668419377E+03  0.30000000000E+02 0. -1.
     200000    1    3    3    0    0 -0.11580165927E+03  0.24365409024E+02  0.50045393029E+03  0.71725716016E+03  0.50000000000E+03 0. -1.
    -200001    1    1    2    0    0  0.19603564849E+03 -0.66253795504E+02  0.14169371221E+04  0.15939041216E+04  0.70000000000E+03 0.  1.
<mgrwt>
<rscale>  0 0.15008367E+04</rscale>
<asrwt>0</asrwt>
<pdfrwt beam="1">  1        1 0.34761451E+00 0.15008367E+04</pdfrwt>
<pdfrwt beam="2">  1       -1 0.33060765E-01 0.15008367E+04</pdfrwt>
<totfact> 0.16533352E+01</totfact>
</mgrwt>
</event>
<event>
 8    1  0.2402290E-028  0.1734243E+04  0.7818608E-02  0.8742072E-01
         -1   -1    0    0    0  501 -0.00000000000E+00  0.00000000000E+00  0.14781340247E+04  0.14781340247E+04  0.50400000000E-02 0. -1.
          1   -1    0    0  501    0  0.00000000000E+00 -0.00000000000E+00 -0.50868173793E+03  0.50868173796E+03  0.50400000000E-02 0.  1.
     200001    2    1    2    0    0 -0.38967813801E+03 -0.14252355434E+03  0.82752445346E+03  0.11607978908E+04  0.70035205959E+03 0.  0.
    5000001    2    3    3    0    0 -0.13023124423E+03 -0.74460766081E+02  0.26325007264E+03  0.36057866414E+03  0.19547836102E+03 0.  0.
        -13    1    4    4    0    0 -0.12235094355E+03 -0.10730522303E+03  0.99580928876E+02  0.19078924718E+03  0.10566000000E+00 0. -1.
     200003    1    4    4    0    0 -0.78803006755E+01  0.32844456953E+02  0.16366914377E+03  0.16978941696E+03  0.30000000000E+02 0. -1.
     200000    1    3    3    0    0 -0.25944689378E+03 -0.68062788264E+02  0.56427438082E+03  0.80021922664E+03  0.50000000000E+03 0. -1.
    -200001    1    1    2    0    0  0.38967813801E+03  0.14252355434E+03  0.14192783329E+03  0.82601787187E+03  0.70000000000E+03 0.  1.
<mgrwt>
<rscale>  0 0.17342431E+04</rscale>
<asrwt>0</asrwt>
<pdfrwt beam="1">  1        1 0.72668819E-01 0.17342431E+04</pdfrwt>
<pdfrwt beam="2">  1       -1 0.21116201E+00 0.17342431E+04</pdfrwt>
<totfact> 0.57581525E+00</totfact>
</mgrwt>
</event>
<event>
 8    1  0.2402290E-028  0.2064602E+04  0.7818608E-02  0.8576999E-01
         -1   -1    0    0    0  501 -0.00000000000E+00  0.00000000000E+00  0.25756850357E+03  0.25756850362E+03  0.50400000000E-02 0. -1.
          1   -1    0    0  501    0  0.00000000000E+00 -0.00000000000E+00 -0.41373288621E+04  0.41373288621E+04  0.50400000000E-02 0.  1.
     200001    2    1    2    0    0 -0.47126190565E+03 -0.13708083432E+03 -0.71070256528E+03  0.11125496943E+04  0.70127722566E+03 0.  0.
    5000001    2    3    3    0    0 -0.11478765369E+03 -0.58003930081E+02 -0.23843185639E+03  0.33385420086E+03  0.19511077865E+03 0.  0.
        -13    1    4    4    0    0 -0.15123197355E+03 -0.90591174908E+02 -0.17733310910E+03  0.25004982212E+03  0.10566000000E+00 0. -1.
     200003    1    4    4    0    0  0.36444319859E+02  0.32587244827E+02 -0.61098747293E+02  0.83804378741E+02  0.30000000000E+02 0. -1.
     200000    1    3    3    0    0 -0.35647425196E+03 -0.79076904244E+02 -0.47227070889E+03  0.77869549348E+03  0.50000000000E+03 0. -1.
    -200001    1    1    2    0    0  0.47126190565E+03  0.13708083432E+03 -0.31690577933E+04  0.32823476714E+04  0.70000000000E+03 0.  1.
<mgrwt>
<rscale>  0 0.20646022E+04</rscale>
<asrwt>0</asrwt>
<pdfrwt beam="1">  1        1 0.59104694E+00 0.20646022E+04</pdfrwt>
<pdfrwt beam="2">  1       -1 0.36795503E-01 0.20646022E+04</pdfrwt>
<totfact> 0.86728543E-01</totfact>
</mgrwt>
</event>
<event>
 8    1  0.2402290E-028  0.1991317E+04  0.7818608E-02  0.8610691E-01
          1   -1    0    0  501    0  0.00000000000E+00  0.00000000000E+00  0.25015022825E+04  0.25015022826E+04  0.50400000000E-02 0.  1.
         -1   -1    0    0    0  501 -0.00000000000E+00 -0.00000000000E+00 -0.39629625270E+03  0.39629625274E+03  0.50400000000E-02 0. -1.
     200001    2    1    2    0    0  0.33313898121E+03  0.51343413557E+03  0.53709937587E+03  0.10747366409E+04  0.70141778953E+03 0.  0.
    5000001    2    3    3    0    0  0.20298791442E+03  0.17761156390E+03  0.24496470654E+03  0.39278446898E+03  0.14670368293E+03 0.  0.
        -13    1    4    4    0    0  0.17147857517E+03  0.17729463383E+03  0.24721487126E+03  0.34921840253E+03  0.10566000000E+00 0. -1.
     200003    1    4    4    0    0  0.31509339252E+02  0.31693007209E+00 -0.22501647189E+01  0.43566066451E+02  0.30000000000E+02 0. -1.
     200000    1    3    3    0    0  0.13015106679E+03  0.33582257167E+03  0.29213466933E+03  0.68195217197E+03  0.50000000000E+03 0. -1.
    -200001    1    1    2    0    0 -0.33313898121E+03 -0.51343413557E+03  0.15681066540E+04  0.18230618943E+04  0.70000000000E+03 0.  1.
<mgrwt>
<rscale>  0 0.19913171E+04</rscale>
<asrwt>0</asrwt>
<pdfrwt beam="1">  1        1 0.35735748E+00 0.19913171E+04</pdfrwt>
<pdfrwt beam="2">  1       -1 0.56613749E-01 0.19913171E+04</pdfrwt>
<totfact> 0.52818915E+00</totfact>
</mgrwt>
</event>
<event>
 8    1  0.2402290E-028  0.1734843E+04  0.7818608E-02  0.8741738E-01
          1   -1    0    0  501    0  0.00000000000E+00  0.00000000000E+00  0.24537883527E+04  0.24537883527E+04  0.50400000000E-02 0.  1.
         -1   -1    0    0    0  501 -0.00000000000E+00 -0.00000000000E+00 -0.30663621475E+03  0.30663621479E+03  0.50400000000E-02 0. -1.
     200001    2    1    2    0    0 -0.20102742285E+03 -0.34571577715E+03  0.15839025017E+04  0.17769706661E+04  0.69924687360E+03 0.  0.
    5000001    2    3    3    0    0 -0.82343833003E+02 -0.13903655696E+03  0.40067494575E+03  0.47051379979E+03  0.18636295940E+03 0.  0.
        -13    1    4    4    0    0 -0.11982850906E+03 -0.10023102357E+03  0.16639797752E+03  0.22823984700E+03  0.10566000000E+00 0. -1.
     200003    1    4    4    0    0  0.37484676060E+02 -0.38805533397E+02  0.23427696823E+03  0.24227395279E+03  0.30000000000E+02 0. -1.
     200000    1    3    3    0    0 -0.11868358985E+03 -0.20667922018E+03  0.11832275559E+04  0.13064568663E+04  0.50000000000E+03 0.  1.
    -200001    1    1    2    0    0  0.20102742285E+03  0.34571577715E+03  0.56324963628E+03  0.98345390135E+03  0.70000000000E+03 0. -1.
<mgrwt>
<rscale>  0 0.17348434E+04</rscale>
<asrwt>0</asrwt>
<pdfrwt beam="1">  1        1 0.35054117E+00 0.17348434E+04</pdfrwt>
<pdfrwt beam="2">  1       -1 0.43805176E-01 0.17348434E+04</pdfrwt>
<totfact> 0.94352544E+00</totfact>
</mgrwt>
</event>
<event>
 8    1  0.2402290E-028  0.1958080E+04  0.7818608E-02  0.8626474E-01
          1   -1    0    0  501    0  0.00000000000E+00  0.00000000000E+00  0.15919487458E+04  0.15919487459E+04  0.50400000000E-02 0. -1.
         -1   -1    0    0    0  501 -0.00000000000E+00 -0.00000000000E+00 -0.60210466572E+03  0.60210466574E+03  0.50400000000E-02 0.  1.
     200001    2    1    2    0    0  0.54649764939E+03 -0.40993805947E+03  0.54190384231E+03  0.11182470396E+04  0.70007697709E+03 0.  0.
    5000001    2    3    3    0    0  0.15233708191E+03 -0.13357746422E+03  0.21637891525E+03  0.35162835360E+03  0.18913788256E+03 0.  0.
        -13    1    4    4    0    0  0.18138678841E+03 -0.92925330670E+02  0.21059279884E+03  0.29306248852E+03  0.10566000000E+00 0. -1.
     200003    1    4    4    0    0 -0.29049706498E+02 -0.40652133549E+02  0.57861164056E+01  0.58565865082E+02  0.30000000000E+02 0. -1.
     200000    1    3    3    0    0  0.39416056748E+03 -0.27636059525E+03  0.32552492706E+03  0.76661868598E+03  0.50000000000E+03 0. -1.
    -200001    1    1    2    0    0 -0.54649764939E+03  0.40993805947E+03  0.44794023782E+03  0.10758063720E+04  0.70000000000E+03 0.  1.
<mgrwt>
<rscale>  0 0.19580805E+04</rscale>
<asrwt>0</asrwt>
<pdfrwt beam="1">  1        1 0.22742124E+00 0.19580805E+04</pdfrwt>
<pdfrwt beam="2">  1       -1 0.86014954E-01 0.19580805E+04</pdfrwt>
<totfact> 0.84469171E+00</totfact>
</mgrwt>
</event>
<event>
 8    1  0.2402290E-028  0.1888783E+04  0.7818608E-02  0.8660460E-01
          1   -1    0    0  501    0  0.00000000000E+00  0.00000000000E+00  0.51552801819E+03  0.51552801821E+03  0.50400000000E-02 0. -1.
         -1   -1    0    0    0  501 -0.00000000000E+00 -0.00000000000E+00 -0.17300227078E+04  0.17300227078E+04  0.50400000000E-02 0.  1.
     200001    2    1    2    0    0 -0.60114648679E+03 -0.19658917078E+03 -0.65959216160E+03  0.11510457163E+04  0.69987143163E+03 0.  0.
    5000001    2    3    3    0    0 -0.29108000985E+03 -0.75082394206E+02 -0.19976652235E+03  0.39451102753E+03  0.15927130731E+03 0.  0.
        -13    1    4    4    0    0 -0.23946746531E+03 -0.19593889836E+02 -0.87341081883E+02  0.25565027520E+03  0.10566000000E+00 0. -1.
     200003    1    4    4    0    0 -0.51612544536E+02 -0.55488504370E+02 -0.11242544047E+03  0.13886075232E+03  0.30000000000E+02 0. -1.
     200000    1    3    3    0    0 -0.31006647694E+03 -0.12150677658E+03 -0.45982563925E+03  0.75653468882E+03  0.50000000000E+03 0.  1.
    -200001    1    1    2    0    0  0.60114648679E+03  0.19658917078E+03 -0.55490252804E+03  0.10945050097E+04  0.70000000000E+03 0. -1.
<mgrwt>
<rscale>  0 0.18887829E+04</rscale>
<asrwt>0</asrwt>
<pdfrwt beam="1">  1        1 0.73646860E-01 0.18887829E+04</pdfrwt>
<pdfrwt beam="2">  1       -1 0.24714610E+00 0.18887829E+04</pdfrwt>
<totfact> 0.32189726E+00</totfact>
</mgrwt>
</event>
<event>
 8    1  0.2402290E-028  0.1617968E+04  0.7818608E-02  0.8809585E-01
          1   -1    0    0  501    0  0.00000000000E+00  0.00000000000E+00  0.22593020092E+04  0.22593020092E+04  0.50400000000E-02 0.  1.
         -1   -1    0    0    0  501 -0.00000000000E+00 -0.00000000000E+00 -0.28967132913E+03  0.28967132917E+03  0.50400000000E-02 0. -1.
     200001    2    1    2    0    0 -0.13907083475E+03  0.20633507877E+03  0.48242546785E+03  0.88653711251E+03  0.70092714174E+03 0.  0.
    5000001    2    3    3    0    0 -0.62765698642E+02 -0.14502940092E+02  0.14512494436E+03  0.23972682540E+03  0.17960465791E+03 0.  0.
        -13    1    4    4    0    0 -0.84520001820E+01 -0.90844593921E+02  0.83243542590E+02  0.12350576950E+03  0.10566000000E+00 0. -1.
     200003    1    4    4    0    0 -0.54313698460E+02  0.76341653829E+02  0.61881401772E+02  0.11622105590E+03  0.30000000000E+02 0. -1.
     200000    1    3    3    0    0 -0.76305136103E+02  0.22083801886E+03  0.33730052348E+03  0.64681028711E+03  0.50000000000E+03 0.  1.
    -200001    1    1    2    0    0  0.13907083475E+03 -0.20633507877E+03  0.14872052123E+04  0.16624362259E+04  0.70000000000E+03 0.  1.
<mgrwt>
<rscale>  0 0.16179679E+04</rscale>
<asrwt>0</asrwt>
<pdfrwt beam="1">  1        1 0.32275742E+00 0.16179679E+04</pdfrwt>
<pdfrwt beam="2">  1       -1 0.41381620E-01 0.16179679E+04</pdfrwt>
<totfact> 0.14051671E+01</totfact>
</mgrwt>
</event>
<event>
 8    1  0.2402290E-028  0.1503727E+04  0.7818608E-02  0.8881978E-01
          1   -1    0    0  501    0  0.00000000000E+00  0.00000000000E+00  0.19999105782E+03  0.19999105788E+03  0.50400000000E-02 0. -1.
         -1   -1    0    0    0  501 -0.00000000000E+00 -0.00000000000E+00 -0.28266210277E+04  0.28266210277E+04  0.50400000000E-02 0.  1.
     200001    2    1    2    0    0  0.10473448466E+03  0.25153475852E+03 -0.13795956676E+04  0.15708189691E+04  0.69996355656E+03 0.  0.
    5000001    2    3    3    0    0 -0.47467219653E+02  0.75369111204E+02 -0.37601229794E+03  0.42566427474E+03  0.17852503108E+03 0.  0.
        -13    1    4    4    0    0  0.12208125019E+02 -0.52103024067E+02 -0.13108160066E+03  0.14158446465E+03  0.10566000000E+00 0. -1.
     200003    1    4    4    0    0 -0.59675344672E+02  0.12747213527E+03 -0.24493069728E+03  0.28407981009E+03  0.30000000000E+02 0. -1.
     200000    1    3    3    0    0  0.15220170431E+03  0.17616564731E+03 -0.10035833697E+04  0.11451546943E+04  0.50000000000E+03 0.  1.
    -200001    1    1    2    0    0 -0.10473448466E+03 -0.25153475852E+03 -0.12470343023E+04  0.14557931165E+04  0.70000000000E+03 0.  1.
<mgrwt>
<rscale>  0 0.15037273E+04</rscale>
<asrwt>0</asrwt>
<pdfrwt beam="1">  1        1 0.28570153E-01 0.15037273E+04</pdfrwt>
<pdfrwt beam="2">  1       -1 0.40380298E+00 0.15037273E+04</pdfrwt>
<totfact> 0.10772227E+00</totfact>
</mgrwt>
</event>
<event>
 8    1  0.2402290E-028  0.1847197E+04  0.7818608E-02  0.8681596E-01
         -1   -1    0    0    0  501 -0.00000000000E+00  0.00000000000E+00  0.58521394087E+03  0.58521394089E+03  0.50400000000E-02 0. -1.
          1   -1    0    0  501    0  0.00000000000E+00 -0.00000000000E+00 -0.14576451426E+04  0.14576451426E+04  0.50400000000E-02 0.  1.
     200001    2    1    2    0    0 -0.13395385903E+03 -0.25369101247E+03  0.15031665423E+03  0.77072860944E+03  0.69937452535E+03 0.  0.
    5000001    2    3    3    0    0 -0.73259164993E+02 -0.11215139520E+03  0.10864296020E+03  0.24589148621E+03  0.17525549774E+03 0.  0.
        -13    1    4    4    0    0 -0.10541219618E+03 -0.12335789353E+03  0.11660983182E+03  0.19981682872E+03  0.10566000000E+00 0. -1.
     200003    1    4    4    0    0  0.32153031186E+02  0.11206498329E+02 -0.79668716156E+01  0.46074657488E+02  0.30000000000E+02 0. -1.
     200000    1    3    3    0    0 -0.60694694040E+02 -0.14153961727E+03  0.41673694024E+02  0.52483712323E+03  0.50000000000E+03 0. -1.
    -200001    1    1    2    0    0  0.13395385903E+03  0.25369101247E+03 -0.10227478559E+04  0.12721304740E+04  0.70000000000E+03 0.  1.
<mgrwt>
<rscale>  0 0.18471971E+04</rscale>
<asrwt>0</asrwt>
<pdfrwt beam="1">  1        1 0.20823502E+00 0.18471971E+04</pdfrwt>
<pdfrwt beam="2">  1       -1 0.83601992E-01 0.18471971E+04</pdfrwt>
<totfact> 0.11091647E+01</totfact>
</mgrwt>
</event>
<event>
 8    1  0.2402290E-028  0.2775497E+04  0.7818608E-02  0.8310916E-01
          1   -1    0    0  501    0  0.00000000000E+00  0.00000000000E+00  0.15644968076E+04  0.15644968076E+04  0.50400000000E-02 0.  1.
         -1   -1    0    0    0  501 -0.00000000000E+00 -0.00000000000E+00 -0.12309682671E+04  0.12309682672E+04  0.50400000000E-02 0. -1.
     200001    2    1    2    0    0 -0.73372514333E+03  0.17761021479E+03  0.11039023964E+04  0.15096292172E+04  0.70034412846E+03 0.  0.
    5000001    2    3    3    0    0 -0.21040672744E+03  0.12272981974E+03  0.36234154520E+03  0.47194597159E+03  0.17918706738E+03 0.  0.
        -13    1    4    4    0    0 -0.76850271745E+02  0.13136926162E+03  0.25825560874E+03  0.29976627191E+03  0.10566000000E+00 0. -1.
     200003    1    4    4    0    0 -0.13355645569E+03 -0.86394418781E+01  0.10408593646E+03  0.17217969968E+03  0.30000000000E+02 0. -1.
     200000    1    3    3    0    0 -0.52331841589E+03  0.54880395044E+02  0.74156085124E+03  0.10376832456E+04  0.50000000000E+03 0.  1.
    -200001    1    1    2    0    0  0.73372514333E+03 -0.17761021479E+03 -0.77037385603E+03  0.12858358575E+04  0.70000000000E+03 0. -1.
<mgrwt>
<rscale>  0 0.27754970E+04</rscale>
<asrwt>0</asrwt>
<pdfrwt beam="1">  1        1 0.22349954E+00 0.27754970E+04</pdfrwt>
<pdfrwt beam="2">  1       -1 0.17585261E+00 0.27754970E+04</pdfrwt>
<totfact> 0.13749084E+00</totfact>
</mgrwt>
</event>
<event>
 8    1  0.2402290E-028  0.1465737E+04  0.7818608E-02  0.8907563E-01
          1   -1    0    0  501    0  0.00000000000E+00  0.00000000000E+00  0.12521893027E+04  0.12521893027E+04  0.50400000000E-02 0.  1.
         -1   -1    0    0    0  501 -0.00000000000E+00 -0.00000000000E+00 -0.42892572485E+03  0.42892572488E+03  0.50400000000E-02 0. -1.
     200001    2    1    2    0    0 -0.12238520795E+03 -0.12886339628E+03  0.55417953031E+03  0.91040747045E+03  0.70010206143E+03 0.  0.
    5000001    2    3    3    0    0 -0.83369833936E+02  0.11869485237E+03  0.15703144901E+03  0.22445274573E+03  0.68419017083E+02 0.  0.
        -13    1    4    4    0    0 -0.54666302939E+02  0.76327558358E+02  0.62278903638E+02  0.11266309886E+03  0.10566000000E+00 0. -1.
     200003    1    4    4    0    0 -0.28703530997E+02  0.42367294012E+02  0.94752545373E+02  0.11178964687E+03  0.30000000000E+02 0. -1.
     200000    1    3    3    0    0 -0.39015374013E+02 -0.24755824865E+03  0.39714808130E+03  0.68595472472E+03  0.50000000000E+03 0. -1.
    -200001    1    1    2    0    0  0.12238520795E+03  0.12886339628E+03  0.26908404757E+03  0.77070755717E+03  0.70000000000E+03 0. -1.
<mgrwt>
<rscale>  0 0.14657370E+04</rscale>
<asrwt>0</asrwt>
<pdfrwt beam="1">  1        1 0.17888418E+00 0.14657370E+04</pdfrwt>
<pdfrwt beam="2">  1       -1 0.61275105E-01 0.14657370E+04</pdfrwt>
<totfact> 0.29884205E+01</totfact>
</mgrwt>
</event>
<event>
 8    1  0.2402290E-028  0.2288763E+04  0.7818608E-02  0.8482365E-01
          1   -1    0    0  501    0  0.00000000000E+00  0.00000000000E+00  0.98824746917E+03  0.98824746918E+03  0.50400000000E-02 0.  1.
         -1   -1    0    0    0  501 -0.00000000000E+00 -0.00000000000E+00 -0.13251836986E+04  0.13251836986E+04  0.50400000000E-02 0. -1.
     200001    2    1    2    0    0 -0.39985093621E+03 -0.87894824121E+02  0.64821183540E+03  0.10374519435E+04  0.69894325959E+03 0.  0.
    5000001    2    3    3    0    0 -0.17836750671E+03 -0.47856878153E+02  0.24971150460E+03  0.35961681578E+03  0.18128201903E+03 0.  0.
        -13    1    4    4    0    0 -0.10041122407E+03 -0.59566550769E+02  0.24725154558E+02  0.11933956729E+03  0.10566000000E+00 0. -1.
     200003    1    4    4    0    0 -0.77956282642E+02  0.11709672616E+02  0.22498635004E+03  0.24027724849E+03  0.30000000000E+02 0. -1.
     200000    1    3    3    0    0 -0.22148342950E+03 -0.40037945969E+02  0.39850033080E+03  0.67783512767E+03  0.50000000000E+03 0.  1.
    -200001    1    1    2    0    0  0.39985093621E+03  0.87894824121E+02 -0.98514806484E+03  0.12759792243E+04  0.70000000000E+03 0. -1.
<mgrwt>
<rscale>  0 0.22887634E+04</rscale>
<asrwt>0</asrwt>
<pdfrwt beam="1">  1        1 0.14117821E+00 0.22887634E+04</pdfrwt>
<pdfrwt beam="2">  1       -1 0.18931196E+00 0.22887634E+04</pdfrwt>
<totfact> 0.28612627E+00</totfact>
</mgrwt>
</event>
<event>
 8    1  0.2402290E-028  0.2093126E+04  0.7818608E-02  0.8564277E-01
          1   -1    0    0  501    0  0.00000000000E+00  0.00000000000E+00  0.26525773955E+04  0.26525773955E+04  0.50400000000E-02 0.  1.
         -1   -1    0    0    0  501 -0.00000000000E+00 -0.00000000000E+00 -0.41291696432E+03  0.41291696435E+03  0.50400000000E-02 0. -1.
     200001    2    1    2    0    0 -0.12719435412E+02  0.68997783518E+03  0.59454717033E+03  0.11490839555E+04  0.70048297758E+03 0.  0.
    5000001    2    3    3    0    0  0.43020193187E+02  0.61355009879E+02  0.73259647291E+02  0.18991022544E+03  0.15837848196E+03 0.  0.
        -13    1    4    4    0    0  0.99676816027E+02  0.42084984401E+02  0.47884395652E+02  0.11831965211E+03  0.10566000000E+00 0. -1.
     200003    1    4    4    0    0 -0.56656622840E+02  0.19270025478E+02  0.25375251640E+02  0.71590573327E+02  0.30000000000E+02 0. -1.
     200000    1    3    3    0    0 -0.55739628599E+02  0.62862282530E+03  0.52128752304E+03  0.95917373002E+03  0.50000000000E+03 0. -1.
    -200001    1    1    2    0    0  0.12719435412E+02 -0.68997783518E+03  0.16451132608E+04  0.19164104044E+04  0.70000000000E+03 0.  1.
<mgrwt>
<rscale>  0 0.20931261E+04</rscale>
<asrwt>0</asrwt>
<pdfrwt beam="1">  1        1 0.37893962E+00 0.20931261E+04</pdfrwt>
<pdfrwt beam="2">  1       -1 0.58988139E-01 0.20931261E+04</pdfrwt>
<totfact> 0.38667655E+00</totfact>
</mgrwt>
</event>
<event>
 8    1  0.2402290E-028  0.1612799E+04  0.7818608E-02  0.8812723E-01
          1   -1    0    0  501    0  0.00000000000E+00  0.00000000000E+00  0.88151192295E+03  0.88151192297E+03  0.50400000000E-02 0.  1.
         -1   -1    0    0    0  501 -0.00000000000E+00 -0.00000000000E+00 -0.73768733047E+03  0.73768733049E+03  0.50400000000E-02 0. -1.
     200001    2    1    2    0    0 -0.28729016634E+03 -0.10891126262E+03 -0.18562419112E+03  0.78677279796E+03  0.70011269984E+03 0.  0.
    5000001    2    3    3    0    0 -0.12711583236E+03  0.53600044299E+02 -0.93141106645E+02  0.22944088333E+03  0.15791280383E+03 0.  0.
        -13    1    4    4    0    0  0.19135255719E+02  0.12683508331E+02  0.25568537059E+02  0.34362634450E+02  0.10566000000E+00 0. -1.
     200003    1    4    4    0    0 -0.14625108807E+03  0.40916535969E+02 -0.11870964370E+03  0.19507824888E+03  0.30000000000E+02 0. -1.
     200000    1    3    3    0    0 -0.16017433398E+03 -0.16251130692E+03 -0.92483084476E+02  0.55733191462E+03  0.50000000000E+03 0. -1.
    -200001    1    1    2    0    0  0.28729016634E+03  0.10891126262E+03  0.32944878360E+03  0.83242645550E+03  0.70000000000E+03 0.  1.
<mgrwt>
<rscale>  0 0.16127990E+04</rscale>
<asrwt>0</asrwt>
<pdfrwt beam="1">  1        1 0.12593027E+00 0.16127990E+04</pdfrwt>
<pdfrwt beam="2">  1       -1 0.10538390E+00 0.16127990E+04</pdfrwt>
<totfact> 0.17296668E+01</totfact>
</mgrwt>
</event>
<event>
 8    1  0.2402290E-028  0.1473432E+04  0.7818608E-02  0.8902315E-01
          1   -1    0    0  501    0  0.00000000000E+00  0.00000000000E+00  0.67895954366E+03  0.67895954367E+03  0.50400000000E-02 0. -1.
         -1   -1    0    0    0  501 -0.00000000000E+00 -0.00000000000E+00 -0.79938591298E+03  0.79938591299E+03  0.50400000000E-02 0.  1.
     200001    2    1    2    0    0 -0.27705899845E+02  0.19955890242E+02 -0.28954722807E+03  0.75739627725E+03  0.69903195139E+03 0.  0.
    5000001    2    3    3    0    0 -0.76919835329E+02 -0.80591713990E+00 -0.20864655609E+02  0.18727051144E+03  0.16946268035E+03 0.  0.
        -13    1    4    4    0    0 -0.95843245802E+02 -0.61367843086E+02  0.82989753835E+00  0.11380966490E+03  0.10566000000E+00 0. -1.
     200003    1    4    4    0    0  0.18923410473E+02  0.60561925946E+02 -0.21694553147E+02  0.73460846541E+02  0.30000000000E+02 0. -1.
     200000    1    3    3    0    0  0.49213935484E+02  0.20761807382E+02 -0.26868257246E+03  0.57012576581E+03  0.50000000000E+03 0.  1.
    -200001    1    1    2    0    0  0.27705899845E+02 -0.19955890242E+02  0.16912085875E+03  0.72094917942E+03  0.70000000000E+03 0. -1.
<mgrwt>
<rscale>  0 0.14734323E+04</rscale>
<asrwt>0</asrwt>
<pdfrwt beam="1">  1        1 0.96994221E-01 0.14734323E+04</pdfrwt>
<pdfrwt beam="2">  1       -1 0.11419799E+00 0.14734323E+04</pdfrwt>
<totfact> 0.21620894E+01</totfact>
</mgrwt>
</event>
<event>
 8    1  0.2402290E-028  0.1468485E+04  0.7818608E-02  0.8905685E-01
          1   -1    0    0  501    0  0.00000000000E+00  0.00000000000E+00  0.69923353333E+03  0.69923353335E+03  0.50400000000E-02 0.  1.
         -1   -1    0    0    0  501 -0.00000000000E+00 -0.00000000000E+00 -0.77100464594E+03  0.77100464596E+03  0.50400000000E-02 0. -1.
     200001    2    1    2    0    0  0.59879969195E+02  0.16068578629E+03  0.10656375313E+03  0.72780376674E+03  0.69924027113E+03 0.  0.
    5000001    2    3    3    0    0 -0.53804456324E+02  0.88140565229E+02  0.61505993337E+01  0.20029096200E+03  0.17150790311E+03 0.  0.
        -13    1    4    4    0    0  0.29165150987E+02  0.65262549465E+02  0.60950797527E+02  0.93940498604E+02  0.10566000000E+00 0. -1.
     200003    1    4    4    0    0 -0.82969607310E+02  0.22878015764E+02 -0.54800198194E+02  0.10635046340E+03  0.30000000000E+02 0. -1.
     200000    1    3    3    0    0  0.11368442552E+03  0.72545221062E+02  0.10041315380E+03  0.52751280474E+03  0.50000000000E+03 0.  1.
    -200001    1    1    2    0    0 -0.59879969195E+02 -0.16068578629E+03 -0.17833486575E+03  0.74243441257E+03  0.70000000000E+03 0.  1.
<mgrwt>
<rscale>  0 0.14684853E+04</rscale>
<asrwt>0</asrwt>
<pdfrwt beam="1">  1        1 0.99890506E-01 0.14684853E+04</pdfrwt>
<pdfrwt beam="2">  1       -1 0.11014352E+00 0.14684853E+04</pdfrwt>
<totfact> 0.22573082E+01</totfact>
</mgrwt>
</event>
<event>
 8    1  0.2402290E-028  0.1834812E+04  0.7818608E-02  0.8688003E-01
         -1   -1    0    0    0  501 -0.00000000000E+00  0.00000000000E+00  0.62623506478E+03  0.62623506480E+03  0.50400000000E-02 0. -1.
          1   -1    0    0  501    0  0.00000000000E+00 -0.00000000000E+00 -0.13439588221E+04  0.13439588221E+04  0.50400000000E-02 0.  1.
     200001    2    1    2    0    0 -0.34760762841E+03  0.34711033031E+02 -0.87269324872E+03  0.11726655411E+04  0.70108134034E+03 0.  0.
    5000001    2    3    3    0    0 -0.99843006094E+02  0.10666808592E+02 -0.10058499787E+03  0.21971402930E+03  0.16755448727E+03 0.  0.
        -13    1    4    4    0    0 -0.12014969486E+03  0.58230593918E+02 -0.83714465360E+02  0.15759084401E+03  0.10566000000E+00 0. -1.
     200003    1    4    4    0    0  0.20306688764E+02 -0.47563785326E+02 -0.16870532508E+02  0.62123185287E+02  0.30000000000E+02 0. -1.
     200000    1    3    3    0    0 -0.24776462231E+03  0.24044224439E+02 -0.77210825085E+03  0.95295151179E+03  0.50000000000E+03 0.  1.
    -200001    1    1    2    0    0  0.34760762841E+03 -0.34711033031E+02  0.15496949139E+03  0.79752834583E+03  0.70000000000E+03 0. -1.
<mgrwt>
<rscale>  0 0.18348124E+04</rscale>
<asrwt>0</asrwt>
<pdfrwt beam="1">  1        1 0.19199412E+00 0.18348124E+04</pdfrwt>
<pdfrwt beam="2">  1       -1 0.89462153E-01 0.18348124E+04</pdfrwt>
<totfact> 0.11397989E+01</totfact>
</mgrwt>
</event>
<event>
 8    1  0.2402290E-028  0.1432153E+04  0.7818608E-02  0.8930868E-01
         -1   -1    0    0    0  501 -0.00000000000E+00  0.00000000000E+00  0.62890332497E+03  0.62890332499E+03  0.50400000000E-02 0. -1.
          1   -1    0    0  501    0  0.00000000000E+00 -0.00000000000E+00 -0.81533230875E+03  0.81533230876E+03  0.50400000000E-02 0.  1.
     200001    2    1    2    0    0  0.32733163364E+02  0.13912281868E+03 -0.13972012920E+03  0.72826891962E+03  0.70030513786E+03 0.  0.
    5000001    2    3    3    0    0  0.36301825631E+01  0.36971258827E+02 -0.24510532949E+02  0.20428879047E+03  0.19938177320E+03 0.  0.
        -13    1    4    4    0    0  0.78739004149E+02  0.76739095986E+02  0.32093339477E+01  0.10999559362E+03  0.10566000000E+00 0. -1.
     200003    1    4    4    0    0 -0.75108821586E+02 -0.39767837159E+02 -0.27719866897E+02  0.94293196855E+02  0.30000000000E+02 0. -1.
     200000    1    3    3    0    0  0.29102980801E+02  0.10215155985E+03 -0.11520959625E+03  0.52398012914E+03  0.50000000000E+03 0.  1.
    -200001    1    1    2    0    0 -0.32733163364E+02 -0.13912281868E+03 -0.46708854578E+02  0.71596671414E+03  0.70000000000E+03 0. -1.
<mgrwt>
<rscale>  0 0.14321525E+04</rscale>
<asrwt>0</asrwt>
<pdfrwt beam="1">  1        1 0.11647604E+00 0.14321525E+04</pdfrwt>
<pdfrwt beam="2">  1       -1 0.89843332E-01 0.14321525E+04</pdfrwt>
<totfact> 0.28539875E+01</totfact>
</mgrwt>
</event>
<event>
 8    1  0.2402290E-028  0.1492622E+04  0.7818608E-02  0.8889374E-01
         -1   -1    0    0    0  501 -0.00000000000E+00  0.00000000000E+00  0.76699046132E+03  0.76699046133E+03  0.50400000000E-02 0. -1.
          1   -1    0    0  501    0  0.00000000000E+00 -0.00000000000E+00 -0.72618952882E+03  0.72618952883E+03  0.50400000000E-02 0.  1.
     200001    2    1    2    0    0  0.22414883035E+03  0.12175795767E+03 -0.25720201798E+02  0.74518750377E+03  0.69969649748E+03 0.  0.
    5000001    2    3    3    0    0  0.28090177302E+02 -0.22133604306E+02  0.92174550192E+01  0.18808390756E+03  0.18442245065E+03 0.  0.
        -13    1    4    4    0    0  0.35920338687E+02 -0.98415669812E+02  0.13488784552E+02  0.10563083484E+03  0.10566000000E+00 0. -1.
     200003    1    4    4    0    0 -0.78301613842E+01  0.76282065506E+02 -0.42713295326E+01  0.82453072721E+02  0.30000000000E+02 0. -1.
     200000    1    3    3    0    0  0.19605865304E+03  0.14389156198E+03 -0.34937656817E+02  0.55710359621E+03  0.50000000000E+03 0. -1.
    -200001    1    1    2    0    0 -0.22414883035E+03 -0.12175795767E+03  0.66521134298E+02  0.74799248640E+03  0.70000000000E+03 0.  1.
<mgrwt>
<rscale>  0 0.14926224E+04</rscale>
<asrwt>0</asrwt>
<pdfrwt beam="1">  1        1 0.10374136E+00 0.14926224E+04</pdfrwt>
<pdfrwt beam="2">  1       -1 0.10957007E+00 0.14926224E+04</pdfrwt>
<totfact> 0.21558213E+01</totfact>
</mgrwt>
</event>
<event>
 8    1  0.2402290E-028  0.1567496E+04  0.7818608E-02  0.8840769E-01
         -1   -1    0    0    0  501 -0.00000000000E+00  0.00000000000E+00  0.15802389201E+03  0.15802389209E+03  0.50400000000E-02 0. -1.
          1   -1    0    0  501    0  0.00000000000E+00 -0.00000000000E+00 -0.38871374981E+04  0.38871374981E+04  0.50400000000E-02 0.  1.
     200001    2    1    2    0    0  0.33643261973E+03  0.30415010046E+02 -0.21258111564E+04  0.22633952086E+04  0.69983770795E+03 0.  0.
    5000001    2    3    3    0    0  0.12809611525E+03 -0.32026879936E+02 -0.70494098856E+03  0.74149668294E+03  0.18825832701E+03 0.  0.
        -13    1    4    4    0    0 -0.24911751107E+02  0.42126850816E+02 -0.86274148224E+02  0.99189246992E+02  0.10566000000E+00 0. -1.
     200003    1    4    4    0    0  0.15300786636E+03 -0.74153730752E+02 -0.61866684033E+03  0.64230743595E+03  0.30000000000E+02 0. -1.
     200000    1    3    3    0    0  0.20833650448E+03  0.62441889982E+02 -0.14208701678E+04  0.15218985257E+04  0.50000000000E+03 0. -1.
    -200001    1    1    2    0    0 -0.33643261973E+03 -0.30415010046E+02 -0.16033024497E+04  0.17817661815E+04  0.70000000000E+03 0.  1.
<mgrwt>
<rscale>  0 0.15674956E+04</rscale>
<asrwt>0</asrwt>
<pdfrwt beam="1">  1        1 0.55530530E+00 0.15674956E+04</pdfrwt>
<pdfrwt beam="2">  1       -1 0.22574844E-01 0.15674956E+04</pdfrwt>
<totfact> 0.33220781E+00</totfact>
</mgrwt>
</event>
<event>
 8    1  0.2402290E-028  0.1965196E+04  0.7818608E-02  0.8623068E-01
          1   -1    0    0  501    0  0.00000000000E+00  0.00000000000E+00  0.19862857518E+04  0.19862857518E+04  0.50400000000E-02 0.  1.
         -1   -1    0    0    0  501 -0.00000000000E+00 -0.00000000000E+00 -0.48608261004E+03  0.48608261006E+03  0.50400000000E-02 0. -1.
     200001    2    1    2    0    0 -0.40515659536E+03  0.12239621184E+03  0.14349837221E+04  0.16517671968E+04  0.70001706425E+03 0.  0.
    5000001    2    3    3    0    0 -0.13453543556E+03  0.11407142690E+03  0.28433430221E+03  0.36829565379E+03  0.15389483206E+03 0.  0.
        -13    1    4    4    0    0 -0.13806893706E+03  0.73946424435E+02  0.12247947579E+03  0.19882740813E+03  0.10566000000E+00 0. -1.
     200003    1    4    4    0    0  0.35335014975E+01  0.40125002463E+02  0.16185482642E+03  0.16946824567E+03  0.30000000000E+02 0. -1.
     200000    1    3    3    0    0 -0.27062115980E+03  0.83247849424E+01  0.11506494199E+04  0.12834715430E+04  0.50000000000E+03 0.  1.
    -200001    1    1    2    0    0  0.40515659536E+03 -0.12239621184E+03  0.65219419670E+02  0.82060116509E+03  0.70000000000E+03 0. -1.
<mgrwt>
<rscale>  0 0.19651961E+04</rscale>
<asrwt>0</asrwt>
<pdfrwt beam="1">  1        1 0.28375511E+00 0.19651961E+04</pdfrwt>
<pdfrwt beam="2">  1       -1 0.69440371E-01 0.19651961E+04</pdfrwt>
<totfact> 0.74435675E+00</totfact>
</mgrwt>
</event>
<event>
 8    1  0.2402290E-028  0.1653560E+04  0.7818608E-02  0.8788303E-01
         -1   -1    0    0    0  501 -0.00000000000E+00  0.00000000000E+00  0.36012697369E+03  0.36012697373E+03  0.50400000000E-02 0.  1.
          1   -1    0    0  501    0  0.00000000000E+00 -0.00000000000E+00 -0.18981220290E+04  0.18981220290E+04  0.50400000000E-02 0. -1.
     200001    2    1    2    0    0  0.29067686717E+03  0.93455382876E+02 -0.33707521196E+03  0.83507107294E+03  0.70035494476E+03 0.  0.
    5000001    2    3    3    0    0  0.12748454619E+03 -0.10037855719E+03 -0.11605047482E+03  0.23253039848E+03  0.11947597771E+03 0.  0.
        -13    1    4    4    0    0  0.60480640139E+02 -0.94090935038E+01 -0.96108648178E+02  0.11394438245E+03  0.10566000000E+00 0. -1.
     200003    1    4    4    0    0  0.67003906050E+02 -0.90969463688E+02 -0.19941826646E+02  0.11858601604E+03  0.30000000000E+02 0. -1.
     200000    1    3    3    0    0  0.16319232098E+03  0.19383394007E+03 -0.22102473714E+03  0.60254067446E+03  0.50000000000E+03 0.  1.
    -200001    1    1    2    0    0 -0.29067686717E+03 -0.93455382876E+02 -0.12009198433E+04  0.14231779298E+04  0.70000000000E+03 0. -1.
<mgrwt>
<rscale>  0 0.16535597E+04</rscale>
<asrwt>0</asrwt>
<pdfrwt beam="1">  1        1 0.27116028E+00 0.16535597E+04</pdfrwt>
<pdfrwt beam="2">  1       -1 0.51446712E-01 0.16535597E+04</pdfrwt>
<totfact> 0.15723004E+01</totfact>
</mgrwt>
</event>
<event>
 8    1  0.2402290E-028  0.1961903E+04  0.7818608E-02  0.8624642E-01
         -1   -1    0    0    0  501 -0.00000000000E+00  0.00000000000E+00  0.78950641121E+03  0.78950641123E+03  0.50400000000E-02 0. -1.
          1   -1    0    0  501    0  0.00000000000E+00 -0.00000000000E+00 -0.12188196481E+04  0.12188196481E+04  0.50400000000E-02 0.  1.
     200001    2    1    2    0    0  0.18231060672E+03 -0.43692346598E+03  0.29828841276E+03  0.89318327339E+03  0.69617606267E+03 0.  0.
    5000001    2    3    3    0    0  0.58152048339E+02 -0.16514737986E+03  0.12135242701E+03  0.28442722073E+03  0.18845984863E+03 0.  0.
        -13    1    4    4    0    0 -0.66807756536E+02 -0.72533550152E+02  0.52332975590E+02  0.11163845094E+03  0.10566000000E+00 0. -1.
     200003    1    4    4    0    0  0.12495980488E+03 -0.92613829712E+02  0.69019451424E+02  0.17278876978E+03  0.30000000000E+02 0. -1.
     200000    1    3    3    0    0  0.12415855838E+03 -0.27177608612E+03  0.17693598575E+03  0.60875605267E+03  0.50000000000E+03 0. -1.
    -200001    1    1    2    0    0 -0.18231060672E+03  0.43692346598E+03 -0.72760164962E+03  0.11151427859E+04  0.70000000000E+03 0.  1.
<mgrwt>
<rscale>  0 0.19619031E+04</rscale>
<asrwt>0</asrwt>
<pdfrwt beam="1">  1        1 0.17411709E+00 0.19619031E+04</pdfrwt>
<pdfrwt beam="2">  1       -1 0.11278663E+00 0.19619031E+04</pdfrwt>
<totfact> 0.80684636E+00</totfact>
</mgrwt>
</event>
<event>
 8    1  0.2402290E-028  0.2340838E+04  0.7818608E-02  0.8461991E-01
         -1   -1    0    0    0  501 -0.00000000000E+00  0.00000000000E+00  0.79346015648E+03  0.79346015650E+03  0.50400000000E-02 0.  1.
          1   -1    0    0  501    0  0.00000000000E+00 -0.00000000000E+00 -0.17264650370E+04  0.17264650370E+04  0.50400000000E-02 0. -1.
     200001    2    1    2    0    0 -0.92451743840E+03  0.11007188759E+03 -0.31539090900E+03  0.12014809087E+04  0.69082315693E+03 0.  0.
    5000001    2    3    3    0    0 -0.31939623077E+03  0.21111221790E+02 -0.83814587192E+02  0.37824748567E+03  0.18326658035E+03 0.  0.
        -13    1    4    4    0    0 -0.17801742485E+03 -0.36195877261E+02  0.31898526756E+02  0.18443934573E+03  0.10566000000E+00 0. -1.
     200003    1    4    4    0    0 -0.14137880592E+03  0.57307099051E+02 -0.11571311395E+03  0.19380813993E+03  0.30000000000E+02 0. -1.
     200000    1    3    3    0    0 -0.60512120763E+03  0.88960665801E+02 -0.23157632181E+03  0.82323342304E+03  0.50000000000E+03 0. -1.
    -200001    1    1    2    0    0  0.92451743840E+03 -0.11007188759E+03 -0.61761397155E+03  0.13184442848E+04  0.70000000000E+03 0. -1.
<mgrwt>
<rscale>  0 0.23408385E+04</rscale>
<asrwt>0</asrwt>
<pdfrwt beam="1">  1        1 0.24663786E+00 0.23408385E+04</pdfrwt>
<pdfrwt beam="2">  1       -1 0.11335145E+00 0.23408385E+04</pdfrwt>
<totfact> 0.35730651E+00</totfact>
</mgrwt>
</event>
<event>
 8    1  0.2402290E-028  0.1507211E+04  0.7818608E-02  0.8879672E-01
          1   -1    0    0  501    0  0.00000000000E+00  0.00000000000E+00  0.30567397030E+04  0.30567397030E+04  0.50400000000E-02 0. -1.
         -1   -1    0    0    0  501 -0.00000000000E+00 -0.00000000000E+00 -0.18579319364E+03  0.18579319371E+03  0.50400000000E-02 0.  1.
     200001    2    1    2    0    0  0.13453256024E+01  0.24495941144E+03  0.11505550275E+04  0.13690992112E+04  0.70046331499E+03 0.  0.
    5000001    2    3    3    0    0  0.35896114399E+01  0.17067971816E+03  0.43353033222E+03  0.49180397965E+03  0.15741078090E+03 0.  0.
        -13    1    4    4    0    0  0.50277531141E+02  0.24237251449E+02  0.22019436836E+03  0.22715819492E+03  0.10566000000E+00 0. -1.
     200003    1    4    4    0    0 -0.46687919701E+02  0.14644246671E+03  0.21333596385E+03  0.26464578473E+03  0.30000000000E+02 0. -1.
     200000    1    3    3    0    0 -0.22442858375E+01  0.74279693286E+02  0.71702469524E+03  0.87729523152E+03  0.50000000000E+03 0.  1.
    -200001    1    1    2    0    0 -0.13453256024E+01 -0.24495941144E+03  0.17203914819E+04  0.18734336855E+04  0.70000000000E+03 0. -1.
<mgrwt>
<rscale>  0 0.15072112E+04</rscale>
<asrwt>0</asrwt>
<pdfrwt beam="1">  1        1 0.43667703E+00 0.15072112E+04</pdfrwt>
<pdfrwt beam="2">  1       -1 0.26541889E-01 0.15072112E+04</pdfrwt>
<totfact> 0.96127211E+00</totfact>
</mgrwt>
</event>
<event>
 8    1  0.2402290E-028  0.1570868E+04  0.7818608E-02  0.8838647E-01
          1   -1    0    0  501    0  0.00000000000E+00  0.00000000000E+00  0.51998971125E+04  0.51998971125E+04  0.50400000000E-02 0.  1.
         -1   -1    0    0    0  501 -0.00000000000E+00 -0.00000000000E+00 -0.11863825404E+03  0.11863825414E+03  0.50400000000E-02 0. -1.
     200001    2    1    2    0    0  0.22089431492E+02  0.33554925246E+03  0.21504620708E+04  0.22865968688E+04  0.70068315157E+03 0.  0.
    5000001    2    3    3    0    0  0.45148156034E+02  0.18447017028E+03  0.62714611391E+03  0.67605407267E+03  0.16634079853E+03 0.  0.
        -13    1    4    4    0    0 -0.50032558439E+02  0.12882533465E+03  0.34321794716E+03  0.36999701914E+03  0.10566000000E+00 0. -1.
     200003    1    4    4    0    0  0.95180714473E+02  0.55644835622E+02  0.28392816675E+03  0.30605705353E+03  0.30000000000E+02 0. -1.
     200000    1    3    3    0    0 -0.23058724542E+02  0.15107908219E+03  0.15233159569E+04  0.16105427962E+04  0.50000000000E+03 0. -1.
    -200001    1    1    2    0    0 -0.22089431492E+02 -0.33554925246E+03  0.29307967877E+04  0.30319384978E+04  0.70000000000E+03 0.  1.
<mgrwt>
<rscale>  0 0.15708682E+04</rscale>
<asrwt>0</asrwt>
<pdfrwt beam="1">  1        1 0.74284248E+00 0.15708682E+04</pdfrwt>
<pdfrwt beam="2">  1       -1 0.16948321E-01 0.15708682E+04</pdfrwt>
<totfact> 0.37743919E-01</totfact>
</mgrwt>
</event>
<event>
 8    1  0.2402290E-028  0.1920693E+04  0.7818608E-02  0.8644624E-01
         -1   -1    0    0    0  501 -0.00000000000E+00  0.00000000000E+00  0.22537336355E+03  0.22537336361E+03  0.50400000000E-02 0. -1.
          1   -1    0    0  501    0  0.00000000000E+00 -0.00000000000E+00 -0.40921683135E+04  0.40921683135E+04  0.50400000000E-02 0.  1.
     200001    2    1    2    0    0 -0.64513386500E+02  0.20220842642E+03 -0.53431874585E+03  0.90573161857E+03  0.69985928439E+03 0.  0.
    5000001    2    3    3    0    0 -0.80233375960E+02  0.41493986086E+02 -0.18616622103E+03  0.27542500275E+03  0.18177437880E+03 0.  0.
        -13    1    4    4    0    0 -0.10549001513E+03 -0.41936047336E+00 -0.19061009589E+03  0.21785439857E+03  0.10566000000E+00 0. -1.
     200003    1    4    4    0    0  0.25256639172E+02  0.41913346559E+02  0.44438748646E+01  0.57570604182E+02  0.30000000000E+02 0. -1.
     200000    1    3    3    0    0  0.15719989460E+02  0.16071444033E+03 -0.34815252482E+03  0.63030661581E+03  0.50000000000E+03 0. -1.
    -200001    1    1    2    0    0  0.64513386500E+02 -0.20220842642E+03 -0.33324762041E+04  0.34118100585E+04  0.70000000000E+03 0.  1.
<mgrwt>
<rscale>  0 0.19206934E+04</rscale>
<asrwt>0</asrwt>
<pdfrwt beam="1">  1        1 0.58459543E+00 0.19206934E+04</pdfrwt>
<pdfrwt beam="2">  1       -1 0.32196197E-01 0.19206934E+04</pdfrwt>
<totfact> 0.12111201E+00</totfact>
</mgrwt>
</event>
<event>
 8    1  0.2402290E-028  0.1733521E+04  0.7818608E-02  0.8742474E-01
         -1   -1    0    0    0  501 -0.00000000000E+00  0.00000000000E+00  0.73911164422E+03  0.73911164423E+03  0.50400000000E-02 0.  1.
          1   -1    0    0  501    0  0.00000000000E+00 -0.00000000000E+00 -0.10164552768E+04  0.10164552768E+04  0.50400000000E-02 0. -1.
     200001    2    1    2    0    0 -0.15649331869E+03  0.47613761186E+03 -0.38059090642E+02  0.86200423368E+03  0.70028966884E+03 0.  0.
    5000001    2    3    3    0    0 -0.75982737389E+02  0.19385438724E+02 -0.82433387600E+01  0.17936708231E+03  0.16110687747E+03 0.  0.
        -13    1    4    4    0    0 -0.11974464842E+03 -0.67793245435E+01 -0.80844607159E+01  0.12020860924E+03  0.10566000000E+00 0. -1.
     200003    1    4    4    0    0  0.43761911031E+02  0.26164763268E+02 -0.15887804408E+00  0.59158473072E+02  0.30000000000E+02 0. -1.
     200000    1    3    3    0    0 -0.80510581298E+02  0.45675217314E+03 -0.29815751882E+02  0.68263715137E+03  0.50000000000E+03 0. -1.
    -200001    1    1    2    0    0  0.15649331869E+03 -0.47613761186E+03 -0.23928454193E+03  0.89356268735E+03  0.70000000000E+03 0.  1.
<mgrwt>
<rscale>  0 0.17335212E+04</rscale>
<asrwt>0</asrwt>
<pdfrwt beam="1">  1        1 0.14520790E+00 0.17335212E+04</pdfrwt>
<pdfrwt beam="2">  1       -1 0.10558738E+00 0.17335212E+04</pdfrwt>
<totfact> 0.13418429E+01</totfact>
</mgrwt>
</event>
<event>
 8    1  0.2402290E-028  0.1617935E+04  0.7818608E-02  0.8809605E-01
          1   -1    0    0  501    0  0.00000000000E+00  0.00000000000E+00  0.87725600153E+03  0.87725600154E+03  0.50400000000E-02 0. -1.
         -1   -1    0    0    0  501 -0.00000000000E+00 -0.00000000000E+00 -0.74599498164E+03  0.74599498165E+03  0.50400000000E-02 0.  1.
     200001    2    1    2    0    0  0.16475026782E+03  0.29182265527E+03 -0.16657336308E+03  0.79198181346E+03  0.69798667229E+03 0.  0.
    5000001    2    3    3    0    0  0.97745206408E+02  0.58600146116E+02  0.51017784944E+02  0.19513315197E+03  0.14995342649E+03 0.  0.
        -13    1    4    4    0    0  0.12490034529E+03  0.69995025958E+02  0.24033662493E+02  0.14517929607E+03  0.10566000000E+00 0. -1.
     200003    1    4    4    0    0 -0.27155138879E+02 -0.11394879842E+02  0.26984122451E+02  0.49953855893E+02  0.30000000000E+02 0. -1.
     200000    1    3    3    0    0  0.67005061407E+02  0.23322250915E+03 -0.21759114802E+03  0.59684866149E+03  0.50000000000E+03 0.  1.
    -200001    1    1    2    0    0 -0.16475026782E+03 -0.29182265527E+03  0.29783438297E+03  0.83126916974E+03  0.70000000000E+03 0. -1.
<mgrwt>
<rscale>  0 0.16179352E+04</rscale>
<asrwt>0</asrwt>
<pdfrwt beam="1">  1        1 0.12532229E+00 0.16179352E+04</pdfrwt>
<pdfrwt beam="2">  1       -1 0.10657071E+00 0.16179352E+04</pdfrwt>
<totfact> 0.16975417E+01</totfact>
</mgrwt>
</event>
<event>
 8    1  0.2402290E-028  0.1703645E+04  0.7818608E-02  0.8759288E-01
          1   -1    0    0  501    0  0.00000000000E+00  0.00000000000E+00  0.68559735489E+03  0.68559735491E+03  0.50400000000E-02 0.  1.
         -1   -1    0    0    0  501 -0.00000000000E+00 -0.00000000000E+00 -0.10583499000E+04  0.10583499000E+04  0.50400000000E-02 0. -1.
     200001    2    1    2    0    0  0.14491013224E+03 -0.47188204234E+02  0.28535673562E+03  0.77115051438E+03  0.70001355431E+03 0.  0.
    5000001    2    3    3    0    0  0.94413321586E+02 -0.74516027518E+02  0.66804191687E+02  0.22245938790E+03  0.17481094242E+03 0.  0.
        -13    1    4    4    0    0  0.43171852574E+02 -0.46366986650E+01  0.11207626997E+03  0.12019321647E+03  0.10566000000E+00 0. -1.
     200003    1    4    4    0    0  0.51241469012E+02 -0.69879328852E+02 -0.45272078287E+02  0.10226617143E+03  0.30000000000E+02 0. -1.
     200000    1    3    3    0    0  0.50496810654E+02  0.27327823284E+02  0.21855254393E+03  0.54869112647E+03  0.50000000000E+03 0.  1.
    -200001    1    1    2    0    0 -0.14491013224E+03  0.47188204234E+02 -0.65810928076E+03  0.97279674057E+03  0.70000000000E+03 0. -1.
<mgrwt>
<rscale>  0 0.17036454E+04</rscale>
<asrwt>0</asrwt>
<pdfrwt beam="1">  1        1 0.97942479E-01 0.17036454E+04</pdfrwt>
<pdfrwt beam="2">  1       -1 0.15119284E+00 0.17036454E+04</pdfrwt>
<totfact> 0.10238479E+01</totfact>
</mgrwt>
</event>
<event>
 8    1  0.2402290E-028  0.1985102E+04  0.7818608E-02  0.8613618E-01
         -1   -1    0    0    0  501 -0.00000000000E+00  0.00000000000E+00  0.46612195772E+03  0.46612195774E+03  0.50400000000E-02 0. -1.
          1   -1    0    0  501    0  0.00000000000E+00 -0.00000000000E+00 -0.21135194179E+04  0.21135194180E+04  0.50400000000E-02 0.  1.
     200001    2    1    2    0    0 -0.98572227205E+02 -0.64914719578E+03 -0.11523036566E+04  0.14997217305E+04  0.70018068100E+03 0.  0.
    5000001    2    3    3    0    0  0.24461154086E+02 -0.12866145351E+03 -0.45451947061E+03  0.48831410194E+03  0.12128724300E+03 0.  0.
        -13    1    4    4    0    0  0.56451466100E+02 -0.24129861389E+02 -0.11486113228E+03  0.13023866211E+03  0.10566000000E+00 0. -1.
     200003    1    4    4    0    0 -0.31990312014E+02 -0.10453159212E+03 -0.33965833833E+03  0.35807543983E+03  0.30000000000E+02 0. -1.
     200000    1    3    3    0    0 -0.12303338129E+03 -0.52048574227E+03 -0.69778418600E+03  0.10114076285E+04  0.50000000000E+03 0. -1.
    -200001    1    1    2    0    0  0.98572227205E+02  0.64914719578E+03 -0.49509380362E+03  0.10799196452E+04  0.70000000000E+03 0.  1.
<mgrwt>
<rscale>  0 0.19851023E+04</rscale>
<asrwt>0</asrwt>
<pdfrwt beam="1">  1        1 0.30193134E+00 0.19851023E+04</pdfrwt>
<pdfrwt beam="2">  1       -1 0.66588852E-01 0.19851023E+04</pdfrwt>
<totfact> 0.67301818E+00</totfact>
</mgrwt>
</event>
<event>
 8    1  0.2402290E-028  0.2015698E+04  0.7818608E-02  0.8599316E-01
         -1   -1    0    0    0  501 -0.00000000000E+00  0.00000000000E+00  0.65814291570E+03  0.65814291572E+03  0.50400000000E-02 0. -1.
          1   -1    0    0  501    0  0.00000000000E+00 -0.00000000000E+00 -0.15433728532E+04  0.15433728532E+04  0.50400000000E-02 0.  1.
     200001    2    1    2    0    0 -0.54307374986E+03 -0.27360219609E+03 -0.11959768197E+02  0.92778579437E+03  0.70061129357E+03 0.  0.
    5000001    2    3    3    0    0 -0.14950322057E+03 -0.92944857295E+02 -0.41779797005E+02  0.26564980403E+03  0.19451043027E+03 0.  0.
        -13    1    4    4    0    0 -0.11349379863E+03 -0.56025843918E+02 -0.11513008029E+03  0.17109846307E+03  0.10566000000E+00 0. -1.
     200003    1    4    4    0    0 -0.36009421943E+02 -0.36919013377E+02  0.73350283289E+02  0.94551340953E+02  0.30000000000E+02 0. -1.
     200000    1    3    3    0    0 -0.39357052929E+03 -0.18065733879E+03  0.29820028808E+02  0.66213599034E+03  0.50000000000E+03 0. -1.
    -200001    1    1    2    0    0  0.54307374986E+03  0.27360219609E+03 -0.87327016928E+03  0.12737299745E+04  0.70000000000E+03 0.  1.
<mgrwt>
<rscale>  0 0.20156983E+04</rscale>
<asrwt>0</asrwt>
<pdfrwt beam="1">  1        1 0.22048183E+00 0.20156983E+04</pdfrwt>
<pdfrwt beam="2">  1       -1 0.94020417E-01 0.20156983E+04</pdfrwt>
<totfact> 0.74258734E+00</totfact>
</mgrwt>
</event>
<event>
 8    1  0.2402290E-028  0.1502089E+04  0.7818608E-02  0.8883065E-01
          1   -1    0    0  501    0  0.00000000000E+00  0.00000000000E+00  0.45521026751E+03  0.45521026754E+03  0.50400000000E-02 0.  1.
         -1   -1    0    0    0  501 -0.00000000000E+00 -0.00000000000E+00 -0.12391375975E+04  0.12391375975E+04  0.50400000000E-02 0. -1.
     200001    2    1    2    0    0  0.18804632144E+03  0.16066050955E+03 -0.26958454540E+03  0.79117472638E+03  0.70150438502E+03 0.  0.
    5000001    2    3    3    0    0  0.36109864842E+02  0.14930056521E+03 -0.38635703188E+02  0.21972822591E+03  0.15229312062E+03 0.  0.
        -13    1    4    4    0    0 -0.13374464859E+02  0.15043589835E+03 -0.16448237035E+01  0.15103824824E+03  0.10566000000E+00 0. -1.
     200003    1    4    4    0    0  0.49484329700E+02 -0.11353331361E+01 -0.36990879485E+02  0.68689977670E+02  0.30000000000E+02 0. -1.
     200000    1    3    3    0    0  0.15193645660E+03  0.11359944335E+02 -0.23094884221E+03  0.57144650047E+03  0.50000000000E+03 0.  1.
    -200001    1    1    2    0    0 -0.18804632144E+03 -0.16066050955E+03 -0.51434278455E+03  0.90317313864E+03  0.70000000000E+03 0. -1.
<mgrwt>
<rscale>  0 0.15020894E+04</rscale>
<asrwt>0</asrwt>
<pdfrwt beam="1">  1        1 0.65030039E-01 0.15020894E+04</pdfrwt>
<pdfrwt beam="2">  1       -1 0.17701966E+00 0.15020894E+04</pdfrwt>
<totfact> 0.11809112E+01</totfact>
</mgrwt>
</event>
<event>
 8    1  0.2402290E-028  0.1718146E+04  0.7818608E-02  0.8751082E-01
         -1   -1    0    0    0  501 -0.00000000000E+00  0.00000000000E+00  0.19521611376E+04  0.19521611376E+04  0.50400000000E-02 0. -1.
          1   -1    0    0  501    0  0.00000000000E+00 -0.00000000000E+00 -0.37804589654E+03  0.37804589658E+03  0.50400000000E-02 0.  1.
     200001    2    1    2    0    0 -0.40216851349E+03 -0.29362613309E+03  0.75822143925E+03  0.11454545220E+04  0.69943583819E+03 0.  0.
    5000001    2    3    3    0    0 -0.57850134429E+02 -0.11253821888E+03  0.23095582882E+03  0.32122336341E+03  0.18393576481E+03 0.  0.
        -13    1    4    4    0    0 -0.10970671634E+03 -0.43431318896E+02  0.18356347048E+03  0.21821411946E+03  0.10566000000E+00 0. -1.
     200003    1    4    4    0    0  0.51856581908E+02 -0.69106899981E+02  0.47392358339E+02  0.10300924396E+03  0.30000000000E+02 0. -1.
     200000    1    3    3    0    0 -0.34431837907E+03 -0.18108791421E+03  0.52726561042E+03  0.82423115858E+03  0.50000000000E+03 0. -1.
    -200001    1    1    2    0    0  0.40216851349E+03  0.29362613309E+03  0.81589380176E+03  0.11847525121E+04  0.70000000000E+03 0.  1.
<mgrwt>
<rscale>  0 0.17181461E+04</rscale>
<asrwt>0</asrwt>
<pdfrwt beam="1">  1        1 0.54006558E-01 0.17181461E+04</pdfrwt>
<pdfrwt beam="2">  1       -1 0.27888016E+00 0.17181461E+04</pdfrwt>
<totfact> 0.30779295E+00</totfact>
</mgrwt>
</event>
<event>
 8    1  0.2402290E-028  0.1426417E+04  0.7818608E-02  0.8934915E-01
         -1   -1    0    0    0  501 -0.00000000000E+00  0.00000000000E+00  0.41496060114E+03  0.41496060117E+03  0.50400000000E-02 0.  1.
          1   -1    0    0  501    0  0.00000000000E+00 -0.00000000000E+00 -0.12258185752E+04  0.12258185752E+04  0.50400000000E-02 0. -1.
     200001    2    1    2    0    0  0.17397164464E+02  0.72938242669E+02 -0.27506699025E+03  0.75607887296E+03  0.70026478166E+03 0.  0.
    5000001    2    3    3    0    0  0.64324391730E+02 -0.43704094417E+02 -0.86279146238E+02  0.20703566017E+03  0.17138260783E+03 0.  0.
        -13    1    4    4    0    0  0.65887312875E+02  0.44742272293E+02 -0.80819838193E+02  0.11346746819E+03  0.10566000000E+00 0. -1.
     200003    1    4    4    0    0 -0.15629211447E+01 -0.88446366710E+02 -0.54593080448E+01  0.93568191983E+02  0.30000000000E+02 0. -1.
     200000    1    3    3    0    0 -0.46927227266E+02  0.11664233709E+03 -0.18878784401E+03  0.54904321279E+03  0.50000000000E+03 0.  1.
    -200001    1    1    2    0    0 -0.17397164464E+02 -0.72938242669E+02 -0.53579098384E+03  0.88470030346E+03  0.70000000000E+03 0. -1.
<mgrwt>
<rscale>  0 0.14264171E+04</rscale>
<asrwt>0</asrwt>
<pdfrwt beam="1">  1        1 0.17511694E+00 0.14264171E+04</pdfrwt>
<pdfrwt beam="2">  1       -1 0.59280087E-01 0.14264171E+04</pdfrwt>
<totfact> 0.33375004E+01</totfact>
</mgrwt>
</event>
<event>
 8    1  0.2402290E-028  0.1498833E+04  0.7818608E-02  0.8885230E-01
         -1   -1    0    0    0  501 -0.00000000000E+00  0.00000000000E+00  0.31101013040E+03  0.31101013044E+03  0.50400000000E-02 0. -1.
          1   -1    0    0  501    0  0.00000000000E+00 -0.00000000000E+00 -0.18058089593E+04  0.18058089593E+04  0.50400000000E-02 0.  1.
     200001    2    1    2    0    0  0.21516704381E+03  0.13936036993E+02 -0.96954784370E+03  0.12154980219E+04  0.70065779818E+03 0.  0.
    5000001    2    3    3    0    0  0.12068949006E+03 -0.73513729930E+02 -0.31237978504E+03  0.37976880306E+03  0.16331868287E+03 0.  0.
        -13    1    4    4    0    0  0.20696436333E+02  0.20431389170E+02 -0.19377264810E+03  0.19594293674E+03  0.10566000000E+00 0. -1.
     200003    1    4    4    0    0  0.99993053729E+02 -0.93945119100E+02 -0.11860713694E+03  0.18382586633E+03  0.30000000000E+02 0. -1.
     200000    1    3    3    0    0  0.94477553744E+02  0.87449766924E+02 -0.65716805865E+03  0.83572921883E+03  0.50000000000E+03 0.  1.
    -200001    1    1    2    0    0 -0.21516704381E+03 -0.13936036993E+02 -0.52525098516E+03  0.90132106781E+03  0.70000000000E+03 0. -1.
<mgrwt>
<rscale>  0 0.14988327E+04</rscale>
<asrwt>0</asrwt>
<pdfrwt beam="1">  1        1 0.25797270E+00 0.14988327E+04</pdfrwt>
<pdfrwt beam="2">  1       -1 0.44430019E-01 0.14988327E+04</pdfrwt>
<totfact> 0.24022697E+01</totfact>
</mgrwt>
</event>
<event>
 8    1  0.2402290E-028  0.2473410E+04  0.7818608E-02  0.8412520E-01
         -1   -1    0    0    0  501 -0.00000000000E+00  0.00000000000E+00  0.12447246284E+04  0.12447246284E+04  0.50400000000E-02 0. -1.
          1   -1    0    0  501    0  0.00000000000E+00 -0.00000000000E+00 -0.12287365730E+04  0.12287365730E+04  0.50400000000E-02 0.  1.
     200001    2    1    2    0    0 -0.40271407012E+02 -0.70307388612E+03 -0.72934425311E+03  0.12319077689E+04  0.69979928257E+03 0.  0.
    5000001    2    3    3    0    0  0.96711021217E+01 -0.21048196336E+03 -0.24792727156E+03  0.37932148777E+03  0.19498890221E+03 0.  0.
        -13    1    4    4    0    0  0.31830354800E+02 -0.23792728108E+03 -0.19743420475E+03  0.31080997240E+03  0.10566000000E+00 0. -1.
     200003    1    4    4    0    0 -0.22159252678E+02  0.27445317718E+02 -0.50493066803E+02  0.68511515376E+02  0.30000000000E+02 0. -1.
     200000    1    3    3    0    0 -0.49942509134E+02 -0.49259192276E+03 -0.48141698155E+03  0.85258628109E+03  0.50000000000E+03 0.  1.
    -200001    1    1    2    0    0  0.40271407012E+02  0.70307388612E+03  0.74533230852E+03  0.12415534325E+04  0.70000000000E+03 0. -1.
<mgrwt>
<rscale>  0 0.24734095E+04</rscale>
<asrwt>0</asrwt>
<pdfrwt beam="1">  1        1 0.17553380E+00 0.24734095E+04</pdfrwt>
<pdfrwt beam="2">  1       -1 0.17781781E+00 0.24734095E+04</pdfrwt>
<totfact> 0.22842439E+00</totfact>
</mgrwt>
</event>
<event>
 8    1  0.2402290E-028  0.1829173E+04  0.7818608E-02  0.8690937E-01
         -1   -1    0    0    0  501 -0.00000000000E+00  0.00000000000E+00  0.36299623765E+03  0.36299623769E+03  0.50400000000E-02 0.  1.
          1   -1    0    0  501    0  0.00000000000E+00 -0.00000000000E+00 -0.23043459589E+04  0.23043459589E+04  0.50400000000E-02 0. -1.
     200001    2    1    2    0    0  0.32455451278E+03 -0.65914381460E+02 -0.26093961529E+03  0.81708317104E+03  0.69989648386E+03 0.  0.
    5000001    2    3    3    0    0  0.71231443171E+02 -0.80280954178E+02 -0.17484970333E+02  0.20581470289E+03  0.17474271841E+03 0.  0.
        -13    1    4    4    0    0  0.37923896450E+02  0.52054689743E+02  0.36304172321E+01  0.64506617796E+02  0.10566000000E+00 0. -1.
     200003    1    4    4    0    0  0.33307546722E+02 -0.13233564392E+03 -0.21115387566E+02  0.14130808509E+03  0.30000000000E+02 0. -1.
     200000    1    3    3    0    0  0.25332306960E+03  0.14366572718E+02 -0.24345464496E+03  0.61126846815E+03  0.50000000000E+03 0.  1.
    -200001    1    1    2    0    0 -0.32455451278E+03  0.65914381460E+02 -0.16804101060E+04  0.18502590256E+04  0.70000000000E+03 0. -1.
<mgrwt>
<rscale>  0 0.18291735E+04</rscale>
<asrwt>0</asrwt>
<pdfrwt beam="1">  1        1 0.32919227E+00 0.18291735E+04</pdfrwt>
<pdfrwt beam="2">  1       -1 0.51856607E-01 0.18291735E+04</pdfrwt>
<totfact> 0.84628020E+00</totfact>
</mgrwt>
</event>
<event>
 8    1  0.2402290E-028  0.1489186E+04  0.7818608E-02  0.8891676E-01
         -1   -1    0    0    0  501 -0.00000000000E+00  0.00000000000E+00  0.29716579557E+03  0.29716579561E+03  0.50400000000E-02 0. -1.
          1   -1    0    0  501    0  0.00000000000E+00 -0.00000000000E+00 -0.18656870578E+04  0.18656870578E+04  0.50400000000E-02 0.  1.
     200001    2    1    2    0    0 -0.17637018586E+03  0.10256424271E+03 -0.10005623099E+04  0.12386216930E+04  0.70102275001E+03 0.  0.
    5000001    2    3    3    0    0  0.83983851898E+01  0.27046877034E+02 -0.72986576935E+02  0.16612971739E+03  0.14652636676E+03 0.  0.
        -13    1    4    4    0    0 -0.48524805269E+02  0.56473890464E+02 -0.18216872319E+02  0.76653914653E+02  0.10566000000E+00 0. -1.
     200003    1    4    4    0    0  0.56923190458E+02 -0.29427013431E+02 -0.54769704616E+02  0.89475802735E+02  0.30000000000E+02 0. -1.
     200000    1    3    3    0    0 -0.18476857105E+03  0.75517365678E+02 -0.92757573298E+03  0.10724919756E+04  0.50000000000E+03 0.  1.
    -200001    1    1    2    0    0  0.17637018586E+03 -0.10256424271E+03 -0.56795895231E+03  0.92423116040E+03  0.70000000000E+03 0. -1.
<mgrwt>
<rscale>  0 0.14891855E+04</rscale>
<asrwt>0</asrwt>
<pdfrwt beam="1">  1        1 0.26652672E+00 0.14891855E+04</pdfrwt>
<pdfrwt beam="2">  1       -1 0.42452258E-01 0.14891855E+04</pdfrwt>
<totfact> 0.23974552E+01</totfact>
</mgrwt>
</event>
<event>
 8    1  0.2402290E-028  0.1726324E+04  0.7818608E-02  0.8746492E-01
          1   -1    0    0  501    0  0.00000000000E+00  0.00000000000E+00  0.24237838181E+04  0.24237838181E+04  0.50400000000E-02 0.  1.
         -1   -1    0    0    0  501 -0.00000000000E+00 -0.00000000000E+00 -0.30739069512E+03  0.30739069516E+03  0.50400000000E-02 0. -1.
     200001    2    1    2    0    0 -0.46328199187E+03 -0.18362974259E+03  0.11730232456E+04  0.14551271740E+04  0.70218336040E+03 0.  0.
    5000001    2    3    3    0    0 -0.12828084842E+03  0.71004502824E+01  0.24072373711E+03  0.32916707436E+03  0.18411043634E+03 0.  0.
        -13    1    4    4    0    0 -0.10801643078E+03  0.27206878647E+02  0.31322496863E+02  0.11571030005E+03  0.10566000000E+00 0. -1.
     200003    1    4    4    0    0 -0.20264417648E+02 -0.20106428365E+02  0.20940124025E+03  0.21345677431E+03  0.30000000000E+02 0. -1.
     200000    1    3    3    0    0 -0.33500114345E+03 -0.19073019287E+03  0.93229950845E+03  0.11259600997E+04  0.50000000000E+03 0.  1.
    -200001    1    1    2    0    0  0.46328199187E+03  0.18362974259E+03  0.94336987739E+03  0.12760473392E+04  0.70000000000E+03 0. -1.
<mgrwt>
<rscale>  0 0.17263239E+04</rscale>
<asrwt>0</asrwt>
<pdfrwt beam="1">  1        1 0.34625482E+00 0.17263239E+04</pdfrwt>
<pdfrwt beam="2">  1       -1 0.43912958E-01 0.17263239E+04</pdfrwt>
<totfact> 0.98200960E+00</totfact>
</mgrwt>
</event>
<event>
 8    1  0.2402290E-028  0.1856762E+04  0.7818608E-02  0.8676683E-01
          1   -1    0    0  501    0  0.00000000000E+00  0.00000000000E+00  0.10347855203E+04  0.10347855204E+04  0.50400000000E-02 0.  1.
         -1   -1    0    0    0  501 -0.00000000000E+00 -0.00000000000E+00 -0.83291816826E+03  0.83291816827E+03  0.50400000000E-02 0. -1.
     200001    2    1    2    0    0 -0.51283003088E+03 -0.30915785647E+03 -0.13671011082E+02  0.92164343326E+03  0.70047591018E+03 0.  0.
    5000001    2    3    3    0    0 -0.80589371705E+02 -0.12558396988E+03 -0.10153327747E+02  0.23568152952E+03  0.18214475829E+03 0.  0.
        -13    1    4    4    0    0 -0.96553958338E+02 -0.39237570052E+02  0.59175125557E+02  0.11984974102E+03  0.10566000000E+00 0. -1.
     200003    1    4    4    0    0  0.15964586633E+02 -0.86346399830E+02 -0.69328453304E+02  0.11583178850E+03  0.30000000000E+02 0. -1.
     200000    1    3    3    0    0 -0.43224065917E+03 -0.18357388658E+03 -0.35176833347E+01  0.68596190373E+03  0.50000000000E+03 0. -1.
    -200001    1    1    2    0    0  0.51283003088E+03  0.30915785647E+03  0.21553836316E+03  0.94606025537E+03  0.70000000000E+03 0.  1.
<mgrwt>
<rscale>  0 0.18567624E+04</rscale>
<asrwt>0</asrwt>
<pdfrwt beam="1">  1        1 0.14782650E+00 0.18567624E+04</pdfrwt>
<pdfrwt beam="2">  1       -1 0.11898831E+00 0.18567624E+04</pdfrwt>
<totfact> 0.96837244E+00</totfact>
</mgrwt>
</event>
<event>
 8    1  0.2402290E-028  0.1950691E+04  0.7818608E-02  0.8630028E-01
         -1   -1    0    0    0  501 -0.00000000000E+00  0.00000000000E+00  0.12096255242E+04  0.12096255242E+04  0.50400000000E-02 0.  1.
          1   -1    0    0  501    0  0.00000000000E+00 -0.00000000000E+00 -0.78644080105E+03  0.78644080107E+03  0.50400000000E-02 0. -1.
     200001    2    1    2    0    0  0.35847051267E+03  0.10490417491E+03  0.79196324134E+03  0.11211357052E+04  0.70016676552E+03 0.  0.
    5000001    2    3    3    0    0  0.29502161116E+02 -0.92797368943E+02  0.11778425787E+03  0.19819292341E+03  0.12619657006E+03 0.  0.
        -13    1    4    4    0    0  0.43598034074E+02  0.99889909046E+01  0.62529885993E+02  0.76880207601E+02  0.10566000000E+00 0. -1.
     200003    1    4    4    0    0 -0.14095872959E+02 -0.10278635985E+03  0.55254371882E+02  0.12131271581E+03  0.30000000000E+02 0. -1.
     200000    1    3    3    0    0  0.32896835156E+03  0.19770154385E+03  0.67417898346E+03  0.92294278182E+03  0.50000000000E+03 0.  1.
    -200001    1    1    2    0    0 -0.35847051267E+03 -0.10490417491E+03 -0.36877851821E+03  0.87493062003E+03  0.70000000000E+03 0. -1.
<mgrwt>
<rscale>  0 0.19506910E+04</rscale>
<asrwt>0</asrwt>
<pdfrwt beam="1">  1        1 0.11234869E+00 0.19506910E+04</pdfrwt>
<pdfrwt beam="2">  1       -1 0.17280364E+00 0.19506910E+04</pdfrwt>
<totfact> 0.56053421E+00</totfact>
</mgrwt>
</event>
<event>
 8    1  0.2402290E-028  0.1681285E+04  0.7818608E-02  0.8772111E-01
          1   -1    0    0  501    0  0.00000000000E+00  0.00000000000E+00  0.77692089584E+03  0.77692089586E+03  0.50400000000E-02 0.  1.
         -1   -1    0    0    0  501 -0.00000000000E+00 -0.00000000000E+00 -0.90959086737E+03  0.90959086738E+03  0.50400000000E-02 0. -1.
     200001    2    1    2    0    0 -0.35098703269E+03 -0.17863908658E+02  0.23892546333E+03  0.81956644573E+03  0.70078011215E+03 0.  0.
    5000001    2    3    3    0    0  0.92853378836E+01 -0.36306479598E+02  0.27007087310E+02  0.16761115008E+03  0.16112025604E+03 0.  0.
        -13    1    4    4    0    0 -0.50668370580E+02 -0.69905218849E+02 -0.40820933478E+01  0.86433199927E+02  0.10566000000E+00 0. -1.
     200003    1    4    4    0    0  0.59953708464E+02  0.33598739250E+02  0.31089180658E+02  0.81177950157E+02  0.30000000000E+02 0. -1.
     200000    1    3    3    0    0 -0.36027237058E+03  0.18442570940E+02  0.21191837602E+03  0.65195529564E+03  0.50000000000E+03 0.  1.
    -200001    1    1    2    0    0  0.35098703269E+03  0.17863908658E+02 -0.37159543485E+03  0.86694531751E+03  0.70000000000E+03 0. -1.
<mgrwt>
<rscale>  0 0.16812854E+04</rscale>
<asrwt>0</asrwt>
<pdfrwt beam="1">  1        1 0.11098870E+00 0.16812854E+04</pdfrwt>
<pdfrwt beam="2">  1       -1 0.12994155E+00 0.16812854E+04</pdfrwt>
<totfact> 0.12633197E+01</totfact>
</mgrwt>
</event>
<event>
 8    1  0.2402290E-028  0.1928364E+04  0.7818608E-02  0.8640865E-01
         -1   -1    0    0    0  501 -0.00000000000E+00  0.00000000000E+00  0.31752854299E+04  0.31752854299E+04  0.50400000000E-02 0. -1.
          1   -1    0    0  501    0  0.00000000000E+00 -0.00000000000E+00 -0.29277592631E+03  0.29277592635E+03  0.50400000000E-02 0.  1.
     200001    2    1    2    0    0  0.16274602183E+03 -0.63997486053E+03  0.13322873661E+04  0.16434400900E+04  0.69989400183E+03 0.  0.
    5000001    2    3    3    0    0  0.13864798546E+03 -0.12877742139E+03  0.39651019031E+03  0.46548318930E+03  0.15377704762E+03 0.  0.
        -13    1    4    4    0    0  0.43989684796E+02 -0.86723878527E+02  0.65231740828E+02  0.11709532292E+03  0.10566000000E+00 0. -1.
     200003    1    4    4    0    0  0.94658300668E+02 -0.42053542861E+02  0.33127844948E+03  0.34838786638E+03  0.30000000000E+02 0. -1.
     200000    1    3    3    0    0  0.24098036370E+02 -0.51119743914E+03  0.93577717579E+03  0.11779569007E+04  0.50000000000E+03 0. -1.
    -200001    1    1    2    0    0 -0.16274602183E+03  0.63997486053E+03  0.15502221375E+04  0.18246212662E+04  0.70000000000E+03 0.  1.
<mgrwt>
<rscale>  0 0.19283642E+04</rscale>
<asrwt>0</asrwt>
<pdfrwt beam="1">  1        1 0.41825130E-01 0.19283642E+04</pdfrwt>
<pdfrwt beam="2">  1       -1 0.45361223E+00 0.19283642E+04</pdfrwt>
<totfact> 0.28533905E-01</totfact>
</mgrwt>
</event>
<event>
 8    1  0.2402290E-028  0.1439555E+04  0.7818608E-02  0.8925674E-01
         -1   -1    0    0    0  501 -0.00000000000E+00  0.00000000000E+00  0.26968056020E+03  0.26968056025E+03  0.50400000000E-02 0.  1.
          1   -1    0    0  501    0  0.00000000000E+00 -0.00000000000E+00 -0.19210854202E+04  0.19210854202E+04  0.50400000000E-02 0. -1.
     200001    2    1    2    0    0  0.88614221242E+01  0.74755734649E+02 -0.60028845629E+03  0.92565229434E+03  0.70058475189E+03 0.  0.
    5000001    2    3    3    0    0 -0.11672452648E+02  0.64556601058E+01 -0.18299261967E+03  0.27050165864E+03  0.19876349457E+03 0.  0.
        -13    1    4    4    0    0 -0.29111075105E+02  0.46002567387E+02  0.22110075497E+02  0.58758467496E+02  0.10566000000E+00 0. -1.
     200003    1    4    4    0    0  0.17438622457E+02 -0.39546907282E+02 -0.20510269517E+03  0.21174319114E+03  0.30000000000E+02 0. -1.
     200000    1    3    3    0    0  0.20533874772E+02  0.68300074544E+02 -0.41729583662E+03  0.65515063570E+03  0.50000000000E+03 0.  1.
    -200001    1    1    2    0    0 -0.88614221242E+01 -0.74755734649E+02 -0.10511164037E+04  0.12651136861E+04  0.70000000000E+03 0. -1.
<mgrwt>
<rscale>  0 0.14395546E+04</rscale>
<asrwt>0</asrwt>
<pdfrwt beam="1">  1        1 0.27444077E+00 0.14395546E+04</pdfrwt>
<pdfrwt beam="2">  1       -1 0.38525795E-01 0.14395546E+04</pdfrwt>
<totfact> 0.26532637E+01</totfact>
</mgrwt>
</event>
<event>
 8    1  0.2402290E-028  0.2820105E+04  0.7818608E-02  0.8297054E-01
         -1   -1    0    0    0  501 -0.00000000000E+00  0.00000000000E+00  0.85232582964E+03  0.85232582966E+03  0.50400000000E-02 0. -1.
          1   -1    0    0  501    0  0.00000000000E+00 -0.00000000000E+00 -0.23327315437E+04  0.23327315437E+04  0.50400000000E-02 0.  1.
     200001    2    1    2    0    0 -0.77162324319E+03 -0.90930192980E+03 -0.43159463455E+03  0.14494776116E+04  0.70176847249E+03 0.  0.
    5000001    2    3    3    0    0 -0.29727121496E+03 -0.28311927921E+03 -0.15914421784E+03  0.47924888179E+03  0.18927732859E+03 0.  0.
        -13    1    4    4    0    0 -0.15971105631E+02  0.45400931907E+01 -0.62104428029E+02  0.64285766746E+02  0.10566000000E+00 0. -1.
     200003    1    4    4    0    0 -0.28130010933E+03 -0.28765937240E+03 -0.97039789815E+02  0.41496311504E+03  0.30000000000E+02 0. -1.
     200000    1    3    3    0    0 -0.47435202823E+03 -0.62618265059E+03 -0.27245041670E+03  0.97022872981E+03  0.50000000000E+03 0.  1.
    -200001    1    1    2    0    0  0.77162324319E+03  0.90930192980E+03 -0.10488110795E+04  0.17355797618E+04  0.70000000000E+03 0. -1.
<mgrwt>
<rscale>  0 0.28201045E+04</rscale>
<asrwt>0</asrwt>
<pdfrwt beam="1">  1        1 0.33324736E+00 0.28201045E+04</pdfrwt>
<pdfrwt beam="2">  1       -1 0.12176083E+00 0.28201045E+04</pdfrwt>
<totfact> 0.11937850E+00</totfact>
</mgrwt>
</event>
<event>
 8    1  0.2402290E-028  0.2017302E+04  0.7818608E-02  0.8598574E-01
          1   -1    0    0  501    0  0.00000000000E+00  0.00000000000E+00  0.64860342011E+03  0.64860342013E+03  0.50400000000E-02 0.  1.
         -1   -1    0    0    0  501 -0.00000000000E+00 -0.00000000000E+00 -0.15685657179E+04  0.15685657179E+04  0.50400000000E-02 0. -1.
     200001    2    1    2    0    0  0.70006593530E+03 -0.66061987960E+02 -0.26259792817E+03  0.10269656199E+04  0.70088815986E+03 0.  0.
    5000001    2    3    3    0    0  0.37274927725E+02  0.60558503085E+02 -0.46752771405E+02  0.15983598708E+03  0.13529585581E+03 0.  0.
        -13    1    4    4    0    0  0.50925875163E+02  0.44065341852E+02 -0.83848194387E+02  0.10754408389E+03  0.10566000000E+00 0. -1.
     200003    1    4    4    0    0 -0.13650947438E+02  0.16493161233E+02  0.37095422983E+02  0.52291903194E+02  0.30000000000E+02 0. -1.
     200000    1    3    3    0    0  0.66279100758E+03 -0.12662049104E+03 -0.21584515676E+03  0.86712963286E+03  0.50000000000E+03 0. -1.
    -200001    1    1    2    0    0 -0.70006593530E+03  0.66061987960E+02 -0.65736436962E+03  0.11902035181E+04  0.70000000000E+03 0.  1.
<mgrwt>
<rscale>  0 0.20173022E+04</rscale>
<asrwt>0</asrwt>
<pdfrwt beam="1">  1        1 0.92657632E-01 0.20173022E+04</pdfrwt>
<pdfrwt beam="2">  1       -1 0.22408082E+00 0.20173022E+04</pdfrwt>
<totfact> 0.32739070E+00</totfact>
</mgrwt>
</event>
<event>
 8    1  0.2402290E-028  0.1556886E+04  0.7818608E-02  0.8847481E-01
          1   -1    0    0  501    0  0.00000000000E+00  0.00000000000E+00  0.16782022266E+04  0.16782022266E+04  0.50400000000E-02 0.  1.
         -1   -1    0    0    0  501 -0.00000000000E+00 -0.00000000000E+00 -0.36108488858E+03  0.36108488861E+03  0.50400000000E-02 0. -1.
     200001    2    1    2    0    0  0.29090399420E+03  0.46324435405E+02  0.43675232285E+03  0.87661190386E+03  0.70066022531E+03 0.  0.
    5000001    2    3    3    0    0  0.50938527523E+02 -0.92882872564E+02  0.15736210819E+03  0.24019930826E+03  0.14734623509E+03 0.  0.
        -13    1    4    4    0    0 -0.45048483655E+02 -0.37723029011E+02  0.21914584019E+02  0.62710867911E+02  0.10566000000E+00 0. -1.
     200003    1    4    4    0    0  0.95987011178E+02 -0.55159843553E+02  0.13544752417E+03  0.17748844035E+03  0.30000000000E+02 0. -1.
     200000    1    3    3    0    0  0.23996546668E+03  0.13920730797E+03  0.27939021466E+03  0.63641259560E+03  0.50000000000E+03 0.  1.
    -200001    1    1    2    0    0 -0.29090399420E+03 -0.46324435405E+02  0.88036501519E+03  0.11626752114E+04  0.70000000000E+03 0. -1.
<mgrwt>
<rscale>  0 0.15568859E+04</rscale>
<asrwt>0</asrwt>
<pdfrwt beam="1">  1        1 0.23974318E+00 0.15568859E+04</pdfrwt>
<pdfrwt beam="2">  1       -1 0.51583554E-01 0.15568859E+04</pdfrwt>
<totfact> 0.21748410E+01</totfact>
</mgrwt>
</event>
<event>
 8    1  0.2402290E-028  0.1858129E+04  0.7818608E-02  0.8675983E-01
         -1   -1    0    0    0  501 -0.00000000000E+00  0.00000000000E+00  0.78309415605E+03  0.78309415607E+03  0.50400000000E-02 0. -1.
          1   -1    0    0  501    0  0.00000000000E+00 -0.00000000000E+00 -0.11022446023E+04  0.11022446023E+04  0.50400000000E-02 0.  1.
     200001    2    1    2    0    0 -0.85059449099E+00  0.58274516194E+02  0.45738426495E+03  0.83824621212E+03  0.70004264410E+03 0.  0.
    5000001    2    3    3    0    0 -0.65503627377E+02  0.50584681376E+02  0.16369529101E+03  0.25472897876E+03  0.17675171605E+03 0.  0.
        -13    1    4    4    0    0  0.48164559018E+01  0.66586591946E+02 -0.68863057356E+01  0.67114863072E+02  0.10566000000E+00 0. -1.
     200003    1    4    4    0    0 -0.70320083279E+02 -0.16001910569E+02  0.17058159675E+03  0.18761411568E+03  0.30000000000E+02 0. -1.
     200000    1    3    3    0    0  0.64653032886E+02  0.76898348177E+01  0.29368897393E+03  0.58351723336E+03  0.50000000000E+03 0. -1.
    -200001    1    1    2    0    0  0.85059449099E+00 -0.58274516194E+02 -0.77653471117E+03  0.10470925462E+04  0.70000000000E+03 0.  1.
<mgrwt>
<rscale>  0 0.18581295E+04</rscale>
<asrwt>0</asrwt>
<pdfrwt beam="1">  1        1 0.15746351E+00 0.18581295E+04</pdfrwt>
<pdfrwt beam="2">  1       -1 0.11187059E+00 0.18581295E+04</pdfrwt>
<totfact> 0.10028627E+01</totfact>
</mgrwt>
</event>
<event>
 8    1  0.2402290E-028  0.2612962E+04  0.7818608E-02  0.8363812E-01
         -1   -1    0    0    0  501 -0.00000000000E+00  0.00000000000E+00  0.65345673785E+03  0.65345673787E+03  0.50400000000E-02 0. -1.
          1   -1    0    0  501    0  0.00000000000E+00 -0.00000000000E+00 -0.26120977185E+04  0.26120977185E+04  0.50400000000E-02 0.  1.
     200001    2    1    2    0    0  0.20658291288E+03 -0.33444330311E+03 -0.22672996049E+04  0.24054387844E+04  0.70068496808E+03 0.  0.
    5000001    2    3    3    0    0  0.26797077262E+02 -0.14078921349E+03 -0.69475005588E+03  0.73429039570E+03  0.18964455987E+03 0.  0.
        -13    1    4    4    0    0  0.98752812156E+02 -0.77649508682E+02 -0.26911285372E+03  0.29699040945E+03  0.10566000000E+00 0. -1.
     200003    1    4    4    0    0 -0.71955734894E+02 -0.63139704812E+02 -0.42563720216E+03  0.43729998624E+03  0.30000000000E+02 0. -1.
     200000    1    3    3    0    0  0.17978583561E+03 -0.19365408962E+03 -0.15725495490E+04  0.16711483887E+04  0.50000000000E+03 0.  1.
    -200001    1    1    2    0    0 -0.20658291288E+03  0.33444330311E+03  0.30865862419E+03  0.86011567197E+03  0.70000000000E+03 0. -1.
<mgrwt>
<rscale>  0 0.26129622E+04</rscale>
<asrwt>0</asrwt>
<pdfrwt beam="1">  1        1 0.37315681E+00 0.26129622E+04</pdfrwt>
<pdfrwt beam="2">  1       -1 0.93350964E-01 0.26129622E+04</pdfrwt>
<totfact> 0.15027008E+00</totfact>
</mgrwt>
</event>
<event>
 8    1  0.2402290E-028  0.1905885E+04  0.7818608E-02  0.8651933E-01
          1   -1    0    0  501    0  0.00000000000E+00  0.00000000000E+00  0.10510228913E+04  0.10510228913E+04  0.50400000000E-02 0.  1.
         -1   -1    0    0    0  501 -0.00000000000E+00 -0.00000000000E+00 -0.86401449122E+03  0.86401449123E+03  0.50400000000E-02 0. -1.
     200001    2    1    2    0    0  0.22177990220E+03  0.14117656766E+03 -0.50023115428E+03  0.89945117085E+03  0.69975999655E+03 0.  0.
    5000001    2    3    3    0    0  0.54822002219E+02  0.79333408212E+02 -0.29253677476E+03  0.32950689988E+03  0.11703756189E+03 0.  0.
        -13    1    4    4    0    0  0.29001147935E+02  0.95041726227E+02 -0.14379013052E+03  0.17478446471E+03  0.10566000000E+00 0. -1.
     200003    1    4    4    0    0  0.25820854284E+02 -0.15708318016E+02 -0.14874664424E+03  0.15472243516E+03  0.30000000000E+02 0. -1.
     200000    1    3    3    0    0  0.16695789998E+03  0.61843159444E+02 -0.20769437952E+03  0.56994427098E+03  0.50000000000E+03 0. -1.
    -200001    1    1    2    0    0 -0.22177990220E+03 -0.14117656766E+03  0.68723955432E+03  0.10155862116E+04  0.70000000000E+03 0.  1.
<mgrwt>
<rscale>  0 0.19058846E+04</rscale>
<asrwt>0</asrwt>
<pdfrwt beam="1">  1        1 0.15014613E+00 0.19058846E+04</pdfrwt>
<pdfrwt beam="2">  1       -1 0.12343064E+00 0.19058846E+04</pdfrwt>
<totfact> 0.85727494E+00</totfact>
</mgrwt>
</event>
<event>
 8    1  0.2402290E-028  0.1470869E+04  0.7818608E-02  0.8904059E-01
          1   -1    0    0  501    0  0.00000000000E+00  0.00000000000E+00  0.14022887607E+04  0.14022887607E+04  0.50400000000E-02 0.  1.
         -1   -1    0    0    0  501 -0.00000000000E+00 -0.00000000000E+00 -0.38570078870E+03  0.38570078873E+03  0.50400000000E-02 0. -1.
     200001    2    1    2    0    0  0.19098880741E+03 -0.67086172495E+02  0.38905069513E+03  0.82633456299E+03  0.70035068896E+03 0.  0.
    5000001    2    3    3    0    0 -0.72747249415E+02 -0.13982290125E+02  0.56857519213E+02  0.16851313121E+03  0.14027198995E+03 0.  0.
        -13    1    4    4    0    0 -0.69668614695E+02  0.38905514783E+02 -0.72235410511E+01  0.80122067269E+02  0.10566000000E+00 0. -1.
     200003    1    4    4    0    0 -0.30786347197E+01 -0.52887804908E+02  0.64081060264E+02  0.88391063939E+02  0.30000000000E+02 0. -1.
     200000    1    3    3    0    0  0.26373605682E+03 -0.53103882370E+02  0.33219317592E+03  0.65782143179E+03  0.50000000000E+03 0. -1.
    -200001    1    1    2    0    0 -0.19098880741E+03  0.67086172495E+02  0.62753727684E+03  0.96165498643E+03  0.70000000000E+03 0.  1.
<mgrwt>
<rscale>  0 0.14708690E+04</rscale>
<asrwt>0</asrwt>
<pdfrwt beam="1">  1        1 0.20032696E+00 0.14708690E+04</pdfrwt>
<pdfrwt beam="2">  1       -1 0.55100114E-01 0.14708690E+04</pdfrwt>
<totfact> 0.29150331E+01</totfact>
</mgrwt>
</event>
<event>
 8    1  0.2402290E-028  0.2137060E+04  0.7818608E-02  0.8545092E-01
         -1   -1    0    0    0  501 -0.00000000000E+00  0.00000000000E+00  0.69840997379E+03  0.69840997380E+03  0.50400000000E-02 0. -1.
          1   -1    0    0  501    0  0.00000000000E+00 -0.00000000000E+00 -0.16347932540E+04  0.16347932540E+04  0.50400000000E-02 0.  1.
     200001    2    1    2    0    0  0.21210652316E+03 -0.54865626557E+03 -0.10720759334E+04  0.14088519034E+04  0.69964562718E+03 0.  0.
    5000001    2    3    3    0    0  0.48650495971E+02 -0.95244171947E+02 -0.22534783972E+03  0.31374968706E+03  0.19031262232E+03 0.  0.
        -13    1    4    4    0    0  0.18801753396E+02  0.20257105409E+02 -0.18083283258E+03  0.18293272193E+03  0.10566000000E+00 0. -1.
     200003    1    4    4    0    0  0.29848742575E+02 -0.11550127736E+03 -0.44515007143E+02  0.13081696513E+03  0.30000000000E+02 0. -1.
     200000    1    3    3    0    0  0.16345602719E+03 -0.45341209362E+03 -0.84672809371E+03  0.10951022163E+04  0.50000000000E+03 0. -1.
    -200001    1    1    2    0    0 -0.21210652316E+03  0.54865626557E+03  0.13569265321E+03  0.92435132447E+03  0.70000000000E+03 0. -1.
<mgrwt>
<rscale>  0 0.21370596E+04</rscale>
<asrwt>0</asrwt>
<pdfrwt beam="1">  1        1 0.23354189E+00 0.21370596E+04</pdfrwt>
<pdfrwt beam="2">  1       -1 0.99772854E-01 0.21370596E+04</pdfrwt>
<totfact> 0.56090788E+00</totfact>
</mgrwt>
</event>
<event>
 8    1  0.2402290E-028  0.2647329E+04  0.7818608E-02  0.8352300E-01
         -1   -1    0    0    0  501 -0.00000000000E+00  0.00000000000E+00  0.58913928273E+03  0.58913928275E+03  0.50400000000E-02 0. -1.
          1   -1    0    0  501    0  0.00000000000E+00 -0.00000000000E+00 -0.29739783419E+04  0.29739783420E+04  0.50400000000E-02 0.  1.
     200001    2    1    2    0    0  0.55978012102E+03 -0.86072403461E+03 -0.57980715680E+03  0.13716934721E+04  0.70083307200E+03 0.  0.
    5000001    2    3    3    0    0  0.19086162840E+03 -0.19039468140E+03 -0.17313124951E+03  0.37127976295E+03  0.18760580194E+03 0.  0.
        -13    1    4    4    0    0  0.19267840212E+03 -0.21541364358E+03 -0.15771936098E+03  0.32924673495E+03  0.10566000000E+00 0. -1.
     200003    1    4    4    0    0 -0.18167737130E+01  0.25018962179E+02 -0.15411888531E+02  0.42033028006E+02  0.30000000000E+02 0. -1.
     200000    1    3    3    0    0  0.36891849262E+03 -0.67032935321E+03 -0.40667590729E+03  0.10004137092E+04  0.50000000000E+03 0. -1.
    -200001    1    1    2    0    0 -0.55978012102E+03  0.86072403461E+03 -0.18050319024E+04  0.21914241526E+04  0.70000000000E+03 0.  1.
<mgrwt>
<rscale>  0 0.26473288E+04</rscale>
<asrwt>0</asrwt>
<pdfrwt beam="1">  1        1 0.42485404E+00 0.26473288E+04</pdfrwt>
<pdfrwt beam="2">  1       -1 0.84162756E-01 0.26473288E+04</pdfrwt>
<totfact> 0.10946852E+00</totfact>
</mgrwt>
</event>
<event>
 8    1  0.2402290E-028  0.3061199E+04  0.7818608E-02  0.8226468E-01
          1   -1    0    0  501    0  0.00000000000E+00  0.00000000000E+00  0.25938352636E+04  0.25938352636E+04  0.50400000000E-02 0. -1.
         -1   -1    0    0    0  501 -0.00000000000E+00 -0.00000000000E+00 -0.90319358889E+03  0.90319358891E+03  0.50400000000E-02 0.  1.
     200001    2    1    2    0    0 -0.56785228953E+03 -0.21009419449E+02 -0.56767731038E+03  0.10653828551E+04  0.69991819577E+03 0.  0.
    5000001    2    3    3    0    0 -0.29688856495E+03 -0.31450009768E+02 -0.12371692081E+03  0.34383509265E+03  0.11740856585E+03 0.  0.
        -13    1    4    4    0    0 -0.11033164553E+02  0.34529463108E+01  0.18064896879E+02  0.21447732318E+02  0.10566000000E+00 0. -1.
     200003    1    4    4    0    0 -0.28585540039E+03 -0.34902956079E+02 -0.14178181769E+03  0.32238736033E+03  0.30000000000E+02 0. -1.
     200000    1    3    3    0    0 -0.27096372458E+03  0.10440590320E+02 -0.44396038957E+03  0.72154776243E+03  0.50000000000E+03 0.  1.
    -200001    1    1    2    0    0  0.56785228953E+03  0.21009419449E+02  0.22583189851E+04  0.24316459974E+04  0.70000000000E+03 0. -1.
<mgrwt>
<rscale>  0 0.30611994E+04</rscale>
<asrwt>0</asrwt>
<pdfrwt beam="1">  1        1 0.37054790E+00 0.30611994E+04</pdfrwt>
<pdfrwt beam="2">  1       -1 0.12902765E+00 0.30611994E+04</pdfrwt>
<totfact> 0.69065886E-01</totfact>
</mgrwt>
</event>
<event>
 8    1  0.2402290E-028  0.1565388E+04  0.7818608E-02  0.8842098E-01
          1   -1    0    0  501    0  0.00000000000E+00  0.00000000000E+00  0.23804381018E+04  0.23804381018E+04  0.50400000000E-02 0.  1.
         -1   -1    0    0    0  501 -0.00000000000E+00 -0.00000000000E+00 -0.25735182494E+03  0.25735182499E+03  0.50400000000E-02 0. -1.
     200001    2    1    2    0    0 -0.30847461413E+03 -0.11101896023E+03  0.12691999423E+04  0.14860071046E+04  0.69990486807E+03 0.  0.
    5000001    2    3    3    0    0 -0.10579024878E+03 -0.33883776123E+02  0.18234044681E+03  0.27015581786E+03  0.16551870093E+03 0.  0.
        -13    1    4    4    0    0  0.13702796059E+02  0.34316223745E+02  0.10096844121E+03  0.10751747354E+03  0.10566000000E+00 0. -1.
     200003    1    4    4    0    0 -0.11949304484E+03 -0.68199999868E+02  0.81372005595E+02  0.16263834431E+03  0.30000000000E+02 0. -1.
     200000    1    3    3    0    0 -0.20268436535E+03 -0.77135184109E+02  0.10868594955E+04  0.12158512867E+04  0.50000000000E+03 0.  1.
    -200001    1    1    2    0    0  0.30847461413E+03  0.11101896023E+03  0.85388633459E+03  0.11517828222E+04  0.70000000000E+03 0. -1.
<mgrwt>
<rscale>  0 0.15653882E+04</rscale>
<asrwt>0</asrwt>
<pdfrwt beam="1">  1        1 0.34006259E+00 0.15653882E+04</pdfrwt>
<pdfrwt beam="2">  1       -1 0.36764546E-01 0.15653882E+04</pdfrwt>
<totfact> 0.14683322E+01</totfact>
</mgrwt>
</event>
<event>
 8    1  0.2402290E-028  0.2146489E+04  0.7818608E-02  0.8541037E-01
          1   -1    0    0  501    0  0.00000000000E+00  0.00000000000E+00  0.11426270142E+04  0.11426270142E+04  0.50400000000E-02 0.  1.
         -1   -1    0    0    0  501 -0.00000000000E+00 -0.00000000000E+00 -0.10080751638E+04  0.10080751638E+04  0.50400000000E-02 0. -1.
     200001    2    1    2    0    0  0.24354624832E+03 -0.75609852524E+03 -0.10986279924E+03  0.10640843630E+04  0.69943258574E+03 0.  0.
    5000001    2    3    3    0    0  0.13024326770E+03 -0.27144659947E+03 -0.42287972153E+02  0.35535916109E+03  0.18397090976E+03 0.  0.
        -13    1    4    4    0    0  0.98102819436E+02 -0.41865145629E+02 -0.57383829274E+02  0.12111882028E+03  0.10566000000E+00 0. -1.
     200003    1    4    4    0    0  0.32140448269E+02 -0.22958145384E+03  0.15095857121E+02  0.23424034081E+03  0.30000000000E+02 0. -1.
     200000    1    3    3    0    0  0.11330298062E+03 -0.48465192578E+03 -0.67574827085E+02  0.70872520192E+03  0.50000000000E+03 0. -1.
    -200001    1    1    2    0    0 -0.24354624832E+03  0.75609852524E+03  0.24441464961E+03  0.10866178150E+04  0.70000000000E+03 0.  1.
<mgrwt>
<rscale>  0 0.21464891E+04</rscale>
<asrwt>0</asrwt>
<pdfrwt beam="1">  1        1 0.16323243E+00 0.21464891E+04</pdfrwt>
<pdfrwt beam="2">  1       -1 0.14401074E+00 0.21464891E+04</pdfrwt>
<totfact> 0.48626871E+00</totfact>
</mgrwt>
</event>
<event>
 8    1  0.2402290E-028  0.2109670E+04  0.7818608E-02  0.8556996E-01
         -1   -1    0    0    0  501 -0.00000000000E+00  0.00000000000E+00  0.15647047052E+04  0.15647047052E+04  0.50400000000E-02 0. -1.
          1   -1    0    0  501    0  0.00000000000E+00 -0.00000000000E+00 -0.71110957091E+03  0.71110957093E+03  0.50400000000E-02 0.  1.
     200001    2    1    2    0    0  0.26946564727E+03  0.59073610015E+03 -0.57123717561E+02  0.95634858798E+03  0.69982756986E+03 0.  0.
    5000001    2    3    3    0    0  0.15889296378E+03  0.13543674753E+03 -0.47926438831E+02  0.27106878471E+03  0.16610615878E+03 0.  0.
        -13    1    4    4    0    0  0.16181307348E+03  0.11495504382E+03  0.14249243850E+02  0.19900046473E+03  0.10566000000E+00 0. -1.
     200003    1    4    4    0    0 -0.29201097041E+01  0.20481703709E+02 -0.62175682681E+02  0.72068319978E+02  0.30000000000E+02 0. -1.
     200000    1    3    3    0    0  0.11057268349E+03  0.45529935262E+03 -0.91972787291E+01  0.68527980327E+03  0.50000000000E+03 0.  1.
    -200001    1    1    2    0    0 -0.26946564727E+03 -0.59073610015E+03  0.91071885183E+03  0.13194656881E+04  0.70000000000E+03 0. -1.
<mgrwt>
<rscale>  0 0.21096696E+04</rscale>
<asrwt>0</asrwt>
<pdfrwt beam="1">  1        1 0.10158708E+00 0.21096696E+04</pdfrwt>
<pdfrwt beam="2">  1       -1 0.22352924E+00 0.21096696E+04</pdfrwt>
<totfact> 0.28621800E+00</totfact>
</mgrwt>
</event>
<event>
 8    1  0.2402290E-028  0.1681075E+04  0.7818608E-02  0.8772232E-01
          1   -1    0    0  501    0  0.00000000000E+00  0.00000000000E+00  0.18915352344E+04  0.18915352344E+04  0.50400000000E-02 0.  1.
         -1   -1    0    0    0  501 -0.00000000000E+00 -0.00000000000E+00 -0.37350770464E+03  0.37350770467E+03  0.50400000000E-02 0. -1.
     200001    2    1    2    0    0  0.16723743642E+03 -0.43207463972E+03  0.70313884826E+03  0.10951282338E+04  0.70017480248E+03 0.  0.
    5000001    2    3    3    0    0  0.57778829068E+02 -0.45049937097E+02  0.27085432648E+03  0.32141044611E+03  0.15676325709E+03 0.  0.
        -13    1    4    4    0    0  0.73914582199E+02 -0.15209612357E+02  0.38562240037E+02  0.84745237568E+02  0.10566000000E+00 0. -1.
     200003    1    4    4    0    0 -0.16135753131E+02 -0.29840324739E+02  0.23229208644E+03  0.23666520854E+03  0.30000000000E+02 0. -1.
     200000    1    3    3    0    0  0.10945860735E+03 -0.38702470263E+03  0.43228452178E+03  0.77371778766E+03  0.50000000000E+03 0.  1.
    -200001    1    1    2    0    0 -0.16723743642E+03  0.43207463972E+03  0.81488868146E+03  0.11699147053E+04  0.70000000000E+03 0. -1.
<mgrwt>
<rscale>  0 0.16810746E+04</rscale>
<asrwt>0</asrwt>
<pdfrwt beam="1">  1        1 0.27021932E+00 0.16810746E+04</pdfrwt>
<pdfrwt beam="2">  1       -1 0.53358244E-01 0.16810746E+04</pdfrwt>
<totfact> 0.14766189E+01</totfact>
</mgrwt>
</event>
<event>
 8    1  0.2402290E-028  0.1573451E+04  0.7818608E-02  0.8837026E-01
         -1   -1    0    0    0  501 -0.00000000000E+00  0.00000000000E+00  0.41102241870E+03  0.41102241873E+03  0.50400000000E-02 0.  1.
          1   -1    0    0  501    0  0.00000000000E+00 -0.00000000000E+00 -0.15058479709E+04  0.15058479710E+04  0.50400000000E-02 0. -1.
     200001    2    1    2    0    0  0.13434890267E+03 -0.31622311043E+03 -0.43312552709E+03  0.89418099084E+03  0.70279103505E+03 0.  0.
    5000001    2    3    3    0    0  0.33344254955E+02 -0.81567838889E+01 -0.42989565010E+02  0.18192200050E+03  0.17340455330E+03 0.  0.
        -13    1    4    4    0    0 -0.35657721921E+02 -0.69399466028E+02 -0.31830657157E+02  0.84267199530E+02  0.10566000000E+00 0. -1.
     200003    1    4    4    0    0  0.69001976875E+02  0.61242682140E+02 -0.11158907853E+02  0.97654800972E+02  0.30000000000E+02 0. -1.
     200000    1    3    3    0    0  0.10100464771E+03 -0.30806632654E+03 -0.39013596208E+03  0.71225899034E+03  0.50000000000E+03 0. -1.
    -200001    1    1    2    0    0 -0.13434890267E+03  0.31622311043E+03 -0.66170002515E+03  0.10226893988E+04  0.70000000000E+03 0. -1.
<mgrwt>
<rscale>  0 0.15734513E+04</rscale>
<asrwt>0</asrwt>
<pdfrwt beam="1">  1        1 0.21512114E+00 0.15734513E+04</pdfrwt>
<pdfrwt beam="2">  1       -1 0.58717489E-01 0.15734513E+04</pdfrwt>
<totfact> 0.21825476E+01</totfact>
</mgrwt>
</event>
<event>
 8    1  0.2402290E-028  0.1536059E+04  0.7818608E-02  0.8860822E-01
         -1   -1    0    0    0  501 -0.00000000000E+00  0.00000000000E+00  0.54241666334E+03  0.54241666336E+03  0.50400000000E-02 0. -1.
          1   -1    0    0  501    0  0.00000000000E+00 -0.00000000000E+00 -0.10874838299E+04  0.10874838299E+04  0.50400000000E-02 0.  1.
     200001    2    1    2    0    0 -0.10482101271E+03 -0.28392047253E+03 -0.37301290094E+03  0.84810707445E+03  0.69896259273E+03 0.  0.
    5000001    2    3    3    0    0  0.87866279275E+02 -0.79977179842E+02 -0.23862148248E+02  0.17681912786E+03  0.12875857071E+03 0.  0.
        -13    1    4    4    0    0  0.28881456962E+02 -0.48134200233E+02  0.48156877930E+02  0.73960366713E+02  0.10566000000E+00 0. -1.
     200003    1    4    4    0    0  0.58984822313E+02 -0.31842979609E+02 -0.72019026178E+02  0.10285876115E+03  0.30000000000E+02 0. -1.
     200000    1    3    3    0    0 -0.19268729198E+03 -0.20394329269E+03 -0.34915075270E+03  0.67128794659E+03  0.50000000000E+03 0. -1.
    -200001    1    1    2    0    0  0.10482101271E+03  0.28392047253E+03 -0.17205426564E+03  0.78179341885E+03  0.70000000000E+03 0. -1.
<mgrwt>
<rscale>  0 0.15360590E+04</rscale>
<asrwt>0</asrwt>
<pdfrwt beam="1">  1        1 0.15535483E+00 0.15360590E+04</pdfrwt>
<pdfrwt beam="2">  1       -1 0.77488095E-01 0.15360590E+04</pdfrwt>
<totfact> 0.24001585E+01</totfact>
</mgrwt>
</event>
<event>
 8    1  0.2402290E-028  0.1730966E+04  0.7818608E-02  0.8743898E-01
          1   -1    0    0  501    0  0.00000000000E+00  0.00000000000E+00  0.22587067379E+04  0.22587067379E+04  0.50400000000E-02 0.  1.
         -1   -1    0    0    0  501 -0.00000000000E+00 -0.00000000000E+00 -0.33163254253E+03  0.33163254257E+03  0.50400000000E-02 0. -1.
     200001    2    1    2    0    0 -0.29257135077E+02  0.31707474543E+03  0.15577000563E+04  0.17372099651E+04  0.70005472884E+03 0.  0.
    5000001    2    3    3    0    0  0.89597563157E+01  0.42617285506E+02  0.34465541275E+03  0.39621602951E+03  0.19053419181E+03 0.  0.
        -13    1    4    4    0    0  0.61235534590E+01  0.11544680028E+03  0.22446051783E+03  0.25248365656E+03  0.10566000000E+00 0. -1.
     200003    1    4    4    0    0  0.28362028568E+01 -0.72829514775E+02  0.12019489492E+03  0.14373237295E+03  0.30000000000E+02 0. -1.
     200000    1    3    3    0    0 -0.38216891393E+02  0.27445745992E+03  0.12130446435E+04  0.13409939356E+04  0.50000000000E+03 0.  1.
    -200001    1    1    2    0    0  0.29257135077E+02 -0.31707474543E+03  0.36937413911E+03  0.85312931539E+03  0.70000000000E+03 0. -1.
<mgrwt>
<rscale>  0 0.17309658E+04</rscale>
<asrwt>0</asrwt>
<pdfrwt beam="1">  1        1 0.32267239E+00 0.17309658E+04</pdfrwt>
<pdfrwt beam="2">  1       -1 0.47376078E-01 0.17309658E+04</pdfrwt>
<totfact> 0.10828246E+01</totfact>
</mgrwt>
</event>
<event>
 8    1  0.2402290E-028  0.1494907E+04  0.7818608E-02  0.8887847E-01
          1   -1    0    0  501    0  0.00000000000E+00  0.00000000000E+00  0.52398338714E+03  0.52398338716E+03  0.50400000000E-02 0.  1.
         -1   -1    0    0    0  501 -0.00000000000E+00 -0.00000000000E+00 -0.10662292871E+04  0.10662292871E+04  0.50400000000E-02 0. -1.
     200001    2    1    2    0    0  0.14306996899E+02 -0.23577581058E+03 -0.14775390424E+03  0.75270514730E+03  0.69924166033E+03 0.  0.
    5000001    2    3    3    0    0 -0.11134361878E+02 -0.34809196433E+02 -0.34876950538E+02  0.20154632317E+03  0.19511244075E+03 0.  0.
        -13    1    4    4    0    0 -0.21388019558E+02  0.16932281854E+01  0.76859662412E+02  0.79798078125E+02  0.10566000000E+00 0. -1.
     200003    1    4    4    0    0  0.10253657680E+02 -0.36502424619E+02 -0.11173661295E+03  0.12174824505E+03  0.30000000000E+02 0. -1.
     200000    1    3    3    0    0  0.25441358777E+02 -0.20096661415E+03 -0.11287695370E+03  0.55115882413E+03  0.50000000000E+03 0.  1.
    -200001    1    1    2    0    0 -0.14306996899E+02  0.23577581058E+03 -0.39449199570E+03  0.83750752694E+03  0.70000000000E+03 0. -1.
<mgrwt>
<rscale>  0 0.14949066E+04</rscale>
<asrwt>0</asrwt>
<pdfrwt beam="1">  1        1 0.74854770E-01 0.14949066E+04</pdfrwt>
<pdfrwt beam="2">  1       -1 0.15231847E+00 0.14949066E+04</pdfrwt>
<totfact> 0.14941813E+01</totfact>
</mgrwt>
</event>
<event>
 8    1  0.2402290E-028  0.1682987E+04  0.7818608E-02  0.8771128E-01
         -1   -1    0    0    0  501 -0.00000000000E+00  0.00000000000E+00  0.70299629068E+03  0.70299629070E+03  0.50400000000E-02 0.  1.
          1   -1    0    0  501    0  0.00000000000E+00 -0.00000000000E+00 -0.10072757558E+04  0.10072757558E+04  0.50400000000E-02 0. -1.
     200001    2    1    2    0    0  0.12788874074E+03  0.11256430841E+03 -0.59479737881E+03  0.93346646481E+03  0.69896313605E+03 0.  0.
    5000001    2    3    3    0    0  0.17813554962E+03  0.34073010550E+02 -0.16895464300E+03  0.27012065659E+03  0.10736039140E+03 0.  0.
        -13    1    4    4    0    0  0.10506923144E+03 -0.62954146372E+01 -0.37908625324E+02  0.11187605051E+03  0.10566000000E+00 0. -1.
     200003    1    4    4    0    0  0.73066318180E+02  0.40368425187E+02 -0.13104601768E+03  0.15824460608E+03  0.30000000000E+02 0.  1.
     200000    1    3    3    0    0 -0.50246808876E+02  0.78491297859E+02 -0.42584273580E+03  0.66334580822E+03  0.50000000000E+03 0. -1.
    -200001    1    1    2    0    0 -0.12788874074E+03 -0.11256430841E+03  0.29051791372E+03  0.77680558168E+03  0.70000000000E+03 0.  1.
<mgrwt>
<rscale>  0 0.16829868E+04</rscale>
<asrwt>0</asrwt>
<pdfrwt beam="1">  1        1 0.14389654E+00 0.16829868E+04</pdfrwt>
<pdfrwt beam="2">  1       -1 0.10042804E+00 0.16829868E+04</pdfrwt>
<totfact> 0.15372722E+01</totfact>
</mgrwt>
</event>
<event>
 8    1  0.2402290E-028  0.1499256E+04  0.7818608E-02  0.8884948E-01
         -1   -1    0    0    0  501 -0.00000000000E+00  0.00000000000E+00  0.50458677806E+03  0.50458677808E+03  0.50400000000E-02 0. -1.
          1   -1    0    0  501    0  0.00000000000E+00 -0.00000000000E+00 -0.11136674613E+04  0.11136674613E+04  0.50400000000E-02 0.  1.
     200001    2    1    2    0    0  0.23620088866E+03  0.26693120868E+02 -0.43880179600E+03  0.85963820878E+03  0.69994817759E+03 0.  0.
    5000001    2    3    3    0    0  0.10666545795E+03  0.12065873216E+02 -0.16994167045E+03  0.27716146993E+03  0.19082768102E+03 0.  0.
        -13    1    4    4    0    0  0.13725003217E+03  0.64139871580E+02 -0.11924826825E+03  0.19279952049E+03  0.10566000000E+00 0. -1.
     200003    1    4    4    0    0 -0.30584574223E+02 -0.52073998364E+02 -0.50693402203E+02  0.84361949438E+02  0.30000000000E+02 0. -1.
     200000    1    3    3    0    0  0.12953543071E+03  0.14627247652E+02 -0.26886012555E+03  0.58247673884E+03  0.50000000000E+03 0.  1.
    -200001    1    1    2    0    0 -0.23620088866E+03 -0.26693120868E+02 -0.17027888727E+03  0.75861603065E+03  0.70000000000E+03 0.  1.
<mgrwt>
<rscale>  0 0.14992557E+04</rscale>
<asrwt>0</asrwt>
<pdfrwt beam="1">  1        1 0.15909535E+00 0.14992557E+04</pdfrwt>
<pdfrwt beam="2">  1       -1 0.72083826E-01 0.14992557E+04</pdfrwt>
<totfact> 0.26808821E+01</totfact>
</mgrwt>
</event>
<event>
 8    1  0.2402290E-028  0.1831932E+04  0.7818608E-02  0.8689500E-01
          1   -1    0    0  501    0  0.00000000000E+00  0.00000000000E+00  0.13598045471E+04  0.13598045471E+04  0.50400000000E-02 0. -1.
         -1   -1    0    0    0  501 -0.00000000000E+00 -0.00000000000E+00 -0.61699564227E+03  0.61699564229E+03  0.50400000000E-02 0.  1.
     200001    2    1    2    0    0  0.30148551361E+03 -0.49630747747E+03  0.25659178578E+03  0.94547981532E+03  0.70062694034E+03 0.  0.
    5000001    2    3    3    0    0  0.70114705497E+02 -0.85895812534E+02  0.44830484241E+02  0.22658271949E+03  0.19244685998E+03 0.  0.
        -13    1    4    4    0    0  0.68322603989E+02 -0.11210721370E+03  0.95322859209E+02  0.16224199281E+03  0.10566000000E+00 0. -1.
     200003    1    4    4    0    0  0.17921015076E+01  0.26211401169E+02 -0.50492374968E+02  0.64340726674E+02  0.30000000000E+02 0. -1.
     200000    1    3    3    0    0  0.23137080811E+03 -0.41041166494E+03  0.21176130154E+03  0.71889709583E+03  0.50000000000E+03 0.  1.
    -200001    1    1    2    0    0 -0.30148551361E+03  0.49630747747E+03  0.48621711900E+03  0.10313203740E+04  0.70000000000E+03 0.  1.
<mgrwt>
<rscale>  0 0.18319317E+04</rscale>
<asrwt>0</asrwt>
<pdfrwt beam="1">  1        1 0.19425779E+00 0.18319317E+04</pdfrwt>
<pdfrwt beam="2">  1       -1 0.88142237E-01 0.18319317E+04</pdfrwt>
<totfact> 0.11494656E+01</totfact>
</mgrwt>
</event>
<event>
 8    1  0.2402290E-028  0.1771341E+04  0.7818608E-02  0.8721690E-01
         -1   -1    0    0    0  501 -0.00000000000E+00  0.00000000000E+00  0.35859032355E+03  0.35859032359E+03  0.50400000000E-02 0. -1.
          1   -1    0    0  501    0  0.00000000000E+00 -0.00000000000E+00 -0.21874887472E+04  0.21874887472E+04  0.50400000000E-02 0.  1.
     200001    2    1    2    0    0  0.13310354828E+03  0.13172343618E+03 -0.16464401455E+04  0.17988450770E+04  0.70000774294E+03 0.  0.
    5000001    2    3    3    0    0  0.15812952030E+02 -0.35136705410E+02 -0.36494255214E+03  0.40822094641E+03  0.17882012529E+03 0.  0.
        -13    1    4    4    0    0  0.69689297370E+02  0.42651328105E+02 -0.13552881592E+03  0.15825234617E+03  0.10566000000E+00 0. -1.
     200003    1    4    4    0    0 -0.53876345340E+02 -0.77788033514E+02 -0.22941373621E+03  0.24996860024E+03  0.30000000000E+02 0. -1.
     200000    1    3    3    0    0  0.11729059625E+03  0.16686014159E+03 -0.12814975934E+04  0.13906241306E+04  0.50000000000E+03 0.  1.
    -200001    1    1    2    0    0 -0.13310354828E+03 -0.13172343618E+03 -0.18245827815E+03  0.74723399379E+03  0.70000000000E+03 0. -1.
<mgrwt>
<rscale>  0 0.17713411E+04</rscale>
<asrwt>0</asrwt>
<pdfrwt beam="1">  1        1 0.31249839E+00 0.17713411E+04</pdfrwt>
<pdfrwt beam="2">  1       -1 0.51227190E-01 0.17713411E+04</pdfrwt>
<totfact> 0.10315859E+01</totfact>
</mgrwt>
</event>
<event>
 8    1  0.2402290E-028  0.1901062E+04  0.7818608E-02  0.8654328E-01
          1   -1    0    0  501    0  0.00000000000E+00  0.00000000000E+00  0.85442677547E+03  0.85442677548E+03  0.50400000000E-02 0.  1.
         -1   -1    0    0    0  501 -0.00000000000E+00 -0.00000000000E+00 -0.10574450398E+04  0.10574450398E+04  0.50400000000E-02 0. -1.
     200001    2    1    2    0    0 -0.26469228724E+03  0.55639770953E+03 -0.27140657259E+03  0.97682241617E+03  0.70772882306E+03 0.  0.
    5000001    2    3    3    0    0 -0.18185773998E+03  0.13426113856E+03 -0.30336329187E+01  0.26472348939E+03  0.13773536942E+03 0.  0.
        -13    1    4    4    0    0 -0.16046060875E+03  0.87930525589E+02 -0.49404532761E+02  0.18952626022E+03  0.10566000000E+00 0. -1.
     200003    1    4    4    0    0 -0.21397131226E+02  0.46330612973E+02  0.46370899843E+02  0.75197229173E+02  0.30000000000E+02 0. -1.
     200000    1    3    3    0    0 -0.82834547260E+02  0.42213657097E+03 -0.26837293967E+03  0.71209892678E+03  0.50000000000E+03 0.  1.
    -200001    1    1    2    0    0  0.26469228724E+03 -0.55639770953E+03  0.68388308262E+02  0.93504939912E+03  0.70000000000E+03 0. -1.
<mgrwt>
<rscale>  0 0.19010622E+04</rscale>
<asrwt>0</asrwt>
<pdfrwt beam="1">  1        1 0.12206097E+00 0.19010622E+04</pdfrwt>
<pdfrwt beam="2">  1       -1 0.15106358E+00 0.19010622E+04</pdfrwt>
<totfact> 0.72055760E+00</totfact>
</mgrwt>
</event>
<event>
 8    1  0.2402290E-028  0.2136767E+04  0.7818608E-02  0.8545218E-01
         -1   -1    0    0    0  501 -0.00000000000E+00  0.00000000000E+00  0.14194255355E+04  0.14194255355E+04  0.50400000000E-02 0. -1.
          1   -1    0    0  501    0  0.00000000000E+00 -0.00000000000E+00 -0.80415901196E+03  0.80415901197E+03  0.50400000000E-02 0.  1.
     200001    2    1    2    0    0 -0.28059662044E+03  0.68712011973E+03 -0.22318948234E+02  0.10205119162E+04  0.70005565016E+03 0.  0.
    5000001    2    3    3    0    0 -0.18977441728E+02  0.27096311444E+03  0.23167611248E+02  0.31787383381E+03  0.16348052891E+03 0.  0.
        -13    1    4    4    0    0 -0.24437712623E+02  0.26746360528E+03 -0.14879828205E+02  0.26898959534E+03  0.10566000000E+00 0. -1.
     200003    1    4    4    0    0  0.54602708945E+01  0.34995091557E+01  0.38047439454E+02  0.48884238478E+02  0.30000000000E+02 0. -1.
     200000    1    3    3    0    0 -0.26161917871E+03  0.41615700529E+03 -0.45486559482E+02  0.70263808238E+03  0.50000000000E+03 0.  1.
    -200001    1    1    2    0    0  0.28059662044E+03 -0.68712011973E+03  0.63758547179E+03  0.12030726313E+04  0.70000000000E+03 0. -1.
<mgrwt>
<rscale>  0 0.21367675E+04</rscale>
<asrwt>0</asrwt>
<pdfrwt beam="1">  1        1 0.11487986E+00 0.21367675E+04</pdfrwt>
<pdfrwt beam="2">  1       -1 0.20277508E+00 0.21367675E+04</pdfrwt>
<totfact> 0.32716374E+00</totfact>
</mgrwt>
</event>
<event>
 8    1  0.2402290E-028  0.2042957E+04  0.7818608E-02  0.8586796E-01
          1   -1    0    0  501    0  0.00000000000E+00  0.00000000000E+00  0.34284539968E+04  0.34284539968E+04  0.50400000000E-02 0.  1.
         -1   -1    0    0    0  501 -0.00000000000E+00 -0.00000000000E+00 -0.30434063526E+03  0.30434063530E+03  0.50400000000E-02 0. -1.
     200001    2    1    2    0    0  0.38409516566E+02  0.73779097425E+03  0.15899574712E+04  0.18917500622E+04  0.71059322037E+03 0.  0.
    5000001    2    3    3    0    0  0.42942721499E+02  0.30245353849E+03  0.37445191167E+03  0.50719489961E+03  0.15398120586E+03 0.  0.
        -13    1    4    4    0    0  0.94486401057E+02  0.22670532197E+03  0.27392975567E+03  0.36791371978E+03  0.10566000000E+00 0. -1.
     200003    1    4    4    0    0 -0.51543679557E+02  0.75748216520E+02  0.10052215600E+03  0.13928117983E+03  0.30000000000E+02 0. -1.
     200000    1    3    3    0    0 -0.45332049338E+01  0.43533743576E+03  0.12155055595E+04  0.13845551625E+04  0.50000000000E+03 0. -1.
    -200001    1    1    2    0    0 -0.38409516566E+02 -0.73779097425E+03  0.15341558904E+04  0.18410445700E+04  0.70000000000E+03 0.  1.
<mgrwt>
<rscale>  0 0.20429566E+04</rscale>
<asrwt>0</asrwt>
<pdfrwt beam="1">  1        1 0.48977912E+00 0.20429566E+04</pdfrwt>
<pdfrwt beam="2">  1       -1 0.43477236E-01 0.20429566E+04</pdfrwt>
<totfact> 0.21220407E+00</totfact>
</mgrwt>
</event>
<event>
 8    1  0.2402290E-028  0.2054509E+04  0.7818608E-02  0.8581551E-01
         -1   -1    0    0    0  501 -0.00000000000E+00  0.00000000000E+00  0.45097115394E+03  0.45097115396E+03  0.50400000000E-02 0. -1.
          1   -1    0    0  501    0  0.00000000000E+00 -0.00000000000E+00 -0.23399545540E+04  0.23399545540E+04  0.50400000000E-02 0.  1.
     200001    2    1    2    0    0 -0.39701485187E+03 -0.53608749125E+02 -0.18125300701E+04  0.19807776954E+04  0.69117315723E+03 0.  0.
    5000001    2    3    3    0    0 -0.12385002964E+03  0.47674776340E+02 -0.52184865042E+03  0.56630397718E+03  0.17539232162E+03 0.  0.
        -13    1    4    4    0    0 -0.95688539726E+02  0.45028465257E+02 -0.51344689064E+03  0.52422474188E+03  0.10566000000E+00 0. -1.
     200003    1    4    4    0    0 -0.28161489909E+02  0.26463110829E+01 -0.84017597733E+01  0.42079235301E+02  0.30000000000E+02 0. -1.
     200000    1    3    3    0    0 -0.27316482224E+03 -0.10128352547E+03 -0.12906814197E+04  0.14144737183E+04  0.50000000000E+03 0.  1.
    -200001    1    1    2    0    0  0.39701485187E+03  0.53608749125E+02 -0.76453330037E+02  0.81014801257E+03  0.70000000000E+03 0.  1.
<mgrwt>
<rscale>  0 0.20545092E+04</rscale>
<asrwt>0</asrwt>
<pdfrwt beam="1">  1        1 0.33427922E+00 0.20545092E+04</pdfrwt>
<pdfrwt beam="2">  1       -1 0.64424452E-01 0.20545092E+04</pdfrwt>
<totfact> 0.51477365E+00</totfact>
</mgrwt>
</event>
<event>
 8    1  0.2402290E-028  0.1670469E+04  0.7818608E-02  0.8778388E-01
         -1   -1    0    0    0  501 -0.00000000000E+00  0.00000000000E+00  0.62343818572E+03  0.62343818574E+03  0.50400000000E-02 0. -1.
          1   -1    0    0  501    0  0.00000000000E+00 -0.00000000000E+00 -0.11189834060E+04  0.11189834060E+04  0.50400000000E-02 0.  1.
     200001    2    1    2    0    0 -0.36377613221E+02  0.33881000807E+03 -0.55918342567E+03  0.96129076183E+03  0.70376009615E+03 0.  0.
    5000001    2    3    3    0    0  0.39953427569E+02  0.98128596076E+02 -0.21493667808E+02  0.18484743127E+03  0.14993697792E+03 0.  0.
        -13    1    4    4    0    0 -0.40732831371E+02  0.70821575647E+02 -0.42548341147E+02  0.92115317006E+02  0.10566000000E+00 0. -1.
     200003    1    4    4    0    0  0.80686258940E+02  0.27307020429E+02  0.21054673339E+02  0.92732114264E+02  0.30000000000E+02 0. -1.
     200000    1    3    3    0    0 -0.76331040790E+02  0.24068141200E+03 -0.53768975786E+03  0.77644333057E+03  0.50000000000E+03 0.  1.
    -200001    1    1    2    0    0  0.36377613221E+02 -0.33881000807E+03  0.63638205358E+02  0.78113082995E+03  0.70000000000E+03 0. -1.
<mgrwt>
<rscale>  0 0.16704694E+04</rscale>
<asrwt>0</asrwt>
<pdfrwt beam="1">  1        1 0.15985477E+00 0.16704694E+04</pdfrwt>
<pdfrwt beam="2">  1       -1 0.89062599E-01 0.16704694E+04</pdfrwt>
<totfact> 0.16695588E+01</totfact>
</mgrwt>
</event>
<event>
 8    1  0.2402290E-028  0.1536636E+04  0.7818608E-02  0.8860450E-01
         -1   -1    0    0    0  501 -0.00000000000E+00  0.00000000000E+00  0.39310942101E+03  0.39310942104E+03  0.50400000000E-02 0. -1.
          1   -1    0    0  501    0  0.00000000000E+00 -0.00000000000E+00 -0.15016490291E+04  0.15016490291E+04  0.50400000000E-02 0.  1.
     200001    2    1    2    0    0  0.11069268276E+03 -0.10899954122E+03 -0.89435904568E+03  0.11464222401E+04  0.70019431584E+03 0.  0.
    5000001    2    3    3    0    0  0.92377946436E+02 -0.97468267865E+02 -0.22341949561E+03  0.30938682883E+03  0.16664390359E+03 0.  0.
        -13    1    4    4    0    0  0.11752515094E+03 -0.32553852102E+02 -0.19172567587E+03  0.22722381112E+03  0.10566000000E+00 0. -1.
     200003    1    4    4    0    0 -0.25147204504E+02 -0.64914415764E+02 -0.31693819743E+02  0.82163017704E+02  0.30000000000E+02 0. -1.
     200000    1    3    3    0    0  0.18314736328E+02 -0.11531273355E+02 -0.67093955007E+03  0.83703541125E+03  0.50000000000E+03 0.  1.
    -200001    1    1    2    0    0 -0.11069268276E+03  0.10899954122E+03 -0.21418056241E+03  0.74833621008E+03  0.70000000000E+03 0.  1.
<mgrwt>
<rscale>  0 0.15366358E+04</rscale>
<asrwt>0</asrwt>
<pdfrwt beam="1">  1        1 0.21452129E+00 0.15366358E+04</pdfrwt>
<pdfrwt beam="2">  1       -1 0.56158489E-01 0.15366358E+04</pdfrwt>
<totfact> 0.24037889E+01</totfact>
</mgrwt>
</event>
<event>
 8    1  0.2402290E-028  0.1415269E+04  0.7818608E-02  0.8942840E-01
         -1   -1    0    0    0  501 -0.00000000000E+00  0.00000000000E+00  0.16773331970E+04  0.16773331970E+04  0.50400000000E-02 0. -1.
          1   -1    0    0  501    0  0.00000000000E+00 -0.00000000000E+00 -0.29853739025E+03  0.29853739029E+03  0.50400000000E-02 0.  1.
     200001    2    1    2    0    0  0.23490435988E+02 -0.35094556166E+02  0.82575080705E+03  0.10827624191E+04  0.69908985999E+03 0.  0.
    5000001    2    3    3    0    0  0.59707662573E+02 -0.96066773221E+02  0.24208341551E+03  0.31094837235E+03  0.15903043834E+03 0.  0.
        -13    1    4    4    0    0 -0.35420981417E+02  0.21034340385E+02  0.46568588584E+02  0.62175027195E+02  0.10566000000E+00 0. -1.
     200003    1    4    4    0    0  0.95128643990E+02 -0.11710111361E+03  0.19551482692E+03  0.24877334516E+03  0.30000000000E+02 0. -1.
     200000    1    3    3    0    0 -0.36217226585E+02  0.60972217056E+02  0.58366739155E+03  0.77181404672E+03  0.50000000000E+03 0.  1.
    -200001    1    1    2    0    0 -0.23490435988E+02  0.35094556166E+02  0.55304499968E+03  0.89310816821E+03  0.70000000000E+03 0.  1.
<mgrwt>
<rscale>  0 0.14152691E+04</rscale>
<asrwt>0</asrwt>
<pdfrwt beam="1">  1        1 0.42648198E-01 0.14152691E+04</pdfrwt>
<pdfrwt beam="2">  1       -1 0.23961903E+00 0.14152691E+04</pdfrwt>
<totfact> 0.77344793E+00</totfact>
</mgrwt>
</event>
<event>
 8    1  0.2402290E-028  0.1625379E+04  0.7818608E-02  0.8805106E-01
         -1   -1    0    0    0  501 -0.00000000000E+00  0.00000000000E+00  0.53397884347E+03  0.53397884350E+03  0.50400000000E-02 0. -1.
          1   -1    0    0  501    0  0.00000000000E+00 -0.00000000000E+00 -0.12368738756E+04  0.12368738757E+04  0.50400000000E-02 0.  1.
     200001    2    1    2    0    0  0.23719267222E+02 -0.38250021993E+03 -0.52156523742E+03  0.95247046351E+03  0.69878513514E+03 0.  0.
    5000001    2    3    3    0    0  0.46128490767E+02 -0.16634069710E+03 -0.15194381423E+03  0.29379974980E+03  0.18285049940E+03 0.  0.
        -13    1    4    4    0    0  0.15077907268E+02 -0.18285174152E+03 -0.16393768336E+03  0.24604405674E+03  0.10566000000E+00 0. -1.
     200003    1    4    4    0    0  0.31050583499E+02  0.16511044424E+02  0.11993869132E+02  0.47755693068E+02  0.30000000000E+02 0.  1.
     200000    1    3    3    0    0 -0.22409223545E+02 -0.21615952283E+03 -0.36962142319E+03  0.65867071370E+03  0.50000000000E+03 0.  1.
    -200001    1    1    2    0    0 -0.23719267222E+02  0.38250021993E+03 -0.18132979475E+03  0.81838225564E+03  0.70000000000E+03 0. -1.
<mgrwt>
<rscale>  0 0.16253793E+04</rscale>
<asrwt>0</asrwt>
<pdfrwt beam="1">  1        1 0.17669627E+00 0.16253793E+04</pdfrwt>
<pdfrwt beam="2">  1       -1 0.76282692E-01 0.16253793E+04</pdfrwt>
<totfact> 0.19322938E+01</totfact>
</mgrwt>
</event>
<event>
 8    1  0.2402290E-028  0.1548620E+04  0.7818608E-02  0.8852750E-01
          1   -1    0    0  501    0  0.00000000000E+00  0.00000000000E+00  0.69803864164E+03  0.69803864166E+03  0.50400000000E-02 0.  1.
         -1   -1    0    0    0  501 -0.00000000000E+00 -0.00000000000E+00 -0.85891488585E+03  0.85891488586E+03  0.50400000000E-02 0. -1.
     200001    2    1    2    0    0  0.99595990391E+02 -0.26923247368E+03  0.84263759652E+02  0.76165540249E+03  0.70043778079E+03 0.  0.
    5000001    2    3    3    0    0  0.75773005380E+02 -0.14884979335E+03 -0.73195928259E+02  0.22327535303E+03  0.12882713236E+03 0.  0.
        -13    1    4    4    0    0  0.78073390149E+02 -0.14435276493E+03 -0.24606463228E+02  0.16594777549E+03  0.10566000000E+00 0. -1.
     200003    1    4    4    0    0 -0.23003847696E+01 -0.44970284205E+01 -0.48589465031E+02  0.57327577541E+02  0.30000000000E+02 0. -1.
     200000    1    3    3    0    0  0.23822985011E+02 -0.12038268033E+03  0.15745968791E+03  0.53838004946E+03  0.50000000000E+03 0.  1.
    -200001    1    1    2    0    0 -0.99595990391E+02  0.26923247368E+03 -0.24514000386E+03  0.79529812503E+03  0.70000000000E+03 0. -1.
<mgrwt>
<rscale>  0 0.15486197E+04</rscale>
<asrwt>0</asrwt>
<pdfrwt beam="1">  1        1 0.99719806E-01 0.15486197E+04</pdfrwt>
<pdfrwt beam="2">  1       -1 0.12270213E+00 0.15486197E+04</pdfrwt>
<totfact> 0.17322373E+01</totfact>
</mgrwt>
</event>
<event>
 8    1  0.2402290E-028  0.2121100E+04  0.7818608E-02  0.8552005E-01
          1   -1    0    0  501    0  0.00000000000E+00  0.00000000000E+00  0.93035770448E+03  0.93035770450E+03  0.50400000000E-02 0.  1.
         -1   -1    0    0    0  501 -0.00000000000E+00 -0.00000000000E+00 -0.12089606787E+04  0.12089606787E+04  0.50400000000E-02 0. -1.
     200001    2    1    2    0    0 -0.35974642049E+03 -0.56254349029E+03 -0.57764164275E+03  0.11267489827E+04  0.70001481204E+03 0.  0.
    5000001    2    3    3    0    0 -0.11390569605E+03 -0.19695089672E+03 -0.17601241176E+03  0.34867337876E+03  0.19704972127E+03 0.  0.
        -13    1    4    4    0    0 -0.78402616427E+02 -0.64338808105E+01  0.88611840629E+01  0.79163734323E+02  0.10566000000E+00 0. -1.
     200003    1    4    4    0    0 -0.35503079624E+02 -0.19051701591E+03 -0.18487359582E+03  0.26950964444E+03  0.30000000000E+02 0. -1.
     200000    1    3    3    0    0 -0.24584072444E+03 -0.36559259356E+03 -0.40162923099E+03  0.77807560394E+03  0.50000000000E+03 0. -1.
    -200001    1    1    2    0    0  0.35974642049E+03  0.56254349029E+03  0.29903866854E+03  0.10125694005E+04  0.70000000000E+03 0.  1.
<mgrwt>
<rscale>  0 0.21210996E+04</rscale>
<asrwt>0</asrwt>
<pdfrwt beam="1">  1        1 0.13290824E+00 0.21210996E+04</pdfrwt>
<pdfrwt beam="2">  1       -1 0.17270867E+00 0.21210996E+04</pdfrwt>
<totfact> 0.42278725E+00</totfact>
</mgrwt>
</event>
<event>
 8    1  0.2402290E-028  0.1570855E+04  0.7818608E-02  0.8838656E-01
          1   -1    0    0  501    0  0.00000000000E+00  0.00000000000E+00  0.57256583222E+03  0.57256583224E+03  0.50400000000E-02 0.  1.
         -1   -1    0    0    0  501 -0.00000000000E+00 -0.00000000000E+00 -0.10774244712E+04  0.10774244712E+04  0.50400000000E-02 0. -1.
     200001    2    1    2    0    0  0.34911275354E+02 -0.19054571913E+03  0.61300106960E+02  0.72908738034E+03  0.70020299687E+03 0.  0.
    5000001    2    3    3    0    0 -0.38176558020E+01 -0.60210228269E+00  0.82196754160E+02  0.19241692507E+03  0.17393398069E+03 0.  0.
        -13    1    4    4    0    0 -0.38573704312E+02 -0.30715889552E+02 -0.36690857768E+02  0.61462401053E+02  0.10566000000E+00 0. -1.
     200003    1    4    4    0    0  0.34756048510E+02  0.30113787270E+02  0.11888761193E+03  0.13095452402E+03  0.30000000000E+02 0. -1.
     200000    1    3    3    0    0  0.38728931156E+02 -0.18994361685E+03 -0.20896647200E+02  0.53667045526E+03  0.50000000000E+03 0. -1.
    -200001    1    1    2    0    0 -0.34911275354E+02  0.19054571913E+03 -0.56615874597E+03  0.92090292315E+03  0.70000000000E+03 0. -1.
<mgrwt>
<rscale>  0 0.15708551E+04</rscale>
<asrwt>0</asrwt>
<pdfrwt beam="1">  1        1 0.81795119E-01 0.15708551E+04</pdfrwt>
<pdfrwt beam="2">  1       -1 0.15391778E+00 0.15708551E+04</pdfrwt>
<totfact> 0.12765474E+01</totfact>
</mgrwt>
</event>
<event>
 8    1  0.2402290E-028  0.1441263E+04  0.7818608E-02  0.8924480E-01
         -1   -1    0    0    0  501 -0.00000000000E+00  0.00000000000E+00  0.31933710157E+03  0.31933710161E+03  0.50400000000E-02 0.  1.
          1   -1    0    0  501    0  0.00000000000E+00 -0.00000000000E+00 -0.16262108863E+04  0.16262108863E+04  0.50400000000E-02 0. -1.
     200001    2    1    2    0    0 -0.84529485138E+02  0.14649455916E+03 -0.68173453992E+03  0.99192072052E+03  0.70038478221E+03 0.  0.
    5000001    2    3    3    0    0  0.45946666446E+02  0.49184153671E+02 -0.19092109855E+03  0.27262163434E+03  0.18259658405E+03 0.  0.
        -13    1    4    4    0    0 -0.55839069390E+02  0.11287543306E+02 -0.13562955100E+03  0.14710811185E+03  0.10566000000E+00 0. -1.
     200003    1    4    4    0    0  0.10178573584E+03  0.37896610364E+02 -0.55291547555E+02  0.12551352249E+03  0.30000000000E+02 0. -1.
     200000    1    3    3    0    0 -0.13047615158E+03  0.97310405487E+02 -0.49081344137E+03  0.71929908618E+03  0.50000000000E+03 0.  1.
    -200001    1    1    2    0    0  0.84529485138E+02 -0.14649455916E+03 -0.62513924479E+03  0.95362726738E+03  0.70000000000E+03 0.  1.
<mgrwt>
<rscale>  0 0.14412626E+04</rscale>
<asrwt>0</asrwt>
<pdfrwt beam="1">  1        1 0.23231584E+00 0.14412626E+04</pdfrwt>
<pdfrwt beam="2">  1       -1 0.45619587E-01 0.14412626E+04</pdfrwt>
<totfact> 0.29906984E+01</totfact>
</mgrwt>
</event>
<event>
 8    1  0.2402290E-028  0.1872218E+04  0.7818608E-02  0.8668810E-01
         -1   -1    0    0    0  501 -0.00000000000E+00  0.00000000000E+00  0.10235043780E+04  0.10235043780E+04  0.50400000000E-02 0. -1.
          1   -1    0    0  501    0  0.00000000000E+00 -0.00000000000E+00 -0.85617614969E+03  0.85617614970E+03  0.50400000000E-02 0.  1.
     200001    2    1    2    0    0 -0.47535232873E+03 -0.18254940302E+03 -0.27296521586E+03  0.90852531976E+03  0.70115913073E+03 0.  0.
    5000001    2    3    3    0    0 -0.51156748714E+02  0.95610591335E+01  0.14322000588E+02  0.16732206524E+03  0.15837653559E+03 0.  0.
        -13    1    4    4    0    0 -0.89529557856E+02  0.50653716833E+02  0.11870290166E+02  0.10354832549E+03  0.10566000000E+00 0. -1.
     200003    1    4    4    0    0  0.38372809142E+02 -0.41092657699E+02  0.24517104218E+01  0.63773739754E+02  0.30000000000E+02 0. -1.
     200000    1    3    3    0    0 -0.42419558002E+03 -0.19211046215E+03 -0.28728721645E+03  0.74120325452E+03  0.50000000000E+03 0.  1.
    -200001    1    1    2    0    0  0.47535232873E+03  0.18254940302E+03  0.44029344420E+03  0.97115520798E+03  0.70000000000E+03 0. -1.
<mgrwt>
<rscale>  0 0.18722180E+04</rscale>
<asrwt>0</asrwt>
<pdfrwt beam="1">  1        1 0.12231088E+00 0.18722180E+04</pdfrwt>
<pdfrwt beam="2">  1       -1 0.14621491E+00 0.18722180E+04</pdfrwt>
<totfact> 0.78590813E+00</totfact>
</mgrwt>
</event>
<event>
 8    1  0.2402290E-028  0.1925151E+04  0.7818608E-02  0.8642438E-01
          1   -1    0    0  501    0  0.00000000000E+00  0.00000000000E+00  0.94167392630E+03  0.94167392632E+03  0.50400000000E-02 0.  1.
         -1   -1    0    0    0  501 -0.00000000000E+00 -0.00000000000E+00 -0.98394078307E+03  0.98394078308E+03  0.50400000000E-02 0. -1.
     200001    2    1    2    0    0  0.16426207970E+03  0.51907637578E+03  0.35422701329E+03  0.95420866468E+03  0.69901007438E+03 0.  0.
    5000001    2    3    3    0    0  0.10374013414E+03  0.13242031489E+03  0.18983317334E+03  0.29831907799E+03  0.15703656697E+03 0.  0.
        -13    1    4    4    0    0  0.29021369752E+01  0.12390051796E+03  0.91394376917E+02  0.15398929848E+03  0.10566000000E+00 0. -1.
     200003    1    4    4    0    0  0.10083799716E+03  0.85197969294E+01  0.98438796422E+02  0.14432977951E+03  0.30000000000E+02 0. -1.
     200000    1    3    3    0    0  0.60521945561E+02  0.38665606089E+03  0.16439383995E+03  0.65588958669E+03  0.50000000000E+03 0.  1.
    -200001    1    1    2    0    0 -0.16426207970E+03 -0.51907637578E+03 -0.39649387005E+03  0.97140604472E+03  0.70000000000E+03 0. -1.
<mgrwt>
<rscale>  0 0.19251508E+04</rscale>
<asrwt>0</asrwt>
<pdfrwt beam="1">  1        1 0.13452485E+00 0.19251508E+04</pdfrwt>
<pdfrwt beam="2">  1       -1 0.14056297E+00 0.19251508E+04</pdfrwt>
<totfact> 0.74310651E+00</totfact>
</mgrwt>
</event>
<event>
 8    1  0.2402290E-028  0.1804551E+04  0.7818608E-02  0.8703883E-01
         -1   -1    0    0    0  501 -0.00000000000E+00  0.00000000000E+00  0.93270233342E+03  0.93270233343E+03  0.50400000000E-02 0.  1.
          1   -1    0    0  501    0  0.00000000000E+00 -0.00000000000E+00 -0.87284079707E+03  0.87284079708E+03  0.50400000000E-02 0. -1.
     200001    2    1    2    0    0 -0.14068871607E+03  0.29214253655E+03  0.49828358729E+03  0.91821316300E+03  0.69977732377E+03 0.  0.
    5000001    2    3    3    0    0 -0.27662928286E+02  0.17212277028E+03  0.18004936840E+03  0.30302815744E+03  0.17034319326E+03 0.  0.
        -13    1    4    4    0    0  0.89300004701E+00  0.39216231183E+01 -0.30280982830E+02  0.30547105626E+02  0.10566000000E+00 0. -1.
     200003    1    4    4    0    0 -0.28555928333E+02  0.16820114716E+03  0.21033035123E+03  0.27248105181E+03  0.30000000000E+02 0. -1.
     200000    1    3    3    0    0 -0.11302578779E+03  0.12001976628E+03  0.31823421888E+03  0.61518500556E+03  0.50000000000E+03 0.  1.
    -200001    1    1    2    0    0  0.14068871607E+03 -0.29214253655E+03 -0.43842205093E+03  0.88732996751E+03  0.70000000000E+03 0. -1.
<mgrwt>
<rscale>  0 0.18045505E+04</rscale>
<asrwt>0</asrwt>
<pdfrwt beam="1">  1        1 0.12469154E+00 0.18045505E+04</pdfrwt>
<pdfrwt beam="2">  1       -1 0.13324319E+00 0.18045505E+04</pdfrwt>
<totfact> 0.97664560E+00</totfact>
</mgrwt>
</event>
<event>
 8    1  0.2402290E-028  0.1632765E+04  0.7818608E-02  0.8800668E-01
          1   -1    0    0  501    0  0.00000000000E+00  0.00000000000E+00  0.12062855245E+04  0.12062855245E+04  0.50400000000E-02 0. -1.
         -1   -1    0    0    0  501 -0.00000000000E+00 -0.00000000000E+00 -0.55250655327E+03  0.55250655329E+03  0.50400000000E-02 0.  1.
     200001    2    1    2    0    0  0.39626558637E+03 -0.12414695932E+03  0.38762206855E+03  0.90247532609E+03  0.70126454617E+03 0.  0.
    5000001    2    3    3    0    0  0.77222541931E+02  0.25591252154E+01  0.97864645014E+02  0.23031294946E+03  0.19364063582E+03 0.  0.
        -13    1    4    4    0    0 -0.61193435449E+02 -0.69551034099E+01  0.75023316643E+01  0.62042776775E+02  0.10566000000E+00 0. -1.
     200003    1    4    4    0    0  0.13841597738E+03  0.95142286253E+01  0.90362313349E+02  0.16827017268E+03  0.30000000000E+02 0. -1.
     200000    1    3    3    0    0  0.31904304444E+03 -0.12670608454E+03  0.28975742354E+03  0.67216237663E+03  0.50000000000E+03 0.  1.
    -200001    1    1    2    0    0 -0.39626558637E+03  0.12414695932E+03  0.26615690271E+03  0.85631675174E+03  0.70000000000E+03 0. -1.
<mgrwt>
<rscale>  0 0.16327653E+04</rscale>
<asrwt>0</asrwt>
<pdfrwt beam="1">  1        1 0.17232650E+00 0.16327653E+04</pdfrwt>
<pdfrwt beam="2">  1       -1 0.78929508E-01 0.16327653E+04</pdfrwt>
<totfact> 0.18867342E+01</totfact>
</mgrwt>
</event>
<event>
 8    1  0.2402290E-028  0.1539494E+04  0.7818608E-02  0.8858606E-01
         -1   -1    0    0    0  501 -0.00000000000E+00  0.00000000000E+00  0.18474710224E+03  0.18474710230E+03  0.50400000000E-02 0. -1.
          1   -1    0    0  501    0  0.00000000000E+00 -0.00000000000E+00 -0.32071434558E+04  0.32071434558E+04  0.50400000000E-02 0.  1.
     200001    2    1    2    0    0  0.49886877773E+02 -0.37520994695E+02 -0.22034422494E+04  0.23127323906E+04  0.69976913250E+03 0.  0.
    5000001    2    3    3    0    0 -0.16210095250E+02 -0.43163150765E+02 -0.60987190509E+03  0.64124590074E+03  0.19268300345E+03 0.  0.
        -13    1    4    4    0    0  0.40360239786E+01  0.37407379594E+01 -0.56956201817E+03  0.56958861147E+03  0.10566000000E+00 0. -1.
     200003    1    4    4    0    0 -0.20246119229E+02 -0.46903888724E+02 -0.40309886919E+02  0.71657289265E+02  0.30000000000E+02 0. -1.
     200000    1    3    3    0    0  0.66096973023E+02  0.56421560704E+01 -0.15935703443E+04  0.16714864899E+04  0.50000000000E+03 0.  1.
    -200001    1    1    2    0    0 -0.49886877773E+02  0.37520994695E+02 -0.81895410416E+03  0.10791581674E+04  0.70000000000E+03 0. -1.
<mgrwt>
<rscale>  0 0.15394940E+04</rscale>
<asrwt>0</asrwt>
<pdfrwt beam="1">  1        1 0.45816332E+00 0.15394940E+04</pdfrwt>
<pdfrwt beam="2">  1       -1 0.26392445E-01 0.15394940E+04</pdfrwt>
<totfact> 0.76811402E+00</totfact>
</mgrwt>
</event>
<event>
 8    1  0.2402290E-028  0.2221441E+04  0.7818608E-02  0.8509557E-01
         -1   -1    0    0    0  501 -0.00000000000E+00  0.00000000000E+00  0.50546692838E+03  0.50546692841E+03  0.50400000000E-02 0. -1.
          1   -1    0    0  501    0  0.00000000000E+00 -0.00000000000E+00 -0.24407134733E+04  0.24407134733E+04  0.50400000000E-02 0.  1.
     200001    2    1    2    0    0  0.75838628807E+03 -0.38986968840E+03 -0.79813871908E+03  0.13618312156E+04  0.70029330218E+03 0.  0.
    5000001    2    3    3    0    0  0.73246389173E+02 -0.61328827558E+02 -0.11502978323E+03  0.22429282218E+03  0.16718002403E+03 0.  0.
        -13    1    4    4    0    0 -0.36287956230E+02 -0.12167189759E+01 -0.84861711110E+02  0.92302856667E+02  0.10566000000E+00 0. -1.
     200003    1    4    4    0    0  0.10953434540E+03 -0.60112108582E+02 -0.30168072120E+02  0.13198996551E+03  0.30000000000E+02 0. -1.
     200000    1    3    3    0    0  0.68513989890E+03 -0.32854086084E+03 -0.68310893585E+03  0.11375383934E+04  0.50000000000E+03 0.  1.
    -200001    1    1    2    0    0 -0.75838628807E+03  0.38986968840E+03 -0.11371078258E+04  0.15843491861E+04  0.70000000000E+03 0. -1.
<mgrwt>
<rscale>  0 0.22214409E+04</rscale>
<asrwt>0</asrwt>
<pdfrwt beam="1">  1        1 0.34867335E+00 0.22214409E+04</pdfrwt>
<pdfrwt beam="2">  1       -1 0.72209562E-01 0.22214409E+04</pdfrwt>
<totfact> 0.34702504E+00</totfact>
</mgrwt>
</event>
<event>
 8    1  0.2402290E-028  0.1615139E+04  0.7818608E-02  0.8811301E-01
         -1   -1    0    0    0  501 -0.00000000000E+00  0.00000000000E+00  0.95713096505E+03  0.95713096507E+03  0.50400000000E-02 0. -1.
          1   -1    0    0  501    0  0.00000000000E+00 -0.00000000000E+00 -0.68137874411E+03  0.68137874413E+03  0.50400000000E-02 0.  1.
     200001    2    1    2    0    0 -0.20936505358E+03  0.34353991251E+03  0.15597384619E+03  0.82229879516E+03  0.69999576476E+03 0.  0.
    5000001    2    3    3    0    0  0.69030216745E+02  0.69437068071E+02 -0.72794311246E+02  0.14778329072E+03  0.83391918198E+02 0.  0.
        -13    1    4    4    0    0  0.74052528560E+02  0.35372364411E+02 -0.54884044942E+02  0.98728165704E+02  0.10566000000E+00 0. -1.
     200003    1    4    4    0    0 -0.50223118148E+01  0.34064703661E+02 -0.17910266304E+02  0.49055125018E+02  0.30000000000E+02 0.  1.
     200000    1    3    3    0    0 -0.27839527032E+03  0.27410284444E+03  0.22876815744E+03  0.67451550443E+03  0.50000000000E+03 0.  1.
    -200001    1    1    2    0    0  0.20936505358E+03 -0.34353991251E+03  0.11977837475E+03  0.81621091404E+03  0.70000000000E+03 0. -1.
<mgrwt>
<rscale>  0 0.16151392E+04</rscale>
<asrwt>0</asrwt>
<pdfrwt beam="1">  1        1 0.97339820E-01 0.16151392E+04</pdfrwt>
<pdfrwt beam="2">  1       -1 0.13673300E+00 0.16151392E+04</pdfrwt>
<totfact> 0.13582786E+01</totfact>
</mgrwt>
</event>
<event>
 8    1  0.2402290E-028  0.1578981E+04  0.7818608E-02  0.8833566E-01
          1   -1    0    0  501    0  0.00000000000E+00  0.00000000000E+00  0.61211925709E+03  0.61211925711E+03  0.50400000000E-02 0. -1.
         -1   -1    0    0    0  501 -0.00000000000E+00 -0.00000000000E+00 -0.10182574915E+04  0.10182574916E+04  0.50400000000E-02 0.  1.
     200001    2    1    2    0    0 -0.35902700227E+03 -0.11136416080E+02 -0.27868666962E+03  0.83333954157E+03  0.69840111941E+03 0.  0.
    5000001    2    3    3    0    0 -0.12605592390E+03 -0.18485706734E+02 -0.19557855815E+02  0.22385018352E+03  0.18301523881E+03 0.  0.
        -13    1    4    4    0    0 -0.11910654907E+03 -0.49864776191E+01  0.62909473271E+02  0.13479186912E+03  0.10566000000E+00 0. -1.
     200003    1    4    4    0    0 -0.69493748308E+01 -0.13499229115E+02 -0.82467329086E+02  0.89058314400E+02  0.30000000000E+02 0. -1.
     200000    1    3    3    0    0 -0.23297107837E+03  0.73492906537E+01 -0.25912881380E+03  0.60948935805E+03  0.50000000000E+03 0.  1.
    -200001    1    1    2    0    0  0.35902700227E+03  0.11136416080E+02 -0.12745156484E+03  0.79703720710E+03  0.70000000000E+03 0.  1.
<mgrwt>
<rscale>  0 0.15789807E+04</rscale>
<asrwt>0</asrwt>
<pdfrwt beam="1">  1        1 0.87445608E-01 0.15789807E+04</pdfrwt>
<pdfrwt beam="2">  1       -1 0.14546536E+00 0.15789807E+04</pdfrwt>
<totfact> 0.13518771E+01</totfact>
</mgrwt>
</event>
<event>
 8    1  0.2402290E-028  0.1897635E+04  0.7818608E-02  0.8656035E-01
          1   -1    0    0  501    0  0.00000000000E+00  0.00000000000E+00  0.45775148956E+03  0.45775148959E+03  0.50400000000E-02 0. -1.
         -1   -1    0    0    0  501 -0.00000000000E+00 -0.00000000000E+00 -0.19666884224E+04  0.19666884224E+04  0.50400000000E-02 0.  1.
     200001    2    1    2    0    0 -0.55055272246E+03  0.98042395413E+02 -0.35918973515E+03  0.96682568659E+03  0.70214957872E+03 0.  0.
    5000001    2    3    3    0    0 -0.29687356183E+03  0.44128218102E+02 -0.22022949926E+03  0.38667932384E+03  0.10458802891E+03 0.  0.
        -13    1    4    4    0    0 -0.17141939743E+03  0.68872659962E+02 -0.14851359982E+03  0.23703238935E+03  0.10566000000E+00 0. -1.
     200003    1    4    4    0    0 -0.12545416440E+03 -0.24744441859E+02 -0.71715899442E+02  0.14964693449E+03  0.30000000000E+02 0. -1.
     200000    1    3    3    0    0 -0.25367916062E+03  0.53914177310E+02 -0.13896023589E+03  0.58014636275E+03  0.50000000000E+03 0. -1.
    -200001    1    1    2    0    0  0.55055272246E+03 -0.98042395413E+02 -0.11497471976E+04  0.14576142254E+04  0.70000000000E+03 0.  1.
<mgrwt>
<rscale>  0 0.18976349E+04</rscale>
<asrwt>0</asrwt>
<pdfrwt beam="1">  1        1 0.65393071E-01 0.18976349E+04</pdfrwt>
<pdfrwt beam="2">  1       -1 0.28095548E+00 0.18976349E+04</pdfrwt>
<totfact> 0.22795079E+00</totfact>
</mgrwt>
</event>
<event>
 8    1  0.2402290E-028  0.1783677E+04  0.7818608E-02  0.8715028E-01
          1   -1    0    0  501    0  0.00000000000E+00  0.00000000000E+00  0.64019149546E+03  0.64019149548E+03  0.50400000000E-02 0. -1.
         -1   -1    0    0    0  501 -0.00000000000E+00 -0.00000000000E+00 -0.12424032374E+04  0.12424032375E+04  0.50400000000E-02 0.  1.
     200001    2    1    2    0    0  0.78948876560E+02 -0.54495291315E+03 -0.34718464606E+03  0.95617937127E+03  0.70038218776E+03 0.  0.
    5000001    2    3    3    0    0  0.27184641043E+02 -0.17797661014E+03 -0.16002718786E+03  0.30627241085E+03  0.18915446156E+03 0.  0.
        -13    1    4    4    0    0  0.87928647332E+02 -0.13272317920E+03 -0.45238347498E+02  0.16550954222E+03  0.10566000000E+00 0. -1.
     200003    1    4    4    0    0 -0.60744006289E+02 -0.45253430936E+02 -0.11478884036E+03  0.14076286862E+03  0.30000000000E+02 0.  1.
     200000    1    3    3    0    0  0.51764235517E+02 -0.36697630301E+03 -0.18715745820E+03  0.64990696043E+03  0.50000000000E+03 0. -1.
    -200001    1    1    2    0    0 -0.78948876560E+02  0.54495291315E+03 -0.25502709593E+03  0.92641536166E+03  0.70000000000E+03 0.  1.
<mgrwt>
<rscale>  0 0.17836771E+04</rscale>
<asrwt>0</asrwt>
<pdfrwt beam="1">  1        1 0.91455928E-01 0.17836771E+04</pdfrwt>
<pdfrwt beam="2">  1       -1 0.17748618E+00 0.17836771E+04</pdfrwt>
<totfact> 0.71411500E+00</totfact>
</mgrwt>
</event>
<event>
 8    1  0.2402290E-028  0.1494978E+04  0.7818608E-02  0.8887799E-01
          1   -1    0    0  501    0  0.00000000000E+00  0.00000000000E+00  0.49525765712E+03  0.49525765714E+03  0.50400000000E-02 0.  1.
         -1   -1    0    0    0  501 -0.00000000000E+00 -0.00000000000E+00 -0.11281798258E+04  0.11281798258E+04  0.50400000000E-02 0. -1.
     200001    2    1    2    0    0 -0.14778687107E+03  0.13137589417E+03 -0.12955404919E+03  0.73885845959E+03  0.70001927603E+03 0.  0.
    5000001    2    3    3    0    0 -0.57914676874E+02  0.12161170681E+02  0.20929004586E+02  0.19577990997E+03  0.18544472504E+03 0.  0.
        -13    1    4    4    0    0 -0.30774478938E+02  0.63891788026E+02  0.80382781893E+02  0.10719436515E+03  0.10566000000E+00 0. -1.
     200003    1    4    4    0    0 -0.27140197936E+02 -0.51730617345E+02 -0.59453777307E+02  0.88585544820E+02  0.30000000000E+02 0. -1.
     200000    1    3    3    0    0 -0.89872194198E+02  0.11921472349E+03 -0.15048305377E+03  0.54307854962E+03  0.50000000000E+03 0.  1.
    -200001    1    1    2    0    0  0.14778687107E+03 -0.13137589417E+03 -0.50336811948E+03  0.88457902335E+03  0.70000000000E+03 0. -1.
<mgrwt>
<rscale>  0 0.14949779E+04</rscale>
<asrwt>0</asrwt>
<pdfrwt beam="1">  1        1 0.70751095E-01 0.14949779E+04</pdfrwt>
<pdfrwt beam="2">  1       -1 0.16116855E+00 0.14949779E+04</pdfrwt>
<totfact> 0.13806975E+01</totfact>
</mgrwt>
</event>
<event>
 8    1  0.2402290E-028  0.1691140E+04  0.7818608E-02  0.8766433E-01
          1   -1    0    0  501    0  0.00000000000E+00  0.00000000000E+00  0.41014219960E+03  0.41014219963E+03  0.50400000000E-02 0.  1.
         -1   -1    0    0    0  501 -0.00000000000E+00 -0.00000000000E+00 -0.17432708963E+04  0.17432708963E+04  0.50400000000E-02 0. -1.
     200001    2    1    2    0    0  0.19326761148E+03 -0.43290947371E+03 -0.68232981288E+03  0.10865006491E+04  0.70010478131E+03 0.  0.
    5000001    2    3    3    0    0  0.61042163893E+02 -0.13924912366E+03 -0.26373849860E+03  0.35921895773E+03  0.19069294620E+03 0.  0.
        -13    1    4    4    0    0 -0.11599001074E+02  0.32590363401E+02  0.22353772766E+00  0.34593781894E+02  0.10566000000E+00 0. -1.
     200003    1    4    4    0    0  0.72641164967E+02 -0.17183948706E+03 -0.26396203633E+03  0.32462517583E+03  0.30000000000E+02 0. -1.
     200000    1    3    3    0    0  0.13222544759E+03 -0.29366035005E+03 -0.41859131427E+03  0.72728169135E+03  0.50000000000E+03 0.  1.
    -200001    1    1    2    0    0 -0.19326761148E+03  0.43290947371E+03 -0.65079888379E+03  0.10669124468E+04  0.70000000000E+03 0.  1.
<mgrwt>
<rscale>  0 0.16911404E+04</rscale>
<asrwt>0</asrwt>
<pdfrwt beam="1">  1        1 0.58591744E-01 0.16911404E+04</pdfrwt>
<pdfrwt beam="2">  1       -1 0.24903870E+00 0.16911404E+04</pdfrwt>
<totfact> 0.43264417E+00</totfact>
</mgrwt>
</event>
<event>
 8    1  0.2402290E-028  0.1671860E+04  0.7818608E-02  0.8777578E-01
         -1   -1    0    0    0  501 -0.00000000000E+00  0.00000000000E+00  0.16946201397E+04  0.16946201397E+04  0.50400000000E-02 0. -1.
          1   -1    0    0  501    0  0.00000000000E+00 -0.00000000000E+00 -0.41235156523E+03  0.41235156526E+03  0.50400000000E-02 0.  1.
     200001    2    1    2    0    0 -0.23258453969E+03 -0.36531797590E+03  0.45583160148E+03  0.94054516980E+03  0.69949265608E+03 0.  0.
    5000001    2    3    3    0    0 -0.13417835069E+03 -0.14068996945E+03  0.12922104387E+03  0.29493230154E+03  0.18024840364E+03 0.  0.
        -13    1    4    4    0    0 -0.12609755887E+03 -0.35517535188E+02  0.76801582173E+01  0.13122913416E+03  0.10566000000E+00 0. -1.
     200003    1    4    4    0    0 -0.80807918239E+01 -0.10517243427E+03  0.12154088565E+03  0.16370316738E+03  0.30000000000E+02 0. -1.
     200000    1    3    3    0    0 -0.98406188998E+02 -0.22462800645E+03  0.32661055762E+03  0.64561286826E+03  0.50000000000E+03 0. -1.
    -200001    1    1    2    0    0  0.23258453969E+03  0.36531797590E+03  0.82643697300E+03  0.11664265352E+04  0.70000000000E+03 0.  1.
<mgrwt>
<rscale>  0 0.16718604E+04</rscale>
<asrwt>0</asrwt>
<pdfrwt beam="1">  1        1 0.58907367E-01 0.16718604E+04</pdfrwt>
<pdfrwt beam="2">  1       -1 0.24208859E+00 0.16718604E+04</pdfrwt>
<totfact> 0.47774308E+00</totfact>
</mgrwt>
</event>
<event>
 8    1  0.2402290E-028  0.1651706E+04  0.7818608E-02  0.8789398E-01
          1   -1    0    0  501    0  0.00000000000E+00  0.00000000000E+00  0.63157045921E+03  0.63157045923E+03  0.50400000000E-02 0.  1.
         -1   -1    0    0    0  501 -0.00000000000E+00 -0.00000000000E+00 -0.10798998683E+04  0.10798998683E+04  0.50400000000E-02 0. -1.
     200001    2    1    2    0    0  0.12880314964E+03  0.40751147094E+03 -0.12256265407E+03  0.82898529710E+03  0.69967075709E+03 0.  0.
    5000001    2    3    3    0    0 -0.25200943878E+02  0.12824093859E+03  0.43025255989E+01  0.22251677782E+03  0.18003993663E+03 0.  0.
        -13    1    4    4    0    0 -0.45347402034E+02  0.27820383213E+02  0.76850687638E+02  0.93468711063E+02  0.10566000000E+00 0. -1.
     200003    1    4    4    0    0  0.20146458156E+02  0.10042055537E+03 -0.72548162039E+02  0.12904806675E+03  0.30000000000E+02 0. -1.
     200000    1    3    3    0    0  0.15400409352E+03  0.27927053236E+03 -0.12686517967E+03  0.60646851928E+03  0.50000000000E+03 0.  1.
    -200001    1    1    2    0    0 -0.12880314964E+03 -0.40751147094E+03 -0.32576675504E+03  0.88248503047E+03  0.70000000000E+03 0. -1.
<mgrwt>
<rscale>  0 0.16517056E+04</rscale>
<asrwt>0</asrwt>
<pdfrwt beam="1">  1        1 0.90224351E-01 0.16517056E+04</pdfrwt>
<pdfrwt beam="2">  1       -1 0.15427141E+00 0.16517056E+04</pdfrwt>
<totfact> 0.10966685E+01</totfact>
</mgrwt>
</event>
<event>
 8    1  0.2402290E-028  0.2152790E+04  0.7818608E-02  0.8538339E-01
          1   -1    0    0  501    0  0.00000000000E+00  0.00000000000E+00  0.17040339703E+04  0.17040339703E+04  0.50400000000E-02 0.  1.
         -1   -1    0    0    0  501 -0.00000000000E+00 -0.00000000000E+00 -0.67993128955E+03  0.67993128957E+03  0.50400000000E-02 0. -1.
     200001    2    1    2    0    0  0.26989660995E+03 -0.32617964651E+03  0.12862013491E+04  0.15249349613E+04  0.70133828077E+03 0.  0.
    5000001    2    3    3    0    0  0.60733365021E+02 -0.30021481395E+02  0.49265444339E+03  0.51936267984E+03  0.14979773576E+03 0.  0.
        -13    1    4    4    0    0  0.39837059146E+01  0.55712582477E+02  0.20290305613E+03  0.21045052413E+03  0.10566000000E+00 0. -1.
     200003    1    4    4    0    0  0.56749659106E+02 -0.85734063872E+02  0.28975138727E+03  0.30891215570E+03  0.30000000000E+02 0. -1.
     200000    1    3    3    0    0  0.20916324493E+03 -0.29615816511E+03  0.79354690567E+03  0.10055722815E+04  0.50000000000E+03 0. -1.
    -200001    1    1    2    0    0 -0.26989660995E+03  0.32617964651E+03 -0.26209866833E+03  0.85903029853E+03  0.70000000000E+03 0. -1.
<mgrwt>
<rscale>  0 0.21527898E+04</rscale>
<asrwt>0</asrwt>
<pdfrwt beam="1">  1        1 0.24343343E+00 0.21527898E+04</pdfrwt>
<pdfrwt beam="2">  1       -1 0.97133041E-01 0.21527898E+04</pdfrwt>
<totfact> 0.53753639E+00</totfact>
</mgrwt>
</event>
<event>
 8    1  0.2402290E-028  0.2070287E+04  0.7818608E-02  0.8574446E-01
          1   -1    0    0  501    0  0.00000000000E+00  0.00000000000E+00  0.24168095336E+04  0.24168095336E+04  0.50400000000E-02 0.  1.
         -1   -1    0    0    0  501 -0.00000000000E+00 -0.00000000000E+00 -0.44336214309E+03  0.44336214312E+03  0.50400000000E-02 0. -1.
     200001    2    1    2    0    0 -0.24897143738E+03 -0.39401508083E+03  0.18208023215E+04  0.20054581706E+04  0.69950462418E+03 0.  0.
    5000001    2    3    3    0    0 -0.36062631144E+02 -0.17505128231E+03  0.85934353805E+03  0.87954596388E+03  0.56447509997E+02 0.  0.
        -13    1    4    4    0    0 -0.29013074587E+02 -0.11987660252E+03  0.60751847256E+03  0.61991198084E+03  0.10566000000E+00 0. -1.
     200003    1    4    4    0    0 -0.70495565572E+01 -0.55174679795E+02  0.25182506550E+03  0.25963398304E+03  0.30000000000E+02 0.  1.
     200000    1    3    3    0    0 -0.21290880624E+03 -0.21896379852E+03  0.96145878348E+03  0.11259122067E+04  0.50000000000E+03 0.  1.
    -200001    1    1    2    0    0  0.24897143738E+03  0.39401508083E+03  0.15264506901E+03  0.85471350618E+03  0.70000000000E+03 0. -1.
<mgrwt>
<rscale>  0 0.20702868E+04</rscale>
<asrwt>0</asrwt>
<pdfrwt beam="1">  1        1 0.34525851E+00 0.20702868E+04</pdfrwt>
<pdfrwt beam="2">  1       -1 0.63337449E-01 0.20702868E+04</pdfrwt>
<totfact> 0.47554978E+00</totfact>
</mgrwt>
</event>
<event>
 8    1  0.2402290E-028  0.1922011E+04  0.7818608E-02  0.8643977E-01
         -1   -1    0    0    0  501 -0.00000000000E+00  0.00000000000E+00  0.33575242085E+03  0.33575242089E+03  0.50400000000E-02 0. -1.
          1   -1    0    0  501    0  0.00000000000E+00 -0.00000000000E+00 -0.27506312311E+04  0.27506312311E+04  0.50400000000E-02 0.  1.
     200001    2    1    2    0    0  0.65393438671E+03 -0.74085696869E+02 -0.12456159121E+04  0.15730117223E+04  0.69977711122E+03 0.  0.
    5000001    2    3    3    0    0  0.51536719239E+02  0.12316931579E+03 -0.17277150707E+03  0.23033245784E+03  0.73323486666E+02 0.  0.
        -13    1    4    4    0    0  0.27248614459E+02  0.95302720267E+02 -0.85419008255E+02  0.13084920181E+03  0.10566000000E+00 0. -1.
     200003    1    4    4    0    0  0.24288104780E+02  0.27866595520E+02 -0.87352498814E+02  0.99483256022E+02  0.30000000000E+02 0.  1.
     200000    1    3    3    0    0  0.60239766748E+03 -0.19725501266E+03 -0.10728444050E+04  0.13426792644E+04  0.50000000000E+03 0. -1.
    -200001    1    1    2    0    0 -0.65393438671E+03  0.74085696869E+02 -0.11692628982E+04  0.15133719297E+04  0.70000000000E+03 0. -1.
<mgrwt>
<rscale>  0 0.19220105E+04</rscale>
<asrwt>0</asrwt>
<pdfrwt beam="1">  1        1 0.39294731E+00 0.19220105E+04</pdfrwt>
<pdfrwt beam="2">  1       -1 0.47964633E-01 0.19220105E+04</pdfrwt>
<totfact> 0.50571844E+00</totfact>
</mgrwt>
</event>
<event>
 8    1  0.2402290E-028  0.1490480E+04  0.7818608E-02  0.8890809E-01
          1   -1    0    0  501    0  0.00000000000E+00  0.00000000000E+00  0.11452716684E+04  0.11452716684E+04  0.50400000000E-02 0.  1.
         -1   -1    0    0    0  501 -0.00000000000E+00 -0.00000000000E+00 -0.48493504957E+03  0.48493504960E+03  0.50400000000E-02 0. -1.
     200001    2    1    2    0    0  0.10537215466E+03  0.94921534321E+01  0.58470890544E+03  0.91822852806E+03  0.70004695107E+03 0.  0.
    5000001    2    3    3    0    0  0.10718975846E+02  0.38320274916E+02  0.79930400859E+01  0.14855881046E+03  0.14290728310E+03 0.  0.
        -13    1    4    4    0    0  0.58979148536E+02  0.21104290193E+02  0.46303209255E+02  0.77896915073E+02  0.10566000000E+00 0. -1.
     200003    1    4    4    0    0 -0.48260172690E+02  0.17215984723E+02 -0.38310169169E+02  0.70661895388E+02  0.30000000000E+02 0. -1.
     200000    1    3    3    0    0  0.94653178810E+02 -0.28828121484E+02  0.57671586535E+03  0.76966971760E+03  0.50000000000E+03 0.  1.
    -200001    1    1    2    0    0 -0.10537215466E+03 -0.94921534321E+01  0.75627713416E+02  0.71197818997E+03  0.70000000000E+03 0. -1.
<mgrwt>
<rscale>  0 0.14904796E+04</rscale>
<asrwt>0</asrwt>
<pdfrwt beam="1">  1        1 0.16361024E+00 0.14904796E+04</pdfrwt>
<pdfrwt beam="2">  1       -1 0.69276437E-01 0.14904796E+04</pdfrwt>
<totfact> 0.27642598E+01</totfact>
</mgrwt>
</event>
<event>
 8    1  0.2402290E-028  0.1695395E+04  0.7818608E-02  0.8763995E-01
         -1   -1    0    0    0  501 -0.00000000000E+00  0.00000000000E+00  0.25117153726E+03  0.25117153731E+03  0.50400000000E-02 0. -1.
          1   -1    0    0  501    0  0.00000000000E+00 -0.00000000000E+00 -0.28609582505E+04  0.28609582505E+04  0.50400000000E-02 0.  1.
     200001    2    1    2    0    0  0.16829652089E+03 -0.43376294228E+03 -0.14996484678E+04  0.17196927397E+04  0.70137264195E+03 0.  0.
    5000001    2    3    3    0    0  0.36756160696E+02 -0.23017239176E+03 -0.65170197271E+03  0.70590516964E+03  0.13876707828E+03 0.  0.
        -13    1    4    4    0    0  0.60352726621E+02 -0.58511555677E+02 -0.12511271054E+03  0.15072907901E+03  0.10566000000E+00 0. -1.
     200003    1    4    4    0    0 -0.23596565925E+02 -0.17166083609E+03 -0.52658926217E+03  0.55517609062E+03  0.30000000000E+02 0. -1.
     200000    1    3    3    0    0  0.13154036019E+03 -0.20359055052E+03 -0.84794649510E+03  0.10137875700E+04  0.50000000000E+03 0. -1.
    -200001    1    1    2    0    0 -0.16829652089E+03  0.43376294228E+03 -0.11101382454E+04  0.13924370481E+04  0.70000000000E+03 0. -1.
<mgrwt>
<rscale>  0 0.16953953E+04</rscale>
<asrwt>0</asrwt>
<pdfrwt beam="1">  1        1 0.40870830E+00 0.16953953E+04</pdfrwt>
<pdfrwt beam="2">  1       -1 0.35881650E-01 0.16953953E+04</pdfrwt>
<totfact> 0.74683595E+00</totfact>
</mgrwt>
</event>
<event>
 8    1  0.2402290E-028  0.1689272E+04  0.7818608E-02  0.8767507E-01
          1   -1    0    0  501    0  0.00000000000E+00  0.00000000000E+00  0.54889589244E+03  0.54889589246E+03  0.50400000000E-02 0.  1.
         -1   -1    0    0    0  501 -0.00000000000E+00 -0.00000000000E+00 -0.12997185743E+04  0.12997185743E+04  0.50400000000E-02 0. -1.
     200001    2    1    2    0    0  0.35463094898E+03 -0.15445202325E+03 -0.79821904540E+02  0.80465058778E+03  0.70105099281E+03 0.  0.
    5000001    2    3    3    0    0  0.16006045646E+02  0.19494667042E+02  0.15069788812E+01  0.17097980299E+03  0.16910229598E+03 0.  0.
        -13    1    4    4    0    0  0.27120702035E+01  0.79080082241E+02  0.44233424819E+02  0.90651099096E+02  0.10566000000E+00 0. -1.
     200003    1    4    4    0    0  0.13293975443E+02 -0.59585415199E+02 -0.42726445937E+02  0.80328703898E+02  0.30000000000E+02 0. -1.
     200000    1    3    3    0    0  0.33862490333E+03 -0.17394669029E+03 -0.81328883422E+02  0.63367078479E+03  0.50000000000E+03 0.  1.
    -200001    1    1    2    0    0 -0.35463094898E+03  0.15445202325E+03 -0.67100077730E+03  0.10439638790E+04  0.70000000000E+03 0. -1.
<mgrwt>
<rscale>  0 0.16892723E+04</rscale>
<asrwt>0</asrwt>
<pdfrwt beam="1">  1        1 0.78413700E-01 0.16892723E+04</pdfrwt>
<pdfrwt beam="2">  1       -1 0.18567408E+00 0.16892723E+04</pdfrwt>
<totfact> 0.78150073E+00</totfact>
</mgrwt>
</event>
<event>
 8    1  0.2402290E-028  0.1452020E+04  0.7818608E-02  0.8917002E-01
          1   -1    0    0  501    0  0.00000000000E+00  0.00000000000E+00  0.14711687997E+04  0.14711687997E+04  0.50400000000E-02 0.  1.
         -1   -1    0    0    0  501 -0.00000000000E+00 -0.00000000000E+00 -0.35827989308E+03  0.35827989311E+03  0.50400000000E-02 0. -1.
     200001    2    1    2    0    0 -0.11028757175E+03  0.10443714693E+03  0.40587254622E+03  0.82299819727E+03  0.69965923334E+03 0.  0.
    5000001    2    3    3    0    0 -0.60736192907E+02  0.30476950064E+02  0.15526136190E+03  0.25666665518E+03  0.19275360377E+03 0.  0.
        -13    1    4    4    0    0 -0.45328357525E+02  0.91001799683E+02  0.15736349475E+03  0.18734798687E+03  0.10566000000E+00 0. -1.
     200003    1    4    4    0    0 -0.15407835383E+02 -0.60524849619E+02 -0.21021328516E+01  0.69318668302E+02  0.30000000000E+02 0. -1.
     200000    1    3    3    0    0 -0.49551378839E+02  0.73960196865E+02  0.25061118432E+03  0.56633154210E+03  0.50000000000E+03 0. -1.
    -200001    1    1    2    0    0  0.11028757175E+03 -0.10443714693E+03  0.70701636044E+03  0.10064504956E+04  0.70000000000E+03 0. -1.
<mgrwt>
<rscale>  0 0.14520196E+04</rscale>
<asrwt>0</asrwt>
<pdfrwt beam="1">  1        1 0.21016697E+00 0.14520196E+04</pdfrwt>
<pdfrwt beam="2">  1       -1 0.51182841E-01 0.14520196E+04</pdfrwt>
<totfact> 0.30305744E+01</totfact>
</mgrwt>
</event>
<event>
 8    1  0.2402290E-028  0.1494606E+04  0.7818608E-02  0.8888048E-01
         -1   -1    0    0    0  501 -0.00000000000E+00  0.00000000000E+00  0.94184323353E+03  0.94184323354E+03  0.50400000000E-02 0.  1.
          1   -1    0    0  501    0  0.00000000000E+00 -0.00000000000E+00 -0.59294561316E+03  0.59294561318E+03  0.50400000000E-02 0. -1.
     200001    2    1    2    0    0 -0.11476584620E+03 -0.20573007092E+03  0.58347017868E+02  0.74111655028E+03  0.70025231529E+03 0.  0.
    5000001    2    3    3    0    0 -0.57801816538E+02  0.69176884179E+02 -0.82602185471E+02  0.15062064634E+03  0.87960029337E+02 0.  0.
        -13    1    4    4    0    0  0.19458842588E+02  0.26761691838E+01 -0.11426860662E+02  0.22724276556E+02  0.10566000000E+00 0. -1.
     200003    1    4    4    0    0 -0.77260659126E+02  0.66500714995E+02 -0.71175324809E+02  0.12789636979E+03  0.30000000000E+02 0. -1.
     200000    1    3    3    0    0 -0.56964029661E+02 -0.27490695510E+03  0.14094920334E+03  0.59049590393E+03  0.50000000000E+03 0.  1.
    -200001    1    1    2    0    0  0.11476584620E+03  0.20573007092E+03  0.29055060250E+03  0.79367229645E+03  0.70000000000E+03 0.  1.
<mgrwt>
<rscale>  0 0.14946061E+04</rscale>
<asrwt>0</asrwt>
<pdfrwt beam="1">  1        1 0.84706517E-01 0.14946061E+04</pdfrwt>
<pdfrwt beam="2">  1       -1 0.13454903E+00 0.14946061E+04</pdfrwt>
<totfact> 0.17461795E+01</totfact>
</mgrwt>
</event>
<event>
 8    1  0.2402290E-028  0.1497026E+04  0.7818608E-02  0.8886433E-01
          1   -1    0    0  501    0  0.00000000000E+00  0.00000000000E+00  0.11783450709E+04  0.11783450709E+04  0.50400000000E-02 0. -1.
         -1   -1    0    0    0  501 -0.00000000000E+00 -0.00000000000E+00 -0.47547348387E+03  0.47547348389E+03  0.50400000000E-02 0.  1.
     200001    2    1    2    0    0 -0.18376033884E+03 -0.19128255243E+03  0.35114148755E+03  0.82673274314E+03  0.69987842323E+03 0.  0.
    5000001    2    3    3    0    0 -0.84274331947E+02 -0.10689417092E+03  0.21454259620E+03  0.29224408880E+03  0.14439375004E+03 0.  0.
        -13    1    4    4    0    0 -0.75771664930E+02  0.86835455281E+01  0.10646526145E+03  0.13096416391E+03  0.10566000000E+00 0. -1.
     200003    1    4    4    0    0 -0.85026670176E+01 -0.11557771644E+03  0.10807733475E+03  0.16127992488E+03  0.30000000000E+02 0. -1.
     200000    1    3    3    0    0 -0.99486006891E+02 -0.84388381512E+02  0.13659889135E+03  0.53448865434E+03  0.50000000000E+03 0.  1.
    -200001    1    1    2    0    0  0.18376033884E+03  0.19128255243E+03  0.35173009950E+03  0.82708581168E+03  0.70000000000E+03 0.  1.
<mgrwt>
<rscale>  0 0.14970262E+04</rscale>
<asrwt>0</asrwt>
<pdfrwt beam="1">  1        1 0.16833501E+00 0.14970262E+04</pdfrwt>
<pdfrwt beam="2">  1       -1 0.67924783E-01 0.14970262E+04</pdfrwt>
<totfact> 0.27259782E+01</totfact>
</mgrwt>
</event>
<event>
 8    1  0.2402290E-028  0.1407763E+04  0.7818608E-02  0.8948219E-01
          1   -1    0    0  501    0  0.00000000000E+00  0.00000000000E+00  0.60561186137E+03  0.60561186139E+03  0.50400000000E-02 0.  1.
         -1   -1    0    0    0  501 -0.00000000000E+00 -0.00000000000E+00 -0.81809657071E+03  0.81809657073E+03  0.50400000000E-02 0. -1.
     200001    2    1    2    0    0 -0.69290272837E+02  0.21038453924E+02 -0.82808524141E+02  0.70812498383E+03  0.69952840014E+03 0.  0.
    5000001    2    3    3    0    0  0.28251542149E+02  0.77054628833E+01 -0.21766566407E+02  0.19488206384E+03  0.19143592035E+03 0.  0.
        -13    1    4    4    0    0 -0.73367455510E+02  0.19860451359E+01  0.26868676091E+02  0.78157947915E+02  0.10566000000E+00 0. -1.
     200003    1    4    4    0    0  0.10161899766E+03  0.57194177474E+01 -0.48635242498E+02  0.11672411592E+03  0.30000000000E+02 0. -1.
     200000    1    3    3    0    0 -0.97541814986E+02  0.13332991040E+02 -0.61041957735E+02  0.51324291999E+03  0.50000000000E+03 0. -1.
    -200001    1    1    2    0    0  0.69290272837E+02 -0.21038453924E+02 -0.12967618520E+03  0.71558344829E+03  0.70000000000E+03 0.  1.
<mgrwt>
<rscale>  0 0.14077627E+04</rscale>
<asrwt>0</asrwt>
<pdfrwt beam="1">  1        1 0.86515980E-01 0.14077627E+04</pdfrwt>
<pdfrwt beam="2">  1       -1 0.11687094E+00 0.14077627E+04</pdfrwt>
<totfact> 0.24243204E+01</totfact>
</mgrwt>
</event>
<event>
 8    1  0.2402290E-028  0.1551959E+04  0.7818608E-02  0.8850617E-01
          1   -1    0    0  501    0  0.00000000000E+00  0.00000000000E+00  0.18643364103E+04  0.18643364103E+04  0.50400000000E-02 0.  1.
         -1   -1    0    0    0  501 -0.00000000000E+00 -0.00000000000E+00 -0.32298061804E+03  0.32298061807E+03  0.50400000000E-02 0. -1.
     200001    2    1    2    0    0 -0.20237127886E+03 -0.10338769847E+03  0.42402722135E+03  0.84938344031E+03  0.70000713820E+03 0.  0.
    5000001    2    3    3    0    0 -0.14110445531E+03 -0.24521575234E+02  0.14782745118E+03  0.26950431316E+03  0.17397656316E+03 0.  0.
        -13    1    4    4    0    0  0.18046662345E+02 -0.40623557638E+02 -0.68480279205E+01  0.44976239365E+02  0.10566000000E+00 0. -1.
     200003    1    4    4    0    0 -0.15915111766E+03  0.16101982404E+02  0.15467547910E+03  0.22452807380E+03  0.30000000000E+02 0. -1.
     200000    1    3    3    0    0 -0.61266823553E+02 -0.78866123233E+02  0.27619977017E+03  0.57987912715E+03  0.50000000000E+03 0. -1.
    -200001    1    1    2    0    0  0.20237127886E+03  0.10338769847E+03  0.11173285709E+04  0.13379335881E+04  0.70000000000E+03 0.  1.
<mgrwt>
<rscale>  0 0.15519594E+04</rscale>
<asrwt>0</asrwt>
<pdfrwt beam="1">  1        1 0.26633377E+00 0.15519594E+04</pdfrwt>
<pdfrwt beam="2">  1       -1 0.46140088E-01 0.15519594E+04</pdfrwt>
<totfact> 0.20466884E+01</totfact>
</mgrwt>
</event>
<event>
 8    1  0.2402290E-028  0.2123975E+04  0.7818608E-02  0.8550755E-01
          1   -1    0    0  501    0  0.00000000000E+00  0.00000000000E+00  0.13152805028E+04  0.13152805029E+04  0.50400000000E-02 0.  1.
         -1   -1    0    0    0  501 -0.00000000000E+00 -0.00000000000E+00 -0.85747297409E+03  0.85747297410E+03  0.50400000000E-02 0. -1.
     200001    2    1    2    0    0 -0.52144728494E+03  0.52720341465E+03  0.53204622792E+03  0.11503239704E+04  0.70022948873E+03 0.  0.
    5000001    2    3    3    0    0 -0.12474545391E+03  0.41877630523E+02  0.77112518817E+02  0.22843561538E+03  0.17006271080E+03 0.  0.
        -13    1    4    4    0    0 -0.13577738543E+03  0.85180791488E+02  0.48398504713E+02  0.16743264931E+03  0.10566000000E+00 0. -1.
     200003    1    4    4    0    0  0.11031931525E+02 -0.43303160965E+02  0.28714014104E+02  0.61002966065E+02  0.30000000000E+02 0. -1.
     200000    1    3    3    0    0 -0.39670183103E+03  0.48532578413E+03  0.45493370910E+03  0.92188835504E+03  0.50000000000E+03 0.  1.
    -200001    1    1    2    0    0  0.52144728494E+03 -0.52720341465E+03 -0.74238699155E+02  0.10224295065E+04  0.70000000000E+03 0. -1.
<mgrwt>
<rscale>  0 0.21239750E+04</rscale>
<asrwt>0</asrwt>
<pdfrwt beam="1">  1        1 0.18789721E+00 0.21239750E+04</pdfrwt>
<pdfrwt beam="2">  1       -1 0.12249614E+00 0.21239750E+04</pdfrwt>
<totfact> 0.55958566E+00</totfact>
</mgrwt>
</event>
<event>
 8    1  0.2402290E-028  0.1617243E+04  0.7818608E-02  0.8810024E-01
          1   -1    0    0  501    0  0.00000000000E+00  0.00000000000E+00  0.93274936414E+03  0.93274936415E+03  0.50400000000E-02 0.  1.
         -1   -1    0    0    0  501 -0.00000000000E+00 -0.00000000000E+00 -0.70101258840E+03  0.70101258841E+03  0.50400000000E-02 0. -1.
     200001    2    1    2    0    0  0.27883923200E+02  0.15290378193E+03  0.49309191697E+03  0.87056893010E+03  0.70042383152E+03 0.  0.
    5000001    2    3    3    0    0  0.87922396590E+02  0.12447994361E+03  0.22261653272E+03  0.29823208316E+03  0.12711668106E+03 0.  0.
        -13    1    4    4    0    0  0.76243563910E+02  0.82093407353E+02  0.59928440978E+02  0.12705840299E+03  0.10566000000E+00 0. -1.
     200003    1    4    4    0    0  0.11678832680E+02  0.42386536258E+02  0.16268809174E+03  0.17117368017E+03  0.30000000000E+02 0. -1.
     200000    1    3    3    0    0 -0.60038473390E+02  0.28423838317E+02  0.27047538425E+03  0.57233684693E+03  0.50000000000E+03 0.  1.
    -200001    1    1    2    0    0 -0.27883923200E+02 -0.15290378193E+03 -0.26135514123E+03  0.76319302247E+03  0.70000000000E+03 0. -1.
<mgrwt>
<rscale>  0 0.16172434E+04</rscale>
<asrwt>0</asrwt>
<pdfrwt beam="1">  1        1 0.13324991E+00 0.16172434E+04</pdfrwt>
<pdfrwt beam="2">  1       -1 0.10014466E+00 0.16172434E+04</pdfrwt>
<totfact> 0.17729004E+01</totfact>
</mgrwt>
</event>
<event>
 8    1  0.2402290E-028  0.1700326E+04  0.7818608E-02  0.8761178E-01
         -1   -1    0    0    0  501 -0.00000000000E+00  0.00000000000E+00  0.44665911415E+03  0.44665911418E+03  0.50400000000E-02 0. -1.
          1   -1    0    0  501    0  0.00000000000E+00 -0.00000000000E+00 -0.16181851907E+04  0.16181851907E+04  0.50400000000E-02 0.  1.
     200001    2    1    2    0    0  0.41303850756E+03  0.25548425465E+03 -0.64057455790E+03  0.10609605824E+04  0.69240781339E+03 0.  0.
    5000001    2    3    3    0    0  0.99251279580E+02  0.89332080317E+02 -0.23141581735E+03  0.32374972757E+03  0.18283754678E+03 0.  0.
        -13    1    4    4    0    0  0.38158402991E+02 -0.50789444119E+02 -0.10678425297E+03  0.12425183781E+03  0.10566000000E+00 0. -1.
     200003    1    4    4    0    0  0.61092876589E+02  0.14012152444E+03 -0.12463156438E+03  0.19949788976E+03  0.30000000000E+02 0. -1.
     200000    1    3    3    0    0  0.31378722798E+03  0.16615217433E+03 -0.40915874055E+03  0.73721085481E+03  0.50000000000E+03 0. -1.
    -200001    1    1    2    0    0 -0.41303850756E+03 -0.25548425465E+03 -0.53095151861E+03  0.10038837225E+04  0.70000000000E+03 0.  1.
<mgrwt>
<rscale>  0 0.17003260E+04</rscale>
<asrwt>0</asrwt>
<pdfrwt beam="1">  1        1 0.23116931E+00 0.17003260E+04</pdfrwt>
<pdfrwt beam="2">  1       -1 0.63808445E-01 0.17003260E+04</pdfrwt>
<totfact> 0.15483449E+01</totfact>
</mgrwt>
</event>
<event>
 8    1  0.2402290E-028  0.1483842E+04  0.7818608E-02  0.8895269E-01
          1   -1    0    0  501    0  0.00000000000E+00  0.00000000000E+00  0.14089199306E+04  0.14089199306E+04  0.50400000000E-02 0.  1.
         -1   -1    0    0    0  501 -0.00000000000E+00 -0.00000000000E+00 -0.39068705851E+03  0.39068705854E+03  0.50400000000E-02 0. -1.
     200001    2    1    2    0    0  0.19250106217E+03  0.14364236226E+03  0.43883072743E+03  0.85971516963E+03  0.69917664319E+03 0.  0.
    5000001    2    3    3    0    0  0.28032900631E+01 -0.18815251660E+01  0.70455620017E+02  0.19423589398E+03  0.18097566009E+03 0.  0.
        -13    1    4    4    0    0 -0.75038631490E+02 -0.49555142400E+01 -0.12860148025E+02  0.76293826150E+02  0.10566000000E+00 0. -1.
     200003    1    4    4    0    0  0.77841921553E+02  0.30739890740E+01  0.83315768043E+02  0.11794206783E+03  0.30000000000E+02 0. -1.
     200000    1    3    3    0    0  0.18969777210E+03  0.14552388743E+03  0.36837510741E+03  0.66547927564E+03  0.50000000000E+03 0.  1.
    -200001    1    1    2    0    0 -0.19250106217E+03 -0.14364236226E+03  0.57940214467E+03  0.93989181953E+03  0.70000000000E+03 0.  1.
<mgrwt>
<rscale>  0 0.14838420E+04</rscale>
<asrwt>0</asrwt>
<pdfrwt beam="1">  1        1 0.20127428E+00 0.14838420E+04</pdfrwt>
<pdfrwt beam="2">  1       -1 0.55812436E-01 0.14838420E+04</pdfrwt>
<totfact> 0.28116280E+01</totfact>
</mgrwt>
</event>
<event>
 8    1  0.2402290E-028  0.2057216E+04  0.7818608E-02  0.8580328E-01
         -1   -1    0    0    0  501 -0.00000000000E+00  0.00000000000E+00  0.93188774685E+03  0.93188774687E+03  0.50400000000E-02 0. -1.
          1   -1    0    0  501    0  0.00000000000E+00 -0.00000000000E+00 -0.11353671624E+04  0.11353671624E+04  0.50400000000E-02 0.  1.
     200001    2    1    2    0    0 -0.26863890237E+03 -0.68991610004E+03 -0.24380686523E+03  0.10475601568E+04  0.69984956211E+03 0.  0.
    5000001    2    3    3    0    0 -0.16303396279E+03 -0.26308972399E+03 -0.13956810891E+03  0.37361737221E+03  0.15593077920E+03 0.  0.
        -13    1    4    4    0    0 -0.15158922429E+03 -0.26751260594E+03 -0.14630811069E+03  0.34051191121E+03  0.10566000000E+00 0. -1.
     200003    1    4    4    0    0 -0.11444738500E+02  0.44228819529E+01  0.67400017777E+01  0.33105461001E+02  0.30000000000E+02 0. -1.
     200000    1    3    3    0    0 -0.10560493959E+03 -0.42682637606E+03 -0.10423875632E+03  0.67394278457E+03  0.50000000000E+03 0.  1.
    -200001    1    1    2    0    0  0.26863890237E+03  0.68991610004E+03  0.40327449725E+02  0.10196947524E+04  0.70000000000E+03 0.  1.
<mgrwt>
<rscale>  0 0.20572163E+04</rscale>
<asrwt>0</asrwt>
<pdfrwt beam="1">  1        1 0.16219531E+00 0.20572163E+04</pdfrwt>
<pdfrwt beam="2">  1       -1 0.13312682E+00 0.20572163E+04</pdfrwt>
<totfact> 0.60828421E+00</totfact>
</mgrwt>
</event>
<event>
 8    1  0.2402290E-028  0.1643349E+04  0.7818608E-02  0.8794351E-01
          1   -1    0    0  501    0  0.00000000000E+00  0.00000000000E+00  0.12123344912E+04  0.12123344912E+04  0.50400000000E-02 0.  1.
         -1   -1    0    0    0  501 -0.00000000000E+00 -0.00000000000E+00 -0.55690016850E+03  0.55690016852E+03  0.50400000000E-02 0. -1.
     200001    2    1    2    0    0  0.84620951560E+01  0.32533631707E+02 -0.13400766068E+03  0.71360750521E+03  0.70010540216E+03 0.  0.
    5000001    2    3    3    0    0  0.20828486001E+02  0.28894728042E+02 -0.30651005329E+02  0.20287394704E+03  0.19735658874E+03 0.  0.
        -13    1    4    4    0    0 -0.45952828987E+02  0.30315150539E+01 -0.92682209661E+02  0.10349326416E+03  0.10566000000E+00 0. -1.
     200003    1    4    4    0    0  0.66781314988E+02  0.25863212988E+02  0.62031204332E+02  0.99380682874E+02  0.30000000000E+02 0. -1.
     200000    1    3    3    0    0 -0.12366390845E+02  0.36389036655E+01 -0.10335665536E+03  0.51073355818E+03  0.50000000000E+03 0. -1.
    -200001    1    1    2    0    0 -0.84620951560E+01 -0.32533631707E+02  0.78944198340E+03  0.10556271545E+04  0.70000000000E+03 0.  1.
<mgrwt>
<rscale>  0 0.16433494E+04</rscale>
<asrwt>0</asrwt>
<pdfrwt beam="1">  1        1 0.17319064E+00 0.16433494E+04</pdfrwt>
<pdfrwt beam="2">  1       -1 0.79557168E-01 0.16433494E+04</pdfrwt>
<totfact> 0.18358061E+01</totfact>
</mgrwt>
</event>
<event>
 8    1  0.2402290E-028  0.1655152E+04  0.7818608E-02  0.8787364E-01
         -1   -1    0    0    0  501 -0.00000000000E+00  0.00000000000E+00  0.28372367656E+03  0.28372367661E+03  0.50400000000E-02 0.  1.
          1   -1    0    0  501    0  0.00000000000E+00 -0.00000000000E+00 -0.24139051566E+04  0.24139051566E+04  0.50400000000E-02 0. -1.
     200001    2    1    2    0    0 -0.12091812837E+03 -0.31577909766E+03 -0.60208733849E+03  0.98315826253E+03  0.69982381620E+03 0.  0.
    5000001    2    3    3    0    0  0.10425713330E+02 -0.81171758129E+02 -0.11192915345E+03  0.23312702659E+03  0.18741004594E+03 0.  0.
        -13    1    4    4    0    0  0.99198364411E+01 -0.74312245525E+02 -0.15962970121E+03  0.17635862798E+03  0.10566000000E+00 0. -1.
     200003    1    4    4    0    0  0.50587688920E+00 -0.68595126041E+01  0.47700547762E+02  0.56768398616E+02  0.30000000000E+02 0. -1.
     200000    1    3    3    0    0 -0.13134384170E+03 -0.23460733953E+03 -0.49015818504E+03  0.75003123593E+03  0.50000000000E+03 0.  1.
    -200001    1    1    2    0    0  0.12091812837E+03  0.31577909766E+03 -0.15280941415E+04  0.17144705706E+04  0.70000000000E+03 0. -1.
<mgrwt>
<rscale>  0 0.16551520E+04</rscale>
<asrwt>0</asrwt>
<pdfrwt beam="1">  1        1 0.34484358E+00 0.16551520E+04</pdfrwt>
<pdfrwt beam="2">  1       -1 0.40531955E-01 0.16551520E+04</pdfrwt>
<totfact> 0.11621811E+01</totfact>
</mgrwt>
</event>
<event>
 8    1  0.2402290E-028  0.1434147E+04  0.7818608E-02  0.8929466E-01
         -1   -1    0    0    0  501 -0.00000000000E+00  0.00000000000E+00  0.29238761925E+03  0.29238761930E+03  0.50400000000E-02 0.  1.
          1   -1    0    0  501    0  0.00000000000E+00 -0.00000000000E+00 -0.17586043374E+04  0.17586043374E+04  0.50400000000E-02 0. -1.
     200001    2    1    2    0    0  0.13801283407E+02 -0.27000977404E+02 -0.51979080851E+03  0.87343451409E+03  0.70127443814E+03 0.  0.
    5000001    2    3    3    0    0 -0.83963413232E+02 -0.14969657874E+02 -0.21911343372E+03  0.28173393756E+03  0.15520750406E+03 0.  0.
        -13    1    4    4    0    0 -0.12115850794E+03 -0.33357738147E+02 -0.14907119829E+03  0.19497270594E+03  0.10566000000E+00 0. -1.
     200003    1    4    4    0    0  0.37195094709E+02  0.18388080273E+02 -0.70042235436E+02  0.86761231615E+02  0.30000000000E+02 0. -1.
     200000    1    3    3    0    0  0.97764696639E+02 -0.12031319531E+02 -0.30067737479E+03  0.59170057653E+03  0.50000000000E+03 0.  1.
    -200001    1    1    2    0    0 -0.13801283407E+02  0.27000977404E+02 -0.94642590959E+03  0.11775574426E+04  0.70000000000E+03 0. -1.
<mgrwt>
<rscale>  0 0.14341466E+04</rscale>
<asrwt>0</asrwt>
<pdfrwt beam="1">  1        1 0.25122919E+00 0.14341466E+04</pdfrwt>
<pdfrwt beam="2">  1       -1 0.41769661E-01 0.14341466E+04</pdfrwt>
<totfact> 0.29007715E+01</totfact>
</mgrwt>
</event>
<event>
 8    1  0.2402290E-028  0.1673385E+04  0.7818608E-02  0.8776691E-01
         -1   -1    0    0    0  501 -0.00000000000E+00  0.00000000000E+00  0.88255742704E+03  0.88255742706E+03  0.50400000000E-02 0. -1.
          1   -1    0    0  501    0  0.00000000000E+00 -0.00000000000E+00 -0.79321092597E+03  0.79321092598E+03  0.50400000000E-02 0.  1.
     200001    2    1    2    0    0 -0.29903013291E+03  0.28767271973E+03  0.23445411898E+03  0.84919056793E+03  0.70283801313E+03 0.  0.
    5000001    2    3    3    0    0 -0.35747580946E+02  0.81460146280E+02  0.18732041362E+03  0.24581430572E+03  0.13199276709E+03 0.  0.
        -13    1    4    4    0    0 -0.69571089510E+02  0.68652959002E+02  0.16929742979E+03  0.19548656264E+03  0.10566000000E+00 0. -1.
     200003    1    4    4    0    0  0.33823508564E+02  0.12807187278E+02  0.18022983826E+02  0.50327743080E+02  0.30000000000E+02 0. -1.
     200000    1    3    3    0    0 -0.26328255196E+03  0.20621257345E+03  0.47133705357E+02  0.60337626221E+03  0.50000000000E+03 0. -1.
    -200001    1    1    2    0    0  0.29903013291E+03 -0.28767271973E+03 -0.14510761790E+03  0.82657778511E+03  0.70000000000E+03 0. -1.
<mgrwt>
<rscale>  0 0.16733848E+04</rscale>
<asrwt>0</asrwt>
<pdfrwt beam="1">  1        1 0.11331585E+00 0.16733848E+04</pdfrwt>
<pdfrwt beam="2">  1       -1 0.12607963E+00 0.16733848E+04</pdfrwt>
<totfact> 0.13207264E+01</totfact>
</mgrwt>
</event>
<event>
 8    1  0.2402290E-028  0.1642325E+04  0.7818608E-02  0.8794960E-01
         -1   -1    0    0    0  501 -0.00000000000E+00  0.00000000000E+00  0.16804200654E+04  0.16804200654E+04  0.50400000000E-02 0.  1.
          1   -1    0    0  501    0  0.00000000000E+00 -0.00000000000E+00 -0.40127338167E+03  0.40127338171E+03  0.50400000000E-02 0. -1.
     200001    2    1    2    0    0 -0.30650410178E+03  0.26863892258E+03  0.80663985015E+03  0.11439438308E+04  0.70130450233E+03 0.  0.
    5000001    2    3    3    0    0 -0.78593812960E+02  0.19219653740E+02  0.22785049853E+03  0.30779182009E+03  0.19045622150E+03 0.  0.
        -13    1    4    4    0    0  0.29207536905E+02 -0.23857138413E+02  0.17097208631E+03  0.17508200572E+03  0.10566000000E+00 0. -1.
     200003    1    4    4    0    0 -0.10780134986E+03  0.43076792153E+02  0.56878412225E+02  0.13270981438E+03  0.30000000000E+02 0. -1.
     200000    1    3    3    0    0 -0.22791028882E+03  0.24941926884E+03  0.57878935162E+03  0.83615201068E+03  0.50000000000E+03 0.  1.
    -200001    1    1    2    0    0  0.30650410178E+03 -0.26863892258E+03  0.47250683354E+03  0.93774961630E+03  0.70000000000E+03 0. -1.
<mgrwt>
<rscale>  0 0.16423250E+04</rscale>
<asrwt>0</asrwt>
<pdfrwt beam="1">  1        1 0.57324769E-01 0.16423250E+04</pdfrwt>
<pdfrwt beam="2">  1       -1 0.24006001E+00 0.16423250E+04</pdfrwt>
<totfact> 0.51194779E+00</totfact>
</mgrwt>
</event>
<event>
 8    1  0.2402290E-028  0.1468174E+04  0.7818608E-02  0.8905897E-01
         -1   -1    0    0    0  501 -0.00000000000E+00  0.00000000000E+00  0.23752511423E+03  0.23752511428E+03  0.50400000000E-02 0. -1.
          1   -1    0    0  501    0  0.00000000000E+00 -0.00000000000E+00 -0.22687441375E+04  0.22687441375E+04  0.50400000000E-02 0.  1.
     200001    2    1    2    0    0 -0.15065778185E+03  0.82573560493E+02 -0.12582419443E+04  0.14493824439E+04  0.69858465350E+03 0.  0.
    5000001    2    3    3    0    0 -0.32134419975E+02  0.11421060568E+03 -0.11613536556E+03  0.19660308296E+03  0.10530273358E+03 0.  0.
        -13    1    4    4    0    0 -0.98599591032E+01  0.62303220293E+02  0.10646179283E+01  0.63087674135E+02  0.10566000000E+00 0. -1.
     200003    1    4    4    0    0 -0.22274460871E+02  0.51907385384E+02 -0.11719998349E+03  0.13351540882E+03  0.30000000000E+02 0. -1.
     200000    1    3    3    0    0 -0.11852336187E+03 -0.31637045183E+02 -0.11421065788E+04  0.12527793609E+04  0.50000000000E+03 0.  1.
    -200001    1    1    2    0    0  0.15065778185E+03 -0.82573560493E+02 -0.77297707898E+03  0.10568868079E+04  0.70000000000E+03 0. -1.
<mgrwt>
<rscale>  0 0.14681740E+04</rscale>
<asrwt>0</asrwt>
<pdfrwt beam="1">  1        1 0.32410629E+00 0.14681740E+04</pdfrwt>
<pdfrwt beam="2">  1       -1 0.33932161E-01 0.14681740E+04</pdfrwt>
<totfact> 0.20105961E+01</totfact>
</mgrwt>
</event>
<event>
 8    1  0.2402290E-028  0.1587336E+04  0.7818608E-02  0.8828366E-01
          1   -1    0    0  501    0  0.00000000000E+00  0.00000000000E+00  0.29437004889E+03  0.29437004893E+03  0.50400000000E-02 0.  1.
         -1   -1    0    0    0  501 -0.00000000000E+00 -0.00000000000E+00 -0.21398537650E+04  0.21398537650E+04  0.50400000000E-02 0. -1.
     200001    2    1    2    0    0 -0.13274942420E+03  0.34331705639E+02 -0.14570505346E+04  0.16220160744E+04  0.69938459343E+03 0.  0.
    5000001    2    3    3    0    0 -0.93789185128E+02  0.21746250632E+02 -0.54392223350E+03  0.58015255732E+03  0.17735919206E+03 0.  0.
        -13    1    4    4    0    0 -0.42309286903E+01  0.65983510241E+02 -0.75946226350E+02  0.10069540626E+03  0.10566000000E+00 0. -1.
     200003    1    4    4    0    0 -0.89558256438E+02 -0.44237259609E+02 -0.46797600715E+03  0.47945715106E+03  0.30000000000E+02 0. -1.
     200000    1    3    3    0    0 -0.38960239067E+02  0.12585455007E+02 -0.91312830114E+03  0.10418635171E+04  0.50000000000E+03 0. -1.
    -200001    1    1    2    0    0  0.13274942420E+03 -0.34331705639E+02 -0.38843318142E+03  0.81220773948E+03  0.70000000000E+03 0.  1.
<mgrwt>
<rscale>  0 0.15873360E+04</rscale>
<asrwt>0</asrwt>
<pdfrwt beam="1">  1        1 0.42052865E-01 0.15873360E+04</pdfrwt>
<pdfrwt beam="2">  1       -1 0.30569339E+00 0.15873360E+04</pdfrwt>
<totfact> 0.28960333E+00</totfact>
</mgrwt>
</event>
<event>
 8    1  0.2402290E-028  0.1747545E+04  0.7818608E-02  0.8734703E-01
          1   -1    0    0  501    0  0.00000000000E+00  0.00000000000E+00  0.12580989924E+04  0.12580989924E+04  0.50400000000E-02 0. -1.
         -1   -1    0    0    0  501 -0.00000000000E+00 -0.00000000000E+00 -0.60685076882E+03  0.60685076884E+03  0.50400000000E-02 0.  1.
     200001    2    1    2    0    0  0.30797571162E+03 -0.36134544062E+03  0.55959972953E+03  0.10141742251E+04  0.69998423925E+03 0.  0.
    5000001    2    3    3    0    0  0.11396699658E+03 -0.17067178910E+03  0.18747738912E+03  0.33412212481E+03  0.18539818488E+03 0.  0.
        -13    1    4    4    0    0  0.10496062411E+03 -0.16008094594E+03  0.57305281924E+02  0.19981628654E+03  0.10566000000E+00 0. -1.
     200003    1    4    4    0    0  0.90063724628E+01 -0.10590843169E+02  0.13017210719E+03  0.13430583828E+03  0.30000000000E+02 0. -1.
     200000    1    3    3    0    0  0.19400871504E+03 -0.19067365152E+03  0.37212234041E+03  0.68005210030E+03  0.50000000000E+03 0.  1.
    -200001    1    1    2    0    0 -0.30797571162E+03  0.36134544062E+03  0.91648494043E+02  0.85077553612E+03  0.70000000000E+03 0. -1.
<mgrwt>
<rscale>  0 0.17475450E+04</rscale>
<asrwt>0</asrwt>
<pdfrwt beam="1">  1        1 0.17972843E+00 0.17475450E+04</pdfrwt>
<pdfrwt beam="2">  1       -1 0.86692966E-01 0.17475450E+04</pdfrwt>
<totfact> 0.14066495E+01</totfact>
</mgrwt>
</event>
<event>
 8    1  0.2402290E-028  0.1568362E+04  0.7818608E-02  0.8840223E-01
         -1   -1    0    0    0  501 -0.00000000000E+00  0.00000000000E+00  0.61953902528E+03  0.61953902530E+03  0.50400000000E-02 0. -1.
          1   -1    0    0  501    0  0.00000000000E+00 -0.00000000000E+00 -0.99257683067E+03  0.99257683068E+03  0.50400000000E-02 0.  1.
     200001    2    1    2    0    0 -0.19502879224E+03 -0.83876388456E+02  0.10441300011E+03  0.73859954244E+03  0.69968259315E+03 0.  0.
    5000001    2    3    3    0    0 -0.92141506623E+02  0.29363850217E+02  0.65666801680E+02  0.21428054308E+03  0.17958766482E+03 0.  0.
        -13    1    4    4    0    0 -0.10219826717E+03  0.51665614008E+02  0.10765331450E+03  0.15717209922E+03  0.10566000000E+00 0. -1.
     200003    1    4    4    0    0  0.10056760552E+02 -0.22301763791E+02 -0.41986512825E+02  0.57108443861E+02  0.30000000000E+02 0. -1.
     200000    1    3    3    0    0 -0.10288728562E+03 -0.11324023867E+03  0.38746198430E+02  0.52431899936E+03  0.50000000000E+03 0. -1.
    -200001    1    1    2    0    0  0.19502879224E+03  0.83876388456E+02 -0.47745080550E+03  0.87351631354E+03  0.70000000000E+03 0.  1.
<mgrwt>
<rscale>  0 0.15683623E+04</rscale>
<asrwt>0</asrwt>
<pdfrwt beam="1">  1        1 0.14179669E+00 0.15683623E+04</pdfrwt>
<pdfrwt beam="2">  1       -1 0.88505576E-01 0.15683623E+04</pdfrwt>
<totfact> 0.21129130E+01</totfact>
</mgrwt>
</event>
<event>
 8    1  0.2402290E-028  0.1731514E+04  0.7818608E-02  0.8743592E-01
          1   -1    0    0  501    0  0.00000000000E+00  0.00000000000E+00  0.20768784053E+04  0.20768784053E+04  0.50400000000E-02 0.  1.
         -1   -1    0    0    0  501 -0.00000000000E+00 -0.00000000000E+00 -0.36089502845E+03  0.36089502848E+03  0.50400000000E-02 0. -1.
     200001    2    1    2    0    0 -0.36282625117E+03  0.26892255035E+03  0.11922012181E+04  0.14537460071E+04  0.69862112916E+03 0.  0.
    5000001    2    3    3    0    0 -0.82182885532E+02  0.14217334917E+03  0.44935406828E+03  0.50683104436E+03  0.16730612947E+03 0.  0.
        -13    1    4    4    0    0 -0.12626598990E+03  0.10507179518E+03  0.26962471743E+03  0.31572247585E+03  0.10566000000E+00 0. -1.
     200003    1    4    4    0    0  0.44083104365E+02  0.37101553988E+02  0.17972935085E+03  0.19110856851E+03  0.30000000000E+02 0. -1.
     200000    1    3    3    0    0 -0.28064336564E+03  0.12674920117E+03  0.74284714986E+03  0.94691496278E+03  0.50000000000E+03 0. -1.
    -200001    1    1    2    0    0  0.36282625117E+03 -0.26892255035E+03  0.52378215872E+03  0.98402742666E+03  0.70000000000E+03 0. -1.
<mgrwt>
<rscale>  0 0.17315139E+04</rscale>
<asrwt>0</asrwt>
<pdfrwt beam="1">  1        1 0.29669693E+00 0.17315139E+04</pdfrwt>
<pdfrwt beam="2">  1       -1 0.51556431E-01 0.17315139E+04</pdfrwt>
<totfact> 0.12002775E+01</totfact>
</mgrwt>
</event>
<event>
 8    1  0.2402290E-028  0.2494997E+04  0.7818608E-02  0.8404770E-01
         -1   -1    0    0    0  501 -0.00000000000E+00  0.00000000000E+00  0.16024610871E+04  0.16024610871E+04  0.50400000000E-02 0. -1.
          1   -1    0    0  501    0  0.00000000000E+00 -0.00000000000E+00 -0.97116381970E+03  0.97116381971E+03  0.50400000000E-02 0.  1.
     200001    2    1    2    0    0  0.91072701104E+03  0.27913421767E+03 -0.95950011649E+02  0.11857386705E+04  0.69959287435E+03 0.  0.
    5000001    2    3    3    0    0  0.20922030080E+03  0.47179682046E+02 -0.22183264717E+02  0.29055371526E+03  0.19475704751E+03 0.  0.
        -13    1    4    4    0    0  0.85352767780E+02 -0.53338070823E+02  0.50615462807E+02  0.11265869255E+03  0.10566000000E+00 0. -1.
     200003    1    4    4    0    0  0.12386753302E+03  0.10051775287E+03 -0.72798727524E+02  0.17789502271E+03  0.30000000000E+02 0. -1.
     200000    1    3    3    0    0  0.70150671025E+03  0.23195453562E+03 -0.73766746932E+02  0.89518495523E+03  0.50000000000E+03 0.  1.
    -200001    1    1    2    0    0 -0.91072701104E+03 -0.27913421767E+03  0.72724727905E+03  0.13878862363E+04  0.70000000000E+03 0. -1.
<mgrwt>
<rscale>  0 0.24949968E+04</rscale>
<asrwt>0</asrwt>
<pdfrwt beam="1">  1        1 0.13873769E+00 0.24949968E+04</pdfrwt>
<pdfrwt beam="2">  1       -1 0.22892301E+00 0.24949968E+04</pdfrwt>
<totfact> 0.15560546E+00</totfact>
</mgrwt>
</event>
<event>
 8    1  0.2402290E-028  0.1451480E+04  0.7818608E-02  0.8917375E-01
         -1   -1    0    0    0  501 -0.00000000000E+00  0.00000000000E+00  0.36442169172E+03  0.36442169176E+03  0.50400000000E-02 0. -1.
          1   -1    0    0  501    0  0.00000000000E+00 -0.00000000000E+00 -0.14453000650E+04  0.14453000650E+04  0.50400000000E-02 0.  1.
     200001    2    1    2    0    0  0.16498899100E+03 -0.83177683567E+02 -0.60231693321E+03  0.94187329875E+03  0.70014264880E+03 0.  0.
    5000001    2    3    3    0    0  0.12186160912E+03 -0.82158132667E+01 -0.26937565187E+03  0.33497203010E+03  0.15724270337E+03 0.  0.
        -13    1    4    4    0    0  0.11170621592E+03 -0.42878189515E+02 -0.26121430950E+03  0.28731471327E+03  0.10566000000E+00 0. -1.
     200003    1    4    4    0    0  0.10155393201E+02  0.34662376248E+02 -0.81613423729E+01  0.47657316831E+02  0.30000000000E+02 0. -1.
     200000    1    3    3    0    0  0.43127381881E+02 -0.74961870300E+02 -0.33294128134E+03  0.60690126865E+03  0.50000000000E+03 0. -1.
    -200001    1    1    2    0    0 -0.16498899100E+03  0.83177683567E+02 -0.47856144010E+03  0.86784845805E+03  0.70000000000E+03 0.  1.
<mgrwt>
<rscale>  0 0.14514802E+04</rscale>
<asrwt>0</asrwt>
<pdfrwt beam="1">  1        1 0.20647144E+00 0.14514802E+04</pdfrwt>
<pdfrwt beam="2">  1       -1 0.52060242E-01 0.14514802E+04</pdfrwt>
<totfact> 0.30507964E+01</totfact>
</mgrwt>
</event>
<event>
 8    1  0.2402290E-028  0.1466997E+04  0.7818608E-02  0.8906701E-01
         -1   -1    0    0    0  501 -0.00000000000E+00  0.00000000000E+00  0.31617757097E+03  0.31617757101E+03  0.50400000000E-02 0. -1.
          1   -1    0    0  501    0  0.00000000000E+00 -0.00000000000E+00 -0.17016384242E+04  0.17016384243E+04  0.50400000000E-02 0.  1.
     200001    2    1    2    0    0 -0.10689005603E+03 -0.96111695643E+02 -0.92001830797E+03  0.11649973128E+04  0.70008721586E+03 0.  0.
    5000001    2    3    3    0    0 -0.11242696728E+03  0.54446065404E+01 -0.28563706039E+03  0.35088189892E+03  0.16988263599E+03 0.  0.
        -13    1    4    4    0    0 -0.66630940057E+02 -0.77978259960E+01 -0.79678269800E+01  0.67557277135E+02  0.10566000000E+00 0. -1.
     200003    1    4    4    0    0 -0.45796027220E+02  0.13242432536E+02 -0.27766923341E+03  0.28332462178E+03  0.30000000000E+02 0. -1.
     200000    1    3    3    0    0  0.55369112464E+01 -0.10155630218E+03 -0.63438124758E+03  0.81411541392E+03  0.50000000000E+03 0.  1.
    -200001    1    1    2    0    0  0.10689005603E+03  0.96111695643E+02 -0.46544254531E+03  0.85281868243E+03  0.70000000000E+03 0. -1.
<mgrwt>
<rscale>  0 0.14669968E+04</rscale>
<asrwt>0</asrwt>
<pdfrwt beam="1">  1        1 0.24309120E+00 0.14669968E+04</pdfrwt>
<pdfrwt beam="2">  1       -1 0.45168225E-01 0.14669968E+04</pdfrwt>
<totfact> 0.27204573E+01</totfact>
</mgrwt>
</event>
<event>
 8    1  0.2402290E-028  0.1746014E+04  0.7818608E-02  0.8735548E-01
         -1   -1    0    0    0  501 -0.00000000000E+00  0.00000000000E+00  0.55914011465E+03  0.55914011468E+03  0.50400000000E-02 0. -1.
          1   -1    0    0  501    0  0.00000000000E+00 -0.00000000000E+00 -0.13630588942E+04  0.13630588942E+04  0.50400000000E-02 0.  1.
     200001    2    1    2    0    0  0.38082285726E+03  0.70714306177E+02 -0.78706065264E+03  0.11220048086E+04  0.69957398312E+03 0.  0.
    5000001    2    3    3    0    0  0.21035071322E+03  0.69620912528E+02 -0.29479226985E+03  0.39993133027E+03  0.15475171261E+03 0.  0.
        -13    1    4    4    0    0  0.11045048258E+03  0.58664574748E+02 -0.51979463303E+02  0.13543528787E+03  0.10566000000E+00 0. -1.
     200003    1    4    4    0    0  0.99900230645E+02  0.10956337780E+02 -0.24281280655E+03  0.26449604240E+03  0.30000000000E+02 0. -1.
     200000    1    3    3    0    0  0.17047214403E+03  0.10933936494E+01 -0.49226838279E+03  0.72207347832E+03  0.50000000000E+03 0.  1.
    -200001    1    1    2    0    0 -0.38082285726E+03 -0.70714306177E+02 -0.16858126889E+02  0.80019420027E+03  0.70000000000E+03 0. -1.
<mgrwt>
<rscale>  0 0.17460136E+04</rscale>
<asrwt>0</asrwt>
<pdfrwt beam="1">  1        1 0.19472270E+00 0.17460136E+04</pdfrwt>
<pdfrwt beam="2">  1       -1 0.79877160E-01 0.17460136E+04</pdfrwt>
<totfact> 0.14250330E+01</totfact>
</mgrwt>
</event>
<event>
 8    1  0.2402290E-028  0.1648813E+04  0.7818608E-02  0.8791109E-01
          1   -1    0    0  501    0  0.00000000000E+00  0.00000000000E+00  0.10268724107E+04  0.10268724107E+04  0.50400000000E-02 0.  1.
         -1   -1    0    0    0  501 -0.00000000000E+00 -0.00000000000E+00 -0.66186067563E+03  0.66186067565E+03  0.50400000000E-02 0. -1.
     200001    2    1    2    0    0  0.31158597237E+03  0.25349900078E+03  0.35490023662E+03  0.88160868210E+03  0.69995151892E+03 0.  0.
    5000001    2    3    3    0    0  0.11299195568E+03  0.44144732961E+02  0.14209755077E+03  0.26634144259E+03  0.18981599145E+03 0.  0.
        -13    1    4    4    0    0 -0.19518843997E+02  0.81772579738E+02  0.58814902757E+02  0.10260089677E+03  0.10566000000E+00 0. -1.
     200003    1    4    4    0    0  0.13251079968E+03 -0.37627846777E+02  0.83282648012E+02  0.16374054582E+03  0.30000000000E+02 0. -1.
     200000    1    3    3    0    0  0.19859401669E+03  0.20935426781E+03  0.21280268585E+03  0.61526723952E+03  0.50000000000E+03 0. -1.
    -200001    1    1    2    0    0 -0.31158597237E+03 -0.25349900078E+03  0.10111498464E+02  0.80712440427E+03  0.70000000000E+03 0. -1.
<mgrwt>
<rscale>  0 0.16488135E+04</rscale>
<asrwt>0</asrwt>
<pdfrwt beam="1">  1        1 0.14669606E+00 0.16488135E+04</pdfrwt>
<pdfrwt beam="2">  1       -1 0.94551525E-01 0.16488135E+04</pdfrwt>
<totfact> 0.17089237E+01</totfact>
</mgrwt>
</event>
<event>
 8    1  0.2402290E-028  0.1700713E+04  0.7818608E-02  0.8760958E-01
         -1   -1    0    0    0  501 -0.00000000000E+00  0.00000000000E+00  0.48810462529E+03  0.48810462531E+03  0.50400000000E-02 0. -1.
          1   -1    0    0  501    0  0.00000000000E+00 -0.00000000000E+00 -0.14814569907E+04  0.14814569907E+04  0.50400000000E-02 0.  1.
     200001    2    1    2    0    0 -0.11808651962E+03  0.17122992770E+03 -0.99642693116E+03  0.12393057929E+04  0.70692864194E+03 0.  0.
    5000001    2    3    3    0    0 -0.38511657928E+02  0.67358423133E+02 -0.30012908475E+03  0.37215405354E+03  0.20591470829E+03 0.  0.
        -13    1    4    4    0    0 -0.35706989937E+01  0.32215595377E+02 -0.31144671307E+03  0.31312882449E+03  0.10566000000E+00 0. -1.
     200003    1    4    4    0    0 -0.34940958935E+02  0.35142827756E+02  0.11317628322E+02  0.59025229053E+02  0.30000000000E+02 0. -1.
     200000    1    3    3    0    0 -0.79574861696E+02  0.10387150457E+03 -0.69629784641E+03  0.86715173931E+03  0.50000000000E+03 0.  1.
    -200001    1    1    2    0    0  0.11808651962E+03 -0.17122992770E+03  0.30745657901E+01  0.73025582313E+03  0.70000000000E+03 0. -1.
<mgrwt>
<rscale>  0 0.17007128E+04</rscale>
<asrwt>0</asrwt>
<pdfrwt beam="1">  1        1 0.21163671E+00 0.17007128E+04</pdfrwt>
<pdfrwt beam="2">  1       -1 0.69729233E-01 0.17007128E+04</pdfrwt>
<totfact> 0.15863488E+01</totfact>
</mgrwt>
</event>
<event>
 8    1  0.2402290E-028  0.2031358E+04  0.7818608E-02  0.8592098E-01
          1   -1    0    0  501    0  0.00000000000E+00  0.00000000000E+00  0.40761259497E+03  0.40761259500E+03  0.50400000000E-02 0.  1.
         -1   -1    0    0    0  501 -0.00000000000E+00 -0.00000000000E+00 -0.25308444572E+04  0.25308444572E+04  0.50400000000E-02 0. -1.
     200001    2    1    2    0    0 -0.51755688727E+03  0.24873891248E+02 -0.18175057529E+04  0.20154444326E+04  0.70014659678E+03 0.  0.
    5000001    2    3    3    0    0 -0.90328696413E+02  0.50686360444E+02 -0.58347652932E+03  0.61686717863E+03  0.17132388997E+03 0.  0.
        -13    1    4    4    0    0 -0.12828096588E+03  0.70630058093E+02 -0.39537990697E+03  0.42162767142E+03  0.10566000000E+00 0. -1.
     200003    1    4    4    0    0  0.37952269466E+02 -0.19943697649E+02 -0.18809662236E+03  0.19523950721E+03  0.30000000000E+02 0. -1.
     200000    1    3    3    0    0 -0.42722819086E+03 -0.25812469195E+02 -0.12340292236E+04  0.13985772539E+04  0.50000000000E+03 0. -1.
    -200001    1    1    2    0    0  0.51755688727E+03 -0.24873891248E+02 -0.30572610930E+03  0.92301261960E+03  0.70000000000E+03 0.  1.
<mgrwt>
<rscale>  0 0.20313582E+04</rscale>
<asrwt>0</asrwt>
<pdfrwt beam="1">  1        1 0.58230372E-01 0.20313582E+04</pdfrwt>
<pdfrwt beam="2">  1       -1 0.36154920E+00 0.20313582E+04</pdfrwt>
<totfact> 0.78152696E-01</totfact>
</mgrwt>
</event>
<event>
 8    1  0.2402290E-028  0.1415917E+04  0.7818608E-02  0.8942377E-01
          1   -1    0    0  501    0  0.00000000000E+00  0.00000000000E+00  0.35185154080E+03  0.35185154084E+03  0.50400000000E-02 0.  1.
         -1   -1    0    0    0  501 -0.00000000000E+00 -0.00000000000E+00 -0.14244792094E+04  0.14244792094E+04  0.50400000000E-02 0. -1.
     200001    2    1    2    0    0 -0.68543457128E+01 -0.51529382969E+02 -0.42092493333E+03  0.81851097882E+03  0.70005725736E+03 0.  0.
    5000001    2    3    3    0    0 -0.77846571344E+02  0.12637881331E+02 -0.13024194103E+03  0.23229093829E+03  0.17543178758E+03 0.  0.
        -13    1    4    4    0    0 -0.66491479058E+02 -0.70093391512E+02 -0.36674673037E+02  0.10334042349E+03  0.10566000000E+00 0. -1.
     200003    1    4    4    0    0 -0.11355092285E+02  0.82731272843E+02 -0.93567267992E+02  0.12895051480E+03  0.30000000000E+02 0. -1.
     200000    1    3    3    0    0  0.70992225631E+02 -0.64167264300E+02 -0.29068299230E+03  0.58622004053E+03  0.50000000000E+03 0.  1.
    -200001    1    1    2    0    0  0.68543457128E+01  0.51529382969E+02 -0.65170273525E+03  0.95781977141E+03  0.70000000000E+03 0. -1.
<mgrwt>
<rscale>  0 0.14159170E+04</rscale>
<asrwt>0</asrwt>
<pdfrwt beam="1">  1        1 0.50264506E-01 0.14159170E+04</pdfrwt>
<pdfrwt beam="2">  1       -1 0.20349703E+00 0.14159170E+04</pdfrwt>
<totfact> 0.10888518E+01</totfact>
</mgrwt>
</event>
<event>
 8    1  0.2402290E-028  0.1571430E+04  0.7818608E-02  0.8838294E-01
         -1   -1    0    0    0  501 -0.00000000000E+00  0.00000000000E+00  0.15347753760E+04  0.15347753760E+04  0.50400000000E-02 0.  1.
          1   -1    0    0  501    0  0.00000000000E+00 -0.00000000000E+00 -0.40224011297E+03  0.40224011301E+03  0.50400000000E-02 0. -1.
     200001    2    1    2    0    0 -0.11798918707E+03  0.24560627247E+03  0.28433045135E+03  0.80401271237E+03  0.70096272850E+03 0.  0.
    5000001    2    3    3    0    0  0.28810370165E+02  0.99185673568E+02  0.13035979403E+03  0.24125515791E+03  0.17476424133E+03 0.  0.
        -13    1    4    4    0    0  0.29470122366E+02  0.58003118637E+02 -0.30980184189E+02  0.72059925480E+02  0.10566000000E+00 0. -1.
     200003    1    4    4    0    0 -0.65975220096E+00  0.41182554931E+02  0.16133997822E+03  0.16919523243E+03  0.30000000000E+02 0. -1.
     200000    1    3    3    0    0 -0.14679955724E+03  0.14642059890E+03  0.15397065732E+03  0.56275755446E+03  0.50000000000E+03 0. -1.
    -200001    1    1    2    0    0  0.11798918707E+03 -0.24560627247E+03  0.84820481168E+03  0.11330027767E+04  0.70000000000E+03 0.  1.
<mgrwt>
<rscale>  0 0.15714302E+04</rscale>
<asrwt>0</asrwt>
<pdfrwt beam="1">  1        1 0.57462874E-01 0.15714302E+04</pdfrwt>
<pdfrwt beam="2">  1       -1 0.21925362E+00 0.15714302E+04</pdfrwt>
<totfact> 0.70518826E+00</totfact>
</mgrwt>
</event>
<event>
 8    1  0.2402290E-028  0.1428051E+04  0.7818608E-02  0.8933760E-01
         -1   -1    0    0    0  501 -0.00000000000E+00  0.00000000000E+00  0.90140745737E+03  0.90140745739E+03  0.50400000000E-02 0. -1.
          1   -1    0    0  501    0  0.00000000000E+00 -0.00000000000E+00 -0.56559613367E+03  0.56559613370E+03  0.50400000000E-02 0.  1.
     200001    2    1    2    0    0 -0.37425110318E+02  0.11212764767E+02  0.29724834120E+02  0.70200992831E+03  0.70029137415E+03 0.  0.
    5000001    2    3    3    0    0  0.70809770712E+02  0.60514703409E+01 -0.39337334441E+02  0.18576288323E+03  0.16706220094E+03 0.  0.
        -13    1    4    4    0    0  0.95246795477E+02 -0.23612329642E+02  0.28534355721E+02  0.10219449486E+03  0.10566000000E+00 0. -1.
     200003    1    4    4    0    0 -0.24437024765E+02  0.29663799983E+02 -0.67871690162E+02  0.83568388367E+02  0.30000000000E+02 0. -1.
     200000    1    3    3    0    0 -0.10823488103E+03  0.51612944265E+01  0.69062168561E+02  0.51624704508E+03  0.50000000000E+03 0. -1.
    -200001    1    1    2    0    0  0.37425110318E+02 -0.11212764767E+02  0.30608648958E+03  0.76499366277E+03  0.70000000000E+03 0. -1.
<mgrwt>
<rscale>  0 0.14280512E+04</rscale>
<asrwt>0</asrwt>
<pdfrwt beam="1">  1        1 0.80799449E-01 0.14280512E+04</pdfrwt>
<pdfrwt beam="2">  1       -1 0.12877249E+00 0.14280512E+04</pdfrwt>
<totfact> 0.20969729E+01</totfact>
</mgrwt>
</event>
<event>
 8    1  0.2402290E-028  0.1506955E+04  0.7818608E-02  0.8879841E-01
          1   -1    0    0  501    0  0.00000000000E+00  0.00000000000E+00  0.68418916961E+03  0.68418916963E+03  0.50400000000E-02 0.  1.
         -1   -1    0    0    0  501 -0.00000000000E+00 -0.00000000000E+00 -0.82978228285E+03  0.82978228287E+03  0.50400000000E-02 0. -1.
     200001    2    1    2    0    0 -0.20756151218E+03 -0.13670485405E+03 -0.19791784273E+03  0.76931859662E+03  0.70064943600E+03 0.  0.
    5000001    2    3    3    0    0 -0.71022687267E+02 -0.83389009613E+02 -0.53296414701E+02  0.22857763514E+03  0.19341478339E+03 0.  0.
        -13    1    4    4    0    0 -0.92348962006E+02  0.25868726981E+02  0.11061782016E+02  0.96539608475E+02  0.10566000000E+00 0. -1.
     200003    1    4    4    0    0  0.21326274738E+02 -0.10925773659E+03 -0.64358196717E+02  0.13203802666E+03  0.30000000000E+02 0. -1.
     200000    1    3    3    0    0 -0.13653882491E+03 -0.53315844435E+02 -0.14462142803E+03  0.54074096148E+03  0.50000000000E+03 0. -1.
    -200001    1    1    2    0    0  0.20756151218E+03  0.13670485405E+03  0.52324729497E+02  0.74465285588E+03  0.70000000000E+03 0. -1.
<mgrwt>
<rscale>  0 0.15069546E+04</rscale>
<asrwt>0</asrwt>
<pdfrwt beam="1">  1        1 0.97741311E-01 0.15069546E+04</pdfrwt>
<pdfrwt beam="2">  1       -1 0.11854032E+00 0.15069546E+04</pdfrwt>
<totfact> 0.19486212E+01</totfact>
</mgrwt>
</event>
<event>
 8    1  0.2402290E-028  0.1511563E+04  0.7818608E-02  0.8876800E-01
         -1   -1    0    0    0  501 -0.00000000000E+00  0.00000000000E+00  0.38085027368E+03  0.38085027371E+03  0.50400000000E-02 0.  1.
          1   -1    0    0  501    0  0.00000000000E+00 -0.00000000000E+00 -0.14998161620E+04  0.14998161620E+04  0.50400000000E-02 0. -1.
     200001    2    1    2    0    0 -0.17216933519E+03  0.20002011979E+03 -0.69484149246E+03  0.10207060695E+04  0.69956118558E+03 0.  0.
    5000001    2    3    3    0    0 -0.52476539697E+02  0.40828752124E+02 -0.17462573130E+02  0.15554108108E+03  0.13952531034E+03 0.  0.
        -13    1    4    4    0    0 -0.57336165339E+02  0.34186509686E+02 -0.68578251426E+02  0.95703401366E+02  0.10566000000E+00 0. -1.
     200003    1    4    4    0    0  0.48596256423E+01  0.66422424379E+01  0.51115678296E+02  0.59837679715E+02  0.30000000000E+02 0. -1.
     200000    1    3    3    0    0 -0.11969279550E+03  0.15919136767E+03 -0.67737891933E+03  0.86516498842E+03  0.50000000000E+03 0. -1.
    -200001    1    1    2    0    0  0.17216933519E+03 -0.20002011979E+03 -0.42412439585E+03  0.85996036621E+03  0.70000000000E+03 0.  1.
<mgrwt>
<rscale>  0 0.15115626E+04</rscale>
<asrwt>0</asrwt>
<pdfrwt beam="1">  1        1 0.21425945E+00 0.15115626E+04</pdfrwt>
<pdfrwt beam="2">  1       -1 0.54407183E-01 0.15115626E+04</pdfrwt>
<totfact> 0.25685319E+01</totfact>
</mgrwt>
</event>
<event>
 8    1  0.2402290E-028  0.1803291E+04  0.7818608E-02  0.8704552E-01
         -1   -1    0    0    0  501 -0.00000000000E+00  0.00000000000E+00  0.20548690018E+04  0.20548690018E+04  0.50400000000E-02 0. -1.
          1   -1    0    0  501    0  0.00000000000E+00 -0.00000000000E+00 -0.39562824862E+03  0.39562824866E+03  0.50400000000E-02 0.  1.
     200001    2    1    2    0    0 -0.76056133232E+02 -0.10016749912E+03  0.78823119315E+02  0.71742542255E+03  0.70190319097E+03 0.  0.
    5000001    2    3    3    0    0 -0.36141941018E+02  0.89110739129E+02 -0.21525711695E+02  0.17199964198E+03  0.14097360338E+03 0.  0.
        -13    1    4    4    0    0  0.93619960262E+01  0.34682580027E+02 -0.71614473633E+02  0.80119737423E+02  0.10566000000E+00 0. -1.
     200003    1    4    4    0    0 -0.45503937044E+02  0.54428159103E+02  0.50088761939E+02  0.91879904562E+02  0.30000000000E+02 0. -1.
     200000    1    3    3    0    0 -0.39914192214E+02 -0.18927823825E+03  0.10034883101E+03  0.54542578056E+03  0.50000000000E+03 0.  1.
    -200001    1    1    2    0    0  0.76056133232E+02  0.10016749912E+03  0.15804176338E+04  0.17330718279E+04  0.70000000000E+03 0. -1.
<mgrwt>
<rscale>  0 0.18032906E+04</rscale>
<asrwt>0</asrwt>
<pdfrwt beam="1">  1        1 0.56518322E-01 0.18032906E+04</pdfrwt>
<pdfrwt beam="2">  1       -1 0.29355271E+00 0.18032906E+04</pdfrwt>
<totfact> 0.23130719E+00</totfact>
</mgrwt>
</event>
<event>
 8    1  0.2402290E-028  0.2493897E+04  0.7818608E-02  0.8405163E-01
          1   -1    0    0  501    0  0.00000000000E+00  0.00000000000E+00  0.13412810016E+04  0.13412810016E+04  0.50400000000E-02 0. -1.
         -1   -1    0    0    0  501 -0.00000000000E+00 -0.00000000000E+00 -0.11592502173E+04  0.11592502173E+04  0.50400000000E-02 0.  1.
     200001    2    1    2    0    0  0.34081568219E+03 -0.21128712392E+03  0.10435331290E+04  0.13202838431E+04  0.70241758025E+03 0.  0.
    5000001    2    3    3    0    0  0.64672554766E+02 -0.10102174173E+02  0.41226523692E+03  0.44550983662E+03  0.15566565353E+03 0.  0.
        -13    1    4    4    0    0  0.81666428774E+02  0.14827584400E+02  0.98213825376E+02  0.12858938334E+03  0.10566000000E+00 0. -1.
     200003    1    4    4    0    0 -0.16993874008E+02 -0.24929758573E+02  0.31405141155E+03  0.31692045328E+03  0.30000000000E+02 0. -1.
     200000    1    3    3    0    0  0.27614312742E+03 -0.20118494975E+03  0.63126789211E+03  0.87477400649E+03  0.50000000000E+03 0. -1.
    -200001    1    1    2    0    0 -0.34081568219E+03  0.21128712392E+03 -0.86150234473E+03  0.11802473757E+04  0.70000000000E+03 0.  1.
<mgrwt>
<rscale>  0 0.24938968E+04</rscale>
<asrwt>0</asrwt>
<pdfrwt beam="1">  1        1 0.19161157E+00 0.24938968E+04</pdfrwt>
<pdfrwt beam="2">  1       -1 0.16560717E+00 0.24938968E+04</pdfrwt>
<totfact> 0.23489481E+00</totfact>
</mgrwt>
</event>
<event>
 8    1  0.2402290E-028  0.1809443E+04  0.7818608E-02  0.8701294E-01
         -1   -1    0    0    0  501 -0.00000000000E+00  0.00000000000E+00  0.87779901852E+03  0.87779901853E+03  0.50400000000E-02 0. -1.
          1   -1    0    0  501    0  0.00000000000E+00 -0.00000000000E+00 -0.93246947215E+03  0.93246947216E+03  0.50400000000E-02 0.  1.
     200001    2    1    2    0    0 -0.41397699646E+03 -0.36270719524E+03  0.13260638596E+03  0.90032009780E+03  0.70004168578E+03 0.  0.
    5000001    2    3    3    0    0 -0.67791922266E+02 -0.19695168993E+03 -0.43609784472E+02  0.24581942411E+03  0.12304333821E+03 0.  0.
        -13    1    4    4    0    0 -0.76195794042E+02 -0.11475550998E+03 -0.69356793535E+02  0.15422386998E+03  0.10566000000E+00 0. -1.
     200003    1    4    4    0    0  0.84038717757E+01 -0.82196179957E+02  0.25747009063E+02  0.91595554128E+02  0.30000000000E+02 0. -1.
     200000    1    3    3    0    0 -0.34618507419E+03 -0.16575550531E+03  0.17621617043E+03  0.65450067369E+03  0.50000000000E+03 0. -1.
    -200001    1    1    2    0    0  0.41397699646E+03  0.36270719524E+03 -0.18727683959E+03  0.90994839289E+03  0.70000000000E+03 0.  1.
<mgrwt>
<rscale>  0 0.18094428E+04</rscale>
<asrwt>0</asrwt>
<pdfrwt beam="1">  1        1 0.13320992E+00 0.18094428E+04</pdfrwt>
<pdfrwt beam="2">  1       -1 0.12539986E+00 0.18094428E+04</pdfrwt>
<totfact> 0.10207834E+01</totfact>
</mgrwt>
</event>
<event>
 8    1  0.2402290E-028  0.1716243E+04  0.7818608E-02  0.8752154E-01
         -1   -1    0    0    0  501 -0.00000000000E+00  0.00000000000E+00  0.32865707470E+03  0.32865707474E+03  0.50400000000E-02 0.  1.
          1   -1    0    0  501    0  0.00000000000E+00 -0.00000000000E+00 -0.22405499971E+04  0.22405499971E+04  0.50400000000E-02 0. -1.
     200001    2    1    2    0    0 -0.24625562675E+03  0.41833134516E+03 -0.80191591051E+03  0.11700316307E+04  0.70018707596E+03 0.  0.
    5000001    2    3    3    0    0  0.58634870474E+02  0.11276937696E+03 -0.27821262176E+03  0.32706575577E+03  0.11582212776E+03 0.  0.
        -13    1    4    4    0    0  0.70975007282E+01  0.26293771444E+02  0.24936619222E+01  0.27348975249E+02  0.10566000000E+00 0. -1.
     200003    1    4    4    0    0  0.51537369745E+02  0.86475605517E+02 -0.28070628368E+03  0.29971678052E+03  0.30000000000E+02 0. -1.
     200000    1    3    3    0    0 -0.30489049722E+03  0.30556196820E+03 -0.52370328875E+03  0.84296587496E+03  0.50000000000E+03 0.  1.
    -200001    1    1    2    0    0  0.24625562675E+03 -0.41833134516E+03 -0.11099770119E+04  0.13991754411E+04  0.70000000000E+03 0. -1.
<mgrwt>
<rscale>  0 0.17162431E+04</rscale>
<asrwt>0</asrwt>
<pdfrwt beam="1">  1        1 0.32007856E+00 0.17162431E+04</pdfrwt>
<pdfrwt beam="2">  1       -1 0.46951012E-01 0.17162431E+04</pdfrwt>
<totfact> 0.11321834E+01</totfact>
</mgrwt>
</event>
<event>
 8    1  0.2402290E-028  0.2393466E+04  0.7818608E-02  0.8441954E-01
         -1   -1    0    0    0  501 -0.00000000000E+00  0.00000000000E+00  0.68070103100E+03  0.68070103102E+03  0.50400000000E-02 0. -1.
          1   -1    0    0  501    0  0.00000000000E+00 -0.00000000000E+00 -0.21039628216E+04  0.21039628216E+04  0.50400000000E-02 0.  1.
     200001    2    1    2    0    0  0.74597925968E+03 -0.44221070869E+03 -0.12190430657E+04  0.16516410574E+04  0.69986914479E+03 0.  0.
    5000001    2    3    3    0    0  0.19305054151E+03 -0.78858179667E+02 -0.33213070737E+03  0.43740518287E+03  0.19371464360E+03 0.  0.
        -13    1    4    4    0    0 -0.29055759499E+02 -0.13949285088E+02 -0.11227815245E+03  0.11681273217E+03  0.10566000000E+00 0. -1.
     200003    1    4    4    0    0  0.22210630101E+03 -0.64908894579E+02 -0.21985255491E+03  0.32059245070E+03  0.30000000000E+02 0. -1.
     200000    1    3    3    0    0  0.55292871817E+03 -0.36335252902E+03 -0.88691235833E+03  0.12142358746E+04  0.50000000000E+03 0.  1.
    -200001    1    1    2    0    0 -0.74597925968E+03  0.44221070869E+03 -0.20421872486E+03  0.11330227952E+04  0.70000000000E+03 0. -1.
<mgrwt>
<rscale>  0 0.23934658E+04</rscale>
<asrwt>0</asrwt>
<pdfrwt beam="1">  1        1 0.30056611E+00 0.23934658E+04</pdfrwt>
<pdfrwt beam="2">  1       -1 0.97243005E-01 0.23934658E+04</pdfrwt>
<totfact> 0.29330444E+00</totfact>
</mgrwt>
</event>
<event>
 8    1  0.2402290E-028  0.1907920E+04  0.7818608E-02  0.8650924E-01
         -1   -1    0    0    0  501 -0.00000000000E+00  0.00000000000E+00  0.16520325148E+04  0.16520325148E+04  0.50400000000E-02 0. -1.
          1   -1    0    0  501    0  0.00000000000E+00 -0.00000000000E+00 -0.55086053536E+03  0.55086053539E+03  0.50400000000E-02 0.  1.
     200001    2    1    2    0    0 -0.29010850027E+03  0.50063481188E+03  0.21272051878E+03  0.93240331991E+03  0.69951967454E+03 0.  0.
    5000001    2    3    3    0    0 -0.99354510312E+02  0.15136355676E+03  0.12029854974E+03  0.28671042487E+03  0.18694619982E+03 0.  0.
        -13    1    4    4    0    0 -0.63373343181E+02  0.18891167846E+03  0.81833793973E+02  0.21540794758E+03  0.10566000000E+00 0. -1.
     200003    1    4    4    0    0 -0.35981167131E+02 -0.37548121698E+02  0.38464755768E+02  0.71302477288E+02  0.30000000000E+02 0. -1.
     200000    1    3    3    0    0 -0.19075398996E+03  0.34927125513E+03  0.92421969040E+02  0.64569289504E+03  0.50000000000E+03 0. -1.
    -200001    1    1    2    0    0  0.29010850027E+03 -0.50063481188E+03  0.88845146063E+03  0.12704897303E+04  0.70000000000E+03 0.  1.
<mgrwt>
<rscale>  0 0.19079198E+04</rscale>
<asrwt>0</asrwt>
<pdfrwt beam="1">  1        1 0.78694360E-01 0.19079198E+04</pdfrwt>
<pdfrwt beam="2">  1       -1 0.23600465E+00 0.19079198E+04</pdfrwt>
<totfact> 0.34710331E+00</totfact>
</mgrwt>
</event>
<event>
 8    1  0.2402290E-028  0.1801361E+04  0.7818608E-02  0.8705576E-01
         -1   -1    0    0    0  501 -0.00000000000E+00  0.00000000000E+00  0.10397880460E+04  0.10397880460E+04  0.50400000000E-02 0. -1.
          1   -1    0    0  501    0  0.00000000000E+00 -0.00000000000E+00 -0.78018305314E+03  0.78018305315E+03  0.50400000000E-02 0.  1.
     200001    2    1    2    0    0 -0.32828556629E+02 -0.52583053762E+03  0.33882047896E+03  0.94028333544E+03  0.70125456542E+03 0.  0.
    5000001    2    3    3    0    0  0.29456855963E+02 -0.17311572323E+03  0.45745328444E+02  0.25897558064E+03  0.18476730311E+03 0.  0.
        -13    1    4    4    0    0 -0.75160887215E+02 -0.64875100134E+02  0.17626406756E+01  0.99302848149E+02  0.10566000000E+00 0. -1.
     200003    1    4    4    0    0  0.10461774318E+03 -0.10824062310E+03  0.43982687768E+02  0.15967273249E+03  0.30000000000E+02 0. -1.
     200000    1    3    3    0    0 -0.62285412592E+02 -0.35271481439E+03  0.29307515052E+03  0.68130775481E+03  0.50000000000E+03 0. -1.
    -200001    1    1    2    0    0  0.32828556629E+02  0.52583053762E+03 -0.79215486085E+02  0.87968776373E+03  0.70000000000E+03 0. -1.
<mgrwt>
<rscale>  0 0.18013606E+04</rscale>
<asrwt>0</asrwt>
<pdfrwt beam="1">  1        1 0.11145472E+00 0.18013606E+04</pdfrwt>
<pdfrwt beam="2">  1       -1 0.14854115E+00 0.18013606E+04</pdfrwt>
<totfact> 0.87692530E+00</totfact>
</mgrwt>
</event>
<event>
 8    1  0.2402290E-028  0.1767386E+04  0.7818608E-02  0.8723838E-01
         -1   -1    0    0    0  501 -0.00000000000E+00  0.00000000000E+00  0.15065338030E+04  0.15065338030E+04  0.50400000000E-02 0.  1.
          1   -1    0    0  501    0  0.00000000000E+00 -0.00000000000E+00 -0.51835096881E+03  0.51835096883E+03  0.50400000000E-02 0. -1.
     200001    2    1    2    0    0  0.19231951118E+03 -0.12992743792E+03  0.10518165389E+04  0.12846704908E+04  0.70013734716E+03 0.  0.
    5000001    2    3    3    0    0 -0.60104815437E+02 -0.11539511232E+03  0.20542219611E+03  0.26962733276E+03  0.11649892330E+03 0.  0.
        -13    1    4    4    0    0 -0.14796976704E+02 -0.27589476976E+02 -0.81948218969E+01  0.32361953423E+02  0.10566000000E+00 0. -1.
     200003    1    4    4    0    0 -0.45307838733E+02 -0.87805635342E+02  0.21361701801E+03  0.23726537934E+03  0.30000000000E+02 0. -1.
     200000    1    3    3    0    0  0.25242432662E+03 -0.14532325604E+02  0.84639434276E+03  0.10150431580E+04  0.50000000000E+03 0.  1.
    -200001    1    1    2    0    0 -0.19231951118E+03  0.12992743792E+03 -0.63633704705E+02  0.74021428106E+03  0.70000000000E+03 0. -1.
<mgrwt>
<rscale>  0 0.17673859E+04</rscale>
<asrwt>0</asrwt>
<pdfrwt beam="1">  1        1 0.74050138E-01 0.17673859E+04</pdfrwt>
<pdfrwt beam="2">  1       -1 0.21521912E+00 0.17673859E+04</pdfrwt>
<totfact> 0.52535586E+00</totfact>
</mgrwt>
</event>
<event>
 8    1  0.2402290E-028  0.1521657E+04  0.7818608E-02  0.8870178E-01
          1   -1    0    0  501    0  0.00000000000E+00  0.00000000000E+00  0.40205811421E+03  0.40205811424E+03  0.50400000000E-02 0.  1.
         -1   -1    0    0    0  501 -0.00000000000E+00 -0.00000000000E+00 -0.14397416396E+04  0.14397416396E+04  0.50400000000E-02 0. -1.
     200001    2    1    2    0    0  0.26444847323E+03  0.72571271383E+02 -0.65651509820E+03  0.99889468545E+03  0.70112690295E+03 0.  0.
    5000001    2    3    3    0    0  0.14383581403E+03  0.11195906645E+02 -0.10673828572E+03  0.24353457762E+03  0.16462666594E+03 0.  0.
        -13    1    4    4    0    0  0.13637364778E+02 -0.40084812458E+02  0.24871702719E+02  0.49105831304E+02  0.10566000000E+00 0. -1.
     200003    1    4    4    0    0  0.13019844925E+03  0.51280719103E+02 -0.13160998844E+03  0.19442874632E+03  0.30000000000E+02 0. -1.
     200000    1    3    3    0    0  0.12061265920E+03  0.61375364738E+02 -0.54977681248E+03  0.75536010783E+03  0.50000000000E+03 0. -1.
    -200001    1    1    2    0    0 -0.26444847323E+03 -0.72571271383E+02 -0.38116842718E+03  0.84290506838E+03  0.70000000000E+03 0.  1.
<mgrwt>
<rscale>  0 0.15216567E+04</rscale>
<asrwt>0</asrwt>
<pdfrwt beam="1">  1        1 0.57436874E-01 0.15216567E+04</pdfrwt>
<pdfrwt beam="2">  1       -1 0.20567737E+00 0.15216567E+04</pdfrwt>
<totfact> 0.87532137E+00</totfact>
</mgrwt>
</event>
<event>
 8    1  0.2402290E-028  0.1961012E+04  0.7818608E-02  0.8625069E-01
          1   -1    0    0  501    0  0.00000000000E+00  0.00000000000E+00  0.10173932530E+04  0.10173932530E+04  0.50400000000E-02 0.  1.
         -1   -1    0    0    0  501 -0.00000000000E+00 -0.00000000000E+00 -0.94495598521E+03  0.94495598522E+03  0.50400000000E-02 0. -1.
     200001    2    1    2    0    0 -0.21133954474E+03  0.16418878478E+02 -0.61891499159E+03  0.95591894790E+03  0.69698729214E+03 0.  0.
    5000001    2    3    3    0    0 -0.49735014965E+02  0.30309529658E+02 -0.15461967136E+03  0.25457800469E+03  0.19367622053E+03 0.  0.
        -13    1    4    4    0    0  0.30906560767E+02  0.75572193342E+02 -0.13127437625E+03  0.15459412967E+03  0.10566000000E+00 0. -1.
     200003    1    4    4    0    0 -0.80641575733E+02 -0.45262663685E+02 -0.23345295113E+02  0.99983875022E+02  0.30000000000E+02 0. -1.
     200000    1    3    3    0    0 -0.16160452978E+03 -0.13890651180E+02 -0.46429532023E+03  0.70134094321E+03  0.50000000000E+03 0. -1.
    -200001    1    1    2    0    0  0.21133954474E+03 -0.16418878478E+02  0.69135225941E+03  0.10064302903E+04  0.70000000000E+03 0.  1.
<mgrwt>
<rscale>  0 0.19610118E+04</rscale>
<asrwt>0</asrwt>
<pdfrwt beam="1">  1        1 0.14534189E+00 0.19610118E+04</pdfrwt>
<pdfrwt beam="2">  1       -1 0.13499371E+00 0.19610118E+04</pdfrwt>
<totfact> 0.72096409E+00</totfact>
</mgrwt>
</event>
<event>
 8    1  0.2402290E-028  0.1755200E+04  0.7818608E-02  0.8730493E-01
         -1   -1    0    0    0  501 -0.00000000000E+00  0.00000000000E+00  0.79192946187E+03  0.79192946188E+03  0.50400000000E-02 0. -1.
          1   -1    0    0  501    0  0.00000000000E+00 -0.00000000000E+00 -0.97253866176E+03  0.97253866177E+03  0.50400000000E-02 0.  1.
     200001    2    1    2    0    0 -0.36957510429E+03  0.25583646694E+03 -0.37170411204E+03  0.91091360227E+03  0.69968677875E+03 0.  0.
    5000001    2    3    3    0    0 -0.82891972613E+02  0.19019347085E+03 -0.78553458281E+02  0.26096473757E+03  0.13743112082E+03 0.  0.
        -13    1    4    4    0    0  0.12739877909E+02  0.97944597459E+02 -0.76164951572E+02  0.12472593825E+03  0.10566000000E+00 0. -1.
     200003    1    4    4    0    0 -0.95631850522E+02  0.92248873388E+02 -0.23885067091E+01  0.13623879932E+03  0.30000000000E+02 0. -1.
     200000    1    3    3    0    0 -0.28668313168E+03  0.65642996093E+02 -0.29315065375E+03  0.64994886470E+03  0.50000000000E+03 0.  1.
    -200001    1    1    2    0    0  0.36957510429E+03 -0.25583646694E+03  0.19109491215E+03  0.85355452138E+03  0.70000000000E+03 0. -1.
<mgrwt>
<rscale>  0 0.17552003E+04</rscale>
<asrwt>0</asrwt>
<pdfrwt beam="1">  1        1 0.13893409E+00 0.17552003E+04</pdfrwt>
<pdfrwt beam="2">  1       -1 0.11313278E+00 0.17552003E+04</pdfrwt>
<totfact> 0.12280155E+01</totfact>
</mgrwt>
</event>
<event>
 8    1  0.2402290E-028  0.1546094E+04  0.7818608E-02  0.8854366E-01
          1   -1    0    0  501    0  0.00000000000E+00  0.00000000000E+00  0.88203684150E+03  0.88203684151E+03  0.50400000000E-02 0.  1.
         -1   -1    0    0    0  501 -0.00000000000E+00 -0.00000000000E+00 -0.67752494593E+03  0.67752494595E+03  0.50400000000E-02 0. -1.
     200001    2    1    2    0    0 -0.22600186880E+03  0.38890502124E+02 -0.13659373633E+03  0.74780913550E+03  0.69854945313E+03 0.  0.
    5000001    2    3    3    0    0  0.30581567698E+02  0.11240566648E+02 -0.22066052671E+02  0.17359996704E+03  0.16908120905E+03 0.  0.
        -13    1    4    4    0    0 -0.45669136834E+02  0.10557035998E+02  0.47040143958E+02  0.66407133471E+02  0.10566000000E+00 0. -1.
     200003    1    4    4    0    0  0.76250704532E+02  0.68353065030E+00 -0.69106196629E+02  0.10719283357E+03  0.30000000000E+02 0. -1.
     200000    1    3    3    0    0 -0.25658343650E+03  0.27649935476E+02 -0.11452768366E+03  0.57420916846E+03  0.50000000000E+03 0. -1.
    -200001    1    1    2    0    0  0.22600186880E+03 -0.38890502124E+02  0.34110563190E+03  0.81175265196E+03  0.70000000000E+03 0. -1.
<mgrwt>
<rscale>  0 0.15460944E+04</rscale>
<asrwt>0</asrwt>
<pdfrwt beam="1">  1        1 0.12600526E+00 0.15460944E+04</pdfrwt>
<pdfrwt beam="2">  1       -1 0.96789278E-01 0.15460944E+04</pdfrwt>
<totfact> 0.21124534E+01</totfact>
</mgrwt>
</event>
<event>
 8    1  0.2402290E-028  0.1546336E+04  0.7818608E-02  0.8854212E-01
         -1   -1    0    0    0  501 -0.00000000000E+00  0.00000000000E+00  0.41568340287E+03  0.41568340290E+03  0.50400000000E-02 0. -1.
          1   -1    0    0  501    0  0.00000000000E+00 -0.00000000000E+00 -0.14380865269E+04  0.14380865269E+04  0.50400000000E-02 0.  1.
     200001    2    1    2    0    0 -0.25626910063E+03  0.13788132574E+03 -0.69389001283E+03  0.10275702105E+04  0.69980859937E+03 0.  0.
    5000001    2    3    3    0    0 -0.59232846932E+02  0.52528817346E+02 -0.19378561210E+03  0.28850813764E+03  0.19853532487E+03 0.  0.
        -13    1    4    4    0    0 -0.43968055398E+02 -0.72201727903E+02 -0.75282818977E+02  0.11319802739E+03  0.10566000000E+00 0. -1.
     200003    1    4    4    0    0 -0.15264791534E+02  0.12473054525E+03 -0.11850279313E+03  0.17531011025E+03  0.30000000000E+02 0. -1.
     200000    1    3    3    0    0 -0.19703625370E+03  0.85352508398E+02 -0.50010440073E+03  0.73906207289E+03  0.50000000000E+03 0.  1.
    -200001    1    1    2    0    0  0.25626910063E+03 -0.13788132574E+03 -0.32851311124E+03  0.82619971931E+03  0.70000000000E+03 0. -1.
<mgrwt>
<rscale>  0 0.15463359E+04</rscale>
<asrwt>0</asrwt>
<pdfrwt beam="1">  1        1 0.20544093E+00 0.15463359E+04</pdfrwt>
<pdfrwt beam="2">  1       -1 0.59383344E-01 0.15463359E+04</pdfrwt>
<totfact> 0.23697853E+01</totfact>
</mgrwt>
</event>
<event>
 8    1  0.2402290E-028  0.1669135E+04  0.7818608E-02  0.8779166E-01
         -1   -1    0    0    0  501 -0.00000000000E+00  0.00000000000E+00  0.57820630366E+03  0.57820630368E+03  0.50400000000E-02 0. -1.
          1   -1    0    0  501    0  0.00000000000E+00 -0.00000000000E+00 -0.12045917675E+04  0.12045917675E+04  0.50400000000E-02 0.  1.
     200001    2    1    2    0    0  0.31874013337E+03  0.41943341598E+02 -0.65459193202E+03  0.10119867315E+04  0.70162100220E+03 0.  0.
    5000001    2    3    3    0    0  0.78185161293E+02  0.33141033796E+02 -0.71425557669E+02  0.20698536790E+03  0.17472860289E+03 0.  0.
        -13    1    4    4    0    0  0.31027902891E+02 -0.48013459292E+02  0.30853402009E+02  0.64961270081E+02  0.10566000000E+00 0. -1.
     200003    1    4    4    0    0  0.47157258402E+02  0.81154493088E+02 -0.10227895968E+03  0.14202409782E+03  0.30000000000E+02 0. -1.
     200000    1    3    3    0    0  0.24055497208E+03  0.88023078016E+01 -0.58316637435E+03  0.80500136360E+03  0.50000000000E+03 0.  1.
    -200001    1    1    2    0    0 -0.31874013337E+03 -0.41943341598E+02  0.28206468200E+02  0.77081133968E+03  0.70000000000E+03 0. -1.
<mgrwt>
<rscale>  0 0.16691346E+04</rscale>
<asrwt>0</asrwt>
<pdfrwt beam="1">  1        1 0.17208454E+00 0.16691346E+04</pdfrwt>
<pdfrwt beam="2">  1       -1 0.82600901E-01 0.16691346E+04</pdfrwt>
<totfact> 0.17117014E+01</totfact>
</mgrwt>
</event>
<event>
 8    1  0.2402290E-028  0.2197097E+04  0.7818608E-02  0.8519637E-01
         -1   -1    0    0    0  501 -0.00000000000E+00  0.00000000000E+00  0.86435981889E+03  0.86435981891E+03  0.50400000000E-02 0. -1.
          1   -1    0    0  501    0  0.00000000000E+00 -0.00000000000E+00 -0.13961883305E+04  0.13961883305E+04  0.50400000000E-02 0.  1.
     200001    2    1    2    0    0 -0.77849244481E+03 -0.31085917233E+03 -0.14925923980E+03  0.11033778251E+04  0.70176947257E+03 0.  0.
    5000001    2    3    3    0    0 -0.22199913223E+03 -0.11927784539E+02  0.46662402244E+02  0.27426379714E+03  0.15367941920E+03 0.  0.
        -13    1    4    4    0    0 -0.93126952527E+01  0.46171945839E+02  0.98086067106E+00  0.47112080479E+02  0.10566000000E+00 0. -1.
     200003    1    4    4    0    0 -0.21268643697E+03 -0.58099730377E+02  0.45681541572E+02  0.22715171666E+03  0.30000000000E+02 0. -1.
     200000    1    3    3    0    0 -0.55649331259E+03 -0.29893138779E+03 -0.19592164204E+03  0.82911402797E+03  0.50000000000E+03 0.  1.
    -200001    1    1    2    0    0  0.77849244481E+03  0.31085917233E+03 -0.38256927177E+03  0.11571703243E+04  0.70000000000E+03 0. -1.
<mgrwt>
<rscale>  0 0.21970973E+04</rscale>
<asrwt>0</asrwt>
<pdfrwt beam="1">  1        1 0.19945548E+00 0.21970973E+04</pdfrwt>
<pdfrwt beam="2">  1       -1 0.12347997E+00 0.21970973E+04</pdfrwt>
<totfact> 0.48122093E+00</totfact>
</mgrwt>
</event>
<event>
 8    1  0.2402290E-028  0.1528360E+04  0.7818608E-02  0.8865810E-01
          1   -1    0    0  501    0  0.00000000000E+00  0.00000000000E+00  0.13343765580E+04  0.13343765580E+04  0.50400000000E-02 0.  1.
         -1   -1    0    0    0  501 -0.00000000000E+00 -0.00000000000E+00 -0.43763604705E+03  0.43763604708E+03  0.50400000000E-02 0. -1.
     200001    2    1    2    0    0 -0.13945448755E+03 -0.20556484388E+03  0.65792834274E+03  0.99179743553E+03  0.69934826074E+03 0.  0.
    5000001    2    3    3    0    0 -0.59571543980E+02  0.36518106084E+02  0.12512116360E+03  0.21793121358E+03  0.16418394363E+03 0.  0.
        -13    1    4    4    0    0 -0.25355393409E+02  0.93954827365E+02  0.38965344376E+02  0.10482707087E+03  0.10566000000E+00 0. -1.
     200003    1    4    4    0    0 -0.34216150571E+02 -0.57436721281E+02  0.86155819226E+02  0.11310414271E+03  0.30000000000E+02 0. -1.
     200000    1    3    3    0    0 -0.79882943567E+02 -0.24208294996E+03  0.53280717914E+03  0.77386622195E+03  0.50000000000E+03 0.  1.
    -200001    1    1    2    0    0  0.13945448755E+03  0.20556484388E+03  0.23881216821E+03  0.78021516957E+03  0.70000000000E+03 0. -1.
<mgrwt>
<rscale>  0 0.15283603E+04</rscale>
<asrwt>0</asrwt>
<pdfrwt beam="1">  1        1 0.19062522E+00 0.15283603E+04</pdfrwt>
<pdfrwt beam="2">  1       -1 0.62519436E-01 0.15283603E+04</pdfrwt>
<totfact> 0.25120222E+01</totfact>
</mgrwt>
</event>
<event>
 8    1  0.2402290E-028  0.1578748E+04  0.7818608E-02  0.8833711E-01
          1   -1    0    0  501    0  0.00000000000E+00  0.00000000000E+00  0.14153015862E+04  0.14153015862E+04  0.50400000000E-02 0.  1.
         -1   -1    0    0    0  501 -0.00000000000E+00 -0.00000000000E+00 -0.44026752805E+03  0.44026752808E+03  0.50400000000E-02 0. -1.
     200001    2    1    2    0    0 -0.33420179491E+03 -0.11466733759E+03  0.59391182963E+03  0.98373564904E+03  0.70011793848E+03 0.  0.
    5000001    2    3    3    0    0 -0.13551979705E+03 -0.57920748407E+02  0.32223612544E+03  0.37834123223E+03  0.13261047838E+03 0.  0.
        -13    1    4    4    0    0 -0.11201740415E+03 -0.51325833012E+02  0.31599031879E+03  0.33916387293E+03  0.10566000000E+00 0. -1.
     200003    1    4    4    0    0 -0.23502392901E+02 -0.65949153953E+01  0.62458066523E+01  0.39177359302E+02  0.30000000000E+02 0. -1.
     200000    1    3    3    0    0 -0.19868199786E+03 -0.56746589180E+02  0.27167570419E+03  0.60539441681E+03  0.50000000000E+03 0. -1.
    -200001    1    1    2    0    0  0.33420179491E+03  0.11466733759E+03  0.38112222849E+03  0.87183346522E+03  0.70000000000E+03 0. -1.
<mgrwt>
<rscale>  0 0.15787480E+04</rscale>
<asrwt>0</asrwt>
<pdfrwt beam="1">  1        1 0.20218594E+00 0.15787480E+04</pdfrwt>
<pdfrwt beam="2">  1       -1 0.62895360E-01 0.15787480E+04</pdfrwt>
<totfact> 0.21829720E+01</totfact>
</mgrwt>
</event>
<event>
 8    1  0.2402290E-028  0.1658279E+04  0.7818608E-02  0.8785524E-01
         -1   -1    0    0    0  501 -0.00000000000E+00  0.00000000000E+00  0.75111783687E+03  0.75111783688E+03  0.50400000000E-02 0.  1.
          1   -1    0    0  501    0  0.00000000000E+00 -0.00000000000E+00 -0.91526504494E+03  0.91526504496E+03  0.50400000000E-02 0. -1.
     200001    2    1    2    0    0 -0.10304853832E+03 -0.14938509857E+03  0.32570247631E+03  0.79294849838E+03  0.69982162662E+03 0.  0.
    5000001    2    3    3    0    0 -0.39229857503E+02  0.32727712157E+02  0.53435303938E+02  0.19181015074E+03  0.17699072675E+03 0.  0.
        -13    1    4    4    0    0 -0.59347237502E+02  0.89490039273E+02  0.24757467529E+01  0.10740904158E+03  0.10566000000E+00 0. -1.
     200003    1    4    4    0    0  0.20117379999E+02 -0.56762327116E+02  0.50959557185E+02  0.84401109152E+02  0.30000000000E+02 0. -1.
     200000    1    3    3    0    0 -0.63818680812E+02 -0.18211281072E+03  0.27226717237E+03  0.60113834764E+03  0.50000000000E+03 0.  1.
    -200001    1    1    2    0    0  0.10304853832E+03  0.14938509857E+03 -0.48984968439E+03  0.87343438346E+03  0.70000000000E+03 0. -1.
<mgrwt>
<rscale>  0 0.16582785E+04</rscale>
<asrwt>0</asrwt>
<pdfrwt beam="1">  1        1 0.13075215E+00 0.16582785E+04</pdfrwt>
<pdfrwt beam="2">  1       -1 0.10730255E+00 0.16582785E+04</pdfrwt>
<totfact> 0.15534154E+01</totfact>
</mgrwt>
</event>
<event>
 8    1  0.2402290E-028  0.1484510E+04  0.7818608E-02  0.8894819E-01
          1   -1    0    0  501    0  0.00000000000E+00  0.00000000000E+00  0.13598200502E+04  0.13598200502E+04  0.50400000000E-02 0.  1.
         -1   -1    0    0    0  501 -0.00000000000E+00 -0.00000000000E+00 -0.40515862819E+03  0.40515862822E+03  0.50400000000E-02 0. -1.
     200001    2    1    2    0    0 -0.21925214114E+03  0.48523708601E+02  0.59687624379E+03  0.94739914991E+03  0.70062675310E+03 0.  0.
    5000001    2    3    3    0    0 -0.67500035902E+02 -0.58586822901E+02  0.10214402244E+03  0.21989565284E+03  0.17300874589E+03 0.  0.
        -13    1    4    4    0    0  0.68358960036E+01 -0.10150751662E+03  0.69826303898E+02  0.12339460801E+03  0.10566000000E+00 0. -1.
     200003    1    4    4    0    0 -0.74335931905E+02  0.42920693723E+02  0.32317718539E+02  0.96501044831E+02  0.30000000000E+02 0. -1.
     200000    1    3    3    0    0 -0.15175210524E+03  0.10711053150E+03  0.49473222136E+03  0.72750349707E+03  0.50000000000E+03 0.  1.
    -200001    1    1    2    0    0  0.21925214114E+03 -0.48523708601E+02  0.35778517820E+03  0.81757952850E+03  0.70000000000E+03 0.  1.
<mgrwt>
<rscale>  0 0.14845105E+04</rscale>
<asrwt>0</asrwt>
<pdfrwt beam="1">  1        1 0.19426001E+00 0.14845105E+04</pdfrwt>
<pdfrwt beam="2">  1       -1 0.57879804E-01 0.14845105E+04</pdfrwt>
<totfact> 0.28234362E+01</totfact>
</mgrwt>
</event>
<event>
 8    1  0.2402290E-028  0.2036398E+04  0.7818608E-02  0.8589790E-01
         -1   -1    0    0    0  501 -0.00000000000E+00  0.00000000000E+00  0.40524164845E+03  0.40524164849E+03  0.50400000000E-02 0. -1.
          1   -1    0    0  501    0  0.00000000000E+00 -0.00000000000E+00 -0.25582981128E+04  0.25582981128E+04  0.50400000000E-02 0.  1.
     200001    2    1    2    0    0 -0.62567098138E+03 -0.12002005067E+03 -0.16228341926E+04  0.18786413112E+04  0.69988096852E+03 0.  0.
    5000001    2    3    3    0    0 -0.84595644708E+02 -0.77538293195E+01 -0.48335399098E+03  0.51710491645E+03  0.16294130556E+03 0.  0.
        -13    1    4    4    0    0 -0.69734247479E+02  0.57548492732E+02 -0.37832390205E+03  0.38897773756E+03  0.10566000000E+00 0. -1.
     200003    1    4    4    0    0 -0.14861397229E+02 -0.65302322051E+02 -0.10503008892E+03  0.12812717890E+03  0.30000000000E+02 0. -1.
     200000    1    3    3    0    0 -0.54107533667E+03 -0.11226622135E+03 -0.11394802016E+04  0.13615363948E+04  0.50000000000E+03 0.  1.
    -200001    1    1    2    0    0  0.62567098138E+03  0.12002005067E+03 -0.53022227176E+03  0.10848984501E+04  0.70000000000E+03 0. -1.
<mgrwt>
<rscale>  0 0.20363977E+04</rscale>
<asrwt>0</asrwt>
<pdfrwt beam="1">  1        1 0.36547115E+00 0.20363977E+04</pdfrwt>
<pdfrwt beam="2">  1       -1 0.57891665E-01 0.20363977E+04</pdfrwt>
<totfact> 0.46334267E+00</totfact>
</mgrwt>
</event>
<event>
 8    1  0.2402290E-028  0.1803791E+04  0.7818608E-02  0.8704286E-01
         -1   -1    0    0    0  501 -0.00000000000E+00  0.00000000000E+00  0.56025454254E+03  0.56025454257E+03  0.50400000000E-02 0. -1.
          1   -1    0    0  501    0  0.00000000000E+00 -0.00000000000E+00 -0.14518684660E+04  0.14518684661E+04  0.50400000000E-02 0.  1.
     200001    2    1    2    0    0  0.28164038075E+03  0.22353338550E+03 -0.93759446897E+03  0.12238320160E+04  0.69956624891E+03 0.  0.
    5000001    2    3    3    0    0  0.45341651239E+02  0.15255066731E+03 -0.36778112917E+03  0.42661004059E+03  0.14630651497E+03 0.  0.
        -13    1    4    4    0    0  0.64456875012E+02  0.33815212170E+02 -0.58391623014E+02  0.93315326248E+02  0.10566000000E+00 0. -1.
     200003    1    4    4    0    0 -0.19115223773E+02  0.11873545514E+03 -0.30938950616E+03  0.33329471434E+03  0.30000000000E+02 0. -1.
     200000    1    3    3    0    0  0.23629872951E+03  0.70982718193E+02 -0.56981333980E+03  0.79722197540E+03  0.50000000000E+03 0.  1.
    -200001    1    1    2    0    0 -0.28164038075E+03 -0.22353338550E+03  0.45980545465E+02  0.78829099263E+03  0.70000000000E+03 0. -1.
<mgrwt>
<rscale>  0 0.18037915E+04</rscale>
<asrwt>0</asrwt>
<pdfrwt beam="1">  1        1 0.20740978E+00 0.18037915E+04</pdfrwt>
<pdfrwt beam="2">  1       -1 0.80036364E-01 0.18037915E+04</pdfrwt>
<totfact> 0.12329969E+01</totfact>
</mgrwt>
</event>
<event>
 8    1  0.2402290E-028  0.1949109E+04  0.7818608E-02  0.8630791E-01
          1   -1    0    0  501    0  0.00000000000E+00  0.00000000000E+00  0.14613591217E+04  0.14613591217E+04  0.50400000000E-02 0.  1.
         -1   -1    0    0    0  501 -0.00000000000E+00 -0.00000000000E+00 -0.64991280375E+03  0.64991280377E+03  0.50400000000E-02 0. -1.
     200001    2    1    2    0    0 -0.58745602885E+03  0.16605877696E+03  0.85947279220E+02  0.93270119851E+03  0.69990319877E+03 0.  0.
    5000001    2    3    3    0    0 -0.14486314317E+03  0.90057951400E+02 -0.29525361703E+02  0.25079319976E+03  0.18146547111E+03 0.  0.
        -13    1    4    4    0    0 -0.38373266632E+02  0.75952212788E+02 -0.90051832125E+02  0.12389749736E+03  0.10566000000E+00 0. -1.
     200003    1    4    4    0    0 -0.10648987654E+03  0.14105738612E+02  0.60526470422E+02  0.12689570240E+03  0.30000000000E+02 0. -1.
     200000    1    3    3    0    0 -0.44259288569E+03  0.76000825561E+02  0.11547264092E+03  0.68190799874E+03  0.50000000000E+03 0. -1.
    -200001    1    1    2    0    0  0.58745602885E+03 -0.16605877696E+03  0.72549903870E+03  0.11785707269E+04  0.70000000000E+03 0.  1.
<mgrwt>
<rscale>  0 0.19491085E+04</rscale>
<asrwt>0</asrwt>
<pdfrwt beam="1">  1        1 0.20876559E+00 0.19491085E+04</pdfrwt>
<pdfrwt beam="2">  1       -1 0.92844686E-01 0.19491085E+04</pdfrwt>
<totfact> 0.86891432E+00</totfact>
</mgrwt>
</event>
<event>
 8    1  0.2402290E-028  0.2078625E+04  0.7818608E-02  0.8570718E-01
         -1   -1    0    0    0  501 -0.00000000000E+00  0.00000000000E+00  0.25337152355E+03  0.25337152360E+03  0.50400000000E-02 0.  1.
          1   -1    0    0  501    0  0.00000000000E+00 -0.00000000000E+00 -0.42631889590E+04  0.42631889590E+04  0.50400000000E-02 0. -1.
     200001    2    1    2    0    0 -0.39551671513E+03 -0.63395145302E+02 -0.34294589624E+04  0.35229466876E+04  0.69965146488E+03 0.  0.
    5000001    2    3    3    0    0 -0.83335391405E+02 -0.37384600759E+01 -0.32480142019E+03  0.36226407880E+03  0.13704209824E+03 0.  0.
        -13    1    4    4    0    0 -0.55243247245E+02 -0.33202692524E+02 -0.29827484340E+03  0.30515918555E+03  0.10566000000E+00 0. -1.
     200003    1    4    4    0    0 -0.28092144160E+02  0.29464232448E+02 -0.26526576790E+02  0.57104893253E+02  0.30000000000E+02 0. -1.
     200000    1    3    3    0    0 -0.31218132373E+03 -0.59656685226E+02 -0.31046575422E+04  0.31606826088E+04  0.50000000000E+03 0. -1.
    -200001    1    1    2    0    0  0.39551671513E+03  0.63395145302E+02 -0.58035847299E+03  0.99361379498E+03  0.70000000000E+03 0.  1.
<mgrwt>
<rscale>  0 0.20786252E+04</rscale>
<asrwt>0</asrwt>
<pdfrwt beam="1">  1        1 0.60902695E+00 0.20786252E+04</pdfrwt>
<pdfrwt beam="2">  1       -1 0.36195934E-01 0.20786252E+04</pdfrwt>
<totfact> 0.70867557E-01</totfact>
</mgrwt>
</event>
<event>
 8    1  0.2402290E-028  0.1556912E+04  0.7818608E-02  0.8847464E-01
          1   -1    0    0  501    0  0.00000000000E+00  0.00000000000E+00  0.97240462887E+03  0.97240462889E+03  0.50400000000E-02 0.  1.
         -1   -1    0    0    0  501 -0.00000000000E+00 -0.00000000000E+00 -0.62319130379E+03  0.62319130381E+03  0.50400000000E-02 0. -1.
     200001    2    1    2    0    0  0.30359459510E+03 -0.13928364409E+03  0.10729210265E+03  0.78313332461E+03  0.70015469514E+03 0.  0.
    5000001    2    3    3    0    0  0.10607029567E+03 -0.16906260083E+03 -0.85381170899E+01  0.23238903282E+03  0.11873791520E+03 0.  0.
        -13    1    4    4    0    0  0.89086867756E+02 -0.13578649368E+03 -0.49045917214E+02  0.16964655915E+03  0.10566000000E+00 0. -1.
     200003    1    4    4    0    0  0.16983427918E+02 -0.33276107149E+02  0.40507800124E+02  0.62742473666E+02  0.30000000000E+02 0. -1.
     200000    1    3    3    0    0  0.19752429943E+03  0.29778956743E+02  0.11583021974E+03  0.55074429179E+03  0.50000000000E+03 0.  1.
    -200001    1    1    2    0    0 -0.30359459510E+03  0.13928364409E+03  0.24192122243E+03  0.81246260809E+03  0.70000000000E+03 0.  1.
<mgrwt>
<rscale>  0 0.15569125E+04</rscale>
<asrwt>0</asrwt>
<pdfrwt beam="1">  1        1 0.13891495E+00 0.15569125E+04</pdfrwt>
<pdfrwt beam="2">  1       -1 0.89027330E-01 0.15569125E+04</pdfrwt>
<totfact> 0.21624396E+01</totfact>
</mgrwt>
</event>
<event>
 8    1  0.2402290E-028  0.3007068E+04  0.7818608E-02  0.8241715E-01
         -1   -1    0    0    0  501 -0.00000000000E+00  0.00000000000E+00  0.15113819157E+04  0.15113819157E+04  0.50400000000E-02 0. -1.
          1   -1    0    0  501    0  0.00000000000E+00 -0.00000000000E+00 -0.14957269659E+04  0.14957269659E+04  0.50400000000E-02 0.  1.
     200001    2    1    2    0    0  0.98341967587E+03  0.78642894198E+03  0.43800804262E+03  0.15057871723E+04  0.69997087318E+03 0.  0.
    5000001    2    3    3    0    0  0.31493539867E+03  0.23938617099E+03  0.14972101586E+03  0.46692412460E+03  0.19776681053E+03 0.  0.
        -13    1    4    4    0    0  0.32876921224E+03  0.18851825972E+03  0.11076802541E+03  0.39483907580E+03  0.10566000000E+00 0. -1.
     200003    1    4    4    0    0 -0.13833813572E+02  0.50867911268E+02  0.38952990448E+02  0.72085048793E+02  0.30000000000E+02 0. -1.
     200000    1    3    3    0    0  0.66848427720E+03  0.54704277100E+03  0.28828702676E+03  0.10388630477E+04  0.50000000000E+03 0. -1.
    -200001    1    1    2    0    0 -0.98341967587E+03 -0.78642894198E+03 -0.42235309289E+03  0.15013217093E+04  0.70000000000E+03 0.  1.
<mgrwt>
<rscale>  0 0.30070681E+04</rscale>
<asrwt>0</asrwt>
<pdfrwt beam="1">  1        1 0.21367528E+00 0.30070681E+04</pdfrwt>
<pdfrwt beam="2">  1       -1 0.21591170E+00 0.30070681E+04</pdfrwt>
<totfact> 0.78624905E-01</totfact>
</mgrwt>
</event>
<event>
 8    1  0.2402290E-028  0.1686593E+04  0.7818608E-02  0.8769048E-01
          1   -1    0    0  501    0  0.00000000000E+00  0.00000000000E+00  0.12176053341E+04  0.12176053341E+04  0.50400000000E-02 0.  1.
         -1   -1    0    0    0  501 -0.00000000000E+00 -0.00000000000E+00 -0.58405553214E+03  0.58405553217E+03  0.50400000000E-02 0. -1.
     200001    2    1    2    0    0  0.22629514294E+03 -0.19147782877E+03  0.70801511162E+03  0.10378426072E+04  0.69854035553E+03 0.  0.
    5000001    2    3    3    0    0  0.50937455197E+02 -0.57926432180E+02  0.34062270032E+03  0.37938723427E+03  0.14819161135E+03 0.  0.
        -13    1    4    4    0    0  0.83739839439E+02 -0.81048603609E+02  0.25020661823E+03  0.27601557896E+03  0.10566000000E+00 0. -1.
     200003    1    4    4    0    0 -0.32802384243E+02  0.23122171429E+02  0.90416082083E+02  0.10337165532E+03  0.30000000000E+02 0. -1.
     200000    1    3    3    0    0  0.17535768774E+03 -0.13355139659E+03  0.36739241131E+03  0.65845537288E+03  0.50000000000E+03 0.  1.
    -200001    1    1    2    0    0 -0.22629514294E+03  0.19147782877E+03 -0.74465309669E+02  0.76381825912E+03  0.70000000000E+03 0. -1.
<mgrwt>
<rscale>  0 0.16865932E+04</rscale>
<asrwt>0</asrwt>
<pdfrwt beam="1">  1        1 0.17394362E+00 0.16865932E+04</pdfrwt>
<pdfrwt beam="2">  1       -1 0.83436505E-01 0.16865932E+04</pdfrwt>
<totfact> 0.16381581E+01</totfact>
</mgrwt>
</event>
<event>
 8    1  0.2402290E-028  0.1653120E+04  0.7818608E-02  0.8788563E-01
          1   -1    0    0  501    0  0.00000000000E+00  0.00000000000E+00  0.28471588431E+03  0.28471588436E+03  0.50400000000E-02 0.  1.
         -1   -1    0    0    0  501 -0.00000000000E+00 -0.00000000000E+00 -0.23995896813E+04  0.23995896813E+04  0.50400000000E-02 0. -1.
     200001    2    1    2    0    0  0.40633485832E+03 -0.14079695398E+03 -0.12171702580E+04  0.14674228913E+04  0.69777840715E+03 0.  0.
    5000001    2    3    3    0    0  0.10447304086E+03  0.51569024182E+02 -0.26784653759E+03  0.33634342786E+03  0.16676676299E+03 0.  0.
        -13    1    4    4    0    0  0.76640782646E+02  0.39337455033E+02 -0.24902919963E+02  0.89673917723E+02  0.10566000000E+00 0. -1.
     200003    1    4    4    0    0  0.27832258214E+02  0.12231569148E+02 -0.24294361763E+03  0.24666951013E+03  0.30000000000E+02 0. -1.
     200000    1    3    3    0    0  0.30186181746E+03 -0.19236597816E+03 -0.94932372045E+03  0.11310794634E+04  0.50000000000E+03 0.  1.
    -200001    1    1    2    0    0 -0.40633485832E+03  0.14079695398E+03 -0.89770353892E+03  0.12168826743E+04  0.70000000000E+03 0. -1.
<mgrwt>
<rscale>  0 0.16531198E+04</rscale>
<asrwt>0</asrwt>
<pdfrwt beam="1">  1        1 0.40673699E-01 0.16531198E+04</pdfrwt>
<pdfrwt beam="2">  1       -1 0.34279851E+00 0.16531198E+04</pdfrwt>
<totfact> 0.17218796E+00</totfact>
</mgrwt>
</event>
<event>
 8    1  0.2402290E-028  0.1740703E+04  0.7818608E-02  0.8738484E-01
         -1   -1    0    0    0  501 -0.00000000000E+00  0.00000000000E+00  0.60008566855E+03  0.60008566857E+03  0.50400000000E-02 0.  1.
          1   -1    0    0  501    0  0.00000000000E+00 -0.00000000000E+00 -0.12623396308E+04  0.12623396308E+04  0.50400000000E-02 0. -1.
     200001    2    1    2    0    0 -0.41521818916E+03  0.22663735577E+03 -0.55511870380E+03  0.10108100111E+04  0.69986389214E+03 0.  0.
    5000001    2    3    3    0    0 -0.47147928468E+02 -0.64303291001E+01 -0.30026475114E+02  0.16492697473E+03  0.15503238854E+03 0.  0.
        -13    1    4    4    0    0 -0.57838709551E+02  0.55564130707E+02 -0.47312070016E+02  0.93118913637E+02  0.10566000000E+00 0. -1.
     200003    1    4    4    0    0  0.10690781083E+02 -0.61994459808E+02  0.17285594902E+02  0.71808061094E+02  0.30000000000E+02 0. -1.
     200000    1    3    3    0    0 -0.36807026069E+03  0.23306768487E+03 -0.52509222868E+03  0.84588303633E+03  0.50000000000E+03 0. -1.
    -200001    1    1    2    0    0  0.41521818916E+03 -0.22663735577E+03 -0.10713525843E+03  0.85161528828E+03  0.70000000000E+03 0.  1.
<mgrwt>
<rscale>  0 0.17407032E+04</rscale>
<asrwt>0</asrwt>
<pdfrwt beam="1">  1        1 0.18033423E+00 0.17407032E+04</pdfrwt>
<pdfrwt beam="2">  1       -1 0.85726524E-01 0.17407032E+04</pdfrwt>
<totfact> 0.14326229E+01</totfact>
</mgrwt>
</event>
<event>
 8    1  0.2402290E-028  0.1790326E+04  0.7818608E-02  0.8711461E-01
         -1   -1    0    0    0  501 -0.00000000000E+00  0.00000000000E+00  0.55184635883E+03  0.55184635885E+03  0.50400000000E-02 0. -1.
          1   -1    0    0  501    0  0.00000000000E+00 -0.00000000000E+00 -0.14520643139E+04  0.14520643140E+04  0.50400000000E-02 0.  1.
     200001    2    1    2    0    0 -0.26267661535E+03 -0.49033016678E+03 -0.47186679062E+03  0.10124938095E+04  0.70218428457E+03 0.  0.
    5000001    2    3    3    0    0 -0.28018015274E+02 -0.24429341516E+03 -0.18790733355E+03  0.34448803483E+03  0.15132269583E+03 0.  0.
        -13    1    4    4    0    0 -0.10428197998E+02 -0.20909169884E+03 -0.20414458346E+03  0.29240914479E+03  0.10566000000E+00 0. -1.
     200003    1    4    4    0    0 -0.17589817276E+02 -0.35201716317E+02  0.16237249911E+02  0.52078890043E+02  0.30000000000E+02 0. -1.
     200000    1    3    3    0    0 -0.23465860007E+03 -0.24603675161E+03 -0.28395945708E+03  0.66800577467E+03  0.50000000000E+03 0.  1.
    -200001    1    1    2    0    0  0.26267661535E+03  0.49033016678E+03 -0.42835116450E+03  0.99141686330E+03  0.70000000000E+03 0. -1.
<mgrwt>
<rscale>  0 0.17903256E+04</rscale>
<asrwt>0</asrwt>
<pdfrwt beam="1">  1        1 0.20743776E+00 0.17903256E+04</pdfrwt>
<pdfrwt beam="2">  1       -1 0.78835195E-01 0.17903256E+04</pdfrwt>
<totfact> 0.12743315E+01</totfact>
</mgrwt>
</event>
<event>
 8    1  0.2402290E-028  0.1472102E+04  0.7818608E-02  0.8903219E-01
          1   -1    0    0  501    0  0.00000000000E+00  0.00000000000E+00  0.48087852033E+03  0.48087852035E+03  0.50400000000E-02 0.  1.
         -1   -1    0    0    0  501 -0.00000000000E+00 -0.00000000000E+00 -0.11266281922E+04  0.11266281922E+04  0.50400000000E-02 0. -1.
     200001    2    1    2    0    0 -0.73955170501E+02 -0.13093500336E+03 -0.50947649917E+03  0.87868319483E+03  0.69993179047E+03 0.  0.
    5000001    2    3    3    0    0 -0.56661303469E+01 -0.13811286339E+03 -0.11414514093E+03  0.23758897594E+03  0.15592350761E+03 0.  0.
        -13    1    4    4    0    0 -0.65132338077E+02 -0.11116933732E+03 -0.41371053049E+02  0.13532338385E+03  0.10566000000E+00 0. -1.
     200003    1    4    4    0    0  0.59466207730E+02 -0.26943526069E+02 -0.72774087882E+02  0.10226559209E+03  0.30000000000E+02 0. -1.
     200000    1    3    3    0    0 -0.68289040154E+02  0.71778600225E+01 -0.39533135824E+03  0.64109421888E+03  0.50000000000E+03 0. -1.
    -200001    1    1    2    0    0  0.73955170501E+02  0.13093500336E+03 -0.13627317266E+03  0.72882351769E+03  0.70000000000E+03 0.  1.
<mgrwt>
<rscale>  0 0.14721023E+04</rscale>
<asrwt>0</asrwt>
<pdfrwt beam="1">  1        1 0.68696932E-01 0.14721023E+04</pdfrwt>
<pdfrwt beam="2">  1       -1 0.16094688E+00 0.14721023E+04</pdfrwt>
<totfact> 0.14451362E+01</totfact>
</mgrwt>
</event>
<event>
 8    1  0.2402290E-028  0.1827113E+04  0.7818608E-02  0.8692013E-01
          1   -1    0    0  501    0  0.00000000000E+00  0.00000000000E+00  0.67448600224E+03  0.67448600226E+03  0.50400000000E-02 0.  1.
         -1   -1    0    0    0  501 -0.00000000000E+00 -0.00000000000E+00 -0.12373646642E+04  0.12373646642E+04  0.50400000000E-02 0. -1.
     200001    2    1    2    0    0 -0.35507040807E+03 -0.35281482066E+03 -0.60051952345E+03  0.10504737880E+04  0.70165389532E+03 0.  0.
    5000001    2    3    3    0    0  0.24363989015E+02 -0.91471452357E+02 -0.25086027453E+02  0.15974682298E+03  0.12621057057E+03 0.  0.
        -13    1    4    4    0    0  0.57240490705E+02 -0.68552319999E+02  0.20954170655E+02  0.91733215278E+02  0.10566000000E+00 0. -1.
     200003    1    4    4    0    0 -0.32876501689E+02 -0.22919132358E+02 -0.46040198108E+02  0.68013607706E+02  0.30000000000E+02 0. -1.
     200000    1    3    3    0    0 -0.37943439709E+03 -0.26134336830E+03 -0.57543349600E+03  0.89072696499E+03  0.50000000000E+03 0. -1.
    -200001    1    1    2    0    0  0.35507040807E+03  0.35281482066E+03  0.37640861477E+02  0.86137687850E+03  0.70000000000E+03 0.  1.
<mgrwt>
<rscale>  0 0.18271126E+04</rscale>
<asrwt>0</asrwt>
<pdfrwt beam="1">  1        1 0.96355144E-01 0.18271126E+04</pdfrwt>
<pdfrwt beam="2">  1       -1 0.17676638E+00 0.18271126E+04</pdfrwt>
<totfact> 0.66754115E+00</totfact>
</mgrwt>
</event>
<event>
 8    1  0.2402290E-028  0.1719100E+04  0.7818608E-02  0.8750545E-01
          1   -1    0    0  501    0  0.00000000000E+00  0.00000000000E+00  0.42960458069E+03  0.42960458072E+03  0.50400000000E-02 0.  1.
         -1   -1    0    0    0  501 -0.00000000000E+00 -0.00000000000E+00 -0.17197827647E+04  0.17197827647E+04  0.50400000000E-02 0. -1.
     200001    2    1    2    0    0 -0.44347901767E+03 -0.21349353916E+03 -0.74699450310E+03  0.11358284465E+04  0.69989452190E+03 0.  0.
    5000001    2    3    3    0    0 -0.13072822255E+03 -0.10278803041E+03 -0.35955115951E+03  0.42155880971E+03  0.14415112338E+03 0.  0.
        -13    1    4    4    0    0 -0.13354418635E+03 -0.46408553815E+02 -0.16772660322E+03  0.21936277753E+03  0.10566000000E+00 0. -1.
     200003    1    4    4    0    0  0.28159637984E+01 -0.56379476594E+02 -0.19182455629E+03  0.20219603218E+03  0.30000000000E+02 0. -1.
     200000    1    3    3    0    0 -0.31275079512E+03 -0.11070550875E+03 -0.38744334359E+03  0.71426963677E+03  0.50000000000E+03 0. -1.
    -200001    1    1    2    0    0  0.44347901767E+03  0.21349353916E+03 -0.54318368087E+03  0.10135588989E+04  0.70000000000E+03 0. -1.
<mgrwt>
<rscale>  0 0.17191004E+04</rscale>
<asrwt>0</asrwt>
<pdfrwt beam="1">  1        1 0.61372084E-01 0.17191004E+04</pdfrwt>
<pdfrwt beam="2">  1       -1 0.24568325E+00 0.17191004E+04</pdfrwt>
<totfact> 0.42687183E+00</totfact>
</mgrwt>
</event>
<event>
 8    1  0.2402290E-028  0.1574939E+04  0.7818608E-02  0.8836094E-01
         -1   -1    0    0    0  501 -0.00000000000E+00  0.00000000000E+00  0.25343497003E+03  0.25343497008E+03  0.50400000000E-02 0. -1.
          1   -1    0    0  501    0  0.00000000000E+00 -0.00000000000E+00 -0.24468124996E+04  0.24468124996E+04  0.50400000000E-02 0.  1.
     200001    2    1    2    0    0 -0.79770310978E+02 -0.28085656208E+03 -0.14570402403E+04  0.16431588667E+04  0.70125679205E+03 0.  0.
    5000001    2    3    3    0    0 -0.45153872107E+01 -0.53588229689E+02 -0.88528505282E+02  0.16662963660E+03  0.13052222977E+03 0.  0.
        -13    1    4    4    0    0  0.11054889575E+01  0.31557923644E+02 -0.66376797952E+02  0.73505204720E+02  0.10566000000E+00 0. -1.
     200003    1    4    4    0    0 -0.56208761682E+01 -0.85146153332E+02 -0.22151707330E+02  0.93124431884E+02  0.30000000000E+02 0. -1.
     200000    1    3    3    0    0 -0.75254923768E+02 -0.22726833239E+03 -0.13685117350E+04  0.14765292301E+04  0.50000000000E+03 0.  1.
    -200001    1    1    2    0    0  0.79770310978E+02  0.28085656208E+03 -0.73633728925E+03  0.10570886030E+04  0.70000000000E+03 0. -1.
<mgrwt>
<rscale>  0 0.15749385E+04</rscale>
<asrwt>0</asrwt>
<pdfrwt beam="1">  1        1 0.34954463E+00 0.15749385E+04</pdfrwt>
<pdfrwt beam="2">  1       -1 0.36204997E-01 0.15749385E+04</pdfrwt>
<totfact> 0.13692102E+01</totfact>
</mgrwt>
</event>
<event>
 8    1  0.2402290E-028  0.1805832E+04  0.7818608E-02  0.8703204E-01
         -1   -1    0    0    0  501 -0.00000000000E+00  0.00000000000E+00  0.27559686101E+03  0.27559686106E+03  0.50400000000E-02 0. -1.
          1   -1    0    0  501    0  0.00000000000E+00 -0.00000000000E+00 -0.29581524258E+04  0.29581524258E+04  0.50400000000E-02 0.  1.
     200001    2    1    2    0    0 -0.47876645490E+03  0.30296624128E+03 -0.12216827736E+04  0.15176038461E+04  0.69971906705E+03 0.  0.
    5000001    2    3    3    0    0 -0.10284079309E+03 -0.95521145715E+00 -0.20145904296E+03  0.28287925612E+03  0.16987579697E+03 0.  0.
        -13    1    4    4    0    0 -0.11583996668E+03  0.56627811095E+02 -0.10718261909E+03  0.16767149987E+03  0.10566000000E+00 0. -1.
     200003    1    4    4    0    0  0.12999173589E+02 -0.57583022552E+02 -0.94276423876E+02  0.11520775625E+03  0.30000000000E+02 0. -1.
     200000    1    3    3    0    0 -0.37592566181E+03  0.30392145274E+03 -0.10202237306E+04  0.12347245900E+04  0.50000000000E+03 0. -1.
    -200001    1    1    2    0    0  0.47876645490E+03 -0.30296624128E+03 -0.14608727912E+04  0.17161454407E+04  0.70000000000E+03 0.  1.
<mgrwt>
<rscale>  0 0.18058322E+04</rscale>
<asrwt>0</asrwt>
<pdfrwt beam="1">  1        1 0.42259318E+00 0.18058322E+04</pdfrwt>
<pdfrwt beam="2">  1       -1 0.39370982E-01 0.18058322E+04</pdfrwt>
<totfact> 0.53993932E+00</totfact>
</mgrwt>
</event>
<event>
 8    1  0.2402290E-028  0.1949878E+04  0.7818608E-02  0.8630419E-01
         -1   -1    0    0    0  501 -0.00000000000E+00  0.00000000000E+00  0.46285300290E+03  0.46285300293E+03  0.50400000000E-02 0. -1.
          1   -1    0    0  501    0  0.00000000000E+00 -0.00000000000E+00 -0.20535816245E+04  0.20535816245E+04  0.50400000000E-02 0.  1.
     200001    2    1    2    0    0  0.57991663236E+02 -0.62826180432E+03 -0.47266230562E+03  0.10541938078E+04  0.69988499155E+03 0.  0.
    5000001    2    3    3    0    0 -0.36429724807E+02 -0.18907669828E+03 -0.46685116504E+02  0.25842027118E+03  0.16590483347E+03 0.  0.
        -13    1    4    4    0    0 -0.73429125527E+01  0.29136697062E+02 -0.16269816828E+02  0.34169922214E+02  0.10566000000E+00 0. -1.
     200003    1    4    4    0    0 -0.29086812254E+02 -0.21821339535E+03 -0.30415299676E+02  0.22425034896E+03  0.30000000000E+02 0. -1.
     200000    1    3    3    0    0  0.94421388043E+02 -0.43918510603E+03 -0.42597718911E+03  0.79577353658E+03  0.50000000000E+03 0.  1.
    -200001    1    1    2    0    0 -0.57991663236E+02  0.62826180432E+03 -0.11180663159E+04  0.14622408196E+04  0.70000000000E+03 0.  1.
<mgrwt>
<rscale>  0 0.19498784E+04</rscale>
<asrwt>0</asrwt>
<pdfrwt beam="1">  1        1 0.29336880E+00 0.19498784E+04</pdfrwt>
<pdfrwt beam="2">  1       -1 0.66121859E-01 0.19498784E+04</pdfrwt>
<totfact> 0.74691750E+00</totfact>
</mgrwt>
</event>
<event>
 8    1  0.2402290E-028  0.1461899E+04  0.7818608E-02  0.8910192E-01
         -1   -1    0    0    0  501 -0.00000000000E+00  0.00000000000E+00  0.20786739338E+04  0.20786739338E+04  0.50400000000E-02 0. -1.
          1   -1    0    0  501    0  0.00000000000E+00 -0.00000000000E+00 -0.25703287043E+03  0.25703287048E+03  0.50400000000E-02 0.  1.
     200001    2    1    2    0    0 -0.10276628525E+03  0.33042221509E+02  0.12005201897E+04  0.13936644287E+04  0.69957066551E+03 0.  0.
    5000001    2    3    3    0    0 -0.93237543462E+02  0.34822350730E+02  0.26923614280E+03  0.33660059814E+03  0.17580109914E+03 0.  0.
        -13    1    4    4    0    0 -0.80551441587E+02  0.93865603043E+02  0.22245627901E+03  0.25453112464E+03  0.10566000000E+00 0. -1.
     200003    1    4    4    0    0 -0.12686101875E+02 -0.59043252313E+02  0.46779863795E+02  0.82069473503E+02  0.30000000000E+02 0. -1.
     200000    1    3    3    0    0 -0.95287417844E+01 -0.17801292213E+01  0.93128404689E+03  0.10570638305E+04  0.50000000000E+03 0. -1.
    -200001    1    1    2    0    0  0.10276628525E+03 -0.33042221509E+02  0.62112087372E+03  0.94204237567E+03  0.70000000000E+03 0.  1.
<mgrwt>
<rscale>  0 0.14618995E+04</rscale>
<asrwt>0</asrwt>
<pdfrwt beam="1">  1        1 0.36718981E-01 0.14618995E+04</pdfrwt>
<pdfrwt beam="2">  1       -1 0.29695342E+00 0.14618995E+04</pdfrwt>
<totfact> 0.39784752E+00</totfact>
</mgrwt>
</event>
<event>
 8    1  0.2402290E-028  0.1609605E+04  0.7818608E-02  0.8814669E-01
         -1   -1    0    0    0  501 -0.00000000000E+00  0.00000000000E+00  0.38295900454E+03  0.38295900458E+03  0.50400000000E-02 0. -1.
          1   -1    0    0  501    0  0.00000000000E+00 -0.00000000000E+00 -0.16913215899E+04  0.16913215899E+04  0.50400000000E-02 0.  1.
     200001    2    1    2    0    0  0.25953280310E+03 -0.28486669077E+03 -0.53906630910E+03  0.96508130307E+03  0.70162891085E+03 0.  0.
    5000001    2    3    3    0    0  0.89610531210E+02 -0.14113456272E+03 -0.15886946235E+03  0.29868641609E+03  0.18980267909E+03 0.  0.
        -13    1    4    4    0    0  0.66689942201E+02 -0.15416933524E+03 -0.39146166588E+02  0.17247656606E+03  0.10566000000E+00 0. -1.
     200003    1    4    4    0    0  0.22920589008E+02  0.13034772519E+02 -0.11972329576E+03  0.12620985002E+03  0.30000000000E+02 0. -1.
     200000    1    3    3    0    0  0.16992227189E+03 -0.14373212805E+03 -0.38019684675E+03  0.66639488698E+03  0.50000000000E+03 0.  1.
    -200001    1    1    2    0    0 -0.25953280310E+03  0.28486669077E+03 -0.76929627623E+03  0.11091992914E+04  0.70000000000E+03 0. -1.
<mgrwt>
<rscale>  0 0.16096047E+04</rscale>
<asrwt>0</asrwt>
<pdfrwt beam="1">  1        1 0.24161737E+00 0.16096047E+04</pdfrwt>
<pdfrwt beam="2">  1       -1 0.54708430E-01 0.16096047E+04</pdfrwt>
<totfact> 0.18966220E+01</totfact>
</mgrwt>
</event>
<event>
 8    1  0.2402290E-028  0.1490128E+04  0.7818608E-02  0.8891044E-01
         -1   -1    0    0    0  501 -0.00000000000E+00  0.00000000000E+00  0.10747207384E+04  0.10747207384E+04  0.50400000000E-02 0. -1.
          1   -1    0    0  501    0  0.00000000000E+00 -0.00000000000E+00 -0.51652539169E+03  0.51652539171E+03  0.50400000000E-02 0.  1.
     200001    2    1    2    0    0  0.24338727551E+03 -0.26390559460E+02  0.34084854410E+03  0.81847613836E+03  0.70270308918E+03 0.  0.
    5000001    2    3    3    0    0  0.45749750268E+02 -0.79320654107E+02  0.13968378956E+03  0.24199591774E+03  0.17511612524E+03 0.  0.
        -13    1    4    4    0    0 -0.38893566254E+02 -0.84032243942E+02  0.24344722734E+02  0.95743429054E+02  0.10566000000E+00 0. -1.
     200003    1    4    4    0    0  0.84643316523E+02  0.47115898352E+01  0.11533906683E+03  0.14625248869E+03  0.30000000000E+02 0. -1.
     200000    1    3    3    0    0  0.19763752524E+03  0.52930094648E+02  0.20116475454E+03  0.57648022062E+03  0.50000000000E+03 0.  1.
    -200001    1    1    2    0    0 -0.24338727551E+03  0.26390559460E+02  0.21734680257E+03  0.77276999171E+03  0.70000000000E+03 0.  1.
<mgrwt>
<rscale>  0 0.14901282E+04</rscale>
<asrwt>0</asrwt>
<pdfrwt beam="1">  1        1 0.73789341E-01 0.14901282E+04</pdfrwt>
<pdfrwt beam="2">  1       -1 0.15353154E+00 0.14901282E+04</pdfrwt>
<totfact> 0.14918414E+01</totfact>
</mgrwt>
</event>
<event>
 8    1  0.2402290E-028  0.1962490E+04  0.7818608E-02  0.8624361E-01
          1   -1    0    0  501    0  0.00000000000E+00  0.00000000000E+00  0.48790705506E+03  0.48790705508E+03  0.50400000000E-02 0.  1.
         -1   -1    0    0    0  501 -0.00000000000E+00 -0.00000000000E+00 -0.19734128331E+04  0.19734128331E+04  0.50400000000E-02 0. -1.
     200001    2    1    2    0    0  0.18268385271E+01 -0.66485789257E+03 -0.96263096907E+03  0.13633957467E+04  0.70010729515E+03 0.  0.
    5000001    2    3    3    0    0 -0.15414000314E+02 -0.11366529864E+03 -0.58580586129E+02  0.19232033618E+03  0.14282168993E+03 0.  0.
        -13    1    4    4    0    0 -0.47103110819E+02 -0.12679193005E+03 -0.56845771387E+02  0.14671860640E+03  0.10566000000E+00 0. -1.
     200003    1    4    4    0    0  0.31689110505E+02  0.13126631408E+02 -0.17348147421E+01  0.45601729780E+02  0.30000000000E+02 0. -1.
     200000    1    3    3    0    0  0.17240838841E+02 -0.55119259393E+03 -0.90405038294E+03  0.11710754105E+04  0.50000000000E+03 0. -1.
    -200001    1    1    2    0    0 -0.18268385271E+01  0.66485789257E+03 -0.52287480893E+03  0.10979241415E+04  0.70000000000E+03 0.  1.
<mgrwt>
<rscale>  0 0.19624903E+04</rscale>
<asrwt>0</asrwt>
<pdfrwt beam="1">  1        1 0.69701009E-01 0.19624903E+04</pdfrwt>
<pdfrwt beam="2">  1       -1 0.28191611E+00 0.19624903E+04</pdfrwt>
<totfact> 0.20504488E+00</totfact>
</mgrwt>
</event>
<event>
 8    1  0.2402290E-028  0.2138396E+04  0.7818608E-02  0.8544516E-01
          1   -1    0    0  501    0  0.00000000000E+00  0.00000000000E+00  0.92343646977E+03  0.92343646978E+03  0.50400000000E-02 0.  1.
         -1   -1    0    0    0  501 -0.00000000000E+00 -0.00000000000E+00 -0.12379673025E+04  0.12379673025E+04  0.50400000000E-02 0. -1.
     200001    2    1    2    0    0 -0.19511998037E+03 -0.59401581454E+03 -0.67377206310E+03  0.11564257345E+04  0.70173007047E+03 0.  0.
    5000001    2    3    3    0    0 -0.72868911010E+02 -0.18129098672E+03 -0.20210839216E+03  0.34540555849E+03  0.20070101544E+03 0.  0.
        -13    1    4    4    0    0 -0.70398950078E+02 -0.29097564032E+02 -0.17096672674E+03  0.18716921013E+03  0.10566000000E+00 0. -1.
     200003    1    4    4    0    0 -0.24699609320E+01 -0.15219342269E+03 -0.31141665416E+02  0.15823634836E+03  0.30000000000E+02 0. -1.
     200000    1    3    3    0    0 -0.12225106936E+03 -0.41272482782E+03 -0.47166367094E+03  0.81102017604E+03  0.50000000000E+03 0.  1.
    -200001    1    1    2    0    0  0.19511998037E+03  0.59401581454E+03  0.35924123041E+03  0.10049780377E+04  0.70000000000E+03 0.  1.
<mgrwt>
<rscale>  0 0.21383958E+04</rscale>
<asrwt>0</asrwt>
<pdfrwt beam="1">  1        1 0.13191950E+00 0.21383958E+04</pdfrwt>
<pdfrwt beam="2">  1       -1 0.17685247E+00 0.21383958E+04</pdfrwt>
<totfact> 0.39875800E+00</totfact>
</mgrwt>
</event>
<event>
 8    1  0.2402290E-028  0.1468872E+04  0.7818608E-02  0.8905420E-01
          1   -1    0    0  501    0  0.00000000000E+00  0.00000000000E+00  0.40823526171E+03  0.40823526174E+03  0.50400000000E-02 0.  1.
         -1   -1    0    0    0  501 -0.00000000000E+00 -0.00000000000E+00 -0.13212882620E+04  0.13212882620E+04  0.50400000000E-02 0. -1.
     200001    2    1    2    0    0 -0.19335790787E+03  0.47355747339E+02 -0.34483679732E+03  0.80621452854E+03  0.70102753291E+03 0.  0.
    5000001    2    3    3    0    0 -0.10066165419E+03  0.13165142373E+02  0.22789751909E+02  0.17779518398E+03  0.14417234499E+03 0.  0.
        -13    1    4    4    0    0 -0.68066739717E+02 -0.36788567624E+02 -0.39157554432E+02  0.86716809193E+02  0.10566000000E+00 0. -1.
     200003    1    4    4    0    0 -0.32594914470E+02  0.49953709998E+02  0.61947306341E+02  0.91078374792E+02  0.30000000000E+02 0. -1.
     200000    1    3    3    0    0 -0.92696253684E+02  0.34190604965E+02 -0.36762654923E+03  0.62841934456E+03  0.50000000000E+03 0. -1.
    -200001    1    1    2    0    0  0.19335790787E+03 -0.47355747339E+02 -0.56821620300E+03  0.92330899524E+03  0.70000000000E+03 0. -1.
<mgrwt>
<rscale>  0 0.14688723E+04</rscale>
<asrwt>0</asrwt>
<pdfrwt beam="1">  1        1 0.58319324E-01 0.14688723E+04</pdfrwt>
<pdfrwt beam="2">  1       -1 0.18875546E+00 0.14688723E+04</pdfrwt>
<totfact> 0.11287752E+01</totfact>
</mgrwt>
</event>
<event>
 8    1  0.2402290E-028  0.1754129E+04  0.7818608E-02  0.8731081E-01
          1   -1    0    0  501    0  0.00000000000E+00  0.00000000000E+00  0.15793223622E+04  0.15793223622E+04  0.50400000000E-02 0.  1.
         -1   -1    0    0    0  501 -0.00000000000E+00 -0.00000000000E+00 -0.48707118054E+03  0.48707118056E+03  0.50400000000E-02 0. -1.
     200001    2    1    2    0    0 -0.49913931667E+03 -0.86013738924E+02  0.36660617563E+03  0.93807661234E+03  0.69932054302E+03 0.  0.
    5000001    2    3    3    0    0 -0.14618991213E+03 -0.15273119877E+02  0.13267410911E+03  0.27906088484E+03  0.19664129684E+03 0.  0.
        -13    1    4    4    0    0 -0.30173222885E+02 -0.84123256596E+02  0.28074232567E+01  0.89414978997E+02  0.10566000000E+00 0. -1.
     200003    1    4    4    0    0 -0.11601668925E+03  0.68850136719E+02  0.12986668585E+03  0.18964590584E+03  0.30000000000E+02 0. -1.
     200000    1    3    3    0    0 -0.35294940453E+03 -0.70740619046E+02  0.23393206652E+03  0.65901572750E+03  0.50000000000E+03 0. -1.
    -200001    1    1    2    0    0  0.49913931667E+03  0.86013738924E+02  0.72564500606E+03  0.11283169304E+04  0.70000000000E+03 0. -1.
<mgrwt>
<rscale>  0 0.17541293E+04</rscale>
<asrwt>0</asrwt>
<pdfrwt beam="1">  1        1 0.22561748E+00 0.17541293E+04</pdfrwt>
<pdfrwt beam="2">  1       -1 0.69581598E-01 0.17541293E+04</pdfrwt>
<totfact> 0.13698641E+01</totfact>
</mgrwt>
</event>
<event>
 8    1  0.2402290E-028  0.1851754E+04  0.7818608E-02  0.8679251E-01
          1   -1    0    0  501    0  0.00000000000E+00  0.00000000000E+00  0.24897637988E+04  0.24897637988E+04  0.50400000000E-02 0.  1.
         -1   -1    0    0    0  501 -0.00000000000E+00 -0.00000000000E+00 -0.34430903698E+03  0.34430903702E+03  0.50400000000E-02 0. -1.
     200001    2    1    2    0    0 -0.17659244526E+03 -0.37995507920E+03  0.40366852618E+03  0.91069818574E+03  0.70062268915E+03 0.  0.
    5000001    2    3    3    0    0 -0.91129097301E+02 -0.49137884904E+02  0.13805448098E+03  0.24941547699E+03  0.18008330388E+03 0.  0.
        -13    1    4    4    0    0  0.27798475190E+02  0.43736491384E+02  0.50688158258E+02  0.72490940490E+02  0.10566000000E+00 0. -1.
     200003    1    4    4    0    0 -0.11892757249E+03 -0.92874376288E+02  0.87366322725E+02  0.17692453650E+03  0.30000000000E+02 0. -1.
     200000    1    3    3    0    0 -0.85463347958E+02 -0.33081719430E+03  0.26561404520E+03  0.66128270875E+03  0.50000000000E+03 0. -1.
    -200001    1    1    2    0    0  0.17659244526E+03  0.37995507920E+03  0.17417862356E+04  0.19233746501E+04  0.70000000000E+03 0.  1.
<mgrwt>
<rscale>  0 0.18517540E+04</rscale>
<asrwt>0</asrwt>
<pdfrwt beam="1">  1        1 0.35568056E+00 0.18517540E+04</pdfrwt>
<pdfrwt beam="2">  1       -1 0.49187003E-01 0.18517540E+04</pdfrwt>
<totfact> 0.71285275E+00</totfact>
</mgrwt>
</event>
<event>
 8    1  0.2402290E-028  0.1539068E+04  0.7818608E-02  0.8858881E-01
         -1   -1    0    0    0  501 -0.00000000000E+00  0.00000000000E+00  0.61126121751E+03  0.61126121754E+03  0.50400000000E-02 0. -1.
          1   -1    0    0  501    0  0.00000000000E+00 -0.00000000000E+00 -0.96878776518E+03  0.96878776519E+03  0.50400000000E-02 0.  1.
     200001    2    1    2    0    0 -0.20906091810E+03 -0.11683431482E+03  0.37448761739E+02  0.74138205263E+03  0.70063415105E+03 0.  0.
    5000001    2    3    3    0    0 -0.10282551981E+03 -0.45109300389E+02 -0.51345178292E+02  0.21763134731E+03  0.17921813382E+03 0.  0.
        -13    1    4    4    0    0 -0.11984222918E+03 -0.99324096657E+01 -0.93869128470E+02  0.15255240772E+03  0.10566000000E+00 0. -1.
     200003    1    4    4    0    0  0.17016709369E+02 -0.35176890723E+02  0.42523950178E+02  0.65078939585E+02  0.30000000000E+02 0. -1.
     200000    1    3    3    0    0 -0.10623539828E+03 -0.71725014434E+02  0.88793940031E+02  0.52375070533E+03  0.50000000000E+03 0. -1.
    -200001    1    1    2    0    0  0.20906091810E+03  0.11683431482E+03 -0.39497530940E+03  0.83866693009E+03  0.70000000000E+03 0.  1.
<mgrwt>
<rscale>  0 0.15390678E+04</rscale>
<asrwt>0</asrwt>
<pdfrwt beam="1">  1        1 0.13839825E+00 0.15390678E+04</pdfrwt>
<pdfrwt beam="2">  1       -1 0.87323031E-01 0.15390678E+04</pdfrwt>
<totfact> 0.22736926E+01</totfact>
</mgrwt>
</event>
<event>
 8    1  0.2402290E-028  0.1848452E+04  0.7818608E-02  0.8680949E-01
         -1   -1    0    0    0  501 -0.00000000000E+00  0.00000000000E+00  0.12785400998E+04  0.12785400998E+04  0.50400000000E-02 0. -1.
          1   -1    0    0  501    0  0.00000000000E+00 -0.00000000000E+00 -0.66810083240E+03  0.66810083241E+03  0.50400000000E-02 0.  1.
     200001    2    1    2    0    0 -0.39702072229E+03 -0.40853446546E+03  0.51671888644E+03  0.10392769627E+04  0.69897949486E+03 0.  0.
    5000001    2    3    3    0    0 -0.12707059025E+03 -0.23006877593E+03  0.17741000056E+03  0.35381828696E+03  0.15695379998E+03 0.  0.
        -13    1    4    4    0    0  0.32090559910E+02 -0.24698340073E+02  0.55909283361E+01  0.40878865951E+02  0.10566000000E+00 0. -1.
     200003    1    4    4    0    0 -0.15916115016E+03 -0.20537043585E+03  0.17181907222E+03  0.31293942101E+03  0.30000000000E+02 0. -1.
     200000    1    3    3    0    0 -0.26995013204E+03 -0.17846568954E+03  0.33930888588E+03  0.68545867576E+03  0.50000000000E+03 0.  1.
    -200001    1    1    2    0    0  0.39702072229E+03  0.40853446546E+03  0.93720380986E+02  0.90736396953E+03  0.70000000000E+03 0.  1.
<mgrwt>
<rscale>  0 0.18484520E+04</rscale>
<asrwt>0</asrwt>
<pdfrwt beam="1">  1        1 0.95442976E-01 0.18484520E+04</pdfrwt>
<pdfrwt beam="2">  1       -1 0.18264859E+00 0.18484520E+04</pdfrwt>
<totfact> 0.61295034E+00</totfact>
</mgrwt>
</event>
<event>
 8    1  0.2402290E-028  0.2305406E+04  0.7818608E-02  0.8475793E-01
          1   -1    0    0  501    0  0.00000000000E+00  0.00000000000E+00  0.90865514171E+03  0.90865514173E+03  0.50400000000E-02 0. -1.
         -1   -1    0    0    0  501 -0.00000000000E+00 -0.00000000000E+00 -0.14622975382E+04  0.14622975382E+04  0.50400000000E-02 0.  1.
     200001    2    1    2    0    0  0.82033953030E+03 -0.29845656858E+03  0.81684582349E+01  0.11188885023E+04  0.69986533608E+03 0.  0.
    5000001    2    3    3    0    0  0.13885434047E+03 -0.10586361620E+03  0.65219459380E+02  0.25011412081E+03  0.16678088153E+03 0.  0.
        -13    1    4    4    0    0  0.16929196559E+03 -0.98170810402E+02  0.39494861352E+02  0.19964251267E+03  0.10566000000E+00 0. -1.
     200003    1    4    4    0    0 -0.30437625124E+02 -0.76928057948E+01  0.25724598028E+02  0.50471608136E+02  0.30000000000E+02 0. -1.
     200000    1    3    3    0    0  0.68148518983E+03 -0.19259295238E+03 -0.57051001145E+02  0.86877438153E+03  0.50000000000E+03 0.  1.
    -200001    1    1    2    0    0 -0.82033953030E+03  0.29845656858E+03 -0.56181085468E+03  0.12520641776E+04  0.70000000000E+03 0.  1.
<mgrwt>
<rscale>  0 0.23054060E+04</rscale>
<asrwt>0</asrwt>
<pdfrwt beam="1">  1        1 0.12980788E+00 0.23054060E+04</pdfrwt>
<pdfrwt beam="2">  1       -1 0.20889965E+00 0.23054060E+04</pdfrwt>
<totfact> 0.24086588E+00</totfact>
</mgrwt>
</event>
<event>
 8    1  0.2402290E-028  0.1680404E+04  0.7818608E-02  0.8772620E-01
          1   -1    0    0  501    0  0.00000000000E+00  0.00000000000E+00  0.22700100216E+04  0.22700100216E+04  0.50400000000E-02 0.  1.
         -1   -1    0    0    0  501 -0.00000000000E+00 -0.00000000000E+00 -0.31098528390E+03  0.31098528394E+03  0.50400000000E-02 0. -1.
     200001    2    1    2    0    0  0.21327904922E+03  0.23868538633E+03  0.46333439823E+03  0.89886919312E+03  0.70059146103E+03 0.  0.
    5000001    2    3    3    0    0  0.45939529111E+02  0.76077153209E+02  0.14163675173E+03  0.26017260769E+03  0.19932546947E+03 0.  0.
        -13    1    4    4    0    0 -0.61834166894E+02 -0.24320769165E+02  0.57744800097E+02  0.88030887253E+02  0.10566000000E+00 0. -1.
     200003    1    4    4    0    0  0.10777369600E+03  0.10039792237E+03  0.83891951630E+02  0.17214172044E+03  0.30000000000E+02 0. -1.
     200000    1    3    3    0    0  0.16733952011E+03  0.16260823312E+03  0.32169764650E+03  0.63869658543E+03  0.50000000000E+03 0. -1.
    -200001    1    1    2    0    0 -0.21327904922E+03 -0.23868538633E+03  0.14956903394E+04  0.16821261124E+04  0.70000000000E+03 0. -1.
<mgrwt>
<rscale>  0 0.16804044E+04</rscale>
<asrwt>0</asrwt>
<pdfrwt beam="1">  1        1 0.32428714E+00 0.16804044E+04</pdfrwt>
<pdfrwt beam="2">  1       -1 0.44426470E-01 0.16804044E+04</pdfrwt>
<totfact> 0.12067061E+01</totfact>
</mgrwt>
</event>
<event>
 8    1  0.2402290E-028  0.2722546E+04  0.7818608E-02  0.8327727E-01
          1   -1    0    0  501    0  0.00000000000E+00  0.00000000000E+00  0.20136125102E+04  0.20136125102E+04  0.50400000000E-02 0.  1.
         -1   -1    0    0    0  501 -0.00000000000E+00 -0.00000000000E+00 -0.92026842109E+03  0.92026842110E+03  0.50400000000E-02 0. -1.
     200001    2    1    2    0    0 -0.42249041508E+03 -0.10710664965E+04  0.75438874782E+03  0.15444305672E+04  0.70034406076E+03 0.  0.
    5000001    2    3    3    0    0 -0.15428380975E+03 -0.36982273527E+03  0.19959175036E+03  0.48543231220E+03  0.18771071743E+03 0.  0.
        -13    1    4    4    0    0 -0.15140094693E+03 -0.13253151980E+03  0.11474882267E+03  0.23163366323E+03  0.10566000000E+00 0. -1.
     200003    1    4    4    0    0 -0.28828628126E+01 -0.23729121548E+03  0.84842927691E+02  0.25379864897E+03  0.30000000000E+02 0. -1.
     200000    1    3    3    0    0 -0.26820660533E+03 -0.70124376121E+03  0.55479699746E+03  0.10589982550E+04  0.50000000000E+03 0. -1.
    -200001    1    1    2    0    0  0.42249041508E+03  0.10710664965E+04  0.33895534125E+03  0.13894503640E+04  0.70000000000E+03 0.  1.
<mgrwt>
<rscale>  0 0.27225459E+04</rscale>
<asrwt>0</asrwt>
<pdfrwt beam="1">  1        1 0.28765893E+00 0.27225459E+04</pdfrwt>
<pdfrwt beam="2">  1       -1 0.13146692E+00 0.27225459E+04</pdfrwt>
<totfact> 0.15794580E+00</totfact>
</mgrwt>
</event>
<event>
 8    1  0.2402290E-028  0.2435128E+04  0.7818608E-02  0.8426468E-01
         -1   -1    0    0    0  501 -0.00000000000E+00  0.00000000000E+00  0.67083467141E+03  0.67083467143E+03  0.50400000000E-02 0.  1.
          1   -1    0    0  501    0  0.00000000000E+00 -0.00000000000E+00 -0.22098775957E+04  0.22098775957E+04  0.50400000000E-02 0. -1.
     200001    2    1    2    0    0 -0.65670536650E+03 -0.74831809922E+03 -0.80529205692E+03  0.14595746062E+04  0.70044330108E+03 0.  0.
    5000001    2    3    3    0    0 -0.15484966037E+03 -0.19471969067E+03 -0.19190601266E+03  0.37119379643E+03  0.19764296486E+03 0.  0.
        -13    1    4    4    0    0 -0.94882241471E+02 -0.93806889629E+02  0.12046124255E+02  0.13396825207E+03  0.10566000000E+00 0. -1.
     200003    1    4    4    0    0 -0.59967418897E+02 -0.10091280104E+03 -0.20395213692E+03  0.23722554436E+03  0.30000000000E+02 0. -1.
     200000    1    3    3    0    0 -0.50185570613E+03 -0.55359840855E+03 -0.61338604426E+03  0.10883808097E+04  0.50000000000E+03 0. -1.
    -200001    1    1    2    0    0  0.65670536650E+03  0.74831809922E+03 -0.73375086734E+03  0.14211376609E+04  0.70000000000E+03 0. -1.
<mgrwt>
<rscale>  0 0.24351283E+04</rscale>
<asrwt>0</asrwt>
<pdfrwt beam="1">  1        1 0.31569680E+00 0.24351283E+04</pdfrwt>
<pdfrwt beam="2">  1       -1 0.95833526E-01 0.24351283E+04</pdfrwt>
<totfact> 0.25902079E+00</totfact>
</mgrwt>
</event>
<event>
 8    1  0.2402290E-028  0.1793795E+04  0.7818608E-02  0.8709606E-01
         -1   -1    0    0    0  501 -0.00000000000E+00  0.00000000000E+00  0.28958912004E+03  0.28958912009E+03  0.50400000000E-02 0. -1.
          1   -1    0    0  501    0  0.00000000000E+00 -0.00000000000E+00 -0.27778144934E+04  0.27778144934E+04  0.50400000000E-02 0.  1.
     200001    2    1    2    0    0  0.37141687831E+03 -0.40664007020E+03 -0.14225824622E+04  0.16785546447E+04  0.70035575892E+03 0.  0.
    5000001    2    3    3    0    0  0.74830245504E+02 -0.24586356273E+02 -0.33342385875E+03  0.38619434867E+03  0.17824295444E+03 0.  0.
        -13    1    4    4    0    0  0.97786650290E+02 -0.28361343448E+01 -0.72781294707E+02  0.12193195092E+03  0.10566000000E+00 0. -1.
     200003    1    4    4    0    0 -0.22956404786E+02 -0.21750221928E+02 -0.26064256404E+03  0.26426239775E+03  0.30000000000E+02 0. -1.
     200000    1    3    3    0    0  0.29658663281E+03 -0.38205371393E+03 -0.10891586035E+04  0.12923602960E+04  0.50000000000E+03 0. -1.
    -200001    1    1    2    0    0 -0.37141687831E+03  0.40664007020E+03 -0.10656429111E+04  0.13888489688E+04  0.70000000000E+03 0. -1.
<mgrwt>
<rscale>  0 0.17937947E+04</rscale>
<asrwt>0</asrwt>
<pdfrwt beam="1">  1        1 0.39683063E+00 0.17937947E+04</pdfrwt>
<pdfrwt beam="2">  1       -1 0.41369876E-01 0.17937947E+04</pdfrwt>
<totfact> 0.64709242E+00</totfact>
</mgrwt>
</event>
<event>
 8    1  0.2402290E-028  0.2129619E+04  0.7818608E-02  0.8548307E-01
         -1   -1    0    0    0  501 -0.00000000000E+00  0.00000000000E+00  0.17307387151E+04  0.17307387151E+04  0.50400000000E-02 0. -1.
          1   -1    0    0  501    0  0.00000000000E+00 -0.00000000000E+00 -0.65510704221E+03  0.65510704223E+03  0.50400000000E-02 0.  1.
     200001    2    1    2    0    0 -0.30876264340E+02  0.25593344486E+03 -0.31487872858E+03  0.80788046984E+03  0.69790183260E+03 0.  0.
    5000001    2    3    3    0    0 -0.25982923560E+02  0.63687469945E+02 -0.68721810345E+02  0.21832496944E+03  0.19547864057E+03 0.  0.
        -13    1    4    4    0    0 -0.38091190104E+02 -0.25737067311E+02 -0.10650078063E+03  0.11599897774E+03  0.10566000000E+00 0. -1.
     200003    1    4    4    0    0  0.12108266544E+02  0.89424537256E+02  0.37778970287E+02  0.10232599170E+03  0.30000000000E+02 0. -1.
     200000    1    3    3    0    0 -0.48933407800E+01  0.19224597492E+03 -0.24615691824E+03  0.58955550040E+03  0.50000000000E+03 0.  1.
    -200001    1    1    2    0    0  0.30876264340E+02 -0.25593344486E+03  0.13905104014E+04  0.15779652875E+04  0.70000000000E+03 0. -1.
<mgrwt>
<rscale>  0 0.21296189E+04</rscale>
<asrwt>0</asrwt>
<pdfrwt beam="1">  1        1 0.93586720E-01 0.21296189E+04</pdfrwt>
<pdfrwt beam="2">  1       -1 0.24724839E+00 0.21296189E+04</pdfrwt>
<totfact> 0.22479305E+00</totfact>
</mgrwt>
</event>
<event>
 8    1  0.2402290E-028  0.1586210E+04  0.7818608E-02  0.8829065E-01
          1   -1    0    0  501    0  0.00000000000E+00  0.00000000000E+00  0.16710071744E+04  0.16710071744E+04  0.50400000000E-02 0.  1.
         -1   -1    0    0    0  501 -0.00000000000E+00 -0.00000000000E+00 -0.37642903012E+03  0.37642903016E+03  0.50400000000E-02 0. -1.
     200001    2    1    2    0    0 -0.28020370280E+03  0.19263249145E+03  0.84999883820E+03  0.11511816920E+04  0.69792540528E+03 0.  0.
    5000001    2    3    3    0    0 -0.53381928849E+02  0.64100935078E+02  0.25881093852E+03  0.33419233419E+03  0.19427520204E+03 0.  0.
        -13    1    4    4    0    0  0.71279932271E+02  0.89630008292E+01  0.86248964413E+02  0.11224998510E+03  0.10566000000E+00 0. -1.
     200003    1    4    4    0    0 -0.12466186112E+03  0.55137934249E+02  0.17256197411E+03  0.22194234909E+03  0.30000000000E+02 0. -1.
     200000    1    3    3    0    0 -0.22682177395E+03  0.12853155637E+03  0.59118789967E+03  0.81698935785E+03  0.50000000000E+03 0.  1.
    -200001    1    1    2    0    0  0.28020370280E+03 -0.19263249145E+03  0.44457930609E+03  0.89625451253E+03  0.70000000000E+03 0. -1.
<mgrwt>
<rscale>  0 0.15862101E+04</rscale>
<asrwt>0</asrwt>
<pdfrwt beam="1">  1        1 0.23871531E+00 0.15862101E+04</pdfrwt>
<pdfrwt beam="2">  1       -1 0.53775575E-01 0.15862101E+04</pdfrwt>
<totfact> 0.20241938E+01</totfact>
</mgrwt>
</event>
<event>
 8    1  0.2402290E-028  0.1542249E+04  0.7818608E-02  0.8856834E-01
         -1   -1    0    0    0  501 -0.00000000000E+00  0.00000000000E+00  0.18916437360E+03  0.18916437367E+03  0.50400000000E-02 0. -1.
          1   -1    0    0  501    0  0.00000000000E+00 -0.00000000000E+00 -0.31434715178E+04  0.31434715178E+04  0.50400000000E-02 0.  1.
     200001    2    1    2    0    0  0.28811693520E+02 -0.25557624701E+03 -0.10510706206E+04  0.12885080587E+04  0.69953858811E+03 0.  0.
    5000001    2    3    3    0    0  0.34709253136E+02 -0.12933924175E+03 -0.10167661465E+03  0.20808242909E+03  0.12258381466E+03 0.  0.
        -13    1    4    4    0    0 -0.32196600906E+02 -0.45271258323E+02  0.22809565829E+01  0.55599657076E+02  0.10566000000E+00 0. -1.
     200003    1    4    4    0    0  0.66905854042E+02 -0.84067983425E+02 -0.10395757124E+03  0.15248277201E+03  0.30000000000E+02 0. -1.
     200000    1    3    3    0    0 -0.58975596157E+01 -0.12623700526E+03 -0.94939400594E+03  0.10804256297E+04  0.50000000000E+03 0. -1.
    -200001    1    1    2    0    0 -0.28811693520E+02  0.25557624701E+03 -0.19032365236E+04  0.20441278327E+04  0.70000000000E+03 0.  1.
<mgrwt>
<rscale>  0 0.15422488E+04</rscale>
<asrwt>0</asrwt>
<pdfrwt beam="1">  1        1 0.44906733E+00 0.15422488E+04</pdfrwt>
<pdfrwt beam="2">  1       -1 0.27023484E-01 0.15422488E+04</pdfrwt>
<totfact> 0.81330354E+00</totfact>
</mgrwt>
</event>
<event>
 8    1  0.2402290E-028  0.1771198E+04  0.7818608E-02  0.8721768E-01
          1   -1    0    0  501    0  0.00000000000E+00  0.00000000000E+00  0.15608685425E+04  0.15608685425E+04  0.50400000000E-02 0. -1.
         -1   -1    0    0    0  501 -0.00000000000E+00 -0.00000000000E+00 -0.50246743332E+03  0.50246743335E+03  0.50400000000E-02 0.  1.
     200001    2    1    2    0    0  0.44858162997E+03  0.10985060007E+03  0.86020649576E+03  0.12016087929E+04  0.70043974958E+03 0.  0.
    5000001    2    3    3    0    0  0.14418574341E+03  0.11377344891E+02  0.78419585221E+02  0.22000571060E+03  0.14606131853E+03 0.  0.
        -13    1    4    4    0    0  0.38939280730E+02 -0.62410705216E+02  0.27544418822E+02  0.78549792371E+02  0.10566000000E+00 0. -1.
     200003    1    4    4    0    0  0.10524646268E+03  0.73788050107E+02  0.50875166399E+02  0.14145591823E+03  0.30000000000E+02 0. -1.
     200000    1    3    3    0    0  0.30439588656E+03  0.98473255175E+02  0.78178691054E+03  0.98160308232E+03  0.50000000000E+03 0. -1.
    -200001    1    1    2    0    0 -0.44858162997E+03 -0.10985060007E+03  0.19819461346E+03  0.86172718298E+03  0.70000000000E+03 0. -1.
<mgrwt>
<rscale>  0 0.17711980E+04</rscale>
<asrwt>0</asrwt>
<pdfrwt beam="1">  1        1 0.22298122E+00 0.17711980E+04</pdfrwt>
<pdfrwt beam="2">  1       -1 0.71781062E-01 0.17711980E+04</pdfrwt>
<totfact> 0.13187840E+01</totfact>
</mgrwt>
</event>
<event>
 8    1  0.2402290E-028  0.2776982E+04  0.7818608E-02  0.8310450E-01
          1   -1    0    0  501    0  0.00000000000E+00  0.00000000000E+00  0.30801685617E+04  0.30801685617E+04  0.50400000000E-02 0.  1.
         -1   -1    0    0    0  501 -0.00000000000E+00 -0.00000000000E+00 -0.62590958184E+03  0.62590958186E+03  0.50400000000E-02 0. -1.
     200001    2    1    2    0    0  0.40699988587E+03  0.77724965035E+03  0.23179759279E+04  0.25754415988E+04  0.70008649493E+03 0.  0.
    5000001    2    3    3    0    0  0.12874998805E+03  0.88645744882E+02  0.60690769864E+03  0.64428836058E+03  0.14945203044E+03 0.  0.
        -13    1    4    4    0    0  0.67058097984E+02  0.40553125093E+02  0.51086322097E+03  0.51683903313E+03  0.10566000000E+00 0. -1.
     200003    1    4    4    0    0  0.61691890061E+02  0.48092619789E+02  0.96044477674E+02  0.12744932746E+03  0.30000000000E+02 0. -1.
     200000    1    3    3    0    0  0.27824989783E+03  0.68860390547E+03  0.17110682293E+04  0.19311532382E+04  0.50000000000E+03 0.  1.
    -200001    1    1    2    0    0 -0.40699988587E+03 -0.77724965035E+03  0.13628305194E+03  0.11306365447E+04  0.70000000000E+03 0. -1.
<mgrwt>
<rscale>  0 0.27769818E+04</rscale>
<asrwt>0</asrwt>
<pdfrwt beam="1">  1        1 0.44002407E+00 0.27769818E+04</pdfrwt>
<pdfrwt beam="2">  1       -1 0.89415657E-01 0.27769818E+04</pdfrwt>
<totfact> 0.80661999E-01</totfact>
</mgrwt>
</event>
<event>
 8    1  0.2402290E-028  0.1791345E+04  0.7818608E-02  0.8710916E-01
         -1   -1    0    0    0  501 -0.00000000000E+00  0.00000000000E+00  0.45527639608E+03  0.45527639611E+03  0.50400000000E-02 0. -1.
          1   -1    0    0  501    0  0.00000000000E+00 -0.00000000000E+00 -0.17620712784E+04  0.17620712784E+04  0.50400000000E-02 0.  1.
     200001    2    1    2    0    0  0.22174597897E+03  0.43433207730E+02 -0.18907654014E+02  0.73420532276E+03  0.69831385055E+03 0.  0.
    5000001    2    3    3    0    0  0.17446769013E+03  0.56052203713E+02 -0.67505020711E+02  0.22947155165E+03  0.12049664209E+03 0.  0.
        -13    1    4    4    0    0  0.81627930909E+02  0.22461530666E+02 -0.90316632982E+02  0.12379315337E+03  0.10566000000E+00 0. -1.
     200003    1    4    4    0    0  0.92839759221E+02  0.33590673047E+02  0.22811612271E+02  0.10567839828E+03  0.30000000000E+02 0. -1.
     200000    1    3    3    0    0  0.47278288839E+02 -0.12618995983E+02  0.48597366697E+02  0.50473377112E+03  0.50000000000E+03 0. -1.
    -200001    1    1    2    0    0 -0.22174597897E+03 -0.43433207730E+02 -0.12878872283E+04  0.14831423517E+04  0.70000000000E+03 0.  1.
<mgrwt>
<rscale>  0 0.17913453E+04</rscale>
<asrwt>0</asrwt>
<pdfrwt beam="1">  1        1 0.25172446E+00 0.17913453E+04</pdfrwt>
<pdfrwt beam="2">  1       -1 0.65039486E-01 0.17913453E+04</pdfrwt>
<totfact> 0.11962714E+01</totfact>
</mgrwt>
</event>
<event>
 8    1  0.2402290E-028  0.1747520E+04  0.7818608E-02  0.8734717E-01
         -1   -1    0    0    0  501 -0.00000000000E+00  0.00000000000E+00  0.60157742304E+03  0.60157742306E+03  0.50400000000E-02 0. -1.
          1   -1    0    0  501    0  0.00000000000E+00 -0.00000000000E+00 -0.12690907622E+04  0.12690907622E+04  0.50400000000E-02 0.  1.
     200001    2    1    2    0    0 -0.42212150527E+03  0.23282813075E+03 -0.11166657951E+03  0.85510867254E+03  0.69738505375E+03 0.  0.
    5000001    2    3    3    0    0 -0.25639971136E+03  0.99225518709E+02  0.12301495332E+01  0.30007800460E+03  0.12024466737E+03 0.  0.
        -13    1    4    4    0    0 -0.21215919322E+03  0.10137639039E+03  0.33640518395E+02  0.23752976958E+03  0.10566000000E+00 0. -1.
     200003    1    4    4    0    0 -0.44240518140E+02 -0.21508716813E+01 -0.32410368861E+02  0.62548235019E+02  0.30000000000E+02 0. -1.
     200000    1    3    3    0    0 -0.16572179391E+03  0.13360261204E+03 -0.11289672904E+03  0.55503066793E+03  0.50000000000E+03 0. -1.
    -200001    1    1    2    0    0  0.42212150527E+03 -0.23282813075E+03 -0.55584675963E+03  0.10155595127E+04  0.70000000000E+03 0.  1.
<mgrwt>
<rscale>  0 0.17475198E+04</rscale>
<asrwt>0</asrwt>
<pdfrwt beam="1">  1        1 0.18129868E+00 0.17475198E+04</pdfrwt>
<pdfrwt beam="2">  1       -1 0.85939632E-01 0.17475198E+04</pdfrwt>
<totfact> 0.14090339E+01</totfact>
</mgrwt>
</event>
<event>
 8    1  0.2402290E-028  0.1593347E+04  0.7818608E-02  0.8824646E-01
         -1   -1    0    0    0  501 -0.00000000000E+00  0.00000000000E+00  0.23545765055E+03  0.23545765060E+03  0.50400000000E-02 0. -1.
          1   -1    0    0  501    0  0.00000000000E+00 -0.00000000000E+00 -0.26955535359E+04  0.26955535359E+04  0.50400000000E-02 0.  1.
     200001    2    1    2    0    0 -0.79611588052E+02  0.35310738938E+03 -0.14491469413E+04  0.16491997336E+04  0.69914953362E+03 0.  0.
    5000001    2    3    3    0    0 -0.14245221677E+02  0.11036876987E+03 -0.59510656513E+03  0.62813178120E+03  0.16737239612E+03 0.  0.
        -13    1    4    4    0    0 -0.17586689143E+02 -0.29648073955E+02 -0.31797206813E+02  0.46897478071E+02  0.10566000000E+00 0. -1.
     200003    1    4    4    0    0  0.33414674660E+01  0.14001684382E+03 -0.56330935832E+03  0.58123430313E+03  0.30000000000E+02 0. -1.
     200000    1    3    3    0    0 -0.65366366375E+02  0.24273861951E+03 -0.85404037619E+03  0.10210679524E+04  0.50000000000E+03 0.  1.
    -200001    1    1    2    0    0  0.79611588052E+02 -0.35310738938E+03 -0.10109489440E+04  0.12818114529E+04  0.70000000000E+03 0. -1.
<mgrwt>
<rscale>  0 0.15933470E+04</rscale>
<asrwt>0</asrwt>
<pdfrwt beam="1">  1        1 0.38507906E+00 0.15933470E+04</pdfrwt>
<pdfrwt beam="2">  1       -1 0.33636809E-01 0.15933470E+04</pdfrwt>
<totfact> 0.10822946E+01</totfact>
</mgrwt>
</event>
<event>
 8    1  0.2402290E-028  0.1854746E+04  0.7818608E-02  0.8677716E-01
         -1   -1    0    0    0  501 -0.00000000000E+00  0.00000000000E+00  0.18635956668E+04  0.18635956668E+04  0.50400000000E-02 0. -1.
          1   -1    0    0  501    0  0.00000000000E+00 -0.00000000000E+00 -0.46148478554E+03  0.46148478556E+03  0.50400000000E-02 0.  1.
     200001    2    1    2    0    0 -0.48993749465E+03  0.88358057383E+02  0.26808044073E+03  0.90245227360E+03  0.70335417000E+03 0.  0.
    5000001    2    3    3    0    0 -0.19764084152E+03  0.91304843247E+02  0.67914340841E+02  0.28966153891E+03  0.17858603751E+03 0.  0.
        -13    1    4    4    0    0  0.67506762167E+01 -0.19256303731E+02 -0.29534399729E+02  0.35898033291E+02  0.10566000000E+00 0. -1.
     200003    1    4    4    0    0 -0.20439151774E+03  0.11056114698E+03  0.97448740571E+02  0.25376350562E+03  0.30000000000E+02 0. -1.
     200000    1    3    3    0    0 -0.29229665313E+03 -0.29467858638E+01  0.20016609989E+03  0.61279073469E+03  0.50000000000E+03 0. -1.
    -200001    1    1    2    0    0  0.48993749465E+03 -0.88358057383E+02  0.11340304405E+04  0.14226281788E+04  0.70000000000E+03 0. -1.
<mgrwt>
<rscale>  0 0.18547464E+04</rscale>
<asrwt>0</asrwt>
<pdfrwt beam="1">  1        1 0.65926399E-01 0.18547464E+04</pdfrwt>
<pdfrwt beam="2">  1       -1 0.26622795E+00 0.18547464E+04</pdfrwt>
<totfact> 0.28184711E+00</totfact>
</mgrwt>
</event>
<event>
 8    1  0.2402290E-028  0.1683215E+04  0.7818608E-02  0.8770996E-01
          1   -1    0    0  501    0  0.00000000000E+00  0.00000000000E+00  0.33805420462E+03  0.33805420465E+03  0.50400000000E-02 0.  1.
         -1   -1    0    0    0  501 -0.00000000000E+00 -0.00000000000E+00 -0.20952359769E+04  0.20952359769E+04  0.50400000000E-02 0. -1.
     200001    2    1    2    0    0 -0.37179122566E+03  0.21177636153E+03 -0.11507885400E+04  0.14130986824E+04  0.69961109170E+03 0.  0.
    5000001    2    3    3    0    0 -0.12076706232E+03  0.12831203041E+02 -0.45601889808E+03  0.49915275293E+03  0.16263736421E+03 0.  0.
        -13    1    4    4    0    0 -0.12826365397E+02 -0.15916515734E+02 -0.31980608334E+03  0.32045872313E+03  0.10566000000E+00 0. -1.
     200003    1    4    4    0    0 -0.10794069693E+03  0.28747718774E+02 -0.13621281474E+03  0.17869402980E+03  0.30000000000E+02 0. -1.
     200000    1    3    3    0    0 -0.25102416334E+03  0.19894515849E+03 -0.69476964190E+03  0.91394592945E+03  0.50000000000E+03 0. -1.
    -200001    1    1    2    0    0  0.37179122566E+03 -0.21177636153E+03 -0.60639323228E+03  0.10201914991E+04  0.70000000000E+03 0.  1.
<mgrwt>
<rscale>  0 0.16832152E+04</rscale>
<asrwt>0</asrwt>
<pdfrwt beam="1">  1        1 0.48293459E-01 0.16832152E+04</pdfrwt>
<pdfrwt beam="2">  1       -1 0.29931942E+00 0.16832152E+04</pdfrwt>
<totfact> 0.26370177E+00</totfact>
</mgrwt>
</event>
<event>
 8    1  0.2402290E-028  0.2302725E+04  0.7818608E-02  0.8476848E-01
         -1   -1    0    0    0  501 -0.00000000000E+00  0.00000000000E+00  0.34244792830E+03  0.34244792834E+03  0.50400000000E-02 0. -1.
          1   -1    0    0  501    0  0.00000000000E+00 -0.00000000000E+00 -0.38710563676E+04  0.38710563676E+04  0.50400000000E-02 0.  1.
     200001    2    1    2    0    0  0.64027637023E+03  0.54666711399E+03 -0.11121071195E+04  0.15605290996E+04  0.69976429012E+03 0.  0.
    5000001    2    3    3    0    0  0.20820916235E+03  0.92947665835E+02 -0.34140739486E+03  0.44853922767E+03  0.18066019380E+03 0.  0.
        -13    1    4    4    0    0  0.22430306962E+03  0.44561094866E+02 -0.29549746786E+03  0.37365267682E+03  0.10566000000E+00 0. -1.
     200003    1    4    4    0    0 -0.16093907273E+02  0.48386570969E+02 -0.45909927009E+02  0.74886550858E+02  0.30000000000E+02 0. -1.
     200000    1    3    3    0    0  0.43206720788E+03  0.45371944815E+03 -0.77069972468E+03  0.11119898720E+04  0.50000000000E+03 0.  1.
    -200001    1    1    2    0    0 -0.64027637023E+03 -0.54666711399E+03 -0.24165013198E+04  0.26529751963E+04  0.70000000000E+03 0. -1.
<mgrwt>
<rscale>  0 0.23027247E+04</rscale>
<asrwt>0</asrwt>
<pdfrwt beam="1">  1        1 0.55300803E+00 0.23027247E+04</pdfrwt>
<pdfrwt beam="2">  1       -1 0.48921135E-01 0.23027247E+04</pdfrwt>
<totfact> 0.79940903E-01</totfact>
</mgrwt>
</event>
<event>
 8    1  0.2402290E-028  0.1891531E+04  0.7818608E-02  0.8659084E-01
          1   -1    0    0  501    0  0.00000000000E+00  0.00000000000E+00  0.22499759371E+04  0.22499759371E+04  0.50400000000E-02 0. -1.
         -1   -1    0    0    0  501 -0.00000000000E+00 -0.00000000000E+00 -0.39754737876E+03  0.39754737880E+03  0.50400000000E-02 0.  1.
     200001    2    1    2    0    0  0.10138226129E+03  0.46253891769E+03  0.33238024645E+03  0.90833744781E+03  0.70027114577E+03 0.  0.
    5000001    2    3    3    0    0 -0.47424224868E+02 -0.77966348861E+01  0.39359254074E+02  0.14727227038E+03  0.13352949532E+03 0.  0.
        -13    1    4    4    0    0 -0.15069595142E+02 -0.66481831275E+02  0.23930165276E+02  0.72246733916E+02  0.10566000000E+00 0. -1.
     200003    1    4    4    0    0 -0.32354629726E+02  0.58685196389E+02  0.15429088798E+02  0.75025536459E+02  0.30000000000E+02 0. -1.
     200000    1    3    3    0    0  0.14880648616E+03  0.47033555257E+03  0.29302099237E+03  0.76106517744E+03  0.50000000000E+03 0.  1.
    -200001    1    1    2    0    0 -0.10138226129E+03 -0.46253891769E+03  0.15200483119E+04  0.17391858681E+04  0.70000000000E+03 0. -1.
<mgrwt>
<rscale>  0 0.18915306E+04</rscale>
<asrwt>0</asrwt>
<pdfrwt beam="1">  1        1 0.32142515E+00 0.18915306E+04</pdfrwt>
<pdfrwt beam="2">  1       -1 0.56792479E-01 0.18915306E+04</pdfrwt>
<totfact> 0.76401572E+00</totfact>
</mgrwt>
</event>
<event>
 8    1  0.2402290E-028  0.1535383E+04  0.7818608E-02  0.8861259E-01
         -1   -1    0    0    0  501 -0.00000000000E+00  0.00000000000E+00  0.71391660740E+03  0.71391660742E+03  0.50400000000E-02 0. -1.
          1   -1    0    0  501    0  0.00000000000E+00 -0.00000000000E+00 -0.82551693785E+03  0.82551693786E+03  0.50400000000E-02 0.  1.
     200001    2    1    2    0    0 -0.16567730706E+03 -0.23566621537E+03 -0.18705226048E+03  0.77872300316E+03  0.69888012732E+03 0.  0.
    5000001    2    3    3    0    0 -0.90476323789E+02 -0.54366008844E+02  0.16763709654E+02  0.20420938065E+03  0.17400810642E+03 0.  0.
        -13    1    4    4    0    0 -0.22527538188E+02  0.10671500450E+02 -0.69043088421E+02  0.73405245871E+02  0.10566000000E+00 0. -1.
     200003    1    4    4    0    0 -0.67948785601E+02 -0.65037509294E+02  0.85806798075E+02  0.13080413478E+03  0.30000000000E+02 0. -1.
     200000    1    3    3    0    0 -0.75200983268E+02 -0.18130020653E+03 -0.20381597013E+03  0.57451362251E+03  0.50000000000E+03 0. -1.
    -200001    1    1    2    0    0  0.16567730706E+03  0.23566621537E+03  0.75451930030E+02  0.76071054212E+03  0.70000000000E+03 0. -1.
<mgrwt>
<rscale>  0 0.15353830E+04</rscale>
<asrwt>0</asrwt>
<pdfrwt beam="1">  1        1 0.11793099E+00 0.15353830E+04</pdfrwt>
<pdfrwt beam="2">  1       -1 0.10198809E+00 0.15353830E+04</pdfrwt>
<totfact> 0.20859018E+01</totfact>
</mgrwt>
</event>
<event>
 8    1  0.2402290E-028  0.1470769E+04  0.7818608E-02  0.8904127E-01
          1   -1    0    0  501    0  0.00000000000E+00  0.00000000000E+00  0.15960525757E+04  0.15960525757E+04  0.50400000000E-02 0.  1.
         -1   -1    0    0    0  501 -0.00000000000E+00 -0.00000000000E+00 -0.33883001510E+03  0.33883001513E+03  0.50400000000E-02 0. -1.
     200001    2    1    2    0    0 -0.18525084116E+03  0.23243740422E+01  0.75271441428E+03  0.10523568141E+04  0.71172508591E+03 0.  0.
    5000001    2    3    3    0    0 -0.52668964284E+02  0.43791950549E+01  0.16011477927E+03  0.26574604393E+03  0.20540452814E+03 0.  0.
        -13    1    4    4    0    0  0.76785105000E+02  0.16601038632E+02  0.55610945618E+02  0.96250378026E+02  0.10566000000E+00 0. -1.
     200003    1    4    4    0    0 -0.12945406928E+03 -0.12221843577E+02  0.10450383365E+03  0.16949566591E+03  0.30000000000E+02 0. -1.
     200000    1    3    3    0    0 -0.13258187688E+03 -0.20548210126E+01  0.59259963501E+03  0.78661077019E+03  0.50000000000E+03 0. -1.
    -200001    1    1    2    0    0  0.18525084116E+03 -0.23243740422E+01  0.50450814633E+03  0.88252577672E+03  0.70000000000E+03 0. -1.
<mgrwt>
<rscale>  0 0.14707692E+04</rscale>
<asrwt>0</asrwt>
<pdfrwt beam="1">  1        1 0.22800752E+00 0.14707692E+04</pdfrwt>
<pdfrwt beam="2">  1       -1 0.48404287E-01 0.14707692E+04</pdfrwt>
<totfact> 0.27910846E+01</totfact>
</mgrwt>
</event>
<event>
 8    1  0.2402290E-028  0.1957083E+04  0.7818608E-02  0.8626953E-01
         -1   -1    0    0    0  501 -0.00000000000E+00  0.00000000000E+00  0.58364236701E+03  0.58364236703E+03  0.50400000000E-02 0. -1.
          1   -1    0    0  501    0  0.00000000000E+00 -0.00000000000E+00 -0.16406333431E+04  0.16406333431E+04  0.50400000000E-02 0.  1.
     200001    2    1    2    0    0  0.50215279423E+03 -0.11559722965E+03 -0.10390767057E+04  0.13548845040E+04  0.70036524079E+03 0.  0.
    5000001    2    3    3    0    0  0.40372470207E+02 -0.21581479115E+02 -0.10209000944E+03  0.19297913003E+03  0.15723510425E+03 0.  0.
        -13    1    4    4    0    0  0.66001477579E+02  0.45890417228E+02 -0.27564141159E+02  0.84981871466E+02  0.10566000000E+00 0. -1.
     200003    1    4    4    0    0 -0.25629007373E+02 -0.67471896343E+02 -0.74525868277E+02  0.10799725856E+03  0.30000000000E+02 0. -1.
     200000    1    3    3    0    0  0.46178032403E+03 -0.94015750539E+02 -0.93698669627E+03  0.11619053739E+04  0.50000000000E+03 0.  1.
    -200001    1    1    2    0    0 -0.50215279423E+03  0.11559722965E+03 -0.17914270372E+02  0.86939120616E+03  0.70000000000E+03 0. -1.
<mgrwt>
<rscale>  0 0.19570827E+04</rscale>
<asrwt>0</asrwt>
<pdfrwt beam="1">  1        1 0.23437619E+00 0.19570827E+04</pdfrwt>
<pdfrwt beam="2">  1       -1 0.83377482E-01 0.19570827E+04</pdfrwt>
<totfact> 0.84076817E+00</totfact>
</mgrwt>
</event>
<event>
 8    1  0.2402290E-028  0.1591175E+04  0.7818608E-02  0.8825988E-01
         -1   -1    0    0    0  501 -0.00000000000E+00  0.00000000000E+00  0.26051366238E+03  0.26051366243E+03  0.50400000000E-02 0. -1.
          1   -1    0    0  501    0  0.00000000000E+00 -0.00000000000E+00 -0.24296606537E+04  0.24296606537E+04  0.50400000000E-02 0.  1.
     200001    2    1    2    0    0  0.13623321880E+02 -0.23489950347E+03 -0.15857291363E+04  0.17490368314E+04  0.69944947799E+03 0.  0.
    5000001    2    3    3    0    0 -0.14464504539E+01 -0.25683403158E+02 -0.45697095505E+03  0.49680142766E+03  0.19320319702E+03 0.  0.
        -13    1    4    4    0    0 -0.58399578785E+02  0.10806505745E+02 -0.36156940468E+02  0.69531481192E+02  0.10566000000E+00 0. -1.
     200003    1    4    4    0    0  0.56953128331E+02 -0.36489908904E+02 -0.42081401459E+03  0.42726994646E+03  0.30000000000E+02 0. -1.
     200000    1    3    3    0    0  0.15069772334E+02 -0.20921610031E+03 -0.11287581813E+04  0.12522354038E+04  0.50000000000E+03 0.  1.
    -200001    1    1    2    0    0 -0.13623321880E+02  0.23489950347E+03 -0.58341785502E+03  0.94113748474E+03  0.70000000000E+03 0. -1.
<mgrwt>
<rscale>  0 0.15911754E+04</rscale>
<asrwt>0</asrwt>
<pdfrwt beam="1">  1        1 0.34709437E+00 0.15911754E+04</pdfrwt>
<pdfrwt beam="2">  1       -1 0.37216239E-01 0.15911754E+04</pdfrwt>
<totfact> 0.13339801E+01</totfact>
</mgrwt>
</event>
<event>
 8    1  0.2402290E-028  0.2066311E+04  0.7818608E-02  0.8576231E-01
          1   -1    0    0  501    0  0.00000000000E+00  0.00000000000E+00  0.13746920614E+04  0.13746920614E+04  0.50400000000E-02 0. -1.
         -1   -1    0    0    0  501 -0.00000000000E+00 -0.00000000000E+00 -0.77647224148E+03  0.77647224149E+03  0.50400000000E-02 0.  1.
     200001    2    1    2    0    0 -0.69815747342E+03 -0.23342128702E+03  0.10343408278E+03  0.10212429425E+04  0.70023509140E+03 0.  0.
    5000001    2    3    3    0    0 -0.22418935113E+03 -0.27467754065E+02  0.11033619974E+03  0.30213914062E+03  0.16762649148E+03 0.  0.
        -13    1    4    4    0    0 -0.13686278840E+02  0.67635595905E+01  0.83757415968E+02  0.85137394020E+02  0.10566000000E+00 0. -1.
     200003    1    4    4    0    0 -0.21050307229E+03 -0.34231313655E+02  0.26578783768E+02  0.21700174660E+03  0.30000000000E+02 0. -1.
     200000    1    3    3    0    0 -0.47396812229E+03 -0.20595353296E+03 -0.69021169602E+01  0.71910380190E+03  0.50000000000E+03 0. -1.
    -200001    1    1    2    0    0  0.69815747342E+03  0.23342128702E+03  0.49478573711E+03  0.11299213604E+04  0.70000000000E+03 0.  1.
<mgrwt>
<rscale>  0 0.20663109E+04</rscale>
<asrwt>0</asrwt>
<pdfrwt beam="1">  1        1 0.19638458E+00 0.20663109E+04</pdfrwt>
<pdfrwt beam="2">  1       -1 0.11092461E+00 0.20663109E+04</pdfrwt>
<totfact> 0.65203193E+00</totfact>
</mgrwt>
</event>
<event>
 8    1  0.2402290E-028  0.1844896E+04  0.7818608E-02  0.8682782E-01
         -1   -1    0    0    0  501 -0.00000000000E+00  0.00000000000E+00  0.92139338292E+03  0.92139338293E+03  0.50400000000E-02 0.  1.
          1   -1    0    0  501    0  0.00000000000E+00 -0.00000000000E+00 -0.92350405797E+03  0.92350405798E+03  0.50400000000E-02 0. -1.
     200001    2    1    2    0    0 -0.54552774617E+03  0.20013483376E+03 -0.15408205596E+03  0.92253646270E+03  0.69976979895E+03 0.  0.
    5000001    2    3    3    0    0 -0.22260890376E+03  0.91803265651E+02 -0.10837419852E+03  0.31582276114E+03  0.17325266500E+03 0.  0.
        -13    1    4    4    0    0 -0.18222764974E+03  0.81280438103E+02 -0.41048134505E+01  0.19957526551E+03  0.10566000000E+00 0. -1.
     200003    1    4    4    0    0 -0.40381254021E+02  0.10522827548E+02 -0.10426938507E+03  0.11624749562E+03  0.30000000000E+02 0. -1.
     200000    1    3    3    0    0 -0.32291884241E+03  0.10833156811E+03 -0.45707857439E+02  0.60671370156E+03  0.50000000000E+03 0. -1.
    -200001    1    1    2    0    0  0.54552774617E+03 -0.20013483376E+03  0.15197138091E+03  0.92236097822E+03  0.70000000000E+03 0.  1.
<mgrwt>
<rscale>  0 0.18448962E+04</rscale>
<asrwt>0</asrwt>
<pdfrwt beam="1">  1        1 0.13192915E+00 0.18448962E+04</pdfrwt>
<pdfrwt beam="2">  1       -1 0.13162763E+00 0.18448962E+04</pdfrwt>
<totfact> 0.91546450E+00</totfact>
</mgrwt>
</event>
<event>
 8    1  0.2402290E-028  0.1778626E+04  0.7818608E-02  0.8717749E-01
         -1   -1    0    0    0  501 -0.00000000000E+00  0.00000000000E+00  0.81982048857E+03  0.81982048858E+03  0.50400000000E-02 0.  1.
          1   -1    0    0  501    0  0.00000000000E+00 -0.00000000000E+00 -0.96469651521E+03  0.96469651522E+03  0.50400000000E-02 0. -1.
     200001    2    1    2    0    0 -0.19595016771E+03 -0.10480542650E+03  0.43027898891E+03  0.85168050283E+03  0.70059904721E+03 0.  0.
    5000001    2    3    3    0    0 -0.66358476851E+02 -0.74305899949E+02  0.54709650123E+02  0.21232414234E+03  0.17934207924E+03 0.  0.
        -13    1    4    4    0    0 -0.11143439034E+03 -0.79865983530E+02  0.72462532676E+02  0.15507104334E+03  0.10566000000E+00 0. -1.
     200003    1    4    4    0    0  0.45075913490E+02  0.55600835810E+01 -0.17752882553E+02  0.57253099002E+02  0.30000000000E+02 0. -1.
     200000    1    3    3    0    0 -0.12959169086E+03 -0.30499526547E+02  0.37556933879E+03  0.63935636049E+03  0.50000000000E+03 0.  1.
    -200001    1    1    2    0    0  0.19595016771E+03  0.10480542650E+03 -0.57515501555E+03  0.93283650098E+03  0.70000000000E+03 0. -1.
<mgrwt>
<rscale>  0 0.17786264E+04</rscale>
<asrwt>0</asrwt>
<pdfrwt beam="1">  1        1 0.13781379E+00 0.17786264E+04</pdfrwt>
<pdfrwt beam="2">  1       -1 0.11711721E+00 0.17786264E+04</pdfrwt>
<totfact> 0.11434845E+01</totfact>
</mgrwt>
</event>
<event>
 8    1  0.2402290E-028  0.1507915E+04  0.7818608E-02  0.8879207E-01
         -1   -1    0    0    0  501 -0.00000000000E+00  0.00000000000E+00  0.41283706839E+03  0.41283706842E+03  0.50400000000E-02 0. -1.
          1   -1    0    0  501    0  0.00000000000E+00 -0.00000000000E+00 -0.13769395788E+04  0.13769395788E+04  0.50400000000E-02 0.  1.
     200001    2    1    2    0    0  0.16240312218E+03 -0.61765965066E+02 -0.74179281921E+03  0.10350505994E+04  0.70063067881E+03 0.  0.
    5000001    2    3    3    0    0  0.10665127929E+03 -0.34332775644E+02 -0.24697012177E+03  0.32885632739E+03  0.18600808628E+03 0.  0.
        -13    1    4    4    0    0  0.15587310392E+03 -0.24598482063E+02 -0.19292637096E+03  0.24924306534E+03  0.10566000000E+00 0. -1.
     200003    1    4    4    0    0 -0.49221824638E+02 -0.97342935814E+01 -0.54043750807E+02  0.79613262045E+02  0.30000000000E+02 0. -1.
     200000    1    3    3    0    0  0.55751842892E+02 -0.27433189422E+02 -0.49482269745E+03  0.70619427198E+03  0.50000000000E+03 0.  1.
    -200001    1    1    2    0    0 -0.16240312218E+03  0.61765965066E+02 -0.22230969121E+03  0.75472604787E+03  0.70000000000E+03 0. -1.
<mgrwt>
<rscale>  0 0.15079147E+04</rscale>
<asrwt>0</asrwt>
<pdfrwt beam="1">  1        1 0.19670565E+00 0.15079147E+04</pdfrwt>
<pdfrwt beam="2">  1       -1 0.58976725E-01 0.15079147E+04</pdfrwt>
<totfact> 0.26453834E+01</totfact>
</mgrwt>
</event>
<event>
 8    1  0.2402290E-028  0.3240682E+04  0.7818608E-02  0.8178155E-01
          1   -1    0    0  501    0  0.00000000000E+00  0.00000000000E+00  0.11008425266E+04  0.11008425266E+04  0.50400000000E-02 0.  1.
         -1   -1    0    0    0  501 -0.00000000000E+00 -0.00000000000E+00 -0.23849960792E+04  0.23849960792E+04  0.50400000000E-02 0. -1.
     200001    2    1    2    0    0 -0.62560437331E+03 -0.12819754156E+04 -0.30104423975E+03  0.16173242977E+04  0.70019172490E+03 0.  0.
    5000001    2    3    3    0    0 -0.27432970395E+03 -0.43830941886E+03 -0.20292174515E+02  0.53844157494E+03  0.14878045620E+03 0.  0.
        -13    1    4    4    0    0 -0.20986272903E+03 -0.29996225616E+03 -0.74737303270E+02  0.37363805457E+03  0.10566000000E+00 0. -1.
     200003    1    4    4    0    0 -0.64466974917E+02 -0.13834716270E+03  0.54445128755E+02  0.16480352037E+03  0.30000000000E+02 0. -1.
     200000    1    3    3    0    0 -0.35127466936E+03 -0.84366599677E+03 -0.28075206523E+03  0.10788827228E+04  0.50000000000E+03 0. -1.
    -200001    1    1    2    0    0  0.62560437331E+03  0.12819754156E+04 -0.98310931285E+03  0.18685143080E+04  0.70000000000E+03 0.  1.
<mgrwt>
<rscale>  0 0.32406821E+04</rscale>
<asrwt>0</asrwt>
<pdfrwt beam="1">  1        1 0.15726322E+00 0.32406821E+04</pdfrwt>
<pdfrwt beam="2">  1       -1 0.34071373E+00 0.32406821E+04</pdfrwt>
<totfact> 0.21865635E-01</totfact>
</mgrwt>
</event>
<event>
 8    1  0.2402290E-028  0.2482852E+04  0.7818608E-02  0.8409120E-01
          1   -1    0    0  501    0  0.00000000000E+00  0.00000000000E+00  0.25577016854E+04  0.25577016854E+04  0.50400000000E-02 0. -1.
         -1   -1    0    0    0  501 -0.00000000000E+00 -0.00000000000E+00 -0.60254833814E+03  0.60254833816E+03  0.50400000000E-02 0.  1.
     200001    2    1    2    0    0 -0.75552514030E+03 -0.47954174234E+03  0.34060320693E+03  0.11860284869E+04  0.69991035630E+03 0.  0.
    5000001    2    3    3    0    0 -0.24350609848E+03 -0.81996085483E+02  0.26558662676E+01  0.30035673418E+03  0.15552664116E+03 0.  0.
        -13    1    4    4    0    0 -0.21987003744E+03 -0.82472783178E+02 -0.45187289649E+02  0.23913698091E+03  0.10566000000E+00 0. -1.
     200003    1    4    4    0    0 -0.23636061033E+02  0.47669769502E+00  0.47843155917E+02  0.61219753266E+02  0.30000000000E+02 0. -1.
     200000    1    3    3    0    0 -0.51201904182E+03 -0.39754565686E+03  0.33794734067E+03  0.88567175270E+03  0.50000000000E+03 0.  1.
    -200001    1    1    2    0    0  0.75552514030E+03  0.47954174234E+03  0.16145501404E+04  0.19742215367E+04  0.70000000000E+03 0. -1.
<mgrwt>
<rscale>  0 0.24828523E+04</rscale>
<asrwt>0</asrwt>
<pdfrwt beam="1">  1        1 0.36538595E+00 0.24828523E+04</pdfrwt>
<pdfrwt beam="2">  1       -1 0.86078335E-01 0.24828523E+04</pdfrwt>
<totfact> 0.19688094E+00</totfact>
</mgrwt>
</event>
<event>
 8    1  0.2402290E-028  0.1790300E+04  0.7818608E-02  0.8711475E-01
         -1   -1    0    0    0  501 -0.00000000000E+00  0.00000000000E+00  0.52126774061E+03  0.52126774064E+03  0.50400000000E-02 0. -1.
          1   -1    0    0  501    0  0.00000000000E+00 -0.00000000000E+00 -0.15372015949E+04  0.15372015949E+04  0.50400000000E-02 0.  1.
     200001    2    1    2    0    0 -0.46778660486E+03  0.27590576583E+03 -0.36750401857E+03  0.96055788595E+03  0.70190024168E+03 0.  0.
    5000001    2    3    3    0    0 -0.19223849139E+03  0.55220183554E+02 -0.70810373677E+02  0.28036967083E+03  0.18327066610E+03 0.  0.
        -13    1    4    4    0    0 -0.19802892856E+03  0.30728785311E+02 -0.10859654412E+01  0.20040185946E+03  0.10566000000E+00 0. -1.
     200003    1    4    4    0    0  0.57904371618E+01  0.24491398243E+02 -0.69724408236E+02  0.79967811363E+02  0.30000000000E+02 0. -1.
     200000    1    3    3    0    0 -0.27554811347E+03  0.22068558228E+03 -0.29669364490E+03  0.68018821512E+03  0.50000000000E+03 0.  1.
    -200001    1    1    2    0    0  0.46778660486E+03 -0.27590576583E+03 -0.64842983569E+03  0.10979114496E+04  0.70000000000E+03 0. -1.
<mgrwt>
<rscale>  0 0.17903001E+04</rscale>
<asrwt>0</asrwt>
<pdfrwt beam="1">  1        1 0.21960023E+00 0.17903001E+04</pdfrwt>
<pdfrwt beam="2">  1       -1 0.74466821E-01 0.17903001E+04</pdfrwt>
<totfact> 0.12638540E+01</totfact>
</mgrwt>
</event>
<event>
 8    1  0.2402290E-028  0.2006582E+04  0.7818608E-02  0.8603549E-01
          1   -1    0    0  501    0  0.00000000000E+00  0.00000000000E+00  0.32499355648E+04  0.32499355648E+04  0.50400000000E-02 0.  1.
         -1   -1    0    0    0  501 -0.00000000000E+00 -0.00000000000E+00 -0.30972711312E+03  0.30972711316E+03  0.50400000000E-02 0. -1.
     200001    2    1    2    0    0 -0.62563769494E+03  0.35375461601E+03  0.15007446239E+04  0.18050627334E+04  0.69960859912E+03 0.  0.
    5000001    2    3    3    0    0 -0.22597864105E+03  0.39078981422E+02  0.45767763942E+03  0.54144220165E+03  0.17634433107E+03 0.  0.
        -13    1    4    4    0    0 -0.22099420433E+03  0.61743558361E+02  0.29141792780E+03  0.37091120926E+03  0.10566000000E+00 0. -1.
     200003    1    4    4    0    0 -0.49844367198E+01 -0.22664576939E+02  0.16625971162E+03  0.17053099239E+03  0.30000000000E+02 0. -1.
     200000    1    3    3    0    0 -0.39965905389E+03  0.31467563459E+03  0.10430669844E+04  0.12636205318E+04  0.50000000000E+03 0.  1.
    -200001    1    1    2    0    0  0.62563769494E+03 -0.35375461601E+03  0.14394638278E+04  0.17545999445E+04  0.70000000000E+03 0. -1.
<mgrwt>
<rscale>  0 0.20065823E+04</rscale>
<asrwt>0</asrwt>
<pdfrwt beam="1">  1        1 0.46427649E+00 0.20065823E+04</pdfrwt>
<pdfrwt beam="2">  1       -1 0.44246732E-01 0.20065823E+04</pdfrwt>
<totfact> 0.27315550E+00</totfact>
</mgrwt>
</event>
<event>
 8    1  0.2402290E-028  0.1907624E+04  0.7818608E-02  0.8651071E-01
          1   -1    0    0  501    0  0.00000000000E+00  0.00000000000E+00  0.13262380994E+04  0.13262380994E+04  0.50400000000E-02 0.  1.
         -1   -1    0    0    0  501 -0.00000000000E+00 -0.00000000000E+00 -0.68596834469E+03  0.68596834470E+03  0.50400000000E-02 0. -1.
     200001    2    1    2    0    0  0.30723732455E+03  0.25434857239E+03 -0.21837768471E+03  0.83476710594E+03  0.70004238308E+03 0.  0.
    5000001    2    3    3    0    0  0.53470298907E+02 -0.27441484748E+01  0.52712994427E+02  0.16098336709E+03  0.14237408992E+03 0.  0.
        -13    1    4    4    0    0 -0.20013490212E+02  0.49906707471E+02  0.37822188443E+01  0.53903020180E+02  0.10566000000E+00 0. -1.
     200003    1    4    4    0    0  0.73483789119E+02 -0.52650855946E+02  0.48930775583E+02  0.10708034691E+03  0.30000000000E+02 0. -1.
     200000    1    3    3    0    0  0.25376702564E+03  0.25709272087E+03 -0.27109067914E+03  0.67378373885E+03  0.50000000000E+03 0. -1.
    -200001    1    1    2    0    0 -0.30723732455E+03 -0.25434857239E+03  0.85864743945E+03  0.11774393382E+04  0.70000000000E+03 0.  1.
<mgrwt>
<rscale>  0 0.19076240E+04</rscale>
<asrwt>0</asrwt>
<pdfrwt beam="1">  1        1 0.18946259E+00 0.19076240E+04</pdfrwt>
<pdfrwt beam="2">  1       -1 0.97995478E-01 0.19076240E+04</pdfrwt>
<totfact> 0.94981744E+00</totfact>
</mgrwt>
</event>
<event>
 8    1  0.2402290E-028  0.2057308E+04  0.7818608E-02  0.8580286E-01
         -1   -1    0    0    0  501 -0.00000000000E+00  0.00000000000E+00  0.85200474966E+03  0.85200474968E+03  0.50400000000E-02 0. -1.
          1   -1    0    0  501    0  0.00000000000E+00 -0.00000000000E+00 -0.12419280813E+04  0.12419280813E+04  0.50400000000E-02 0.  1.
     200001    2    1    2    0    0  0.58175080398E+02  0.60613516995E+03  0.25664890216E+03  0.96307482142E+03  0.70061420800E+03 0.  0.
    5000001    2    3    3    0    0  0.10720750107E+03  0.16334273059E+03  0.11004339780E+03  0.27753671414E+03  0.16353220592E+03 0.  0.
        -13    1    4    4    0    0  0.34175999140E+02  0.15244868524E+03  0.12029508894E+03  0.19717890388E+03  0.10566000000E+00 0. -1.
     200003    1    4    4    0    0  0.73031501927E+02  0.10894045350E+02 -0.10251691139E+02  0.80357810255E+02  0.30000000000E+02 0. -1.
     200000    1    3    3    0    0 -0.49032420669E+02  0.44279243937E+03  0.14660550436E+03  0.68553810729E+03  0.50000000000E+03 0. -1.
    -200001    1    1    2    0    0 -0.58175080398E+02 -0.60613516995E+03 -0.64657223375E+03  0.11308580095E+04  0.70000000000E+03 0.  1.
<mgrwt>
<rscale>  0 0.20573076E+04</rscale>
<asrwt>0</asrwt>
<pdfrwt beam="1">  1        1 0.17741830E+00 0.20573076E+04</pdfrwt>
<pdfrwt beam="2">  1       -1 0.12171496E+00 0.20573076E+04</pdfrwt>
<totfact> 0.64151013E+00</totfact>
</mgrwt>
</event>
<event>
 8    1  0.2402290E-028  0.1541670E+04  0.7818608E-02  0.8857206E-01
         -1   -1    0    0    0  501 -0.00000000000E+00  0.00000000000E+00  0.68601154773E+03  0.68601154775E+03  0.50400000000E-02 0. -1.
          1   -1    0    0  501    0  0.00000000000E+00 -0.00000000000E+00 -0.86614691710E+03  0.86614691712E+03  0.50400000000E-02 0.  1.
     200001    2    1    2    0    0 -0.10349904290E+03  0.30346912436E+03 -0.12881978098E+03  0.78051162146E+03  0.69985590942E+03 0.  0.
    5000001    2    3    3    0    0  0.24724875843E+02  0.70972902016E+02 -0.41980127190E+02  0.20776648424E+03  0.18909285705E+03 0.  0.
        -13    1    4    4    0    0 -0.36876040682E+02  0.10624465635E+03  0.12841034438E+02  0.11319307713E+03  0.10566000000E+00 0. -1.
     200003    1    4    4    0    0  0.61600916524E+02 -0.35271754336E+02 -0.54821161628E+02  0.94573407113E+02  0.30000000000E+02 0. -1.
     200000    1    3    3    0    0 -0.12822391874E+03  0.23249622235E+03 -0.86839653793E+02  0.57274513722E+03  0.50000000000E+03 0. -1.
    -200001    1    1    2    0    0  0.10349904290E+03 -0.30346912436E+03 -0.51315588388E+02  0.77164684340E+03  0.70000000000E+03 0. -1.
<mgrwt>
<rscale>  0 0.15416702E+04</rscale>
<asrwt>0</asrwt>
<pdfrwt beam="1">  1        1 0.12373527E+00 0.15416702E+04</pdfrwt>
<pdfrwt beam="2">  1       -1 0.98001649E-01 0.15416702E+04</pdfrwt>
<totfact> 0.21157410E+01</totfact>
</mgrwt>
</event>
<event>
 8    1  0.2402290E-028  0.1489433E+04  0.7818608E-02  0.8891511E-01
          1   -1    0    0  501    0  0.00000000000E+00  0.00000000000E+00  0.78864400908E+03  0.78864400909E+03  0.50400000000E-02 0.  1.
         -1   -1    0    0    0  501 -0.00000000000E+00 -0.00000000000E+00 -0.70323552842E+03  0.70323552844E+03  0.50400000000E-02 0. -1.
     200001    2    1    2    0    0  0.11318476677E+03  0.21933636188E+03  0.10243383907E+03  0.74944496540E+03  0.70018271451E+03 0.  0.
    5000001    2    3    3    0    0 -0.89526466497E+01 -0.39234079118E+02 -0.70835676039E+01  0.16312569821E+03  0.15792515202E+03 0.  0.
        -13    1    4    4    0    0 -0.16563065231E+02 -0.85335816776E+02 -0.43012896228E+02  0.96987922757E+02  0.10566000000E+00 0. -1.
     200003    1    4    4    0    0  0.76104185818E+01  0.46101737658E+02  0.35929328624E+02  0.66137775450E+02  0.30000000000E+02 0. -1.
     200000    1    3    3    0    0  0.12213741342E+03  0.25857044100E+03  0.10951740667E+03  0.58631926719E+03  0.50000000000E+03 0.  1.
    -200001    1    1    2    0    0 -0.11318476677E+03 -0.21933636188E+03 -0.17025358416E+02  0.74243457214E+03  0.70000000000E+03 0.  1.
<mgrwt>
<rscale>  0 0.14894328E+04</rscale>
<asrwt>0</asrwt>
<pdfrwt beam="1">  1        1 0.11266343E+00 0.14894328E+04</pdfrwt>
<pdfrwt beam="2">  1       -1 0.10046222E+00 0.14894328E+04</pdfrwt>
<totfact> 0.23278186E+01</totfact>
</mgrwt>
</event>
<event>
 8    1  0.2402290E-028  0.1474521E+04  0.7818608E-02  0.8901575E-01
         -1   -1    0    0    0  501 -0.00000000000E+00  0.00000000000E+00  0.26409546862E+03  0.26409546866E+03  0.50400000000E-02 0. -1.
          1   -1    0    0  501    0  0.00000000000E+00 -0.00000000000E+00 -0.20581680333E+04  0.20581680333E+04  0.50400000000E-02 0.  1.
     200001    2    1    2    0    0 -0.15276084699E+03  0.50716047603E+01 -0.11714193995E+04  0.13730224569E+04  0.69971827191E+03 0.  0.
    5000001    2    3    3    0    0  0.93256599090E+01 -0.66372487328E+02 -0.38303710887E+03  0.42279988813E+03  0.16598205813E+03 0.  0.
        -13    1    4    4    0    0  0.18180020731E+00 -0.79406309155E+02 -0.64074137116E+02  0.10203382378E+03  0.10566000000E+00 0. -1.
     200003    1    4    4    0    0  0.91438597017E+01  0.13033821827E+02 -0.31896297176E+03  0.32076606434E+03  0.30000000000E+02 0. -1.
     200000    1    3    3    0    0 -0.16208650690E+03  0.71444092088E+02 -0.78838229066E+03  0.95022256879E+03  0.50000000000E+03 0.  1.
    -200001    1    1    2    0    0  0.15276084699E+03 -0.50716047603E+01 -0.62265316516E+03  0.94924104506E+03  0.70000000000E+03 0. -1.
<mgrwt>
<rscale>  0 0.14745207E+04</rscale>
<asrwt>0</asrwt>
<pdfrwt beam="1">  1        1 0.29402400E+00 0.14745207E+04</pdfrwt>
<pdfrwt beam="2">  1       -1 0.37727925E-01 0.14745207E+04</pdfrwt>
<totfact> 0.22529374E+01</totfact>
</mgrwt>
</event>
<event>
 8    1  0.2402290E-028  0.1911465E+04  0.7818608E-02  0.8649171E-01
          1   -1    0    0  501    0  0.00000000000E+00  0.00000000000E+00  0.76901213915E+03  0.76901213917E+03  0.50400000000E-02 0.  1.
         -1   -1    0    0    0  501 -0.00000000000E+00 -0.00000000000E+00 -0.11877891253E+04  0.11877891253E+04  0.50400000000E-02 0. -1.
     200001    2    1    2    0    0  0.58801379916E+03 -0.27655891614E+03 -0.24768146541E+03  0.98648237909E+03  0.69968300956E+03 0.  0.
    5000001    2    3    3    0    0  0.28543385179E+03 -0.15813160378E+03 -0.14740903228E+03  0.38180542922E+03  0.13254386113E+03 0.  0.
        -13    1    4    4    0    0  0.28410664985E+03 -0.14754634722E+03 -0.13006828257E+03  0.34554924738E+03  0.10566000000E+00 0. -1.
     200003    1    4    4    0    0  0.13272019379E+01 -0.10585256559E+02 -0.17340749708E+02  0.36256181843E+02  0.30000000000E+02 0.  1.
     200000    1    3    3    0    0  0.30257994737E+03 -0.11842731236E+03 -0.10027243313E+03  0.60467694987E+03  0.50000000000E+03 0.  1.
    -200001    1    1    2    0    0 -0.58801379916E+03  0.27655891614E+03 -0.17109552072E+03  0.97031888537E+03  0.70000000000E+03 0.  1.
<mgrwt>
<rscale>  0 0.19114646E+04</rscale>
<asrwt>0</asrwt>
<pdfrwt beam="1">  1        1 0.10985888E+00 0.19114646E+04</pdfrwt>
<pdfrwt beam="2">  1       -1 0.16968416E+00 0.19114646E+04</pdfrwt>
<totfact> 0.61358447E+00</totfact>
</mgrwt>
</event>
<event>
 8    1  0.2402290E-028  0.1786592E+04  0.7818608E-02  0.8713462E-01
         -1   -1    0    0    0  501 -0.00000000000E+00  0.00000000000E+00  0.76306008701E+03  0.76306008703E+03  0.50400000000E-02 0. -1.
          1   -1    0    0  501    0  0.00000000000E+00 -0.00000000000E+00 -0.10457603293E+04  0.10457603294E+04  0.50400000000E-02 0.  1.
     200001    2    1    2    0    0  0.11638804647E+02  0.55011497463E+03 -0.78976950900E+02  0.89543926563E+03  0.70200582090E+03 0.  0.
    5000001    2    3    3    0    0 -0.33644244352E+02  0.14797522449E+03  0.11228396126E+01  0.24722409332E+03  0.19516631192E+03 0.  0.
        -13    1    4    4    0    0 -0.85242668043E+01  0.13182586802E+03 -0.80912525997E+02  0.15491149290E+03  0.10566000000E+00 0. -1.
     200003    1    4    4    0    0 -0.25119977547E+02  0.16149356463E+02  0.82035365610E+02  0.92312600423E+02  0.30000000000E+02 0. -1.
     200000    1    3    3    0    0  0.45283048999E+02  0.40213975014E+03 -0.80099790512E+02  0.64821517231E+03  0.50000000000E+03 0. -1.
    -200001    1    1    2    0    0 -0.11638804647E+02 -0.55011497463E+03 -0.20372329144E+03  0.91338115076E+03  0.70000000000E+03 0.  1.
<mgrwt>
<rscale>  0 0.17865923E+04</rscale>
<asrwt>0</asrwt>
<pdfrwt beam="1">  1        1 0.14939433E+00 0.17865923E+04</pdfrwt>
<pdfrwt beam="2">  1       -1 0.10900858E+00 0.17865923E+04</pdfrwt>
<totfact> 0.11792002E+01</totfact>
</mgrwt>
</event>
<event>
 8    1  0.2402290E-028  0.1534165E+04  0.7818608E-02  0.8862046E-01
          1   -1    0    0  501    0  0.00000000000E+00  0.00000000000E+00  0.21939127578E+04  0.21939127579E+04  0.50400000000E-02 0.  1.
         -1   -1    0    0    0  501 -0.00000000000E+00 -0.00000000000E+00 -0.26820367644E+03  0.26820367649E+03  0.50400000000E-02 0. -1.
     200001    2    1    2    0    0  0.15377094448E+03 -0.19443544866E+03  0.65536223863E+03  0.99064378832E+03  0.70030336602E+03 0.  0.
    5000001    2    3    3    0    0  0.25677266133E+02 -0.67645071630E+02  0.20489826967E+03  0.29393611829E+03  0.19793929123E+03 0.  0.
        -13    1    4    4    0    0 -0.77994095999E+02  0.29235363229E+01  0.10493668089E+03  0.13077975469E+03  0.10566000000E+00 0. -1.
     200003    1    4    4    0    0  0.10367136213E+03 -0.70568607953E+02  0.99961588775E+02  0.16315636361E+03  0.30000000000E+02 0. -1.
     200000    1    3    3    0    0  0.12809367835E+03 -0.12679037703E+03  0.45046396897E+03  0.69670767003E+03  0.50000000000E+03 0.  1.
    -200001    1    1    2    0    0 -0.15377094448E+03  0.19443544866E+03  0.12703468428E+04  0.14714726460E+04  0.70000000000E+03 0.  1.
<mgrwt>
<rscale>  0 0.15341649E+04</rscale>
<asrwt>0</asrwt>
<pdfrwt beam="1">  1        1 0.31341613E+00 0.15341649E+04</pdfrwt>
<pdfrwt beam="2">  1       -1 0.38314808E-01 0.15341649E+04</pdfrwt>
<totfact> 0.17909020E+01</totfact>
</mgrwt>
</event>
<event>
 8    1  0.2402290E-028  0.2259881E+04  0.7818608E-02  0.8493910E-01
         -1   -1    0    0    0  501 -0.00000000000E+00  0.00000000000E+00  0.33909256889E+03  0.33909256893E+03  0.50400000000E-02 0. -1.
          1   -1    0    0  501    0  0.00000000000E+00 -0.00000000000E+00 -0.37652414297E+04  0.37652414297E+04  0.50400000000E-02 0.  1.
     200001    2    1    2    0    0 -0.51588827203E+03 -0.49973279146E+03 -0.26572121583E+04  0.28405550526E+04  0.70150052059E+03 0.  0.
    5000001    2    3    3    0    0 -0.26602388321E+03 -0.16005079021E+03 -0.10998377002E+04  0.11514040002E+04  0.14036824126E+03 0.  0.
        -13    1    4    4    0    0 -0.98859909341E+02 -0.79301022192E+02 -0.67516387116E+03  0.68695574667E+03  0.10566000000E+00 0. -1.
     200003    1    4    4    0    0 -0.16716397387E+03 -0.80749768018E+02 -0.42467382902E+03  0.46444825357E+03  0.30000000000E+02 0. -1.
     200000    1    3    3    0    0 -0.24986438882E+03 -0.33968200126E+03 -0.15573744581E+04  0.16891510523E+04  0.50000000000E+03 0. -1.
    -200001    1    1    2    0    0  0.51588827203E+03  0.49973279146E+03 -0.76893670256E+03  0.12637789461E+04  0.70000000000E+03 0. -1.
<mgrwt>
<rscale>  0 0.22598809E+04</rscale>
<asrwt>0</asrwt>
<pdfrwt beam="1">  1        1 0.53789161E+00 0.22598809E+04</pdfrwt>
<pdfrwt beam="2">  1       -1 0.48441798E-01 0.22598809E+04</pdfrwt>
<totfact> 0.97853642E-01</totfact>
</mgrwt>
</event>
<event>
 8    1  0.2402290E-028  0.1762590E+04  0.7818608E-02  0.8726450E-01
         -1   -1    0    0    0  501 -0.00000000000E+00  0.00000000000E+00  0.32988314546E+03  0.32988314549E+03  0.50400000000E-02 0. -1.
          1   -1    0    0  501    0  0.00000000000E+00 -0.00000000000E+00 -0.23544131190E+04  0.23544131190E+04  0.50400000000E-02 0.  1.
     200001    2    1    2    0    0  0.30402567101E+03  0.36982969414E+03 -0.64848063335E+03  0.10679060276E+04  0.70049306966E+03 0.  0.
    5000001    2    3    3    0    0  0.18702416915E+01  0.18432147575E+03 -0.99929304961E+02  0.24533702597E+03  0.12738322533E+03 0.  0.
        -13    1    4    4    0    0  0.76333642857E+01 -0.17145827756E+02 -0.93178984401E+00  0.18791675181E+02  0.10566000000E+00 0. -1.
     200003    1    4    4    0    0 -0.57631225942E+01  0.20146730351E+03 -0.98997515117E+02  0.22654535079E+03  0.30000000000E+02 0. -1.
     200000    1    3    3    0    0  0.30215542932E+03  0.18550821839E+03 -0.54855132839E+03  0.82256900163E+03  0.50000000000E+03 0.  1.
    -200001    1    1    2    0    0 -0.30402567101E+03 -0.36982969414E+03 -0.13760493402E+04  0.16163902369E+04  0.70000000000E+03 0.  1.
<mgrwt>
<rscale>  0 0.17625904E+04</rscale>
<asrwt>0</asrwt>
<pdfrwt beam="1">  1        1 0.33634472E+00 0.17625904E+04</pdfrwt>
<pdfrwt beam="2">  1       -1 0.47126165E-01 0.17625904E+04</pdfrwt>
<totfact> 0.94905660E+00</totfact>
</mgrwt>
</event>
<event>
 8    1  0.2402290E-028  0.1637060E+04  0.7818608E-02  0.8798099E-01
          1   -1    0    0  501    0  0.00000000000E+00  0.00000000000E+00  0.40646540202E+03  0.40646540205E+03  0.50400000000E-02 0.  1.
         -1   -1    0    0    0  501 -0.00000000000E+00 -0.00000000000E+00 -0.16483351079E+04  0.16483351080E+04  0.50400000000E-02 0. -1.
     200001    2    1    2    0    0 -0.40544270713E+03  0.58681174343E+02 -0.75844031556E+03  0.11105911876E+04  0.70025267209E+03 0.  0.
    5000001    2    3    3    0    0 -0.15936218958E+03  0.26290334028E+02 -0.21185649878E+03  0.32933664753E+03  0.19362841268E+03 0.  0.
        -13    1    4    4    0    0 -0.64986763623E+02  0.10495451511E+03 -0.82799380410E+02  0.14864211465E+03  0.10566000000E+00 0. -1.
     200003    1    4    4    0    0 -0.94375425956E+02 -0.78664181080E+02 -0.12905711837E+03  0.18069453288E+03  0.30000000000E+02 0. -1.
     200000    1    3    3    0    0 -0.24608051755E+03  0.32390840315E+02 -0.54658381678E+03  0.78125454009E+03  0.50000000000E+03 0. -1.
    -200001    1    1    2    0    0  0.40544270713E+03 -0.58681174343E+02 -0.48342939037E+03  0.94420932238E+03  0.70000000000E+03 0. -1.
<mgrwt>
<rscale>  0 0.16370598E+04</rscale>
<asrwt>0</asrwt>
<pdfrwt beam="1">  1        1 0.58066487E-01 0.16370598E+04</pdfrwt>
<pdfrwt beam="2">  1       -1 0.23547644E+00 0.16370598E+04</pdfrwt>
<totfact> 0.53974008E+00</totfact>
</mgrwt>
</event>
<event>
 8    1  0.2402290E-028  0.1434455E+04  0.7818608E-02  0.8929249E-01
         -1   -1    0    0    0  501 -0.00000000000E+00  0.00000000000E+00  0.39869472821E+03  0.39869472824E+03  0.50400000000E-02 0. -1.
          1   -1    0    0  501    0  0.00000000000E+00 -0.00000000000E+00 -0.12902477833E+04  0.12902477833E+04  0.50400000000E-02 0.  1.
     200001    2    1    2    0    0  0.52386768582E+02  0.13610883061E+02 -0.27437322906E+03  0.75414811313E+03  0.70037781094E+03 0.  0.
    5000001    2    3    3    0    0 -0.69676695230E+02  0.99319446186E+02 -0.84975954866E+02  0.19906543959E+03  0.13299226326E+03 0.  0.
        -13    1    4    4    0    0 -0.52869656162E+02  0.49464251572E+02  0.22399782257E+02  0.75787031447E+02  0.10566000000E+00 0. -1.
     200003    1    4    4    0    0 -0.16807039067E+02  0.49855194614E+02 -0.10737573712E+03  0.12327840815E+03  0.30000000000E+02 0. -1.
     200000    1    3    3    0    0  0.12206346381E+03 -0.85708563125E+02 -0.18939727420E+03  0.55508267354E+03  0.50000000000E+03 0. -1.
    -200001    1    1    2    0    0 -0.52386768582E+02 -0.13610883061E+02 -0.61717982604E+03  0.93479439843E+03  0.70000000000E+03 0.  1.
<mgrwt>
<rscale>  0 0.14344546E+04</rscale>
<asrwt>0</asrwt>
<pdfrwt beam="1">  1        1 0.18432111E+00 0.14344546E+04</pdfrwt>
<pdfrwt beam="2">  1       -1 0.56956391E-01 0.14344546E+04</pdfrwt>
<totfact> 0.32590941E+01</totfact>
</mgrwt>
</event>
<event>
 8    1  0.2402290E-028  0.2403103E+04  0.7818608E-02  0.8438343E-01
         -1   -1    0    0    0  501 -0.00000000000E+00  0.00000000000E+00  0.10890850584E+04  0.10890850584E+04  0.50400000000E-02 0. -1.
          1   -1    0    0  501    0  0.00000000000E+00 -0.00000000000E+00 -0.13256316341E+04  0.13256316341E+04  0.50400000000E-02 0.  1.
     200001    2    1    2    0    0 -0.82920330708E+03  0.40401841383E+03 -0.44082131565E+03  0.12389032836E+04  0.69982062751E+03 0.  0.
    5000001    2    3    3    0    0 -0.23788195233E+03  0.16066007145E+03 -0.14117840912E+03  0.37364603933E+03  0.19308168660E+03 0.  0.
        -13    1    4    4    0    0 -0.17934482634E+03  0.18507208016E+02 -0.33014089865E+02  0.18329491204E+03  0.10566000000E+00 0. -1.
     200003    1    4    4    0    0 -0.58537125986E+02  0.14215286344E+03 -0.10816431925E+03  0.19035112729E+03  0.30000000000E+02 0. -1.
     200000    1    3    3    0    0 -0.59132135475E+03  0.24335834237E+03 -0.29964290653E+03  0.86525724431E+03  0.50000000000E+03 0.  1.
    -200001    1    1    2    0    0  0.82920330708E+03 -0.40401841383E+03  0.20427473995E+03  0.11758134089E+04  0.70000000000E+03 0. -1.
<mgrwt>
<rscale>  0 0.24031027E+04</rscale>
<asrwt>0</asrwt>
<pdfrwt beam="1">  1        1 0.18937595E+00 0.24031027E+04</pdfrwt>
<pdfrwt beam="2">  1       -1 0.15558358E+00 0.24031027E+04</pdfrwt>
<totfact> 0.28879207E+00</totfact>
</mgrwt>
</event>
<event>
 8    1  0.2402290E-028  0.1704513E+04  0.7818608E-02  0.8758795E-01
         -1   -1    0    0    0  501 -0.00000000000E+00  0.00000000000E+00  0.37989704872E+03  0.37989704876E+03  0.50400000000E-02 0. -1.
          1   -1    0    0  501    0  0.00000000000E+00 -0.00000000000E+00 -0.19119416927E+04  0.19119416927E+04  0.50400000000E-02 0.  1.
     200001    2    1    2    0    0 -0.38381001366E+03  0.36643358010E+02 -0.11636617163E+04  0.14118621261E+04  0.70042359375E+03 0.  0.
    5000001    2    3    3    0    0 -0.18119040758E+03  0.49783113266E+02 -0.34877430241E+03  0.43448356312E+03  0.17839319055E+03 0.  0.
        -13    1    4    4    0    0 -0.25235582010E+02  0.82444162710E+02 -0.18459487844E+03  0.20373795639E+03  0.10566000000E+00 0. -1.
     200003    1    4    4    0    0 -0.15595482557E+03 -0.32661049444E+02 -0.16417942397E+03  0.23074560673E+03  0.30000000000E+02 0. -1.
     200000    1    3    3    0    0 -0.20261960608E+03 -0.13139755256E+02 -0.81488741393E+03  0.97737856295E+03  0.50000000000E+03 0.  1.
    -200001    1    1    2    0    0  0.38381001366E+03 -0.36643358010E+02 -0.36838292765E+03  0.87997661540E+03  0.70000000000E+03 0.  1.
<mgrwt>
<rscale>  0 0.17045128E+04</rscale>
<asrwt>0</asrwt>
<pdfrwt beam="1">  1        1 0.27313452E+00 0.17045128E+04</pdfrwt>
<pdfrwt beam="2">  1       -1 0.54271008E-01 0.17045128E+04</pdfrwt>
<totfact> 0.13845393E+01</totfact>
</mgrwt>
</event>
<event>
 8    1  0.2402290E-028  0.1767945E+04  0.7818608E-02  0.8723534E-01
         -1   -1    0    0    0  501 -0.00000000000E+00  0.00000000000E+00  0.86551807768E+03  0.86551807770E+03  0.50400000000E-02 0. -1.
          1   -1    0    0  501    0  0.00000000000E+00 -0.00000000000E+00 -0.90282010947E+03  0.90282010948E+03  0.50400000000E-02 0.  1.
     200001    2    1    2    0    0 -0.32821582787E+03  0.35005889242E+03  0.22425535393E+03  0.88026210719E+03  0.70306760397E+03 0.  0.
    5000001    2    3    3    0    0 -0.12211409618E+03 -0.15725248776E+02 -0.60358318282E+02  0.16802555648E+03  0.97109861027E+02 0.  0.
        -13    1    4    4    0    0 -0.30026627239E+02 -0.46117577923E+02 -0.25968590111E+02  0.60850703967E+02  0.10566000000E+00 0. -1.
     200003    1    4    4    0    0 -0.92087468943E+02  0.30392329147E+02 -0.34389728171E+02  0.10717485251E+03  0.30000000000E+02 0. -1.
     200000    1    3    3    0    0 -0.20610173169E+03  0.36578414120E+03  0.28461367221E+03  0.71223655071E+03  0.50000000000E+03 0. -1.
    -200001    1    1    2    0    0  0.32821582787E+03 -0.35005889242E+03 -0.26155738572E+03  0.88807607999E+03  0.70000000000E+03 0. -1.
<mgrwt>
<rscale>  0 0.17679447E+04</rscale>
<asrwt>0</asrwt>
<pdfrwt beam="1">  1        1 0.12897430E+00 0.17679447E+04</pdfrwt>
<pdfrwt beam="2">  1       -1 0.12364544E+00 0.17679447E+04</pdfrwt>
<totfact> 0.11191004E+01</totfact>
</mgrwt>
</event>
<event>
 8    1  0.2402290E-028  0.1653975E+04  0.7818608E-02  0.8788058E-01
          1   -1    0    0  501    0  0.00000000000E+00  0.00000000000E+00  0.27998892460E+04  0.27998892460E+04  0.50400000000E-02 0.  1.
         -1   -1    0    0    0  501 -0.00000000000E+00 -0.00000000000E+00 -0.24426271796E+03  0.24426271801E+03  0.50400000000E-02 0. -1.
     200001    2    1    2    0    0 -0.37425017776E+03 -0.16800532805E+03  0.15737660709E+04  0.17704412657E+04  0.69959534264E+03 0.  0.
    5000001    2    3    3    0    0 -0.95724089620E+02 -0.43060431149E+02  0.34687718685E+03  0.41086620601E+03  0.19357157441E+03 0.  0.
        -13    1    4    4    0    0  0.38141181860E-01 -0.10307663602E+03  0.17111313463E+03  0.19976113324E+03  0.10566000000E+00 0. -1.
     200003    1    4    4    0    0 -0.95762230802E+02  0.60016204867E+02  0.17576405223E+03  0.21110507277E+03  0.30000000000E+02 0. -1.
     200000    1    3    3    0    0 -0.27852608814E+03 -0.12494489690E+03  0.12268888840E+04  0.13595750596E+04  0.50000000000E+03 0.  1.
    -200001    1    1    2    0    0  0.37425017776E+03  0.16800532805E+03  0.98186045715E+03  0.12737106984E+04  0.70000000000E+03 0. -1.
<mgrwt>
<rscale>  0 0.16539753E+04</rscale>
<asrwt>0</asrwt>
<pdfrwt beam="1">  1        1 0.39998414E+00 0.16539753E+04</pdfrwt>
<pdfrwt beam="2">  1       -1 0.34894677E-01 0.16539753E+04</pdfrwt>
<totfact> 0.86343139E+00</totfact>
</mgrwt>
</event>
<event>
 8    1  0.2402290E-028  0.1456140E+04  0.7818608E-02  0.8914155E-01
          1   -1    0    0  501    0  0.00000000000E+00  0.00000000000E+00  0.33573206792E+04  0.33573206792E+04  0.50400000000E-02 0.  1.
         -1   -1    0    0    0  501 -0.00000000000E+00 -0.00000000000E+00 -0.15788953891E+03  0.15788953899E+03  0.50400000000E-02 0. -1.
     200001    2    1    2    0    0 -0.11220242595E+03 -0.12577289389E+03  0.13298704244E+04  0.15117967622E+04  0.69897489174E+03 0.  0.
    5000001    2    3    3    0    0 -0.49612598789E+02 -0.74077197067E+02  0.20256242665E+03  0.27591114722E+03  0.16476220254E+03 0.  0.
        -13    1    4    4    0    0 -0.45338008178E+02 -0.21123321659E+02  0.20868313205E+03  0.21459354713E+03  0.10566000000E+00 0. -1.
     200003    1    4    4    0    0 -0.42745906110E+01 -0.52953875408E+02 -0.61207054050E+01  0.61317600086E+02  0.30000000000E+02 0. -1.
     200000    1    3    3    0    0 -0.62589827165E+02 -0.51695696819E+02  0.11273079977E+04  0.12358856150E+04  0.50000000000E+03 0. -1.
    -200001    1    1    2    0    0  0.11220242595E+03  0.12577289389E+03  0.18695607159E+04  0.20034134560E+04  0.70000000000E+03 0.  1.
<mgrwt>
<rscale>  0 0.14561398E+04</rscale>
<asrwt>0</asrwt>
<pdfrwt beam="1">  1        1 0.47961722E+00 0.14561398E+04</pdfrwt>
<pdfrwt beam="2">  1       -1 0.22555649E-01 0.14561398E+04</pdfrwt>
<totfact> 0.80137466E+00</totfact>
</mgrwt>
</event>
<event>
 8    1  0.2402290E-028  0.1949736E+04  0.7818608E-02  0.8630488E-01
         -1   -1    0    0    0  501 -0.00000000000E+00  0.00000000000E+00  0.72133454766E+03  0.72133454768E+03  0.50400000000E-02 0. -1.
          1   -1    0    0  501    0  0.00000000000E+00 -0.00000000000E+00 -0.13175123133E+04  0.13175123133E+04  0.50400000000E-02 0.  1.
     200001    2    1    2    0    0  0.25784161285E+03 -0.62743756128E+03 -0.27623927245E+03  0.10129224827E+04  0.69967394524E+03 0.  0.
    5000001    2    3    3    0    0  0.12848004994E+03 -0.20034198570E+03 -0.20269811227E+03  0.33871676713E+03  0.13037825412E+03 0.  0.
        -13    1    4    4    0    0  0.90343538838E+02 -0.80042250454E+02 -0.16346219117E+03  0.20319600383E+03  0.10566000000E+00 0. -1.
     200003    1    4    4    0    0  0.38136511097E+02 -0.12029973525E+03 -0.39235921102E+02  0.13552076330E+03  0.30000000000E+02 0. -1.
     200000    1    3    3    0    0  0.12936156292E+03 -0.42709557557E+03 -0.73541160180E+02  0.67420571555E+03  0.50000000000E+03 0.  1.
    -200001    1    1    2    0    0 -0.25784161285E+03  0.62743756128E+03 -0.31993849322E+03  0.10259243783E+04  0.70000000000E+03 0. -1.
<mgrwt>
<rscale>  0 0.19497355E+04</rscale>
<asrwt>0</asrwt>
<pdfrwt beam="1">  1        1 0.18821604E+00 0.19497355E+04</pdfrwt>
<pdfrwt beam="2">  1       -1 0.10304779E+00 0.19497355E+04</pdfrwt>
<totfact> 0.85490233E+00</totfact>
</mgrwt>
</event>
<event>
 8    1  0.2402290E-028  0.1828297E+04  0.7818608E-02  0.8691394E-01
         -1   -1    0    0    0  501 -0.00000000000E+00  0.00000000000E+00  0.33110867881E+03  0.33110867885E+03  0.50400000000E-02 0. -1.
          1   -1    0    0  501    0  0.00000000000E+00 -0.00000000000E+00 -0.25238477826E+04  0.25238477826E+04  0.50400000000E-02 0.  1.
     200001    2    1    2    0    0  0.30017570984E+02 -0.56131990304E+03 -0.82292365602E+03  0.12171605496E+04  0.69878134751E+03 0.  0.
    5000001    2    3    3    0    0 -0.97848645107E+02 -0.22097796318E+03 -0.34198417818E+03  0.43390759769E+03  0.11365301427E+03 0.  0.
        -13    1    4    4    0    0 -0.54678304208E+02 -0.20492739326E+03 -0.27167057110E+03  0.34465905447E+03  0.10566000000E+00 0. -1.
     200003    1    4    4    0    0 -0.43170340900E+02 -0.16050569921E+02 -0.70313607076E+02  0.89248543228E+02  0.30000000000E+02 0. -1.
     200000    1    3    3    0    0  0.12786621609E+03 -0.34034193985E+03 -0.48093947785E+03  0.78325295186E+03  0.50000000000E+03 0. -1.
    -200001    1    1    2    0    0 -0.30017570984E+02  0.56131990304E+03 -0.13698154478E+04  0.16377959119E+04  0.70000000000E+03 0.  1.
<mgrwt>
<rscale>  0 0.18282975E+04</rscale>
<asrwt>0</asrwt>
<pdfrwt beam="1">  1        1 0.36054967E+00 0.18282975E+04</pdfrwt>
<pdfrwt beam="2">  1       -1 0.47301242E-01 0.18282975E+04</pdfrwt>
<totfact> 0.73163387E+00</totfact>
</mgrwt>
</event>
<event>
 8    1  0.2402290E-028  0.1975007E+04  0.7818608E-02  0.8618395E-01
         -1   -1    0    0    0  501 -0.00000000000E+00  0.00000000000E+00  0.63763100342E+03  0.63763100344E+03  0.50400000000E-02 0.  1.
          1   -1    0    0  501    0  0.00000000000E+00 -0.00000000000E+00 -0.15293541785E+04  0.15293541785E+04  0.50400000000E-02 0. -1.
     200001    2    1    2    0    0 -0.34292553895E+03  0.39045655782E+03  0.63061116649E+02  0.87405544969E+03  0.69995855298E+03 0.  0.
    5000001    2    3    3    0    0 -0.51316429977E+02  0.16674537068E+03 -0.65545554990E+01  0.24961257040E+03  0.17839865043E+03 0.  0.
        -13    1    4    4    0    0 -0.87563719837E+02  0.13386732878E+03  0.51425405580E+02  0.16802514767E+03  0.10566000000E+00 0. -1.
     200003    1    4    4    0    0  0.36247289860E+02  0.32878041899E+02 -0.57979961079E+02  0.81587422732E+02  0.30000000000E+02 0. -1.
     200000    1    3    3    0    0 -0.29160910898E+03  0.22371118715E+03  0.69615672148E+02  0.62444287929E+03  0.50000000000E+03 0.  1.
    -200001    1    1    2    0    0  0.34292553895E+03 -0.39045655782E+03 -0.95478429172E+03  0.12929297322E+04  0.70000000000E+03 0. -1.
<mgrwt>
<rscale>  0 0.19750075E+04</rscale>
<asrwt>0</asrwt>
<pdfrwt beam="1">  1        1 0.21847917E+00 0.19750075E+04</pdfrwt>
<pdfrwt beam="2">  1       -1 0.91090144E-01 0.19750075E+04</pdfrwt>
<totfact> 0.81654556E+00</totfact>
</mgrwt>
</event>
<event>
 8    1  0.2402290E-028  0.1453058E+04  0.7818608E-02  0.8916283E-01
          1   -1    0    0  501    0  0.00000000000E+00  0.00000000000E+00  0.10643360837E+04  0.10643360837E+04  0.50400000000E-02 0.  1.
         -1   -1    0    0    0  501 -0.00000000000E+00 -0.00000000000E+00 -0.49593742492E+03  0.49593742494E+03  0.50400000000E-02 0. -1.
     200001    2    1    2    0    0  0.18764784247E+03 -0.59331114112E+02  0.29964457721E+03  0.78505699032E+03  0.69842373350E+03 0.  0.
    5000001    2    3    3    0    0  0.66787895144E+02 -0.61461055446E+02  0.13415997316E+02  0.19638181379E+03  0.17363105578E+03 0.  0.
        -13    1    4    4    0    0  0.51802240983E+02 -0.57355741196E+02 -0.71316141754E+02  0.10516252402E+03  0.10566000000E+00 0. -1.
     200003    1    4    4    0    0  0.14985654162E+02 -0.41053142500E+01  0.84732139070E+02  0.91219289776E+02  0.30000000000E+02 0. -1.
     200000    1    3    3    0    0  0.12085994732E+03  0.21299413334E+01  0.28622857989E+03  0.58867517653E+03  0.50000000000E+03 0.  1.
    -200001    1    1    2    0    0 -0.18764784247E+03  0.59331114112E+02  0.26875408154E+03  0.77521651829E+03  0.70000000000E+03 0. -1.
<mgrwt>
<rscale>  0 0.14530576E+04</rscale>
<asrwt>0</asrwt>
<pdfrwt beam="1">  1        1 0.15204801E+00 0.14530576E+04</pdfrwt>
<pdfrwt beam="2">  1       -1 0.70848203E-01 0.14530576E+04</pdfrwt>
<totfact> 0.30272649E+01</totfact>
</mgrwt>
</event>
<event>
 8    1  0.2402290E-028  0.1678909E+04  0.7818608E-02  0.8773485E-01
         -1   -1    0    0    0  501 -0.00000000000E+00  0.00000000000E+00  0.22853626418E+03  0.22853626423E+03  0.50400000000E-02 0. -1.
          1   -1    0    0  501    0  0.00000000000E+00 -0.00000000000E+00 -0.30834672862E+04  0.30834672862E+04  0.50400000000E-02 0.  1.
     200001    2    1    2    0    0 -0.61430580108E+02 -0.35443011076E+03 -0.20043047803E+04  0.21531422893E+04  0.69956389687E+03 0.  0.
    5000001    2    3    3    0    0 -0.70737284851E+02 -0.24698055160E+03 -0.65466887371E+03  0.70983043698E+03  0.96253616678E+02 0.  0.
        -13    1    4    4    0    0 -0.63070968876E+02 -0.92606391647E+02 -0.33968992903E+03  0.35769141720E+03  0.10566000000E+00 0. -1.
     200003    1    4    4    0    0 -0.76663159754E+01 -0.15437415996E+03 -0.31497894468E+03  0.35213901978E+03  0.30000000000E+02 0. -1.
     200000    1    3    3    0    0  0.93067047439E+01 -0.10744955916E+03 -0.13496359066E+04  0.14433118523E+04  0.50000000000E+03 0.  1.
    -200001    1    1    2    0    0  0.61430580108E+02  0.35443011076E+03 -0.85062624170E+03  0.11588612612E+04  0.70000000000E+03 0. -1.
<mgrwt>
<rscale>  0 0.16789093E+04</rscale>
<asrwt>0</asrwt>
<pdfrwt beam="1">  1        1 0.44049530E+00 0.16789093E+04</pdfrwt>
<pdfrwt beam="2">  1       -1 0.32648040E-01 0.16789093E+04</pdfrwt>
<totfact> 0.63216490E+00</totfact>
</mgrwt>
</event>
<event>
 8    1  0.2402290E-028  0.1578940E+04  0.7818608E-02  0.8833591E-01
          1   -1    0    0  501    0  0.00000000000E+00  0.00000000000E+00  0.11543764960E+04  0.11543764960E+04  0.50400000000E-02 0.  1.
         -1   -1    0    0    0  501 -0.00000000000E+00 -0.00000000000E+00 -0.53991316598E+03  0.53991316600E+03  0.50400000000E-02 0. -1.
     200001    2    1    2    0    0  0.58556129470E+02 -0.25410316896E+03  0.58072837147E+03  0.94653616772E+03  0.70049128089E+03 0.  0.
    5000001    2    3    3    0    0 -0.16388536371E+02 -0.59219871033E+02  0.26611471313E+03  0.31997575023E+03  0.16670891681E+03 0.  0.
        -13    1    4    4    0    0 -0.74167882468E+02  0.10566655034E+02  0.73187209766E+02  0.10473255380E+03  0.10566000000E+00 0. -1.
     200003    1    4    4    0    0  0.57779346097E+02 -0.69786526068E+02  0.19292750336E+03  0.21524319643E+03  0.30000000000E+02 0. -1.
     200000    1    3    3    0    0  0.74944665841E+02 -0.19488329792E+03  0.31461365835E+03  0.62656041749E+03  0.50000000000E+03 0.  1.
    -200001    1    1    2    0    0 -0.58556129470E+02  0.25410316896E+03  0.33734958535E+02  0.74775349427E+03  0.70000000000E+03 0.  1.
<mgrwt>
<rscale>  0 0.15789402E+04</rscale>
<asrwt>0</asrwt>
<pdfrwt beam="1">  1        1 0.16491093E+00 0.15789402E+04</pdfrwt>
<pdfrwt beam="2">  1       -1 0.77130453E-01 0.15789402E+04</pdfrwt>
<totfact> 0.21635264E+01</totfact>
</mgrwt>
</event>
<event>
 8    1  0.2402290E-028  0.1512641E+04  0.7818608E-02  0.8876090E-01
         -1   -1    0    0    0  501 -0.00000000000E+00  0.00000000000E+00  0.69274505908E+03  0.69274505909E+03  0.50400000000E-02 0. -1.
          1   -1    0    0  501    0  0.00000000000E+00 -0.00000000000E+00 -0.82573068235E+03  0.82573068237E+03  0.50400000000E-02 0.  1.
     200001    2    1    2    0    0 -0.80499401062E+02  0.10474626850E+03  0.18880259615E+03  0.73681111229E+03  0.69985159895E+03 0.  0.
    5000001    2    3    3    0    0 -0.85233262809E+01  0.11017564169E+03 -0.28452807736E+02  0.18689298752E+03  0.14801387572E+03 0.  0.
        -13    1    4    4    0    0  0.46516366067E+02  0.11250706672E+03 -0.23300176712E+02  0.12395370819E+03  0.10566000000E+00 0. -1.
     200003    1    4    4    0    0 -0.55039692348E+02 -0.23314250369E+01 -0.51526310234E+01  0.62939279332E+02  0.30000000000E+02 0. -1.
     200000    1    3    3    0    0 -0.71976074781E+02 -0.54293731908E+01  0.21725540388E+03  0.54991812477E+03  0.50000000000E+03 0. -1.
    -200001    1    1    2    0    0  0.80499401062E+02 -0.10474626850E+03 -0.32178821942E+03  0.78166462917E+03  0.70000000000E+03 0.  1.
<mgrwt>
<rscale>  0 0.15126412E+04</rscale>
<asrwt>0</asrwt>
<pdfrwt beam="1">  1        1 0.11796153E+00 0.15126412E+04</pdfrwt>
<pdfrwt beam="2">  1       -1 0.98963580E-01 0.15126412E+04</pdfrwt>
<totfact> 0.22382341E+01</totfact>
</mgrwt>
</event>
<event>
 8    1  0.2402290E-028  0.1605899E+04  0.7818608E-02  0.8816932E-01
          1   -1    0    0  501    0  0.00000000000E+00  0.00000000000E+00  0.11672037042E+04  0.11672037042E+04  0.50400000000E-02 0. -1.
         -1   -1    0    0    0  501 -0.00000000000E+00 -0.00000000000E+00 -0.55236941308E+03  0.55236941310E+03  0.50400000000E-02 0.  1.
     200001    2    1    2    0    0 -0.24591022581E+03 -0.22124465235E+03  0.79373701309E+02  0.77822351244E+03  0.69993615102E+03 0.  0.
    5000001    2    3    3    0    0 -0.54001053028E+02 -0.17806137710E+03 -0.48601375046E+01  0.23435839547E+03  0.14240178666E+03 0.  0.
        -13    1    4    4    0    0  0.44213228000E+02 -0.27736019023E+02 -0.33043007768E+01  0.52297474596E+02  0.10566000000E+00 0. -1.
     200003    1    4    4    0    0 -0.98214281028E+02 -0.15032535808E+03 -0.15558367278E+01  0.18206092087E+03  0.30000000000E+02 0. -1.
     200000    1    3    3    0    0 -0.19190917278E+03 -0.43183275242E+02  0.84233838813E+02  0.54386511697E+03  0.50000000000E+03 0.  1.
    -200001    1    1    2    0    0  0.24591022581E+03  0.22124465235E+03  0.53546058983E+03  0.94134960488E+03  0.70000000000E+03 0. -1.
<mgrwt>
<rscale>  0 0.16058987E+04</rscale>
<asrwt>0</asrwt>
<pdfrwt beam="1">  1        1 0.16674339E+00 0.16058987E+04</pdfrwt>
<pdfrwt beam="2">  1       -1 0.78909917E-01 0.16058987E+04</pdfrwt>
<totfact> 0.20147597E+01</totfact>
</mgrwt>
</event>
<event>
 8    1  0.2402290E-028  0.1724653E+04  0.7818608E-02  0.8747428E-01
          1   -1    0    0  501    0  0.00000000000E+00  0.00000000000E+00  0.28575525517E+04  0.28575525517E+04  0.50400000000E-02 0.  1.
         -1   -1    0    0    0  501 -0.00000000000E+00 -0.00000000000E+00 -0.26022498589E+03  0.26022498594E+03  0.50400000000E-02 0. -1.
     200001    2    1    2    0    0 -0.33628064289E+03 -0.19983941196E+03  0.72508420191E+03  0.10810361022E+04  0.69990820323E+03 0.  0.
    5000001    2    3    3    0    0 -0.11484339229E+03 -0.11914005753E+03  0.28242482977E+03  0.37287357738E+03  0.17857088837E+03 0.  0.
        -13    1    4    4    0    0  0.72410589527E+01  0.22129335154E+02  0.12402365688E+03  0.12619040787E+03  0.10566000000E+00 0. -1.
     200003    1    4    4    0    0 -0.12208445124E+03 -0.14126939268E+03  0.15840117290E+03  0.24668316951E+03  0.30000000000E+02 0. -1.
     200000    1    3    3    0    0 -0.22143725060E+03 -0.80699354432E+02  0.44265937214E+03  0.70816252478E+03  0.50000000000E+03 0. -1.
    -200001    1    1    2    0    0  0.33628064289E+03  0.19983941196E+03  0.18722433639E+04  0.20367414355E+04  0.70000000000E+03 0.  1.
<mgrwt>
<rscale>  0 0.17246525E+04</rscale>
<asrwt>0</asrwt>
<pdfrwt beam="1">  1        1 0.40822179E+00 0.17246525E+04</pdfrwt>
<pdfrwt beam="2">  1       -1 0.37174998E-01 0.17246525E+04</pdfrwt>
<totfact> 0.70238477E+00</totfact>
</mgrwt>
</event>
<event>
 8    1  0.2402290E-028  0.3354290E+04  0.7818608E-02  0.8149217E-01
         -1   -1    0    0    0  501 -0.00000000000E+00  0.00000000000E+00  0.78042514829E+03  0.78042514830E+03  0.50400000000E-02 0. -1.
          1   -1    0    0  501    0  0.00000000000E+00 -0.00000000000E+00 -0.36042090539E+04  0.36042090539E+04  0.50400000000E-02 0.  1.
     200001    2    1    2    0    0  0.47164511582E+02 -0.13487667576E+04 -0.48619080333E+03  0.15961332125E+04  0.69990247704E+03 0.  0.
    5000001    2    3    3    0    0  0.34858768375E+02 -0.43095424050E+03 -0.24844222489E+03  0.52419308622E+03  0.16161114254E+03 0.  0.
        -13    1    4    4    0    0 -0.15456386774E+02 -0.27723901995E+02  0.18817775654E+02  0.36900331686E+02  0.10566000000E+00 0. -1.
     200003    1    4    4    0    0  0.50315155149E+02 -0.40323033851E+03 -0.26726000055E+03  0.48729275454E+03  0.30000000000E+02 0. -1.
     200000    1    3    3    0    0  0.12305743207E+02 -0.91781251709E+03 -0.23774857844E+03  0.10719401263E+04  0.50000000000E+03 0.  1.
    -200001    1    1    2    0    0 -0.47164511582E+02  0.13487667576E+04 -0.23375931023E+04  0.27885009897E+04  0.70000000000E+03 0.  1.
<mgrwt>
<rscale>  0 0.33542900E+04</rscale>
<asrwt>0</asrwt>
<pdfrwt beam="1">  1        1 0.51488700E+00 0.33542900E+04</pdfrwt>
<pdfrwt beam="2">  1       -1 0.11148931E+00 0.33542900E+04</pdfrwt>
<totfact> 0.20204192E-01</totfact>
</mgrwt>
</event>
<event>
 8    1  0.2402290E-028  0.1720657E+04  0.7818608E-02  0.8749670E-01
          1   -1    0    0  501    0  0.00000000000E+00  0.00000000000E+00  0.27342378638E+03  0.27342378642E+03  0.50400000000E-02 0.  1.
         -1   -1    0    0    0  501 -0.00000000000E+00 -0.00000000000E+00 -0.27070263237E+04  0.27070263238E+04  0.50400000000E-02 0. -1.
     200001    2    1    2    0    0 -0.36821417489E+03  0.26613581752E+03 -0.80889462113E+03  0.11539546229E+04  0.68621484365E+03 0.  0.
    5000001    2    3    3    0    0 -0.99288661239E+02 -0.11243579741E+02 -0.22626134914E+03  0.29446536086E+03  0.15978421166E+03 0.  0.
        -13    1    4    4    0    0 -0.11043464222E+03 -0.35090183216E+02 -0.22664903886E+03  0.25455240942E+03  0.10566000000E+00 0. -1.
     200003    1    4    4    0    0  0.11145980982E+02  0.23846603475E+02  0.38768972404E+00  0.39912951440E+02  0.30000000000E+02 0. -1.
     200000    1    3    3    0    0 -0.26892551365E+03  0.27737939726E+03 -0.58263327199E+03  0.85948926203E+03  0.50000000000E+03 0.  1.
    -200001    1    1    2    0    0  0.36821417489E+03 -0.26613581752E+03 -0.16247079162E+04  0.18264954873E+04  0.70000000000E+03 0.  1.
<mgrwt>
<rscale>  0 0.17206573E+04</rscale>
<asrwt>0</asrwt>
<pdfrwt beam="1">  1        1 0.39060543E-01 0.17206573E+04</pdfrwt>
<pdfrwt beam="2">  1       -1 0.38671803E+00 0.17206573E+04</pdfrwt>
<totfact> 0.91767557E-01</totfact>
</mgrwt>
</event>
<event>
 8    1  0.2402290E-028  0.2451400E+04  0.7818608E-02  0.8420507E-01
         -1   -1    0    0    0  501 -0.00000000000E+00  0.00000000000E+00  0.13202842171E+04  0.13202842171E+04  0.50400000000E-02 0. -1.
          1   -1    0    0  501    0  0.00000000000E+00 -0.00000000000E+00 -0.11378919488E+04  0.11378919488E+04  0.50400000000E-02 0.  1.
     200001    2    1    2    0    0 -0.34764984820E+02 -0.77760486990E+03 -0.55033503956E+03  0.11803783549E+04  0.69609372012E+03 0.  0.
    5000001    2    3    3    0    0 -0.13003477998E+03 -0.33327895882E+03 -0.24924874642E+03  0.44067922350E+03  0.63947885374E+02 0.  0.
        -13    1    4    4    0    0 -0.75688066325E+02 -0.19861784174E+03 -0.17233973405E+03  0.27363977331E+03  0.10566000000E+00 0. -1.
     200003    1    4    4    0    0 -0.54346713657E+02 -0.13466111708E+03 -0.76909012364E+02  0.16703945019E+03  0.30000000000E+02 0. -1.
     200000    1    3    3    0    0  0.95269795162E+02 -0.44432591108E+03 -0.30108629315E+03  0.73969913144E+03  0.50000000000E+03 0.  1.
    -200001    1    1    2    0    0  0.34764984820E+02  0.77760486990E+03  0.73272730789E+03  0.12777978109E+04  0.70000000000E+03 0. -1.
<mgrwt>
<rscale>  0 0.24514002E+04</rscale>
<asrwt>0</asrwt>
<pdfrwt beam="1">  1        1 0.16255599E+00 0.24514002E+04</pdfrwt>
<pdfrwt beam="2">  1       -1 0.18861203E+00 0.24514002E+04</pdfrwt>
<totfact> 0.22189504E+00</totfact>
</mgrwt>
</event>
<event>
 8    1  0.2402290E-028  0.1624707E+04  0.7818608E-02  0.8805511E-01
         -1   -1    0    0    0  501 -0.00000000000E+00  0.00000000000E+00  0.14490643550E+04  0.14490643550E+04  0.50400000000E-02 0. -1.
          1   -1    0    0  501    0  0.00000000000E+00 -0.00000000000E+00 -0.45541011952E+03  0.45541011954E+03  0.50400000000E-02 0.  1.
     200001    2    1    2    0    0 -0.22592434711E+02  0.40333830258E+03  0.59439284673E+03  0.10030301552E+04  0.69969595645E+03 0.  0.
    5000001    2    3    3    0    0  0.53383683548E+02  0.13061542998E+03  0.17000484256E+03  0.28870857921E+03  0.18585152406E+03 0.  0.
        -13    1    4    4    0    0  0.44048200313E+02  0.16450361961E+03  0.81347731442E+02  0.18873036160E+03  0.10566000000E+00 0. -1.
     200003    1    4    4    0    0  0.93354832348E+01 -0.33888189628E+02  0.88657111119E+02  0.99978217605E+02  0.30000000000E+02 0. -1.
     200000    1    3    3    0    0 -0.75976118259E+02  0.27272287260E+03  0.42438800417E+03  0.71432157595E+03  0.50000000000E+03 0. -1.
    -200001    1    1    2    0    0  0.22592434711E+02 -0.40333830258E+03  0.39926138877E+03  0.90144431941E+03  0.70000000000E+03 0. -1.
<mgrwt>
<rscale>  0 0.16247074E+04</rscale>
<asrwt>0</asrwt>
<pdfrwt beam="1">  1        1 0.65058588E-01 0.16247074E+04</pdfrwt>
<pdfrwt beam="2">  1       -1 0.20700920E+00 0.16247074E+04</pdfrwt>
<totfact> 0.72015270E+00</totfact>
</mgrwt>
</event>
<event>
 8    1  0.2402290E-028  0.1478844E+04  0.7818608E-02  0.8898644E-01
         -1   -1    0    0    0  501 -0.00000000000E+00  0.00000000000E+00  0.69850138081E+03  0.69850138083E+03  0.50400000000E-02 0. -1.
          1   -1    0    0  501    0  0.00000000000E+00 -0.00000000000E+00 -0.78274036608E+03  0.78274036609E+03  0.50400000000E-02 0.  1.
     200001    2    1    2    0    0 -0.96236299029E+02  0.21508198245E+03  0.52962861157E+01  0.73724023533E+03  0.69855094984E+03 0.  0.
    5000001    2    3    3    0    0 -0.12628037281E+03  0.87400034269E+02  0.28649138368E+02  0.21979392703E+03  0.15460626988E+03 0.  0.
        -13    1    4    4    0    0 -0.14715623378E+03  0.91020418102E+02  0.46194016873E+02  0.17909096016E+03  0.10566000000E+00 0. -1.
     200003    1    4    4    0    0  0.20875860975E+02 -0.36203838336E+01 -0.17544878505E+02  0.40702966873E+02  0.30000000000E+02 0. -1.
     200000    1    3    3    0    0  0.30044073778E+02  0.12768194818E+03 -0.23352852252E+02  0.51744630830E+03  0.50000000000E+03 0. -1.
    -200001    1    1    2    0    0  0.96236299029E+02 -0.21508198245E+03 -0.89535271386E+02  0.74400151159E+03  0.70000000000E+03 0.  1.
<mgrwt>
<rscale>  0 0.14788444E+04</rscale>
<asrwt>0</asrwt>
<pdfrwt beam="1">  1        1 0.11182005E+00 0.14788444E+04</pdfrwt>
<pdfrwt beam="2">  1       -1 0.99785912E-01 0.14788444E+04</pdfrwt>
<totfact> 0.23937586E+01</totfact>
</mgrwt>
</event>
<event>
 8    1  0.2402290E-028  0.1956228E+04  0.7818608E-02  0.8627363E-01
          1   -1    0    0  501    0  0.00000000000E+00  0.00000000000E+00  0.28085181782E+04  0.28085181782E+04  0.50400000000E-02 0.  1.
         -1   -1    0    0    0  501 -0.00000000000E+00 -0.00000000000E+00 -0.34064471652E+03  0.34064471656E+03  0.50400000000E-02 0. -1.
     200001    2    1    2    0    0  0.65389077373E+03  0.18299436608E+03  0.11118914844E+04  0.14789092599E+04  0.69986416114E+03 0.  0.
    5000001    2    3    3    0    0  0.11847896364E+02  0.60578361431E+02  0.44148115085E+02  0.13084374325E+03  0.10658760978E+03 0.  0.
        -13    1    4    4    0    0 -0.34589065178E+02  0.53514757751E+02  0.75457604959E+01  0.64165274039E+02  0.10566000000E+00 0. -1.
     200003    1    4    4    0    0  0.46436961542E+02  0.70636036802E+01  0.36602354589E+02  0.66678469206E+02  0.30000000000E+02 0.  1.
     200000    1    3    3    0    0  0.64204287736E+03  0.12241600465E+03  0.10677433693E+04  0.13480655167E+04  0.50000000000E+03 0.  1.
    -200001    1    1    2    0    0 -0.65389077373E+03 -0.18299436608E+03  0.13559819773E+04  0.16702536349E+04  0.70000000000E+03 0.  1.
<mgrwt>
<rscale>  0 0.19562279E+04</rscale>
<asrwt>0</asrwt>
<pdfrwt beam="1">  1        1 0.40121691E+00 0.19562279E+04</pdfrwt>
<pdfrwt beam="2">  1       -1 0.48663528E-01 0.19562279E+04</pdfrwt>
<totfact> 0.45001864E+00</totfact>
</mgrwt>
</event>
<event>
 8    1  0.2402290E-028  0.2438698E+04  0.7818608E-02  0.8425156E-01
          1   -1    0    0  501    0  0.00000000000E+00  0.00000000000E+00  0.30813670934E+04  0.30813670934E+04  0.50400000000E-02 0.  1.
         -1   -1    0    0    0  501 -0.00000000000E+00 -0.00000000000E+00 -0.48251682542E+03  0.48251682544E+03  0.50400000000E-02 0. -1.
     200001    2    1    2    0    0 -0.56959396597E+03  0.50206116749E+03  0.22469633903E+04  0.24728628023E+04  0.69978801066E+03 0.  0.
    5000001    2    3    3    0    0 -0.25369545908E+03  0.21964693462E+03  0.89117263834E+03  0.96696830779E+03  0.16802641195E+03 0.  0.
        -13    1    4    4    0    0 -0.23320625917E+03  0.21882270793E+03  0.66503474427E+03  0.73792937269E+03  0.10566000000E+00 0. -1.
     200003    1    4    4    0    0 -0.20489199910E+02  0.82422668359E+00  0.22613789406E+03  0.22903893510E+03  0.30000000000E+02 0. -1.
     200000    1    3    3    0    0 -0.31589850689E+03  0.28241423287E+03  0.13557907519E+04  0.15058944945E+04  0.50000000000E+03 0.  1.
    -200001    1    1    2    0    0  0.56959396597E+03 -0.50206116749E+03  0.35188687767E+03  0.10910211165E+04  0.70000000000E+03 0. -1.
<mgrwt>
<rscale>  0 0.24386976E+04</rscale>
<asrwt>0</asrwt>
<pdfrwt beam="1">  1        1 0.44019528E+00 0.24386976E+04</pdfrwt>
<pdfrwt beam="2">  1       -1 0.68930977E-01 0.24386976E+04</pdfrwt>
<totfact> 0.14395251E+00</totfact>
</mgrwt>
</event>
<event>
 8    1  0.2402290E-028  0.1479653E+04  0.7818608E-02  0.8898097E-01
          1   -1    0    0  501    0  0.00000000000E+00  0.00000000000E+00  0.66898190751E+03  0.66898190753E+03  0.50400000000E-02 0. -1.
         -1   -1    0    0    0  501 -0.00000000000E+00 -0.00000000000E+00 -0.81817341581E+03  0.81817341582E+03  0.50400000000E-02 0.  1.
     200001    2    1    2    0    0  0.10528158119E+03 -0.95843197121E+02  0.12052587613E+03  0.72359943330E+03  0.69914199079E+03 0.  0.
    5000001    2    3    3    0    0  0.20029692148E+02  0.31716376804E+01  0.36608573428E+02  0.20004051991E+03  0.19561383925E+03 0.  0.
        -13    1    4    4    0    0  0.10254993369E+03  0.11969923860E+02  0.42385068724E+02  0.11160767533E+03  0.10566000000E+00 0. -1.
     200003    1    4    4    0    0 -0.82520241542E+02 -0.87982861797E+01 -0.57764952957E+01  0.88432844587E+02  0.30000000000E+02 0. -1.
     200000    1    3    3    0    0  0.85251889045E+02 -0.99014834802E+02  0.83917302704E+02  0.52355891339E+03  0.50000000000E+03 0. -1.
    -200001    1    1    2    0    0 -0.10528158119E+03  0.95843197121E+02 -0.26971738443E+03  0.76355589005E+03  0.70000000000E+03 0.  1.
<mgrwt>
<rscale>  0 0.14796529E+04</rscale>
<asrwt>0</asrwt>
<pdfrwt beam="1">  1        1 0.95568844E-01 0.14796529E+04</pdfrwt>
<pdfrwt beam="2">  1       -1 0.11688192E+00 0.14796529E+04</pdfrwt>
<totfact> 0.20883615E+01</totfact>
</mgrwt>
</event>
<event>
 8    1  0.2402290E-028  0.1600113E+04  0.7818608E-02  0.8820478E-01
          1   -1    0    0  501    0  0.00000000000E+00  0.00000000000E+00  0.10915638569E+04  0.10915638569E+04  0.50400000000E-02 0.  1.
         -1   -1    0    0    0  501 -0.00000000000E+00 -0.00000000000E+00 -0.58639784240E+03  0.58639784242E+03  0.50400000000E-02 0. -1.
     200001    2    1    2    0    0  0.91924612860E+02  0.37247387534E+03  0.30981818298E+03  0.85616628835E+03  0.69989033752E+03 0.  0.
    5000001    2    3    3    0    0  0.38579903916E+02  0.55591316007E+02  0.87623757750E+02  0.22163451060E+03  0.19200294259E+03 0.  0.
        -13    1    4    4    0    0  0.68025846094E+02  0.10630074249E+03  0.91141612101E+02  0.15567327392E+03  0.10566000000E+00 0. -1.
     200003    1    4    4    0    0 -0.29445942178E+02 -0.50709426485E+02 -0.35178543505E+01  0.65961236681E+02  0.30000000000E+02 0. -1.
     200000    1    3    3    0    0  0.53344708944E+02  0.31688255934E+03  0.22219442523E+03  0.63453177776E+03  0.50000000000E+03 0.  1.
    -200001    1    1    2    0    0 -0.91924612860E+02 -0.37247387534E+03  0.19534783156E+03  0.82179541101E+03  0.70000000000E+03 0.  1.
<mgrwt>
<rscale>  0 0.16001134E+04</rscale>
<asrwt>0</asrwt>
<pdfrwt beam="1">  1        1 0.15593769E+00 0.16001134E+04</pdfrwt>
<pdfrwt beam="2">  1       -1 0.83771120E-01 0.16001134E+04</pdfrwt>
<totfact> 0.20080878E+01</totfact>
</mgrwt>
</event>
<event>
 8    1  0.2402290E-028  0.2010767E+04  0.7818608E-02  0.8601603E-01
          1   -1    0    0  501    0  0.00000000000E+00  0.00000000000E+00  0.75896170631E+03  0.75896170633E+03  0.50400000000E-02 0.  1.
         -1   -1    0    0    0  501 -0.00000000000E+00 -0.00000000000E+00 -0.13318137114E+04  0.13318137114E+04  0.50400000000E-02 0. -1.
     200001    2    1    2    0    0 -0.54510733542E+03  0.10538061936E+03  0.19256574276E+03  0.91429277410E+03  0.70043031731E+03 0.  0.
    5000001    2    3    3    0    0 -0.90350227847E+02  0.15504603992E+03 -0.14300689360E+02  0.20572774417E+03  0.99583918583E+02 0.  0.
        -13    1    4    4    0    0  0.13215468515E+02 -0.10645984591E+01  0.66758537578E+01  0.14844533182E+02  0.10566000000E+00 0. -1.
     200003    1    4    4    0    0 -0.10356569636E+03  0.15611063838E+03 -0.20976543118E+02  0.19088321099E+03  0.30000000000E+02 0. -1.
     200000    1    3    3    0    0 -0.45475710758E+03 -0.49665420556E+02  0.20686643212E+03  0.70856502992E+03  0.50000000000E+03 0.  1.
    -200001    1    1    2    0    0  0.54510733542E+03 -0.10538061936E+03 -0.76541774785E+03  0.11764826436E+04  0.70000000000E+03 0. -1.
<mgrwt>
<rscale>  0 0.20107666E+04</rscale>
<asrwt>0</asrwt>
<pdfrwt beam="1">  1        1 0.10842310E+00 0.20107666E+04</pdfrwt>
<pdfrwt beam="2">  1       -1 0.19025910E+00 0.20107666E+04</pdfrwt>
<totfact> 0.44163569E+00</totfact>
</mgrwt>
</event>
<event>
 8    1  0.2402290E-028  0.1897103E+04  0.7818608E-02  0.8656300E-01
          1   -1    0    0  501    0  0.00000000000E+00  0.00000000000E+00  0.15670090263E+04  0.15670090263E+04  0.50400000000E-02 0.  1.
         -1   -1    0    0    0  501 -0.00000000000E+00 -0.00000000000E+00 -0.57418318243E+03  0.57418318245E+03  0.50400000000E-02 0. -1.
     200001    2    1    2    0    0  0.41306634174E+03 -0.45649938848E+03  0.66860234380E+03  0.11542087376E+04  0.71144446127E+03 0.  0.
    5000001    2    3    3    0    0  0.16230096407E+03 -0.16693488376E+03  0.27064110476E+03  0.40915570271E+03  0.19988227315E+03 0.  0.
        -13    1    4    4    0    0  0.69972417622E+02 -0.96134227655E+02  0.26315120094E+03  0.28876719805E+03  0.10566000000E+00 0. -1.
     200003    1    4    4    0    0  0.92328546444E+02 -0.70800656103E+02  0.74899038264E+01  0.12038850465E+03  0.30000000000E+02 0.  1.
     200000    1    3    3    0    0  0.25076537767E+03 -0.28956450472E+03  0.39796123904E+03  0.74505303490E+03  0.50000000000E+03 0.  1.
    -200001    1    1    2    0    0 -0.41306634174E+03  0.45649938848E+03  0.32422350009E+03  0.98698347118E+03  0.70000000000E+03 0.  1.
<mgrwt>
<rscale>  0 0.18971033E+04</rscale>
<asrwt>0</asrwt>
<pdfrwt beam="1">  1        1 0.22385843E+00 0.18971033E+04</pdfrwt>
<pdfrwt beam="2">  1       -1 0.82026169E-01 0.18971033E+04</pdfrwt>
<totfact> 0.97637032E+00</totfact>
</mgrwt>
</event>
<event>
 8    1  0.2402290E-028  0.1558437E+04  0.7818608E-02  0.8846496E-01
          1   -1    0    0  501    0  0.00000000000E+00  0.00000000000E+00  0.19141077876E+04  0.19141077876E+04  0.50400000000E-02 0. -1.
         -1   -1    0    0    0  501 -0.00000000000E+00 -0.00000000000E+00 -0.31721395395E+03  0.31721395399E+03  0.50400000000E-02 0.  1.
     200001    2    1    2    0    0 -0.14341630616E+03 -0.30674204039E+03  0.71838211073E+03  0.10581031927E+04  0.69917851307E+03 0.  0.
    5000001    2    3    3    0    0  0.50857943894E+01 -0.43304555186E+02  0.25453890901E+03  0.31204508619E+03  0.17515972658E+03 0.  0.
        -13    1    4    4    0    0  0.71043370019E+02  0.56232870725E+01  0.43205492982E+02  0.83339711837E+02  0.10566000000E+00 0. -1.
     200003    1    4    4    0    0 -0.65957575630E+02 -0.48927842258E+02  0.21133341602E+03  0.22870537436E+03  0.30000000000E+02 0. -1.
     200000    1    3    3    0    0 -0.14850210055E+03 -0.26343748521E+03  0.46384320172E+03  0.74605810649E+03  0.50000000000E+03 0.  1.
    -200001    1    1    2    0    0  0.14341630616E+03  0.30674204039E+03  0.87851172293E+03  0.11732185489E+04  0.70000000000E+03 0.  1.
<mgrwt>
<rscale>  0 0.15584373E+04</rscale>
<asrwt>0</asrwt>
<pdfrwt beam="1">  1        1 0.27344398E+00 0.15584373E+04</pdfrwt>
<pdfrwt beam="2">  1       -1 0.45316277E-01 0.15584373E+04</pdfrwt>
<totfact> 0.19680565E+01</totfact>
</mgrwt>
</event>
<event>
 8    1  0.2402290E-028  0.1505330E+04  0.7818608E-02  0.8880916E-01
         -1   -1    0    0    0  501 -0.00000000000E+00  0.00000000000E+00  0.42995679514E+03  0.42995679517E+03  0.50400000000E-02 0.  1.
          1   -1    0    0  501    0  0.00000000000E+00 -0.00000000000E+00 -0.13175843703E+04  0.13175843703E+04  0.50400000000E-02 0. -1.
     200001    2    1    2    0    0  0.25992903260E+03  0.66386304577E+01 -0.33571433464E+03  0.81898562137E+03  0.70030433393E+03 0.  0.
    5000001    2    3    3    0    0  0.70421250283E+02 -0.22774206717E+02 -0.13580827512E+03  0.24737321144E+03  0.19305906134E+03 0.  0.
        -13    1    4    4    0    0  0.13221285151E+03 -0.17507788886E+02 -0.64228235205E+02  0.14802715338E+03  0.10566000000E+00 0. -1.
     200003    1    4    4    0    0 -0.61791601226E+02 -0.52664178313E+01 -0.71580039913E+02  0.99346058064E+02  0.30000000000E+02 0. -1.
     200000    1    3    3    0    0  0.18950778232E+03  0.29412837175E+02 -0.19990605952E+03  0.57161240993E+03  0.50000000000E+03 0.  1.
    -200001    1    1    2    0    0 -0.25992903260E+03 -0.66386304577E+01 -0.55191324049E+03  0.92855554408E+03  0.70000000000E+03 0. -1.
<mgrwt>
<rscale>  0 0.15053297E+04</rscale>
<asrwt>0</asrwt>
<pdfrwt beam="1">  1        1 0.18822634E+00 0.15053297E+04</pdfrwt>
<pdfrwt beam="2">  1       -1 0.61422400E-01 0.15053297E+04</pdfrwt>
<totfact> 0.26759348E+01</totfact>
</mgrwt>
</event>
<event>
 8    1  0.2402290E-028  0.1447059E+04  0.7818608E-02  0.8920442E-01
         -1   -1    0    0    0  501 -0.00000000000E+00  0.00000000000E+00  0.11896509589E+04  0.11896509589E+04  0.50400000000E-02 0. -1.
          1   -1    0    0  501    0  0.00000000000E+00 -0.00000000000E+00 -0.44004066493E+03  0.44004066496E+03  0.50400000000E-02 0.  1.
     200001    2    1    2    0    0 -0.88191919091E+02 -0.15676782043E+03  0.35974802778E+03  0.80850556046E+03  0.70136198478E+03 0.  0.
    5000001    2    3    3    0    0 -0.11087841104E+03 -0.47857197155E+02  0.18797277290E+03  0.26824364346E+03  0.14844714732E+03 0.  0.
        -13    1    4    4    0    0 -0.61315209946E+02 -0.87976965553E+02  0.61918078542E+02  0.12382794940E+03  0.10566000000E+00 0. -1.
     200003    1    4    4    0    0 -0.49563201093E+02  0.40119768398E+02  0.12605469436E+03  0.14441569406E+03  0.30000000000E+02 0. -1.
     200000    1    3    3    0    0  0.22686491949E+02 -0.10891062327E+03  0.17177525488E+03  0.54026191701E+03  0.50000000000E+03 0.  1.
    -200001    1    1    2    0    0  0.88191919091E+02  0.15676782043E+03  0.38986226615E+03  0.82118606338E+03  0.70000000000E+03 0. -1.
<mgrwt>
<rscale>  0 0.14470588E+04</rscale>
<asrwt>0</asrwt>
<pdfrwt beam="1">  1        1 0.62862952E-01 0.14470588E+04</pdfrwt>
<pdfrwt beam="2">  1       -1 0.16995014E+00 0.14470588E+04</pdfrwt>
<totfact> 0.13976816E+01</totfact>
</mgrwt>
</event>
<event>
 8    1  0.2402290E-028  0.4028847E+04  0.7818608E-02  0.7998752E-01
          1   -1    0    0  501    0  0.00000000000E+00  0.00000000000E+00  0.14194149675E+04  0.14194149675E+04  0.50400000000E-02 0.  1.
         -1   -1    0    0    0  501 -0.00000000000E+00 -0.00000000000E+00 -0.28588558622E+04  0.28588558622E+04  0.50400000000E-02 0. -1.
     200001    2    1    2    0    0  0.24251152017E+03  0.57322978823E+03  0.11741073054E+04  0.15019353994E+04  0.69991267444E+03 0.  0.
    5000001    2    3    3    0    0 -0.35542993373E+02  0.20760508571E+03  0.25060345997E+03  0.35570021929E+03  0.13913078690E+03 0.  0.
        -13    1    4    4    0    0 -0.14943970644E+02  0.70752920103E+02  0.18694069717E+03  0.20043984979E+03  0.10566000000E+00 0. -1.
     200003    1    4    4    0    0 -0.20599022729E+02  0.13685216561E+03  0.63662762793E+02  0.15526036949E+03  0.30000000000E+02 0. -1.
     200000    1    3    3    0    0  0.27805451354E+03  0.36562470251E+03  0.92350384543E+03  0.11462351801E+04  0.50000000000E+03 0.  1.
    -200001    1    1    2    0    0 -0.24251152017E+03 -0.57322978823E+03 -0.26135482000E+04  0.27763354303E+04  0.70000000000E+03 0. -1.
<mgrwt>
<rscale>  0 0.40288474E+04</rscale>
<asrwt>0</asrwt>
<pdfrwt beam="1">  1        1 0.20277357E+00 0.40288474E+04</pdfrwt>
<pdfrwt beam="2">  1       -1 0.40840798E+00 0.40288474E+04</pdfrwt>
<totfact> 0.43367999E-02</totfact>
</mgrwt>
</event>
<event>
 8    1  0.2402290E-028  0.2143937E+04  0.7818608E-02  0.8542132E-01
          1   -1    0    0  501    0  0.00000000000E+00  0.00000000000E+00  0.80327541891E+03  0.80327541893E+03  0.50400000000E-02 0.  1.
         -1   -1    0    0    0  501 -0.00000000000E+00 -0.00000000000E+00 -0.14305387182E+04  0.14305387182E+04  0.50400000000E-02 0. -1.
     200001    2    1    2    0    0 -0.73871011682E+03  0.32504883901E+03 -0.22715222559E+03  0.10930081695E+04  0.70122702506E+03 0.  0.
    5000001    2    3    3    0    0 -0.20910653801E+03  0.28821289091E+02 -0.29431976058E+02  0.28225296044E+03  0.18505210488E+03 0.  0.
        -13    1    4    4    0    0 -0.20210106537E+03  0.55287594340E+01  0.36880871817E+02  0.20551305962E+03  0.10566000000E+00 0. -1.
     200003    1    4    4    0    0 -0.70054726408E+01  0.23292529657E+02 -0.66312847875E+02  0.76739900821E+02  0.30000000000E+02 0. -1.
     200000    1    3    3    0    0 -0.52960357881E+03  0.29622754992E+03 -0.19772024953E+03  0.81075520911E+03  0.50000000000E+03 0.  1.
    -200001    1    1    2    0    0  0.73871011682E+03 -0.32504883901E+03 -0.40011107373E+03  0.11408059676E+04  0.70000000000E+03 0.  1.
<mgrwt>
<rscale>  0 0.21439371E+04</rscale>
<asrwt>0</asrwt>
<pdfrwt beam="1">  1        1 0.11475363E+00 0.21439371E+04</pdfrwt>
<pdfrwt beam="2">  1       -1 0.20436267E+00 0.21439371E+04</pdfrwt>
<totfact> 0.31941554E+00</totfact>
</mgrwt>
</event>
<event>
 8    1  0.2402290E-028  0.1636347E+04  0.7818608E-02  0.8798524E-01
         -1   -1    0    0    0  501 -0.00000000000E+00  0.00000000000E+00  0.34611772300E+03  0.34611772303E+03  0.50400000000E-02 0. -1.
          1   -1    0    0  501    0  0.00000000000E+00 -0.00000000000E+00 -0.19340474782E+04  0.19340474782E+04  0.50400000000E-02 0.  1.
     200001    2    1    2    0    0  0.47476965903E+02  0.96459557607E+02 -0.13676909404E+04  0.15385024450E+04  0.69631369090E+03 0.  0.
    5000001    2    3    3    0    0  0.70981680767E+02  0.40140538341E+02 -0.48765062688E+03  0.52450281134E+03  0.17507256605E+03 0.  0.
        -13    1    4    4    0    0  0.11869422513E+03  0.47535077227E+02 -0.25830167626E+03  0.28821462449E+03  0.10566000000E+00 0. -1.
     200003    1    4    4    0    0 -0.47712544365E+02 -0.73945388855E+01 -0.22934895062E+03  0.23628818685E+03  0.30000000000E+02 0. -1.
     200000    1    3    3    0    0 -0.23504714864E+02  0.56319019266E+02 -0.88004031352E+03  0.10139996336E+04  0.50000000000E+03 0.  1.
    -200001    1    1    2    0    0 -0.47476965903E+02 -0.96459557607E+02 -0.22023881484E+03  0.74166275632E+03  0.70000000000E+03 0. -1.
<mgrwt>
<rscale>  0 0.16363473E+04</rscale>
<asrwt>0</asrwt>
<pdfrwt beam="1">  1        1 0.27629249E+00 0.16363473E+04</pdfrwt>
<pdfrwt beam="2">  1       -1 0.49445390E-01 0.16363473E+04</pdfrwt>
<totfact> 0.16118877E+01</totfact>
</mgrwt>
</event>
<event>
 8    1  0.2402290E-028  0.1658139E+04  0.7818608E-02  0.8785606E-01
          1   -1    0    0  501    0  0.00000000000E+00  0.00000000000E+00  0.69118616934E+03  0.69118616936E+03  0.50400000000E-02 0.  1.
         -1   -1    0    0    0  501 -0.00000000000E+00 -0.00000000000E+00 -0.99445865792E+03  0.99445865793E+03  0.50400000000E-02 0. -1.
     200001    2    1    2    0    0  0.15703745123E+03  0.29299202588E+03 -0.45169748356E+03  0.89663591260E+03  0.69958577373E+03 0.  0.
    5000001    2    3    3    0    0 -0.21921377774E+02  0.15620141698E+03 -0.17563869011E+03  0.28267631246E+03  0.15549121742E+03 0.  0.
        -13    1    4    4    0    0  0.40948967855E+02  0.14532341255E+03 -0.11985684809E+03  0.19277289073E+03  0.10566000000E+00 0. -1.
     200003    1    4    4    0    0 -0.62870345630E+02  0.10878004429E+02 -0.55781842017E+02  0.89903421730E+02  0.30000000000E+02 0.  1.
     200000    1    3    3    0    0  0.17895882901E+03  0.13679060890E+03 -0.27605879345E+03  0.61395960014E+03  0.50000000000E+03 0. -1.
    -200001    1    1    2    0    0 -0.15703745123E+03 -0.29299202588E+03  0.14842499498E+03  0.78900891469E+03  0.70000000000E+03 0.  1.
<mgrwt>
<rscale>  0 0.16581388E+04</rscale>
<asrwt>0</asrwt>
<pdfrwt beam="1">  1        1 0.98740881E-01 0.16581388E+04</pdfrwt>
<pdfrwt beam="2">  1       -1 0.14206552E+00 0.16581388E+04</pdfrwt>
<totfact> 0.11992479E+01</totfact>
</mgrwt>
</event>
<event>
 8    1  0.2402290E-028  0.1761638E+04  0.7818608E-02  0.8726970E-01
         -1   -1    0    0    0  501 -0.00000000000E+00  0.00000000000E+00  0.38062663907E+03  0.38062663910E+03  0.50400000000E-02 0. -1.
          1   -1    0    0  501    0  0.00000000000E+00 -0.00000000000E+00 -0.20383290670E+04  0.20383290670E+04  0.50400000000E-02 0.  1.
     200001    2    1    2    0    0 -0.50685368050E+03  0.28061639065E+01 -0.59718525419E+03  0.10508894783E+04  0.70059256327E+03 0.  0.
    5000001    2    3    3    0    0 -0.14965370420E+03  0.64672659970E+02 -0.17836825172E+03  0.30468108380E+03  0.18557086376E+03 0.  0.
        -13    1    4    4    0    0 -0.58275150987E+02  0.76695049111E+02  0.58707998148E+01  0.96501819855E+02  0.10566000000E+00 0. -1.
     200003    1    4    4    0    0 -0.91378553215E+02 -0.12022389142E+02 -0.18423905153E+03  0.20817926395E+03  0.30000000000E+02 0. -1.
     200000    1    3    3    0    0 -0.35719997630E+03 -0.61866496063E+02 -0.41881700248E+03  0.74620839446E+03  0.50000000000E+03 0. -1.
    -200001    1    1    2    0    0  0.50685368050E+03 -0.28061639065E+01 -0.10605171738E+04  0.13680662279E+04  0.70000000000E+03 0. -1.
<mgrwt>
<rscale>  0 0.17616383E+04</rscale>
<asrwt>0</asrwt>
<pdfrwt beam="1">  1        1 0.29118986E+00 0.17616383E+04</pdfrwt>
<pdfrwt beam="2">  1       -1 0.54375236E-01 0.17616383E+04</pdfrwt>
<totfact> 0.11427130E+01</totfact>
</mgrwt>
</event>
<event>
 8    1  0.2402290E-028  0.1639534E+04  0.7818608E-02  0.8796622E-01
          1   -1    0    0  501    0  0.00000000000E+00  0.00000000000E+00  0.11929589227E+04  0.11929589228E+04  0.50400000000E-02 0. -1.
         -1   -1    0    0    0  501 -0.00000000000E+00 -0.00000000000E+00 -0.56332055977E+03  0.56332055980E+03  0.50400000000E-02 0.  1.
     200001    2    1    2    0    0 -0.41657174518E+03 -0.21537528516E+02  0.21420636896E+03  0.84163221411E+03  0.69890237609E+03 0.  0.
    5000001    2    3    3    0    0 -0.12887250272E+03  0.13272409397E+03  0.12361982353E+03  0.23766745976E+03  0.83547313427E+02 0.  0.
        -13    1    4    4    0    0 -0.98592868252E+02  0.12339033114E+03  0.84816982760E+02  0.17927537259E+03  0.10566000000E+00 0. -1.
     200003    1    4    4    0    0 -0.30279634470E+02  0.93337628317E+01  0.38802840769E+02  0.58392087169E+02  0.30000000000E+02 0.  1.
     200000    1    3    3    0    0 -0.28769924246E+03 -0.15426162249E+03  0.90586545428E+02  0.60396475435E+03  0.50000000000E+03 0.  1.
    -200001    1    1    2    0    0  0.41657174518E+03  0.21537528516E+02  0.41543199401E+03  0.91464726844E+03  0.70000000000E+03 0.  1.
<mgrwt>
<rscale>  0 0.16395344E+04</rscale>
<asrwt>0</asrwt>
<pdfrwt beam="1">  1        1 0.17042270E+00 0.16395344E+04</pdfrwt>
<pdfrwt beam="2">  1       -1 0.80474367E-01 0.16395344E+04</pdfrwt>
<totfact> 0.18486104E+01</totfact>
</mgrwt>
</event>
<event>
 8    1  0.2402290E-028  0.1506618E+04  0.7818608E-02  0.8880064E-01
          1   -1    0    0  501    0  0.00000000000E+00  0.00000000000E+00  0.16626083099E+04  0.16626083099E+04  0.50400000000E-02 0.  1.
         -1   -1    0    0    0  501 -0.00000000000E+00 -0.00000000000E+00 -0.34131580666E+03  0.34131580670E+03  0.50400000000E-02 0. -1.
     200001    2    1    2    0    0  0.26735055746E+03 -0.78736838786E+01  0.56391900833E+03  0.93848855955E+03  0.70086932661E+03 0.  0.
    5000001    2    3    3    0    0  0.15181016875E+03  0.12962710821E+02  0.11832770975E+03  0.25853610376E+03  0.17211946677E+03 0.  0.
        -13    1    4    4    0    0  0.73213112910E+02 -0.72620399730E+02  0.23956628732E+02  0.10586696172E+03  0.10566000000E+00 0. -1.
     200003    1    4    4    0    0  0.78597055845E+02  0.85583110551E+02  0.94371081019E+02  0.15266914204E+03  0.30000000000E+02 0. -1.
     200000    1    3    3    0    0  0.11554038870E+03 -0.20836394700E+02  0.44559129857E+03  0.67995245579E+03  0.50000000000E+03 0.  1.
    -200001    1    1    2    0    0 -0.26735055746E+03  0.78736838786E+01  0.75737349493E+03  0.10654355571E+04  0.70000000000E+03 0. -1.
<mgrwt>
<rscale>  0 0.15066181E+04</rscale>
<asrwt>0</asrwt>
<pdfrwt beam="1">  1        1 0.23751548E+00 0.15066181E+04</pdfrwt>
<pdfrwt beam="2">  1       -1 0.48759400E-01 0.15066181E+04</pdfrwt>
<totfact> 0.24873400E+01</totfact>
</mgrwt>
</event>
<event>
 8    1  0.2402290E-028  0.1636831E+04  0.7818608E-02  0.8798235E-01
         -1   -1    0    0    0  501 -0.00000000000E+00  0.00000000000E+00  0.43730022789E+03  0.43730022792E+03  0.50400000000E-02 0. -1.
          1   -1    0    0  501    0  0.00000000000E+00 -0.00000000000E+00 -0.15316806957E+04  0.15316806957E+04  0.50400000000E-02 0.  1.
     200001    2    1    2    0    0  0.29124353238E+03  0.14314630446E+03 -0.87422666986E+03  0.11666210577E+04  0.70101266923E+03 0.  0.
    5000001    2    3    3    0    0  0.59728111658E+02  0.35364418937E+02 -0.25599776601E+03  0.33150232221E+03  0.19884879676E+03 0.  0.
        -13    1    4    4    0    0  0.54029989338E+02 -0.77061763263E+02 -0.11474672967E+03  0.14840679984E+03  0.10566000000E+00 0. -1.
     200003    1    4    4    0    0  0.56981223196E+01  0.11242618220E+03 -0.14125103634E+03  0.18309552236E+03  0.30000000000E+02 0. -1.
     200000    1    3    3    0    0  0.23151542072E+03  0.10778188553E+03 -0.61822890385E+03  0.83511873553E+03  0.50000000000E+03 0.  1.
    -200001    1    1    2    0    0 -0.29124353238E+03 -0.14314630446E+03 -0.22015379795E+03  0.80235986589E+03  0.70000000000E+03 0. -1.
<mgrwt>
<rscale>  0 0.16368315E+04</rscale>
<asrwt>0</asrwt>
<pdfrwt beam="1">  1        1 0.21881152E+00 0.16368315E+04</pdfrwt>
<pdfrwt beam="2">  1       -1 0.62471462E-01 0.16368315E+04</pdfrwt>
<totfact> 0.18472243E+01</totfact>
</mgrwt>
</event>
<event>
 8    1  0.2402290E-028  0.1561938E+04  0.7818608E-02  0.8844279E-01
         -1   -1    0    0    0  501 -0.00000000000E+00  0.00000000000E+00  0.31923499086E+03  0.31923499090E+03  0.50400000000E-02 0.  1.
          1   -1    0    0  501    0  0.00000000000E+00 -0.00000000000E+00 -0.19105431331E+04  0.19105431331E+04  0.50400000000E-02 0. -1.
     200001    2    1    2    0    0  0.34048182056E+02 -0.13156150945E+01 -0.31155725565E+03  0.77069507589E+03  0.70408945945E+03 0.  0.
    5000001    2    3    3    0    0 -0.79198821122E+02 -0.36354758211E+02 -0.42057808133E+02  0.19045152574E+03  0.16403902804E+03 0.  0.
        -13    1    4    4    0    0 -0.77056668276E+02  0.44384962484E+02 -0.53122020980E+02  0.10358433906E+03  0.10566000000E+00 0. -1.
     200003    1    4    4    0    0 -0.21421528458E+01 -0.80739720696E+02  0.11064212847E+02  0.86867186686E+02  0.30000000000E+02 0. -1.
     200000    1    3    3    0    0  0.11324700318E+03  0.35039143117E+02 -0.26949944751E+03  0.58024355015E+03  0.50000000000E+03 0.  1.
    -200001    1    1    2    0    0 -0.34048182056E+02  0.13156150945E+01 -0.12797508866E+04  0.14590830481E+04  0.70000000000E+03 0. -1.
<mgrwt>
<rscale>  0 0.15619375E+04</rscale>
<asrwt>0</asrwt>
<pdfrwt beam="1">  1        1 0.27293473E+00 0.15619375E+04</pdfrwt>
<pdfrwt beam="2">  1       -1 0.45605000E-01 0.15619375E+04</pdfrwt>
<totfact> 0.19543629E+01</totfact>
</mgrwt>
</event>
<event>
 8    1  0.2402290E-028  0.1462394E+04  0.7818608E-02  0.8909853E-01
         -1   -1    0    0    0  501 -0.00000000000E+00  0.00000000000E+00  0.23924531466E+03  0.23924531471E+03  0.50400000000E-02 0. -1.
          1   -1    0    0  501    0  0.00000000000E+00 -0.00000000000E+00 -0.22347308272E+04  0.22347308272E+04  0.50400000000E-02 0.  1.
     200001    2    1    2    0    0  0.20799623333E+03  0.22849036157E+02 -0.93717731817E+03  0.11879742967E+04  0.69942625951E+03 0.  0.
    5000001    2    3    3    0    0  0.11298914530E+03  0.12097248983E+03 -0.39767566472E+03  0.43983220261E+03  0.88913114275E+02 0.  0.
        -13    1    4    4    0    0  0.31351085394E+02 -0.67836609157E+01 -0.89475333473E+02  0.95051328633E+02  0.10566000000E+00 0. -1.
     200003    1    4    4    0    0  0.81638059909E+02  0.12775615075E+03 -0.30820033125E+03  0.34478087398E+03  0.30000000000E+02 0. -1.
     200000    1    3    3    0    0  0.95007088028E+02 -0.98123453675E+02 -0.53950165345E+03  0.74814209413E+03  0.50000000000E+03 0. -1.
    -200001    1    1    2    0    0 -0.20799623333E+03 -0.22849036157E+02 -0.10583081944E+04  0.12860018452E+04  0.70000000000E+03 0. -1.
<mgrwt>
<rscale>  0 0.14623938E+04</rscale>
<asrwt>0</asrwt>
<pdfrwt beam="1">  1        1 0.31924725E+00 0.14623938E+04</pdfrwt>
<pdfrwt beam="2">  1       -1 0.34177903E-01 0.14623938E+04</pdfrwt>
<totfact> 0.20861824E+01</totfact>
</mgrwt>
</event>
<event>
 8    1  0.2402290E-028  0.1845976E+04  0.7818608E-02  0.8682225E-01
          1   -1    0    0  501    0  0.00000000000E+00  0.00000000000E+00  0.80737862685E+03  0.80737862686E+03  0.50400000000E-02 0. -1.
         -1   -1    0    0    0  501 -0.00000000000E+00 -0.00000000000E+00 -0.10551521064E+04  0.10551521064E+04  0.50400000000E-02 0.  1.
     200001    2    1    2    0    0 -0.36517678035E+03  0.40949337960E+03  0.12508656002E+03  0.89813272520E+03  0.69996916771E+03 0.  0.
    5000001    2    3    3    0    0 -0.12511635196E+03  0.16471691848E+03 -0.82485637678E+01  0.27738899351E+03  0.18463707687E+03 0.  0.
        -13    1    4    4    0    0 -0.84893452668E+02  0.17828575330E+03 -0.57617666061E+02  0.20570006014E+03  0.10566000000E+00 0. -1.
     200003    1    4    4    0    0 -0.40222899288E+02 -0.13568834828E+02  0.49369102293E+02  0.71688933364E+02  0.30000000000E+02 0. -1.
     200000    1    3    3    0    0 -0.24006042839E+03  0.24477646112E+03  0.13333512378E+03  0.62074373169E+03  0.50000000000E+03 0. -1.
    -200001    1    1    2    0    0  0.36517678035E+03 -0.40949337960E+03 -0.37286003954E+03  0.96439800805E+03  0.70000000000E+03 0.  1.
<mgrwt>
<rscale>  0 0.18459764E+04</rscale>
<asrwt>0</asrwt>
<pdfrwt beam="1">  1        1 0.11533980E+00 0.18459764E+04</pdfrwt>
<pdfrwt beam="2">  1       -1 0.15073601E+00 0.18459764E+04</pdfrwt>
<totfact> 0.79632734E+00</totfact>
</mgrwt>
</event>
<event>
 8    1  0.2402290E-028  0.1439702E+04  0.7818608E-02  0.8925571E-01
         -1   -1    0    0    0  501 -0.00000000000E+00  0.00000000000E+00  0.56948351412E+03  0.56948351414E+03  0.50400000000E-02 0. -1.
          1   -1    0    0  501    0  0.00000000000E+00 -0.00000000000E+00 -0.90992148654E+03  0.90992148655E+03  0.50400000000E-02 0.  1.
     200001    2    1    2    0    0  0.93511495533E+02  0.14058533995E+03 -0.18107012575E+03  0.74190466296E+03  0.69937650867E+03 0.  0.
    5000001    2    3    3    0    0  0.32476632210E+02  0.11364732892E+01  0.76505665097E+01  0.18621883388E+03  0.18320180051E+03 0.  0.
        -13    1    4    4    0    0 -0.17258883733E+02 -0.70375343429E+02  0.46647230178E+02  0.86177336219E+02  0.10566000000E+00 0. -1.
     200003    1    4    4    0    0  0.49735515943E+02  0.71511816718E+02 -0.38996663668E+02  0.10004149766E+03  0.30000000000E+02 0. -1.
     200000    1    3    3    0    0  0.61034863323E+02  0.13944886667E+03 -0.18872069226E+03  0.55568582908E+03  0.50000000000E+03 0.  1.
    -200001    1    1    2    0    0 -0.93511495533E+02 -0.14058533995E+03 -0.15936784667E+03  0.73750033774E+03  0.70000000000E+03 0. -1.
<mgrwt>
<rscale>  0 0.14397018E+04</rscale>
<asrwt>0</asrwt>
<pdfrwt beam="1">  1        1 0.12998878E+00 0.14397018E+04</pdfrwt>
<pdfrwt beam="2">  1       -1 0.81354788E-01 0.14397018E+04</pdfrwt>
<totfact> 0.29664274E+01</totfact>
</mgrwt>
</event>
<event>
 8    1  0.2402290E-028  0.1489076E+04  0.7818608E-02  0.8891750E-01
         -1   -1    0    0    0  501 -0.00000000000E+00  0.00000000000E+00  0.75097354471E+03  0.75097354472E+03  0.50400000000E-02 0.  1.
          1   -1    0    0  501    0  0.00000000000E+00 -0.00000000000E+00 -0.73815718892E+03  0.73815718894E+03  0.50400000000E-02 0. -1.
     200001    2    1    2    0    0  0.23624083159E+02 -0.84998084277E+01 -0.24547628626E+03  0.74257502042E+03  0.70037754803E+03 0.  0.
    5000001    2    3    3    0    0  0.13213880218E+02 -0.33807953042E+02 -0.10419101043E+03  0.22227664095E+03  0.19295998067E+03 0.  0.
        -13    1    4    4    0    0 -0.38718692896E+02  0.29410329186E+02  0.33699652519E+02  0.59158958631E+02  0.10566000000E+00 0. -1.
     200003    1    4    4    0    0  0.51932573114E+02 -0.63218282228E+02 -0.13789066295E+03  0.16311768232E+03  0.30000000000E+02 0. -1.
     200000    1    3    3    0    0  0.10410202941E+02  0.25308144615E+02 -0.14128527583E+03  0.52029837947E+03  0.50000000000E+03 0. -1.
    -200001    1    1    2    0    0 -0.23624083159E+02  0.84998084277E+01  0.25829264204E+03  0.74655571325E+03  0.70000000000E+03 0.  1.
<mgrwt>
<rscale>  0 0.14890756E+04</rscale>
<asrwt>0</asrwt>
<pdfrwt beam="1">  1        1 0.10545103E+00 0.14890756E+04</pdfrwt>
<pdfrwt beam="2">  1       -1 0.10728193E+00 0.14890756E+04</pdfrwt>
<totfact> 0.22112283E+01</totfact>
</mgrwt>
</event>
<event>
 8    1  0.2402290E-028  0.1910703E+04  0.7818608E-02  0.8649547E-01
          1   -1    0    0  501    0  0.00000000000E+00  0.00000000000E+00  0.97901478565E+03  0.97901478567E+03  0.50400000000E-02 0.  1.
         -1   -1    0    0    0  501 -0.00000000000E+00 -0.00000000000E+00 -0.93226041931E+03  0.93226041932E+03  0.50400000000E-02 0. -1.
     200001    2    1    2    0    0 -0.25307262838E+03  0.53582446330E+03 -0.24735380303E+03  0.94812764309E+03  0.69757330297E+03 0.  0.
    5000001    2    3    3    0    0 -0.13859730538E+03  0.19672379700E+03 -0.75112940834E+02  0.30956615344E+03  0.17966575664E+03 0.  0.
        -13    1    4    4    0    0 -0.13453545207E+03  0.78461010384E+02  0.16955829305E+02  0.15666342689E+03  0.10566000000E+00 0. -1.
     200003    1    4    4    0    0 -0.40618533105E+01  0.11826278662E+03 -0.92068770139E+02  0.15290272655E+03  0.30000000000E+02 0. -1.
     200000    1    3    3    0    0 -0.11447532300E+03  0.33910066629E+03 -0.17224086219E+03  0.63856148965E+03  0.50000000000E+03 0. -1.
    -200001    1    1    2    0    0  0.25307262838E+03 -0.53582446330E+03  0.29410816937E+03  0.96314756190E+03  0.70000000000E+03 0.  1.
<mgrwt>
<rscale>  0 0.19107033E+04</rscale>
<asrwt>0</asrwt>
<pdfrwt beam="1">  1        1 0.13985926E+00 0.19107033E+04</pdfrwt>
<pdfrwt beam="2">  1       -1 0.13318006E+00 0.19107033E+04</pdfrwt>
<totfact> 0.80096217E+00</totfact>
</mgrwt>
</event>
<event>
 8    1  0.2402290E-028  0.1939287E+04  0.7818608E-02  0.8635544E-01
         -1   -1    0    0    0  501 -0.00000000000E+00  0.00000000000E+00  0.76778861361E+03  0.76778861362E+03  0.50400000000E-02 0. -1.
          1   -1    0    0  501    0  0.00000000000E+00 -0.00000000000E+00 -0.12245670011E+04  0.12245670011E+04  0.50400000000E-02 0.  1.
     200001    2    1    2    0    0  0.52509060584E+03 -0.31183074043E+03  0.56508503167E+02  0.93102532349E+03  0.70046869097E+03 0.  0.
    5000001    2    3    3    0    0  0.67977860528E+02 -0.41531665281E+02  0.11930476250E+03  0.19893446701E+03  0.13782389875E+03 0.  0.
        -13    1    4    4    0    0  0.82828043964E+02  0.42336215116E+01  0.21167846703E+02  0.85594960810E+02  0.10566000000E+00 0. -1.
     200003    1    4    4    0    0 -0.14850183436E+02 -0.45765286793E+02  0.98136915800E+02  0.11333950620E+03  0.30000000000E+02 0. -1.
     200000    1    3    3    0    0  0.45711274532E+03 -0.27029907515E+03 -0.62796259337E+02  0.73209085648E+03  0.50000000000E+03 0. -1.
    -200001    1    1    2    0    0 -0.52509060584E+03  0.31183074043E+03 -0.51328689070E+03  0.10613302913E+04  0.70000000000E+03 0.  1.
<mgrwt>
<rscale>  0 0.19392871E+04</rscale>
<asrwt>0</asrwt>
<pdfrwt beam="1">  1        1 0.17493814E+00 0.19392871E+04</pdfrwt>
<pdfrwt beam="2">  1       -1 0.10968409E+00 0.19392871E+04</pdfrwt>
<totfact> 0.85584892E+00</totfact>
</mgrwt>
</event>
<event>
 8    1  0.2402290E-028  0.1552156E+04  0.7818608E-02  0.8850492E-01
          1   -1    0    0  501    0  0.00000000000E+00  0.00000000000E+00  0.12252457116E+04  0.12252457116E+04  0.50400000000E-02 0.  1.
         -1   -1    0    0    0  501 -0.00000000000E+00 -0.00000000000E+00 -0.49157241041E+03  0.49157241043E+03  0.50400000000E-02 0. -1.
     200001    2    1    2    0    0  0.17501692918E+03 -0.11449615022E+03  0.64906267573E+03  0.98135959032E+03  0.70572232115E+03 0.  0.
    5000001    2    3    3    0    0  0.92907048184E+02  0.15033862264E+02  0.20587097385E+03  0.29583866336E+03  0.19047288585E+03 0.  0.
        -13    1    4    4    0    0  0.70200571052E+02  0.35818289121E+02  0.23235126460E+03  0.24535319712E+03  0.10566000000E+00 0. -1.
     200003    1    4    4    0    0  0.22706477132E+02 -0.20784426857E+02 -0.26480290746E+02  0.50485466240E+02  0.30000000000E+02 0. -1.
     200000    1    3    3    0    0  0.82109880998E+02 -0.12953001248E+03  0.44319170188E+03  0.68552092696E+03  0.50000000000E+03 0.  1.
    -200001    1    1    2    0    0 -0.17501692918E+03  0.11449615022E+03  0.84610625439E+02  0.73545853170E+03  0.70000000000E+03 0. -1.
<mgrwt>
<rscale>  0 0.15521559E+04</rscale>
<asrwt>0</asrwt>
<pdfrwt beam="1">  1        1 0.17503510E+00 0.15521559E+04</pdfrwt>
<pdfrwt beam="2">  1       -1 0.70224629E-01 0.15521559E+04</pdfrwt>
<totfact> 0.23515392E+01</totfact>
</mgrwt>
</event>
<event>
 8    1  0.2402290E-028  0.1768120E+04  0.7818608E-02  0.8723439E-01
          1   -1    0    0  501    0  0.00000000000E+00  0.00000000000E+00  0.24741248166E+04  0.24741248166E+04  0.50400000000E-02 0.  1.
         -1   -1    0    0    0  501 -0.00000000000E+00 -0.00000000000E+00 -0.31589439801E+03  0.31589439805E+03  0.50400000000E-02 0. -1.
     200001    2    1    2    0    0 -0.79600152678E+02  0.53366965365E+03  0.10991838662E+04  0.14106283768E+04  0.70037687145E+03 0.  0.
    5000001    2    3    3    0    0 -0.99241597526E+02  0.29193670187E+02  0.35281434473E+03  0.38011914981E+03  0.96495808966E+02 0.  0.
        -13    1    4    4    0    0 -0.30591646412E+02  0.39206380779E+02  0.23455224179E+03  0.23976604100E+03  0.10566000000E+00 0. -1.
     200003    1    4    4    0    0 -0.68649951114E+02 -0.10012710592E+02  0.11826210294E+03  0.14035310881E+03  0.30000000000E+02 0. -1.
     200000    1    3    3    0    0  0.19641444848E+02  0.50447598346E+03  0.74636952150E+03  0.10305092270E+04  0.50000000000E+03 0.  1.
    -200001    1    1    2    0    0  0.79600152678E+02 -0.53366965365E+03  0.10590465523E+04  0.13793908379E+04  0.70000000000E+03 0. -1.
<mgrwt>
<rscale>  0 0.17681201E+04</rscale>
<asrwt>0</asrwt>
<pdfrwt beam="1">  1        1 0.35344640E+00 0.17681201E+04</pdfrwt>
<pdfrwt beam="2">  1       -1 0.45127771E-01 0.17681201E+04</pdfrwt>
<totfact> 0.86401588E+00</totfact>
</mgrwt>
</event>
<event>
 8    1  0.2402290E-028  0.1689826E+04  0.7818608E-02  0.8767188E-01
         -1   -1    0    0    0  501 -0.00000000000E+00  0.00000000000E+00  0.32325035227E+03  0.32325035231E+03  0.50400000000E-02 0. -1.
          1   -1    0    0  501    0  0.00000000000E+00 -0.00000000000E+00 -0.22084371807E+04  0.22084371807E+04  0.50400000000E-02 0.  1.
     200001    2    1    2    0    0  0.24783137531E+03  0.40156728458E+03 -0.89450041253E+03  0.12300976401E+04  0.70023748939E+03 0.  0.
    5000001    2    3    3    0    0  0.61184030532E+02  0.11548579818E+03 -0.12621680761E+03  0.25186477122E+03  0.17442684795E+03 0.  0.
        -13    1    4    4    0    0 -0.30589851662E+02 -0.13939529779E+01  0.23649200650E+02  0.38690799747E+02  0.10566000000E+00 0. -1.
     200003    1    4    4    0    0  0.91773882194E+02  0.11687975115E+03 -0.14986600826E+03  0.21317397148E+03  0.30000000000E+02 0. -1.
     200000    1    3    3    0    0  0.18664734478E+03  0.28608148641E+03 -0.76828360491E+03  0.97823286888E+03  0.50000000000E+03 0.  1.
    -200001    1    1    2    0    0 -0.24783137531E+03 -0.40156728458E+03 -0.99068641586E+03  0.13015898929E+04  0.70000000000E+03 0.  1.
<mgrwt>
<rscale>  0 0.16898261E+04</rscale>
<asrwt>0</asrwt>
<pdfrwt beam="1">  1        1 0.31549102E+00 0.16898261E+04</pdfrwt>
<pdfrwt beam="2">  1       -1 0.46178623E-01 0.16898261E+04</pdfrwt>
<totfact> 0.12264578E+01</totfact>
</mgrwt>
</event>
<event>
 8    1  0.2402290E-028  0.1698279E+04  0.7818608E-02  0.8762347E-01
         -1   -1    0    0    0  501 -0.00000000000E+00  0.00000000000E+00  0.45726485302E+03  0.45726485304E+03  0.50400000000E-02 0. -1.
          1   -1    0    0  501    0  0.00000000000E+00 -0.00000000000E+00 -0.15768487282E+04  0.15768487282E+04  0.50400000000E-02 0.  1.
     200001    2    1    2    0    0  0.28402688265E+03  0.22153549385E+03 -0.94078392497E+03  0.12268226379E+04  0.70019293497E+03 0.  0.
    5000001    2    3    3    0    0  0.57416016633E+02  0.55406074438E+02 -0.44670275875E+03  0.46981030810E+03  0.12170430920E+03 0.  0.
        -13    1    4    4    0    0 -0.12872625899E+02  0.66014944855E+02 -0.17934000843E+03  0.19153727374E+03  0.10566000000E+00 0. -1.
     200003    1    4    4    0    0  0.70288642533E+02 -0.10608870417E+02 -0.26736275031E+03  0.27827303437E+03  0.30000000000E+02 0. -1.
     200000    1    3    3    0    0  0.22661086602E+03  0.16612941941E+03 -0.49408116623E+03  0.75701232976E+03  0.50000000000E+03 0.  1.
    -200001    1    1    2    0    0 -0.28402688265E+03 -0.22153549385E+03 -0.17879995024E+03  0.80729094341E+03  0.70000000000E+03 0. -1.
<mgrwt>
<rscale>  0 0.16982785E+04</rscale>
<asrwt>0</asrwt>
<pdfrwt beam="1">  1        1 0.22526410E+00 0.16982785E+04</pdfrwt>
<pdfrwt beam="2">  1       -1 0.65323551E-01 0.16982785E+04</pdfrwt>
<totfact> 0.15707098E+01</totfact>
</mgrwt>
</event>
<event>
 8    1  0.2402290E-028  0.1626636E+04  0.7818608E-02  0.8804350E-01
          1   -1    0    0  501    0  0.00000000000E+00  0.00000000000E+00  0.15663224259E+04  0.15663224259E+04  0.50400000000E-02 0. -1.
         -1   -1    0    0    0  501 -0.00000000000E+00 -0.00000000000E+00 -0.42231779249E+03  0.42231779252E+03  0.50400000000E-02 0.  1.
     200001    2    1    2    0    0 -0.22216523327E+03  0.25357466661E+03  0.27113429879E+03  0.82006838772E+03  0.69666408702E+03 0.  0.
    5000001    2    3    3    0    0 -0.16124215619E+03  0.57358403631E+02  0.38390790402E+01  0.21702678246E+03  0.13340489638E+03 0.  0.
        -13    1    4    4    0    0 -0.80752999508E+01 -0.17119933220E+02  0.36422117795E+02  0.41047343537E+02  0.10566000000E+00 0. -1.
     200003    1    4    4    0    0 -0.15316685624E+03  0.74478336850E+02 -0.32583038755E+02  0.17597943893E+03  0.30000000000E+02 0. -1.
     200000    1    3    3    0    0 -0.60923077078E+02  0.19621626297E+03  0.26729521975E+03  0.60304160526E+03  0.50000000000E+03 0.  1.
    -200001    1    1    2    0    0  0.22216523327E+03 -0.25357466661E+03  0.87287033458E+03  0.11685718307E+04  0.70000000000E+03 0.  1.
<mgrwt>
<rscale>  0 0.16266356E+04</rscale>
<asrwt>0</asrwt>
<pdfrwt beam="1">  1        1 0.22376035E+00 0.16266356E+04</pdfrwt>
<pdfrwt beam="2">  1       -1 0.60331114E-01 0.16266356E+04</pdfrwt>
<totfact> 0.18815749E+01</totfact>
</mgrwt>
</event>
<event>
 8    1  0.2402290E-028  0.2465917E+04  0.7818608E-02  0.8415229E-01
          1   -1    0    0  501    0  0.00000000000E+00  0.00000000000E+00  0.17779607690E+04  0.17779607690E+04  0.50400000000E-02 0.  1.
         -1   -1    0    0    0  501 -0.00000000000E+00 -0.00000000000E+00 -0.85501720445E+03  0.85501720446E+03  0.50400000000E-02 0. -1.
     200001    2    1    2    0    0  0.35921258459E+03  0.64934856933E+03  0.12008253323E+04  0.15756674598E+04  0.70004229870E+03 0.  0.
    5000001    2    3    3    0    0  0.76951310028E+02  0.25714306575E+03  0.39037244502E+03  0.50780489068E+03  0.18284173701E+03 0.  0.
        -13    1    4    4    0    0 -0.46557416178E+02  0.31202538871E+02  0.12415969767E+03  0.13622346760E+03  0.10566000000E+00 0. -1.
     200003    1    4    4    0    0  0.12350872621E+03  0.22594052688E+03  0.26621274735E+03  0.37158142309E+03  0.30000000000E+02 0. -1.
     200000    1    3    3    0    0  0.28226127456E+03  0.39220550358E+03  0.81045288726E+03  0.10678625692E+04  0.50000000000E+03 0.  1.
    -200001    1    1    2    0    0 -0.35921258459E+03 -0.64934856933E+03 -0.27788176771E+03  0.10573105136E+04  0.70000000000E+03 0. -1.
<mgrwt>
<rscale>  0 0.24659173E+04</rscale>
<asrwt>0</asrwt>
<pdfrwt beam="1">  1        1 0.25399439E+00 0.24659173E+04</pdfrwt>
<pdfrwt beam="2">  1       -1 0.12214532E+00 0.24659173E+04</pdfrwt>
<totfact> 0.27348323E+00</totfact>
</mgrwt>
</event>
<event>
 8    1  0.2402290E-028  0.2622251E+04  0.7818608E-02  0.8360682E-01
          1   -1    0    0  501    0  0.00000000000E+00  0.00000000000E+00  0.13186584796E+04  0.13186584796E+04  0.50400000000E-02 0.  1.
         -1   -1    0    0    0  501 -0.00000000000E+00 -0.00000000000E+00 -0.13036356564E+04  0.13036356564E+04  0.50400000000E-02 0. -1.
     200001    2    1    2    0    0  0.43629886023E+03  0.37478107348E+01  0.10245567577E+04  0.13186340936E+04  0.70619301999E+03 0.  0.
    5000001    2    3    3    0    0  0.20536678934E+03 -0.68502690555E+02  0.44303089119E+03  0.51444376180E+03  0.14665563995E+03 0.  0.
        -13    1    4    4    0    0  0.15199416574E+02 -0.23953065727E+02 -0.10434539854E+01  0.28387877380E+02  0.10566000000E+00 0. -1.
     200003    1    4    4    0    0  0.19016737277E+03 -0.44549624828E+02  0.44407434517E+03  0.48605588442E+03  0.30000000000E+02 0. -1.
     200000    1    3    3    0    0  0.23093207088E+03  0.72250501290E+02  0.58152586648E+03  0.80419033175E+03  0.50000000000E+03 0.  1.
    -200001    1    1    2    0    0 -0.43629886023E+03 -0.37478107348E+01 -0.10095339345E+04  0.13036600425E+04  0.70000000000E+03 0. -1.
<mgrwt>
<rscale>  0 0.26222511E+04</rscale>
<asrwt>0</asrwt>
<pdfrwt beam="1">  1        1 0.18837978E+00 0.26222511E+04</pdfrwt>
<pdfrwt beam="2">  1       -1 0.18623366E+00 0.26222511E+04</pdfrwt>
<totfact> 0.17048681E+00</totfact>
</mgrwt>
</event>
<event>
 8    1  0.2402290E-028  0.1415194E+04  0.7818608E-02  0.8942893E-01
          1   -1    0    0  501    0  0.00000000000E+00  0.00000000000E+00  0.45886294632E+03  0.45886294634E+03  0.50400000000E-02 0. -1.
         -1   -1    0    0    0  501 -0.00000000000E+00 -0.00000000000E+00 -0.10911608764E+04  0.10911608764E+04  0.50400000000E-02 0.  1.
     200001    2    1    2    0    0 -0.47076955085E+02 -0.20456134047E+02 -0.22085788238E+03  0.73644063343E+03  0.70066533327E+03 0.  0.
    5000001    2    3    3    0    0  0.35374641293E+02  0.84417878906E+02 -0.65140902417E+02  0.19602912154E+03  0.16064350531E+03 0.  0.
        -13    1    4    4    0    0  0.41261478993E+02 -0.37050799091E+02 -0.13680128747E+01  0.55472100963E+02  0.10566000000E+00 0. -1.
     200003    1    4    4    0    0 -0.58868377003E+01  0.12146867800E+03 -0.63772889542E+02  0.14055702058E+03  0.30000000000E+02 0. -1.
     200000    1    3    3    0    0 -0.82451596378E+02 -0.10487401295E+03 -0.15571697996E+03  0.54041151189E+03  0.50000000000E+03 0. -1.
    -200001    1    1    2    0    0  0.47076955085E+02  0.20456134047E+02 -0.41144004773E+03  0.81358318935E+03  0.70000000000E+03 0.  1.
<mgrwt>
<rscale>  0 0.14151937E+04</rscale>
<asrwt>0</asrwt>
<pdfrwt beam="1">  1        1 0.65551850E-01 0.14151937E+04</pdfrwt>
<pdfrwt beam="2">  1       -1 0.15588012E+00 0.14151937E+04</pdfrwt>
<totfact> 0.16899932E+01</totfact>
</mgrwt>
</event>
<event>
 8    1  0.2402290E-028  0.2113469E+04  0.7818608E-02  0.8555333E-01
         -1   -1    0    0    0  501 -0.00000000000E+00  0.00000000000E+00  0.40334518481E+03  0.40334518484E+03  0.50400000000E-02 0. -1.
          1   -1    0    0  501    0  0.00000000000E+00 -0.00000000000E+00 -0.27685667235E+04  0.27685667235E+04  0.50400000000E-02 0.  1.
     200001    2    1    2    0    0 -0.39006730516E+03 -0.24530468211E+03 -0.21481116239E+04  0.23061962479E+04  0.70130642060E+03 0.  0.
    5000001    2    3    3    0    0 -0.16792477837E+03  0.40020263440E+02 -0.50699368107E+03  0.55290627503E+03  0.13734046617E+03 0.  0.
        -13    1    4    4    0    0  0.18058349006E+02 -0.84986069556E+01 -0.18955888884E+02  0.27525754784E+02  0.10566000000E+00 0. -1.
     200003    1    4    4    0    0 -0.18598312738E+03  0.48518870396E+02 -0.48803779218E+03  0.52538052025E+03  0.30000000000E+02 0. -1.
     200000    1    3    3    0    0 -0.22214252679E+03 -0.28532494555E+03 -0.16411179428E+04  0.17532899729E+04  0.50000000000E+03 0.  1.
    -200001    1    1    2    0    0  0.39006730516E+03  0.24530468211E+03 -0.21710991480E+03  0.86571566044E+03  0.70000000000E+03 0. -1.
<mgrwt>
<rscale>  0 0.21134692E+04</rscale>
<asrwt>0</asrwt>
<pdfrwt beam="1">  1        1 0.39550952E+00 0.21134692E+04</pdfrwt>
<pdfrwt beam="2">  1       -1 0.57620742E-01 0.21134692E+04</pdfrwt>
<totfact> 0.34026178E+00</totfact>
</mgrwt>
</event>
<event>
 8    1  0.2402290E-028  0.2939137E+04  0.7818608E-02  0.8261328E-01
         -1   -1    0    0    0  501 -0.00000000000E+00  0.00000000000E+00  0.13686313786E+04  0.13686313786E+04  0.50400000000E-02 0. -1.
          1   -1    0    0  501    0  0.00000000000E+00 -0.00000000000E+00 -0.15779492931E+04  0.15779492931E+04  0.50400000000E-02 0.  1.
     200001    2    1    2    0    0 -0.15440638018E+03  0.96024489157E+03 -0.95775882552E+03  0.15337553536E+04  0.69942257251E+03 0.  0.
    5000001    2    3    3    0    0 -0.92337111142E+01  0.30817446496E+03 -0.33098862472E+03  0.49015014586E+03  0.18877747089E+03 0.  0.
        -13    1    4    4    0    0 -0.61051421238E+02  0.28463052276E+02 -0.26532020775E+02  0.72397380274E+02  0.10566000000E+00 0. -1.
     200003    1    4    4    0    0  0.51817710124E+02  0.27971141268E+03 -0.30445660394E+03  0.41775276558E+03  0.30000000000E+02 0. -1.
     200000    1    3    3    0    0 -0.14517266906E+03  0.65207042661E+03 -0.62677020081E+03  0.10436052078E+04  0.50000000000E+03 0.  1.
    -200001    1    1    2    0    0  0.15440638018E+03 -0.96024489157E+03  0.74844091098E+03  0.14128253180E+04  0.70000000000E+03 0. -1.
<mgrwt>
<rscale>  0 0.29391366E+04</rscale>
<asrwt>0</asrwt>
<pdfrwt beam="1">  1        1 0.22542133E+00 0.29391366E+04</pdfrwt>
<pdfrwt beam="2">  1       -1 0.19551877E+00 0.29391366E+04</pdfrwt>
<totfact> 0.96396923E-01</totfact>
</mgrwt>
</event>
<event>
 8    1  0.2402290E-028  0.1561689E+04  0.7818608E-02  0.8844436E-01
          1   -1    0    0  501    0  0.00000000000E+00  0.00000000000E+00  0.12567658439E+04  0.12567658439E+04  0.50400000000E-02 0. -1.
         -1   -1    0    0    0  501 -0.00000000000E+00 -0.00000000000E+00 -0.48514833702E+03  0.48514833705E+03  0.50400000000E-02 0.  1.
     200001    2    1    2    0    0 -0.12622892868E+03 -0.15976321901E+03  0.74032106514E+02  0.73291298205E+03  0.70015902328E+03 0.  0.
    5000001    2    3    3    0    0  0.48852722837E+02  0.10109508849E+03  0.17945637625E+02  0.13974661982E+03  0.81242023585E+02 0.  0.
        -13    1    4    4    0    0 -0.17413286847E+02  0.38488467890E+02  0.78548269694E+00  0.42251779447E+02  0.10566000000E+00 0. -1.
     200003    1    4    4    0    0  0.66266009684E+02  0.62606620601E+02  0.17160154928E+02  0.97494840374E+02  0.30000000000E+02 0. -1.
     200000    1    3    3    0    0 -0.17508165151E+03 -0.26085830750E+03  0.56086468888E+02  0.59316636223E+03  0.50000000000E+03 0.  1.
    -200001    1    1    2    0    0  0.12622892868E+03  0.15976321901E+03  0.69758540037E+03  0.10090011989E+04  0.70000000000E+03 0. -1.
<mgrwt>
<rscale>  0 0.15616886E+04</rscale>
<asrwt>0</asrwt>
<pdfrwt beam="1">  1        1 0.17953798E+00 0.15616886E+04</pdfrwt>
<pdfrwt beam="2">  1       -1 0.69306906E-01 0.15616886E+04</pdfrwt>
<totfact> 0.22963533E+01</totfact>
</mgrwt>
</event>
<event>
 8    1  0.2402290E-028  0.1583097E+04  0.7818608E-02  0.8831000E-01
          1   -1    0    0  501    0  0.00000000000E+00  0.00000000000E+00  0.10923243764E+04  0.10923243764E+04  0.50400000000E-02 0.  1.
         -1   -1    0    0    0  501 -0.00000000000E+00 -0.00000000000E+00 -0.57359280094E+03  0.57359280096E+03  0.50400000000E-02 0. -1.
     200001    2    1    2    0    0 -0.33425424872E+03 -0.15219602915E+03  0.21003692476E+03  0.81728184845E+03  0.69924571931E+03 0.  0.
    5000001    2    3    3    0    0 -0.55505574460E+02 -0.95580316397E+02  0.59502127405E+02  0.22266694152E+03  0.18391193002E+03 0.  0.
        -13    1    4    4    0    0  0.21099032915E+02  0.10272757798E+01  0.89765097679E+02  0.92217180670E+02  0.10566000000E+00 0. -1.
     200003    1    4    4    0    0 -0.76604607375E+02 -0.96607592177E+02 -0.30262970274E+02  0.13044976085E+03  0.30000000000E+02 0. -1.
     200000    1    3    3    0    0 -0.27874867426E+03 -0.56615712749E+02  0.15053479735E+03  0.59461490693E+03  0.50000000000E+03 0.  1.
    -200001    1    1    2    0    0  0.33425424872E+03  0.15219602915E+03  0.30869465066E+03  0.84863532888E+03  0.70000000000E+03 0. -1.
<mgrwt>
<rscale>  0 0.15830975E+04</rscale>
<asrwt>0</asrwt>
<pdfrwt beam="1">  1        1 0.15604634E+00 0.15830975E+04</pdfrwt>
<pdfrwt beam="2">  1       -1 0.81941829E-01 0.15830975E+04</pdfrwt>
<totfact> 0.21060329E+01</totfact>
</mgrwt>
</event>
<event>
 8    1  0.2402290E-028  0.2169371E+04  0.7818608E-02  0.8531286E-01
         -1   -1    0    0    0  501 -0.00000000000E+00  0.00000000000E+00  0.77615449133E+03  0.77615449135E+03  0.50400000000E-02 0. -1.
          1   -1    0    0  501    0  0.00000000000E+00 -0.00000000000E+00 -0.15158616117E+04  0.15158616117E+04  0.50400000000E-02 0.  1.
     200001    2    1    2    0    0  0.15599695575E+03  0.78300636429E+03 -0.13500108219E+03  0.10700899967E+04  0.69959509160E+03 0.  0.
    5000001    2    3    3    0    0  0.82053324205E+02  0.37033747972E+03 -0.15213429355E+03  0.41735971869E+03  0.84626796059E+02 0.  0.
        -13    1    4    4    0    0  0.16614843139E+02  0.16891349333E+03 -0.34337065250E+02  0.17316716333E+03  0.10566000000E+00 0. -1.
     200003    1    4    4    0    0  0.65438481066E+02  0.20142398639E+03 -0.11779722830E+03  0.24419255536E+03  0.30000000000E+02 0. -1.
     200000    1    3    3    0    0  0.73943631548E+02  0.41266888457E+03  0.17133211359E+02  0.65273027804E+03  0.50000000000E+03 0. -1.
    -200001    1    1    2    0    0 -0.15599695575E+03 -0.78300636429E+03 -0.60470603818E+03  0.12219261063E+04  0.70000000000E+03 0.  1.
<mgrwt>
<rscale>  0 0.21693712E+04</rscale>
<asrwt>0</asrwt>
<pdfrwt beam="1">  1        1 0.21655166E+00 0.21693712E+04</pdfrwt>
<pdfrwt beam="2">  1       -1 0.11087921E+00 0.21693712E+04</pdfrwt>
<totfact> 0.52217426E+00</totfact>
</mgrwt>
</event>
<event>
 8    1  0.2402290E-028  0.1575782E+04  0.7818608E-02  0.8835566E-01
         -1   -1    0    0    0  501 -0.00000000000E+00  0.00000000000E+00  0.99679538352E+03  0.99679538353E+03  0.50400000000E-02 0. -1.
          1   -1    0    0  501    0  0.00000000000E+00 -0.00000000000E+00 -0.62276763670E+03  0.62276763672E+03  0.50400000000E-02 0.  1.
     200001    2    1    2    0    0  0.27980465858E+03 -0.19600566125E+03  0.67224231416E+02  0.78240278274E+03  0.70066122409E+03 0.  0.
    5000001    2    3    3    0    0  0.37022088426E+02 -0.23245744175E+01 -0.56228852980E+02  0.18099077437E+03  0.16798790975E+03 0.  0.
        -13    1    4    4    0    0  0.33214200162E+00  0.45527655167E+02 -0.93514509305E+02  0.10400890499E+03  0.10566000000E+00 0. -1.
     200003    1    4    4    0    0  0.36689946425E+02 -0.47852229585E+02  0.37285656324E+02  0.76981869375E+02  0.30000000000E+02 0. -1.
     200000    1    3    3    0    0  0.24278257016E+03 -0.19368108683E+03  0.12345308440E+03  0.60141200837E+03  0.50000000000E+03 0. -1.
    -200001    1    1    2    0    0 -0.27980465858E+03  0.19600566125E+03  0.30680351540E+03  0.83716023751E+03  0.70000000000E+03 0. -1.
<mgrwt>
<rscale>  0 0.15757816E+04</rscale>
<asrwt>0</asrwt>
<pdfrwt beam="1">  1        1 0.88966804E-01 0.15757816E+04</pdfrwt>
<pdfrwt beam="2">  1       -1 0.14239934E+00 0.15757816E+04</pdfrwt>
<totfact> 0.13959714E+01</totfact>
</mgrwt>
</event>
<event>
 8    1  0.2402290E-028  0.1512807E+04  0.7818608E-02  0.8875981E-01
          1   -1    0    0  501    0  0.00000000000E+00  0.00000000000E+00  0.69522555375E+03  0.69522555377E+03  0.50400000000E-02 0.  1.
         -1   -1    0    0    0  501 -0.00000000000E+00 -0.00000000000E+00 -0.82296465545E+03  0.82296465547E+03  0.50400000000E-02 0. -1.
     200001    2    1    2    0    0 -0.61765308839E+02  0.68958465527E+02 -0.33627562264E+03  0.78194452748E+03  0.69984693064E+03 0.  0.
    5000001    2    3    3    0    0 -0.80080036351E+00 -0.90056277583E+01 -0.26122120584E+01  0.17274312999E+03  0.17248658700E+03 0.  0.
        -13    1    4    4    0    0  0.56674169864E+02 -0.49415579966E+02  0.40101253102E+02  0.85217267837E+02  0.10566000000E+00 0. -1.
     200003    1    4    4    0    0 -0.57474970227E+02  0.40409952208E+02 -0.42713465161E+02  0.87525862156E+02  0.30000000000E+02 0. -1.
     200000    1    3    3    0    0 -0.60964508475E+02  0.77964093285E+02 -0.33366341058E+03  0.60920139748E+03  0.50000000000E+03 0. -1.
    -200001    1    1    2    0    0  0.61765308839E+02 -0.68958465527E+02  0.20853652094E+03  0.73624568176E+03  0.70000000000E+03 0.  1.
<mgrwt>
<rscale>  0 0.15128067E+04</rscale>
<asrwt>0</asrwt>
<pdfrwt beam="1">  1        1 0.99317936E-01 0.15128067E+04</pdfrwt>
<pdfrwt beam="2">  1       -1 0.11756638E+00 0.15128067E+04</pdfrwt>
<totfact> 0.19407401E+01</totfact>
</mgrwt>
</event>
<event>
 8    1  0.2402290E-028  0.1551465E+04  0.7818608E-02  0.8850933E-01
          1   -1    0    0  501    0  0.00000000000E+00  0.00000000000E+00  0.27332785315E+04  0.27332785315E+04  0.50400000000E-02 0.  1.
         -1   -1    0    0    0  501 -0.00000000000E+00 -0.00000000000E+00 -0.22016071795E+03  0.22016071801E+03  0.50400000000E-02 0. -1.
     200001    2    1    2    0    0  0.28484554002E+02  0.31450219411E+03  0.14663868924E+04  0.16552217711E+04  0.69981825749E+03 0.  0.
    5000001    2    3    3    0    0 -0.26666470876E+01  0.48326247527E+02  0.20066237326E+03  0.26818226549E+03  0.17121273981E+03 0.  0.
        -13    1    4    4    0    0  0.19190874853E+02 -0.87053385642E+01  0.19900266720E+03  0.20011533004E+03  0.10566000000E+00 0. -1.
     200003    1    4    4    0    0 -0.21857521941E+02  0.57031586091E+02  0.16597060526E+01  0.68066935451E+02  0.30000000000E+02 0. -1.
     200000    1    3    3    0    0  0.31151201089E+02  0.26617594658E+03  0.12657245191E+04  0.13870395056E+04  0.50000000000E+03 0.  1.
    -200001    1    1    2    0    0 -0.28484554002E+02 -0.31450219411E+03  0.10467309212E+04  0.12982174784E+04  0.70000000000E+03 0.  1.
<mgrwt>
<rscale>  0 0.15514646E+04</rscale>
<asrwt>0</asrwt>
<pdfrwt beam="1">  1        1 0.39046835E+00 0.15514646E+04</pdfrwt>
<pdfrwt beam="2">  1       -1 0.31451532E-01 0.15514646E+04</pdfrwt>
<totfact> 0.11572041E+01</totfact>
</mgrwt>
</event>
<event>
 8    1  0.2402290E-028  0.2067474E+04  0.7818608E-02  0.8575708E-01
          1   -1    0    0  501    0  0.00000000000E+00  0.00000000000E+00  0.10659341832E+04  0.10659341832E+04  0.50400000000E-02 0.  1.
         -1   -1    0    0    0  501 -0.00000000000E+00 -0.00000000000E+00 -0.10025121842E+04  0.10025121842E+04  0.50400000000E-02 0. -1.
     200001    2    1    2    0    0 -0.16071618431E+03 -0.62333644305E+03  0.43667080718E+03  0.10468335807E+04  0.70057200817E+03 0.  0.
    5000001    2    3    3    0    0 -0.53254118942E+02 -0.14664951603E+03  0.10025377763E+03  0.27097602953E+03  0.19757304197E+03 0.  0.
        -13    1    4    4    0    0  0.50987328420E+02 -0.12222461123E+03  0.20195231050E+02  0.13396425557E+03  0.10566000000E+00 0. -1.
     200003    1    4    4    0    0 -0.10424144736E+03 -0.24424904801E+02  0.80058546579E+02  0.13701177396E+03  0.30000000000E+02 0. -1.
     200000    1    3    3    0    0 -0.10746206537E+03 -0.47668692702E+03  0.33641702955E+03  0.77585755114E+03  0.50000000000E+03 0.  1.
    -200001    1    1    2    0    0  0.16071618431E+03  0.62333644305E+03 -0.37324880817E+03  0.10216127867E+04  0.70000000000E+03 0. -1.
<mgrwt>
<rscale>  0 0.20674738E+04</rscale>
<asrwt>0</asrwt>
<pdfrwt beam="1">  1        1 0.15227631E+00 0.20674738E+04</pdfrwt>
<pdfrwt beam="2">  1       -1 0.14321603E+00 0.20674738E+04</pdfrwt>
<totfact> 0.56401398E+00</totfact>
</mgrwt>
</event>
<event>
 8    1  0.2402290E-028  0.1664938E+04  0.7818608E-02  0.8781618E-01
          1   -1    0    0  501    0  0.00000000000E+00  0.00000000000E+00  0.12705193605E+04  0.12705193605E+04  0.50400000000E-02 0.  1.
         -1   -1    0    0    0  501 -0.00000000000E+00 -0.00000000000E+00 -0.54544984414E+03  0.54544984416E+03  0.50400000000E-02 0. -1.
     200001    2    1    2    0    0 -0.12286502775E+03  0.23676640521E+03 -0.33034013882E+02  0.75019478751E+03  0.70039048213E+03 0.  0.
    5000001    2    3    3    0    0 -0.33829399797E+02  0.33558325585E+02 -0.20291676511E+00  0.20219957986E+03  0.19650455316E+03 0.  0.
        -13    1    4    4    0    0 -0.79132419504E+02  0.44433879527E+02 -0.68895444817E+02  0.11394254231E+03  0.10566000000E+00 0. -1.
     200003    1    4    4    0    0  0.45303019707E+02 -0.10875553942E+02  0.68692528052E+02  0.88257037557E+02  0.30000000000E+02 0. -1.
     200000    1    3    3    0    0 -0.89035627951E+02  0.20320807963E+03 -0.32831097117E+02  0.54799520765E+03  0.50000000000E+03 0. -1.
    -200001    1    1    2    0    0  0.12286502775E+03 -0.23676640521E+03  0.75810353020E+03  0.10657744171E+04  0.70000000000E+03 0. -1.
<mgrwt>
<rscale>  0 0.16649379E+04</rscale>
<asrwt>0</asrwt>
<pdfrwt beam="1">  1        1 0.18150277E+00 0.16649379E+04</pdfrwt>
<pdfrwt beam="2">  1       -1 0.77921406E-01 0.16649379E+04</pdfrwt>
<totfact> 0.17463141E+01</totfact>
</mgrwt>
</event>
<event>
 8    1  0.2402290E-028  0.1790832E+04  0.7818608E-02  0.8711190E-01
          1   -1    0    0  501    0  0.00000000000E+00  0.00000000000E+00  0.73539308883E+03  0.73539308884E+03  0.50400000000E-02 0. -1.
         -1   -1    0    0    0  501 -0.00000000000E+00 -0.00000000000E+00 -0.10902604827E+04  0.10902604827E+04  0.50400000000E-02 0.  1.
     200001    2    1    2    0    0 -0.22361810339E+03 -0.73567989158E+02  0.33870810395E+03  0.81250783852E+03  0.70002035883E+03 0.  0.
    5000001    2    3    3    0    0 -0.10318287938E+03  0.15308514012E+02  0.17671337375E+03  0.26602273478E+03  0.16929093820E+03 0.  0.
        -13    1    4    4    0    0  0.17756408764E+02 -0.32356466796E+02 -0.83925567936E+01  0.37850722176E+02  0.10566000000E+00 0. -1.
     200003    1    4    4    0    0 -0.12093928815E+03  0.47664980808E+02  0.18510593054E+03  0.22817201260E+03  0.30000000000E+02 0. -1.
     200000    1    3    3    0    0 -0.12043522401E+03 -0.88876503171E+02  0.16199473020E+03  0.54648510374E+03  0.50000000000E+03 0. -1.
    -200001    1    1    2    0    0  0.22361810339E+03  0.73567989158E+02 -0.69357549783E+03  0.10131457330E+04  0.70000000000E+03 0.  1.
<mgrwt>
<rscale>  0 0.17908322E+04</rscale>
<asrwt>0</asrwt>
<pdfrwt beam="1">  1        1 0.10505616E+00 0.17908322E+04</pdfrwt>
<pdfrwt beam="2">  1       -1 0.15575150E+00 0.17908322E+04</pdfrwt>
<totfact> 0.84436113E+00</totfact>
</mgrwt>
</event>
<event>
 8    1  0.2402290E-028  0.1763321E+04  0.7818608E-02  0.8726052E-01
         -1   -1    0    0    0  501 -0.00000000000E+00  0.00000000000E+00  0.28369836234E+03  0.28369836239E+03  0.50400000000E-02 0. -1.
          1   -1    0    0  501    0  0.00000000000E+00 -0.00000000000E+00 -0.27399713520E+04  0.27399713521E+04  0.50400000000E-02 0.  1.
     200001    2    1    2    0    0 -0.34889107700E+03 -0.32564342270E+03 -0.81031129469E+03  0.11724651002E+04  0.70021524869E+03 0.  0.
    5000001    2    3    3    0    0 -0.12931695167E+03 -0.18559884547E+03 -0.35597455238E+03  0.44841596129E+03  0.15227996246E+03 0.  0.
        -13    1    4    4    0    0 -0.14145240415E+03 -0.16594353001E+03 -0.23024975575E+03  0.31711354272E+03  0.10566000000E+00 0. -1.
     200003    1    4    4    0    0  0.12135452475E+02 -0.19655315456E+02 -0.12572479664E+03  0.13130241857E+03  0.30000000000E+02 0. -1.
     200000    1    3    3    0    0 -0.21957412533E+03 -0.14004457723E+03 -0.45433674230E+03  0.72404913889E+03  0.50000000000E+03 0. -1.
    -200001    1    1    2    0    0  0.34889107700E+03  0.32564342270E+03 -0.16459616950E+04  0.18512046143E+04  0.70000000000E+03 0.  1.
<mgrwt>
<rscale>  0 0.17633212E+04</rscale>
<asrwt>0</asrwt>
<pdfrwt beam="1">  1        1 0.39142446E+00 0.17633212E+04</pdfrwt>
<pdfrwt beam="2">  1       -1 0.40528339E-01 0.17633212E+04</pdfrwt>
<totfact> 0.71284812E+00</totfact>
</mgrwt>
</event>
<event>
 8    1  0.2402290E-028  0.1931058E+04  0.7818608E-02  0.8639550E-01
         -1   -1    0    0    0  501 -0.00000000000E+00  0.00000000000E+00  0.44238216412E+03  0.44238216415E+03  0.50400000000E-02 0. -1.
          1   -1    0    0  501    0  0.00000000000E+00 -0.00000000000E+00 -0.21073319140E+04  0.21073319140E+04  0.50400000000E-02 0.  1.
     200001    2    1    2    0    0  0.59832929283E+03 -0.44395094087E+02 -0.12124877466E+04  0.15227327095E+04  0.69901323451E+03 0.  0.
    5000001    2    3    3    0    0  0.27874652739E+03  0.29237388726E+02 -0.49216271773E+03  0.58655802835E+03  0.15255074063E+03 0.  0.
        -13    1    4    4    0    0  0.23272560539E+03 -0.23425488969E+02 -0.30386068768E+03  0.38345963232E+03  0.10566000000E+00 0. -1.
     200003    1    4    4    0    0  0.46020922001E+02  0.52662877694E+02 -0.18830203005E+03  0.20309839603E+03  0.30000000000E+02 0. -1.
     200000    1    3    3    0    0  0.31958276544E+03 -0.73632482813E+02 -0.72032502883E+03  0.93617468116E+03  0.50000000000E+03 0.  1.
    -200001    1    1    2    0    0 -0.59832929283E+03  0.44395094087E+02 -0.45246200329E+03  0.10269813686E+04  0.70000000000E+03 0. -1.
<mgrwt>
<rscale>  0 0.19310578E+04</rscale>
<asrwt>0</asrwt>
<pdfrwt beam="1">  1        1 0.30104741E+00 0.19310578E+04</pdfrwt>
<pdfrwt beam="2">  1       -1 0.63197453E-01 0.19310578E+04</pdfrwt>
<totfact> 0.75802524E+00</totfact>
</mgrwt>
</event>
<event>
 8    1  0.2402290E-028  0.1467712E+04  0.7818608E-02  0.8906213E-01
          1   -1    0    0  501    0  0.00000000000E+00  0.00000000000E+00  0.23080347207E+04  0.23080347207E+04  0.50400000000E-02 0. -1.
         -1   -1    0    0    0  501 -0.00000000000E+00 -0.00000000000E+00 -0.23333473608E+03  0.23333473613E+03  0.50400000000E-02 0.  1.
     200001    2    1    2    0    0 -0.49448526946E+02  0.13868554902E+03  0.13203990739E+04  0.15018269121E+04  0.70025104167E+03 0.  0.
    5000001    2    3    3    0    0  0.46681398243E+02  0.60440409929E+02  0.28184584681E+03  0.34253571930E+03  0.17905709016E+03 0.  0.
        -13    1    4    4    0    0  0.10799371525E+03  0.17736431723E+02  0.12433917097E+03  0.16564257950E+03  0.10566000000E+00 0. -1.
     200003    1    4    4    0    0 -0.61312317008E+02  0.42703978207E+02  0.15750667584E+03  0.17689313980E+03  0.30000000000E+02 0. -1.
     200000    1    3    3    0    0 -0.96129925188E+02  0.78245139091E+02  0.10385532271E+04  0.11592911928E+04  0.50000000000E+03 0. -1.
    -200001    1    1    2    0    0  0.49448526946E+02 -0.13868554902E+03  0.75430091074E+03  0.10395425447E+04  0.70000000000E+03 0.  1.
<mgrwt>
<rscale>  0 0.14677121E+04</rscale>
<asrwt>0</asrwt>
<pdfrwt beam="1">  1        1 0.32971924E+00 0.14677121E+04</pdfrwt>
<pdfrwt beam="2">  1       -1 0.33333535E-01 0.14677121E+04</pdfrwt>
<totfact> 0.19604799E+01</totfact>
</mgrwt>
</event>
<event>
 8    1  0.2402290E-028  0.2499792E+04  0.7818608E-02  0.8403060E-01
         -1   -1    0    0    0  501 -0.00000000000E+00  0.00000000000E+00  0.20737105235E+04  0.20737105235E+04  0.50400000000E-02 0. -1.
          1   -1    0    0  501    0  0.00000000000E+00 -0.00000000000E+00 -0.75335493046E+03  0.75335493048E+03  0.50400000000E-02 0.  1.
     200001    2    1    2    0    0  0.42456182995E+03  0.59067822149E+03 -0.17299687850E+03  0.10244964226E+04  0.70036525548E+03 0.  0.
    5000001    2    3    3    0    0  0.13793333755E+03  0.24709578142E+03 -0.14331155920E+03  0.35286705754E+03  0.15458016204E+03 0.  0.
        -13    1    4    4    0    0 -0.32135064453E+02  0.58231283754E+02 -0.27666489435E+02  0.72034648446E+02  0.10566000000E+00 0. -1.
     200003    1    4    4    0    0  0.17006840200E+03  0.18886449767E+03 -0.11564506976E+03  0.28083240910E+03  0.30000000000E+02 0. -1.
     200000    1    3    3    0    0  0.28662849240E+03  0.34358244007E+03 -0.29685319299E+02  0.67162936502E+03  0.50000000000E+03 0.  1.
    -200001    1    1    2    0    0 -0.42456182995E+03 -0.59067822149E+03  0.14933524715E+04  0.18025690314E+04  0.70000000000E+03 0. -1.
<mgrwt>
<rscale>  0 0.24997920E+04</rscale>
<asrwt>0</asrwt>
<pdfrwt beam="1">  1        1 0.10762213E+00 0.24997920E+04</pdfrwt>
<pdfrwt beam="2">  1       -1 0.29624436E+00 0.24997920E+04</pdfrwt>
<totfact> 0.85115833E-01</totfact>
</mgrwt>
</event>
<event>
 8    1  0.2402290E-028  0.2166919E+04  0.7818608E-02  0.8532325E-01
          1   -1    0    0  501    0  0.00000000000E+00  0.00000000000E+00  0.10329008719E+04  0.10329008719E+04  0.50400000000E-02 0.  1.
         -1   -1    0    0    0  501 -0.00000000000E+00 -0.00000000000E+00 -0.11364931416E+04  0.11364931416E+04  0.50400000000E-02 0. -1.
     200001    2    1    2    0    0  0.16297869504E+03 -0.64676601324E+03  0.43871645823E+03  0.10608061337E+04  0.69854791654E+03 0.  0.
    5000001    2    3    3    0    0 -0.80608026483E+02 -0.66036613427E+02  0.74747597221E+02  0.17816551689E+03  0.12368209196E+03 0.  0.
        -13    1    4    4    0    0  0.16574634380E+02 -0.55825170515E+02  0.38030064747E+02  0.69551888232E+02  0.10566000000E+00 0. -1.
     200003    1    4    4    0    0 -0.97182660863E+02 -0.10211442912E+02  0.36717532474E+02  0.10861362866E+03  0.30000000000E+02 0. -1.
     200000    1    3    3    0    0  0.24358672152E+03 -0.58072939982E+03  0.36396886101E+03  0.88264061684E+03  0.50000000000E+03 0.  1.
    -200001    1    1    2    0    0 -0.16297869504E+03  0.64676601324E+03 -0.54230872795E+03  0.11085878798E+04  0.70000000000E+03 0.  1.
<mgrwt>
<rscale>  0 0.21669192E+04</rscale>
<asrwt>0</asrwt>
<pdfrwt beam="1">  1        1 0.14755727E+00 0.21669192E+04</pdfrwt>
<pdfrwt beam="2">  1       -1 0.16235616E+00 0.21669192E+04</pdfrwt>
<totfact> 0.42022353E+00</totfact>
</mgrwt>
</event>
<event>
 8    1  0.2402290E-028  0.3356222E+04  0.7818608E-02  0.8148735E-01
         -1   -1    0    0    0  501 -0.00000000000E+00  0.00000000000E+00  0.12032664637E+04  0.12032664637E+04  0.50400000000E-02 0.  1.
          1   -1    0    0  501    0  0.00000000000E+00 -0.00000000000E+00 -0.23403432380E+04  0.23403432380E+04  0.50400000000E-02 0. -1.
     200001    2    1    2    0    0 -0.96442157816E+03 -0.37361943893E+03  0.61472356007E+03  0.13922136720E+04  0.70048082596E+03 0.  0.
    5000001    2    3    3    0    0 -0.39389488085E+03 -0.17127105471E+03  0.22818758823E+03  0.51708188848E+03  0.17554814904E+03 0.  0.
        -13    1    4    4    0    0  0.12419710540E+02  0.88815367087E+01  0.20531133976E+02  0.25586510716E+02  0.10566000000E+00 0. -1.
     200003    1    4    4    0    0 -0.40631459139E+03 -0.18015259142E+03  0.20765645425E+03  0.49149537776E+03  0.30000000000E+02 0. -1.
     200000    1    3    3    0    0 -0.57052669732E+03 -0.20234838423E+03  0.38653597185E+03  0.87513178349E+03  0.50000000000E+03 0.  1.
    -200001    1    1    2    0    0  0.96442157816E+03  0.37361943893E+03 -0.17518003343E+04  0.21513960298E+04  0.70000000000E+03 0. -1.
<mgrwt>
<rscale>  0 0.33562220E+04</rscale>
<asrwt>0</asrwt>
<pdfrwt beam="1">  1        1 0.33433475E+00 0.33562220E+04</pdfrwt>
<pdfrwt beam="2">  1       -1 0.17189521E+00 0.33562220E+04</pdfrwt>
<totfact> 0.45100422E-01</totfact>
</mgrwt>
</event>
<event>
 8    1  0.2402290E-028  0.1594782E+04  0.7818608E-02  0.8823760E-01
          1   -1    0    0  501    0  0.00000000000E+00  0.00000000000E+00  0.20673536678E+04  0.20673536678E+04  0.50400000000E-02 0.  1.
         -1   -1    0    0    0  501 -0.00000000000E+00 -0.00000000000E+00 -0.30755843981E+03  0.30755843985E+03  0.50400000000E-02 0. -1.
     200001    2    1    2    0    0  0.18085901885E+03 -0.33222132817E+03  0.80222249397E+03  0.11299114906E+04  0.70004146384E+03 0.  0.
    5000001    2    3    3    0    0  0.12936291992E+03 -0.15719128918E+03  0.23230225119E+03  0.35010610081E+03  0.16482135625E+03 0.  0.
        -13    1    4    4    0    0  0.29369414348E+02 -0.70523159248E+02  0.19493664600E+03  0.20937140590E+03  0.10566000000E+00 0. -1.
     200003    1    4    4    0    0  0.99993505575E+02 -0.86668129930E+02  0.37365605188E+02  0.14073469492E+03  0.30000000000E+02 0. -1.
     200000    1    3    3    0    0  0.51496098927E+02 -0.17503003899E+03  0.56992024279E+03  0.77980538976E+03  0.50000000000E+03 0. -1.
    -200001    1    1    2    0    0 -0.18085901885E+03  0.33222132817E+03  0.95757273398E+03  0.12450006171E+04  0.70000000000E+03 0.  1.
<mgrwt>
<rscale>  0 0.15947816E+04</rscale>
<asrwt>0</asrwt>
<pdfrwt beam="1">  1        1 0.29533624E+00 0.15947816E+04</pdfrwt>
<pdfrwt beam="2">  1       -1 0.43936920E-01 0.15947816E+04</pdfrwt>
<totfact> 0.16643515E+01</totfact>
</mgrwt>
</event>
<event>
 8    1  0.2402290E-028  0.1509881E+04  0.7818608E-02  0.8877909E-01
          1   -1    0    0  501    0  0.00000000000E+00  0.00000000000E+00  0.14554077261E+04  0.14554077261E+04  0.50400000000E-02 0.  1.
         -1   -1    0    0    0  501 -0.00000000000E+00 -0.00000000000E+00 -0.39159819214E+03  0.39159819217E+03  0.50400000000E-02 0. -1.
     200001    2    1    2    0    0  0.21781954967E+03  0.70607999392E+02  0.36887940649E+03  0.83440593413E+03  0.71255203359E+03 0.  0.
    5000001    2    3    3    0    0  0.45929841251E+02  0.87523159566E+02  0.13011172179E+03  0.25402485091E+03  0.19449861427E+03 0.  0.
        -13    1    4    4    0    0  0.80366845448E+02  0.49006204903E+02 -0.16629250544E+02  0.95587557266E+02  0.10566000000E+00 0. -1.
     200003    1    4    4    0    0 -0.34437004198E+02  0.38516954662E+02  0.14674097233E+03  0.15843729364E+03  0.30000000000E+02 0. -1.
     200000    1    3    3    0    0  0.17188970842E+03 -0.16915160174E+02  0.23876768470E+03  0.58038108322E+03  0.50000000000E+03 0. -1.
    -200001    1    1    2    0    0 -0.21781954967E+03 -0.70607999392E+02  0.69493012743E+03  0.10125999841E+04  0.70000000000E+03 0.  1.
<mgrwt>
<rscale>  0 0.15098808E+04</rscale>
<asrwt>0</asrwt>
<pdfrwt beam="1">  1        1 0.20791539E+00 0.15098808E+04</pdfrwt>
<pdfrwt beam="2">  1       -1 0.55942599E-01 0.15098808E+04</pdfrwt>
<totfact> 0.26024907E+01</totfact>
</mgrwt>
</event>
<event>
 8    1  0.2402290E-028  0.1838642E+04  0.7818608E-02  0.8686016E-01
         -1   -1    0    0    0  501 -0.00000000000E+00  0.00000000000E+00  0.52621982168E+03  0.52621982171E+03  0.50400000000E-02 0. -1.
          1   -1    0    0  501    0  0.00000000000E+00 -0.00000000000E+00 -0.16060793374E+04  0.16060793374E+04  0.50400000000E-02 0.  1.
     200001    2    1    2    0    0 -0.43189085582E+01  0.14896859061E+03  0.13083150183E+03  0.72589131147E+03  0.69827718009E+03 0.  0.
    5000001    2    3    3    0    0 -0.33883485827E+02 -0.33470348058E+02  0.56781079764E+02  0.18770779669E+03  0.17245802709E+03 0.  0.
        -13    1    4    4    0    0  0.65675617621E+02 -0.21596176471E+02  0.10631994587E+01  0.69143496767E+02  0.10566000000E+00 0. -1.
     200003    1    4    4    0    0 -0.99559103447E+02 -0.11874171587E+02  0.55717880305E+02  0.11856429992E+03  0.30000000000E+02 0. -1.
     200000    1    3    3    0    0  0.29564577268E+02  0.18243893867E+03  0.74050422062E+02  0.53818351478E+03  0.50000000000E+03 0. -1.
    -200001    1    1    2    0    0  0.43189085582E+01 -0.14896859061E+03 -0.12106910175E+04  0.14064078476E+04  0.70000000000E+03 0.  1.
<mgrwt>
<rscale>  0 0.18386417E+04</rscale>
<asrwt>0</asrwt>
<pdfrwt beam="1">  1        1 0.22943990E+00 0.18386417E+04</pdfrwt>
<pdfrwt beam="2">  1       -1 0.75174261E-01 0.18386417E+04</pdfrwt>
<totfact> 0.11136762E+01</totfact>
</mgrwt>
</event>
<event>
 8    1  0.2402290E-028  0.1548447E+04  0.7818608E-02  0.8852860E-01
         -1   -1    0    0    0  501 -0.00000000000E+00  0.00000000000E+00  0.57697316074E+03  0.57697316077E+03  0.50400000000E-02 0. -1.
          1   -1    0    0  501    0  0.00000000000E+00 -0.00000000000E+00 -0.10389079521E+04  0.10389079521E+04  0.50400000000E-02 0.  1.
     200001    2    1    2    0    0  0.78997397491E+02 -0.90032047348E+02  0.93776656745E+02  0.71412639462E+03  0.69773640279E+03 0.  0.
    5000001    2    3    3    0    0  0.45812832757E+02  0.27800329464E+01  0.11849513632E+03  0.20390457931E+03  0.15946609640E+03 0.  0.
        -13    1    4    4    0    0  0.24404249311E+02  0.37539639649E+02  0.14138996781E+03  0.14831023596E+03  0.10566000000E+00 0. -1.
     200003    1    4    4    0    0  0.21408583446E+02 -0.34759606703E+02 -0.22894831488E+02  0.55594343347E+02  0.30000000000E+02 0. -1.
     200000    1    3    3    0    0  0.33184564734E+02 -0.92812080295E+02 -0.24718479576E+02  0.51022181531E+03  0.50000000000E+03 0. -1.
    -200001    1    1    2    0    0 -0.78997397491E+02  0.90032047348E+02 -0.55571144810E+03  0.90175471827E+03  0.70000000000E+03 0.  1.
<mgrwt>
<rscale>  0 0.15484470E+04</rscale>
<asrwt>0</asrwt>
<pdfrwt beam="1">  1        1 0.14841542E+00 0.15484470E+04</pdfrwt>
<pdfrwt beam="2">  1       -1 0.82424738E-01 0.15484470E+04</pdfrwt>
<totfact> 0.22812956E+01</totfact>
</mgrwt>
</event>
<event>
 8    1  0.2402290E-028  0.2041374E+04  0.7818608E-02  0.8587517E-01
          1   -1    0    0  501    0  0.00000000000E+00  0.00000000000E+00  0.48529135225E+03  0.48529135227E+03  0.50400000000E-02 0.  1.
         -1   -1    0    0    0  501 -0.00000000000E+00 -0.00000000000E+00 -0.21467566877E+04  0.21467566877E+04  0.50400000000E-02 0. -1.
     200001    2    1    2    0    0 -0.68098214501E+03 -0.28357293488E+03 -0.93874485637E+03  0.13844602947E+04  0.70095514203E+03 0.  0.
    5000001    2    3    3    0    0 -0.19692746026E+03  0.69918705695E+01 -0.33398750387E+03  0.41778128939E+03  0.15544851933E+03 0.  0.
        -13    1    4    4    0    0 -0.18845096141E+03  0.32798331570E+02 -0.19554925550E+03  0.27354893146E+03  0.10566000000E+00 0. -1.
     200003    1    4    4    0    0 -0.84764988466E+01 -0.25806461000E+02 -0.13843824837E+03  0.14423235793E+03  0.30000000000E+02 0. -1.
     200000    1    3    3    0    0 -0.48405468475E+03 -0.29056480545E+03 -0.60475735250E+03  0.96667900535E+03  0.50000000000E+03 0.  1.
    -200001    1    1    2    0    0  0.68098214501E+03  0.28357293488E+03 -0.72272047912E+03  0.12475877453E+04  0.70000000000E+03 0.  1.
<mgrwt>
<rscale>  0 0.20413745E+04</rscale>
<asrwt>0</asrwt>
<pdfrwt beam="1">  1        1 0.69327337E-01 0.20413745E+04</pdfrwt>
<pdfrwt beam="2">  1       -1 0.30667952E+00 0.20413745E+04</pdfrwt>
<totfact> 0.14181635E+00</totfact>
</mgrwt>
</event>
<event>
 8    1  0.2402290E-028  0.1876275E+04  0.7818608E-02  0.8666757E-01
         -1   -1    0    0    0  501 -0.00000000000E+00  0.00000000000E+00  0.52323705503E+03  0.52323705506E+03  0.50400000000E-02 0. -1.
          1   -1    0    0  501    0  0.00000000000E+00 -0.00000000000E+00 -0.16820330032E+04  0.16820330032E+04  0.50400000000E-02 0.  1.
     200001    2    1    2    0    0 -0.45745537040E+03  0.41296229683E+03 -0.63190995516E+03  0.11340968117E+04  0.71208293928E+03 0.  0.
    5000001    2    3    3    0    0 -0.17842592971E+03  0.92488092034E+02 -0.13777902959E+03  0.31267942919E+03  0.19594770957E+03 0.  0.
        -13    1    4    4    0    0 -0.31791371179E+01  0.86866950002E+02  0.12106955902E+01  0.86933600312E+02  0.10566000000E+00 0. -1.
     200003    1    4    4    0    0 -0.17524679259E+03  0.56211420326E+01 -0.13898972518E+03  0.22574582888E+03  0.30000000000E+02 0. -1.
     200000    1    3    3    0    0 -0.27902944070E+03  0.32047420480E+03 -0.49413092557E+03  0.82141738253E+03  0.50000000000E+03 0. -1.
    -200001    1    1    2    0    0  0.45745537040E+03 -0.41296229683E+03 -0.52688599303E+03  0.10711732466E+04  0.70000000000E+03 0.  1.
<mgrwt>
<rscale>  0 0.18762750E+04</rscale>
<asrwt>0</asrwt>
<pdfrwt beam="1">  1        1 0.24029043E+00 0.18762750E+04</pdfrwt>
<pdfrwt beam="2">  1       -1 0.74748152E-01 0.18762750E+04</pdfrwt>
<totfact> 0.10040857E+01</totfact>
</mgrwt>
</event>
<event>
 8    1  0.2402290E-028  0.1578583E+04  0.7818608E-02  0.8833814E-01
          1   -1    0    0  501    0  0.00000000000E+00  0.00000000000E+00  0.24732566185E+04  0.24732566185E+04  0.50400000000E-02 0. -1.
         -1   -1    0    0    0  501 -0.00000000000E+00 -0.00000000000E+00 -0.25188705606E+03  0.25188705611E+03  0.50400000000E-02 0.  1.
     200001    2    1    2    0    0  0.82879077964E+00  0.33975391723E+03  0.13376606472E+04  0.15476994687E+04  0.70043145787E+03 0.  0.
    5000001    2    3    3    0    0 -0.42116145652E+01  0.13097875034E+03  0.51873077336E+03  0.56573276139E+03  0.18384442156E+03 0.  0.
        -13    1    4    4    0    0 -0.42584778821E+02 -0.12777455071E+02  0.29153410083E+02  0.53166335484E+02  0.10566000000E+00 0. -1.
     200003    1    4    4    0    0  0.38373164256E+02  0.14375620541E+03  0.48957736328E+03  0.51256642590E+03  0.30000000000E+02 0. -1.
     200000    1    3    3    0    0  0.50404053448E+01  0.20877516689E+03  0.81892987380E+03  0.98196670727E+03  0.50000000000E+03 0.  1.
    -200001    1    1    2    0    0 -0.82879077964E+00 -0.33975391723E+03  0.88370891527E+03  0.11774442059E+04  0.70000000000E+03 0.  1.
<mgrwt>
<rscale>  0 0.15785833E+04</rscale>
<asrwt>0</asrwt>
<pdfrwt beam="1">  1        1 0.35332239E+00 0.15785833E+04</pdfrwt>
<pdfrwt beam="2">  1       -1 0.35983864E-01 0.15785833E+04</pdfrwt>
<totfact> 0.13315395E+01</totfact>
</mgrwt>
</event>
<event>
 8    1  0.2402290E-028  0.1933128E+04  0.7818608E-02  0.8638540E-01
          1   -1    0    0  501    0  0.00000000000E+00  0.00000000000E+00  0.16869607685E+04  0.16869607685E+04  0.50400000000E-02 0.  1.
         -1   -1    0    0    0  501 -0.00000000000E+00 -0.00000000000E+00 -0.55380430316E+03  0.55380430319E+03  0.50400000000E-02 0. -1.
     200001    2    1    2    0    0  0.64550678365E+03  0.16142342209E+03  0.64029546331E+03  0.11564918145E+04  0.69624601094E+03 0.  0.
    5000001    2    3    3    0    0  0.13820768327E+03  0.72388484436E+02  0.28263477414E+03  0.35449383075E+03  0.14643088504E+03 0.  0.
        -13    1    4    4    0    0  0.10248772394E+01  0.83474896131E+00 -0.16408173066E+02  0.16461667187E+02  0.10566000000E+00 0. -1.
     200003    1    4    4    0    0  0.13718280603E+03  0.71553735475E+02  0.29904294721E+03  0.33803216357E+03  0.30000000000E+02 0. -1.
     200000    1    3    3    0    0  0.50729910039E+03  0.89034937654E+02  0.35766068917E+03  0.80199798376E+03  0.50000000000E+03 0.  1.
    -200001    1    1    2    0    0 -0.64550678365E+03 -0.16142342209E+03  0.49286100205E+03  0.10842732572E+04  0.70000000000E+03 0. -1.
<mgrwt>
<rscale>  0 0.19331282E+04</rscale>
<asrwt>0</asrwt>
<pdfrwt beam="1">  1        1 0.24099439E+00 0.19331282E+04</pdfrwt>
<pdfrwt beam="2">  1       -1 0.79114902E-01 0.19331282E+04</pdfrwt>
<totfact> 0.88025166E+00</totfact>
</mgrwt>
</event>
<event>
 8    1  0.2402290E-028  0.1494034E+04  0.7818608E-02  0.8888430E-01
         -1   -1    0    0    0  501 -0.00000000000E+00  0.00000000000E+00  0.94178513685E+03  0.94178513686E+03  0.50400000000E-02 0.  1.
          1   -1    0    0  501    0  0.00000000000E+00 -0.00000000000E+00 -0.59252811740E+03  0.59252811742E+03  0.50400000000E-02 0. -1.
     200001    2    1    2    0    0 -0.25255402336E+03 -0.42554530892E+02  0.22817089267E+03  0.77916010895E+03  0.69959566630E+03 0.  0.
    5000001    2    3    3    0    0 -0.12341889217E+03 -0.93046528851E+02 -0.81823987177E+00  0.21200814802E+03  0.14510997841E+03 0.  0.
        -13    1    4    4    0    0 -0.12564718856E+03 -0.45059606471E+02 -0.44260549201E+02  0.14062926974E+03  0.10566000000E+00 0. -1.
     200003    1    4    4    0    0  0.22282963923E+01 -0.47986922380E+02  0.43442309329E+02  0.71378878277E+02  0.30000000000E+02 0. -1.
     200000    1    3    3    0    0 -0.12913513119E+03  0.50491997959E+02  0.22898913254E+03  0.56715196093E+03  0.50000000000E+03 0.  1.
    -200001    1    1    2    0    0  0.25255402336E+03  0.42554530892E+02  0.12108612678E+03  0.75515314534E+03  0.70000000000E+03 0.  1.
<mgrwt>
<rscale>  0 0.14940337E+04</rscale>
<asrwt>0</asrwt>
<pdfrwt beam="1">  1        1 0.84646874E-01 0.14940337E+04</pdfrwt>
<pdfrwt beam="2">  1       -1 0.13454073E+00 0.14940337E+04</pdfrwt>
<totfact> 0.17482739E+01</totfact>
</mgrwt>
</event>
<event>
 8    1  0.2402290E-028  0.1472243E+04  0.7818608E-02  0.8903123E-01
         -1   -1    0    0    0  501 -0.00000000000E+00  0.00000000000E+00  0.89286777868E+03  0.89286777869E+03  0.50400000000E-02 0.  1.
          1   -1    0    0  501    0  0.00000000000E+00 -0.00000000000E+00 -0.60689296086E+03  0.60689296088E+03  0.50400000000E-02 0. -1.
     200001    2    1    2    0    0  0.17921406470E+03 -0.17695949339E+02  0.43602782916E+01  0.72404328039E+03  0.70127657329E+03 0.  0.
    5000001    2    3    3    0    0  0.55303885514E+02  0.50704468662E+02 -0.71465903954E+02  0.19889381633E+03  0.16977017362E+03 0.  0.
        -13    1    4    4    0    0  0.72383695391E+02 -0.38305181250E+02 -0.40005227730E+01  0.81992082639E+02  0.10566000000E+00 0. -1.
     200003    1    4    4    0    0 -0.17079809877E+02  0.89009649911E+02 -0.67465381181E+02  0.11690173369E+03  0.30000000000E+02 0. -1.
     200000    1    3    3    0    0  0.12391017918E+03 -0.68400418000E+02  0.75826182245E+02  0.52514946406E+03  0.50000000000E+03 0.  1.
    -200001    1    1    2    0    0 -0.17921406470E+03  0.17695949339E+02  0.28161453952E+03  0.77571745918E+03  0.70000000000E+03 0.  1.
<mgrwt>
<rscale>  0 0.14722434E+04</rscale>
<asrwt>0</asrwt>
<pdfrwt beam="1">  1        1 0.86698995E-01 0.14722434E+04</pdfrwt>
<pdfrwt beam="2">  1       -1 0.12755254E+00 0.14722434E+04</pdfrwt>
<totfact> 0.19381126E+01</totfact>
</mgrwt>
</event>
<event>
 8    1  0.2402290E-028  0.1890027E+04  0.7818608E-02  0.8659837E-01
          1   -1    0    0  501    0  0.00000000000E+00  0.00000000000E+00  0.12267875601E+04  0.12267875601E+04  0.50400000000E-02 0.  1.
         -1   -1    0    0    0  501 -0.00000000000E+00 -0.00000000000E+00 -0.72795820738E+03  0.72795820739E+03  0.50400000000E-02 0. -1.
     200001    2    1    2    0    0 -0.48851477588E+03  0.40507605125E+03  0.22947616076E+03  0.97225686907E+03  0.69992200819E+03 0.  0.
    5000001    2    3    3    0    0 -0.22287876201E+03  0.18565515039E+03  0.78421100672E+02  0.34653676010E+03  0.17261251300E+03 0.  0.
        -13    1    4    4    0    0  0.24991645471E+02 -0.21919923385E+01  0.52466341340E+01  0.25630558081E+02  0.10566000000E+00 0. -1.
     200003    1    4    4    0    0 -0.24787040749E+03  0.18784714273E+03  0.73174466538E+02  0.32090620202E+03  0.30000000000E+02 0. -1.
     200000    1    3    3    0    0 -0.26563601386E+03  0.21942090085E+03  0.15105506009E+03  0.62572010897E+03  0.50000000000E+03 0.  1.
    -200001    1    1    2    0    0  0.48851477588E+03 -0.40507605125E+03  0.26935319198E+03  0.98248889845E+03  0.70000000000E+03 0. -1.
<mgrwt>
<rscale>  0 0.18900265E+04</rscale>
<asrwt>0</asrwt>
<pdfrwt beam="1">  1        1 0.17525536E+00 0.18900265E+04</pdfrwt>
<pdfrwt beam="2">  1       -1 0.10399403E+00 0.18900265E+04</pdfrwt>
<totfact> 0.97020495E+00</totfact>
</mgrwt>
</event>
<event>
 8    1  0.2402290E-028  0.2693439E+04  0.7818608E-02  0.8337137E-01
          1   -1    0    0  501    0  0.00000000000E+00  0.00000000000E+00  0.18852463475E+04  0.18852463475E+04  0.50400000000E-02 0.  1.
         -1   -1    0    0    0  501 -0.00000000000E+00 -0.00000000000E+00 -0.96202433065E+03  0.96202433067E+03  0.50400000000E-02 0. -1.
     200001    2    1    2    0    0 -0.79384015704E+03 -0.34336177305E+03  0.12633666840E+04  0.16837510623E+04  0.70060171223E+03 0.  0.
    5000001    2    3    3    0    0 -0.26785894228E+03 -0.52970495336E+02  0.30989429141E+03  0.45083057173E+03  0.18071924695E+03 0.  0.
        -13    1    4    4    0    0 -0.28851497702E+02  0.11062881789E+02 -0.20413069874E+02  0.37033779970E+02  0.10566000000E+00 0. -1.
     200003    1    4    4    0    0 -0.23900744458E+03 -0.64033377125E+02  0.33030736128E+03  0.41379679176E+03  0.30000000000E+02 0. -1.
     200000    1    3    3    0    0 -0.52598121476E+03 -0.29039127771E+03  0.95347239264E+03  0.12329204905E+04  0.50000000000E+03 0.  1.
    -200001    1    1    2    0    0  0.79384015704E+03  0.34336177305E+03 -0.34014466716E+03  0.11635196160E+04  0.70000000000E+03 0. -1.
<mgrwt>
<rscale>  0 0.26934386E+04</rscale>
<asrwt>0</asrwt>
<pdfrwt beam="1">  1        1 0.26932090E+00 0.26934386E+04</pdfrwt>
<pdfrwt beam="2">  1       -1 0.13743205E+00 0.26934386E+04</pdfrwt>
<totfact> 0.17031013E+00</totfact>
</mgrwt>
</event>
<event>
 8    1  0.2402290E-028  0.2495514E+04  0.7818608E-02  0.8404586E-01
         -1   -1    0    0    0  501 -0.00000000000E+00  0.00000000000E+00  0.25302240787E+04  0.25302240787E+04  0.50400000000E-02 0. -1.
          1   -1    0    0  501    0  0.00000000000E+00 -0.00000000000E+00 -0.61531986517E+03  0.61531986519E+03  0.50400000000E-02 0.  1.
     200001    2    1    2    0    0 -0.51836140082E+03 -0.75868973460E+03  0.36246884273E+03  0.12105079660E+04  0.69974082241E+03 0.  0.
    5000001    2    3    3    0    0 -0.86175428796E+02 -0.18015419905E+03  0.12694284915E+03  0.30113423977E+03  0.18624071371E+03 0.  0.
        -13    1    4    4    0    0 -0.10247937564E+03 -0.18220710100E+03  0.47123516851E+02  0.21429439351E+03  0.10566000000E+00 0. -1.
     200003    1    4    4    0    0  0.16303946847E+02  0.20529019433E+01  0.79819332298E+02  0.86839846255E+02  0.30000000000E+02 0. -1.
     200000    1    3    3    0    0 -0.43218597202E+03 -0.57853553555E+03  0.23552599358E+03  0.90937372623E+03  0.50000000000E+03 0.  1.
    -200001    1    1    2    0    0  0.51836140082E+03  0.75868973460E+03  0.15524353708E+04  0.19350359779E+04  0.70000000000E+03 0. -1.
<mgrwt>
<rscale>  0 0.24955137E+04</rscale>
<asrwt>0</asrwt>
<pdfrwt beam="1">  1        1 0.87902837E-01 0.24955137E+04</pdfrwt>
<pdfrwt beam="2">  1       -1 0.36146059E+00 0.24955137E+04</pdfrwt>
<totfact> 0.42803328E-01</totfact>
</mgrwt>
</event>
<event>
 8    1  0.2402290E-028  0.1610827E+04  0.7818608E-02  0.8813924E-01
          1   -1    0    0  501    0  0.00000000000E+00  0.00000000000E+00  0.13677033285E+04  0.13677033285E+04  0.50400000000E-02 0.  1.
         -1   -1    0    0    0  501 -0.00000000000E+00 -0.00000000000E+00 -0.47429201390E+03  0.47429201393E+03  0.50400000000E-02 0. -1.
     200001    2    1    2    0    0  0.28131227723E+03 -0.18725389769E+03  0.68790060418E+03  0.10379833577E+04  0.70000113577E+03 0.  0.
    5000001    2    3    3    0    0  0.20116590345E+02 -0.16707060347E+03  0.14210852044E+03  0.25279576807E+03  0.12407096767E+03 0.  0.
        -13    1    4    4    0    0 -0.48311616958E+02 -0.78307369138E+02  0.75425928968E+02  0.11897536854E+03  0.10566000000E+00 0. -1.
     200003    1    4    4    0    0  0.68428207303E+02 -0.88763234333E+02  0.66682591471E+02  0.13382039953E+03  0.30000000000E+02 0. -1.
     200000    1    3    3    0    0  0.26119568688E+03 -0.20183294219E+02  0.54579208375E+03  0.78518758962E+03  0.50000000000E+03 0. -1.
    -200001    1    1    2    0    0 -0.28131227723E+03  0.18725389769E+03  0.20551071041E+03  0.80401198474E+03  0.70000000000E+03 0. -1.
<mgrwt>
<rscale>  0 0.16108268E+04</rscale>
<asrwt>0</asrwt>
<pdfrwt beam="1">  1        1 0.19538619E+00 0.16108268E+04</pdfrwt>
<pdfrwt beam="2">  1       -1 0.67756003E-01 0.16108268E+04</pdfrwt>
<totfact> 0.20152525E+01</totfact>
</mgrwt>
</event>
<event>
 8    1  0.2402290E-028  0.1488149E+04  0.7818608E-02  0.8892372E-01
          1   -1    0    0  501    0  0.00000000000E+00  0.00000000000E+00  0.14090313936E+04  0.14090313936E+04  0.50400000000E-02 0. -1.
         -1   -1    0    0    0  501 -0.00000000000E+00 -0.00000000000E+00 -0.39292722081E+03  0.39292722084E+03  0.50400000000E-02 0.  1.
     200001    2    1    2    0    0  0.50258533159E+02  0.11573298132E+03  0.24378799024E+03  0.75200988762E+03  0.70011873549E+03 0.  0.
    5000001    2    3    3    0    0  0.46496438490E+02 -0.40343003520E+02  0.30827734321E+02  0.18656675432E+03  0.17339933071E+03 0.  0.
        -13    1    4    4    0    0 -0.63186038132E+02  0.46845778414E+00  0.10900863253E+02  0.64121251167E+02  0.10566000000E+00 0. -1.
     200003    1    4    4    0    0  0.10968247662E+03 -0.40811461305E+02  0.19926871068E+02  0.12244550315E+03  0.30000000000E+02 0. -1.
     200000    1    3    3    0    0  0.37620946686E+01  0.15607598484E+03  0.21296025591E+03  0.56544313330E+03  0.50000000000E+03 0. -1.
    -200001    1    1    2    0    0 -0.50258533159E+02 -0.11573298132E+03  0.77231618255E+03  0.10499487268E+04  0.70000000000E+03 0. -1.
<mgrwt>
<rscale>  0 0.14881489E+04</rscale>
<asrwt>0</asrwt>
<pdfrwt beam="1">  1        1 0.20129020E+00 0.14881489E+04</pdfrwt>
<pdfrwt beam="2">  1       -1 0.56132460E-01 0.14881489E+04</pdfrwt>
<totfact> 0.27790784E+01</totfact>
</mgrwt>
</event>
<event>
 8    1  0.2402290E-028  0.1441559E+04  0.7818608E-02  0.8924273E-01
          1   -1    0    0  501    0  0.00000000000E+00  0.00000000000E+00  0.10259051651E+04  0.10259051651E+04  0.50400000000E-02 0.  1.
         -1   -1    0    0    0  501 -0.00000000000E+00 -0.00000000000E+00 -0.50640473727E+03  0.50640473729E+03  0.50400000000E-02 0. -1.
     200001    2    1    2    0    0  0.47438028067E+02 -0.68814629942E+02  0.41912569877E+03  0.82022781017E+03  0.70008677277E+03 0.  0.
    5000001    2    3    3    0    0 -0.86942162397E+02 -0.15083555789E+02  0.18306335008E+03  0.24867685322E+03  0.14332318001E+03 0.  0.
        -13    1    4    4    0    0 -0.83056900070E+01 -0.60701308744E+02  0.30187468240E+02  0.68300276518E+02  0.10566000000E+00 0. -1.
     200003    1    4    4    0    0 -0.78636472390E+02  0.45617752954E+02  0.15287588184E+03  0.18037657670E+03  0.30000000000E+02 0. -1.
     200000    1    3    3    0    0  0.13438019046E+03 -0.53731074153E+02  0.23606234869E+03  0.57155095695E+03  0.50000000000E+03 0. -1.
    -200001    1    1    2    0    0 -0.47438028067E+02  0.68814629942E+02  0.10037472902E+03  0.71208209220E+03  0.70000000000E+03 0. -1.
<mgrwt>
<rscale>  0 0.14415592E+04</rscale>
<asrwt>0</asrwt>
<pdfrwt beam="1">  1        1 0.14655788E+00 0.14415592E+04</pdfrwt>
<pdfrwt beam="2">  1       -1 0.72343534E-01 0.14415592E+04</pdfrwt>
<totfact> 0.30973334E+01</totfact>
</mgrwt>
</event>
<event>
 8    1  0.2402290E-028  0.1504536E+04  0.7818608E-02  0.8881442E-01
          1   -1    0    0  501    0  0.00000000000E+00  0.00000000000E+00  0.14665927805E+04  0.14665927806E+04  0.50400000000E-02 0.  1.
         -1   -1    0    0    0  501 -0.00000000000E+00 -0.00000000000E+00 -0.38586519928E+03  0.38586519931E+03  0.50400000000E-02 0. -1.
     200001    2    1    2    0    0 -0.54104337630E+02 -0.14055870834E+02  0.87271631416E+03  0.11200690572E+04  0.69985432838E+03 0.  0.
    5000001    2    3    3    0    0  0.27021047773E+02  0.20181956852E+02  0.25834704199E+03  0.32307272116E+03  0.19103753729E+03 0.  0.
        -13    1    4    4    0    0  0.10380046427E+03  0.19307769327E+02  0.10461518365E+03  0.14863268199E+03  0.10566000000E+00 0. -1.
     200003    1    4    4    0    0 -0.76779416499E+02  0.87418752454E+00  0.15373185833E+03  0.17444003918E+03  0.30000000000E+02 0. -1.
     200000    1    3    3    0    0 -0.81125385403E+02 -0.34237827686E+02  0.61436927217E+03  0.79699633599E+03  0.50000000000E+03 0.  1.
    -200001    1    1    2    0    0  0.54104337630E+02  0.14055870834E+02  0.20801126711E+03  0.73238892271E+03  0.70000000000E+03 0. -1.
<mgrwt>
<rscale>  0 0.15045360E+04</rscale>
<asrwt>0</asrwt>
<pdfrwt beam="1">  1        1 0.20951325E+00 0.15045360E+04</pdfrwt>
<pdfrwt beam="2">  1       -1 0.55123600E-01 0.15045360E+04</pdfrwt>
<totfact> 0.26343586E+01</totfact>
</mgrwt>
</event>
<event>
 8    1  0.2402290E-028  0.1582078E+04  0.7818608E-02  0.8831635E-01
         -1   -1    0    0    0  501 -0.00000000000E+00  0.00000000000E+00  0.41302860792E+03  0.41302860795E+03  0.50400000000E-02 0. -1.
          1   -1    0    0  501    0  0.00000000000E+00 -0.00000000000E+00 -0.15150098919E+04  0.15150098920E+04  0.50400000000E-02 0.  1.
     200001    2    1    2    0    0 -0.16650612443E+03  0.23882857853E+03 -0.82628177381E+03  0.11213331018E+04  0.69991640650E+03 0.  0.
    5000001    2    3    3    0    0  0.25051040203E+02  0.69799972056E+02 -0.30861038249E+03  0.35762603328E+03  0.16479205316E+03 0.  0.
        -13    1    4    4    0    0 -0.43148832342E+02 -0.20510842139E+02 -0.16796596888E+03  0.17462844626E+03  0.10566000000E+00 0. -1.
     200003    1    4    4    0    0  0.68199872545E+02  0.90310814195E+02 -0.14064441361E+03  0.18299758702E+03  0.30000000000E+02 0. -1.
     200000    1    3    3    0    0 -0.19155716463E+03  0.16902860647E+03 -0.51767139132E+03  0.76370706853E+03  0.50000000000E+03 0. -1.
    -200001    1    1    2    0    0  0.16650612443E+03 -0.23882857853E+03 -0.27569951022E+03  0.80670539810E+03  0.70000000000E+03 0. -1.
<mgrwt>
<rscale>  0 0.15820777E+04</rscale>
<asrwt>0</asrwt>
<pdfrwt beam="1">  1        1 0.21642998E+00 0.15820777E+04</pdfrwt>
<pdfrwt beam="2">  1       -1 0.59004088E-01 0.15820777E+04</pdfrwt>
<totfact> 0.21306826E+01</totfact>
</mgrwt>
</event>
<event>
 8    1  0.2402290E-028  0.2341853E+04  0.7818608E-02  0.8461600E-01
         -1   -1    0    0    0  501 -0.00000000000E+00  0.00000000000E+00  0.12669969080E+04  0.12669969080E+04  0.50400000000E-02 0.  1.
          1   -1    0    0  501    0  0.00000000000E+00 -0.00000000000E+00 -0.10821403205E+04  0.10821403205E+04  0.50400000000E-02 0. -1.
     200001    2    1    2    0    0  0.22773129808E+03  0.30417045761E+02 -0.82050136028E+03  0.11027298537E+04  0.70000279092E+03 0.  0.
    5000001    2    3    3    0    0  0.12769231991E+02  0.14872545319E+02 -0.17952969208E+03  0.26172152988E+03  0.18942809447E+03 0.  0.
        -13    1    4    4    0    0 -0.64045451574E+02 -0.49918815316E+02 -0.51223159321E+02  0.96007974693E+02  0.10566000000E+00 0. -1.
     200003    1    4    4    0    0  0.76814683566E+02  0.64791360634E+02 -0.12830653276E+03  0.16571355519E+03  0.30000000000E+02 0. -1.
     200000    1    3    3    0    0  0.21496206609E+03  0.15544500442E+02 -0.64097166821E+03  0.84100832386E+03  0.50000000000E+03 0. -1.
    -200001    1    1    2    0    0 -0.22773129808E+03 -0.30417045761E+02  0.10053579477E+04  0.12464073748E+04  0.70000000000E+03 0.  1.
<mgrwt>
<rscale>  0 0.23418526E+04</rscale>
<asrwt>0</asrwt>
<pdfrwt beam="1">  1        1 0.15459147E+00 0.23418526E+04</pdfrwt>
<pdfrwt beam="2">  1       -1 0.18099956E+00 0.23418526E+04</pdfrwt>
<totfact> 0.27813388E+00</totfact>
</mgrwt>
</event>
<event>
 8    1  0.2402290E-028  0.1931327E+04  0.7818608E-02  0.8639418E-01
          1   -1    0    0  501    0  0.00000000000E+00  0.00000000000E+00  0.21199927842E+04  0.21199927842E+04  0.50400000000E-02 0.  1.
         -1   -1    0    0    0  501 -0.00000000000E+00 -0.00000000000E+00 -0.43986267827E+03  0.43986267830E+03  0.50400000000E-02 0. -1.
     200001    2    1    2    0    0 -0.19227489458E+03  0.63655854331E+03  0.85748201842E+03  0.12914208800E+04  0.70022572314E+03 0.  0.
    5000001    2    3    3    0    0 -0.79875999851E+02  0.10936942492E+03  0.32093159164E+03  0.38122956028E+03  0.15490979525E+03 0.  0.
        -13    1    4    4    0    0 -0.61713660242E+02  0.90698148459E+02  0.76867371787E+02  0.13395273048E+03  0.10566000000E+00 0. -1.
     200003    1    4    4    0    0 -0.18162339609E+02  0.18671276460E+02  0.24406421985E+03  0.24727682980E+03  0.30000000000E+02 0. -1.
     200000    1    3    3    0    0 -0.11239889473E+03  0.52718911839E+03  0.53655042678E+03  0.91019131976E+03  0.50000000000E+03 0.  1.
    -200001    1    1    2    0    0  0.19227489458E+03 -0.63655854331E+03  0.82264808755E+03  0.12684345825E+04  0.70000000000E+03 0. -1.
<mgrwt>
<rscale>  0 0.19313267E+04</rscale>
<asrwt>0</asrwt>
<pdfrwt beam="1">  1        1 0.30285612E+00 0.19313267E+04</pdfrwt>
<pdfrwt beam="2">  1       -1 0.62837524E-01 0.19313267E+04</pdfrwt>
<totfact> 0.75277717E+00</totfact>
</mgrwt>
</event>
<event>
 8    1  0.2402290E-028  0.1933393E+04  0.7818608E-02  0.8638411E-01
         -1   -1    0    0    0  501 -0.00000000000E+00  0.00000000000E+00  0.10434186972E+04  0.10434186972E+04  0.50400000000E-02 0.  1.
          1   -1    0    0  501    0  0.00000000000E+00 -0.00000000000E+00 -0.89561540962E+03  0.89561540964E+03  0.50400000000E-02 0. -1.
     200001    2    1    2    0    0 -0.38022905875E+03  0.24794074850E+03 -0.41643249421E+03  0.93185449559E+03  0.69920528232E+03 0.  0.
    5000001    2    3    3    0    0 -0.94116603159E+02  0.70932531254E+02 -0.21214267327E+03  0.29551608157E+03  0.16862942111E+03 0.  0.
        -13    1    4    4    0    0 -0.11251287037E+03 -0.83757529251E+01 -0.15465024390E+03  0.19143147165E+03  0.10566000000E+00 0. -1.
     200003    1    4    4    0    0  0.18396267212E+02  0.79308284180E+02 -0.57492429366E+02  0.10408460992E+03  0.30000000000E+02 0. -1.
     200000    1    3    3    0    0 -0.28611245559E+03  0.17700821725E+03 -0.20428982094E+03  0.63633841402E+03  0.50000000000E+03 0. -1.
    -200001    1    1    2    0    0  0.38022905875E+03 -0.24794074850E+03  0.56423578178E+03  0.10071796113E+04  0.70000000000E+03 0.  1.
<mgrwt>
<rscale>  0 0.19333927E+04</rscale>
<asrwt>0</asrwt>
<pdfrwt beam="1">  1        1 0.12794506E+00 0.19333927E+04</pdfrwt>
<pdfrwt beam="2">  1       -1 0.14905981E+00 0.19333927E+04</pdfrwt>
<totfact> 0.69035595E+00</totfact>
</mgrwt>
</event>
<event>
 8    1  0.2402290E-028  0.1997092E+04  0.7818608E-02  0.8607981E-01
          1   -1    0    0  501    0  0.00000000000E+00  0.00000000000E+00  0.15509590609E+04  0.15509590609E+04  0.50400000000E-02 0.  1.
         -1   -1    0    0    0  501 -0.00000000000E+00 -0.00000000000E+00 -0.64288888550E+03  0.64288888552E+03  0.50400000000E-02 0. -1.
     200001    2    1    2    0    0  0.31994156803E+03 -0.63502073908E+03  0.49160324662E+03  0.11126177911E+04  0.70045032009E+03 0.  0.
    5000001    2    3    3    0    0  0.59003980234E+02 -0.49227475105E+02  0.21673787848E+03  0.25425123567E+03  0.10845998747E+03 0.  0.
        -13    1    4    4    0    0 -0.40896635505E+01 -0.48541647096E+02  0.36275893580E+02  0.60736878993E+02  0.10566000000E+00 0. -1.
     200003    1    4    4    0    0  0.63093643784E+02 -0.68582800920E+00  0.18046198490E+03  0.19351435667E+03  0.30000000000E+02 0. -1.
     200000    1    3    3    0    0  0.26093758780E+03 -0.58579326398E+03  0.27486536814E+03  0.85836655541E+03  0.50000000000E+03 0.  1.
    -200001    1    1    2    0    0 -0.31994156803E+03  0.63502073908E+03  0.41646692874E+03  0.10812301553E+04  0.70000000000E+03 0. -1.
<mgrwt>
<rscale>  0 0.19970922E+04</rscale>
<asrwt>0</asrwt>
<pdfrwt beam="1">  1        1 0.22156558E+00 0.19970922E+04</pdfrwt>
<pdfrwt beam="2">  1       -1 0.91841268E-01 0.19970922E+04</pdfrwt>
<totfact> 0.77484926E+00</totfact>
</mgrwt>
</event>
<event>
 8    1  0.2402290E-028  0.1972677E+04  0.7818608E-02  0.8619503E-01
          1   -1    0    0  501    0  0.00000000000E+00  0.00000000000E+00  0.17543827290E+04  0.17543827290E+04  0.50400000000E-02 0.  1.
         -1   -1    0    0    0  501 -0.00000000000E+00 -0.00000000000E+00 -0.55453344294E+03  0.55453344297E+03  0.50400000000E-02 0. -1.
     200001    2    1    2    0    0  0.24240909632E+03 -0.56618556675E+03  0.22307681421E+03  0.95857816698E+03  0.69984324759E+03 0.  0.
    5000001    2    3    3    0    0  0.10581331454E+03 -0.16351519279E+03 -0.13711843414E+02  0.26081695707E+03  0.17292713680E+03 0.  0.
        -13    1    4    4    0    0  0.55796914702E+02  0.24532036809E+02 -0.19052810584E+02  0.63860294984E+02  0.10566000000E+00 0. -1.
     200003    1    4    4    0    0  0.50016399840E+02 -0.18804722960E+03  0.53409671695E+01  0.19695666209E+03  0.30000000000E+02 0. -1.
     200000    1    3    3    0    0  0.13659578178E+03 -0.40267037397E+03  0.23678865762E+03  0.69776120991E+03  0.50000000000E+03 0. -1.
    -200001    1    1    2    0    0 -0.24240909632E+03  0.56618556675E+03  0.97677247187E+03  0.13503380050E+04  0.70000000000E+03 0.  1.
<mgrwt>
<rscale>  0 0.19726773E+04</rscale>
<asrwt>0</asrwt>
<pdfrwt beam="1">  1        1 0.25062611E+00 0.19726773E+04</pdfrwt>
<pdfrwt beam="2">  1       -1 0.79219062E-01 0.19726773E+04</pdfrwt>
<totfact> 0.79235839E+00</totfact>
</mgrwt>
</event>
