<event>
 4    1  0.5847263E-005  0.7100303E+03  0.7818608E-02  0.9700231E-01
         -2   -1    0    0    0  501 -0.00000000000E+00  0.00000000000E+00  0.17661369322E+03  0.17661369324E+03  0.25500000000E-02 0. -1.
          2   -1    0    0  501    0  0.00000000000E+00 -0.00000000000E+00 -0.71362385126E+03  0.71362385126E+03  0.25500000000E-02 0.  1.
    5000001    1    1    2    0    0  0.29814897059E+03 -0.13504245575E+02 -0.25618391891E+03  0.43768638729E+03  0.19200000000E+03 0.  0.
   -5000001    1    1    2    0    0 -0.29814897059E+03  0.13504245575E+02 -0.28082623913E+03  0.45255115721E+03  0.19200000000E+03 0.  0.
<mgrwt>
<rscale>  0 0.71003026E+03</rscale>
<asrwt>0</asrwt>
<pdfrwt beam="1">  1        2 0.10194626E+00 0.71003026E+03</pdfrwt>
<pdfrwt beam="2">  1       -2 0.25230528E-01 0.71003026E+03</pdfrwt>
<totfact> 0.62166547E+02</totfact>
</mgrwt>
</event>
<event>
 4    1  0.5847263E-005  0.1141557E+04  0.7818608E-02  0.9165608E-01
         -2   -1    0    0    0  501 -0.00000000000E+00  0.00000000000E+00  0.50850266215E+03  0.50850266216E+03  0.25500000000E-02 0. -1.
          2   -1    0    0  501    0  0.00000000000E+00 -0.00000000000E+00 -0.64068116672E+03  0.64068116673E+03  0.25500000000E-02 0.  1.
    5000001    1    1    2    0    0  0.35678049822E+03  0.26270412420E+03 -0.37245507442E+03  0.60982994617E+03  0.19200000000E+03 0.  0.
   -5000001    1    1    2    0    0 -0.35678049822E+03 -0.26270412420E+03  0.24027656984E+03  0.53935388271E+03  0.19200000000E+03 0.  0.
<mgrwt>
<rscale>  0 0.11415570E+04</rscale>
<asrwt>0</asrwt>
<pdfrwt beam="1">  1        2 0.91525880E-01 0.11415570E+04</pdfrwt>
<pdfrwt beam="2">  1       -2 0.72643238E-01 0.11415570E+04</pdfrwt>
<totfact> 0.85224175E+01</totfact>
</mgrwt>
</event>
<event>
 4    1  0.5847263E-005  0.6613078E+03  0.7818608E-02  0.9785789E-01
          2   -1    0    0  501    0  0.00000000000E+00  0.00000000000E+00  0.28552943370E+04  0.28552943370E+04  0.25500000000E-02 0.  1.
         -2   -1    0    0    0  501 -0.00000000000E+00 -0.00000000000E+00 -0.38290976732E+02  0.38290976817E+02  0.25500000000E-02 0. -1.
    5000001    1    1    2    0    0  0.12160331061E+03  0.23129478961E+03  0.16915075700E+04  0.17223084812E+04  0.19200000000E+03 0.  0.
   -5000001    1    1    2    0    0 -0.12160331061E+03 -0.23129478961E+03  0.11254957903E+04  0.11712768327E+04  0.19200000000E+03 0.  0.
<mgrwt>
<rscale>  0 0.66130782E+03</rscale>
<asrwt>0</asrwt>
<pdfrwt beam="1">  1        2 0.40789911E+00 0.66130782E+03</pdfrwt>
<pdfrwt beam="2">  1       -2 0.54701406E-02 0.66130782E+03</pdfrwt>
<totfact> 0.53553553E+02</totfact>
</mgrwt>
</event>
<event>
 4    1  0.5847263E-005  0.4522339E+03  0.7818608E-02  0.1027058E+00
         -2   -1    0    0    0  501 -0.00000000000E+00  0.00000000000E+00  0.24976068088E+04  0.24976068088E+04  0.25500000000E-02 0. -1.
          2   -1    0    0  501    0  0.00000000000E+00 -0.00000000000E+00 -0.20471150514E+02  0.20471150673E+02  0.25500000000E-02 0.  1.
    5000001    1    1    2    0    0 -0.90932576534E+02 -0.42092573118E+02  0.87666928889E+03  0.90302467312E+03  0.19200000000E+03 0.  0.
   -5000001    1    1    2    0    0  0.90932576534E+02  0.42092573118E+02  0.16004663694E+04  0.16150532864E+04  0.19200000000E+03 0.  0.
<mgrwt>
<rscale>  0 0.45223394E+03</rscale>
<asrwt>0</asrwt>
<pdfrwt beam="1">  1        2 0.29244511E-02 0.45223394E+03</pdfrwt>
<pdfrwt beam="2">  1       -2 0.35680085E+00 0.45223394E+03</pdfrwt>
<totfact> 0.53145745E+01</totfact>
</mgrwt>
</event>
<event>
 4    1  0.5847263E-005  0.8641446E+03  0.7818608E-02  0.9471547E-01
         -2   -1    0    0    0  501 -0.00000000000E+00  0.00000000000E+00  0.21813448848E+03  0.21813448850E+03  0.25500000000E-02 0. -1.
          2   -1    0    0  501    0  0.00000000000E+00 -0.00000000000E+00 -0.85583196998E+03  0.85583196998E+03  0.25500000000E-02 0.  1.
    5000001    1    1    2    0    0 -0.25597945463E+03  0.11670249771E+03  0.11554985619E+02  0.34079681902E+03  0.19200000000E+03 0.  0.
   -5000001    1    1    2    0    0  0.25597945463E+03 -0.11670249771E+03 -0.64925246712E+03  0.73316963946E+03  0.19200000000E+03 0.  0.
<mgrwt>
<rscale>  0 0.86414459E+03</rscale>
<asrwt>0</asrwt>
<pdfrwt beam="1">  1        2 0.12226171E+00 0.86414459E+03</pdfrwt>
<pdfrwt beam="2">  1       -2 0.31162070E-01 0.86414459E+03</pdfrwt>
<totfact> 0.33257070E+02</totfact>
</mgrwt>
</event>
<event>
 4    1  0.5847263E-005  0.4791699E+03  0.7818608E-02  0.1019364E+00
          2   -1    0    0  501    0  0.00000000000E+00  0.00000000000E+00  0.17538785044E+04  0.17538785044E+04  0.25500000000E-02 0.  1.
         -2   -1    0    0    0  501 -0.00000000000E+00 -0.00000000000E+00 -0.32728006503E+02  0.32728006603E+02  0.25500000000E-02 0. -1.
    5000001    1    1    2    0    0 -0.10890757440E+03 -0.64477930973E+02  0.60993814401E+03  0.65184875766E+03  0.19200000000E+03 0.  0.
   -5000001    1    1    2    0    0  0.10890757440E+03  0.64477930973E+02  0.11112123539E+04  0.11347577533E+04  0.19200000000E+03 0.  0.
<mgrwt>
<rscale>  0 0.47916990E+03</rscale>
<asrwt>0</asrwt>
<pdfrwt beam="1">  1        2 0.25055415E+00 0.47916990E+03</pdfrwt>
<pdfrwt beam="2">  1       -2 0.46754280E-02 0.47916990E+03</pdfrwt>
<totfact> 0.25161709E+03</totfact>
</mgrwt>
</event>
<event>
 4    1  0.5847263E-005  0.5129495E+03  0.7818608E-02  0.1010453E+00
         -2   -1    0    0    0  501 -0.00000000000E+00  0.00000000000E+00  0.19848796528E+03  0.19848796530E+03  0.25500000000E-02 0. -1.
          2   -1    0    0  501    0  0.00000000000E+00 -0.00000000000E+00 -0.33140191671E+03  0.33140191672E+03  0.25500000000E-02 0.  1.
    5000001    1    1    2    0    0  0.47418570046E+02 -0.15314431541E+03 -0.12501767693E+03  0.27963390651E+03  0.19200000000E+03 0.  0.
   -5000001    1    1    2    0    0 -0.47418570046E+02  0.15314431541E+03 -0.78962744982E+01  0.25025597551E+03  0.19200000000E+03 0.  0.
<mgrwt>
<rscale>  0 0.51294948E+03</rscale>
<asrwt>0</asrwt>
<pdfrwt beam="1">  1        2 0.47343131E-01 0.51294948E+03</pdfrwt>
<pdfrwt beam="2">  1       -2 0.28355424E-01 0.51294948E+03</pdfrwt>
<totfact> 0.12140729E+03</totfact>
</mgrwt>
</event>
<event>
 4    1  0.5847263E-005  0.4654438E+03  0.7818608E-02  0.1023214E+00
         -2   -1    0    0    0  501 -0.00000000000E+00  0.00000000000E+00  0.61800740581E+02  0.61800740634E+02  0.25500000000E-02 0. -1.
          2   -1    0    0  501    0  0.00000000000E+00 -0.00000000000E+00 -0.87635643293E+03  0.87635643293E+03  0.25500000000E-02 0.  1.
    5000001    1    1    2    0    0  0.12792077891E+03  0.51022811686E+01 -0.34661751275E+03  0.41641020532E+03  0.19200000000E+03 0.  0.
   -5000001    1    1    2    0    0 -0.12792077891E+03 -0.51022811686E+01 -0.46793817960E+03  0.52174696825E+03  0.19200000000E+03 0.  0.
<mgrwt>
<rscale>  0 0.46544377E+03</rscale>
<asrwt>0</asrwt>
<pdfrwt beam="1">  1        2 0.12519377E+00 0.46544377E+03</pdfrwt>
<pdfrwt beam="2">  1       -2 0.88286777E-02 0.46544377E+03</pdfrwt>
<totfact> 0.28235392E+03</totfact>
</mgrwt>
</event>
<event>
 4    1  0.5847263E-005  0.4772149E+03  0.7818608E-02  0.1019903E+00
          2   -1    0    0  501    0  0.00000000000E+00  0.00000000000E+00  0.58893875186E+03  0.58893875187E+03  0.25500000000E-02 0.  1.
         -2   -1    0    0    0  501 -0.00000000000E+00 -0.00000000000E+00 -0.96671387866E+02  0.96671387899E+02  0.25500000000E-02 0. -1.
    5000001    1    1    2    0    0  0.25962622255E+01  0.11252807900E+03  0.36972427963E+03  0.43154298985E+03  0.19200000000E+03 0.  0.
   -5000001    1    1    2    0    0 -0.25962622255E+01 -0.11252807900E+03  0.12254308437E+03  0.25406714992E+03  0.19200000000E+03 0.  0.
<mgrwt>
<rscale>  0 0.47721495E+03</rscale>
<asrwt>0</asrwt>
<pdfrwt beam="1">  1        2 0.84134109E-01 0.47721495E+03</pdfrwt>
<pdfrwt beam="2">  1       -2 0.13810198E-01 0.47721495E+03</pdfrwt>
<totfact> 0.22218066E+03</totfact>
</mgrwt>
</event>
<event>
 4    1  0.5847263E-005  0.5928086E+03  0.7818608E-02  0.9920439E-01
          2   -1    0    0  501    0  0.00000000000E+00  0.00000000000E+00  0.21544580395E+03  0.21544580397E+03  0.25500000000E-02 0.  1.
         -2   -1    0    0    0  501 -0.00000000000E+00 -0.00000000000E+00 -0.40778469053E+03  0.40778469054E+03  0.25500000000E-02 0. -1.
    5000001    1    1    2    0    0  0.10595037945E+03  0.14342238828E+02 -0.30527429357E+03  0.37614834445E+03  0.19200000000E+03 0.  0.
   -5000001    1    1    2    0    0 -0.10595037945E+03 -0.14342238828E+02  0.11293540699E+03  0.24708215005E+03  0.19200000000E+03 0.  0.
<mgrwt>
<rscale>  0 0.59280857E+03</rscale>
<asrwt>0</asrwt>
<pdfrwt beam="1">  1        2 0.30777972E-01 0.59280857E+03</pdfrwt>
<pdfrwt beam="2">  1       -2 0.58254956E-01 0.59280857E+03</pdfrwt>
<totfact> 0.48055662E+02</totfact>
</mgrwt>
</event>
<event>
 4    1  0.5847263E-005  0.6272280E+03  0.7818608E-02  0.9850473E-01
         -2   -1    0    0    0  501 -0.00000000000E+00  0.00000000000E+00  0.25243024234E+02  0.25243024363E+02  0.25500000000E-02 0. -1.
          2   -1    0    0  501    0  0.00000000000E+00 -0.00000000000E+00 -0.38962744108E+04  0.38962744108E+04  0.25500000000E-02 0.  1.
    5000001    1    1    2    0    0 -0.17259277372E+03 -0.10124211686E+03 -0.10198062193E+04  0.10568381885E+04  0.19200000000E+03 0.  0.
   -5000001    1    1    2    0    0  0.17259277372E+03  0.10124211686E+03 -0.28512251673E+04  0.28646792467E+04  0.19200000000E+03 0.  0.
<mgrwt>
<rscale>  0 0.62722803E+03</rscale>
<asrwt>0</asrwt>
<pdfrwt beam="1">  1        2 0.55661025E+00 0.62722803E+03</pdfrwt>
<pdfrwt beam="2">  1       -2 0.36061488E-02 0.62722803E+03</pdfrwt>
<totfact> 0.25211652E+02</totfact>
</mgrwt>
</event>
<event>
 4    1  0.5847263E-005  0.6662682E+03  0.7818608E-02  0.9776723E-01
         -2   -1    0    0    0  501 -0.00000000000E+00  0.00000000000E+00  0.34223990915E+03  0.34223990916E+03  0.25500000000E-02 0. -1.
          2   -1    0    0  501    0  0.00000000000E+00 -0.00000000000E+00 -0.32427059396E+03  0.32427059397E+03  0.25500000000E-02 0.  1.
    5000001    1    1    2    0    0  0.14799059064E+03  0.21416645269E+03 -0.70705179472E+02  0.33110679060E+03  0.19200000000E+03 0.  0.
   -5000001    1    1    2    0    0 -0.14799059064E+03 -0.21416645269E+03  0.88674494669E+02  0.33540371253E+03  0.19200000000E+03 0.  0.
<mgrwt>
<rscale>  0 0.66626823E+03</rscale>
<asrwt>0</asrwt>
<pdfrwt beam="1">  1        2 0.46324370E-01 0.66626823E+03</pdfrwt>
<pdfrwt beam="2">  1       -2 0.48891416E-01 0.66626823E+03</pdfrwt>
<totfact> 0.43667938E+02</totfact>
</mgrwt>
</event>
<event>
 4    1  0.5847263E-005  0.7793046E+03  0.7818608E-02  0.9590466E-01
          2   -1    0    0  501    0  0.00000000000E+00  0.00000000000E+00  0.17447069054E+04  0.17447069054E+04  0.25500000000E-02 0.  1.
         -2   -1    0    0    0  501 -0.00000000000E+00 -0.00000000000E+00 -0.87022587495E+02  0.87022587532E+02  0.25500000000E-02 0. -1.
    5000001    1    1    2    0    0  0.18614379564E+03 -0.11246452655E+03  0.14402668532E+04  0.14691937894E+04  0.19200000000E+03 0.  0.
   -5000001    1    1    2    0    0 -0.18614379564E+03  0.11246452655E+03  0.21741746474E+03  0.36253570357E+03  0.19200000000E+03 0.  0.
<mgrwt>
<rscale>  0 0.77930459E+03</rscale>
<asrwt>0</asrwt>
<pdfrwt beam="1">  1        2 0.24924382E+00 0.77930459E+03</pdfrwt>
<pdfrwt beam="2">  1       -2 0.12431800E-01 0.77930459E+03</pdfrwt>
<totfact> 0.52843134E+02</totfact>
</mgrwt>
</event>
<event>
 4    1  0.5847263E-005  0.4586457E+03  0.7818608E-02  0.1025175E+00
          2   -1    0    0  501    0  0.00000000000E+00  0.00000000000E+00  0.14725166727E+04  0.14725166727E+04  0.25500000000E-02 0.  1.
         -2   -1    0    0    0  501 -0.00000000000E+00 -0.00000000000E+00 -0.35713666679E+02  0.35713666770E+02  0.25500000000E-02 0. -1.
    5000001    1    1    2    0    0  0.39329236773E+02 -0.14309583528E+02  0.11071257673E+04  0.11244300857E+04  0.19200000000E+03 0.  0.
   -5000001    1    1    2    0    0 -0.39329236773E+02  0.14309583528E+02  0.32967723867E+03  0.38380025370E+03  0.19200000000E+03 0.  0.
<mgrwt>
<rscale>  0 0.45864570E+03</rscale>
<asrwt>0</asrwt>
<pdfrwt beam="1">  1        2 0.21035954E+00 0.45864570E+03</pdfrwt>
<pdfrwt beam="2">  1       -2 0.51019521E-02 0.45864570E+03</pdfrwt>
<totfact> 0.30599325E+03</totfact>
</mgrwt>
</event>
<event>
 4    1  0.5847263E-005  0.7291325E+03  0.7818608E-02  0.9668669E-01
         -2   -1    0    0    0  501 -0.00000000000E+00  0.00000000000E+00  0.17569274719E+03  0.17569274721E+03  0.25500000000E-02 0.  1.
          2   -1    0    0  501    0  0.00000000000E+00 -0.00000000000E+00 -0.75648294430E+03  0.75648294430E+03  0.25500000000E-02 0. -1.
    5000001    1    1    2    0    0  0.16491029780E+03  0.24327030208E+03 -0.16468337124E+03  0.38776340590E+03  0.19200000000E+03 0.  0.
   -5000001    1    1    2    0    0 -0.16491029780E+03 -0.24327030208E+03 -0.41610682587E+03  0.54441228561E+03  0.19200000000E+03 0.  0.
<mgrwt>
<rscale>  0 0.72913254E+03</rscale>
<asrwt>0</asrwt>
<pdfrwt beam="1">  1        2 0.10806899E+00 0.72913254E+03</pdfrwt>
<pdfrwt beam="2">  1       -2 0.25098964E-01 0.72913254E+03</pdfrwt>
<totfact> 0.58312902E+02</totfact>
</mgrwt>
</event>
<event>
 4    1  0.5847263E-005  0.4161597E+03  0.7818608E-02  0.1038323E+00
          2   -1    0    0  501    0  0.00000000000E+00  0.00000000000E+00  0.80304634244E+03  0.80304634244E+03  0.25500000000E-02 0.  1.
         -2   -1    0    0    0  501 -0.00000000000E+00 -0.00000000000E+00 -0.53916217867E+02  0.53916217928E+02  0.25500000000E-02 0. -1.
    5000001    1    1    2    0    0  0.51148779091E+02 -0.58669791550E+02  0.41443519751E+03  0.46333451736E+03  0.19200000000E+03 0.  0.
   -5000001    1    1    2    0    0 -0.51148779091E+02  0.58669791550E+02  0.33469492707E+03  0.39362804301E+03  0.19200000000E+03 0.  0.
<mgrwt>
<rscale>  0 0.41615969E+03</rscale>
<asrwt>0</asrwt>
<pdfrwt beam="1">  1        2 0.11472091E+00 0.41615969E+03</pdfrwt>
<pdfrwt beam="2">  1       -2 0.77023169E-02 0.41615969E+03</pdfrwt>
<totfact> 0.39183875E+03</totfact>
</mgrwt>
</event>
<event>
 4    1  0.5847263E-005  0.4273882E+03  0.7818608E-02  0.1034688E+00
         -2   -1    0    0    0  501 -0.00000000000E+00  0.00000000000E+00  0.28493343414E+02  0.28493343528E+02  0.25500000000E-02 0. -1.
          2   -1    0    0  501    0  0.00000000000E+00 -0.00000000000E+00 -0.16026610043E+04  0.16026610043E+04  0.25500000000E-02 0.  1.
    5000001    1    1    2    0    0  0.31191618854E+02  0.74840362251E+02 -0.60696896764E+03  0.64175487889E+03  0.19200000000E+03 0.  0.
   -5000001    1    1    2    0    0 -0.31191618854E+02 -0.74840362251E+02 -0.96719869322E+03  0.98939946891E+03  0.19200000000E+03 0.  0.
<mgrwt>
<rscale>  0 0.42738821E+03</rscale>
<asrwt>0</asrwt>
<pdfrwt beam="1">  1        2 0.22895151E+00 0.42738821E+03</pdfrwt>
<pdfrwt beam="2">  1       -2 0.40704787E-02 0.42738821E+03</pdfrwt>
<totfact> 0.37114923E+03</totfact>
</mgrwt>
</event>
<event>
 4    1  0.5847263E-005  0.6312187E+03  0.7818608E-02  0.9842674E-01
          2   -1    0    0  501    0  0.00000000000E+00  0.00000000000E+00  0.17925807247E+03  0.17925807249E+03  0.25500000000E-02 0.  1.
         -2   -1    0    0    0  501 -0.00000000000E+00 -0.00000000000E+00 -0.55567513168E+03  0.55567513169E+03  0.25500000000E-02 0. -1.
    5000001    1    1    2    0    0 -0.54954235206E+02  0.16945500693E+03 -0.39324018377E+03  0.47247942756E+03  0.19200000000E+03 0.  0.
   -5000001    1    1    2    0    0  0.54954235206E+02 -0.16945500693E+03  0.16823124560E+02  0.26245377662E+03  0.19200000000E+03 0.  0.
<mgrwt>
<rscale>  0 0.63121867E+03</rscale>
<asrwt>0</asrwt>
<pdfrwt beam="1">  1        2 0.25608296E-01 0.63121867E+03</pdfrwt>
<pdfrwt beam="2">  1       -2 0.79382161E-01 0.63121867E+03</pdfrwt>
<totfact> 0.30290289E+02</totfact>
</mgrwt>
</event>
<event>
 4    1  0.5847263E-005  0.4134016E+03  0.7818608E-02  0.1039235E+00
          2   -1    0    0  501    0  0.00000000000E+00  0.00000000000E+00  0.91145771651E+03  0.91145771652E+03  0.25500000000E-02 0.  1.
         -2   -1    0    0    0  501 -0.00000000000E+00 -0.00000000000E+00 -0.46875705114E+02  0.46875705183E+02  0.25500000000E-02 0. -1.
    5000001    1    1    2    0    0 -0.61410733847E+02  0.42120899102E+02  0.47348493379E+03  0.51633073789E+03  0.19200000000E+03 0.  0.
   -5000001    1    1    2    0    0  0.61410733847E+02 -0.42120899102E+02  0.39109707762E+03  0.44200268381E+03  0.19200000000E+03 0.  0.
<mgrwt>
<rscale>  0 0.41340161E+03</rscale>
<asrwt>0</asrwt>
<pdfrwt beam="1">  1        2 0.13020825E+00 0.41340161E+03</pdfrwt>
<pdfrwt beam="2">  1       -2 0.66965292E-02 0.41340161E+03</pdfrwt>
<totfact> 0.41429880E+03</totfact>
</mgrwt>
</event>
<event>
 4    1  0.5847263E-005  0.7103817E+03  0.7818608E-02  0.9699641E-01
          2   -1    0    0  501    0  0.00000000000E+00  0.00000000000E+00  0.80770010234E+03  0.80770010234E+03  0.25500000000E-02 0.  1.
         -2   -1    0    0    0  501 -0.00000000000E+00 -0.00000000000E+00 -0.15619723926E+03  0.15619723928E+03  0.25500000000E-02 0. -1.
    5000001    1    1    2    0    0  0.17855801233E+03 -0.22942194360E+03  0.23194909572E+03  0.41854721953E+03  0.19200000000E+03 0.  0.
   -5000001    1    1    2    0    0 -0.17855801233E+03  0.22942194360E+03  0.41955376735E+03  0.54535012210E+03  0.19200000000E+03 0.  0.
<mgrwt>
<rscale>  0 0.71038166E+03</rscale>
<asrwt>0</asrwt>
<pdfrwt beam="1">  1        2 0.11538573E+00 0.71038166E+03</pdfrwt>
<pdfrwt beam="2">  1       -2 0.22313891E-01 0.71038166E+03</pdfrwt>
<totfact> 0.66228099E+02</totfact>
</mgrwt>
</event>
<event>
 4    1  0.5847263E-005  0.5568408E+03  0.7818608E-02  0.9999229E-01
          2   -1    0    0  501    0  0.00000000000E+00  0.00000000000E+00  0.95867110181E+02  0.95867110215E+02  0.25500000000E-02 0.  1.
         -2   -1    0    0    0  501 -0.00000000000E+00 -0.00000000000E+00 -0.80859750627E+03  0.80859750627E+03  0.25500000000E-02 0. -1.
    5000001    1    1    2    0    0 -0.54997327858E+02 -0.18814370078E+03 -0.43308805410E+03  0.51269096035E+03  0.19200000000E+03 0.  0.
   -5000001    1    1    2    0    0  0.54997327858E+02  0.18814370078E+03 -0.27964234198E+03  0.39177365614E+03  0.19200000000E+03 0.  0.
<mgrwt>
<rscale>  0 0.55684075E+03</rscale>
<asrwt>0</asrwt>
<pdfrwt beam="1">  1        2 0.13695302E-01 0.55684075E+03</pdfrwt>
<pdfrwt beam="2">  1       -2 0.11551393E+00 0.55684075E+03</pdfrwt>
<totfact> 0.26480897E+02</totfact>
</mgrwt>
</event>
<event>
 4    1  0.5847263E-005  0.9773941E+03  0.7818608E-02  0.9333692E-01
         -2   -1    0    0    0  501 -0.00000000000E+00  0.00000000000E+00  0.39441400993E+03  0.39441400994E+03  0.25500000000E-02 0. -1.
          2   -1    0    0  501    0  0.00000000000E+00 -0.00000000000E+00 -0.60551806526E+03  0.60551806527E+03  0.25500000000E-02 0.  1.
    5000001    1    1    2    0    0  0.13393140504E+01  0.43487040436E+03  0.10405073963E+02  0.47548536036E+03  0.19200000000E+03 0.  0.
   -5000001    1    1    2    0    0 -0.13393140504E+01 -0.43487040436E+03 -0.22150912930E+03  0.52444671485E+03  0.19200000000E+03 0.  0.
<mgrwt>
<rscale>  0 0.97739410E+03</rscale>
<asrwt>0</asrwt>
<pdfrwt beam="1">  1        2 0.86502581E-01 0.97739410E+03</pdfrwt>
<pdfrwt beam="2">  1       -2 0.56344858E-01 0.97739410E+03</pdfrwt>
<totfact> 0.15863710E+02</totfact>
</mgrwt>
</event>
<event>
 4    1  0.5847263E-005  0.5120889E+03  0.7818608E-02  0.1010671E+00
         -2   -1    0    0    0  501 -0.00000000000E+00  0.00000000000E+00  0.16094044310E+03  0.16094044312E+03  0.25500000000E-02 0.  1.
          2   -1    0    0  501    0  0.00000000000E+00 -0.00000000000E+00 -0.40734803083E+03  0.40734803084E+03  0.25500000000E-02 0. -1.
    5000001    1    1    2    0    0 -0.58912221028E+02 -0.15677976725E+03 -0.95036635584E+02  0.27193107088E+03  0.19200000000E+03 0.  0.
   -5000001    1    1    2    0    0  0.58912221028E+02  0.15677976725E+03 -0.15137095215E+03  0.29635740308E+03  0.19200000000E+03 0.  0.
<mgrwt>
<rscale>  0 0.51208895E+03</rscale>
<asrwt>0</asrwt>
<pdfrwt beam="1">  1        2 0.58192575E-01 0.51208895E+03</pdfrwt>
<pdfrwt beam="2">  1       -2 0.22991492E-01 0.51208895E+03</pdfrwt>
<totfact> 0.14092281E+03</totfact>
</mgrwt>
</event>
<event>
 4    1  0.5847263E-005  0.1311333E+04  0.7818608E-02  0.9020626E-01
         -2   -1    0    0    0  501 -0.00000000000E+00  0.00000000000E+00  0.35201696783E+03  0.35201696784E+03  0.25500000000E-02 0. -1.
          2   -1    0    0  501    0  0.00000000000E+00 -0.00000000000E+00 -0.12212447654E+04  0.12212447654E+04  0.25500000000E-02 0.  1.
    5000001    1    1    2    0    0 -0.10073088048E+03 -0.53096540286E+03 -0.53398085221E+02  0.57600896245E+03  0.19200000000E+03 0.  0.
   -5000001    1    1    2    0    0  0.10073088048E+03  0.53096540286E+03 -0.81582971238E+03  0.99725277083E+03  0.19200000000E+03 0.  0.
<mgrwt>
<rscale>  0 0.13113335E+04</rscale>
<asrwt>0</asrwt>
<pdfrwt beam="1">  1        2 0.17446354E+00 0.13113335E+04</pdfrwt>
<pdfrwt beam="2">  1       -2 0.50288139E-01 0.13113335E+04</pdfrwt>
<totfact> 0.76166212E+01</totfact>
</mgrwt>
</event>
<event>
 4    1  0.5847263E-005  0.7404439E+03  0.7818608E-02  0.9650463E-01
         -2   -1    0    0    0  501 -0.00000000000E+00  0.00000000000E+00  0.38244032661E+02  0.38244032746E+02  0.25500000000E-02 0. -1.
          2   -1    0    0  501    0  0.00000000000E+00 -0.00000000000E+00 -0.35839391203E+04  0.35839391203E+04  0.25500000000E-02 0.  1.
    5000001    1    1    2    0    0  0.27287385935E+03  0.14032160574E+03 -0.13923467714E+04  0.14386256734E+04  0.19200000000E+03 0.  0.
   -5000001    1    1    2    0    0 -0.27287385935E+03 -0.14032160574E+03 -0.21533483162E+04  0.21835574796E+04  0.19200000000E+03 0.  0.
<mgrwt>
<rscale>  0 0.74044388E+03</rscale>
<asrwt>0</asrwt>
<pdfrwt beam="1">  1        2 0.51199109E+00 0.74044388E+03</pdfrwt>
<pdfrwt beam="2">  1       -2 0.54634355E-02 0.74044388E+03</pdfrwt>
<totfact> 0.20528060E+02</totfact>
</mgrwt>
</event>
<event>
 4    1  0.5847263E-005  0.4523194E+03  0.7818608E-02  0.1027033E+00
          2   -1    0    0  501    0  0.00000000000E+00  0.00000000000E+00  0.67705472604E+03  0.67705472605E+03  0.25500000000E-02 0.  1.
         -2   -1    0    0    0  501 -0.00000000000E+00 -0.00000000000E+00 -0.75545161708E+02  0.75545161751E+02  0.25500000000E-02 0. -1.
    5000001    1    1    2    0    0 -0.29844564386E+02  0.11178495207E+03  0.35060520978E+03  0.41614250763E+03  0.19200000000E+03 0.  0.
   -5000001    1    1    2    0    0  0.29844564386E+02 -0.11178495207E+03  0.25090435456E+03  0.33645738017E+03  0.19200000000E+03 0.  0.
<mgrwt>
<rscale>  0 0.45231940E+03</rscale>
<asrwt>0</asrwt>
<pdfrwt beam="1">  1        2 0.96722108E-01 0.45231940E+03</pdfrwt>
<pdfrwt beam="2">  1       -2 0.10792166E-01 0.45231940E+03</pdfrwt>
<totfact> 0.28225175E+03</totfact>
</mgrwt>
</event>
<event>
 4    1  0.5847263E-005  0.7012427E+03  0.7818608E-02  0.9715109E-01
         -2   -1    0    0    0  501 -0.00000000000E+00  0.00000000000E+00  0.28597131572E+03  0.28597131573E+03  0.25500000000E-02 0. -1.
          2   -1    0    0  501    0  0.00000000000E+00 -0.00000000000E+00 -0.42988689430E+03  0.42988689430E+03  0.25500000000E-02 0.  1.
    5000001    1    1    2    0    0 -0.12260892539E+03 -0.26623123381E+03 -0.59073224605E+02  0.35533880214E+03  0.19200000000E+03 0.  0.
   -5000001    1    1    2    0    0  0.12260892539E+03  0.26623123381E+03 -0.84842353973E+02  0.36051940789E+03  0.19200000000E+03 0.  0.
<mgrwt>
<rscale>  0 0.70124267E+03</rscale>
<asrwt>0</asrwt>
<pdfrwt beam="1">  1        2 0.61412413E-01 0.70124267E+03</pdfrwt>
<pdfrwt beam="2">  1       -2 0.40853045E-01 0.70124267E+03</pdfrwt>
<totfact> 0.45552965E+02</totfact>
</mgrwt>
</event>
<event>
 4    1  0.5847263E-005  0.9846148E+03  0.7818608E-02  0.9325582E-01
         -2   -1    0    0    0  501 -0.00000000000E+00  0.00000000000E+00  0.10705164591E+04  0.10705164591E+04  0.25500000000E-02 0. -1.
          2   -1    0    0  501    0  0.00000000000E+00 -0.00000000000E+00 -0.22640154798E+03  0.22640154800E+03  0.25500000000E-02 0.  1.
    5000001    1    1    2    0    0  0.29690448657E+03  0.28825842405E+03  0.66585161216E+03  0.80713540537E+03  0.19200000000E+03 0.  0.
   -5000001    1    1    2    0    0 -0.29690448657E+03 -0.28825842405E+03  0.17826329892E+03  0.48978260170E+03  0.19200000000E+03 0.  0.
<mgrwt>
<rscale>  0 0.98461482E+03</rscale>
<asrwt>0</asrwt>
<pdfrwt beam="1">  1        2 0.32343079E-01 0.98461482E+03</pdfrwt>
<pdfrwt beam="2">  1       -2 0.15293092E+00 0.98461482E+03</pdfrwt>
<totfact> 0.46483244E+01</totfact>
</mgrwt>
</event>
<event>
 4    1  0.5847263E-005  0.8664539E+03  0.7818608E-02  0.9468515E-01
         -2   -1    0    0    0  501 -0.00000000000E+00  0.00000000000E+00  0.23868751773E+03  0.23868751775E+03  0.25500000000E-02 0. -1.
          2   -1    0    0  501    0  0.00000000000E+00 -0.00000000000E+00 -0.78632347524E+03  0.78632347524E+03  0.25500000000E-02 0.  1.
    5000001    1    1    2    0    0  0.14141830307E+03 -0.19807101230E+03  0.84202508311E+02  0.32122472626E+03  0.19200000000E+03 0.  0.
   -5000001    1    1    2    0    0 -0.14141830307E+03  0.19807101230E+03 -0.63183846582E+03  0.70378626673E+03  0.19200000000E+03 0.  0.
<mgrwt>
<rscale>  0 0.86645392E+03</rscale>
<asrwt>0</asrwt>
<pdfrwt beam="1">  1        2 0.11233192E+00 0.86645392E+03</pdfrwt>
<pdfrwt beam="2">  1       -2 0.34098217E-01 0.86645392E+03</pdfrwt>
<totfact> 0.31344770E+02</totfact>
</mgrwt>
</event>
<event>
 4    1  0.5847263E-005  0.4463893E+03  0.7818608E-02  0.1028804E+00
         -2   -1    0    0    0  501 -0.00000000000E+00  0.00000000000E+00  0.43899029928E+02  0.43899030002E+02  0.25500000000E-02 0. -1.
          2   -1    0    0  501    0  0.00000000000E+00 -0.00000000000E+00 -0.11347825553E+04  0.11347825553E+04  0.25500000000E-02 0.  1.
    5000001    1    1    2    0    0  0.10763070436E+03  0.36917331150E+02 -0.53978131083E+03  0.58410197858E+03  0.19200000000E+03 0.  0.
   -5000001    1    1    2    0    0 -0.10763070436E+03 -0.36917331150E+02 -0.55110221456E+03  0.59457960674E+03  0.19200000000E+03 0.  0.
<mgrwt>
<rscale>  0 0.44638931E+03</rscale>
<asrwt>0</asrwt>
<pdfrwt beam="1">  1        2 0.16211178E+00 0.44638931E+03</pdfrwt>
<pdfrwt beam="2">  1       -2 0.62712907E-02 0.44638931E+03</pdfrwt>
<totfact> 0.33796586E+03</totfact>
</mgrwt>
</event>
<event>
 4    1  0.5847263E-005  0.9889716E+03  0.7818608E-02  0.9320724E-01
         -2   -1    0    0    0  501 -0.00000000000E+00  0.00000000000E+00  0.33143220714E+03  0.33143220715E+03  0.25500000000E-02 0. -1.
          2   -1    0    0  501    0  0.00000000000E+00 -0.00000000000E+00 -0.73775626278E+03  0.73775626278E+03  0.25500000000E-02 0.  1.
    5000001    1    1    2    0    0 -0.96473139343E+02 -0.35095745659E+03 -0.49957980515E+03  0.64724198308E+03  0.19200000000E+03 0.  0.
   -5000001    1    1    2    0    0  0.96473139343E+02  0.35095745659E+03  0.93255749510E+02  0.42194648685E+03  0.19200000000E+03 0.  0.
<mgrwt>
<rscale>  0 0.98897156E+03</rscale>
<asrwt>0</asrwt>
<pdfrwt beam="1">  1        2 0.10539375E+00 0.98897156E+03</pdfrwt>
<pdfrwt beam="2">  1       -2 0.47347458E-01 0.98897156E+03</pdfrwt>
<totfact> 0.17791032E+02</totfact>
</mgrwt>
</event>
<event>
 4    1  0.5847263E-005  0.5520922E+03  0.7818608E-02  0.1001011E+00
         -2   -1    0    0    0  501 -0.00000000000E+00  0.00000000000E+00  0.46884744707E+02  0.46884744776E+02  0.25500000000E-02 0. -1.
          2   -1    0    0  501    0  0.00000000000E+00 -0.00000000000E+00 -0.16252932516E+04  0.16252932516E+04  0.25500000000E-02 0.  1.
    5000001    1    1    2    0    0  0.85148280756E+02  0.17474596182E+03 -0.66991873225E+03  0.72349256299E+03  0.19200000000E+03 0.  0.
   -5000001    1    1    2    0    0 -0.85148280756E+02 -0.17474596182E+03 -0.90848977464E+03  0.94868543339E+03  0.19200000000E+03 0.  0.
<mgrwt>
<rscale>  0 0.55209224E+03</rscale>
<asrwt>0</asrwt>
<pdfrwt beam="1">  1        2 0.23218471E+00 0.55209224E+03</pdfrwt>
<pdfrwt beam="2">  1       -2 0.66978217E-02 0.55209224E+03</pdfrwt>
<totfact> 0.16677199E+03</totfact>
</mgrwt>
</event>
<event>
 4    1  0.5847263E-005  0.5906312E+03  0.7818608E-02  0.9925036E-01
         -2   -1    0    0    0  501 -0.00000000000E+00  0.00000000000E+00  0.20208634147E+02  0.20208634308E+02  0.25500000000E-02 0. -1.
          2   -1    0    0  501    0  0.00000000000E+00 -0.00000000000E+00 -0.43155460480E+04  0.43155460480E+04  0.25500000000E-02 0.  1.
    5000001    1    1    2    0    0 -0.11389963280E+03 -0.19082972374E+03 -0.19204352381E+04  0.19427621093E+04  0.19200000000E+03 0.  0.
   -5000001    1    1    2    0    0  0.11389963280E+03  0.19082972374E+03 -0.23749021758E+04  0.23929925730E+04  0.19200000000E+03 0.  0.
<mgrwt>
<rscale>  0 0.59063116E+03</rscale>
<asrwt>0</asrwt>
<pdfrwt beam="1">  1        2 0.61650599E+00 0.59063116E+03</pdfrwt>
<pdfrwt beam="2">  1       -2 0.28869505E-02 0.59063116E+03</pdfrwt>
<totfact> 0.18319337E+02</totfact>
</mgrwt>
</event>
<event>
 4    1  0.5847263E-005  0.7340409E+03  0.7818608E-02  0.9660726E-01
          2   -1    0    0  501    0  0.00000000000E+00  0.00000000000E+00  0.51219038202E+03  0.51219038203E+03  0.25500000000E-02 0.  1.
         -2   -1    0    0    0  501 -0.00000000000E+00 -0.00000000000E+00 -0.26299594436E+03  0.26299594438E+03  0.25500000000E-02 0. -1.
    5000001    1    1    2    0    0  0.89368366504E+02 -0.29956747281E+03  0.13580420545E+03  0.39119580509E+03  0.19200000000E+03 0.  0.
   -5000001    1    1    2    0    0 -0.89368366504E+02  0.29956747281E+03  0.11339023221E+03  0.38399052132E+03  0.19200000000E+03 0.  0.
<mgrwt>
<rscale>  0 0.73404085E+03</rscale>
<asrwt>0</asrwt>
<pdfrwt beam="1">  1        2 0.73170054E-01 0.73404085E+03</pdfrwt>
<pdfrwt beam="2">  1       -2 0.37570849E-01 0.73404085E+03</pdfrwt>
<totfact> 0.43889949E+02</totfact>
</mgrwt>
</event>
<event>
 4    1  0.5847263E-005  0.7409500E+03  0.7818608E-02  0.9649656E-01
          2   -1    0    0  501    0  0.00000000000E+00  0.00000000000E+00  0.88453682943E+03  0.88453682943E+03  0.25500000000E-02 0.  1.
         -2   -1    0    0    0  501 -0.00000000000E+00 -0.00000000000E+00 -0.15516789187E+03  0.15516789189E+03  0.25500000000E-02 0. -1.
    5000001    1    1    2    0    0  0.27286143071E+03 -0.11685236470E+03  0.20918883999E+03  0.41076977285E+03  0.19200000000E+03 0.  0.
   -5000001    1    1    2    0    0 -0.27286143071E+03  0.11685236470E+03  0.52018009757E+03  0.62893494848E+03  0.19200000000E+03 0.  0.
<mgrwt>
<rscale>  0 0.74094997E+03</rscale>
<asrwt>0</asrwt>
<pdfrwt beam="1">  1        2 0.12636241E+00 0.74094997E+03</pdfrwt>
<pdfrwt beam="2">  1       -2 0.22166841E-01 0.74094997E+03</pdfrwt>
<totfact> 0.59415667E+02</totfact>
</mgrwt>
</event>
<event>
 4    1  0.5847263E-005  0.6256019E+03  0.7818608E-02  0.9853669E-01
          2   -1    0    0  501    0  0.00000000000E+00  0.00000000000E+00  0.38166974391E+03  0.38166974392E+03  0.25500000000E-02 0.  1.
         -2   -1    0    0    0  501 -0.00000000000E+00 -0.00000000000E+00 -0.25635886909E+03  0.25635886910E+03  0.25500000000E-02 0. -1.
    5000001    1    1    2    0    0 -0.14454450694E+03 -0.19031981480E+03  0.12606502534E+03  0.33146815384E+03  0.19200000000E+03 0.  0.
   -5000001    1    1    2    0    0  0.14454450694E+03  0.19031981480E+03 -0.75415052679E+00  0.30656045918E+03  0.19200000000E+03 0.  0.
<mgrwt>
<rscale>  0 0.62560187E+03</rscale>
<asrwt>0</asrwt>
<pdfrwt beam="1">  1        2 0.54524249E-01 0.62560187E+03</pdfrwt>
<pdfrwt beam="2">  1       -2 0.36622696E-01 0.62560187E+03</pdfrwt>
<totfact> 0.64361832E+02</totfact>
</mgrwt>
</event>
<event>
 4    1  0.5847263E-005  0.5601392E+03  0.7818608E-02  0.9991740E-01
          2   -1    0    0  501    0  0.00000000000E+00  0.00000000000E+00  0.89033536785E+03  0.89033536786E+03  0.25500000000E-02 0.  1.
         -2   -1    0    0    0  501 -0.00000000000E+00 -0.00000000000E+00 -0.88100473205E+02  0.88100473242E+02  0.25500000000E-02 0. -1.
    5000001    1    1    2    0    0  0.15457482654E+03  0.17460676356E+02  0.17085651267E+03  0.30042336817E+03  0.19200000000E+03 0.  0.
   -5000001    1    1    2    0    0 -0.15457482654E+03 -0.17460676356E+02  0.63137838198E+03  0.67801247293E+03  0.19200000000E+03 0.  0.
<mgrwt>
<rscale>  0 0.56013915E+03</rscale>
<asrwt>0</asrwt>
<pdfrwt beam="1">  1        2 0.12719076E+00 0.56013915E+03</pdfrwt>
<pdfrwt beam="2">  1       -2 0.12585782E-01 0.56013915E+03</pdfrwt>
<totfact> 0.15554388E+03</totfact>
</mgrwt>
</event>
<event>
 4    1  0.5847263E-005  0.1336076E+04  0.7818608E-02  0.9001436E-01
          2   -1    0    0  501    0  0.00000000000E+00  0.00000000000E+00  0.13584574796E+04  0.13584574796E+04  0.25500000000E-02 0.  1.
         -2   -1    0    0    0  501 -0.00000000000E+00 -0.00000000000E+00 -0.32851572841E+03  0.32851572842E+03  0.25500000000E-02 0. -1.
    5000001    1    1    2    0    0 -0.42578844465E+03 -0.47449898349E+03  0.58373005651E+03  0.88546590211E+03  0.19200000000E+03 0.  0.
   -5000001    1    1    2    0    0  0.42578844465E+03  0.47449898349E+03  0.44621169465E+03  0.80150730588E+03  0.19200000000E+03 0.  0.
<mgrwt>
<rscale>  0 0.13360758E+04</rscale>
<asrwt>0</asrwt>
<pdfrwt beam="1">  1        2 0.19406536E+00 0.13360758E+04</pdfrwt>
<pdfrwt beam="2">  1       -2 0.46930818E-01 0.13360758E+04</pdfrwt>
<totfact> 0.73375164E+01</totfact>
</mgrwt>
</event>
<event>
 4    1  0.5847263E-005  0.7084151E+03  0.7818608E-02  0.9702949E-01
          2   -1    0    0  501    0  0.00000000000E+00  0.00000000000E+00  0.12263995400E+04  0.12263995400E+04  0.25500000000E-02 0.  1.
         -2   -1    0    0    0  501 -0.00000000000E+00 -0.00000000000E+00 -0.10230187612E+03  0.10230187615E+03  0.25500000000E-02 0. -1.
    5000001    1    1    2    0    0  0.15608664864E+03 -0.24897826316E+03  0.65093228921E+03  0.73954720103E+03  0.19200000000E+03 0.  0.
   -5000001    1    1    2    0    0 -0.15608664864E+03  0.24897826316E+03  0.47316537471E+03  0.58915421516E+03  0.19200000000E+03 0.  0.
<mgrwt>
<rscale>  0 0.70841506E+03</rscale>
<asrwt>0</asrwt>
<pdfrwt beam="1">  1        2 0.17519992E+00 0.70841506E+03</pdfrwt>
<pdfrwt beam="2">  1       -2 0.14614555E-01 0.70841506E+03</pdfrwt>
<totfact> 0.76092389E+02</totfact>
</mgrwt>
</event>
<event>
 4    1  0.5847263E-005  0.6691711E+03  0.7818608E-02  0.9771456E-01
         -2   -1    0    0    0  501 -0.00000000000E+00  0.00000000000E+00  0.88900940289E+03  0.88900940289E+03  0.25500000000E-02 0. -1.
          2   -1    0    0  501    0  0.00000000000E+00 -0.00000000000E+00 -0.12592385775E+03  0.12592385778E+03  0.25500000000E-02 0.  1.
    5000001    1    1    2    0    0  0.18855791796E+03  0.99728679953E+01  0.80371600379E+02  0.28102871859E+03  0.19200000000E+03 0.  0.
   -5000001    1    1    2    0    0 -0.18855791796E+03 -0.99728679953E+01  0.68271394476E+03  0.73390454209E+03  0.19200000000E+03 0.  0.
<mgrwt>
<rscale>  0 0.66917111E+03</rscale>
<asrwt>0</asrwt>
<pdfrwt beam="1">  1        2 0.17989123E-01 0.66917111E+03</pdfrwt>
<pdfrwt beam="2">  1       -2 0.12700134E+00 0.66917111E+03</pdfrwt>
<totfact> 0.15023949E+02</totfact>
</mgrwt>
</event>
<event>
 4    1  0.5847263E-005  0.8383194E+03  0.7818608E-02  0.9506150E-01
          2   -1    0    0  501    0  0.00000000000E+00  0.00000000000E+00  0.29890210427E+04  0.29890210427E+04  0.25500000000E-02 0.  1.
         -2   -1    0    0    0  501 -0.00000000000E+00 -0.00000000000E+00 -0.58780066905E+02  0.58780066960E+02  0.25500000000E-02 0. -1.
    5000001    1    1    2    0    0 -0.18140413228E+02  0.26484953967E+03  0.51458787217E+03  0.61003199215E+03  0.19200000000E+03 0.  0.
   -5000001    1    1    2    0    0  0.18140413228E+02 -0.26484953967E+03  0.24156531036E+04  0.24377691175E+04  0.19200000000E+03 0.  0.
<mgrwt>
<rscale>  0 0.83831941E+03</rscale>
<asrwt>0</asrwt>
<pdfrwt beam="1">  1        2 0.42700310E+00 0.83831941E+03</pdfrwt>
<pdfrwt beam="2">  1       -2 0.83971506E-02 0.83831941E+03</pdfrwt>
<totfact> 0.22610426E+02</totfact>
</mgrwt>
</event>
<event>
 4    1  0.5847263E-005  0.7138981E+03  0.7818608E-02  0.9693755E-01
          2   -1    0    0  501    0  0.00000000000E+00  0.00000000000E+00  0.16602200269E+03  0.16602200271E+03  0.25500000000E-02 0.  1.
         -2   -1    0    0    0  501 -0.00000000000E+00 -0.00000000000E+00 -0.76744417194E+03  0.76744417194E+03  0.25500000000E-02 0. -1.
    5000001    1    1    2    0    0  0.37595054500E+02 -0.28331004142E+03 -0.42386269874E+03  0.54607834152E+03  0.19200000000E+03 0.  0.
   -5000001    1    1    2    0    0 -0.37595054500E+02  0.28331004142E+03 -0.17755947050E+03  0.38738783313E+03  0.19200000000E+03 0.  0.
<mgrwt>
<rscale>  0 0.71389808E+03</rscale>
<asrwt>0</asrwt>
<pdfrwt beam="1">  1        2 0.23717429E-01 0.71389808E+03</pdfrwt>
<pdfrwt beam="2">  1       -2 0.10963488E+00 0.71389808E+03</pdfrwt>
<totfact> 0.15580639E+02</totfact>
</mgrwt>
</event>
<event>
 4    1  0.5847263E-005  0.5546453E+03  0.7818608E-02  0.1000424E+00
         -2   -1    0    0    0  501 -0.00000000000E+00  0.00000000000E+00  0.38332928401E+02  0.38332928486E+02  0.25500000000E-02 0. -1.
          2   -1    0    0  501    0  0.00000000000E+00 -0.00000000000E+00 -0.20063130467E+04  0.20063130467E+04  0.25500000000E-02 0.  1.
    5000001    1    1    2    0    0  0.14212562424E+03 -0.12114756516E+03 -0.71899362437E+03  0.76726283469E+03  0.19200000000E+03 0.  0.
   -5000001    1    1    2    0    0 -0.14212562424E+03  0.12114756516E+03 -0.12489864939E+04  0.12773831405E+04  0.19200000000E+03 0.  0.
<mgrwt>
<rscale>  0 0.55464531E+03</rscale>
<asrwt>0</asrwt>
<pdfrwt beam="1">  1        2 0.28661608E+00 0.55464531E+03</pdfrwt>
<pdfrwt beam="2">  1       -2 0.54761339E-02 0.55464531E+03</pdfrwt>
<totfact> 0.14683256E+03</totfact>
</mgrwt>
</event>
<event>
 4    1  0.5847263E-005  0.8990368E+03  0.7818608E-02  0.9426786E-01
          2   -1    0    0  501    0  0.00000000000E+00  0.00000000000E+00  0.12505277518E+04  0.12505277518E+04  0.25500000000E-02 0.  1.
         -2   -1    0    0    0  501 -0.00000000000E+00 -0.00000000000E+00 -0.16158521894E+03  0.16158521896E+03  0.25500000000E-02 0. -1.
    5000001    1    1    2    0    0  0.36162122101E+03  0.16972177872E+03  0.42664387076E+03  0.61519458882E+03  0.19200000000E+03 0.  0.
   -5000001    1    1    2    0    0 -0.36162122101E+03 -0.16972177872E+03  0.66229866211E+03  0.79691838194E+03  0.19200000000E+03 0.  0.
<mgrwt>
<rscale>  0 0.89903682E+03</rscale>
<asrwt>0</asrwt>
<pdfrwt beam="1">  1        2 0.17864682E+00 0.89903682E+03</pdfrwt>
<pdfrwt beam="2">  1       -2 0.23083603E-01 0.89903682E+03</pdfrwt>
<totfact> 0.33119778E+02</totfact>
</mgrwt>
</event>
<event>
 4    1  0.5847263E-005  0.4962831E+03  0.7818608E-02  0.1014754E+00
          2   -1    0    0  501    0  0.00000000000E+00  0.00000000000E+00  0.91530625631E+03  0.91530625632E+03  0.25500000000E-02 0.  1.
         -2   -1    0    0    0  501 -0.00000000000E+00 -0.00000000000E+00 -0.67271710104E+02  0.67271710152E+02  0.25500000000E-02 0. -1.
    5000001    1    1    2    0    0 -0.77459577222E+02  0.13658363796E+03  0.40931533867E+03  0.47860017001E+03  0.19200000000E+03 0.  0.
   -5000001    1    1    2    0    0  0.77459577222E+02 -0.13658363796E+03  0.43871920754E+03  0.50397779646E+03  0.19200000000E+03 0.  0.
<mgrwt>
<rscale>  0 0.49628305E+03</rscale>
<asrwt>0</asrwt>
<pdfrwt beam="1">  1        2 0.13075803E+00 0.49628305E+03</pdfrwt>
<pdfrwt beam="2">  1       -2 0.96102445E-02 0.49628305E+03</pdfrwt>
<totfact> 0.23273140E+03</totfact>
</mgrwt>
</event>
<event>
 4    1  0.5847263E-005  0.6290374E+03  0.7818608E-02  0.9846929E-01
          2   -1    0    0  501    0  0.00000000000E+00  0.00000000000E+00  0.24138122843E+03  0.24138122844E+03  0.25500000000E-02 0.  1.
         -2   -1    0    0    0  501 -0.00000000000E+00 -0.00000000000E+00 -0.40981655309E+03  0.40981655309E+03  0.25500000000E-02 0. -1.
    5000001    1    1    2    0    0 -0.85946859559E+02 -0.22671498059E+03 -0.25005841115E+02  0.31028347875E+03  0.19200000000E+03 0.  0.
   -5000001    1    1    2    0    0  0.85946859559E+02  0.22671498059E+03 -0.14342948355E+03  0.34091430279E+03  0.19200000000E+03 0.  0.
<mgrwt>
<rscale>  0 0.62903743E+03</rscale>
<asrwt>0</asrwt>
<pdfrwt beam="1">  1        2 0.34483033E-01 0.62903743E+03</pdfrwt>
<pdfrwt beam="2">  1       -2 0.58545222E-01 0.62903743E+03</pdfrwt>
<totfact> 0.41853654E+02</totfact>
</mgrwt>
</event>
<event>
 4    1  0.5847263E-005  0.7237897E+03  0.7818608E-02  0.9677392E-01
          2   -1    0    0  501    0  0.00000000000E+00  0.00000000000E+00  0.10993607843E+04  0.10993607843E+04  0.25500000000E-02 0.  1.
         -2   -1    0    0    0  501 -0.00000000000E+00 -0.00000000000E+00 -0.11913092955E+03  0.11913092958E+03  0.25500000000E-02 0. -1.
    5000001    1    1    2    0    0  0.27527599734E+03  0.12795922490E+03  0.41570864713E+03  0.54938885796E+03  0.19200000000E+03 0.  0.
   -5000001    1    1    2    0    0 -0.27527599734E+03 -0.12795922490E+03  0.56452120758E+03  0.66910285588E+03  0.19200000000E+03 0.  0.
<mgrwt>
<rscale>  0 0.72378967E+03</rscale>
<asrwt>0</asrwt>
<pdfrwt beam="1">  1        2 0.15705154E+00 0.72378967E+03</pdfrwt>
<pdfrwt beam="2">  1       -2 0.17018704E-01 0.72378967E+03</pdfrwt>
<totfact> 0.69401793E+02</totfact>
</mgrwt>
</event>
<event>
 4    1  0.5847263E-005  0.1163190E+04  0.7818608E-02  0.9145701E-01
          2   -1    0    0  501    0  0.00000000000E+00  0.00000000000E+00  0.43341931170E+03  0.43341931171E+03  0.25500000000E-02 0.  1.
         -2   -1    0    0    0  501 -0.00000000000E+00 -0.00000000000E+00 -0.78042857659E+03  0.78042857660E+03  0.25500000000E-02 0. -1.
    5000001    1    1    2    0    0  0.36165445267E+03 -0.25789427089E+03  0.16316853656E+03  0.51067736333E+03  0.19200000000E+03 0.  0.
   -5000001    1    1    2    0    0 -0.36165445267E+03  0.25789427089E+03 -0.51017780146E+03  0.70317052497E+03  0.19200000000E+03 0.  0.
<mgrwt>
<rscale>  0 0.11631901E+04</rscale>
<asrwt>0</asrwt>
<pdfrwt beam="1">  1        2 0.61917045E-01 0.11631901E+04</pdfrwt>
<pdfrwt beam="2">  1       -2 0.11148980E+00 0.11631901E+04</pdfrwt>
<totfact> 0.49736198E+01</totfact>
</mgrwt>
</event>
<event>
 4    1  0.5847263E-005  0.5116996E+03  0.7818608E-02  0.1010769E+00
         -2   -1    0    0    0  501 -0.00000000000E+00  0.00000000000E+00  0.34298580072E+03  0.34298580073E+03  0.25500000000E-02 0. -1.
          2   -1    0    0  501    0  0.00000000000E+00 -0.00000000000E+00 -0.19085078479E+03  0.19085078481E+03  0.25500000000E-02 0.  1.
    5000001    1    1    2    0    0 -0.44668414115E+02 -0.16123672726E+03  0.10167655241E+03  0.27421646695E+03  0.19200000000E+03 0.  0.
   -5000001    1    1    2    0    0  0.44668414115E+02  0.16123672726E+03  0.50458463517E+02  0.25962011859E+03  0.19200000000E+03 0.  0.
<mgrwt>
<rscale>  0 0.51169956E+03</rscale>
<asrwt>0</asrwt>
<pdfrwt beam="1">  1        2 0.27264398E-01 0.51169956E+03</pdfrwt>
<pdfrwt beam="2">  1       -2 0.48997971E-01 0.51169956E+03</pdfrwt>
<totfact> 0.78598057E+02</totfact>
</mgrwt>
</event>
<event>
 4    1  0.5847263E-005  0.4885241E+03  0.7818608E-02  0.1016818E+00
         -2   -1    0    0    0  501 -0.00000000000E+00  0.00000000000E+00  0.33458820644E+02  0.33458820741E+02  0.25500000000E-02 0. -1.
          2   -1    0    0  501    0  0.00000000000E+00 -0.00000000000E+00 -0.17832053521E+04  0.17832053521E+04  0.25500000000E-02 0.  1.
    5000001    1    1    2    0    0 -0.77080610919E+02  0.12857163701E+03 -0.94220720350E+03  0.97318574833E+03  0.19200000000E+03 0.  0.
   -5000001    1    1    2    0    0  0.77080610919E+02 -0.12857163701E+03 -0.80753932792E+03  0.84347842447E+03  0.19200000000E+03 0.  0.
<mgrwt>
<rscale>  0 0.48852410E+03</rscale>
<asrwt>0</asrwt>
<pdfrwt beam="1">  1        2 0.25474356E+00 0.48852410E+03</pdfrwt>
<pdfrwt beam="2">  1       -2 0.47798326E-02 0.48852410E+03</pdfrwt>
<totfact> 0.23503656E+03</totfact>
</mgrwt>
</event>
<event>
 4    1  0.5847263E-005  0.6845422E+03  0.7818608E-02  0.9744038E-01
         -2   -1    0    0    0  501 -0.00000000000E+00  0.00000000000E+00  0.78712422576E+02  0.78712422617E+02  0.25500000000E-02 0. -1.
          2   -1    0    0  501    0  0.00000000000E+00 -0.00000000000E+00 -0.14883229867E+04  0.14883229867E+04  0.25500000000E-02 0.  1.
    5000001    1    1    2    0    0  0.20183217479E+03 -0.60024585332E+02 -0.11388214022E+04  0.11739324357E+04  0.19200000000E+03 0.  0.
   -5000001    1    1    2    0    0 -0.20183217479E+03  0.60024585332E+02 -0.27078916200E+03  0.39310297364E+03  0.19200000000E+03 0.  0.
<mgrwt>
<rscale>  0 0.68454221E+03</rscale>
<asrwt>0</asrwt>
<pdfrwt beam="1">  1        2 0.21261755E+00 0.68454221E+03</pdfrwt>
<pdfrwt beam="2">  1       -2 0.11244633E-01 0.68454221E+03</pdfrwt>
<totfact> 0.85026178E+02</totfact>
</mgrwt>
</event>
<event>
 4    1  0.5847263E-005  0.9651765E+03  0.7818608E-02  0.9347585E-01
          2   -1    0    0  501    0  0.00000000000E+00  0.00000000000E+00  0.11381758436E+04  0.11381758436E+04  0.25500000000E-02 0.  1.
         -2   -1    0    0    0  501 -0.00000000000E+00 -0.00000000000E+00 -0.20461812906E+03  0.20461812908E+03  0.25500000000E-02 0. -1.
    5000001    1    1    2    0    0  0.18350684976E+03  0.37508363697E+03  0.67155583352E+03  0.81376516033E+03  0.19200000000E+03 0.  0.
   -5000001    1    1    2    0    0 -0.18350684976E+03 -0.37508363697E+03  0.26200188101E+03  0.52902881234E+03  0.19200000000E+03 0.  0.
<mgrwt>
<rscale>  0 0.96517648E+03</rscale>
<asrwt>0</asrwt>
<pdfrwt beam="1">  1        2 0.16259656E+00 0.96517648E+03</pdfrwt>
<pdfrwt beam="2">  1       -2 0.29231160E-01 0.96517648E+03</pdfrwt>
<totfact> 0.24895864E+02</totfact>
</mgrwt>
</event>
<event>
 4    1  0.5847263E-005  0.5725139E+03  0.7818608E-02  0.9964131E-01
          2   -1    0    0  501    0  0.00000000000E+00  0.00000000000E+00  0.76540817445E+03  0.76540817445E+03  0.25500000000E-02 0.  1.
         -2   -1    0    0    0  501 -0.00000000000E+00 -0.00000000000E+00 -0.10705797269E+03  0.10705797272E+03  0.25500000000E-02 0. -1.
    5000001    1    1    2    0    0  0.19938684443E+03 -0.57104635568E+02  0.25995829573E+03  0.38400308417E+03  0.19200000000E+03 0.  0.
   -5000001    1    1    2    0    0 -0.19938684443E+03  0.57104635568E+02  0.39839190602E+03  0.48846306300E+03  0.19200000000E+03 0.  0.
<mgrwt>
<rscale>  0 0.57251392E+03</rscale>
<asrwt>0</asrwt>
<pdfrwt beam="1">  1        2 0.10934402E+00 0.57251392E+03</pdfrwt>
<pdfrwt beam="2">  1       -2 0.15293996E-01 0.57251392E+03</pdfrwt>
<totfact> 0.13657165E+03</totfact>
</mgrwt>
</event>
<event>
 4    1  0.5847263E-005  0.1008074E+04  0.7818608E-02  0.9299733E-01
          2   -1    0    0  501    0  0.00000000000E+00  0.00000000000E+00  0.10210041562E+04  0.10210041562E+04  0.25500000000E-02 0.  1.
         -2   -1    0    0    0  501 -0.00000000000E+00 -0.00000000000E+00 -0.24882696913E+03  0.24882696914E+03  0.25500000000E-02 0. -1.
    5000001    1    1    2    0    0  0.36110625866E+03 -0.29029918763E+03  0.44929821510E+03  0.67335297911E+03  0.19200000000E+03 0.  0.
   -5000001    1    1    2    0    0 -0.36110625866E+03  0.29029918763E+03  0.32287897195E+03  0.59647814621E+03  0.19200000000E+03 0.  0.
<mgrwt>
<rscale>  0 0.10080741E+04</rscale>
<asrwt>0</asrwt>
<pdfrwt beam="1">  1        2 0.14585774E+00 0.10080741E+04</pdfrwt>
<pdfrwt beam="2">  1       -2 0.35546710E-01 0.10080741E+04</pdfrwt>
<totfact> 0.20187142E+02</totfact>
</mgrwt>
</event>
<event>
 4    1  0.5847263E-005  0.4189684E+03  0.7818608E-02  0.1037403E+00
         -2   -1    0    0    0  501 -0.00000000000E+00  0.00000000000E+00  0.12871218177E+02  0.12871218430E+02  0.25500000000E-02 0. -1.
          2   -1    0    0  501    0  0.00000000000E+00 -0.00000000000E+00 -0.34094383965E+04  0.34094383965E+04  0.25500000000E-02 0.  1.
    5000001    1    1    2    0    0  0.19288888779E+02 -0.52495843388E+02 -0.11887056973E+04  0.12054099343E+04  0.19200000000E+03 0.  0.
   -5000001    1    1    2    0    0 -0.19288888779E+02  0.52495843388E+02 -0.22078614809E+04  0.22168996806E+04  0.19200000000E+03 0.  0.
<mgrwt>
<rscale>  0 0.41896838E+03</rscale>
<asrwt>0</asrwt>
<pdfrwt beam="1">  1        2 0.48706205E+00 0.41896838E+03</pdfrwt>
<pdfrwt beam="2">  1       -2 0.18387476E-02 0.41896838E+03</pdfrwt>
<totfact> 0.14193981E+03</totfact>
</mgrwt>
</event>
<event>
 4    1  0.5847263E-005  0.6147798E+03  0.7818608E-02  0.9875208E-01
         -2   -1    0    0    0  501 -0.00000000000E+00  0.00000000000E+00  0.22048189600E+03  0.22048189601E+03  0.25500000000E-02 0. -1.
          2   -1    0    0  501    0  0.00000000000E+00 -0.00000000000E+00 -0.42855467545E+03  0.42855467546E+03  0.25500000000E-02 0.  1.
    5000001    1    1    2    0    0 -0.54521237105E+02  0.20095894655E+03  0.22065990022E+02  0.28409148422E+03  0.19200000000E+03 0.  0.
   -5000001    1    1    2    0    0  0.54521237105E+02 -0.20095894655E+03 -0.23013876947E+03  0.36494508725E+03  0.19200000000E+03 0.  0.
<mgrwt>
<rscale>  0 0.61477979E+03</rscale>
<asrwt>0</asrwt>
<pdfrwt beam="1">  1        2 0.61222096E-01 0.61477979E+03</pdfrwt>
<pdfrwt beam="2">  1       -2 0.31497414E-01 0.61477979E+03</pdfrwt>
<totfact> 0.75197663E+02</totfact>
</mgrwt>
</event>
<event>
 4    1  0.5847263E-005  0.4841955E+03  0.7818608E-02  0.1017988E+00
         -2   -1    0    0    0  501 -0.00000000000E+00  0.00000000000E+00  0.34971285062E+03  0.34971285063E+03  0.25500000000E-02 0. -1.
          2   -1    0    0  501    0  0.00000000000E+00 -0.00000000000E+00 -0.16759841890E+03  0.16759841892E+03  0.25500000000E-02 0.  1.
    5000001    1    1    2    0    0 -0.96969999787E+02  0.76442246288E+02  0.17719863431E+03  0.28898088843E+03  0.19200000000E+03 0.  0.
   -5000001    1    1    2    0    0  0.96969999787E+02 -0.76442246288E+02  0.49157974111E+01  0.22833038112E+03  0.19200000000E+03 0.  0.
<mgrwt>
<rscale>  0 0.48419550E+03</rscale>
<asrwt>0</asrwt>
<pdfrwt beam="1">  1        2 0.23942632E-01 0.48419550E+03</pdfrwt>
<pdfrwt beam="2">  1       -2 0.49958978E-01 0.48419550E+03</pdfrwt>
<totfact> 0.87597281E+02</totfact>
</mgrwt>
</event>
<event>
 4    1  0.5847263E-005  0.5199308E+03  0.7818608E-02  0.1008704E+00
          2   -1    0    0  501    0  0.00000000000E+00  0.00000000000E+00  0.61495556837E+03  0.61495556838E+03  0.25500000000E-02 0.  1.
         -2   -1    0    0    0  501 -0.00000000000E+00 -0.00000000000E+00 -0.10989738958E+03  0.10989738961E+03  0.25500000000E-02 0. -1.
    5000001    1    1    2    0    0 -0.16006614820E+03  0.71121021335E+02  0.24386298145E+03  0.35638816646E+03  0.19200000000E+03 0.  0.
   -5000001    1    1    2    0    0  0.16006614820E+03 -0.71121021335E+02  0.26119519735E+03  0.36846479152E+03  0.19200000000E+03 0.  0.
<mgrwt>
<rscale>  0 0.51993081E+03</rscale>
<asrwt>0</asrwt>
<pdfrwt beam="1">  1        2 0.87850796E-01 0.51993081E+03</pdfrwt>
<pdfrwt beam="2">  1       -2 0.15699627E-01 0.51993081E+03</pdfrwt>
<totfact> 0.17049012E+03</totfact>
</mgrwt>
</event>
<event>
 4    1  0.5847263E-005  0.7224540E+03  0.7818608E-02  0.9679585E-01
         -2   -1    0    0    0  501 -0.00000000000E+00  0.00000000000E+00  0.82736894595E+02  0.82736894635E+02  0.25500000000E-02 0.  1.
          2   -1    0    0  501    0  0.00000000000E+00 -0.00000000000E+00 -0.15771072443E+04  0.15771072443E+04  0.25500000000E-02 0. -1.
    5000001    1    1    2    0    0 -0.13824716117E+03 -0.26092273015E+03 -0.93138756833E+03  0.99576089054E+03  0.19200000000E+03 0.  0.
   -5000001    1    1    2    0    0  0.13824716117E+03  0.26092273015E+03 -0.56298278137E+03  0.66408324840E+03  0.19200000000E+03 0.  0.
<mgrwt>
<rscale>  0 0.72245403E+03</rscale>
<asrwt>0</asrwt>
<pdfrwt beam="1">  1        2 0.22530102E+00 0.72245403E+03</pdfrwt>
<pdfrwt beam="2">  1       -2 0.11819557E-01 0.72245403E+03</pdfrwt>
<totfact> 0.70281693E+02</totfact>
</mgrwt>
</event>
<event>
 4    1  0.5847263E-005  0.5705743E+03  0.7818608E-02  0.9968409E-01
          2   -1    0    0  501    0  0.00000000000E+00  0.00000000000E+00  0.32711869712E+04  0.32711869712E+04  0.25500000000E-02 0.  1.
         -2   -1    0    0    0  501 -0.00000000000E+00 -0.00000000000E+00 -0.24880497871E+02  0.24880498002E+02  0.25500000000E-02 0. -1.
    5000001    1    1    2    0    0 -0.19807741668E+03  0.82029010219E+01  0.20406335468E+04  0.20592113109E+04  0.19200000000E+03 0.  0.
   -5000001    1    1    2    0    0  0.19807741668E+03 -0.82029010219E+01  0.12056729266E+04  0.12368561584E+04  0.19200000000E+03 0.  0.
<mgrwt>
<rscale>  0 0.57057431E+03</rscale>
<asrwt>0</asrwt>
<pdfrwt beam="1">  1        2 0.46731274E+00 0.57057431E+03</pdfrwt>
<pdfrwt beam="2">  1       -2 0.35543545E-02 0.57057431E+03</pdfrwt>
<totfact> 0.62071257E+02</totfact>
</mgrwt>
</event>
<event>
 4    1  0.5847263E-005  0.8346400E+03  0.7818608E-02  0.9511188E-01
          2   -1    0    0  501    0  0.00000000000E+00  0.00000000000E+00  0.14481679128E+04  0.14481679128E+04  0.25500000000E-02 0.  1.
         -2   -1    0    0    0  501 -0.00000000000E+00 -0.00000000000E+00 -0.12025951806E+03  0.12025951809E+03  0.25500000000E-02 0. -1.
    5000001    1    1    2    0    0  0.11544527723E+03  0.33814084714E+03  0.84831498836E+03  0.94030269808E+03  0.19200000000E+03 0.  0.
   -5000001    1    1    2    0    0 -0.11544527723E+03 -0.33814084714E+03  0.47959340639E+03  0.62812473283E+03  0.19200000000E+03 0.  0.
<mgrwt>
<rscale>  0 0.83463998E+03</rscale>
<asrwt>0</asrwt>
<pdfrwt beam="1">  1        2 0.20688113E+00 0.83463998E+03</pdfrwt>
<pdfrwt beam="2">  1       -2 0.17179931E-01 0.83463998E+03</pdfrwt>
<totfact> 0.43520984E+02</totfact>
</mgrwt>
</event>
<event>
 4    1  0.5847263E-005  0.5487190E+03  0.7818608E-02  0.1001791E+00
         -2   -1    0    0    0  501 -0.00000000000E+00  0.00000000000E+00  0.12574226634E+03  0.12574226636E+03  0.25500000000E-02 0. -1.
          2   -1    0    0  501    0  0.00000000000E+00 -0.00000000000E+00 -0.59863034747E+03  0.59863034748E+03  0.25500000000E-02 0.  1.
    5000001    1    1    2    0    0 -0.85072872704E+02  0.17008251949E+03 -0.29897461663E+03  0.40300778962E+03  0.19200000000E+03 0.  0.
   -5000001    1    1    2    0    0  0.85072872704E+02 -0.17008251949E+03 -0.17391346451E+03  0.32136482422E+03  0.19200000000E+03 0.  0.
<mgrwt>
<rscale>  0 0.54871900E+03</rscale>
<asrwt>0</asrwt>
<pdfrwt beam="1">  1        2 0.85518620E-01 0.54871900E+03</pdfrwt>
<pdfrwt beam="2">  1       -2 0.17963181E-01 0.54871900E+03</pdfrwt>
<totfact> 0.13994464E+03</totfact>
</mgrwt>
</event>
<event>
 4    1  0.5847263E-005  0.4209707E+03  0.7818608E-02  0.1036751E+00
          2   -1    0    0  501    0  0.00000000000E+00  0.00000000000E+00  0.67592338090E+03  0.67592338091E+03  0.25500000000E-02 0.  1.
         -2   -1    0    0    0  501 -0.00000000000E+00 -0.00000000000E+00 -0.65546000801E+02  0.65546000850E+02  0.25500000000E-02 0. -1.
    5000001    1    1    2    0    0 -0.57548600147E+02 -0.55110231212E+02  0.24700881571E+03  0.32284103519E+03  0.19200000000E+03 0.  0.
   -5000001    1    1    2    0    0  0.57548600147E+02  0.55110231212E+02  0.36336856439E+03  0.41862834657E+03  0.19200000000E+03 0.  0.
<mgrwt>
<rscale>  0 0.42097066E+03</rscale>
<asrwt>0</asrwt>
<pdfrwt beam="1">  1        2 0.96560484E-01 0.42097066E+03</pdfrwt>
<pdfrwt beam="2">  1       -2 0.93637143E-02 0.42097066E+03</pdfrwt>
<totfact> 0.35513917E+03</totfact>
</mgrwt>
</event>
<event>
 4    1  0.5847263E-005  0.7097477E+03  0.7818608E-02  0.9700706E-01
          2   -1    0    0  501    0  0.00000000000E+00  0.00000000000E+00  0.12826625314E+04  0.12826625314E+04  0.25500000000E-02 0.  1.
         -2   -1    0    0    0  501 -0.00000000000E+00 -0.00000000000E+00 -0.98182825748E+02  0.98182825781E+02  0.25500000000E-02 0. -1.
    5000001    1    1    2    0    0  0.26205859140E+03 -0.13435754694E+03  0.49803098839E+03  0.60961095884E+03  0.19200000000E+03 0.  0.
   -5000001    1    1    2    0    0 -0.26205859140E+03  0.13435754694E+03  0.68644871724E+03  0.77123439831E+03  0.19200000000E+03 0.  0.
<mgrwt>
<rscale>  0 0.70974765E+03</rscale>
<asrwt>0</asrwt>
<pdfrwt beam="1">  1        2 0.18323750E+00 0.70974765E+03</pdfrwt>
<pdfrwt beam="2">  1       -2 0.14026119E-01 0.70974765E+03</pdfrwt>
<totfact> 0.75881894E+02</totfact>
</mgrwt>
</event>
<event>
 4    1  0.5847263E-005  0.1178319E+04  0.7818608E-02  0.9132048E-01
          2   -1    0    0  501    0  0.00000000000E+00  0.00000000000E+00  0.34303071142E+04  0.34303071142E+04  0.25500000000E-02 0.  1.
         -2   -1    0    0    0  501 -0.00000000000E+00 -0.00000000000E+00 -0.10118893471E+03  0.10118893474E+03  0.25500000000E-02 0. -1.
    5000001    1    1    2    0    0 -0.87303391149E+02  0.51807786058E+03  0.11101547142E+04  0.12431146533E+04  0.19200000000E+03 0.  0.
   -5000001    1    1    2    0    0  0.87303391149E+02 -0.51807786058E+03  0.22189634653E+04  0.22883813957E+04  0.19200000000E+03 0.  0.
<mgrwt>
<rscale>  0 0.11783194E+04</rscale>
<asrwt>0</asrwt>
<pdfrwt beam="1">  1        2 0.49004388E+00 0.11783194E+04</pdfrwt>
<pdfrwt beam="2">  1       -2 0.14455562E-01 0.11783194E+04</pdfrwt>
<totfact> 0.49991179E+01</totfact>
</mgrwt>
</event>
<event>
 4    1  0.5847263E-005  0.5215685E+03  0.7818608E-02  0.1008298E+00
         -2   -1    0    0    0  501 -0.00000000000E+00  0.00000000000E+00  0.10508463231E+03  0.10508463234E+03  0.25500000000E-02 0. -1.
          2   -1    0    0  501    0  0.00000000000E+00 -0.00000000000E+00 -0.64717775253E+03  0.64717775253E+03  0.25500000000E-02 0.  1.
    5000001    1    1    2    0    0  0.46386604193E+02  0.17008577114E+03 -0.25954877175E+03  0.36784568980E+03  0.19200000000E+03 0.  0.
   -5000001    1    1    2    0    0 -0.46386604193E+02 -0.17008577114E+03 -0.28254434848E+03  0.38441669507E+03  0.19200000000E+03 0.  0.
<mgrwt>
<rscale>  0 0.52156854E+03</rscale>
<asrwt>0</asrwt>
<pdfrwt beam="1">  1        2 0.92453962E-01 0.52156854E+03</pdfrwt>
<pdfrwt beam="2">  1       -2 0.15012091E-01 0.52156854E+03</pdfrwt>
<totfact> 0.17304000E+03</totfact>
</mgrwt>
</event>
<event>
 4    1  0.5847263E-005  0.6519387E+03  0.7818608E-02  0.9803148E-01
          2   -1    0    0  501    0  0.00000000000E+00  0.00000000000E+00  0.19800486704E+04  0.19800486704E+04  0.25500000000E-02 0. -1.
         -2   -1    0    0    0  501 -0.00000000000E+00 -0.00000000000E+00 -0.53663335318E+02  0.53663335379E+02  0.25500000000E-02 0.  1.
    5000001    1    1    2    0    0 -0.24848560983E+03 -0.43615423060E+02  0.72675696436E+03  0.79289790558E+03  0.19200000000E+03 0.  0.
   -5000001    1    1    2    0    0  0.24848560983E+03  0.43615423060E+02  0.11996283707E+04  0.12408141002E+04  0.19200000000E+03 0.  0.
<mgrwt>
<rscale>  0 0.65193870E+03</rscale>
<asrwt>0</asrwt>
<pdfrwt beam="1">  1        2 0.28286409E+00 0.65193870E+03</pdfrwt>
<pdfrwt beam="2">  1       -2 0.76661908E-02 0.65193870E+03</pdfrwt>
<totfact> 0.88687250E+02</totfact>
</mgrwt>
</event>
<event>
 4    1  0.5847263E-005  0.6527600E+03  0.7818608E-02  0.9801614E-01
         -2   -1    0    0    0  501 -0.00000000000E+00  0.00000000000E+00  0.67709128113E+03  0.67709128113E+03  0.25500000000E-02 0. -1.
          2   -1    0    0  501    0  0.00000000000E+00 -0.00000000000E+00 -0.15732576256E+03  0.15732576258E+03  0.25500000000E-02 0.  1.
    5000001    1    1    2    0    0 -0.17905727649E+03 -0.17158254206E+03  0.14442667264E+03  0.34528993726E+03  0.19200000000E+03 0.  0.
   -5000001    1    1    2    0    0  0.17905727649E+03  0.17158254206E+03  0.37533884593E+03  0.48912710645E+03  0.19200000000E+03 0.  0.
<mgrwt>
<rscale>  0 0.65275999E+03</rscale>
<asrwt>0</asrwt>
<pdfrwt beam="1">  1        2 0.22475109E-01 0.65275999E+03</pdfrwt>
<pdfrwt beam="2">  1       -2 0.96727325E-01 0.65275999E+03</pdfrwt>
<totfact> 0.22387566E+02</totfact>
</mgrwt>
</event>
<event>
 4    1  0.5847263E-005  0.7433812E+03  0.7818608E-02  0.9645792E-01
         -2   -1    0    0    0  501 -0.00000000000E+00  0.00000000000E+00  0.82899738784E+03  0.82899738785E+03  0.25500000000E-02 0.  1.
          2   -1    0    0  501    0  0.00000000000E+00 -0.00000000000E+00 -0.16665177574E+03  0.16665177576E+03  0.25500000000E-02 0. -1.
    5000001    1    1    2    0    0  0.55958933670E+02 -0.28703223889E+03  0.16297353799E+03  0.38593170705E+03  0.19200000000E+03 0.  0.
   -5000001    1    1    2    0    0 -0.55958933670E+02  0.28703223889E+03  0.49937207411E+03  0.60971745655E+03  0.19200000000E+03 0.  0.
<mgrwt>
<rscale>  0 0.74338116E+03</rscale>
<asrwt>0</asrwt>
<pdfrwt beam="1">  1        2 0.23807397E-01 0.74338116E+03</pdfrwt>
<pdfrwt beam="2">  1       -2 0.11842820E+00 0.74338116E+03</pdfrwt>
<totfact> 0.12842479E+02</totfact>
</mgrwt>
</event>
<event>
 4    1  0.5847263E-005  0.6141886E+03  0.7818608E-02  0.9876399E-01
         -2   -1    0    0    0  501 -0.00000000000E+00  0.00000000000E+00  0.79607895474E+02  0.79607895515E+02  0.25500000000E-02 0. -1.
          2   -1    0    0  501    0  0.00000000000E+00 -0.00000000000E+00 -0.11846427757E+04  0.11846427757E+04  0.25500000000E-02 0.  1.
    5000001    1    1    2    0    0  0.20015024798E+03 -0.11368736239E+03 -0.68995343355E+03  0.75225306819E+03  0.19200000000E+03 0.  0.
   -5000001    1    1    2    0    0 -0.20015024798E+03  0.11368736239E+03 -0.41508144669E+03  0.51199760304E+03  0.19200000000E+03 0.  0.
<mgrwt>
<rscale>  0 0.61418863E+03</rscale>
<asrwt>0</asrwt>
<pdfrwt beam="1">  1        2 0.16923467E+00 0.61418863E+03</pdfrwt>
<pdfrwt beam="2">  1       -2 0.11372557E-01 0.61418863E+03</pdfrwt>
<totfact> 0.12220483E+03</totfact>
</mgrwt>
</event>
<event>
 4    1  0.5847263E-005  0.7900655E+03  0.7818608E-02  0.9574509E-01
         -2   -1    0    0    0  501 -0.00000000000E+00  0.00000000000E+00  0.91336674663E+02  0.91336674699E+02  0.25500000000E-02 0. -1.
          2   -1    0    0  501    0  0.00000000000E+00 -0.00000000000E+00 -0.17085235078E+04  0.17085235078E+04  0.25500000000E-02 0.  1.
    5000001    1    1    2    0    0 -0.18242529237E+03  0.22402049204E+03 -0.37801945826E+03  0.51305640915E+03  0.19200000000E+03 0.  0.
   -5000001    1    1    2    0    0  0.18242529237E+03 -0.22402049204E+03 -0.12391673749E+04  0.12868037734E+04  0.19200000000E+03 0.  0.
<mgrwt>
<rscale>  0 0.79006546E+03</rscale>
<asrwt>0</asrwt>
<pdfrwt beam="1">  1        2 0.24407477E+00 0.79006546E+03</pdfrwt>
<pdfrwt beam="2">  1       -2 0.13048097E-01 0.79006546E+03</pdfrwt>
<totfact> 0.50850300E+02</totfact>
</mgrwt>
</event>
<event>
 4    1  0.5847263E-005  0.6031902E+03  0.7818608E-02  0.9898809E-01
         -2   -1    0    0    0  501 -0.00000000000E+00  0.00000000000E+00  0.59666241757E+02  0.59666241811E+02  0.25500000000E-02 0. -1.
          2   -1    0    0  501    0  0.00000000000E+00 -0.00000000000E+00 -0.15244734356E+04  0.15244734356E+04  0.25500000000E-02 0.  1.
    5000001    1    1    2    0    0  0.14422606494E+03  0.11407630856E+03 -0.35839266206E+03  0.44623296853E+03  0.19200000000E+03 0.  0.
   -5000001    1    1    2    0    0 -0.14422606494E+03 -0.11407630856E+03 -0.11064145318E+04  0.11379067089E+04  0.19200000000E+03 0.  0.
<mgrwt>
<rscale>  0 0.60319019E+03</rscale>
<asrwt>0</asrwt>
<pdfrwt beam="1">  1        2 0.21778189E+00 0.60319019E+03</pdfrwt>
<pdfrwt beam="2">  1       -2 0.85237498E-02 0.60319019E+03</pdfrwt>
<totfact> 0.12797221E+03</totfact>
</mgrwt>
</event>
<event>
 4    1  0.5847263E-005  0.1057618E+04  0.7818608E-02  0.9247514E-01
          2   -1    0    0  501    0  0.00000000000E+00  0.00000000000E+00  0.58486583971E+03  0.58486583971E+03  0.25500000000E-02 0.  1.
         -2   -1    0    0    0  501 -0.00000000000E+00 -0.00000000000E+00 -0.47812519049E+03  0.47812519049E+03  0.25500000000E-02 0. -1.
    5000001    1    1    2    0    0 -0.18600591208E+03  0.37746441932E+03 -0.20424701904E+03  0.50562677141E+03  0.19200000000E+03 0.  0.
   -5000001    1    1    2    0    0  0.18600591208E+03 -0.37746441932E+03  0.31098766826E+03  0.55736425880E+03  0.19200000000E+03 0.  0.
<mgrwt>
<rscale>  0 0.10576183E+04</rscale>
<asrwt>0</asrwt>
<pdfrwt beam="1">  1        2 0.83552263E-01 0.10576183E+04</pdfrwt>
<pdfrwt beam="2">  1       -2 0.68303598E-01 0.10576183E+04</pdfrwt>
<totfact> 0.10927228E+02</totfact>
</mgrwt>
</event>
<event>
 4    1  0.5847263E-005  0.4957644E+03  0.7818608E-02  0.1014890E+00
         -2   -1    0    0    0  501 -0.00000000000E+00  0.00000000000E+00  0.83382259105E+02  0.83382259144E+02  0.25500000000E-02 0. -1.
          2   -1    0    0  501    0  0.00000000000E+00 -0.00000000000E+00 -0.73691445647E+03  0.73691445648E+03  0.25500000000E-02 0.  1.
    5000001    1    1    2    0    0  0.59377085997E+02  0.13928858234E+03 -0.25946099770E+03  0.35652623584E+03  0.19200000000E+03 0.  0.
   -5000001    1    1    2    0    0 -0.59377085997E+02 -0.13928858234E+03 -0.39407119967E+03  0.46377047979E+03  0.19200000000E+03 0.  0.
<mgrwt>
<rscale>  0 0.49576443E+03</rscale>
<asrwt>0</asrwt>
<pdfrwt beam="1">  1        2 0.10527349E+00 0.49576443E+03</pdfrwt>
<pdfrwt beam="2">  1       -2 0.11911752E-01 0.49576443E+03</pdfrwt>
<totfact> 0.21691697E+03</totfact>
</mgrwt>
</event>
<event>
 4    1  0.5847263E-005  0.8704499E+03  0.7818608E-02  0.9463294E-01
          2   -1    0    0  501    0  0.00000000000E+00  0.00000000000E+00  0.16582036330E+04  0.16582036330E+04  0.25500000000E-02 0.  1.
         -2   -1    0    0    0  501 -0.00000000000E+00 -0.00000000000E+00 -0.11423250328E+03  0.11423250330E+03  0.25500000000E-02 0. -1.
    5000001    1    1    2    0    0  0.58121780405E+02 -0.34736509043E+03  0.11158378550E+04  0.11857481883E+04  0.19200000000E+03 0.  0.
   -5000001    1    1    2    0    0 -0.58121780405E+02  0.34736509043E+03  0.42813327473E+03  0.58668794801E+03  0.19200000000E+03 0.  0.
<mgrwt>
<rscale>  0 0.87044989E+03</rscale>
<asrwt>0</asrwt>
<pdfrwt beam="1">  1        2 0.23688620E+00 0.87044989E+03</pdfrwt>
<pdfrwt beam="2">  1       -2 0.16318931E-01 0.87044989E+03</pdfrwt>
<totfact> 0.36825913E+02</totfact>
</mgrwt>
</event>
<event>
 4    1  0.5847263E-005  0.5709425E+03  0.7818608E-02  0.9967595E-01
         -2   -1    0    0    0  501 -0.00000000000E+00  0.00000000000E+00  0.64156817802E+02  0.64156817853E+02  0.25500000000E-02 0.  1.
          2   -1    0    0  501    0  0.00000000000E+00 -0.00000000000E+00 -0.12702286561E+04  0.12702286561E+04  0.25500000000E-02 0. -1.
    5000001    1    1    2    0    0  0.15381079899E+03  0.34658674503E+02 -0.27441020573E+03  0.37016745753E+03  0.19200000000E+03 0.  0.
   -5000001    1    1    2    0    0 -0.15381079899E+03 -0.34658674503E+02 -0.93166163262E+03  0.96421801647E+03  0.19200000000E+03 0.  0.
<mgrwt>
<rscale>  0 0.57094248E+03</rscale>
<asrwt>0</asrwt>
<pdfrwt beam="1">  1        2 0.18146122E+00 0.57094248E+03</pdfrwt>
<pdfrwt beam="2">  1       -2 0.91652605E-02 0.57094248E+03</pdfrwt>
<totfact> 0.15565978E+03</totfact>
</mgrwt>
</event>
<event>
 4    1  0.5847263E-005  0.4098973E+03  0.7818608E-02  0.1040405E+00
         -2   -1    0    0    0  501 -0.00000000000E+00  0.00000000000E+00  0.38190346414E+02  0.38190346499E+02  0.25500000000E-02 0. -1.
          2   -1    0    0  501    0  0.00000000000E+00 -0.00000000000E+00 -0.10998577563E+04  0.10998577563E+04  0.25500000000E-02 0.  1.
    5000001    1    1    2    0    0 -0.77153066261E+01  0.71247176816E+02 -0.52510147818E+03  0.56367654603E+03  0.19200000000E+03 0.  0.
   -5000001    1    1    2    0    0  0.77153066261E+01 -0.71247176816E+02 -0.53656593175E+03  0.57437155681E+03  0.19200000000E+03 0.  0.
<mgrwt>
<rscale>  0 0.40989730E+03</rscale>
<asrwt>0</asrwt>
<pdfrwt beam="1">  1        2 0.15712252E+00 0.40989730E+03</pdfrwt>
<pdfrwt beam="2">  1       -2 0.54557645E-02 0.40989730E+03</pdfrwt>
<totfact> 0.43891036E+03</totfact>
</mgrwt>
</event>
<event>
 4    1  0.5847263E-005  0.4792097E+03  0.7818608E-02  0.1019353E+00
         -2   -1    0    0    0  501 -0.00000000000E+00  0.00000000000E+00  0.11329422060E+03  0.11329422062E+03  0.25500000000E-02 0. -1.
          2   -1    0    0  501    0  0.00000000000E+00 -0.00000000000E+00 -0.50673801754E+03  0.50673801755E+03  0.25500000000E-02 0.  1.
    5000001    1    1    2    0    0  0.71824378066E+02 -0.11905372280E+03 -0.15164120546E+03  0.28140999519E+03  0.19200000000E+03 0.  0.
   -5000001    1    1    2    0    0 -0.71824378066E+02  0.11905372280E+03 -0.24180259149E+03  0.33862224299E+03  0.19200000000E+03 0.  0.
<mgrwt>
<rscale>  0 0.47920972E+03</rscale>
<asrwt>0</asrwt>
<pdfrwt beam="1">  1        2 0.72391144E-01 0.47920972E+03</pdfrwt>
<pdfrwt beam="2">  1       -2 0.16184889E-01 0.47920972E+03</pdfrwt>
<totfact> 0.20238429E+03</totfact>
</mgrwt>
</event>
<event>
 4    1  0.5847263E-005  0.6942595E+03  0.7818608E-02  0.9727100E-01
          2   -1    0    0  501    0  0.00000000000E+00  0.00000000000E+00  0.39342789459E+04  0.39342789459E+04  0.25500000000E-02 0.  1.
         -2   -1    0    0    0  501 -0.00000000000E+00 -0.00000000000E+00 -0.30627991195E+02  0.30627991301E+02  0.25500000000E-02 0. -1.
    5000001    1    1    2    0    0 -0.57652383582E+01 -0.28780162700E+03  0.17931415497E+04  0.18262211344E+04  0.19200000000E+03 0.  0.
   -5000001    1    1    2    0    0  0.57652383582E+01  0.28780162700E+03  0.21105094050E+04  0.21386858028E+04  0.19200000000E+03 0.  0.
<mgrwt>
<rscale>  0 0.69425949E+03</rscale>
<asrwt>0</asrwt>
<pdfrwt beam="1">  1        2 0.56204003E+00 0.69425949E+03</pdfrwt>
<pdfrwt beam="2">  1       -2 0.43754260E-02 0.69425949E+03</pdfrwt>
<totfact> 0.17519771E+02</totfact>
</mgrwt>
</event>
<event>
 4    1  0.5847263E-005  0.6202425E+03  0.7818608E-02  0.9864277E-01
         -2   -1    0    0    0  501 -0.00000000000E+00  0.00000000000E+00  0.99800885818E+02  0.99800885851E+02  0.25500000000E-02 0. -1.
          2   -1    0    0  501    0  0.00000000000E+00 -0.00000000000E+00 -0.96367060936E+03  0.96367060937E+03  0.25500000000E-02 0.  1.
    5000001    1    1    2    0    0  0.23575881962E+03  0.38128056950E+02 -0.51372014567E+03  0.59817084334E+03  0.19200000000E+03 0.  0.
   -5000001    1    1    2    0    0 -0.23575881962E+03 -0.38128056950E+02 -0.35014957788E+03  0.46530065188E+03  0.19200000000E+03 0.  0.
<mgrwt>
<rscale>  0 0.62024247E+03</rscale>
<asrwt>0</asrwt>
<pdfrwt beam="1">  1        2 0.13766722E+00 0.62024247E+03</pdfrwt>
<pdfrwt beam="2">  1       -2 0.14257270E-01 0.62024247E+03</pdfrwt>
<totfact> 0.11344347E+03</totfact>
</mgrwt>
</event>
<event>
 4    1  0.5847263E-005  0.5428261E+03  0.7818608E-02  0.1003168E+00
          2   -1    0    0  501    0  0.00000000000E+00  0.00000000000E+00  0.23709525821E+04  0.23709525821E+04  0.25500000000E-02 0.  1.
         -2   -1    0    0    0  501 -0.00000000000E+00 -0.00000000000E+00 -0.31069807383E+02  0.31069807488E+02  0.25500000000E-02 0. -1.
    5000001    1    1    2    0    0 -0.73225887642E+02  0.17080116890E+03  0.95930012810E+03  0.99581916315E+03  0.19200000000E+03 0.  0.
   -5000001    1    1    2    0    0  0.73225887642E+02 -0.17080116890E+03  0.13805826466E+04  0.14062032264E+04  0.19200000000E+03 0.  0.
<mgrwt>
<rscale>  0 0.54282609E+03</rscale>
<asrwt>0</asrwt>
<pdfrwt beam="1">  1        2 0.33870758E+00 0.54282609E+03</pdfrwt>
<pdfrwt beam="2">  1       -2 0.44385430E-02 0.54282609E+03</pdfrwt>
<totfact> 0.13336173E+03</totfact>
</mgrwt>
</event>
<event>
 4    1  0.5847263E-005  0.4885007E+03  0.7818608E-02  0.1016825E+00
          2   -1    0    0  501    0  0.00000000000E+00  0.00000000000E+00  0.24240512502E+04  0.24240512502E+04  0.25500000000E-02 0.  1.
         -2   -1    0    0    0  501 -0.00000000000E+00 -0.00000000000E+00 -0.24610959021E+02  0.24610959153E+02  0.25500000000E-02 0. -1.
    5000001    1    1    2    0    0  0.87130816921E+02  0.11842270058E+03  0.13718001913E+04  0.13929520739E+04  0.19200000000E+03 0.  0.
   -5000001    1    1    2    0    0 -0.87130816921E+02 -0.11842270058E+03  0.10276400999E+04  0.10557101355E+04  0.19200000000E+03 0.  0.
<mgrwt>
<rscale>  0 0.48850067E+03</rscale>
<asrwt>0</asrwt>
<pdfrwt beam="1">  1        2 0.34629310E+00 0.48850067E+03</pdfrwt>
<pdfrwt beam="2">  1       -2 0.35158507E-02 0.48850067E+03</pdfrwt>
<totfact> 0.17966254E+03</totfact>
</mgrwt>
</event>
<event>
 4    1  0.5847263E-005  0.5672326E+03  0.7818608E-02  0.9975821E-01
         -2   -1    0    0    0  501 -0.00000000000E+00  0.00000000000E+00  0.49650991646E+03  0.49650991646E+03  0.25500000000E-02 0. -1.
          2   -1    0    0  501    0  0.00000000000E+00 -0.00000000000E+00 -0.16200727501E+03  0.16200727503E+03  0.25500000000E-02 0.  1.
    5000001    1    1    2    0    0 -0.18036061811E+03 -0.97879661011E+02  0.21166864635E+03  0.35182097216E+03  0.19200000000E+03 0.  0.
   -5000001    1    1    2    0    0  0.18036061811E+03  0.97879661011E+02  0.12283399509E+03  0.30669621934E+03  0.19200000000E+03 0.  0.
<mgrwt>
<rscale>  0 0.56723265E+03</rscale>
<asrwt>0</asrwt>
<pdfrwt beam="1">  1        2 0.23143896E-01 0.56723265E+03</pdfrwt>
<pdfrwt beam="2">  1       -2 0.70929989E-01 0.56723265E+03</pdfrwt>
<totfact> 0.43667416E+02</totfact>
</mgrwt>
</event>
<event>
 4    1  0.5847263E-005  0.4795693E+03  0.7818608E-02  0.1019254E+00
         -2   -1    0    0    0  501 -0.00000000000E+00  0.00000000000E+00  0.39609510655E+02  0.39609510737E+02  0.25500000000E-02 0. -1.
          2   -1    0    0  501    0  0.00000000000E+00 -0.00000000000E+00 -0.14515878607E+04  0.14515878607E+04  0.25500000000E-02 0.  1.
    5000001    1    1    2    0    0  0.25135395079E+02  0.12273309582E+03 -0.92448169918E+03  0.95248391745E+03  0.19200000000E+03 0.  0.
   -5000001    1    1    2    0    0 -0.25135395079E+02 -0.12273309582E+03 -0.48749665087E+03  0.53871345399E+03  0.19200000000E+03 0.  0.
<mgrwt>
<rscale>  0 0.47956933E+03</rscale>
<asrwt>0</asrwt>
<pdfrwt beam="1">  1        2 0.20736966E+00 0.47956933E+03</pdfrwt>
<pdfrwt beam="2">  1       -2 0.56585024E-02 0.47956933E+03</pdfrwt>
<totfact> 0.26723573E+03</totfact>
</mgrwt>
</event>
<event>
 4    1  0.5847263E-005  0.8355067E+03  0.7818608E-02  0.9509998E-01
          2   -1    0    0  501    0  0.00000000000E+00  0.00000000000E+00  0.41865957842E+03  0.41865957843E+03  0.25500000000E-02 0.  1.
         -2   -1    0    0    0  501 -0.00000000000E+00 -0.00000000000E+00 -0.41684911644E+03  0.41684911645E+03  0.25500000000E-02 0. -1.
    5000001    1    1    2    0    0  0.18899024390E+03  0.30322181511E+03 -0.99060467281E+02  0.41753773198E+03  0.19200000000E+03 0.  0.
   -5000001    1    1    2    0    0 -0.18899024390E+03 -0.30322181511E+03  0.10087092926E+03  0.41797096289E+03  0.19200000000E+03 0.  0.
<mgrwt>
<rscale>  0 0.83550673E+03</rscale>
<asrwt>0</asrwt>
<pdfrwt beam="1">  1        2 0.59808511E-01 0.83550673E+03</pdfrwt>
<pdfrwt beam="2">  1       -2 0.59549874E-01 0.83550673E+03</pdfrwt>
<totfact> 0.21748750E+02</totfact>
</mgrwt>
</event>
<event>
 4    1  0.5847263E-005  0.5152004E+03  0.7818608E-02  0.1009886E+00
         -2   -1    0    0    0  501 -0.00000000000E+00  0.00000000000E+00  0.34616195188E+03  0.34616195189E+03  0.25500000000E-02 0. -1.
          2   -1    0    0  501    0  0.00000000000E+00 -0.00000000000E+00 -0.19169598282E+03  0.19169598284E+03  0.25500000000E-02 0.  1.
    5000001    1    1    2    0    0 -0.92806261421E+02 -0.10596523795E+03  0.17979937186E+03  0.29838473140E+03  0.19200000000E+03 0.  0.
   -5000001    1    1    2    0    0  0.92806261421E+02  0.10596523795E+03 -0.25333402802E+02  0.23947320332E+03  0.19200000000E+03 0.  0.
<mgrwt>
<rscale>  0 0.51520037E+03</rscale>
<asrwt>0</asrwt>
<pdfrwt beam="1">  1        2 0.27385141E-01 0.51520037E+03</pdfrwt>
<pdfrwt beam="2">  1       -2 0.49451707E-01 0.51520037E+03</pdfrwt>
<totfact> 0.76767556E+02</totfact>
</mgrwt>
</event>
<event>
 4    1  0.5847263E-005  0.4610431E+03  0.7818608E-02  0.1024479E+00
         -2   -1    0    0    0  501 -0.00000000000E+00  0.00000000000E+00  0.20543056943E+03  0.20543056944E+03  0.25500000000E-02 0. -1.
          2   -1    0    0  501    0  0.00000000000E+00 -0.00000000000E+00 -0.25867713644E+03  0.25867713645E+03  0.25500000000E-02 0.  1.
    5000001    1    1    2    0    0  0.17305524334E+02  0.67320617304E+02 -0.13431402932E+03  0.24440909385E+03  0.19200000000E+03 0.  0.
   -5000001    1    1    2    0    0 -0.17305524334E+02 -0.67320617304E+02  0.81067462308E+02  0.21969861204E+03  0.19200000000E+03 0.  0.
<mgrwt>
<rscale>  0 0.46104313E+03</rscale>
<asrwt>0</asrwt>
<pdfrwt beam="1">  1        2 0.36953877E-01 0.46104313E+03</pdfrwt>
<pdfrwt beam="2">  1       -2 0.29347224E-01 0.46104313E+03</pdfrwt>
<totfact> 0.14959989E+03</totfact>
</mgrwt>
</event>
<event>
 4    1  0.5847263E-005  0.7546969E+03  0.7818608E-02  0.9628010E-01
          2   -1    0    0  501    0  0.00000000000E+00  0.00000000000E+00  0.22996273964E+04  0.22996273964E+04  0.25500000000E-02 0.  1.
         -2   -1    0    0    0  501 -0.00000000000E+00 -0.00000000000E+00 -0.61919538931E+02  0.61919538983E+02  0.25500000000E-02 0. -1.
    5000001    1    1    2    0    0  0.32375274417E+03  0.24676827716E+02  0.11506239474E+04  0.12108774726E+04  0.19200000000E+03 0.  0.
   -5000001    1    1    2    0    0 -0.32375274417E+03 -0.24676827716E+02  0.10870839100E+04  0.11506694628E+04  0.19200000000E+03 0.  0.
<mgrwt>
<rscale>  0 0.75469694E+03</rscale>
<asrwt>0</asrwt>
<pdfrwt beam="1">  1        2 0.32851821E+00 0.75469694E+03</pdfrwt>
<pdfrwt beam="2">  1       -2 0.88456480E-02 0.75469694E+03</pdfrwt>
<totfact> 0.48270962E+02</totfact>
</mgrwt>
</event>
<event>
 4    1  0.5847263E-005  0.1607775E+04  0.7818608E-02  0.8815786E-01
          2   -1    0    0  501    0  0.00000000000E+00  0.00000000000E+00  0.27215844964E+04  0.27215844964E+04  0.25500000000E-02 0.  1.
         -2   -1    0    0    0  501 -0.00000000000E+00 -0.00000000000E+00 -0.23744806649E+03  0.23744806651E+03  0.25500000000E-02 0. -1.
    5000001    1    1    2    0    0  0.14050061777E+02 -0.77977813081E+03  0.11804848348E+04  0.14278164387E+04  0.19200000000E+03 0.  0.
   -5000001    1    1    2    0    0 -0.14050061777E+02  0.77977813081E+03  0.13036515951E+04  0.15312161242E+04  0.19200000000E+03 0.  0.
<mgrwt>
<rscale>  0 0.16077748E+04</rscale>
<asrwt>0</asrwt>
<pdfrwt beam="1">  1        2 0.38879775E+00 0.16077748E+04</pdfrwt>
<pdfrwt beam="2">  1       -2 0.33921156E-01 0.16077748E+04</pdfrwt>
<totfact> 0.26266057E+01</totfact>
</mgrwt>
</event>
<event>
 4    1  0.5847263E-005  0.8621357E+03  0.7818608E-02  0.9474192E-01
          2   -1    0    0  501    0  0.00000000000E+00  0.00000000000E+00  0.59703172901E+03  0.59703172901E+03  0.25500000000E-02 0.  1.
         -2   -1    0    0    0  501 -0.00000000000E+00 -0.00000000000E+00 -0.31123891708E+03  0.31123891709E+03  0.25500000000E-02 0. -1.
    5000001    1    1    2    0    0 -0.26092639868E+03  0.21876998868E+03  0.33431300464E+03  0.51436570507E+03  0.19200000000E+03 0.  0.
   -5000001    1    1    2    0    0  0.26092639868E+03 -0.21876998868E+03 -0.48520192716E+02  0.39390494104E+03  0.19200000000E+03 0.  0.
<mgrwt>
<rscale>  0 0.86213574E+03</rscale>
<asrwt>0</asrwt>
<pdfrwt beam="1">  1        2 0.85290246E-01 0.86213574E+03</pdfrwt>
<pdfrwt beam="2">  1       -2 0.44462703E-01 0.86213574E+03</pdfrwt>
<totfact> 0.26276555E+02</totfact>
</mgrwt>
</event>
<event>
 4    1  0.5847263E-005  0.8365910E+03  0.7818608E-02  0.9508513E-01
          2   -1    0    0  501    0  0.00000000000E+00  0.00000000000E+00  0.13342605717E+04  0.13342605717E+04  0.25500000000E-02 0.  1.
         -2   -1    0    0    0  501 -0.00000000000E+00 -0.00000000000E+00 -0.13113713343E+03  0.13113713346E+03  0.25500000000E-02 0. -1.
    5000001    1    1    2    0    0 -0.21941988041E+03  0.23203723742E+03  0.93446699718E+03  0.10060213379E+04  0.19200000000E+03 0.  0.
   -5000001    1    1    2    0    0  0.21941988041E+03 -0.23203723742E+03  0.26865644108E+03  0.45937636726E+03  0.19200000000E+03 0.  0.
<mgrwt>
<rscale>  0 0.83659096E+03</rscale>
<asrwt>0</asrwt>
<pdfrwt beam="1">  1        2 0.19060866E+00 0.83659096E+03</pdfrwt>
<pdfrwt beam="2">  1       -2 0.18733876E-01 0.83659096E+03</pdfrwt>
<totfact> 0.43150544E+02</totfact>
</mgrwt>
</event>
<event>
 4    1  0.5847263E-005  0.1090715E+04  0.7818608E-02  0.9214289E-01
         -2   -1    0    0    0  501 -0.00000000000E+00  0.00000000000E+00  0.25666558708E+03  0.25666558709E+03  0.25500000000E-02 0. -1.
          2   -1    0    0  501    0  0.00000000000E+00 -0.00000000000E+00 -0.11587645599E+04  0.11587645599E+04  0.25500000000E-02 0.  1.
    5000001    1    1    2    0    0  0.10508191098E+03  0.47789034005E+03 -0.26241431586E+03  0.58749183680E+03  0.19200000000E+03 0.  0.
   -5000001    1    1    2    0    0 -0.10508191098E+03 -0.47789034005E+03 -0.63968465691E+03  0.82793831015E+03  0.19200000000E+03 0.  0.
<mgrwt>
<rscale>  0 0.10907153E+04</rscale>
<asrwt>0</asrwt>
<pdfrwt beam="1">  1        2 0.16553779E+00 0.10907153E+04</pdfrwt>
<pdfrwt beam="2">  1       -2 0.36666513E-01 0.10907153E+04</pdfrwt>
<totfact> 0.15681812E+02</totfact>
</mgrwt>
</event>
<event>
 4    1  0.5847263E-005  0.6390685E+03  0.7818608E-02  0.9827510E-01
         -2   -1    0    0    0  501 -0.00000000000E+00  0.00000000000E+00  0.18892402696E+03  0.18892402698E+03  0.25500000000E-02 0. -1.
          2   -1    0    0  501    0  0.00000000000E+00 -0.00000000000E+00 -0.54044013456E+03  0.54044013457E+03  0.25500000000E-02 0.  1.
    5000001    1    1    2    0    0  0.16809803353E+03 -0.19041917165E+03 -0.20641863784E+03  0.37945890931E+03  0.19200000000E+03 0.  0.
   -5000001    1    1    2    0    0 -0.16809803353E+03  0.19041917165E+03 -0.14509746977E+03  0.34990525224E+03  0.19200000000E+03 0.  0.
<mgrwt>
<rscale>  0 0.63906847E+03</rscale>
<asrwt>0</asrwt>
<pdfrwt beam="1">  1        2 0.77205733E-01 0.63906847E+03</pdfrwt>
<pdfrwt beam="2">  1       -2 0.26989147E-01 0.63906847E+03</pdfrwt>
<totfact> 0.76773301E+02</totfact>
</mgrwt>
</event>
<event>
 4    1  0.5847263E-005  0.9839611E+03  0.7818608E-02  0.9326313E-01
          2   -1    0    0  501    0  0.00000000000E+00  0.00000000000E+00  0.87186517783E+03  0.87186517784E+03  0.25500000000E-02 0.  1.
         -2   -1    0    0    0  501 -0.00000000000E+00 -0.00000000000E+00 -0.27761733064E+03  0.27761733065E+03  0.25500000000E-02 0. -1.
    5000001    1    1    2    0    0 -0.41239945942E+03 -0.95982620181E+02  0.10913529212E+03  0.47755679191E+03  0.19200000000E+03 0.  0.
   -5000001    1    1    2    0    0  0.41239945942E+03  0.95982620181E+02  0.48511255508E+03  0.67192571658E+03  0.19200000000E+03 0.  0.
<mgrwt>
<rscale>  0 0.98396114E+03</rscale>
<asrwt>0</asrwt>
<pdfrwt beam="1">  1        2 0.12455217E+00 0.98396114E+03</pdfrwt>
<pdfrwt beam="2">  1       -2 0.39659618E-01 0.98396114E+03</pdfrwt>
<totfact> 0.20362722E+02</totfact>
</mgrwt>
</event>
<event>
 4    1  0.5847263E-005  0.7286826E+03  0.7818608E-02  0.9669401E-01
         -2   -1    0    0    0  501 -0.00000000000E+00  0.00000000000E+00  0.19983429230E+03  0.19983429232E+03  0.25500000000E-02 0. -1.
          2   -1    0    0  501    0  0.00000000000E+00 -0.00000000000E+00 -0.66427328223E+03  0.66427328224E+03  0.25500000000E-02 0.  1.
    5000001    1    1    2    0    0  0.20680693494E+03  0.13625278438E+03 -0.11808935966E+02  0.31358791520E+03  0.19200000000E+03 0.  0.
   -5000001    1    1    2    0    0 -0.20680693494E+03 -0.13625278438E+03 -0.45263005396E+03  0.55051965936E+03  0.19200000000E+03 0.  0.
<mgrwt>
<rscale>  0 0.72868260E+03</rscale>
<asrwt>0</asrwt>
<pdfrwt beam="1">  1        2 0.94896182E-01 0.72868260E+03</pdfrwt>
<pdfrwt beam="2">  1       -2 0.28547756E-01 0.72868260E+03</pdfrwt>
<totfact> 0.54171983E+02</totfact>
</mgrwt>
</event>
<event>
 4    1  0.5847263E-005  0.6748249E+03  0.7818608E-02  0.9761281E-01
          2   -1    0    0  501    0  0.00000000000E+00  0.00000000000E+00  0.26664065569E+04  0.26664065569E+04  0.25500000000E-02 0.  1.
         -2   -1    0    0    0  501 -0.00000000000E+00 -0.00000000000E+00 -0.42696853648E+02  0.42696853724E+02  0.25500000000E-02 0. -1.
    5000001    1    1    2    0    0  0.22950196937E+03 -0.85164526984E+02  0.18361930602E+04  0.18623622379E+04  0.19200000000E+03 0.  0.
   -5000001    1    1    2    0    0 -0.22950196937E+03  0.85164526984E+02  0.78751664299E+03  0.84674117272E+03  0.19200000000E+03 0.  0.
<mgrwt>
<rscale>  0 0.67482493E+03</rscale>
<asrwt>0</asrwt>
<pdfrwt beam="1">  1        2 0.38091525E+00 0.67482493E+03</pdfrwt>
<pdfrwt beam="2">  1       -2 0.60995500E-02 0.67482493E+03</pdfrwt>
<totfact> 0.56766007E+02</totfact>
</mgrwt>
</event>
<event>
 4    1  0.5847263E-005  0.1162298E+04  0.7818608E-02  0.9146513E-01
          2   -1    0    0  501    0  0.00000000000E+00  0.00000000000E+00  0.12923899128E+04  0.12923899128E+04  0.25500000000E-02 0.  1.
         -2   -1    0    0    0  501 -0.00000000000E+00 -0.00000000000E+00 -0.26132513821E+03  0.26132513822E+03  0.25500000000E-02 0. -1.
    5000001    1    1    2    0    0 -0.40276815767E+03  0.28096660006E+03  0.18889840410E+03  0.56009912182E+03  0.19200000000E+03 0.  0.
   -5000001    1    1    2    0    0  0.40276815767E+03 -0.28096660006E+03  0.84216637045E+03  0.99361592918E+03  0.19200000000E+03 0.  0.
<mgrwt>
<rscale>  0 0.11622977E+04</rscale>
<asrwt>0</asrwt>
<pdfrwt beam="1">  1        2 0.18462713E+00 0.11622977E+04</pdfrwt>
<pdfrwt beam="2">  1       -2 0.37332163E-01 0.11622977E+04</pdfrwt>
<totfact> 0.12671868E+02</totfact>
</mgrwt>
</event>
<event>
 4    1  0.5847263E-005  0.1003248E+04  0.7818608E-02  0.9304990E-01
          2   -1    0    0  501    0  0.00000000000E+00  0.00000000000E+00  0.24149178460E+03  0.24149178461E+03  0.25500000000E-02 0.  1.
         -2   -1    0    0    0  501 -0.00000000000E+00 -0.00000000000E+00 -0.10419670086E+04  0.10419670086E+04  0.25500000000E-02 0. -1.
    5000001    1    1    2    0    0 -0.17605640326E+03  0.42785829404E+03 -0.36629635940E+03  0.62056071405E+03  0.19200000000E+03 0.  0.
   -5000001    1    1    2    0    0  0.17605640326E+03 -0.42785829404E+03 -0.43417886465E+03  0.66289807921E+03  0.19200000000E+03 0.  0.
<mgrwt>
<rscale>  0 0.10032477E+04</rscale>
<asrwt>0</asrwt>
<pdfrwt beam="1">  1        2 0.34498827E-01 0.10032477E+04</pdfrwt>
<pdfrwt beam="2">  1       -2 0.14885243E+00 0.10032477E+04</pdfrwt>
<totfact> 0.46397209E+01</totfact>
</mgrwt>
</event>
<event>
 4    1  0.5847263E-005  0.1045250E+04  0.7818608E-02  0.9260262E-01
          2   -1    0    0  501    0  0.00000000000E+00  0.00000000000E+00  0.30662466127E+04  0.30662466127E+04  0.25500000000E-02 0.  1.
         -2   -1    0    0    0  501 -0.00000000000E+00 -0.00000000000E+00 -0.89078578823E+02  0.89078578859E+02  0.25500000000E-02 0. -1.
    5000001    1    1    2    0    0  0.24320751512E+03  0.13975873787E+03  0.29021947018E+03  0.44696055877E+03  0.19200000000E+03 0.  0.
   -5000001    1    1    2    0    0 -0.24320751512E+03 -0.13975873787E+03  0.26869485637E+04  0.27083646328E+04  0.19200000000E+03 0.  0.
<mgrwt>
<rscale>  0 0.10452500E+04</rscale>
<asrwt>0</asrwt>
<pdfrwt beam="1">  1        2 0.43803530E+00 0.10452500E+04</pdfrwt>
<pdfrwt beam="2">  1       -2 0.12725509E-01 0.10452500E+04</pdfrwt>
<totfact> 0.10169484E+02</totfact>
</mgrwt>
</event>
<event>
 4    1  0.5847263E-005  0.5310851E+03  0.7818608E-02  0.1005969E+00
          2   -1    0    0  501    0  0.00000000000E+00  0.00000000000E+00  0.36653601772E+02  0.36653601861E+02  0.25500000000E-02 0.  1.
         -2   -1    0    0    0  501 -0.00000000000E+00 -0.00000000000E+00 -0.19237628362E+04  0.19237628362E+04  0.25500000000E-02 0. -1.
    5000001    1    1    2    0    0  0.32451317211E+02 -0.17631852970E+03 -0.80023140957E+03  0.84224439491E+03  0.19200000000E+03 0.  0.
   -5000001    1    1    2    0    0 -0.32451317211E+02  0.17631852970E+03 -0.10868778248E+04  0.11181720431E+04  0.19200000000E+03 0.  0.
<mgrwt>
<rscale>  0 0.53108507E+03</rscale>
<asrwt>0</asrwt>
<pdfrwt beam="1">  1        2 0.52362300E-02 0.53108507E+03</pdfrwt>
<pdfrwt beam="2">  1       -2 0.27482320E+00 0.53108507E+03</pdfrwt>
<totfact> 0.74098160E+01</totfact>
</mgrwt>
</event>
<event>
 4    1  0.5847263E-005  0.5187957E+03  0.7818608E-02  0.1008986E+00
          2   -1    0    0  501    0  0.00000000000E+00  0.00000000000E+00  0.13387325364E+04  0.13387325364E+04  0.25500000000E-02 0.  1.
         -2   -1    0    0    0  501 -0.00000000000E+00 -0.00000000000E+00 -0.50261902376E+02  0.50261902441E+02  0.25500000000E-02 0. -1.
    5000001    1    1    2    0    0 -0.11405206054E+03  0.12843478562E+03  0.72543776513E+03  0.76982291324E+03  0.19200000000E+03 0.  0.
   -5000001    1    1    2    0    0  0.11405206054E+03 -0.12843478562E+03  0.56303286894E+03  0.61917152565E+03  0.19200000000E+03 0.  0.
<mgrwt>
<rscale>  0 0.51879570E+03</rscale>
<asrwt>0</asrwt>
<pdfrwt beam="1">  1        2 0.19124748E+00 0.51879570E+03</pdfrwt>
<pdfrwt beam="2">  1       -2 0.71802727E-02 0.51879570E+03</pdfrwt>
<totfact> 0.21103479E+03</totfact>
</mgrwt>
</event>
<event>
 4    1  0.5847263E-005  0.1005053E+04  0.7818608E-02  0.9303020E-01
          2   -1    0    0  501    0  0.00000000000E+00  0.00000000000E+00  0.16524082634E+04  0.16524082634E+04  0.25500000000E-02 0.  1.
         -2   -1    0    0    0  501 -0.00000000000E+00 -0.00000000000E+00 -0.15282710834E+03  0.15282710836E+03  0.25500000000E-02 0. -1.
    5000001    1    1    2    0    0 -0.28647013979E+03  0.30553338552E+03  0.38942440825E+03  0.60326707220E+03  0.19200000000E+03 0.  0.
   -5000001    1    1    2    0    0  0.28647013979E+03 -0.30553338552E+03  0.11101567468E+04  0.12019682996E+04  0.19200000000E+03 0.  0.
<mgrwt>
<rscale>  0 0.10050528E+04</rscale>
<asrwt>0</asrwt>
<pdfrwt beam="1">  1        2 0.23605834E+00 0.10050528E+04</pdfrwt>
<pdfrwt beam="2">  1       -2 0.21832443E-01 0.10050528E+04</pdfrwt>
<totfact> 0.22154342E+02</totfact>
</mgrwt>
</event>
<event>
 4    1  0.5847263E-005  0.6620238E+03  0.7818608E-02  0.9784475E-01
         -2   -1    0    0    0  501 -0.00000000000E+00  0.00000000000E+00  0.17630644269E+03  0.17630644271E+03  0.25500000000E-02 0. -1.
          2   -1    0    0  501    0  0.00000000000E+00 -0.00000000000E+00 -0.62146842550E+03  0.62146842551E+03  0.25500000000E-02 0.  1.
    5000001    1    1    2    0    0  0.65502278956E+02 -0.25935884087E+03 -0.18176305994E+03  0.37611084383E+03  0.19200000000E+03 0.  0.
   -5000001    1    1    2    0    0 -0.65502278956E+02  0.25935884087E+03 -0.26339892287E+03  0.42166402438E+03  0.19200000000E+03 0.  0.
<mgrwt>
<rscale>  0 0.66202383E+03</rscale>
<asrwt>0</asrwt>
<pdfrwt beam="1">  1        2 0.88781203E-01 0.66202383E+03</pdfrwt>
<pdfrwt beam="2">  1       -2 0.25186635E-01 0.66202383E+03</pdfrwt>
<totfact> 0.73833091E+02</totfact>
</mgrwt>
</event>
<event>
 4    1  0.5847263E-005  0.4169837E+03  0.7818608E-02  0.1038053E+00
         -2   -1    0    0    0  501 -0.00000000000E+00  0.00000000000E+00  0.20901004877E+03  0.20901004879E+03  0.25500000000E-02 0. -1.
          2   -1    0    0  501    0  0.00000000000E+00 -0.00000000000E+00 -0.20797489416E+03  0.20797489418E+03  0.25500000000E-02 0.  1.
    5000001    1    1    2    0    0  0.74547207254E+01 -0.43346606627E+02 -0.67822530924E+02  0.20832281888E+03  0.19200000000E+03 0.  0.
   -5000001    1    1    2    0    0 -0.74547207254E+01  0.43346606627E+02  0.68857685533E+02  0.20866212408E+03  0.19200000000E+03 0.  0.
<mgrwt>
<rscale>  0 0.41698366E+03</rscale>
<asrwt>0</asrwt>
<pdfrwt beam="1">  1        2 0.29710699E-01 0.41698366E+03</pdfrwt>
<pdfrwt beam="2">  1       -2 0.29858579E-01 0.41698366E+03</pdfrwt>
<totfact> 0.18434732E+03</totfact>
</mgrwt>
</event>
<event>
 4    1  0.5847263E-005  0.7288360E+03  0.7818608E-02  0.9669151E-01
          2   -1    0    0  501    0  0.00000000000E+00  0.00000000000E+00  0.90244020627E+03  0.90244020628E+03  0.25500000000E-02 0.  1.
         -2   -1    0    0    0  501 -0.00000000000E+00 -0.00000000000E+00 -0.14715710771E+03  0.14715710773E+03  0.25500000000E-02 0. -1.
    5000001    1    1    2    0    0 -0.23462116141E+03  0.17289100854E+03  0.52866754781E+03  0.63347593982E+03  0.19200000000E+03 0.  0.
   -5000001    1    1    2    0    0  0.23462116141E+03 -0.17289100854E+03  0.22661555075E+03  0.41612137419E+03  0.19200000000E+03 0.  0.
<mgrwt>
<rscale>  0 0.72883603E+03</rscale>
<asrwt>0</asrwt>
<pdfrwt beam="1">  1        2 0.12892003E+00 0.72883603E+03</pdfrwt>
<pdfrwt beam="2">  1       -2 0.21022444E-01 0.72883603E+03</pdfrwt>
<totfact> 0.63539152E+02</totfact>
</mgrwt>
</event>
<event>
 4    1  0.5847263E-005  0.6722859E+03  0.7818608E-02  0.9765837E-01
         -2   -1    0    0    0  501 -0.00000000000E+00  0.00000000000E+00  0.11633422539E+04  0.11633422539E+04  0.25500000000E-02 0. -1.
          2   -1    0    0  501    0  0.00000000000E+00 -0.00000000000E+00 -0.97127106465E+02  0.97127106498E+02  0.25500000000E-02 0.  1.
    5000001    1    1    2    0    0  0.21436552394E+03 -0.14488942661E+03  0.35344409248E+03  0.47825960555E+03  0.19200000000E+03 0.  0.
   -5000001    1    1    2    0    0 -0.21436552394E+03  0.14488942661E+03  0.71277105499E+03  0.78220975488E+03  0.19200000000E+03 0.  0.
<mgrwt>
<rscale>  0 0.67228585E+03</rscale>
<asrwt>0</asrwt>
<pdfrwt beam="1">  1        2 0.13875301E-01 0.67228585E+03</pdfrwt>
<pdfrwt beam="2">  1       -2 0.16619175E+00 0.67228585E+03</pdfrwt>
<totfact> 0.10175018E+02</totfact>
</mgrwt>
</event>
<event>
 4    1  0.5847263E-005  0.4860089E+03  0.7818608E-02  0.1017497E+00
         -2   -1    0    0    0  501 -0.00000000000E+00  0.00000000000E+00  0.23692014888E+02  0.23692015025E+02  0.25500000000E-02 0. -1.
          2   -1    0    0  501    0  0.00000000000E+00 -0.00000000000E+00 -0.24924499288E+04  0.24924499288E+04  0.25500000000E-02 0.  1.
    5000001    1    1    2    0    0  0.32299808615E+02 -0.14491540931E+03 -0.11723810741E+04  0.11972406343E+04  0.19200000000E+03 0.  0.
   -5000001    1    1    2    0    0 -0.32299808615E+02  0.14491540931E+03 -0.12963768398E+04  0.13189013095E+04  0.19200000000E+03 0.  0.
<mgrwt>
<rscale>  0 0.48600889E+03</rscale>
<asrwt>0</asrwt>
<pdfrwt beam="1">  1        2 0.35606411E+00 0.48600889E+03</pdfrwt>
<pdfrwt beam="2">  1       -2 0.33845751E-02 0.48600889E+03</pdfrwt>
<totfact> 0.17575597E+03</totfact>
</mgrwt>
</event>
<event>
 4    1  0.5847263E-005  0.1226748E+04  0.7818608E-02  0.9089761E-01
         -2   -1    0    0    0  501 -0.00000000000E+00  0.00000000000E+00  0.12732635563E+03  0.12732635565E+03  0.25500000000E-02 0. -1.
          2   -1    0    0  501    0  0.00000000000E+00 -0.00000000000E+00 -0.29548303037E+04  0.29548303037E+04  0.25500000000E-02 0.  1.
    5000001    1    1    2    0    0  0.31394695467E+03  0.49037926797E+03 -0.14593417016E+04  0.15829013610E+04  0.19200000000E+03 0.  0.
   -5000001    1    1    2    0    0 -0.31394695467E+03 -0.49037926797E+03 -0.13681622465E+04  0.14992552984E+04  0.19200000000E+03 0.  0.
<mgrwt>
<rscale>  0 0.12267482E+04</rscale>
<asrwt>0</asrwt>
<pdfrwt beam="1">  1        2 0.42211857E+00 0.12267482E+04</pdfrwt>
<pdfrwt beam="2">  1       -2 0.18189481E-01 0.12267482E+04</pdfrwt>
<totfact> 0.62768679E+01</totfact>
</mgrwt>
</event>
<event>
 4    1  0.5847263E-005  0.9307867E+03  0.7818608E-02  0.9387894E-01
          2   -1    0    0  501    0  0.00000000000E+00  0.00000000000E+00  0.39334973123E+03  0.39334973124E+03  0.25500000000E-02 0.  1.
         -2   -1    0    0    0  501 -0.00000000000E+00 -0.00000000000E+00 -0.55063202862E+03  0.55063202862E+03  0.25500000000E-02 0. -1.
    5000001    1    1    2    0    0 -0.15626836551E+03  0.39163214317E+03 -0.34070174584E+02  0.46456465042E+03  0.19200000000E+03 0.  0.
   -5000001    1    1    2    0    0  0.15626836551E+03 -0.39163214317E+03 -0.12321212280E+03  0.47941710944E+03  0.19200000000E+03 0.  0.
<mgrwt>
<rscale>  0 0.93078668E+03</rscale>
<asrwt>0</asrwt>
<pdfrwt beam="1">  1        2 0.56192819E-01 0.93078668E+03</pdfrwt>
<pdfrwt beam="2">  1       -2 0.78661718E-01 0.93078668E+03</pdfrwt>
<totfact> 0.12684878E+02</totfact>
</mgrwt>
</event>
<event>
 4    1  0.5847263E-005  0.5049751E+03  0.7818608E-02  0.1012488E+00
          2   -1    0    0  501    0  0.00000000000E+00  0.00000000000E+00  0.22017708982E+03  0.22017708984E+03  0.25500000000E-02 0.  1.
         -2   -1    0    0    0  501 -0.00000000000E+00 -0.00000000000E+00 -0.28953952633E+03  0.28953952634E+03  0.25500000000E-02 0. -1.
    5000001    1    1    2    0    0 -0.31263191492E+02  0.16016862545E+03 -0.18575378272E+02  0.25266661908E+03  0.19200000000E+03 0.  0.
   -5000001    1    1    2    0    0  0.31263191492E+02 -0.16016862545E+03 -0.50787058236E+02  0.25704999709E+03  0.19200000000E+03 0.  0.
<mgrwt>
<rscale>  0 0.50497513E+03</rscale>
<asrwt>0</asrwt>
<pdfrwt beam="1">  1        2 0.31453870E-01 0.50497513E+03</pdfrwt>
<pdfrwt beam="2">  1       -2 0.41362789E-01 0.50497513E+03</pdfrwt>
<totfact> 0.93628117E+02</totfact>
</mgrwt>
</event>
<event>
 4    1  0.5847263E-005  0.5655082E+03  0.7818608E-02  0.9979668E-01
          2   -1    0    0  501    0  0.00000000000E+00  0.00000000000E+00  0.31999196811E+03  0.31999196812E+03  0.25500000000E-02 0. -1.
         -2   -1    0    0    0  501 -0.00000000000E+00 -0.00000000000E+00 -0.24984961116E+03  0.24984961118E+03  0.25500000000E-02 0.  1.
    5000001    1    1    2    0    0  0.30096751575E+02 -0.17040367441E+03 -0.80448667816E+02  0.27070133886E+03  0.19200000000E+03 0.  0.
   -5000001    1    1    2    0    0 -0.30096751575E+02  0.17040367441E+03  0.15059102476E+03  0.29914024044E+03  0.19200000000E+03 0.  0.
<mgrwt>
<rscale>  0 0.56550816E+03</rscale>
<asrwt>0</asrwt>
<pdfrwt beam="1">  1        2 0.45713139E-01 0.56550816E+03</pdfrwt>
<pdfrwt beam="2">  1       -2 0.35692801E-01 0.56550816E+03</pdfrwt>
<totfact> 0.82199546E+02</totfact>
</mgrwt>
</event>
<event>
 4    1  0.5847263E-005  0.4844678E+03  0.7818608E-02  0.1017914E+00
          2   -1    0    0  501    0  0.00000000000E+00  0.00000000000E+00  0.35707532020E+03  0.35707532021E+03  0.25500000000E-02 0.  1.
         -2   -1    0    0    0  501 -0.00000000000E+00 -0.00000000000E+00 -0.16432741953E+03  0.16432741955E+03  0.25500000000E-02 0. -1.
    5000001    1    1    2    0    0  0.10327758203E+03 -0.10487282892E+03  0.83250164692E+02  0.25584987613E+03  0.19200000000E+03 0.  0.
   -5000001    1    1    2    0    0 -0.10327758203E+03  0.10487282892E+03  0.10949773598E+03  0.26555286363E+03  0.19200000000E+03 0.  0.
<mgrwt>
<rscale>  0 0.48446782E+03</rscale>
<asrwt>0</asrwt>
<pdfrwt beam="1">  1        2 0.51010760E-01 0.48446782E+03</pdfrwt>
<pdfrwt beam="2">  1       -2 0.23475346E-01 0.48446782E+03</pdfrwt>
<totfact> 0.15703208E+03</totfact>
</mgrwt>
</event>
<event>
 4    1  0.5847263E-005  0.5991089E+03  0.7818608E-02  0.9907256E-01
         -2   -1    0    0    0  501 -0.00000000000E+00  0.00000000000E+00  0.47966336347E+02  0.47966336415E+02  0.25500000000E-02 0. -1.
          2   -1    0    0  501    0  0.00000000000E+00 -0.00000000000E+00 -0.18707468893E+04  0.18707468893E+04  0.25500000000E-02 0.  1.
    5000001    1    1    2    0    0  0.12697284654E+03 -0.18711695423E+03 -0.10447518975E+04  0.10860503606E+04  0.19200000000E+03 0.  0.
   -5000001    1    1    2    0    0 -0.12697284654E+03  0.18711695423E+03 -0.77802865537E+03  0.83266286509E+03  0.19200000000E+03 0.  0.
<mgrwt>
<rscale>  0 0.59910892E+03</rscale>
<asrwt>0</asrwt>
<pdfrwt beam="1">  1        2 0.26724951E+00 0.59910892E+03</pdfrwt>
<pdfrwt beam="2">  1       -2 0.68523349E-02 0.59910892E+03</pdfrwt>
<totfact> 0.12060556E+03</totfact>
</mgrwt>
</event>
<event>
 4    1  0.5847263E-005  0.4603864E+03  0.7818608E-02  0.1024669E+00
          2   -1    0    0  501    0  0.00000000000E+00  0.00000000000E+00  0.27347022432E+04  0.27347022432E+04  0.25500000000E-02 0.  1.
         -2   -1    0    0    0  501 -0.00000000000E+00 -0.00000000000E+00 -0.19376478747E+02  0.19376478915E+02  0.25500000000E-02 0. -1.
    5000001    1    1    2    0    0 -0.57406679117E+02 -0.10959134752E+03  0.15288712476E+04  0.15458386339E+04  0.19200000000E+03 0.  0.
   -5000001    1    1    2    0    0  0.57406679117E+02  0.10959134752E+03  0.11864545168E+04  0.12082400882E+04  0.19200000000E+03 0.  0.
<mgrwt>
<rscale>  0 0.46038636E+03</rscale>
<asrwt>0</asrwt>
<pdfrwt beam="1">  1        2 0.39067139E+00 0.46038636E+03</pdfrwt>
<pdfrwt beam="2">  1       -2 0.27680709E-02 0.46038636E+03</pdfrwt>
<totfact> 0.17910328E+03</totfact>
</mgrwt>
</event>
<event>
 4    1  0.5847263E-005  0.5055878E+03  0.7818608E-02  0.1012331E+00
          2   -1    0    0  501    0  0.00000000000E+00  0.00000000000E+00  0.17223525661E+03  0.17223525663E+03  0.25500000000E-02 0.  1.
         -2   -1    0    0    0  501 -0.00000000000E+00 -0.00000000000E+00 -0.37103177676E+03  0.37103177677E+03  0.25500000000E-02 0. -1.
    5000001    1    1    2    0    0 -0.67906316302E+02  0.57500395109E+02 -0.24799077926E+03  0.32600765303E+03  0.19200000000E+03 0.  0.
   -5000001    1    1    2    0    0  0.67906316302E+02 -0.57500395109E+02  0.49194259115E+02  0.21725938038E+03  0.19200000000E+03 0.  0.
<mgrwt>
<rscale>  0 0.50558779E+03</rscale>
<asrwt>0</asrwt>
<pdfrwt beam="1">  1        2 0.24605037E-01 0.50558779E+03</pdfrwt>
<pdfrwt beam="2">  1       -2 0.53004539E-01 0.50558779E+03</pdfrwt>
<totfact> 0.75296451E+02</totfact>
</mgrwt>
</event>
<event>
 4    1  0.5847263E-005  0.5627302E+03  0.7818608E-02  0.9985896E-01
          2   -1    0    0  501    0  0.00000000000E+00  0.00000000000E+00  0.37644142963E+03  0.37644142964E+03  0.25500000000E-02 0. -1.
         -2   -1    0    0    0  501 -0.00000000000E+00 -0.00000000000E+00 -0.21030184356E+03  0.21030184358E+03  0.25500000000E-02 0.  1.
    5000001    1    1    2    0    0 -0.15166686727E+03 -0.40767000109E+02 -0.55403773833E+02  0.25416208427E+03  0.19200000000E+03 0.  0.
   -5000001    1    1    2    0    0  0.15166686727E+03  0.40767000109E+02  0.22154335990E+03  0.33258118895E+03  0.19200000000E+03 0.  0.
<mgrwt>
<rscale>  0 0.56273023E+03</rscale>
<asrwt>0</asrwt>
<pdfrwt beam="1">  1        2 0.53777347E-01 0.56273023E+03</pdfrwt>
<pdfrwt beam="2">  1       -2 0.30043121E-01 0.56273023E+03</pdfrwt>
<totfact> 0.94866254E+02</totfact>
</mgrwt>
</event>
<event>
 4    1  0.5847263E-005  0.9959020E+03  0.7818608E-02  0.9313051E-01
          2   -1    0    0  501    0  0.00000000000E+00  0.00000000000E+00  0.31585401658E+03  0.31585401659E+03  0.25500000000E-02 0.  1.
         -2   -1    0    0    0  501 -0.00000000000E+00 -0.00000000000E+00 -0.78503093620E+03  0.78503093621E+03  0.25500000000E-02 0. -1.
    5000001    1    1    2    0    0  0.35268026929E+03  0.17315039433E+03 -0.49786931291E+03  0.66264793378E+03  0.19200000000E+03 0.  0.
   -5000001    1    1    2    0    0 -0.35268026929E+03 -0.17315039433E+03  0.28692393294E+02  0.43823701902E+03  0.19200000000E+03 0.  0.
<mgrwt>
<rscale>  0 0.99590195E+03</rscale>
<asrwt>0</asrwt>
<pdfrwt beam="1">  1        2 0.45122003E-01 0.99590195E+03</pdfrwt>
<pdfrwt beam="2">  1       -2 0.11214728E+00 0.99590195E+03</pdfrwt>
<totfact> 0.70516681E+01</totfact>
</mgrwt>
</event>
<event>
 4    1  0.5847263E-005  0.6045561E+03  0.7818608E-02  0.9895998E-01
         -2   -1    0    0    0  501 -0.00000000000E+00  0.00000000000E+00  0.26984475565E+02  0.26984475686E+02  0.25500000000E-02 0. -1.
          2   -1    0    0  501    0  0.00000000000E+00 -0.00000000000E+00 -0.33860956384E+04  0.33860956384E+04  0.25500000000E-02 0.  1.
    5000001    1    1    2    0    0  0.13491236908E+03  0.18441596054E+03 -0.19501570910E+04  0.19728627103E+04  0.19200000000E+03 0.  0.
   -5000001    1    1    2    0    0 -0.13491236908E+03 -0.18441596054E+03 -0.14089540718E+04  0.14402174038E+04  0.19200000000E+03 0.  0.
<mgrwt>
<rscale>  0 0.60455609E+03</rscale>
<asrwt>0</asrwt>
<pdfrwt beam="1">  1        2 0.48372768E+00 0.60455609E+03</pdfrwt>
<pdfrwt beam="2">  1       -2 0.38549273E-02 0.60455609E+03</pdfrwt>
<totfact> 0.46913732E+02</totfact>
</mgrwt>
</event>
<event>
 4    1  0.5847263E-005  0.5534597E+03  0.7818608E-02  0.1000696E+00
         -2   -1    0    0    0  501 -0.00000000000E+00  0.00000000000E+00  0.35554195166E+02  0.35554195258E+02  0.25500000000E-02 0. -1.
          2   -1    0    0  501    0  0.00000000000E+00 -0.00000000000E+00 -0.21538786693E+04  0.21538786693E+04  0.25500000000E-02 0.  1.
    5000001    1    1    2    0    0 -0.12968614516E+03 -0.14621812348E+03 -0.90507554921E+03  0.94563417115E+03  0.19200000000E+03 0.  0.
   -5000001    1    1    2    0    0  0.12968614516E+03  0.14621812348E+03 -0.12132489249E+04  0.12437986934E+04  0.19200000000E+03 0.  0.
<mgrwt>
<rscale>  0 0.55345975E+03</rscale>
<asrwt>0</asrwt>
<pdfrwt beam="1">  1        2 0.30769687E+00 0.55345975E+03</pdfrwt>
<pdfrwt beam="2">  1       -2 0.50791721E-02 0.55345975E+03</pdfrwt>
<totfact> 0.13920680E+03</totfact>
</mgrwt>
</event>
<event>
 4    1  0.5847263E-005  0.1178654E+04  0.7818608E-02  0.9131749E-01
          2   -1    0    0  501    0  0.00000000000E+00  0.00000000000E+00  0.34528632708E+03  0.34528632709E+03  0.25500000000E-02 0.  1.
         -2   -1    0    0    0  501 -0.00000000000E+00 -0.00000000000E+00 -0.10058498295E+04  0.10058498295E+04  0.25500000000E-02 0. -1.
    5000001    1    1    2    0    0 -0.85876166786E+02 -0.45357217862E+03  0.27368045847E+02  0.50071493604E+03  0.19200000000E+03 0.  0.
   -5000001    1    1    2    0    0  0.85876166786E+02  0.45357217862E+03 -0.68793154822E+03  0.85042122050E+03  0.19200000000E+03 0.  0.
<mgrwt>
<rscale>  0 0.11786538E+04</rscale>
<asrwt>0</asrwt>
<pdfrwt beam="1">  1        2 0.49326619E-01 0.11786538E+04</pdfrwt>
<pdfrwt beam="2">  1       -2 0.14369283E+00 0.11786538E+04</pdfrwt>
<totfact> 0.33808672E+01</totfact>
</mgrwt>
</event>
<event>
 4    1  0.5847263E-005  0.4858671E+03  0.7818608E-02  0.1017535E+00
         -2   -1    0    0    0  501 -0.00000000000E+00  0.00000000000E+00  0.84547625563E+03  0.84547625564E+03  0.25500000000E-02 0. -1.
          2   -1    0    0  501    0  0.00000000000E+00 -0.00000000000E+00 -0.69802914559E+02  0.69802914606E+02  0.25500000000E-02 0.  1.
    5000001    1    1    2    0    0  0.12587163545E+03  0.62266191183E+02  0.48073636432E+03  0.53636946143E+03  0.19200000000E+03 0.  0.
   -5000001    1    1    2    0    0 -0.12587163545E+03 -0.62266191183E+02  0.29493697675E+03  0.37890970881E+03  0.19200000000E+03 0.  0.
<mgrwt>
<rscale>  0 0.48586709E+03</rscale>
<asrwt>0</asrwt>
<pdfrwt beam="1">  1        2 0.99718450E-02 0.48586709E+03</pdfrwt>
<pdfrwt beam="2">  1       -2 0.12078232E+00 0.48586709E+03</pdfrwt>
<totfact> 0.35277728E+02</totfact>
</mgrwt>
</event>
<event>
 4    1  0.5847263E-005  0.1163639E+04  0.7818608E-02  0.9145292E-01
          2   -1    0    0  501    0  0.00000000000E+00  0.00000000000E+00  0.22365954202E+04  0.22365954202E+04  0.25500000000E-02 0.  1.
         -2   -1    0    0    0  501 -0.00000000000E+00 -0.00000000000E+00 -0.15135245843E+03  0.15135245845E+03  0.25500000000E-02 0. -1.
    5000001    1    1    2    0    0  0.37302298286E+03 -0.30403339304E+03  0.49941427021E+03  0.71962564095E+03  0.19200000000E+03 0.  0.
   -5000001    1    1    2    0    0 -0.37302298286E+03  0.30403339304E+03  0.15858286916E+04  0.16683222377E+04  0.19200000000E+03 0.  0.
<mgrwt>
<rscale>  0 0.11636395E+04</rscale>
<asrwt>0</asrwt>
<pdfrwt beam="1">  1        2 0.31951362E+00 0.11636395E+04</pdfrwt>
<pdfrwt beam="2">  1       -2 0.21621780E-01 0.11636395E+04</pdfrwt>
<totfact> 0.11177458E+02</totfact>
</mgrwt>
</event>
<event>
 4    1  0.5847263E-005  0.5719055E+03  0.7818608E-02  0.9965471E-01
          2   -1    0    0  501    0  0.00000000000E+00  0.00000000000E+00  0.25048534299E+04  0.25048534299E+04  0.25500000000E-02 0.  1.
         -2   -1    0    0    0  501 -0.00000000000E+00 -0.00000000000E+00 -0.32644216739E+02  0.32644216839E+02  0.25500000000E-02 0. -1.
    5000001    1    1    2    0    0 -0.13006087698E+03  0.12358344347E+03  0.17364401933E+04  0.17562110478E+04  0.19200000000E+03 0.  0.
   -5000001    1    1    2    0    0  0.13006087698E+03 -0.12358344347E+03  0.73576901985E+03  0.78128659901E+03  0.19200000000E+03 0.  0.
<mgrwt>
<rscale>  0 0.57190551E+03</rscale>
<asrwt>0</asrwt>
<pdfrwt beam="1">  1        2 0.35783620E+00 0.57190551E+03</pdfrwt>
<pdfrwt beam="2">  1       -2 0.46634596E-02 0.57190551E+03</pdfrwt>
<totfact> 0.10540038E+03</totfact>
</mgrwt>
</event>
<event>
 4    1  0.5847263E-005  0.5499709E+03  0.7818608E-02  0.1001501E+00
         -2   -1    0    0    0  501 -0.00000000000E+00  0.00000000000E+00  0.66184222688E+02  0.66184222737E+02  0.25500000000E-02 0. -1.
          2   -1    0    0  501    0  0.00000000000E+00 -0.00000000000E+00 -0.11425231829E+04  0.11425231829E+04  0.25500000000E-02 0.  1.
    5000001    1    1    2    0    0 -0.12912739394E+03  0.64670009707E+02 -0.24415377761E+03  0.34253636470E+03  0.19200000000E+03 0.  0.
   -5000001    1    1    2    0    0  0.12912739394E+03 -0.64670009707E+02 -0.83218518260E+03  0.86617104094E+03  0.19200000000E+03 0.  0.
<mgrwt>
<rscale>  0 0.54997094E+03</rscale>
<asrwt>0</asrwt>
<pdfrwt beam="1">  1        2 0.16321759E+00 0.54997094E+03</pdfrwt>
<pdfrwt beam="2">  1       -2 0.94548897E-02 0.54997094E+03</pdfrwt>
<totfact> 0.17454007E+03</totfact>
</mgrwt>
</event>
<event>
 4    1  0.5847263E-005  0.5578792E+03  0.7818608E-02  0.9996865E-01
         -2   -1    0    0    0  501 -0.00000000000E+00  0.00000000000E+00  0.37664550544E+02  0.37664550630E+02  0.25500000000E-02 0. -1.
          2   -1    0    0  501    0  0.00000000000E+00 -0.00000000000E+00 -0.20657963524E+04  0.20657963524E+04  0.25500000000E-02 0.  1.
    5000001    1    1    2    0    0 -0.44381138280E+02 -0.19234001441E+03 -0.11817951986E+04  0.12134530309E+04  0.19200000000E+03 0.  0.
   -5000001    1    1    2    0    0  0.44381138280E+02  0.19234001441E+03 -0.84633660321E+03  0.89000787217E+03  0.19200000000E+03 0.  0.
<mgrwt>
<rscale>  0 0.55787917E+03</rscale>
<asrwt>0</asrwt>
<pdfrwt beam="1">  1        2 0.29511369E+00 0.55787917E+03</pdfrwt>
<pdfrwt beam="2">  1       -2 0.53806514E-02 0.55787917E+03</pdfrwt>
<totfact> 0.14087675E+03</totfact>
</mgrwt>
</event>
<event>
 4    1  0.5847263E-005  0.4949789E+03  0.7818608E-02  0.1015098E+00
         -2   -1    0    0    0  501 -0.00000000000E+00  0.00000000000E+00  0.97739087398E+02  0.97739087431E+02  0.25500000000E-02 0. -1.
          2   -1    0    0  501    0  0.00000000000E+00 -0.00000000000E+00 -0.62667887556E+03  0.62667887557E+03  0.25500000000E-02 0.  1.
    5000001    1    1    2    0    0  0.13458216021E+03  0.42354038544E+02 -0.36243699979E+03  0.43374047683E+03  0.19200000000E+03 0.  0.
   -5000001    1    1    2    0    0 -0.13458216021E+03 -0.42354038544E+02 -0.16650278838E+03  0.29067748617E+03  0.19200000000E+03 0.  0.
<mgrwt>
<rscale>  0 0.49497887E+03</rscale>
<asrwt>0</asrwt>
<pdfrwt beam="1">  1        2 0.89525552E-01 0.49497887E+03</pdfrwt>
<pdfrwt beam="2">  1       -2 0.13962727E-01 0.49497887E+03</pdfrwt>
<totfact> 0.20289798E+03</totfact>
</mgrwt>
</event>
<event>
 4    1  0.5847263E-005  0.5022185E+03  0.7818608E-02  0.1013201E+00
          2   -1    0    0  501    0  0.00000000000E+00  0.00000000000E+00  0.20647535578E+03  0.20647535579E+03  0.25500000000E-02 0.  1.
         -2   -1    0    0    0  501 -0.00000000000E+00 -0.00000000000E+00 -0.30539169385E+03  0.30539169386E+03  0.25500000000E-02 0. -1.
    5000001    1    1    2    0    0  0.97307702117E+02 -0.11216198047E+03  0.16142661454E+02  0.24325641672E+03  0.19200000000E+03 0.  0.
   -5000001    1    1    2    0    0 -0.97307702117E+02  0.11216198047E+03 -0.11505899953E+03  0.26861063294E+03  0.19200000000E+03 0.  0.
<mgrwt>
<rscale>  0 0.50221851E+03</rscale>
<asrwt>0</asrwt>
<pdfrwt beam="1">  1        2 0.29496480E-01 0.50221851E+03</pdfrwt>
<pdfrwt beam="2">  1       -2 0.43627385E-01 0.50221851E+03</pdfrwt>
<totfact> 0.90634145E+02</totfact>
</mgrwt>
</event>
<event>
 4    1  0.5847263E-005  0.8050976E+03  0.7818608E-02  0.9552668E-01
          2   -1    0    0  501    0  0.00000000000E+00  0.00000000000E+00  0.12570727949E+04  0.12570727949E+04  0.25500000000E-02 0.  1.
         -2   -1    0    0    0  501 -0.00000000000E+00 -0.00000000000E+00 -0.12890703799E+03  0.12890703802E+03  0.25500000000E-02 0. -1.
    5000001    1    1    2    0    0 -0.34991318983E+03 -0.52354618208E+02  0.56213210826E+03  0.69140202024E+03  0.19200000000E+03 0.  0.
   -5000001    1    1    2    0    0  0.34991318983E+03  0.52354618208E+02  0.56603364867E+03  0.69457781270E+03  0.19200000000E+03 0.  0.
<mgrwt>
<rscale>  0 0.80509759E+03</rscale>
<asrwt>0</asrwt>
<pdfrwt beam="1">  1        2 0.17958183E+00 0.80509759E+03</pdfrwt>
<pdfrwt beam="2">  1       -2 0.18415291E-01 0.80509759E+03</pdfrwt>
<totfact> 0.49094961E+02</totfact>
</mgrwt>
</event>
<event>
 4    1  0.5847263E-005  0.7013947E+03  0.7818608E-02  0.9714850E-01
          2   -1    0    0  501    0  0.00000000000E+00  0.00000000000E+00  0.21587264627E+04  0.21587264627E+04  0.25500000000E-02 0.  1.
         -2   -1    0    0    0  501 -0.00000000000E+00 -0.00000000000E+00 -0.56972772772E+02  0.56972772829E+02  0.25500000000E-02 0. -1.
    5000001    1    1    2    0    0 -0.21089107839E+03  0.17505212433E+03  0.71946366851E+03  0.79347984441E+03  0.19200000000E+03 0.  0.
   -5000001    1    1    2    0    0  0.21089107839E+03 -0.17505212433E+03  0.13822900214E+04  0.14222193911E+04  0.19200000000E+03 0.  0.
<mgrwt>
<rscale>  0 0.70139470E+03</rscale>
<asrwt>0</asrwt>
<pdfrwt beam="1">  1        2 0.30838946E+00 0.70139470E+03</pdfrwt>
<pdfrwt beam="2">  1       -2 0.81389683E-02 0.70139470E+03</pdfrwt>
<totfact> 0.65299064E+02</totfact>
</mgrwt>
</event>
<event>
 4    1  0.5847263E-005  0.6481762E+03  0.7818608E-02  0.9810208E-01
         -2   -1    0    0    0  501 -0.00000000000E+00  0.00000000000E+00  0.83800572517E+03  0.83800572517E+03  0.25500000000E-02 0. -1.
          2   -1    0    0  501    0  0.00000000000E+00 -0.00000000000E+00 -0.12533695343E+03  0.12533695346E+03  0.25500000000E-02 0.  1.
    5000001    1    1    2    0    0  0.23256289942E+03  0.73828079550E+02  0.21824237884E+03  0.37951261302E+03  0.19200000000E+03 0.  0.
   -5000001    1    1    2    0    0 -0.23256289942E+03 -0.73828079550E+02  0.49442639290E+03  0.58383006561E+03  0.19200000000E+03 0.  0.
<mgrwt>
<rscale>  0 0.64817616E+03</rscale>
<asrwt>0</asrwt>
<pdfrwt beam="1">  1        2 0.17905280E-01 0.64817616E+03</pdfrwt>
<pdfrwt beam="2">  1       -2 0.11971510E+00 0.64817616E+03</pdfrwt>
<totfact> 0.17516367E+02</totfact>
</mgrwt>
</event>
<event>
 4    1  0.5847263E-005  0.7165810E+03  0.7818608E-02  0.9689289E-01
          2   -1    0    0  501    0  0.00000000000E+00  0.00000000000E+00  0.23635374394E+03  0.23635374395E+03  0.25500000000E-02 0.  1.
         -2   -1    0    0    0  501 -0.00000000000E+00 -0.00000000000E+00 -0.54313537027E+03  0.54313537028E+03  0.25500000000E-02 0. -1.
    5000001    1    1    2    0    0 -0.28272510630E+03  0.10346828467E+03 -0.12132580806E+03  0.37712481139E+03  0.19200000000E+03 0.  0.
   -5000001    1    1    2    0    0  0.28272510630E+03 -0.10346828467E+03 -0.18545581827E+03  0.40236430283E+03  0.19200000000E+03 0.  0.
<mgrwt>
<rscale>  0 0.71658099E+03</rscale>
<asrwt>0</asrwt>
<pdfrwt beam="1">  1        2 0.33764821E-01 0.71658099E+03</pdfrwt>
<pdfrwt beam="2">  1       -2 0.77590767E-01 0.71658099E+03</pdfrwt>
<totfact> 0.23268129E+02</totfact>
</mgrwt>
</event>
<event>
 4    1  0.5847263E-005  0.7500238E+03  0.7818608E-02  0.9635313E-01
         -2   -1    0    0    0  501 -0.00000000000E+00  0.00000000000E+00  0.32514986516E+03  0.32514986517E+03  0.25500000000E-02 0.  1.
          2   -1    0    0  501    0  0.00000000000E+00 -0.00000000000E+00 -0.43252033810E+03  0.43252033811E+03  0.25500000000E-02 0. -1.
    5000001    1    1    2    0    0 -0.27308821112E+03 -0.17077521328E+03 -0.59086246827E+02  0.37960048615E+03  0.19200000000E+03 0.  0.
   -5000001    1    1    2    0    0  0.27308821112E+03  0.17077521328E+03 -0.48284226116E+02  0.37806971713E+03  0.19200000000E+03 0.  0.
<mgrwt>
<rscale>  0 0.75002381E+03</rscale>
<asrwt>0</asrwt>
<pdfrwt beam="1">  1        2 0.61788619E-01 0.75002381E+03</pdfrwt>
<pdfrwt beam="2">  1       -2 0.46449981E-01 0.75002381E+03</pdfrwt>
<totfact> 0.35043433E+02</totfact>
</mgrwt>
</event>
<event>
 4    1  0.5847263E-005  0.5796049E+03  0.7818608E-02  0.9948647E-01
          2   -1    0    0  501    0  0.00000000000E+00  0.00000000000E+00  0.16427287639E+04  0.16427287639E+04  0.25500000000E-02 0.  1.
         -2   -1    0    0    0  501 -0.00000000000E+00 -0.00000000000E+00 -0.51125583527E+02  0.51125583590E+02  0.25500000000E-02 0. -1.
    5000001    1    1    2    0    0 -0.60201361241E+02  0.96513915296E+02  0.13361138345E+04  0.13546229433E+04  0.19200000000E+03 0.  0.
   -5000001    1    1    2    0    0  0.60201361241E+02 -0.96513915296E+02  0.25548934586E+03  0.33923140419E+03  0.19200000000E+03 0.  0.
<mgrwt>
<rscale>  0 0.57960492E+03</rscale>
<asrwt>0</asrwt>
<pdfrwt beam="1">  1        2 0.23467547E+00 0.57960492E+03</pdfrwt>
<pdfrwt beam="2">  1       -2 0.73036568E-02 0.57960492E+03</pdfrwt>
<totfact> 0.14237370E+03</totfact>
</mgrwt>
</event>
<event>
 4    1  0.5847263E-005  0.4598615E+03  0.7818608E-02  0.1024821E+00
          2   -1    0    0  501    0  0.00000000000E+00  0.00000000000E+00  0.25961041710E+04  0.25961041710E+04  0.25500000000E-02 0.  1.
         -2   -1    0    0    0  501 -0.00000000000E+00 -0.00000000000E+00 -0.20364414082E+02  0.20364414242E+02  0.25500000000E-02 0. -1.
    5000001    1    1    2    0    0 -0.11507222638E+03 -0.48483975974E+02  0.14033337454E+04  0.14219008103E+04  0.19200000000E+03 0.  0.
   -5000001    1    1    2    0    0  0.11507222638E+03  0.48483975974E+02  0.11724060115E+04  0.11945677750E+04  0.19200000000E+03 0.  0.
<mgrwt>
<rscale>  0 0.45986146E+03</rscale>
<asrwt>0</asrwt>
<pdfrwt beam="1">  1        2 0.37087205E+00 0.45986146E+03</pdfrwt>
<pdfrwt beam="2">  1       -2 0.29092018E-02 0.45986146E+03</pdfrwt>
<totfact> 0.19597154E+03</totfact>
</mgrwt>
</event>
<event>
 4    1  0.5847263E-005  0.5125844E+03  0.7818608E-02  0.1010545E+00
         -2   -1    0    0    0  501 -0.00000000000E+00  0.00000000000E+00  0.87065420778E+02  0.87065420815E+02  0.25500000000E-02 0. -1.
          2   -1    0    0  501    0  0.00000000000E+00 -0.00000000000E+00 -0.75444073223E+03  0.75444073224E+03  0.25500000000E-02 0.  1.
    5000001    1    1    2    0    0 -0.77222371796E+02 -0.14962007465E+03 -0.29801195404E+03  0.39245966187E+03  0.19200000000E+03 0.  0.
   -5000001    1    1    2    0    0  0.77222371796E+02  0.14962007465E+03 -0.36936335741E+03  0.44904649118E+03  0.19200000000E+03 0.  0.
<mgrwt>
<rscale>  0 0.51258443E+03</rscale>
<asrwt>0</asrwt>
<pdfrwt beam="1">  1        2 0.10777724E+00 0.51258443E+03</pdfrwt>
<pdfrwt beam="2">  1       -2 0.12437918E-01 0.51258443E+03</pdfrwt>
<totfact> 0.19626142E+03</totfact>
</mgrwt>
</event>
<event>
 4    1  0.5847263E-005  0.6717583E+03  0.7818608E-02  0.9766787E-01
          2   -1    0    0  501    0  0.00000000000E+00  0.00000000000E+00  0.23927159901E+04  0.23927159901E+04  0.25500000000E-02 0.  1.
         -2   -1    0    0    0  501 -0.00000000000E+00 -0.00000000000E+00 -0.47149265620E+02  0.47149265689E+02  0.25500000000E-02 0. -1.
    5000001    1    1    2    0    0 -0.18240784980E+03 -0.20205307591E+03  0.10164472930E+04  0.10696388029E+04  0.19200000000E+03 0.  0.
   -5000001    1    1    2    0    0  0.18240784980E+03  0.20205307591E+03  0.13291194314E+04  0.13702264529E+04  0.19200000000E+03 0.  0.
<mgrwt>
<rscale>  0 0.67175830E+03</rscale>
<asrwt>0</asrwt>
<pdfrwt beam="1">  1        2 0.34181653E+00 0.67175830E+03</pdfrwt>
<pdfrwt beam="2">  1       -2 0.67356101E-02 0.67175830E+03</pdfrwt>
<totfact> 0.67249471E+02</totfact>
</mgrwt>
</event>
<event>
 4    1  0.5847263E-005  0.5458275E+03  0.7818608E-02  0.1002464E+00
         -2   -1    0    0    0  501 -0.00000000000E+00  0.00000000000E+00  0.11883667654E+03  0.11883667657E+03  0.25500000000E-02 0. -1.
          2   -1    0    0  501    0  0.00000000000E+00 -0.00000000000E+00 -0.62675862270E+03  0.62675862270E+03  0.25500000000E-02 0.  1.
    5000001    1    1    2    0    0 -0.15613315107E+03  0.11128192388E+03 -0.21397955836E+03  0.34556110724E+03  0.19200000000E+03 0.  0.
   -5000001    1    1    2    0    0  0.15613315107E+03 -0.11128192388E+03 -0.29394238780E+03  0.40003419203E+03  0.19200000000E+03 0.  0.
<mgrwt>
<rscale>  0 0.54582749E+03</rscale>
<asrwt>0</asrwt>
<pdfrwt beam="1">  1        2 0.89536944E-01 0.54582749E+03</pdfrwt>
<pdfrwt beam="2">  1       -2 0.16976668E-01 0.54582749E+03</pdfrwt>
<totfact> 0.14600901E+03</totfact>
</mgrwt>
</event>
<event>
 4    1  0.5847263E-005  0.7161163E+03  0.7818608E-02  0.9690061E-01
          2   -1    0    0  501    0  0.00000000000E+00  0.00000000000E+00  0.56069451809E+03  0.56069451810E+03  0.25500000000E-02 0.  1.
         -2   -1    0    0    0  501 -0.00000000000E+00 -0.00000000000E+00 -0.22865505610E+03  0.22865505612E+03  0.25500000000E-02 0. -1.
    5000001    1    1    2    0    0 -0.99596186725E+02  0.27888098788E+03  0.99447784680E+02  0.36667133470E+03  0.19200000000E+03 0.  0.
   -5000001    1    1    2    0    0  0.99596186725E+02 -0.27888098788E+03  0.23259167731E+03  0.42267823952E+03  0.19200000000E+03 0.  0.
<mgrwt>
<rscale>  0 0.71611629E+03</rscale>
<asrwt>0</asrwt>
<pdfrwt beam="1">  1        2 0.80099216E-01 0.71611629E+03</pdfrwt>
<pdfrwt beam="2">  1       -2 0.32665008E-01 0.71611629E+03</pdfrwt>
<totfact> 0.51603371E+02</totfact>
</mgrwt>
</event>
<event>
 4    1  0.5847263E-005  0.6555181E+03  0.7818608E-02  0.9796480E-01
          2   -1    0    0  501    0  0.00000000000E+00  0.00000000000E+00  0.19126862221E+04  0.19126862221E+04  0.25500000000E-02 0.  1.
         -2   -1    0    0    0  501 -0.00000000000E+00 -0.00000000000E+00 -0.56164980537E+02  0.56164980595E+02  0.25500000000E-02 0. -1.
    5000001    1    1    2    0    0 -0.54569293470E+02 -0.24017992569E+03  0.12270719963E+04  0.12661887255E+04  0.19200000000E+03 0.  0.
   -5000001    1    1    2    0    0  0.54569293470E+02  0.24017992569E+03  0.62944924525E+03  0.70266247718E+03  0.19200000000E+03 0.  0.
<mgrwt>
<rscale>  0 0.65551807E+03</rscale>
<asrwt>0</asrwt>
<pdfrwt beam="1">  1        2 0.27324082E+00 0.65551807E+03</pdfrwt>
<pdfrwt beam="2">  1       -2 0.80235707E-02 0.65551807E+03</pdfrwt>
<totfact> 0.89158991E+02</totfact>
</mgrwt>
</event>
<event>
 4    1  0.5847263E-005  0.3896955E+03  0.7818608E-02  0.1047407E+00
         -2   -1    0    0    0  501 -0.00000000000E+00  0.00000000000E+00  0.10210404366E+03  0.10210404369E+03  0.25500000000E-02 0. -1.
          2   -1    0    0  501    0  0.00000000000E+00 -0.00000000000E+00 -0.37183297363E+03  0.37183297364E+03  0.25500000000E-02 0.  1.
    5000001    1    1    2    0    0  0.23895052750E+01 -0.27400660405E+02 -0.11227033932E+03  0.22410964954E+03  0.19200000000E+03 0.  0.
   -5000001    1    1    2    0    0 -0.23895052750E+01  0.27400660405E+02 -0.15745859065E+03  0.24982736779E+03  0.19200000000E+03 0.  0.
<mgrwt>
<rscale>  0 0.38969552E+03</rscale>
<asrwt>0</asrwt>
<pdfrwt beam="1">  1        2 0.53118996E-01 0.38969552E+03</pdfrwt>
<pdfrwt beam="2">  1       -2 0.14586292E-01 0.38969552E+03</pdfrwt>
<totfact> 0.33860398E+03</totfact>
</mgrwt>
</event>
<event>
 4    1  0.5847263E-005  0.6148779E+03  0.7818608E-02  0.9875011E-01
         -2   -1    0    0    0  501 -0.00000000000E+00  0.00000000000E+00  0.50308156215E+02  0.50308156280E+02  0.25500000000E-02 0. -1.
          2   -1    0    0  501    0  0.00000000000E+00 -0.00000000000E+00 -0.18787949035E+04  0.18787949035E+04  0.25500000000E-02 0.  1.
    5000001    1    1    2    0    0  0.23927806695E+03  0.16301330625E+02 -0.87779294444E+03  0.93000224732E+03  0.19200000000E+03 0.  0.
   -5000001    1    1    2    0    0 -0.23927806695E+03 -0.16301330625E+02 -0.95069380282E+03  0.99910081245E+03  0.19200000000E+03 0.  0.
<mgrwt>
<rscale>  0 0.61487790E+03</rscale>
<asrwt>0</asrwt>
<pdfrwt beam="1">  1        2 0.26839923E+00 0.61487790E+03</pdfrwt>
<pdfrwt beam="2">  1       -2 0.71868806E-02 0.61487790E+03</pdfrwt>
<totfact> 0.11072491E+03</totfact>
</mgrwt>
</event>
<event>
 4    1  0.5847263E-005  0.7119644E+03  0.7818608E-02  0.9696988E-01
          2   -1    0    0  501    0  0.00000000000E+00  0.00000000000E+00  0.20651598284E+03  0.20651598285E+03  0.25500000000E-02 0.  1.
         -2   -1    0    0    0  501 -0.00000000000E+00 -0.00000000000E+00 -0.61362473844E+03  0.61362473845E+03  0.25500000000E-02 0. -1.
    5000001    1    1    2    0    0  0.26053994509E+03  0.10278810591E+03 -0.80491426078E+02  0.34898327665E+03  0.19200000000E+03 0.  0.
   -5000001    1    1    2    0    0 -0.26053994509E+03 -0.10278810591E+03 -0.32661732953E+03  0.47115744466E+03  0.19200000000E+03 0.  0.
<mgrwt>
<rscale>  0 0.71196437E+03</rscale>
<asrwt>0</asrwt>
<pdfrwt beam="1">  1        2 0.29502284E-01 0.71196437E+03</pdfrwt>
<pdfrwt beam="2">  1       -2 0.87660676E-01 0.71196437E+03</pdfrwt>
<totfact> 0.20559448E+02</totfact>
</mgrwt>
</event>
<event>
 4    1  0.5847263E-005  0.7407647E+03  0.7818608E-02  0.9649952E-01
          2   -1    0    0  501    0  0.00000000000E+00  0.00000000000E+00  0.67457766437E+03  0.67457766438E+03  0.25500000000E-02 0.  1.
         -2   -1    0    0    0  501 -0.00000000000E+00 -0.00000000000E+00 -0.20336142579E+03  0.20336142580E+03  0.25500000000E-02 0. -1.
    5000001    1    1    2    0    0 -0.14700291105E+03 -0.10416711780E+03 -0.73126997702E+02  0.27326214901E+03  0.19200000000E+03 0.  0.
   -5000001    1    1    2    0    0  0.14700291105E+03  0.10416711780E+03  0.54434323629E+03  0.60467694117E+03  0.19200000000E+03 0.  0.
<mgrwt>
<rscale>  0 0.74076467E+03</rscale>
<asrwt>0</asrwt>
<pdfrwt beam="1">  1        2 0.96368237E-01 0.74076467E+03</pdfrwt>
<pdfrwt beam="2">  1       -2 0.29051632E-01 0.74076467E+03</pdfrwt>
<totfact> 0.51462275E+02</totfact>
</mgrwt>
</event>
<event>
 4    1  0.5847263E-005  0.4072441E+03  0.7818608E-02  0.1041300E+00
          2   -1    0    0  501    0  0.00000000000E+00  0.00000000000E+00  0.23855529179E+04  0.23855529179E+04  0.25500000000E-02 0.  1.
         -2   -1    0    0    0  501 -0.00000000000E+00 -0.00000000000E+00 -0.17380434501E+02  0.17380434688E+02  0.25500000000E-02 0. -1.
    5000001    1    1    2    0    0 -0.29244218972E+02  0.45251902829E+02  0.14270100747E+04  0.14408763696E+04  0.19200000000E+03 0.  0.
   -5000001    1    1    2    0    0  0.29244218972E+02 -0.45251902829E+02  0.94116240866E+03  0.96205698300E+03  0.19200000000E+03 0.  0.
<mgrwt>
<rscale>  0 0.40724414E+03</rscale>
<asrwt>0</asrwt>
<pdfrwt beam="1">  1        2 0.34079291E+00 0.40724414E+03</pdfrwt>
<pdfrwt beam="2">  1       -2 0.24829219E-02 0.40724414E+03</pdfrwt>
<totfact> 0.31888778E+03</totfact>
</mgrwt>
</event>
<event>
 4    1  0.5847263E-005  0.8039273E+03  0.7818608E-02  0.9554350E-01
          2   -1    0    0  501    0  0.00000000000E+00  0.00000000000E+00  0.99576899797E+03  0.99576899797E+03  0.25500000000E-02 0.  1.
         -2   -1    0    0    0  501 -0.00000000000E+00 -0.00000000000E+00 -0.16226128672E+03  0.16226128674E+03  0.25500000000E-02 0. -1.
    5000001    1    1    2    0    0  0.30730803911E+03  0.11541828096E+03  0.22921004912E+03  0.44402799135E+03  0.19200000000E+03 0.  0.
   -5000001    1    1    2    0    0 -0.30730803911E+03 -0.11541828096E+03  0.60429766213E+03  0.71400229337E+03  0.19200000000E+03 0.  0.
<mgrwt>
<rscale>  0 0.80392726E+03</rscale>
<asrwt>0</asrwt>
<pdfrwt beam="1">  1        2 0.14225271E+00 0.80392726E+03</pdfrwt>
<pdfrwt beam="2">  1       -2 0.23180184E-01 0.80392726E+03</pdfrwt>
<totfact> 0.46521091E+02</totfact>
</mgrwt>
</event>
<event>
 4    1  0.5847263E-005  0.7422897E+03  0.7818608E-02  0.9647525E-01
         -2   -1    0    0    0  501 -0.00000000000E+00  0.00000000000E+00  0.53597502655E+03  0.53597502655E+03  0.25500000000E-02 0. -1.
          2   -1    0    0  501    0  0.00000000000E+00 -0.00000000000E+00 -0.25700544317E+03  0.25700544318E+03  0.25500000000E-02 0.  1.
    5000001    1    1    2    0    0  0.20241584205E+03 -0.22646673704E+03  0.23869862122E+03  0.43139354176E+03  0.19200000000E+03 0.  0.
   -5000001    1    1    2    0    0 -0.20241584205E+03  0.22646673704E+03  0.40270962155E+02  0.36158692798E+03  0.19200000000E+03 0.  0.
<mgrwt>
<rscale>  0 0.74228970E+03</rscale>
<asrwt>0</asrwt>
<pdfrwt beam="1">  1        2 0.36715063E-01 0.74228970E+03</pdfrwt>
<pdfrwt beam="2">  1       -2 0.76567861E-01 0.74228970E+03</pdfrwt>
<totfact> 0.21805957E+02</totfact>
</mgrwt>
</event>
<event>
 4    1  0.5847263E-005  0.5904663E+03  0.7818608E-02  0.9925385E-01
         -2   -1    0    0    0  501 -0.00000000000E+00  0.00000000000E+00  0.20103325028E+03  0.20103325030E+03  0.25500000000E-02 0. -1.
          2   -1    0    0  501    0  0.00000000000E+00 -0.00000000000E+00 -0.43357315491E+03  0.43357315492E+03  0.25500000000E-02 0.  1.
    5000001    1    1    2    0    0 -0.17768106962E+03 -0.10583422981E+03 -0.20951489582E+03  0.35147110588E+03  0.19200000000E+03 0.  0.
   -5000001    1    1    2    0    0  0.17768106962E+03  0.10583422981E+03 -0.23025008807E+02  0.28313529934E+03  0.19200000000E+03 0.  0.
<mgrwt>
<rscale>  0 0.59046633E+03</rscale>
<asrwt>0</asrwt>
<pdfrwt beam="1">  1        2 0.61939022E-01 0.59046633E+03</pdfrwt>
<pdfrwt beam="2">  1       -2 0.28719036E-01 0.59046633E+03</pdfrwt>
<totfact> 0.88067898E+02</totfact>
</mgrwt>
</event>
<event>
 4    1  0.5847263E-005  0.1155363E+04  0.7818608E-02  0.9152850E-01
         -2   -1    0    0    0  501 -0.00000000000E+00  0.00000000000E+00  0.35422419442E+03  0.35422419443E+03  0.25500000000E-02 0. -1.
          2   -1    0    0  501    0  0.00000000000E+00 -0.00000000000E+00 -0.94210348277E+03  0.94210348278E+03  0.25500000000E-02 0.  1.
    5000001    1    1    2    0    0 -0.24677091165E+03  0.48440877404E+03 -0.25342122389E+03  0.62978890108E+03  0.19200000000E+03 0.  0.
   -5000001    1    1    2    0    0  0.24677091165E+03 -0.48440877404E+03 -0.33445806446E+03  0.66653877613E+03  0.19200000000E+03 0.  0.
<mgrwt>
<rscale>  0 0.11553629E+04</rscale>
<asrwt>0</asrwt>
<pdfrwt beam="1">  1        2 0.13458621E+00 0.11553629E+04</pdfrwt>
<pdfrwt beam="2">  1       -2 0.50603456E-01 0.11553629E+04</pdfrwt>
<totfact> 0.11159431E+02</totfact>
</mgrwt>
</event>
<event>
 4    1  0.5847263E-005  0.4400091E+03  0.7818608E-02  0.1030744E+00
         -2   -1    0    0    0  501 -0.00000000000E+00  0.00000000000E+00  0.14114688502E+03  0.14114688504E+03  0.25500000000E-02 0. -1.
          2   -1    0    0  501    0  0.00000000000E+00 -0.00000000000E+00 -0.34291930332E+03  0.34291930333E+03  0.25500000000E-02 0.  1.
    5000001    1    1    2    0    0 -0.78720095748E+02 -0.39976540532E+02 -0.33580194486E+02  0.21397805198E+03  0.19200000000E+03 0.  0.
   -5000001    1    1    2    0    0  0.78720095748E+02  0.39976540532E+02 -0.16819222381E+03  0.27008813639E+03  0.19200000000E+03 0.  0.
<mgrwt>
<rscale>  0 0.44000905E+03</rscale>
<asrwt>0</asrwt>
<pdfrwt beam="1">  1        2 0.48988472E-01 0.44000905E+03</pdfrwt>
<pdfrwt beam="2">  1       -2 0.20163841E-01 0.44000905E+03</pdfrwt>
<totfact> 0.21406483E+03</totfact>
</mgrwt>
</event>
<event>
 4    1  0.5847263E-005  0.6382959E+03  0.7818608E-02  0.9828992E-01
          2   -1    0    0  501    0  0.00000000000E+00  0.00000000000E+00  0.96962559971E+03  0.96962559971E+03  0.25500000000E-02 0.  1.
         -2   -1    0    0    0  501 -0.00000000000E+00 -0.00000000000E+00 -0.10504611213E+03  0.10504611216E+03  0.25500000000E-02 0. -1.
    5000001    1    1    2    0    0 -0.18187820469E+03  0.86285180825E+02  0.16893540517E+03  0.32546579681E+03  0.19200000000E+03 0.  0.
   -5000001    1    1    2    0    0  0.18187820469E+03 -0.86285180825E+02  0.69564408241E+03  0.74920591506E+03  0.19200000000E+03 0.  0.
<mgrwt>
<rscale>  0 0.63829585E+03</rscale>
<asrwt>0</asrwt>
<pdfrwt beam="1">  1        2 0.13851794E+00 0.63829585E+03</pdfrwt>
<pdfrwt beam="2">  1       -2 0.15006588E-01 0.63829585E+03</pdfrwt>
<totfact> 0.10315789E+03</totfact>
</mgrwt>
</event>
<event>
 4    1  0.5847263E-005  0.6107349E+03  0.7818608E-02  0.9883382E-01
         -2   -1    0    0    0  501 -0.00000000000E+00  0.00000000000E+00  0.27941168071E+03  0.27941168072E+03  0.25500000000E-02 0. -1.
          2   -1    0    0  501    0  0.00000000000E+00 -0.00000000000E+00 -0.33373432595E+03  0.33373432596E+03  0.25500000000E-02 0.  1.
    5000001    1    1    2    0    0 -0.10094114568E+03  0.15784285698E+03 -0.17362004189E+03  0.31954874642E+03  0.19200000000E+03 0.  0.
   -5000001    1    1    2    0    0  0.10094114568E+03 -0.15784285698E+03  0.11929739664E+03  0.29359726027E+03  0.19200000000E+03 0.  0.
<mgrwt>
<rscale>  0 0.61073487E+03</rscale>
<asrwt>0</asrwt>
<pdfrwt beam="1">  1        2 0.47676332E-01 0.61073487E+03</pdfrwt>
<pdfrwt beam="2">  1       -2 0.39915954E-01 0.61073487E+03</pdfrwt>
<totfact> 0.63276902E+02</totfact>
</mgrwt>
</event>
<event>
 4    1  0.5847263E-005  0.5379699E+03  0.7818608E-02  0.1004317E+00
         -2   -1    0    0    0  501 -0.00000000000E+00  0.00000000000E+00  0.21096100934E+02  0.21096101088E+02  0.25500000000E-02 0. -1.
          2   -1    0    0  501    0  0.00000000000E+00 -0.00000000000E+00 -0.34296814800E+04  0.34296814800E+04  0.25500000000E-02 0.  1.
    5000001    1    1    2    0    0  0.12774704369E+03 -0.11448681963E+03 -0.22037290121E+04  0.22187185711E+04  0.19200000000E+03 0.  0.
   -5000001    1    1    2    0    0 -0.12774704369E+03  0.11448681963E+03 -0.12048563670E+04  0.12320590100E+04  0.19200000000E+03 0.  0.
<mgrwt>
<rscale>  0 0.53796991E+03</rscale>
<asrwt>0</asrwt>
<pdfrwt beam="1">  1        2 0.48995414E+00 0.53796991E+03</pdfrwt>
<pdfrwt beam="2">  1       -2 0.30137309E-02 0.53796991E+03</pdfrwt>
<totfact> 0.64914249E+02</totfact>
</mgrwt>
</event>
<event>
 4    1  0.5847263E-005  0.5601034E+03  0.7818608E-02  0.9991821E-01
          2   -1    0    0  501    0  0.00000000000E+00  0.00000000000E+00  0.11771924147E+04  0.11771924147E+04  0.25500000000E-02 0.  1.
         -2   -1    0    0    0  501 -0.00000000000E+00 -0.00000000000E+00 -0.66623729739E+02  0.66623729787E+02  0.25500000000E-02 0. -1.
    5000001    1    1    2    0    0  0.17447376359E+03 -0.49879940287E+02  0.76165144066E+03  0.80616748861E+03  0.19200000000E+03 0.  0.
   -5000001    1    1    2    0    0 -0.17447376359E+03  0.49879940287E+02  0.34891724429E+03  0.43764865587E+03  0.19200000000E+03 0.  0.
<mgrwt>
<rscale>  0 0.56010338E+03</rscale>
<asrwt>0</asrwt>
<pdfrwt beam="1">  1        2 0.16817034E+00 0.56010338E+03</pdfrwt>
<pdfrwt beam="2">  1       -2 0.95176761E-02 0.56010338E+03</pdfrwt>
<totfact> 0.16501933E+03</totfact>
</mgrwt>
</event>
<event>
 4    1  0.5847263E-005  0.1441132E+04  0.7818608E-02  0.8924572E-01
          2   -1    0    0  501    0  0.00000000000E+00  0.00000000000E+00  0.25341566792E+03  0.25341566793E+03  0.25500000000E-02 0.  1.
         -2   -1    0    0    0  501 -0.00000000000E+00 -0.00000000000E+00 -0.20488682534E+04  0.20488682534E+04  0.25500000000E-02 0. -1.
    5000001    1    1    2    0    0 -0.17704792335E+03  0.63345173989E+03 -0.54141749153E+03  0.87327199318E+03  0.19200000000E+03 0.  0.
   -5000001    1    1    2    0    0  0.17704792335E+03 -0.63345173989E+03 -0.12540350940E+04  0.14290119282E+04  0.19200000000E+03 0.  0.
<mgrwt>
<rscale>  0 0.14411319E+04</rscale>
<asrwt>0</asrwt>
<pdfrwt beam="1">  1        2 0.36202239E-01 0.14411319E+04</pdfrwt>
<pdfrwt beam="2">  1       -2 0.29269546E+00 0.14411319E+04</pdfrwt>
<totfact> 0.49521116E+00</totfact>
</mgrwt>
</event>
<event>
 4    1  0.5847263E-005  0.5262307E+03  0.7818608E-02  0.1007150E+00
          2   -1    0    0  501    0  0.00000000000E+00  0.00000000000E+00  0.23368958277E+03  0.23368958279E+03  0.25500000000E-02 0.  1.
         -2   -1    0    0    0  501 -0.00000000000E+00 -0.00000000000E+00 -0.29624638517E+03  0.29624638518E+03  0.25500000000E-02 0. -1.
    5000001    1    1    2    0    0 -0.68683342032E+01  0.10824344026E+03  0.11326577495E+03  0.24790512732E+03  0.19200000000E+03 0.  0.
   -5000001    1    1    2    0    0  0.68683342032E+01 -0.10824344026E+03 -0.17582257734E+03  0.28203084065E+03  0.19200000000E+03 0.  0.
<mgrwt>
<rscale>  0 0.52623073E+03</rscale>
<asrwt>0</asrwt>
<pdfrwt beam="1">  1        2 0.33384226E-01 0.52623073E+03</pdfrwt>
<pdfrwt beam="2">  1       -2 0.42320912E-01 0.52623073E+03</pdfrwt>
<totfact> 0.83787101E+02</totfact>
</mgrwt>
</event>
<event>
 4    1  0.5847263E-005  0.6435946E+03  0.7818608E-02  0.9818873E-01
          2   -1    0    0  501    0  0.00000000000E+00  0.00000000000E+00  0.10317076339E+03  0.10317076342E+03  0.25500000000E-02 0.  1.
         -2   -1    0    0    0  501 -0.00000000000E+00 -0.00000000000E+00 -0.10037096199E+04  0.10037096199E+04  0.25500000000E-02 0. -1.
    5000001    1    1    2    0    0  0.22910953331E+03 -0.26771579862E+02 -0.25057823171E+03  0.39097486613E+03  0.19200000000E+03 0.  0.
   -5000001    1    1    2    0    0 -0.22910953331E+03  0.26771579862E+02 -0.64996062484E+03  0.71590551722E+03  0.19200000000E+03 0.  0.
<mgrwt>
<rscale>  0 0.64359455E+03</rscale>
<asrwt>0</asrwt>
<pdfrwt beam="1">  1        2 0.14738681E-01 0.64359455E+03</pdfrwt>
<pdfrwt beam="2">  1       -2 0.14338708E+00 0.64359455E+03</pdfrwt>
<totfact> 0.14024346E+02</totfact>
</mgrwt>
</event>
<event>
 4    1  0.5847263E-005  0.6686836E+03  0.7818608E-02  0.9772339E-01
         -2   -1    0    0    0  501 -0.00000000000E+00  0.00000000000E+00  0.12496728982E+04  0.12496728982E+04  0.25500000000E-02 0. -1.
          2   -1    0    0  501    0  0.00000000000E+00 -0.00000000000E+00 -0.89450963151E+02  0.89450963188E+02  0.25500000000E-02 0.  1.
    5000001    1    1    2    0    0 -0.12763552313E+03  0.22356465204E+03  0.76634950711E+03  0.83091969976E+03  0.19200000000E+03 0.  0.
   -5000001    1    1    2    0    0  0.12763552313E+03 -0.22356465204E+03  0.39387242795E+03  0.50820416164E+03  0.19200000000E+03 0.  0.
<mgrwt>
<rscale>  0 0.66868362E+03</rscale>
<asrwt>0</asrwt>
<pdfrwt beam="1">  1        2 0.12778709E-01 0.66868362E+03</pdfrwt>
<pdfrwt beam="2">  1       -2 0.17852470E+00 0.66868362E+03</pdfrwt>
<totfact> 0.92313527E+01</totfact>
</mgrwt>
</event>
<event>
 4    1  0.5847263E-005  0.5102736E+03  0.7818608E-02  0.1011132E+00
          2   -1    0    0  501    0  0.00000000000E+00  0.00000000000E+00  0.15448835988E+04  0.15448835988E+04  0.25500000000E-02 0.  1.
         -2   -1    0    0    0  501 -0.00000000000E+00 -0.00000000000E+00 -0.42135724603E+02  0.42135724680E+02  0.25500000000E-02 0. -1.
    5000001    1    1    2    0    0  0.70285186511E+02  0.85247145702E+02  0.11450695695E+04  0.11662998766E+04  0.19200000000E+03 0.  0.
   -5000001    1    1    2    0    0 -0.70285186511E+02 -0.85247145702E+02  0.35767830475E+03  0.42071944688E+03  0.19200000000E+03 0.  0.
<mgrwt>
<rscale>  0 0.51027361E+03</rscale>
<asrwt>0</asrwt>
<pdfrwt beam="1">  1        2 0.22069764E+00 0.51027361E+03</pdfrwt>
<pdfrwt beam="2">  1       -2 0.60193898E-02 0.51027361E+03</pdfrwt>
<totfact> 0.21704338E+03</totfact>
</mgrwt>
</event>
<event>
 4    1  0.5847263E-005  0.4285208E+03  0.7818608E-02  0.1034328E+00
          2   -1    0    0  501    0  0.00000000000E+00  0.00000000000E+00  0.22081374392E+04  0.22081374392E+04  0.25500000000E-02 0.  1.
         -2   -1    0    0    0  501 -0.00000000000E+00 -0.00000000000E+00 -0.20790152563E+02  0.20790152719E+02  0.25500000000E-02 0. -1.
    5000001    1    1    2    0    0  0.84671143825E+02  0.34425712439E+02  0.12302234481E+04  0.12484662849E+04  0.19200000000E+03 0.  0.
   -5000001    1    1    2    0    0 -0.84671143825E+02 -0.34425712439E+02  0.95712383861E+03  0.98046130710E+03  0.19200000000E+03 0.  0.
<mgrwt>
<rscale>  0 0.42852078E+03</rscale>
<asrwt>0</asrwt>
<pdfrwt beam="1">  1        2 0.31544814E+00 0.42852078E+03</pdfrwt>
<pdfrwt beam="2">  1       -2 0.29700224E-02 0.42852078E+03</pdfrwt>
<totfact> 0.29860099E+03</totfact>
</mgrwt>
</event>
<event>
 4    1  0.5847263E-005  0.4355144E+03  0.7818608E-02  0.1032132E+00
          2   -1    0    0  501    0  0.00000000000E+00  0.00000000000E+00  0.10465371970E+04  0.10465371970E+04  0.25500000000E-02 0.  1.
         -2   -1    0    0    0  501 -0.00000000000E+00 -0.00000000000E+00 -0.45309612097E+02  0.45309612169E+02  0.25500000000E-02 0. -1.
    5000001    1    1    2    0    0  0.93620900531E+02  0.23704721358E+02  0.41278162096E+03  0.46538097665E+03  0.19200000000E+03 0.  0.
   -5000001    1    1    2    0    0 -0.93620900531E+02 -0.23704721358E+02  0.58844596396E+03  0.62646583253E+03  0.19200000000E+03 0.  0.
<mgrwt>
<rscale>  0 0.43551438E+03</rscale>
<asrwt>0</asrwt>
<pdfrwt beam="1">  1        2 0.14950533E+00 0.43551438E+03</pdfrwt>
<pdfrwt beam="2">  1       -2 0.64728012E-02 0.43551438E+03</pdfrwt>
<totfact> 0.36169229E+03</totfact>
</mgrwt>
</event>
<event>
 4    1  0.5847263E-005  0.2425679E+04  0.7818608E-02  0.8429952E-01
         -2   -1    0    0    0  501 -0.00000000000E+00  0.00000000000E+00  0.12129445187E+04  0.12129445187E+04  0.25500000000E-02 0.  1.
          2   -1    0    0  501    0  0.00000000000E+00 -0.00000000000E+00 -0.12127345915E+04  0.12127345915E+04  0.25500000000E-02 0. -1.
    5000001    1    1    2    0    0 -0.61756939189E+03  0.96222028815E+03 -0.35606345121E+03  0.12128087310E+04  0.19200000000E+03 0.  0.
   -5000001    1    1    2    0    0  0.61756939189E+03 -0.96222028815E+03  0.35627337840E+03  0.12128703793E+04  0.19200000000E+03 0.  0.
<mgrwt>
<rscale>  0 0.24256791E+04</rscale>
<asrwt>0</asrwt>
<pdfrwt beam="1">  1        2 0.17324780E+00 0.24256791E+04</pdfrwt>
<pdfrwt beam="2">  1       -2 0.17327779E+00 0.24256791E+04</pdfrwt>
<totfact> 0.38312930E+00</totfact>
</mgrwt>
</event>
<event>
 4    1  0.5847263E-005  0.9915144E+03  0.7818608E-02  0.9317901E-01
          2   -1    0    0  501    0  0.00000000000E+00  0.00000000000E+00  0.17968613175E+04  0.17968613175E+04  0.25500000000E-02 0.  1.
         -2   -1    0    0    0  501 -0.00000000000E+00 -0.00000000000E+00 -0.13678029284E+03  0.13678029286E+03  0.25500000000E-02 0. -1.
    5000001    1    1    2    0    0  0.43425905322E+03 -0.11191260270E+03  0.65773968710E+03  0.81889611791E+03  0.19200000000E+03 0.  0.
   -5000001    1    1    2    0    0 -0.43425905322E+03  0.11191260270E+03  0.10023413375E+04  0.11147454924E+04  0.19200000000E+03 0.  0.
<mgrwt>
<rscale>  0 0.99151443E+03</rscale>
<asrwt>0</asrwt>
<pdfrwt beam="1">  1        2 0.25669448E+00 0.99151443E+03</pdfrwt>
<pdfrwt beam="2">  1       -2 0.19540041E-01 0.99151443E+03</pdfrwt>
<totfact> 0.22710950E+02</totfact>
</mgrwt>
</event>
<event>
 4    1  0.5847263E-005  0.4816026E+03  0.7818608E-02  0.1018696E+00
         -2   -1    0    0    0  501 -0.00000000000E+00  0.00000000000E+00  0.29701160833E+02  0.29701160942E+02  0.25500000000E-02 0.  1.
          2   -1    0    0  501    0  0.00000000000E+00 -0.00000000000E+00 -0.19522892913E+04  0.19522892913E+04  0.25500000000E-02 0. -1.
    5000001    1    1    2    0    0  0.12678793034E+03 -0.68713581141E+02 -0.88715699971E+03  0.91908012580E+03  0.19200000000E+03 0.  0.
   -5000001    1    1    2    0    0 -0.12678793034E+03  0.68713581141E+02 -0.10354311308E+04  0.10629103265E+04  0.19200000000E+03 0.  0.
<mgrwt>
<rscale>  0 0.48160257E+03</rscale>
<asrwt>0</asrwt>
<pdfrwt beam="1">  1        2 0.27889839E+00 0.48160257E+03</pdfrwt>
<pdfrwt beam="2">  1       -2 0.42430242E-02 0.48160257E+03</pdfrwt>
<totfact> 0.23239114E+03</totfact>
</mgrwt>
</event>
<event>
 4    1  0.5847263E-005  0.4177433E+03  0.7818608E-02  0.1037803E+00
         -2   -1    0    0    0  501 -0.00000000000E+00  0.00000000000E+00  0.21671252426E+02  0.21671252576E+02  0.25500000000E-02 0. -1.
          2   -1    0    0  501    0  0.00000000000E+00 -0.00000000000E+00 -0.20131444529E+04  0.20131444529E+04  0.25500000000E-02 0.  1.
    5000001    1    1    2    0    0 -0.78108450365E+02 -0.23803124963E+02 -0.10434231363E+04  0.10640786438E+04  0.19200000000E+03 0.  0.
   -5000001    1    1    2    0    0  0.78108450365E+02  0.23803124963E+02 -0.94805006412E+03  0.97073706164E+03  0.19200000000E+03 0.  0.
<mgrwt>
<rscale>  0 0.41774328E+03</rscale>
<asrwt>0</asrwt>
<pdfrwt beam="1">  1        2 0.28759195E+00 0.41774328E+03</pdfrwt>
<pdfrwt beam="2">  1       -2 0.30958945E-02 0.41774328E+03</pdfrwt>
<totfact> 0.35063446E+03</totfact>
</mgrwt>
</event>
<event>
 4    1  0.5847263E-005  0.4101378E+03  0.7818608E-02  0.1040325E+00
          2   -1    0    0  501    0  0.00000000000E+00  0.00000000000E+00  0.80838377348E+03  0.80838377348E+03  0.25500000000E-02 0.  1.
         -2   -1    0    0    0  501 -0.00000000000E+00 -0.00000000000E+00 -0.52021401728E+02  0.52021401791E+02  0.25500000000E-02 0. -1.
    5000001    1    1    2    0    0 -0.36376504814E+02  0.35973874927E+02  0.48457078306E+03  0.52372723204E+03  0.19200000000E+03 0.  0.
   -5000001    1    1    2    0    0  0.36376504814E+02 -0.35973874927E+02  0.27179158869E+03  0.33667794323E+03  0.19200000000E+03 0.  0.
<mgrwt>
<rscale>  0 0.41013782E+03</rscale>
<asrwt>0</asrwt>
<pdfrwt beam="1">  1        2 0.11548338E+00 0.41013782E+03</pdfrwt>
<pdfrwt beam="2">  1       -2 0.74316297E-02 0.41013782E+03</pdfrwt>
<totfact> 0.41100185E+03</totfact>
</mgrwt>
</event>
<event>
 4    1  0.5847263E-005  0.5276270E+03  0.7818608E-02  0.1006809E+00
         -2   -1    0    0    0  501 -0.00000000000E+00  0.00000000000E+00  0.28276959658E+02  0.28276959773E+02  0.25500000000E-02 0. -1.
          2   -1    0    0  501    0  0.00000000000E+00 -0.00000000000E+00 -0.24612817708E+04  0.24612817708E+04  0.25500000000E-02 0.  1.
    5000001    1    1    2    0    0  0.58657674164E+02  0.16848963401E+03 -0.13583755595E+04  0.13834296658E+04  0.19200000000E+03 0.  0.
   -5000001    1    1    2    0    0 -0.58657674164E+02 -0.16848963401E+03 -0.10746292517E+04  0.11061290648E+04  0.19200000000E+03 0.  0.
<mgrwt>
<rscale>  0 0.52762701E+03</rscale>
<asrwt>0</asrwt>
<pdfrwt beam="1">  1        2 0.35161154E+00 0.52762701E+03</pdfrwt>
<pdfrwt beam="2">  1       -2 0.40395672E-02 0.52762701E+03</pdfrwt>
<totfact> 0.13880747E+03</totfact>
</mgrwt>
</event>
<event>
 4    1  0.5847263E-005  0.9347047E+03  0.7818608E-02  0.9383209E-01
          2   -1    0    0  501    0  0.00000000000E+00  0.00000000000E+00  0.52235289663E+03  0.52235289664E+03  0.25500000000E-02 0.  1.
         -2   -1    0    0    0  501 -0.00000000000E+00 -0.00000000000E+00 -0.41814299705E+03  0.41814299706E+03  0.25500000000E-02 0. -1.
    5000001    1    1    2    0    0  0.36678018909E+03  0.12081791768E+02  0.26996557315E+03  0.49438758833E+03  0.19200000000E+03 0.  0.
   -5000001    1    1    2    0    0 -0.36678018909E+03 -0.12081791768E+02 -0.16575567357E+03  0.44610830538E+03  0.19200000000E+03 0.  0.
<mgrwt>
<rscale>  0 0.93470467E+03</rscale>
<asrwt>0</asrwt>
<pdfrwt beam="1">  1        2 0.74621843E-01 0.93470467E+03</pdfrwt>
<pdfrwt beam="2">  1       -2 0.59734714E-01 0.93470467E+03</pdfrwt>
<totfact> 0.16723887E+02</totfact>
</mgrwt>
</event>
<event>
 4    1  0.5847263E-005  0.4510222E+03  0.7818608E-02  0.1027418E+00
         -2   -1    0    0    0  501 -0.00000000000E+00  0.00000000000E+00  0.27038270054E+02  0.27038270174E+02  0.25500000000E-02 0. -1.
          2   -1    0    0  501    0  0.00000000000E+00 -0.00000000000E+00 -0.18808618434E+04  0.18808618434E+04  0.25500000000E-02 0.  1.
    5000001    1    1    2    0    0 -0.10691546809E+03 -0.24754653980E+02 -0.11135931536E+04  0.11353402230E+04  0.19200000000E+03 0.  0.
   -5000001    1    1    2    0    0  0.10691546809E+03  0.24754653980E+02 -0.74023041967E+03  0.77255989051E+03  0.19200000000E+03 0.  0.
<mgrwt>
<rscale>  0 0.45102217E+03</rscale>
<asrwt>0</asrwt>
<pdfrwt beam="1">  1        2 0.26869447E+00 0.45102217E+03</pdfrwt>
<pdfrwt beam="2">  1       -2 0.38626112E-02 0.45102217E+03</pdfrwt>
<totfact> 0.29143235E+03</totfact>
</mgrwt>
</event>
<event>
 4    1  0.5847263E-005  0.7099306E+03  0.7818608E-02  0.9700399E-01
          2   -1    0    0  501    0  0.00000000000E+00  0.00000000000E+00  0.32987075339E+04  0.32987075339E+04  0.25500000000E-02 0.  1.
         -2   -1    0    0    0  501 -0.00000000000E+00 -0.00000000000E+00 -0.38196891307E+02  0.38196891392E+02  0.25500000000E-02 0. -1.
    5000001    1    1    2    0    0 -0.17628002574E+02 -0.98533321357E+02  0.30816159549E+03  0.37662598268E+03  0.19200000000E+03 0.  0.
   -5000001    1    1    2    0    0  0.17628002574E+02  0.98533321357E+02  0.29523490471E+04  0.29602784426E+04  0.19200000000E+03 0.  0.
<mgrwt>
<rscale>  0 0.70993063E+03</rscale>
<asrwt>0</asrwt>
<pdfrwt beam="1">  1        2 0.47124378E+00 0.70993063E+03</pdfrwt>
<pdfrwt beam="2">  1       -2 0.54567006E-02 0.70993063E+03</pdfrwt>
<totfact> 0.30412008E+02</totfact>
</mgrwt>
</event>
<event>
 4    1  0.5847263E-005  0.6710730E+03  0.7818608E-02  0.9768021E-01
         -2   -1    0    0    0  501 -0.00000000000E+00  0.00000000000E+00  0.73879717825E+02  0.73879717869E+02  0.25500000000E-02 0. -1.
          2   -1    0    0  501    0  0.00000000000E+00 -0.00000000000E+00 -0.15238924458E+04  0.15238924458E+04  0.25500000000E-02 0.  1.
    5000001    1    1    2    0    0  0.37407699254E+02  0.26563022483E+03 -0.57897235936E+03  0.66635707035E+03  0.19200000000E+03 0.  0.
   -5000001    1    1    2    0    0 -0.37407699254E+02 -0.26563022483E+03 -0.87104036867E+03  0.93141509337E+03  0.19200000000E+03 0.  0.
<mgrwt>
<rscale>  0 0.67107300E+03</rscale>
<asrwt>0</asrwt>
<pdfrwt beam="1">  1        2 0.21769890E+00 0.67107300E+03</pdfrwt>
<pdfrwt beam="2">  1       -2 0.10554246E-01 0.67107300E+03</pdfrwt>
<totfact> 0.90414094E+02</totfact>
</mgrwt>
</event>
<event>
 4    1  0.5847263E-005  0.6341998E+03  0.7818608E-02  0.9836887E-01
          2   -1    0    0  501    0  0.00000000000E+00  0.00000000000E+00  0.98616198949E+02  0.98616198982E+02  0.25500000000E-02 0.  1.
         -2   -1    0    0    0  501 -0.00000000000E+00 -0.00000000000E+00 -0.10196331031E+04  0.10196331031E+04  0.25500000000E-02 0. -1.
    5000001    1    1    2    0    0  0.80360704936E+02 -0.23029415812E+03 -0.34630383963E+03  0.46506299735E+03  0.19200000000E+03 0.  0.
   -5000001    1    1    2    0    0 -0.80360704936E+02  0.23029415812E+03 -0.57471306449E+03  0.65318630470E+03  0.19200000000E+03 0.  0.
<mgrwt>
<rscale>  0 0.63419978E+03</rscale>
<asrwt>0</asrwt>
<pdfrwt beam="1">  1        2 0.14088029E-01 0.63419978E+03</pdfrwt>
<pdfrwt beam="2">  1       -2 0.14566187E+00 0.63419978E+03</pdfrwt>
<totfact> 0.14227952E+02</totfact>
</mgrwt>
</event>
<event>
 4    1  0.5847263E-005  0.6876968E+03  0.7818608E-02  0.9738507E-01
          2   -1    0    0  501    0  0.00000000000E+00  0.00000000000E+00  0.26365311290E+04  0.26365311290E+04  0.25500000000E-02 0.  1.
         -2   -1    0    0    0  501 -0.00000000000E+00 -0.00000000000E+00 -0.44843666376E+02  0.44843666448E+02  0.25500000000E-02 0. -1.
    5000001    1    1    2    0    0 -0.19690594291E+03 -0.19391160955E+03  0.10203019978E+04  0.10743620569E+04  0.19200000000E+03 0.  0.
   -5000001    1    1    2    0    0  0.19690594291E+03  0.19391160955E+03  0.15713854648E+04  0.16070127385E+04  0.19200000000E+03 0.  0.
<mgrwt>
<rscale>  0 0.68769680E+03</rscale>
<asrwt>0</asrwt>
<pdfrwt beam="1">  1        2 0.37664744E+00 0.68769680E+03</pdfrwt>
<pdfrwt beam="2">  1       -2 0.64062357E-02 0.68769680E+03</pdfrwt>
<totfact> 0.54412883E+02</totfact>
</mgrwt>
</event>
<event>
 4    1  0.5847263E-005  0.5137024E+03  0.7818608E-02  0.1010263E+00
          2   -1    0    0  501    0  0.00000000000E+00  0.00000000000E+00  0.53686263986E+03  0.53686263987E+03  0.25500000000E-02 0.  1.
         -2   -1    0    0    0  501 -0.00000000000E+00 -0.00000000000E+00 -0.12288532217E+03  0.12288532220E+03  0.25500000000E-02 0. -1.
    5000001    1    1    2    0    0 -0.57621689808E+02 -0.14637971645E+03  0.12217372041E+03  0.27665447490E+03  0.19200000000E+03 0.  0.
   -5000001    1    1    2    0    0  0.57621689808E+02  0.14637971645E+03  0.29180359728E+03  0.38309348717E+03  0.19200000000E+03 0.  0.
<mgrwt>
<rscale>  0 0.51370240E+03</rscale>
<asrwt>0</asrwt>
<pdfrwt beam="1">  1        2 0.76694664E-01 0.51370240E+03</pdfrwt>
<pdfrwt beam="2">  1       -2 0.17555046E-01 0.51370240E+03</pdfrwt>
<totfact> 0.16513016E+03</totfact>
</mgrwt>
</event>
<event>
 4    1  0.5847263E-005  0.4399285E+03  0.7818608E-02  0.1030769E+00
         -2   -1    0    0    0  501 -0.00000000000E+00  0.00000000000E+00  0.29221305134E+02  0.29221305245E+02  0.25500000000E-02 0. -1.
          2   -1    0    0  501    0  0.00000000000E+00 -0.00000000000E+00 -0.16557875033E+04  0.16557875033E+04  0.25500000000E-02 0.  1.
    5000001    1    1    2    0    0 -0.57528016271E+02  0.70221901802E+02 -0.10326323033E+04  0.10542457313E+04  0.19200000000E+03 0.  0.
   -5000001    1    1    2    0    0  0.57528016271E+02 -0.70221901802E+02 -0.59393389491E+03  0.63076307729E+03  0.19200000000E+03 0.  0.
<mgrwt>
<rscale>  0 0.43992850E+03</rscale>
<asrwt>0</asrwt>
<pdfrwt beam="1">  1        2 0.23654101E+00 0.43992850E+03</pdfrwt>
<pdfrwt beam="2">  1       -2 0.41744732E-02 0.43992850E+03</pdfrwt>
<totfact> 0.33566510E+03</totfact>
</mgrwt>
</event>
<event>
 4    1  0.5847263E-005  0.4690842E+03  0.7818608E-02  0.1022179E+00
          2   -1    0    0  501    0  0.00000000000E+00  0.00000000000E+00  0.13761244124E+03  0.13761244126E+03  0.25500000000E-02 0.  1.
         -2   -1    0    0    0  501 -0.00000000000E+00 -0.00000000000E+00 -0.39974585776E+03  0.39974585777E+03  0.25500000000E-02 0. -1.
    5000001    1    1    2    0    0  0.11826168297E+03  0.44119212330E+02 -0.77169056400E+02  0.24238686809E+03  0.19200000000E+03 0.  0.
   -5000001    1    1    2    0    0 -0.11826168297E+03 -0.44119212330E+02 -0.18496436012E+03  0.29497143094E+03  0.19200000000E+03 0.  0.
<mgrwt>
<rscale>  0 0.46908423E+03</rscale>
<asrwt>0</asrwt>
<pdfrwt beam="1">  1        2 0.19658920E-01 0.46908423E+03</pdfrwt>
<pdfrwt beam="2">  1       -2 0.57106551E-01 0.46908423E+03</pdfrwt>
<totfact> 0.83650530E+02</totfact>
</mgrwt>
</event>
<event>
 4    1  0.5847263E-005  0.5701295E+03  0.7818608E-02  0.9969392E-01
         -2   -1    0    0    0  501 -0.00000000000E+00  0.00000000000E+00  0.57413740543E+03  0.57413740544E+03  0.25500000000E-02 0. -1.
          2   -1    0    0  501    0  0.00000000000E+00 -0.00000000000E+00 -0.14153740652E+03  0.14153740655E+03  0.25500000000E-02 0.  1.
    5000001    1    1    2    0    0  0.20805919832E+03  0.20614853644E+02  0.18346243662E+03  0.33798826584E+03  0.19200000000E+03 0.  0.
   -5000001    1    1    2    0    0 -0.20805919832E+03 -0.20614853644E+02  0.24913756229E+03  0.37768654615E+03  0.19200000000E+03 0.  0.
<mgrwt>
<rscale>  0 0.57012953E+03</rscale>
<asrwt>0</asrwt>
<pdfrwt beam="1">  1        2 0.20219629E-01 0.57012953E+03</pdfrwt>
<pdfrwt beam="2">  1       -2 0.82019629E-01 0.57012953E+03</pdfrwt>
<totfact> 0.37028136E+02</totfact>
</mgrwt>
</event>
<event>
 4    1  0.5847263E-005  0.1413575E+04  0.7818608E-02  0.8944050E-01
         -2   -1    0    0    0  501 -0.00000000000E+00  0.00000000000E+00  0.39630823972E+03  0.39630823973E+03  0.25500000000E-02 0. -1.
          2   -1    0    0  501    0  0.00000000000E+00 -0.00000000000E+00 -0.12605059707E+04  0.12605059707E+04  0.25500000000E-02 0.  1.
    5000001    1    1    2    0    0 -0.44997343426E+02  0.52493990925E+03  0.72162792301E+02  0.56538317789E+03  0.19200000000E+03 0.  0.
   -5000001    1    1    2    0    0  0.44997343426E+02 -0.52493990925E+03 -0.93636052329E+03  0.10914310326E+04  0.19200000000E+03 0.  0.
<mgrwt>
<rscale>  0 0.14135755E+04</rscale>
<asrwt>0</asrwt>
<pdfrwt beam="1">  1        2 0.18007228E+00 0.14135755E+04</pdfrwt>
<pdfrwt beam="2">  1       -2 0.56615464E-01 0.14135755E+04</pdfrwt>
<totfact> 0.56267741E+01</totfact>
</mgrwt>
</event>
<event>
 4    1  0.5847263E-005  0.7173194E+03  0.7818608E-02  0.9688064E-01
         -2   -1    0    0    0  501 -0.00000000000E+00  0.00000000000E+00  0.75219202261E+02  0.75219202304E+02  0.25500000000E-02 0. -1.
          2   -1    0    0  501    0  0.00000000000E+00 -0.00000000000E+00 -0.17101590147E+04  0.17101590147E+04  0.25500000000E-02 0.  1.
    5000001    1    1    2    0    0 -0.29416377193E+03  0.39577881022E+02 -0.96833576029E+03  0.10308427999E+04  0.19200000000E+03 0.  0.
   -5000001    1    1    2    0    0  0.29416377193E+03 -0.39577881022E+02 -0.66660405219E+03  0.75453541718E+03  0.19200000000E+03 0.  0.
<mgrwt>
<rscale>  0 0.71731945E+03</rscale>
<asrwt>0</asrwt>
<pdfrwt beam="1">  1        2 0.24430841E+00 0.71731945E+03</pdfrwt>
<pdfrwt beam="2">  1       -2 0.10745601E-01 0.71731945E+03</pdfrwt>
<totfact> 0.70215869E+02</totfact>
</mgrwt>
</event>
<event>
 4    1  0.5847263E-005  0.9082386E+03  0.7818608E-02  0.9415341E-01
          2   -1    0    0  501    0  0.00000000000E+00  0.00000000000E+00  0.30469024247E+04  0.30469024247E+04  0.25500000000E-02 0.  1.
         -2   -1    0    0    0  501 -0.00000000000E+00 -0.00000000000E+00 -0.67683269079E+02  0.67683269127E+02  0.25500000000E-02 0. -1.
    5000001    1    1    2    0    0 -0.18941443674E+03 -0.36523894452E+03  0.14583672915E+04  0.15274084170E+04  0.19200000000E+03 0.  0.
   -5000001    1    1    2    0    0  0.18941443674E+03  0.36523894452E+03  0.15208518641E+04  0.15871772768E+04  0.19200000000E+03 0.  0.
<mgrwt>
<rscale>  0 0.90823855E+03</rscale>
<asrwt>0</asrwt>
<pdfrwt beam="1">  1        2 0.43527190E+00 0.90823855E+03</pdfrwt>
<pdfrwt beam="2">  1       -2 0.96690357E-02 0.90823855E+03</pdfrwt>
<totfact> 0.16609777E+02</totfact>
</mgrwt>
</event>
<event>
 4    1  0.5847263E-005  0.6196170E+03  0.7818608E-02  0.9865523E-01
          2   -1    0    0  501    0  0.00000000000E+00  0.00000000000E+00  0.18829462548E+03  0.18829462549E+03  0.25500000000E-02 0.  1.
         -2   -1    0    0    0  501 -0.00000000000E+00 -0.00000000000E+00 -0.50974004756E+03  0.50974004757E+03  0.25500000000E-02 0. -1.
    5000001    1    1    2    0    0 -0.54709915501E+02  0.15288811747E+03 -0.36459353080E+03  0.44289998196E+03  0.19200000000E+03 0.  0.
   -5000001    1    1    2    0    0  0.54709915501E+02 -0.15288811747E+03  0.43148108712E+02  0.25513469110E+03  0.19200000000E+03 0.  0.
<mgrwt>
<rscale>  0 0.61961702E+03</rscale>
<asrwt>0</asrwt>
<pdfrwt beam="1">  1        2 0.26899232E-01 0.61961702E+03</pdfrwt>
<pdfrwt beam="2">  1       -2 0.72820006E-01 0.61961702E+03</pdfrwt>
<totfact> 0.34680490E+02</totfact>
</mgrwt>
</event>
<event>
 4    1  0.5847263E-005  0.4557605E+03  0.7818608E-02  0.1026018E+00
         -2   -1    0    0    0  501 -0.00000000000E+00  0.00000000000E+00  0.17943243970E+03  0.17943243972E+03  0.25500000000E-02 0. -1.
          2   -1    0    0  501    0  0.00000000000E+00 -0.00000000000E+00 -0.28940925573E+03  0.28940925574E+03  0.25500000000E-02 0.  1.
    5000001    1    1    2    0    0  0.76888815008E+02  0.70348142360E+02 -0.12169286795E+03  0.25006780104E+03  0.19200000000E+03 0.  0.
   -5000001    1    1    2    0    0 -0.76888815008E+02 -0.70348142360E+02  0.11716051925E+02  0.21877389442E+03  0.19200000000E+03 0.  0.
<mgrwt>
<rscale>  0 0.45576050E+03</rscale>
<asrwt>0</asrwt>
<pdfrwt beam="1">  1        2 0.41344179E-01 0.45576050E+03</pdfrwt>
<pdfrwt beam="2">  1       -2 0.25633206E-01 0.45576050E+03</pdfrwt>
<totfact> 0.16895393E+03</totfact>
</mgrwt>
</event>
<event>
 4    1  0.5847263E-005  0.8937656E+03  0.7818608E-02  0.9433409E-01
          2   -1    0    0  501    0  0.00000000000E+00  0.00000000000E+00  0.35920568561E+03  0.35920568562E+03  0.25500000000E-02 0.  1.
         -2   -1    0    0    0  501 -0.00000000000E+00 -0.00000000000E+00 -0.55596062505E+03  0.55596062506E+03  0.25500000000E-02 0. -1.
    5000001    1    1    2    0    0  0.10827376608E+03  0.15898475029E+03  0.26485715998E+03  0.37949001889E+03  0.19200000000E+03 0.  0.
   -5000001    1    1    2    0    0 -0.10827376608E+03 -0.15898475029E+03 -0.46161209942E+03  0.53567629178E+03  0.19200000000E+03 0.  0.
<mgrwt>
<rscale>  0 0.89376556E+03</rscale>
<asrwt>0</asrwt>
<pdfrwt beam="1">  1        2 0.51315098E-01 0.89376556E+03</pdfrwt>
<pdfrwt beam="2">  1       -2 0.79422946E-01 0.89376556E+03</pdfrwt>
<totfact> 0.13763242E+02</totfact>
</mgrwt>
</event>
<event>
 4    1  0.5847263E-005  0.6368361E+03  0.7818608E-02  0.9831799E-01
         -2   -1    0    0    0  501 -0.00000000000E+00  0.00000000000E+00  0.19380140703E+02  0.19380140871E+02  0.25500000000E-02 0. -1.
          2   -1    0    0  501    0  0.00000000000E+00 -0.00000000000E+00 -0.52316475495E+04  0.52316475495E+04  0.25500000000E-02 0.  1.
    5000001    1    1    2    0    0  0.77780227462E+02  0.23909209585E+03 -0.23075521326E+04  0.23291362430E+04  0.19200000000E+03 0.  0.
   -5000001    1    1    2    0    0 -0.77780227462E+02 -0.23909209585E+03 -0.29047152762E+04  0.29218914474E+04  0.19200000000E+03 0.  0.
<mgrwt>
<rscale>  0 0.63683614E+03</rscale>
<asrwt>0</asrwt>
<pdfrwt beam="1">  1        2 0.74737732E+00 0.63683614E+03</pdfrwt>
<pdfrwt beam="2">  1       -2 0.27685949E-02 0.63683614E+03</pdfrwt>
<totfact> 0.31079812E+01</totfact>
</mgrwt>
</event>
<event>
 4    1  0.5847263E-005  0.5477476E+03  0.7818608E-02  0.1002017E+00
         -2   -1    0    0    0  501 -0.00000000000E+00  0.00000000000E+00  0.95387919270E+02  0.95387919304E+02  0.25500000000E-02 0. -1.
          2   -1    0    0  501    0  0.00000000000E+00 -0.00000000000E+00 -0.78633503758E+03  0.78633503759E+03  0.25500000000E-02 0.  1.
    5000001    1    1    2    0    0 -0.12940325499E+03 -0.11538481611E+03 -0.20074143519E+03  0.32744462432E+03  0.19200000000E+03 0.  0.
   -5000001    1    1    2    0    0  0.12940325499E+03  0.11538481611E+03 -0.49020568313E+03  0.55427833258E+03  0.19200000000E+03 0.  0.
<mgrwt>
<rscale>  0 0.54774762E+03</rscale>
<asrwt>0</asrwt>
<pdfrwt beam="1">  1        2 0.11233357E+00 0.54774762E+03</pdfrwt>
<pdfrwt beam="2">  1       -2 0.13626846E-01 0.54774762E+03</pdfrwt>
<totfact> 0.16017968E+03</totfact>
</mgrwt>
</event>
<event>
 4    1  0.5847263E-005  0.8400807E+03  0.7818608E-02  0.9503748E-01
          2   -1    0    0  501    0  0.00000000000E+00  0.00000000000E+00  0.21766331235E+03  0.21766331237E+03  0.25500000000E-02 0.  1.
         -2   -1    0    0    0  501 -0.00000000000E+00 -0.00000000000E+00 -0.81058162637E+03  0.81058162638E+03  0.25500000000E-02 0. -1.
    5000001    1    1    2    0    0  0.29915945320E+03  0.21238815938E+03 -0.21021587196E+03  0.46439188355E+03  0.19200000000E+03 0.  0.
   -5000001    1    1    2    0    0 -0.29915945320E+03 -0.21238815938E+03 -0.38270244206E+03  0.56385305519E+03  0.19200000000E+03 0.  0.
<mgrwt>
<rscale>  0 0.84008067E+03</rscale>
<asrwt>0</asrwt>
<pdfrwt beam="1">  1        2 0.31094759E-01 0.84008067E+03</pdfrwt>
<pdfrwt beam="2">  1       -2 0.11579737E+00 0.84008067E+03</pdfrwt>
<totfact> 0.99652871E+01</totfact>
</mgrwt>
</event>
<event>
 4    1  0.5847263E-005  0.1160018E+04  0.7818608E-02  0.9148591E-01
         -2   -1    0    0    0  501 -0.00000000000E+00  0.00000000000E+00  0.98466865159E+03  0.98466865160E+03  0.25500000000E-02 0. -1.
          2   -1    0    0  501    0  0.00000000000E+00 -0.00000000000E+00 -0.34164819522E+03  0.34164819523E+03  0.25500000000E-02 0.  1.
    5000001    1    1    2    0    0  0.53818980485E+03  0.98914377768E+02  0.30930530242E+03  0.65724127250E+03  0.19200000000E+03 0.  0.
   -5000001    1    1    2    0    0 -0.53818980485E+03 -0.98914377768E+02  0.33371515396E+03  0.66907557432E+03  0.19200000000E+03 0.  0.
<mgrwt>
<rscale>  0 0.11600177E+04</rscale>
<asrwt>0</asrwt>
<pdfrwt beam="1">  1        2 0.48806885E-01 0.11600177E+04</pdfrwt>
<pdfrwt beam="2">  1       -2 0.14066695E+00 0.11600177E+04</pdfrwt>
<totfact> 0.36208997E+01</totfact>
</mgrwt>
</event>
<event>
 4    1  0.5847263E-005  0.4410270E+03  0.7818608E-02  0.1030432E+00
         -2   -1    0    0    0  501 -0.00000000000E+00  0.00000000000E+00  0.43897235705E+02  0.43897235779E+02  0.25500000000E-02 0. -1.
          2   -1    0    0  501    0  0.00000000000E+00 -0.00000000000E+00 -0.11077279704E+04  0.11077279704E+04  0.25500000000E-02 0.  1.
    5000001    1    1    2    0    0 -0.28443018571E+02 -0.81877346004E+02 -0.36169785335E+03  0.41857166915E+03  0.19200000000E+03 0.  0.
   -5000001    1    1    2    0    0  0.28443018571E+02  0.81877346004E+02 -0.70213288136E+03  0.73305353705E+03  0.19200000000E+03 0.  0.
<mgrwt>
<rscale>  0 0.44102696E+03</rscale>
<asrwt>0</asrwt>
<pdfrwt beam="1">  1        2 0.15824684E+00 0.44102696E+03</pdfrwt>
<pdfrwt beam="2">  1       -2 0.62710344E-02 0.44102696E+03</pdfrwt>
<totfact> 0.35018778E+03</totfact>
</mgrwt>
</event>
<event>
 4    1  0.5847263E-005  0.5231613E+03  0.7818608E-02  0.1007904E+00
         -2   -1    0    0    0  501 -0.00000000000E+00  0.00000000000E+00  0.34575641358E+02  0.34575641452E+02  0.25500000000E-02 0. -1.
          2   -1    0    0  501    0  0.00000000000E+00 -0.00000000000E+00 -0.19789779249E+04  0.19789779250E+04  0.25500000000E-02 0.  1.
    5000001    1    1    2    0    0 -0.80595226422E+02 -0.15777294021E+03 -0.92164518110E+03  0.95795706116E+03  0.19200000000E+03 0.  0.
   -5000001    1    1    2    0    0  0.80595226422E+02  0.15777294021E+03 -0.10227571025E+04  0.10555965052E+04  0.19200000000E+03 0.  0.
<mgrwt>
<rscale>  0 0.52316128E+03</rscale>
<asrwt>0</asrwt>
<pdfrwt beam="1">  1        2 0.28271106E+00 0.52316128E+03</pdfrwt>
<pdfrwt beam="2">  1       -2 0.49393786E-02 0.52316128E+03</pdfrwt>
<totfact> 0.17807821E+03</totfact>
</mgrwt>
</event>
<event>
 4    1  0.5847263E-005  0.7292207E+03  0.7818608E-02  0.9668526E-01
          2   -1    0    0  501    0  0.00000000000E+00  0.00000000000E+00  0.62873679293E+03  0.62873679293E+03  0.25500000000E-02 0.  1.
         -2   -1    0    0    0  501 -0.00000000000E+00 -0.00000000000E+00 -0.21144095172E+03  0.21144095173E+03  0.25500000000E-02 0. -1.
    5000001    1    1    2    0    0  0.30085737700E+03 -0.27694231746E+02  0.28842666665E+03  0.45971303419E+03  0.19200000000E+03 0.  0.
   -5000001    1    1    2    0    0 -0.30085737700E+03  0.27694231746E+02  0.12886917456E+03  0.38046471048E+03  0.19200000000E+03 0.  0.
<mgrwt>
<rscale>  0 0.72922070E+03</rscale>
<asrwt>0</asrwt>
<pdfrwt beam="1">  1        2 0.89819542E-01 0.72922070E+03</pdfrwt>
<pdfrwt beam="2">  1       -2 0.30205850E-01 0.72922070E+03</pdfrwt>
<totfact> 0.52148656E+02</totfact>
</mgrwt>
</event>
<event>
 4    1  0.5847263E-005  0.4949944E+03  0.7818608E-02  0.1015094E+00
          2   -1    0    0  501    0  0.00000000000E+00  0.00000000000E+00  0.96284048566E+03  0.96284048567E+03  0.25500000000E-02 0.  1.
         -2   -1    0    0    0  501 -0.00000000000E+00 -0.00000000000E+00 -0.63618913838E+02  0.63618913889E+02  0.25500000000E-02 0. -1.
    5000001    1    1    2    0    0 -0.11259696470E+03 -0.10672485244E+03  0.41236556738E+03  0.48060132308E+03  0.19200000000E+03 0.  0.
   -5000001    1    1    2    0    0  0.11259696470E+03  0.10672485244E+03  0.48685600445E+03  0.54585807647E+03  0.19200000000E+03 0.  0.
<mgrwt>
<rscale>  0 0.49499441E+03</rscale>
<asrwt>0</asrwt>
<pdfrwt beam="1">  1        2 0.13754865E+00 0.49499441E+03</pdfrwt>
<pdfrwt beam="2">  1       -2 0.90884154E-02 0.49499441E+03</pdfrwt>
<totfact> 0.23770003E+03</totfact>
</mgrwt>
</event>
<event>
 4    1  0.5847263E-005  0.5115747E+03  0.7818608E-02  0.1010801E+00
          2   -1    0    0  501    0  0.00000000000E+00  0.00000000000E+00  0.17923853994E+04  0.17923853994E+04  0.25500000000E-02 0.  1.
         -2   -1    0    0    0  501 -0.00000000000E+00 -0.00000000000E+00 -0.36502850306E+02  0.36502850395E+02  0.25500000000E-02 0. -1.
    5000001    1    1    2    0    0 -0.30252150668E+02  0.14294044327E+03  0.11816286523E+04  0.12060088868E+04  0.19200000000E+03 0.  0.
   -5000001    1    1    2    0    0  0.30252150668E+02 -0.14294044327E+03  0.57425389674E+03  0.62287936301E+03  0.19200000000E+03 0.  0.
<mgrwt>
<rscale>  0 0.51157473E+03</rscale>
<asrwt>0</asrwt>
<pdfrwt beam="1">  1        2 0.25605515E+00 0.51157473E+03</pdfrwt>
<pdfrwt beam="2">  1       -2 0.52146910E-02 0.51157473E+03</pdfrwt>
<totfact> 0.20313623E+03</totfact>
</mgrwt>
</event>
<event>
 4    1  0.5847263E-005  0.4603897E+03  0.7818608E-02  0.1024668E+00
         -2   -1    0    0    0  501 -0.00000000000E+00  0.00000000000E+00  0.11553595152E+03  0.11553595155E+03  0.25500000000E-02 0. -1.
          2   -1    0    0  501    0  0.00000000000E+00 -0.00000000000E+00 -0.45864223062E+03  0.45864223063E+03  0.25500000000E-02 0.  1.
    5000001    1    1    2    0    0 -0.10680447499E+03 -0.67479196124E+02 -0.15553172357E+03  0.27751532358E+03  0.19200000000E+03 0.  0.
   -5000001    1    1    2    0    0  0.10680447499E+03  0.67479196124E+02 -0.18757455553E+03  0.29666285859E+03  0.19200000000E+03 0.  0.
<mgrwt>
<rscale>  0 0.46038969E+03</rscale>
<asrwt>0</asrwt>
<pdfrwt beam="1">  1        2 0.65520318E-01 0.46038969E+03</pdfrwt>
<pdfrwt beam="2">  1       -2 0.16505136E-01 0.46038969E+03</pdfrwt>
<totfact> 0.21892614E+03</totfact>
</mgrwt>
</event>
<event>
 4    1  0.5847263E-005  0.7681715E+03  0.7818608E-02  0.9607266E-01
          2   -1    0    0  501    0  0.00000000000E+00  0.00000000000E+00  0.13173299820E+04  0.13173299820E+04  0.25500000000E-02 0.  1.
         -2   -1    0    0    0  501 -0.00000000000E+00 -0.00000000000E+00 -0.11198550481E+03  0.11198550484E+03  0.25500000000E-02 0. -1.
    5000001    1    1    2    0    0 -0.17656960369E+03 -0.18979005674E+03  0.99057121185E+03  0.10417736877E+04  0.19200000000E+03 0.  0.
   -5000001    1    1    2    0    0  0.17656960369E+03  0.18979005674E+03  0.21477326532E+03  0.38754179914E+03  0.19200000000E+03 0.  0.
<mgrwt>
<rscale>  0 0.76817150E+03</rscale>
<asrwt>0</asrwt>
<pdfrwt beam="1">  1        2 0.18819000E+00 0.76817150E+03</pdfrwt>
<pdfrwt beam="2">  1       -2 0.15997929E-01 0.76817150E+03</pdfrwt>
<totfact> 0.58012441E+02</totfact>
</mgrwt>
</event>
<event>
 4    1  0.5847263E-005  0.6138980E+03  0.7818608E-02  0.9876984E-01
          2   -1    0    0  501    0  0.00000000000E+00  0.00000000000E+00  0.25649944938E+04  0.25649944938E+04  0.25500000000E-02 0. -1.
         -2   -1    0    0    0  501 -0.00000000000E+00 -0.00000000000E+00 -0.36732116539E+02  0.36732116628E+02  0.25500000000E-02 0.  1.
    5000001    1    1    2    0    0  0.18462908655E+03 -0.10986066104E+03  0.81569060426E+03  0.86508521333E+03  0.19200000000E+03 0.  0.
   -5000001    1    1    2    0    0 -0.18462908655E+03  0.10986066104E+03  0.17125717730E+04  0.17366413971E+04  0.19200000000E+03 0.  0.
<mgrwt>
<rscale>  0 0.61389796E+03</rscale>
<asrwt>0</asrwt>
<pdfrwt beam="1">  1        2 0.36642775E+00 0.61389796E+03</pdfrwt>
<pdfrwt beam="2">  1       -2 0.52474458E-02 0.61389796E+03</pdfrwt>
<totfact> 0.81487646E+02</totfact>
</mgrwt>
</event>
<event>
 4    1  0.5847263E-005  0.4986148E+03  0.7818608E-02  0.1014141E+00
         -2   -1    0    0    0  501 -0.00000000000E+00  0.00000000000E+00  0.45061116808E+03  0.45061116809E+03  0.25500000000E-02 0. -1.
          2   -1    0    0  501    0  0.00000000000E+00 -0.00000000000E+00 -0.13793306275E+03  0.13793306277E+03  0.25500000000E-02 0.  1.
    5000001    1    1    2    0    0 -0.67117572419E+02  0.29926506109E+02  0.32280649590E+03  0.38271189960E+03  0.19200000000E+03 0.  0.
   -5000001    1    1    2    0    0  0.67117572419E+02 -0.29926506109E+02 -0.10128390572E+02  0.20583233126E+03  0.19200000000E+03 0.  0.
<mgrwt>
<rscale>  0 0.49861480E+03</rscale>
<asrwt>0</asrwt>
<pdfrwt beam="1">  1        2 0.19704723E-01 0.49861480E+03</pdfrwt>
<pdfrwt beam="2">  1       -2 0.64373025E-01 0.49861480E+03</pdfrwt>
<totfact> 0.64880561E+02</totfact>
</mgrwt>
</event>
<event>
 4    1  0.5847263E-005  0.1057788E+04  0.7818608E-02  0.9247340E-01
         -2   -1    0    0    0  501 -0.00000000000E+00  0.00000000000E+00  0.39811002437E+03  0.39811002438E+03  0.25500000000E-02 0. -1.
          2   -1    0    0  501    0  0.00000000000E+00 -0.00000000000E+00 -0.70264240120E+03  0.70264240120E+03  0.25500000000E-02 0.  1.
    5000001    1    1    2    0    0 -0.47483919131E+03  0.10920527760E+03 -0.75324306220E+02  0.52908959673E+03  0.19200000000E+03 0.  0.
   -5000001    1    1    2    0    0  0.47483919131E+03 -0.10920527760E+03 -0.22920807061E+03  0.57166282885E+03  0.19200000000E+03 0.  0.
<mgrwt>
<rscale>  0 0.10577882E+04</rscale>
<asrwt>0</asrwt>
<pdfrwt beam="1">  1        2 0.10037748E+00 0.10577882E+04</pdfrwt>
<pdfrwt beam="2">  1       -2 0.56872861E-01 0.10577882E+04</pdfrwt>
<totfact> 0.12930818E+02</totfact>
</mgrwt>
</event>
<event>
 4    1  0.5847263E-005  0.4488976E+03  0.7818608E-02  0.1028051E+00
          2   -1    0    0  501    0  0.00000000000E+00  0.00000000000E+00  0.20311942929E+03  0.20311942931E+03  0.25500000000E-02 0.  1.
         -2   -1    0    0    0  501 -0.00000000000E+00 -0.00000000000E+00 -0.24801792128E+03  0.24801792130E+03  0.25500000000E-02 0. -1.
    5000001    1    1    2    0    0  0.34670424445E+02 -0.11072847505E+03 -0.15312750910E+02  0.22485843070E+03  0.19200000000E+03 0.  0.
   -5000001    1    1    2    0    0 -0.34670424445E+02  0.11072847505E+03 -0.29585741080E+02  0.22627891990E+03  0.19200000000E+03 0.  0.
<mgrwt>
<rscale>  0 0.44889758E+03</rscale>
<asrwt>0</asrwt>
<pdfrwt beam="1">  1        2 0.29017061E-01 0.44889758E+03</pdfrwt>
<pdfrwt beam="2">  1       -2 0.35431132E-01 0.44889758E+03</pdfrwt>
<totfact> 0.13777556E+03</totfact>
</mgrwt>
</event>
<event>
 4    1  0.5847263E-005  0.9436944E+03  0.7818608E-02  0.9372551E-01
         -2   -1    0    0    0  501 -0.00000000000E+00  0.00000000000E+00  0.12553749747E+03  0.12553749749E+03  0.25500000000E-02 0. -1.
          2   -1    0    0  501    0  0.00000000000E+00 -0.00000000000E+00 -0.17734922678E+04  0.17734922678E+04  0.25500000000E-02 0.  1.
    5000001    1    1    2    0    0  0.23281300346E+03  0.17947110326E+03 -0.18964782955E+03  0.39905146378E+03  0.19200000000E+03 0.  0.
   -5000001    1    1    2    0    0 -0.23281300346E+03 -0.17947110326E+03 -0.14583069408E+04  0.14999783016E+04  0.19200000000E+03 0.  0.
<mgrwt>
<rscale>  0 0.94369440E+03</rscale>
<asrwt>0</asrwt>
<pdfrwt beam="1">  1        2 0.25335602E+00 0.94369440E+03</pdfrwt>
<pdfrwt beam="2">  1       -2 0.17933929E-01 0.94369440E+03</pdfrwt>
<totfact> 0.27187931E+02</totfact>
</mgrwt>
</event>
<event>
 4    1  0.5847263E-005  0.5954512E+03  0.7818608E-02  0.9914889E-01
         -2   -1    0    0    0  501 -0.00000000000E+00  0.00000000000E+00  0.49397019888E+02  0.49397019954E+02  0.25500000000E-02 0. -1.
          2   -1    0    0  501    0  0.00000000000E+00 -0.00000000000E+00 -0.17944509767E+04  0.17944509767E+04  0.25500000000E-02 0.  1.
    5000001    1    1    2    0    0 -0.16439163481E+03 -0.67286948500E+02 -0.43215808228E+03  0.50515022629E+03  0.19200000000E+03 0.  0.
   -5000001    1    1    2    0    0  0.16439163481E+03  0.67286948500E+02 -0.13128958745E+04  0.13386977703E+04  0.19200000000E+03 0.  0.
<mgrwt>
<rscale>  0 0.59545119E+03</rscale>
<asrwt>0</asrwt>
<pdfrwt beam="1">  1        2 0.25635010E+00 0.59545119E+03</pdfrwt>
<pdfrwt beam="2">  1       -2 0.70567183E-02 0.59545119E+03</pdfrwt>
<totfact> 0.12581993E+03</totfact>
</mgrwt>
</event>
<event>
 4    1  0.5847263E-005  0.6377548E+03  0.7818608E-02  0.9830032E-01
         -2   -1    0    0    0  501 -0.00000000000E+00  0.00000000000E+00  0.15571935032E+03  0.15571935034E+03  0.25500000000E-02 0. -1.
          2   -1    0    0  501    0  0.00000000000E+00 -0.00000000000E+00 -0.65298754196E+03  0.65298754197E+03  0.25500000000E-02 0.  1.
    5000001    1    1    2    0    0 -0.22860375779E+03 -0.98193014989E+02 -0.18014456364E+03  0.36223971356E+03  0.19200000000E+03 0.  0.
   -5000001    1    1    2    0    0  0.22860375779E+03  0.98193014989E+02 -0.31712362800E+03  0.44646717875E+03  0.19200000000E+03 0.  0.
<mgrwt>
<rscale>  0 0.63775480E+03</rscale>
<asrwt>0</asrwt>
<pdfrwt beam="1">  1        2 0.93283933E-01 0.63775480E+03</pdfrwt>
<pdfrwt beam="2">  1       -2 0.22245622E-01 0.63775480E+03</pdfrwt>
<totfact> 0.86893019E+02</totfact>
</mgrwt>
</event>
<event>
 4    1  0.5847263E-005  0.6252852E+03  0.7818608E-02  0.9854293E-01
         -2   -1    0    0    0  501 -0.00000000000E+00  0.00000000000E+00  0.39328637872E+02  0.39328637954E+02  0.25500000000E-02 0. -1.
          2   -1    0    0  501    0  0.00000000000E+00 -0.00000000000E+00 -0.24853494703E+04  0.24853494703E+04  0.25500000000E-02 0.  1.
    5000001    1    1    2    0    0  0.11346042192E+03  0.24176166173E+02 -0.21022866711E+04  0.21142211337E+04  0.19200000000E+03 0.  0.
   -5000001    1    1    2    0    0 -0.11346042192E+03 -0.24176166173E+02 -0.34373416125E+03  0.41045697456E+03  0.19200000000E+03 0.  0.
<mgrwt>
<rscale>  0 0.62528525E+03</rscale>
<asrwt>0</asrwt>
<pdfrwt beam="1">  1        2 0.35504983E+00 0.62528525E+03</pdfrwt>
<pdfrwt beam="2">  1       -2 0.56183784E-02 0.62528525E+03</pdfrwt>
<totfact> 0.80442396E+02</totfact>
</mgrwt>
</event>
<event>
 4    1  0.5847263E-005  0.9193019E+03  0.7818608E-02  0.9401770E-01
         -2   -1    0    0    0  501 -0.00000000000E+00  0.00000000000E+00  0.18851487852E+03  0.18851487853E+03  0.25500000000E-02 0. -1.
          2   -1    0    0  501    0  0.00000000000E+00 -0.00000000000E+00 -0.11207550821E+04  0.11207550821E+04  0.25500000000E-02 0.  1.
    5000001    1    1    2    0    0  0.16538772363E+03  0.38051081074E+03 -0.39821349779E+03  0.60628340406E+03  0.19200000000E+03 0.  0.
   -5000001    1    1    2    0    0 -0.16538772363E+03 -0.38051081074E+03 -0.53402670575E+03  0.70298655654E+03  0.19200000000E+03 0.  0.
<mgrwt>
<rscale>  0 0.91930193E+03</rscale>
<asrwt>0</asrwt>
<pdfrwt beam="1">  1        2 0.16010787E+00 0.91930193E+03</pdfrwt>
<pdfrwt beam="2">  1       -2 0.26930697E-01 0.91930193E+03</pdfrwt>
<totfact> 0.29702856E+02</totfact>
</mgrwt>
</event>
<event>
 4    1  0.5847263E-005  0.5574566E+03  0.7818608E-02  0.9997826E-01
          2   -1    0    0  501    0  0.00000000000E+00  0.00000000000E+00  0.85775286699E+03  0.85775286699E+03  0.25500000000E-02 0.  1.
         -2   -1    0    0    0  501 -0.00000000000E+00 -0.00000000000E+00 -0.90573245865E+02  0.90573245901E+02  0.25500000000E-02 0. -1.
    5000001    1    1    2    0    0  0.70368832445E+02  0.13325603149E+03  0.15461693758E+03  0.28892791471E+03  0.19200000000E+03 0.  0.
   -5000001    1    1    2    0    0 -0.70368832445E+02 -0.13325603149E+03  0.61256268354E+03  0.65939819819E+03  0.19200000000E+03 0.  0.
<mgrwt>
<rscale>  0 0.55745659E+03</rscale>
<asrwt>0</asrwt>
<pdfrwt beam="1">  1        2 0.12253613E+00 0.55745659E+03</pdfrwt>
<pdfrwt beam="2">  1       -2 0.12939035E-01 0.55745659E+03</pdfrwt>
<totfact> 0.15607653E+03</totfact>
</mgrwt>
</event>
<event>
 4    1  0.5847263E-005  0.4398158E+03  0.7818608E-02  0.1030803E+00
         -2   -1    0    0    0  501 -0.00000000000E+00  0.00000000000E+00  0.35239749844E+03  0.35239749844E+03  0.25500000000E-02 0. -1.
          2   -1    0    0  501    0  0.00000000000E+00 -0.00000000000E+00 -0.13722994525E+03  0.13722994527E+03  0.25500000000E-02 0.  1.
    5000001    1    1    2    0    0 -0.31569843380E+02 -0.75265786717E+02  0.18498423691E+03  0.27882747635E+03  0.19200000000E+03 0.  0.
   -5000001    1    1    2    0    0  0.31569843380E+02  0.75265786717E+02  0.30183316275E+02  0.21079996737E+03  0.19200000000E+03 0.  0.
<mgrwt>
<rscale>  0 0.43981582E+03</rscale>
<asrwt>0</asrwt>
<pdfrwt beam="1">  1        2 0.19604278E-01 0.43981582E+03</pdfrwt>
<pdfrwt beam="2">  1       -2 0.50342500E-01 0.43981582E+03</pdfrwt>
<totfact> 0.10856994E+03</totfact>
</mgrwt>
</event>
<event>
 4    1  0.5847263E-005  0.1375231E+04  0.7818608E-02  0.8971945E-01
         -2   -1    0    0    0  501 -0.00000000000E+00  0.00000000000E+00  0.31326803112E+03  0.31326803113E+03  0.25500000000E-02 0. -1.
          2   -1    0    0  501    0  0.00000000000E+00 -0.00000000000E+00 -0.15092994313E+04  0.15092994313E+04  0.25500000000E-02 0.  1.
    5000001    1    1    2    0    0  0.41073600565E+03  0.47630584705E+02  0.84186649722E+02  0.46359910583E+03  0.19200000000E+03 0.  0.
   -5000001    1    1    2    0    0 -0.41073600565E+03 -0.47630584705E+02 -0.12802180499E+04  0.13589683566E+04  0.19200000000E+03 0.  0.
<mgrwt>
<rscale>  0 0.13752313E+04</rscale>
<asrwt>0</asrwt>
<pdfrwt beam="1">  1        2 0.21561420E+00 0.13752313E+04</pdfrwt>
<pdfrwt beam="2">  1       -2 0.44752576E-01 0.13752313E+04</pdfrwt>
<totfact> 0.66759335E+01</totfact>
</mgrwt>
</event>
<event>
 4    1  0.5847263E-005  0.4948735E+03  0.7818608E-02  0.1015126E+00
          2   -1    0    0  501    0  0.00000000000E+00  0.00000000000E+00  0.17634800288E+04  0.17634800288E+04  0.25500000000E-02 0.  1.
         -2   -1    0    0    0  501 -0.00000000000E+00 -0.00000000000E+00 -0.34718252380E+02  0.34718252473E+02  0.25500000000E-02 0. -1.
    5000001    1    1    2    0    0  0.14915927447E+03  0.28910661610E+02  0.73455067172E+03  0.77428225140E+03  0.19200000000E+03 0.  0.
   -5000001    1    1    2    0    0 -0.14915927447E+03 -0.28910661610E+02  0.99421110473E+03  0.10239160299E+04  0.19200000000E+03 0.  0.
<mgrwt>
<rscale>  0 0.49487350E+03</rscale>
<asrwt>0</asrwt>
<pdfrwt beam="1">  1        2 0.25192577E+00 0.49487350E+03</pdfrwt>
<pdfrwt beam="2">  1       -2 0.49597494E-02 0.49487350E+03</pdfrwt>
<totfact> 0.22709529E+03</totfact>
</mgrwt>
</event>
<event>
 4    1  0.5847263E-005  0.1402261E+04  0.7818608E-02  0.8952184E-01
          2   -1    0    0  501    0  0.00000000000E+00  0.00000000000E+00  0.12088392047E+04  0.12088392047E+04  0.25500000000E-02 0.  1.
         -2   -1    0    0    0  501 -0.00000000000E+00 -0.00000000000E+00 -0.40665784609E+03  0.40665784610E+03  0.25500000000E-02 0. -1.
    5000001    1    1    2    0    0 -0.57852110702E+03  0.30838387396E+03  0.58300280762E+03  0.89807770192E+03  0.19200000000E+03 0.  0.
   -5000001    1    1    2    0    0  0.57852110702E+03 -0.30838387396E+03  0.21917855102E+03  0.71741934892E+03  0.19200000000E+03 0.  0.
<mgrwt>
<rscale>  0 0.14022610E+04</rscale>
<asrwt>0</asrwt>
<pdfrwt beam="1">  1        2 0.17269131E+00 0.14022610E+04</pdfrwt>
<pdfrwt beam="2">  1       -2 0.58093978E-01 0.14022610E+04</pdfrwt>
<totfact> 0.57060330E+01</totfact>
</mgrwt>
</event>
<event>
 4    1  0.5847263E-005  0.4694271E+03  0.7818608E-02  0.1022082E+00
         -2   -1    0    0    0  501 -0.00000000000E+00  0.00000000000E+00  0.45215384574E+02  0.45215384646E+02  0.25500000000E-02 0. -1.
          2   -1    0    0  501    0  0.00000000000E+00 -0.00000000000E+00 -0.12184005953E+04  0.12184005953E+04  0.25500000000E-02 0.  1.
    5000001    1    1    2    0    0 -0.67094828279E+02  0.94333741401E+02 -0.39959534571E+03  0.45819320277E+03  0.19200000000E+03 0.  0.
   -5000001    1    1    2    0    0  0.67094828279E+02 -0.94333741401E+02 -0.77358986500E+03  0.80542277716E+03  0.19200000000E+03 0.  0.
<mgrwt>
<rscale>  0 0.46942710E+03</rscale>
<asrwt>0</asrwt>
<pdfrwt beam="1">  1        2 0.17405721E+00 0.46942710E+03</pdfrwt>
<pdfrwt beam="2">  1       -2 0.64593414E-02 0.46942710E+03</pdfrwt>
<totfact> 0.28980906E+03</totfact>
</mgrwt>
</event>
<event>
 4    1  0.5847263E-005  0.5224840E+03  0.7818608E-02  0.1008071E+00
          2   -1    0    0  501    0  0.00000000000E+00  0.00000000000E+00  0.19513534725E+04  0.19513534725E+04  0.25500000000E-02 0.  1.
         -2   -1    0    0    0  501 -0.00000000000E+00 -0.00000000000E+00 -0.34974384649E+02  0.34974384742E+02  0.25500000000E-02 0. -1.
    5000001    1    1    2    0    0  0.17683764510E+02 -0.16239905785E+03  0.12187438525E+04  0.12445427865E+04  0.19200000000E+03 0.  0.
   -5000001    1    1    2    0    0 -0.17683764510E+02  0.16239905785E+03  0.69763523535E+03  0.74178507070E+03  0.19200000000E+03 0.  0.
<mgrwt>
<rscale>  0 0.52248402E+03</rscale>
<asrwt>0</asrwt>
<pdfrwt beam="1">  1        2 0.27876479E+00 0.52248402E+03</pdfrwt>
<pdfrwt beam="2">  1       -2 0.49963406E-02 0.52248402E+03</pdfrwt>
<totfact> 0.18060620E+03</totfact>
</mgrwt>
</event>
<event>
 4    1  0.5847263E-005  0.5278220E+03  0.7818608E-02  0.1006762E+00
         -2   -1    0    0    0  501 -0.00000000000E+00  0.00000000000E+00  0.84545128108E+02  0.84545128147E+02  0.25500000000E-02 0. -1.
          2   -1    0    0  501    0  0.00000000000E+00 -0.00000000000E+00 -0.82380867358E+03  0.82380867358E+03  0.25500000000E-02 0.  1.
    5000001    1    1    2    0    0 -0.15857140252E+03 -0.19035847008E+02 -0.22281815676E+03  0.33469267119E+03  0.19200000000E+03 0.  0.
   -5000001    1    1    2    0    0  0.15857140252E+03  0.19035847008E+02 -0.51644538871E+03  0.57366113054E+03  0.19200000000E+03 0.  0.
<mgrwt>
<rscale>  0 0.52782198E+03</rscale>
<asrwt>0</asrwt>
<pdfrwt beam="1">  1        2 0.11768695E+00 0.52782198E+03</pdfrwt>
<pdfrwt beam="2">  1       -2 0.12077876E-01 0.52782198E+03</pdfrwt>
<totfact> 0.18428281E+03</totfact>
</mgrwt>
</event>
<event>
 4    1  0.5847263E-005  0.8476149E+03  0.7818608E-02  0.9493544E-01
          2   -1    0    0  501    0  0.00000000000E+00  0.00000000000E+00  0.10731851491E+04  0.10731851491E+04  0.25500000000E-02 0.  1.
         -2   -1    0    0    0  501 -0.00000000000E+00 -0.00000000000E+00 -0.16736416804E+03  0.16736416806E+03  0.25500000000E-02 0. -1.
    5000001    1    1    2    0    0 -0.25247849716E+02 -0.27432161327E+03  0.83134889905E+03  0.89660180313E+03  0.19200000000E+03 0.  0.
   -5000001    1    1    2    0    0  0.25247849716E+02  0.27432161327E+03  0.74472082036E+02  0.34394751405E+03  0.19200000000E+03 0.  0.
<mgrwt>
<rscale>  0 0.84761486E+03</rscale>
<asrwt>0</asrwt>
<pdfrwt beam="1">  1        2 0.15331217E+00 0.84761486E+03</pdfrwt>
<pdfrwt beam="2">  1       -2 0.23909166E-01 0.84761486E+03</pdfrwt>
<totfact> 0.39436603E+02</totfact>
</mgrwt>
</event>
<event>
 4    1  0.5847263E-005  0.6195645E+03  0.7818608E-02  0.9865627E-01
         -2   -1    0    0    0  501 -0.00000000000E+00  0.00000000000E+00  0.20491967984E+03  0.20491967986E+03  0.25500000000E-02 0. -1.
          2   -1    0    0  501    0  0.00000000000E+00 -0.00000000000E+00 -0.46830559490E+03  0.46830559491E+03  0.25500000000E-02 0.  1.
    5000001    1    1    2    0    0  0.22324198250E+03  0.51000192708E+02 -0.22039013483E+03  0.37131363285E+03  0.19200000000E+03 0.  0.
   -5000001    1    1    2    0    0 -0.22324198250E+03 -0.51000192708E+02 -0.42995780231E+02  0.30191164192E+03  0.19200000000E+03 0.  0.
<mgrwt>
<rscale>  0 0.61956447E+03</rscale>
<asrwt>0</asrwt>
<pdfrwt beam="1">  1        2 0.66900799E-01 0.61956447E+03</pdfrwt>
<pdfrwt beam="2">  1       -2 0.29274240E-01 0.61956447E+03</pdfrwt>
<totfact> 0.77941818E+02</totfact>
</mgrwt>
</event>
<event>
 4    1  0.5847263E-005  0.4939905E+03  0.7818608E-02  0.1015359E+00
         -2   -1    0    0    0  501 -0.00000000000E+00  0.00000000000E+00  0.78806799477E+02  0.78806799518E+02  0.25500000000E-02 0. -1.
          2   -1    0    0  501    0  0.00000000000E+00 -0.00000000000E+00 -0.77412919721E+03  0.77412919721E+03  0.25500000000E-02 0.  1.
    5000001    1    1    2    0    0  0.12643615702E+03  0.89786456575E+02 -0.36448448020E+03  0.44018251429E+03  0.19200000000E+03 0.  0.
   -5000001    1    1    2    0    0 -0.12643615702E+03 -0.89786456575E+02 -0.33083791753E+03  0.41275348244E+03  0.19200000000E+03 0.  0.
<mgrwt>
<rscale>  0 0.49399046E+03</rscale>
<asrwt>0</asrwt>
<pdfrwt beam="1">  1        2 0.11058988E+00 0.49399046E+03</pdfrwt>
<pdfrwt beam="2">  1       -2 0.11258115E-01 0.49399046E+03</pdfrwt>
<totfact> 0.22372476E+03</totfact>
</mgrwt>
</event>
<event>
 4    1  0.5847263E-005  0.4371765E+03  0.7818608E-02  0.1031617E+00
          2   -1    0    0  501    0  0.00000000000E+00  0.00000000000E+00  0.58431956799E+02  0.58431956855E+02  0.25500000000E-02 0.  1.
         -2   -1    0    0    0  501 -0.00000000000E+00 -0.00000000000E+00 -0.81771735073E+03  0.81771735073E+03  0.25500000000E-02 0. -1.
    5000001    1    1    2    0    0 -0.67978515620E+02 -0.17725910017E+02 -0.53464128951E+03  0.57239898228E+03  0.19200000000E+03 0.  0.
   -5000001    1    1    2    0    0  0.67978515620E+02  0.17725910017E+02 -0.22464410443E+03  0.30375032531E+03  0.19200000000E+03 0.  0.
<mgrwt>
<rscale>  0 0.43717651E+03</rscale>
<asrwt>0</asrwt>
<pdfrwt beam="1">  1        2 0.83474229E-02 0.43717651E+03</pdfrwt>
<pdfrwt beam="2">  1       -2 0.11681676E+00 0.43717651E+03</pdfrwt>
<totfact> 0.48023867E+02</totfact>
</mgrwt>
</event>
<event>
 4    1  0.5847263E-005  0.6931441E+03  0.7818608E-02  0.9729029E-01
         -2   -1    0    0    0  501 -0.00000000000E+00  0.00000000000E+00  0.17387567293E+03  0.17387567295E+03  0.25500000000E-02 0. -1.
          2   -1    0    0  501    0  0.00000000000E+00 -0.00000000000E+00 -0.69079343409E+03  0.69079343409E+03  0.25500000000E-02 0.  1.
    5000001    1    1    2    0    0  0.11816201339E+03  0.25773381525E+03 -0.32516230288E+03  0.47221129185E+03  0.19200000000E+03 0.  0.
   -5000001    1    1    2    0    0 -0.11816201339E+03 -0.25773381525E+03 -0.19175545827E+03  0.39245781520E+03  0.19200000000E+03 0.  0.
<mgrwt>
<rscale>  0 0.69314406E+03</rscale>
<asrwt>0</asrwt>
<pdfrwt beam="1">  1        2 0.98684775E-01 0.69314406E+03</pdfrwt>
<pdfrwt beam="2">  1       -2 0.24839382E-01 0.69314406E+03</pdfrwt>
<totfact> 0.66582151E+02</totfact>
</mgrwt>
</event>
<event>
 4    1  0.5847263E-005  0.6765733E+03  0.7818608E-02  0.9758155E-01
         -2   -1    0    0    0  501 -0.00000000000E+00  0.00000000000E+00  0.69756598261E+02  0.69756598308E+02  0.25500000000E-02 0.  1.
          2   -1    0    0  501    0  0.00000000000E+00 -0.00000000000E+00 -0.16405310430E+04  0.16405310430E+04  0.25500000000E-02 0. -1.
    5000001    1    1    2    0    0  0.24293113785E+03 -0.48811624479E+02 -0.11068913370E+04  0.11504218984E+04  0.19200000000E+03 0.  0.
   -5000001    1    1    2    0    0 -0.24293113785E+03  0.48811624479E+02 -0.46388310771E+03  0.55986574287E+03  0.19200000000E+03 0.  0.
<mgrwt>
<rscale>  0 0.67657332E+03</rscale>
<asrwt>0</asrwt>
<pdfrwt beam="1">  1        2 0.23436155E+00 0.67657332E+03</pdfrwt>
<pdfrwt beam="2">  1       -2 0.99652293E-02 0.67657332E+03</pdfrwt>
<totfact> 0.86375918E+02</totfact>
</mgrwt>
</event>
<event>
 4    1  0.5847263E-005  0.6061943E+03  0.7818608E-02  0.9892638E-01
          2   -1    0    0  501    0  0.00000000000E+00  0.00000000000E+00  0.90091410769E+03  0.90091410769E+03  0.25500000000E-02 0.  1.
         -2   -1    0    0    0  501 -0.00000000000E+00 -0.00000000000E+00 -0.10197185070E+03  0.10197185073E+03  0.25500000000E-02 0. -1.
    5000001    1    1    2    0    0 -0.22159872277E+03 -0.74541875843E+02  0.43003915987E+03  0.52579479287E+03  0.19200000000E+03 0.  0.
   -5000001    1    1    2    0    0  0.22159872277E+03  0.74541875843E+02  0.36890309712E+03  0.47709116555E+03  0.19200000000E+03 0.  0.
<mgrwt>
<rscale>  0 0.60619429E+03</rscale>
<asrwt>0</asrwt>
<pdfrwt beam="1">  1        2 0.12870201E+00 0.60619429E+03</pdfrwt>
<pdfrwt beam="2">  1       -2 0.14567407E-01 0.60619429E+03</pdfrwt>
<totfact> 0.11994651E+03</totfact>
</mgrwt>
</event>
<event>
 4    1  0.5847263E-005  0.6608763E+03  0.7818608E-02  0.9786582E-01
          2   -1    0    0  501    0  0.00000000000E+00  0.00000000000E+00  0.94108502404E+03  0.94108502405E+03  0.25500000000E-02 0.  1.
         -2   -1    0    0    0  501 -0.00000000000E+00 -0.00000000000E+00 -0.11602496452E+03  0.11602496455E+03  0.25500000000E-02 0. -1.
    5000001    1    1    2    0    0 -0.18492826790E+03  0.19390901119E+03  0.37583811685E+03  0.49991745216E+03  0.19200000000E+03 0.  0.
   -5000001    1    1    2    0    0  0.18492826790E+03 -0.19390901119E+03  0.44922194267E+03  0.55719253644E+03  0.19200000000E+03 0.  0.
<mgrwt>
<rscale>  0 0.66087626E+03</rscale>
<asrwt>0</asrwt>
<pdfrwt beam="1">  1        2 0.13444072E+00 0.66087626E+03</pdfrwt>
<pdfrwt beam="2">  1       -2 0.16574995E-01 0.66087626E+03</pdfrwt>
<totfact> 0.90767012E+02</totfact>
</mgrwt>
</event>
<event>
 4    1  0.5847263E-005  0.7867515E+03  0.7818608E-02  0.9579394E-01
          2   -1    0    0  501    0  0.00000000000E+00  0.00000000000E+00  0.13752649778E+04  0.13752649778E+04  0.25500000000E-02 0.  1.
         -2   -1    0    0    0  501 -0.00000000000E+00 -0.00000000000E+00 -0.11251974987E+03  0.11251974990E+03  0.25500000000E-02 0. -1.
    5000001    1    1    2    0    0  0.48537426996E+02 -0.32415761569E+03  0.82465241632E+03  0.90793702941E+03  0.19200000000E+03 0.  0.
   -5000001    1    1    2    0    0 -0.48537426996E+02  0.32415761569E+03  0.43809281161E+03  0.57984769829E+03  0.19200000000E+03 0.  0.
<mgrwt>
<rscale>  0 0.78675148E+03</rscale>
<asrwt>0</asrwt>
<pdfrwt beam="1">  1        2 0.19646641E+00 0.78675148E+03</pdfrwt>
<pdfrwt beam="2">  1       -2 0.16074251E-01 0.78675148E+03</pdfrwt>
<totfact> 0.53481625E+02</totfact>
</mgrwt>
</event>
<event>
 4    1  0.5847263E-005  0.4916397E+03  0.7818608E-02  0.1015984E+00
          2   -1    0    0  501    0  0.00000000000E+00  0.00000000000E+00  0.26690297153E+04  0.26690297153E+04  0.25500000000E-02 0.  1.
         -2   -1    0    0    0  501 -0.00000000000E+00 -0.00000000000E+00 -0.22640215137E+02  0.22640215281E+02  0.25500000000E-02 0. -1.
    5000001    1    1    2    0    0 -0.11271364756E+03 -0.31467431807E+02  0.77930870570E+03  0.81109840611E+03  0.19200000000E+03 0.  0.
   -5000001    1    1    2    0    0  0.11271364756E+03  0.31467431807E+02  0.18670807945E+04  0.18805715245E+04  0.19200000000E+03 0.  0.
<mgrwt>
<rscale>  0 0.49163973E+03</rscale>
<asrwt>0</asrwt>
<pdfrwt beam="1">  1        2 0.38128993E+00 0.49163973E+03</pdfrwt>
<pdfrwt beam="2">  1       -2 0.32343167E-02 0.49163973E+03</pdfrwt>
<totfact> 0.15275585E+03</totfact>
</mgrwt>
</event>
<event>
 4    1  0.5847263E-005  0.6384115E+03  0.7818608E-02  0.9828770E-01
         -2   -1    0    0    0  501 -0.00000000000E+00  0.00000000000E+00  0.14126640364E+03  0.14126640366E+03  0.25500000000E-02 0. -1.
          2   -1    0    0  501    0  0.00000000000E+00 -0.00000000000E+00 -0.72127778672E+03  0.72127778672E+03  0.25500000000E-02 0.  1.
    5000001    1    1    2    0    0  0.20576455969E+03 -0.14432448812E+03 -0.34827004163E+03  0.47045152120E+03  0.19200000000E+03 0.  0.
   -5000001    1    1    2    0    0 -0.20576455969E+03  0.14432448812E+03 -0.23174134145E+03  0.39209266919E+03  0.19200000000E+03 0.  0.
<mgrwt>
<rscale>  0 0.63841153E+03</rscale>
<asrwt>0</asrwt>
<pdfrwt beam="1">  1        2 0.10303968E+00 0.63841153E+03</pdfrwt>
<pdfrwt beam="2">  1       -2 0.20180915E-01 0.63841153E+03</pdfrwt>
<totfact> 0.91331292E+02</totfact>
</mgrwt>
</event>
<event>
 4    1  0.5847263E-005  0.5064854E+03  0.7818608E-02  0.1012100E+00
          2   -1    0    0  501    0  0.00000000000E+00  0.00000000000E+00  0.19194256353E+04  0.19194256353E+04  0.25500000000E-02 0.  1.
         -2   -1    0    0    0  501 -0.00000000000E+00 -0.00000000000E+00 -0.33412006947E+02  0.33412007044E+02  0.25500000000E-02 0. -1.
    5000001    1    1    2    0    0 -0.84163778410E+02  0.13702046740E+03  0.79824150002E+03  0.83660722112E+03  0.19200000000E+03 0.  0.
   -5000001    1    1    2    0    0  0.84163778410E+02 -0.13702046740E+03  0.10877721284E+04  0.11162304213E+04  0.19200000000E+03 0.  0.
<mgrwt>
<rscale>  0 0.50648539E+03</rscale>
<asrwt>0</asrwt>
<pdfrwt beam="1">  1        2 0.27420371E+00 0.50648539E+03</pdfrwt>
<pdfrwt beam="2">  1       -2 0.47731430E-02 0.50648539E+03</pdfrwt>
<totfact> 0.20119790E+03</totfact>
</mgrwt>
</event>
<event>
 4    1  0.5847263E-005  0.8349049E+03  0.7818608E-02  0.9510824E-01
          2   -1    0    0  501    0  0.00000000000E+00  0.00000000000E+00  0.45705313989E+03  0.45705313989E+03  0.25500000000E-02 0.  1.
         -2   -1    0    0    0  501 -0.00000000000E+00 -0.00000000000E+00 -0.38128290858E+03  0.38128290859E+03  0.25500000000E-02 0. -1.
    5000001    1    1    2    0    0 -0.21584652710E+03  0.16213774875E+03  0.29294512282E+03  0.44222077949E+03  0.19200000000E+03 0.  0.
   -5000001    1    1    2    0    0  0.21584652710E+03 -0.16213774875E+03 -0.21717489151E+03  0.39611526899E+03  0.19200000000E+03 0.  0.
<mgrwt>
<rscale>  0 0.83490491E+03</rscale>
<asrwt>0</asrwt>
<pdfrwt beam="1">  1        2 0.65293306E-01 0.83490491E+03</pdfrwt>
<pdfrwt beam="2">  1       -2 0.54468987E-01 0.83490491E+03</pdfrwt>
<totfact> 0.23734623E+02</totfact>
</mgrwt>
</event>
<event>
 4    1  0.5847263E-005  0.1195605E+04  0.7818608E-02  0.9116712E-01
          2   -1    0    0  501    0  0.00000000000E+00  0.00000000000E+00  0.24047302812E+03  0.24047302813E+03  0.25500000000E-02 0.  1.
         -2   -1    0    0    0  501 -0.00000000000E+00 -0.00000000000E+00 -0.14861041419E+04  0.14861041419E+04  0.25500000000E-02 0. -1.
    5000001    1    1    2    0    0 -0.48231608945E+03 -0.27807245144E+03 -0.47448104141E+03  0.75627333488E+03  0.19200000000E+03 0.  0.
   -5000001    1    1    2    0    0  0.48231608945E+03  0.27807245144E+03 -0.77115007233E+03  0.97030383512E+03  0.19200000000E+03 0.  0.
<mgrwt>
<rscale>  0 0.11956052E+04</rscale>
<asrwt>0</asrwt>
<pdfrwt beam="1">  1        2 0.34353291E-01 0.11956052E+04</pdfrwt>
<pdfrwt beam="2">  1       -2 0.21230059E+00 0.11956052E+04</pdfrwt>
<totfact> 0.16710435E+01</totfact>
</mgrwt>
</event>
<event>
 4    1  0.5847263E-005  0.1174487E+04  0.7818608E-02  0.9135486E-01
          2   -1    0    0  501    0  0.00000000000E+00  0.00000000000E+00  0.13289725388E+03  0.13289725391E+03  0.25500000000E-02 0.  1.
         -2   -1    0    0    0  501 -0.00000000000E+00 -0.00000000000E+00 -0.25948988886E+04  0.25948988886E+04  0.25500000000E-02 0. -1.
    5000001    1    1    2    0    0  0.26547830377E+03 -0.48389512511E+03 -0.10964192511E+04  0.12424300367E+04  0.19200000000E+03 0.  0.
   -5000001    1    1    2    0    0 -0.26547830377E+03  0.48389512511E+03 -0.13655823836E+04  0.14853661058E+04  0.19200000000E+03 0.  0.
<mgrwt>
<rscale>  0 0.11744870E+04</rscale>
<asrwt>0</asrwt>
<pdfrwt beam="1">  1        2 0.18985324E-01 0.11744870E+04</pdfrwt>
<pdfrwt beam="2">  1       -2 0.37069981E+00 0.11744870E+04</pdfrwt>
<totfact> 0.35043433E+00</totfact>
</mgrwt>
</event>
<event>
 4    1  0.5847263E-005  0.6654885E+03  0.7818608E-02  0.9778143E-01
         -2   -1    0    0    0  501 -0.00000000000E+00  0.00000000000E+00  0.22897779632E+03  0.22897779633E+03  0.25500000000E-02 0. -1.
          2   -1    0    0  501    0  0.00000000000E+00 -0.00000000000E+00 -0.48353476828E+03  0.48353476829E+03  0.25500000000E-02 0.  1.
    5000001    1    1    2    0    0  0.96360843914E+02  0.25023093109E+03 -0.17460357529E+03  0.37316395809E+03  0.19200000000E+03 0.  0.
   -5000001    1    1    2    0    0 -0.96360843914E+02 -0.25023093109E+03 -0.79953396678E+02  0.33934860653E+03  0.19200000000E+03 0.  0.
<mgrwt>
<rscale>  0 0.66548847E+03</rscale>
<asrwt>0</asrwt>
<pdfrwt beam="1">  1        2 0.69076395E-01 0.66548847E+03</pdfrwt>
<pdfrwt beam="2">  1       -2 0.32711114E-01 0.66548847E+03</pdfrwt>
<totfact> 0.61099050E+02</totfact>
</mgrwt>
</event>
<event>
 4    1  0.5847263E-005  0.8471352E+03  0.7818608E-02  0.9494190E-01
         -2   -1    0    0    0  501 -0.00000000000E+00  0.00000000000E+00  0.10872626414E+03  0.10872626417E+03  0.25500000000E-02 0. -1.
          2   -1    0    0  501    0  0.00000000000E+00 -0.00000000000E+00 -0.16501027454E+04  0.16501027454E+04  0.25500000000E-02 0.  1.
    5000001    1    1    2    0    0  0.28315008577E+03  0.21839427107E+03 -0.10222050586E+04  0.10998350833E+04  0.19200000000E+03 0.  0.
   -5000001    1    1    2    0    0 -0.28315008577E+03 -0.21839427107E+03 -0.51917142265E+03  0.65899392623E+03  0.19200000000E+03 0.  0.
<mgrwt>
<rscale>  0 0.84713519E+03</rscale>
<asrwt>0</asrwt>
<pdfrwt beam="1">  1        2 0.23572895E+00 0.84713519E+03</pdfrwt>
<pdfrwt beam="2">  1       -2 0.15532324E-01 0.84713519E+03</pdfrwt>
<totfact> 0.40504945E+02</totfact>
</mgrwt>
</event>
<event>
 4    1  0.5847263E-005  0.5434493E+03  0.7818608E-02  0.1003022E+00
         -2   -1    0    0    0  501 -0.00000000000E+00  0.00000000000E+00  0.40509364748E+03  0.40509364748E+03  0.25500000000E-02 0. -1.
          2   -1    0    0  501    0  0.00000000000E+00 -0.00000000000E+00 -0.18226474953E+03  0.18226474955E+03  0.25500000000E-02 0.  1.
    5000001    1    1    2    0    0  0.10397971351E+03 -0.58180976941E+02 -0.51687397911E+02  0.23180248921E+03  0.19200000000E+03 0.  0.
   -5000001    1    1    2    0    0 -0.10397971351E+03  0.58180976941E+02  0.27451629586E+03  0.35555590783E+03  0.19200000000E+03 0.  0.
<mgrwt>
<rscale>  0 0.54344932E+03</rscale>
<asrwt>0</asrwt>
<pdfrwt beam="1">  1        2 0.26037821E-01 0.54344932E+03</pdfrwt>
<pdfrwt beam="2">  1       -2 0.57870521E-01 0.54344932E+03</pdfrwt>
<totfact> 0.58879430E+02</totfact>
</mgrwt>
</event>
<event>
 4    1  0.5847263E-005  0.6730426E+03  0.7818608E-02  0.9764477E-01
         -2   -1    0    0    0  501 -0.00000000000E+00  0.00000000000E+00  0.18349140262E+03  0.18349140263E+03  0.25500000000E-02 0. -1.
          2   -1    0    0  501    0  0.00000000000E+00 -0.00000000000E+00 -0.61717643424E+03  0.61717643425E+03  0.25500000000E-02 0.  1.
    5000001    1    1    2    0    0  0.15654234151E+03 -0.22734827783E+03 -0.23323282347E+03  0.40921179609E+03  0.19200000000E+03 0.  0.
   -5000001    1    1    2    0    0 -0.15654234151E+03  0.22734827783E+03 -0.20045220815E+03  0.39145604079E+03  0.19200000000E+03 0.  0.
<mgrwt>
<rscale>  0 0.67304255E+03</rscale>
<asrwt>0</asrwt>
<pdfrwt beam="1">  1        2 0.88168061E-01 0.67304255E+03</pdfrwt>
<pdfrwt beam="2">  1       -2 0.26213058E-01 0.67304255E+03</pdfrwt>
<totfact> 0.69245084E+02</totfact>
</mgrwt>
</event>
<event>
 4    1  0.5847263E-005  0.5499309E+03  0.7818608E-02  0.1001510E+00
         -2   -1    0    0    0  501 -0.00000000000E+00  0.00000000000E+00  0.12166810862E+04  0.12166810862E+04  0.25500000000E-02 0. -1.
          2   -1    0    0  501    0  0.00000000000E+00 -0.00000000000E+00 -0.62141174190E+02  0.62141174242E+02  0.25500000000E-02 0.  1.
    5000001    1    1    2    0    0 -0.14253852629E+03 -0.10497014432E+03  0.77739193093E+03  0.82008424991E+03  0.19200000000E+03 0.  0.
   -5000001    1    1    2    0    0  0.14253852629E+03  0.10497014432E+03  0.37714798108E+03  0.45873801054E+03  0.19200000000E+03 0.  0.
<mgrwt>
<rscale>  0 0.54993087E+03</rscale>
<asrwt>0</asrwt>
<pdfrwt beam="1">  1        2 0.88773100E-02 0.54993087E+03</pdfrwt>
<pdfrwt beam="2">  1       -2 0.17381160E+00 0.54993087E+03</pdfrwt>
<totfact> 0.15837535E+02</totfact>
</mgrwt>
</event>
<event>
 4    1  0.5847263E-005  0.6002128E+03  0.7818608E-02  0.9904965E-01
          2   -1    0    0  501    0  0.00000000000E+00  0.00000000000E+00  0.39061078877E+03  0.39061078878E+03  0.25500000000E-02 0.  1.
         -2   -1    0    0    0  501 -0.00000000000E+00 -0.00000000000E+00 -0.23057181120E+03  0.23057181121E+03  0.25500000000E-02 0. -1.
    5000001    1    1    2    0    0  0.21444792224E+03  0.27630474260E+02  0.16312748846E+03  0.33200290955E+03  0.19200000000E+03 0.  0.
   -5000001    1    1    2    0    0 -0.21444792224E+03 -0.27630474260E+02 -0.30885108926E+01  0.28917969044E+03  0.19200000000E+03 0.  0.
<mgrwt>
<rscale>  0 0.60021275E+03</rscale>
<asrwt>0</asrwt>
<pdfrwt beam="1">  1        2 0.55801541E-01 0.60021275E+03</pdfrwt>
<pdfrwt beam="2">  1       -2 0.32938830E-01 0.60021275E+03</pdfrwt>
<totfact> 0.76703939E+02</totfact>
</mgrwt>
</event>
<event>
 4    1  0.5847263E-005  0.5252343E+03  0.7818608E-02  0.1007394E+00
          2   -1    0    0  501    0  0.00000000000E+00  0.00000000000E+00  0.14216021914E+04  0.14216021914E+04  0.25500000000E-02 0.  1.
         -2   -1    0    0    0  501 -0.00000000000E+00 -0.00000000000E+00 -0.48514115233E+02  0.48514115300E+02  0.25500000000E-02 0. -1.
    5000001    1    1    2    0    0  0.16999943249E+03  0.41744428315E+02  0.79354272081E+03  0.83499488268E+03  0.19200000000E+03 0.  0.
   -5000001    1    1    2    0    0 -0.16999943249E+03 -0.41744428315E+02  0.57954535535E+03  0.63512142402E+03  0.19200000000E+03 0.  0.
<mgrwt>
<rscale>  0 0.52523432E+03</rscale>
<asrwt>0</asrwt>
<pdfrwt beam="1">  1        2 0.20308605E+00 0.52523432E+03</pdfrwt>
<pdfrwt beam="2">  1       -2 0.69305870E-02 0.52523432E+03</pdfrwt>
<totfact> 0.20162672E+03</totfact>
</mgrwt>
</event>
<event>
 4    1  0.5847263E-005  0.6446044E+03  0.7818608E-02  0.9816957E-01
         -2   -1    0    0    0  501 -0.00000000000E+00  0.00000000000E+00  0.66950297514E+03  0.66950297515E+03  0.25500000000E-02 0. -1.
          2   -1    0    0  501    0  0.00000000000E+00 -0.00000000000E+00 -0.15515796970E+03  0.15515796972E+03  0.25500000000E-02 0.  1.
    5000001    1    1    2    0    0  0.21452758028E+02 -0.55288610118E+02  0.57954726170E+03  0.61339716317E+03  0.19200000000E+03 0.  0.
   -5000001    1    1    2    0    0 -0.21452758028E+02  0.55288610118E+02 -0.65202256256E+02  0.21126378170E+03  0.19200000000E+03 0.  0.
<mgrwt>
<rscale>  0 0.64460444E+03</rscale>
<asrwt>0</asrwt>
<pdfrwt beam="1">  1        2 0.22165424E-01 0.64460444E+03</pdfrwt>
<pdfrwt beam="2">  1       -2 0.95643284E-01 0.64460444E+03</pdfrwt>
<totfact> 0.23363084E+02</totfact>
</mgrwt>
</event>
<event>
 4    1  0.5847263E-005  0.4417525E+03  0.7818608E-02  0.1030210E+00
          2   -1    0    0  501    0  0.00000000000E+00  0.00000000000E+00  0.10873747284E+04  0.10873747284E+04  0.25500000000E-02 0.  1.
         -2   -1    0    0    0  501 -0.00000000000E+00 -0.00000000000E+00 -0.44866159901E+02  0.44866159974E+02  0.25500000000E-02 0. -1.
    5000001    1    1    2    0    0 -0.10046392644E+03 -0.23851001181E+02  0.43025794739E+03  0.48233574620E+03  0.19200000000E+03 0.  0.
   -5000001    1    1    2    0    0  0.10046392644E+03  0.23851001181E+02  0.61225062111E+03  0.64990514217E+03  0.19200000000E+03 0.  0.
<mgrwt>
<rscale>  0 0.44175255E+03</rscale>
<asrwt>0</asrwt>
<pdfrwt beam="1">  1        2 0.15533923E+00 0.44175255E+03</pdfrwt>
<pdfrwt beam="2">  1       -2 0.64094521E-02 0.44175255E+03</pdfrwt>
<totfact> 0.34772131E+03</totfact>
</mgrwt>
</event>
<event>
 4    1  0.5847263E-005  0.6496278E+03  0.7818608E-02  0.9807478E-01
          2   -1    0    0  501    0  0.00000000000E+00  0.00000000000E+00  0.63089828355E+03  0.63089828355E+03  0.25500000000E-02 0.  1.
         -2   -1    0    0    0  501 -0.00000000000E+00 -0.00000000000E+00 -0.16722833195E+03  0.16722833197E+03  0.25500000000E-02 0. -1.
    5000001    1    1    2    0    0  0.12009879219E+03 -0.10226415015E+03  0.48883778470E+03  0.54836854035E+03  0.19200000000E+03 0.  0.
   -5000001    1    1    2    0    0 -0.12009879219E+03  0.10226415015E+03 -0.25167833105E+02  0.24975807517E+03  0.19200000000E+03 0.  0.
<mgrwt>
<rscale>  0 0.64962779E+03</rscale>
<asrwt>0</asrwt>
<pdfrwt beam="1">  1        2 0.90128324E-01 0.64962779E+03</pdfrwt>
<pdfrwt beam="2">  1       -2 0.23889762E-01 0.64962779E+03</pdfrwt>
<totfact> 0.79753351E+02</totfact>
</mgrwt>
</event>
<event>
 4    1  0.5847263E-005  0.5795826E+03  0.7818608E-02  0.9948695E-01
         -2   -1    0    0    0  501 -0.00000000000E+00  0.00000000000E+00  0.41555493365E+03  0.41555493366E+03  0.25500000000E-02 0.  1.
          2   -1    0    0  501    0  0.00000000000E+00 -0.00000000000E+00 -0.20208877247E+03  0.20208877248E+03  0.25500000000E-02 0. -1.
    5000001    1    1    2    0    0 -0.16223647830E+03 -0.14005648910E+03  0.14331663692E+03  0.32146563338E+03  0.19200000000E+03 0.  0.
   -5000001    1    1    2    0    0  0.16223647830E+03  0.14005648910E+03  0.70149524254E+02  0.29617807276E+03  0.19200000000E+03 0.  0.
<mgrwt>
<rscale>  0 0.57958256E+03</rscale>
<asrwt>0</asrwt>
<pdfrwt beam="1">  1        2 0.28869825E-01 0.57958256E+03</pdfrwt>
<pdfrwt beam="2">  1       -2 0.59364991E-01 0.57958256E+03</pdfrwt>
<totfact> 0.49649603E+02</totfact>
</mgrwt>
</event>
<event>
 4    1  0.5847263E-005  0.6968045E+03  0.7818608E-02  0.9722713E-01
          2   -1    0    0  501    0  0.00000000000E+00  0.00000000000E+00  0.67945494365E+03  0.67945494366E+03  0.25500000000E-02 0.  1.
         -2   -1    0    0    0  501 -0.00000000000E+00 -0.00000000000E+00 -0.17864925573E+03  0.17864925575E+03  0.25500000000E-02 0. -1.
    5000001    1    1    2    0    0  0.19659587980E+03 -0.13212012065E+03  0.45798917373E+03  0.55020337102E+03  0.19200000000E+03 0.  0.
   -5000001    1    1    2    0    0 -0.19659587980E+03  0.13212012065E+03  0.42816514192E+02  0.30790082838E+03  0.19200000000E+03 0.  0.
<mgrwt>
<rscale>  0 0.69680448E+03</rscale>
<asrwt>0</asrwt>
<pdfrwt beam="1">  1        2 0.97064992E-01 0.69680448E+03</pdfrwt>
<pdfrwt beam="2">  1       -2 0.25521322E-01 0.69680448E+03</pdfrwt>
<totfact> 0.64699737E+02</totfact>
</mgrwt>
</event>
<event>
 4    1  0.5847263E-005  0.6682155E+03  0.7818608E-02  0.9773187E-01
          2   -1    0    0  501    0  0.00000000000E+00  0.00000000000E+00  0.40947141086E+03  0.40947141087E+03  0.25500000000E-02 0.  1.
         -2   -1    0    0    0  501 -0.00000000000E+00 -0.00000000000E+00 -0.27261486890E+03  0.27261486892E+03  0.25500000000E-02 0. -1.
    5000001    1    1    2    0    0  0.30049731682E+01  0.15847237806E+03 -0.15900032749E+03  0.29541094870E+03  0.19200000000E+03 0.  0.
   -5000001    1    1    2    0    0 -0.30049731682E+01 -0.15847237806E+03  0.29585686945E+03  0.38667533108E+03  0.19200000000E+03 0.  0.
<mgrwt>
<rscale>  0 0.66821552E+03</rscale>
<asrwt>0</asrwt>
<pdfrwt beam="1">  1        2 0.58495916E-01 0.66821552E+03</pdfrwt>
<pdfrwt beam="2">  1       -2 0.38944981E-01 0.66821552E+03</pdfrwt>
<totfact> 0.52832126E+02</totfact>
</mgrwt>
</event>
<event>
 4    1  0.5847263E-005  0.4982246E+03  0.7818608E-02  0.1014243E+00
          2   -1    0    0  501    0  0.00000000000E+00  0.00000000000E+00  0.81310566552E+03  0.81310566552E+03  0.25500000000E-02 0.  1.
         -2   -1    0    0    0  501 -0.00000000000E+00 -0.00000000000E+00 -0.76320865276E+02  0.76320865319E+02  0.25500000000E-02 0. -1.
    5000001    1    1    2    0    0  0.14119736768E+03  0.32326108486E+02  0.25254383249E+03  0.34874641397E+03  0.19200000000E+03 0.  0.
   -5000001    1    1    2    0    0 -0.14119736768E+03 -0.32326108486E+02  0.48424096775E+03  0.54068011687E+03  0.19200000000E+03 0.  0.
<mgrwt>
<rscale>  0 0.49822456E+03</rscale>
<asrwt>0</asrwt>
<pdfrwt beam="1">  1        2 0.11615795E+00 0.49822456E+03</pdfrwt>
<pdfrwt beam="2">  1       -2 0.10902981E-01 0.49822456E+03</pdfrwt>
<totfact> 0.22150762E+03</totfact>
</mgrwt>
</event>
<event>
 4    1  0.5847263E-005  0.5313273E+03  0.7818608E-02  0.1005911E+00
          2   -1    0    0  501    0  0.00000000000E+00  0.00000000000E+00  0.88048152870E+03  0.88048152871E+03  0.25500000000E-02 0.  1.
         -2   -1    0    0    0  501 -0.00000000000E+00 -0.00000000000E+00 -0.80157478790E+02  0.80157478831E+02  0.25500000000E-02 0. -1.
    5000001    1    1    2    0    0  0.14484498537E+03 -0.11220949518E+03  0.42171734780E+03  0.49827759535E+03  0.19200000000E+03 0.  0.
   -5000001    1    1    2    0    0 -0.14484498537E+03  0.11220949518E+03  0.37860670211E+03  0.46236141219E+03  0.19200000000E+03 0.  0.
<mgrwt>
<rscale>  0 0.53132732E+03</rscale>
<asrwt>0</asrwt>
<pdfrwt beam="1">  1        2 0.12578307E+00 0.53132732E+03</pdfrwt>
<pdfrwt beam="2">  1       -2 0.11451069E-01 0.53132732E+03</pdfrwt>
<totfact> 0.18440518E+03</totfact>
</mgrwt>
</event>
<event>
 4    1  0.5847263E-005  0.8697383E+03  0.7818608E-02  0.9464221E-01
         -2   -1    0    0    0  501 -0.00000000000E+00  0.00000000000E+00  0.23201656818E+03  0.23201656820E+03  0.25500000000E-02 0. -1.
          2   -1    0    0  501    0  0.00000000000E+00 -0.00000000000E+00 -0.81507620083E+03  0.81507620083E+03  0.25500000000E-02 0.  1.
    5000001    1    1    2    0    0  0.19122509020E+03  0.29927607068E+03 -0.96978979209E+02  0.41521334758E+03  0.19200000000E+03 0.  0.
   -5000001    1    1    2    0    0 -0.19122509020E+03 -0.29927607068E+03 -0.48608065343E+03  0.63187942144E+03  0.19200000000E+03 0.  0.
<mgrwt>
<rscale>  0 0.86973831E+03</rscale>
<asrwt>0</asrwt>
<pdfrwt beam="1">  1        2 0.11643946E+00 0.86973831E+03</pdfrwt>
<pdfrwt beam="2">  1       -2 0.33145224E-01 0.86973831E+03</pdfrwt>
<totfact> 0.31568778E+02</totfact>
</mgrwt>
</event>
<event>
 4    1  0.5847263E-005  0.4935474E+03  0.7818608E-02  0.1015477E+00
          2   -1    0    0  501    0  0.00000000000E+00  0.00000000000E+00  0.16790305339E+03  0.16790305341E+03  0.25500000000E-02 0.  1.
         -2   -1    0    0    0  501 -0.00000000000E+00 -0.00000000000E+00 -0.36269291013E+03  0.36269291014E+03  0.25500000000E-02 0. -1.
    5000001    1    1    2    0    0  0.35790791207E+02 -0.15023589254E+03 -0.11187614772E+03  0.27061425788E+03  0.19200000000E+03 0.  0.
   -5000001    1    1    2    0    0 -0.35790791207E+02  0.15023589254E+03 -0.82913709020E+02  0.25998170567E+03  0.19200000000E+03 0.  0.
<mgrwt>
<rscale>  0 0.49354735E+03</rscale>
<asrwt>0</asrwt>
<pdfrwt beam="1">  1        2 0.23986151E-01 0.49354735E+03</pdfrwt>
<pdfrwt beam="2">  1       -2 0.51813273E-01 0.49354735E+03</pdfrwt>
<totfact> 0.81197178E+02</totfact>
</mgrwt>
</event>
<event>
 4    1  0.5847263E-005  0.4716779E+03  0.7818608E-02  0.1021448E+00
         -2   -1    0    0    0  501 -0.00000000000E+00  0.00000000000E+00  0.12943070261E+03  0.12943070263E+03  0.25500000000E-02 0. -1.
          2   -1    0    0  501    0  0.00000000000E+00 -0.00000000000E+00 -0.42972808707E+03  0.42972808707E+03  0.25500000000E-02 0.  1.
    5000001    1    1    2    0    0  0.14214048323E+02  0.12559593463E+03 -0.87648240917E+02  0.24601339821E+03  0.19200000000E+03 0.  0.
   -5000001    1    1    2    0    0 -0.14214048323E+02 -0.12559593463E+03 -0.21264914354E+03  0.31314539149E+03  0.19200000000E+03 0.  0.
<mgrwt>
<rscale>  0 0.47167789E+03</rscale>
<asrwt>0</asrwt>
<pdfrwt beam="1">  1        2 0.61389726E-01 0.47167789E+03</pdfrwt>
<pdfrwt beam="2">  1       -2 0.18490101E-01 0.47167789E+03</pdfrwt>
<totfact> 0.19402378E+03</totfact>
</mgrwt>
</event>
<event>
 4    1  0.5847263E-005  0.4681092E+03  0.7818608E-02  0.1022455E+00
          2   -1    0    0  501    0  0.00000000000E+00  0.00000000000E+00  0.81014647207E+03  0.81014647208E+03  0.25500000000E-02 0.  1.
         -2   -1    0    0    0  501 -0.00000000000E+00 -0.00000000000E+00 -0.67619324654E+02  0.67619324702E+02  0.25500000000E-02 0. -1.
    5000001    1    1    2    0    0 -0.33167115082E+02 -0.10602066931E+03  0.51129850032E+03  0.55734244076E+03  0.19200000000E+03 0.  0.
   -5000001    1    1    2    0    0  0.33167115082E+02  0.10602066931E+03  0.23122864710E+03  0.32042335602E+03  0.19200000000E+03 0.  0.
<mgrwt>
<rscale>  0 0.46810921E+03</rscale>
<asrwt>0</asrwt>
<pdfrwt beam="1">  1        2 0.11573521E+00 0.46810921E+03</pdfrwt>
<pdfrwt beam="2">  1       -2 0.96599035E-02 0.46810921E+03</pdfrwt>
<totfact> 0.27055927E+03</totfact>
</mgrwt>
</event>
<event>
 4    1  0.5847263E-005  0.9136840E+03  0.7818608E-02  0.9408636E-01
          2   -1    0    0  501    0  0.00000000000E+00  0.00000000000E+00  0.12023596928E+04  0.12023596928E+04  0.25500000000E-02 0.  1.
         -2   -1    0    0    0  501 -0.00000000000E+00 -0.00000000000E+00 -0.17357919413E+03  0.17357919414E+03  0.25500000000E-02 0. -1.
    5000001    1    1    2    0    0  0.62625186623E+02  0.33590363031E+03  0.86784148113E+03  0.95224261574E+03  0.19200000000E+03 0.  0.
   -5000001    1    1    2    0    0 -0.62625186623E+02 -0.33590363031E+03  0.16093901751E+03  0.42369627118E+03  0.19200000000E+03 0.  0.
<mgrwt>
<rscale>  0 0.91368403E+03</rscale>
<asrwt>0</asrwt>
<pdfrwt beam="1">  1        2 0.17176568E+00 0.91368403E+03</pdfrwt>
<pdfrwt beam="2">  1       -2 0.24797027E-01 0.91368403E+03</pdfrwt>
<totfact> 0.30976944E+02</totfact>
</mgrwt>
</event>
<event>
 4    1  0.5847263E-005  0.5402648E+03  0.7818608E-02  0.1003773E+00
          2   -1    0    0  501    0  0.00000000000E+00  0.00000000000E+00  0.22429853309E+03  0.22429853310E+03  0.25500000000E-02 0.  1.
         -2   -1    0    0    0  501 -0.00000000000E+00 -0.00000000000E+00 -0.32533205635E+03  0.32533205636E+03  0.25500000000E-02 0. -1.
    5000001    1    1    2    0    0 -0.81853133115E+01 -0.16844881194E+03  0.38553871173E+02  0.25844226160E+03  0.19200000000E+03 0.  0.
   -5000001    1    1    2    0    0  0.81853133115E+01  0.16844881194E+03 -0.13958739443E+03  0.29118832786E+03  0.19200000000E+03 0.  0.
<mgrwt>
<rscale>  0 0.54026476E+03</rscale>
<asrwt>0</asrwt>
<pdfrwt beam="1">  1        2 0.32042648E-01 0.54026476E+03</pdfrwt>
<pdfrwt beam="2">  1       -2 0.46476008E-01 0.54026476E+03</pdfrwt>
<totfact> 0.72887297E+02</totfact>
</mgrwt>
</event>
<event>
 4    1  0.5847263E-005  0.5206895E+03  0.7818608E-02  0.1008515E+00
          2   -1    0    0  501    0  0.00000000000E+00  0.00000000000E+00  0.55217154804E+03  0.55217154804E+03  0.25500000000E-02 0.  1.
         -2   -1    0    0    0  501 -0.00000000000E+00 -0.00000000000E+00 -0.12275058667E+03  0.12275058670E+03  0.25500000000E-02 0. -1.
    5000001    1    1    2    0    0 -0.51887163101E+02  0.14903526562E+03  0.31521131662E+03  0.40140498529E+03  0.19200000000E+03 0.  0.
   -5000001    1    1    2    0    0  0.51887163101E+02 -0.14903526562E+03  0.11420964475E+03  0.27351714945E+03  0.19200000000E+03 0.  0.
<mgrwt>
<rscale>  0 0.52068947E+03</rscale>
<asrwt>0</asrwt>
<pdfrwt beam="1">  1        2 0.78881649E-01 0.52068947E+03</pdfrwt>
<pdfrwt beam="2">  1       -2 0.17535798E-01 0.52068947E+03</pdfrwt>
<totfact> 0.16018569E+03</totfact>
</mgrwt>
</event>
<event>
 4    1  0.5847263E-005  0.8490685E+03  0.7818608E-02  0.9491588E-01
          2   -1    0    0  501    0  0.00000000000E+00  0.00000000000E+00  0.70750548521E+03  0.70750548521E+03  0.25500000000E-02 0.  1.
         -2   -1    0    0    0  501 -0.00000000000E+00 -0.00000000000E+00 -0.25473912036E+03  0.25473912037E+03  0.25500000000E-02 0. -1.
    5000001    1    1    2    0    0 -0.33989420649E+03  0.16308897184E+03  0.26627837646E+03  0.49989424692E+03  0.19200000000E+03 0.  0.
   -5000001    1    1    2    0    0  0.33989420649E+03 -0.16308897184E+03  0.18648798839E+03  0.46235035866E+03  0.19200000000E+03 0.  0.
<mgrwt>
<rscale>  0 0.84906849E+03</rscale>
<asrwt>0</asrwt>
<pdfrwt beam="1">  1        2 0.10107221E+00 0.84906849E+03</pdfrwt>
<pdfrwt beam="2">  1       -2 0.36391302E-01 0.84906849E+03</pdfrwt>
<totfact> 0.31651695E+02</totfact>
</mgrwt>
</event>
<event>
 4    1  0.5847263E-005  0.5149644E+03  0.7818608E-02  0.1009945E+00
          2   -1    0    0  501    0  0.00000000000E+00  0.00000000000E+00  0.11850750730E+04  0.11850750731E+04  0.25500000000E-02 0.  1.
         -2   -1    0    0    0  501 -0.00000000000E+00 -0.00000000000E+00 -0.55943358003E+02  0.55943358062E+02  0.25500000000E-02 0. -1.
    5000001    1    1    2    0    0  0.35872466063E+02 -0.16773636523E+03  0.57246987678E+03  0.62770063077E+03  0.19200000000E+03 0.  0.
   -5000001    1    1    2    0    0 -0.35872466063E+02  0.16773636523E+03  0.55666183826E+03  0.61331780034E+03  0.19200000000E+03 0.  0.
<mgrwt>
<rscale>  0 0.51496438E+03</rscale>
<asrwt>0</asrwt>
<pdfrwt beam="1">  1        2 0.16929642E+00 0.51496438E+03</pdfrwt>
<pdfrwt beam="2">  1       -2 0.79919093E-02 0.51496438E+03</pdfrwt>
<totfact> 0.21618084E+03</totfact>
</mgrwt>
</event>
<event>
 4    1  0.5847263E-005  0.8183765E+03  0.7818608E-02  0.9533792E-01
         -2   -1    0    0    0  501 -0.00000000000E+00  0.00000000000E+00  0.36916992684E+03  0.36916992685E+03  0.25500000000E-02 0. -1.
          2   -1    0    0  501    0  0.00000000000E+00 -0.00000000000E+00 -0.45354458167E+03  0.45354458168E+03  0.25500000000E-02 0.  1.
    5000001    1    1    2    0    0  0.72319364608E+02 -0.34620167869E+03 -0.11664291253E+03  0.41899315253E+03  0.19200000000E+03 0.  0.
   -5000001    1    1    2    0    0 -0.72319364608E+02  0.34620167869E+03  0.32268257702E+02  0.40372135599E+03  0.19200000000E+03 0.  0.
<mgrwt>
<rscale>  0 0.81837649E+03</rscale>
<asrwt>0</asrwt>
<pdfrwt beam="1">  1        2 0.64792083E-01 0.81837649E+03</pdfrwt>
<pdfrwt beam="2">  1       -2 0.52738561E-01 0.81837649E+03</pdfrwt>
<totfact> 0.25608435E+02</totfact>
</mgrwt>
</event>
<event>
 4    1  0.5847263E-005  0.6589774E+03  0.7818608E-02  0.9790078E-01
          2   -1    0    0  501    0  0.00000000000E+00  0.00000000000E+00  0.10936805585E+03  0.10936805588E+03  0.25500000000E-02 0.  1.
         -2   -1    0    0    0  501 -0.00000000000E+00 -0.00000000000E+00 -0.99263735594E+03  0.99263735595E+03  0.25500000000E-02 0. -1.
    5000001    1    1    2    0    0  0.92140369976E+02 -0.19908703112E+03 -0.69839241781E+03  0.75679684394E+03  0.19200000000E+03 0.  0.
   -5000001    1    1    2    0    0 -0.92140369976E+02  0.19908703112E+03 -0.18487688228E+03  0.34520856789E+03  0.19200000000E+03 0.  0.
<mgrwt>
<rscale>  0 0.65897744E+03</rscale>
<asrwt>0</asrwt>
<pdfrwt beam="1">  1        2 0.15624009E-01 0.65897744E+03</pdfrwt>
<pdfrwt beam="2">  1       -2 0.14180533E+00 0.65897744E+03</pdfrwt>
<totfact> 0.13440450E+02</totfact>
</mgrwt>
</event>
<event>
 4    1  0.5847263E-005  0.4480760E+03  0.7818608E-02  0.1028297E+00
         -2   -1    0    0    0  501 -0.00000000000E+00  0.00000000000E+00  0.76591182313E+02  0.76591182356E+02  0.25500000000E-02 0. -1.
          2   -1    0    0  501    0  0.00000000000E+00 -0.00000000000E+00 -0.65533685238E+03  0.65533685238E+03  0.25500000000E-02 0.  1.
    5000001    1    1    2    0    0  0.60267157386E+02 -0.98468611106E+02 -0.28788759568E+03  0.36478961797E+03  0.19200000000E+03 0.  0.
   -5000001    1    1    2    0    0 -0.60267157386E+02  0.98468611106E+02 -0.29085807439E+03  0.36713841677E+03  0.19200000000E+03 0.  0.
<mgrwt>
<rscale>  0 0.44807600E+03</rscale>
<asrwt>0</asrwt>
<pdfrwt beam="1">  1        2 0.93619547E-01 0.44807600E+03</pdfrwt>
<pdfrwt beam="2">  1       -2 0.10941598E-01 0.44807600E+03</pdfrwt>
<totfact> 0.28696501E+03</totfact>
</mgrwt>
</event>
<event>
 4    1  0.5847263E-005  0.5520986E+03  0.7818608E-02  0.1001009E+00
          2   -1    0    0  501    0  0.00000000000E+00  0.00000000000E+00  0.70112416163E+03  0.70112416163E+03  0.25500000000E-02 0.  1.
         -2   -1    0    0    0  501 -0.00000000000E+00 -0.00000000000E+00 -0.10868717536E+03  0.10868717539E+03  0.25500000000E-02 0. -1.
    5000001    1    1    2    0    0 -0.25721943477E+02  0.19225940276E+03  0.35694258673E+03  0.44932984159E+03  0.19200000000E+03 0.  0.
   -5000001    1    1    2    0    0  0.25721943477E+02 -0.19225940276E+03  0.23549439954E+03  0.36048149542E+03  0.19200000000E+03 0.  0.
<mgrwt>
<rscale>  0 0.55209856E+03</rscale>
<asrwt>0</asrwt>
<pdfrwt beam="1">  1        2 0.10016060E+00 0.55209856E+03</pdfrwt>
<pdfrwt beam="2">  1       -2 0.15526739E-01 0.55209856E+03</pdfrwt>
<totfact> 0.14843729E+03</totfact>
</mgrwt>
</event>
<event>
 4    1  0.5847263E-005  0.5852683E+03  0.7818608E-02  0.9936450E-01
          2   -1    0    0  501    0  0.00000000000E+00  0.00000000000E+00  0.19862489090E+04  0.19862489090E+04  0.25500000000E-02 0.  1.
         -2   -1    0    0    0  501 -0.00000000000E+00 -0.00000000000E+00 -0.43113810548E+02  0.43113810624E+02  0.25500000000E-02 0. -1.
    5000001    1    1    2    0    0 -0.21346581863E+03  0.51055865696E+02  0.10562462572E+04  0.10957620695E+04  0.19200000000E+03 0.  0.
   -5000001    1    1    2    0    0  0.21346581863E+03 -0.51055865696E+02  0.88688884123E+03  0.93360065009E+03  0.19200000000E+03 0.  0.
<mgrwt>
<rscale>  0 0.58526835E+03</rscale>
<asrwt>0</asrwt>
<pdfrwt beam="1">  1        2 0.28374983E+00 0.58526835E+03</pdfrwt>
<pdfrwt beam="2">  1       -2 0.61591161E-02 0.58526835E+03</pdfrwt>
<totfact> 0.12488120E+03</totfact>
</mgrwt>
</event>
<event>
 4    1  0.5847263E-005  0.5634786E+03  0.7818608E-02  0.9984214E-01
         -2   -1    0    0    0  501 -0.00000000000E+00  0.00000000000E+00  0.26949642264E+02  0.26949642385E+02  0.25500000000E-02 0. -1.
          2   -1    0    0  501    0  0.00000000000E+00 -0.00000000000E+00 -0.29453834574E+04  0.29453834574E+04  0.25500000000E-02 0.  1.
    5000001    1    1    2    0    0 -0.16665771769E+03 -0.24966312662E+02 -0.20859162711E+04  0.21015015588E+04  0.19200000000E+03 0.  0.
   -5000001    1    1    2    0    0  0.16665771769E+03  0.24966312662E+02 -0.83251754403E+03  0.87083154098E+03  0.19200000000E+03 0.  0.
<mgrwt>
<rscale>  0 0.56347859E+03</rscale>
<asrwt>0</asrwt>
<pdfrwt beam="1">  1        2 0.42076886E+00 0.56347859E+03</pdfrwt>
<pdfrwt beam="2">  1       -2 0.38499508E-02 0.56347859E+03</pdfrwt>
<totfact> 0.83205992E+02</totfact>
</mgrwt>
</event>
<event>
 4    1  0.5847263E-005  0.4130857E+03  0.7818608E-02  0.1039340E+00
         -2   -1    0    0    0  501 -0.00000000000E+00  0.00000000000E+00  0.74362056693E+02  0.74362056736E+02  0.25500000000E-02 0. -1.
          2   -1    0    0  501    0  0.00000000000E+00 -0.00000000000E+00 -0.57367899337E+03  0.57367899338E+03  0.25500000000E-02 0.  1.
    5000001    1    1    2    0    0  0.25120675264E+02 -0.68995607920E+02 -0.21810655521E+03  0.29970971233E+03  0.19200000000E+03 0.  0.
   -5000001    1    1    2    0    0 -0.25120675264E+02  0.68995607920E+02 -0.28121038147E+03  0.34833133779E+03  0.19200000000E+03 0.  0.
<mgrwt>
<rscale>  0 0.41308570E+03</rscale>
<asrwt>0</asrwt>
<pdfrwt beam="1">  1        2 0.81954139E-01 0.41308570E+03</pdfrwt>
<pdfrwt beam="2">  1       -2 0.10623151E-01 0.41308570E+03</pdfrwt>
<totfact> 0.35131183E+03</totfact>
</mgrwt>
</event>
<event>
 4    1  0.5847263E-005  0.4702185E+03  0.7818608E-02  0.1021859E+00
         -2   -1    0    0    0  501 -0.00000000000E+00  0.00000000000E+00  0.35927283838E+03  0.35927283839E+03  0.25500000000E-02 0. -1.
          2   -1    0    0  501    0  0.00000000000E+00 -0.00000000000E+00 -0.15385619056E+03  0.15385619058E+03  0.25500000000E-02 0.  1.
    5000001    1    1    2    0    0  0.11713229650E+03  0.40545462969E+02  0.16295953686E+03  0.28068437809E+03  0.19200000000E+03 0.  0.
   -5000001    1    1    2    0    0 -0.11713229650E+03 -0.40545462969E+02  0.42457110965E+02  0.23244465088E+03  0.19200000000E+03 0.  0.
<mgrwt>
<rscale>  0 0.47021846E+03</rscale>
<asrwt>0</asrwt>
<pdfrwt beam="1">  1        2 0.21979456E-01 0.47021846E+03</pdfrwt>
<pdfrwt beam="2">  1       -2 0.51324691E-01 0.47021846E+03</pdfrwt>
<totfact> 0.91489235E+02</totfact>
</mgrwt>
</event>
<event>
 4    1  0.5847263E-005  0.6382696E+03  0.7818608E-02  0.9829043E-01
          2   -1    0    0  501    0  0.00000000000E+00  0.00000000000E+00  0.10752324654E+04  0.10752324654E+04  0.25500000000E-02 0.  1.
         -2   -1    0    0    0  501 -0.00000000000E+00 -0.00000000000E+00 -0.94720924302E+02  0.94720924336E+02  0.25500000000E-02 0. -1.
    5000001    1    1    2    0    0 -0.13922399354E+03 -0.19783265850E+03  0.34290731007E+03  0.46148727441E+03  0.19200000000E+03 0.  0.
   -5000001    1    1    2    0    0  0.13922399354E+03  0.19783265850E+03  0.63760423105E+03  0.70846611535E+03  0.19200000000E+03 0.  0.
<mgrwt>
<rscale>  0 0.63826958E+03</rscale>
<asrwt>0</asrwt>
<pdfrwt beam="1">  1        2 0.15360464E+00 0.63826958E+03</pdfrwt>
<pdfrwt beam="2">  1       -2 0.13531561E-01 0.63826958E+03</pdfrwt>
<totfact> 0.10593220E+03</totfact>
</mgrwt>
</event>
<event>
 4    1  0.5847263E-005  0.6264426E+03  0.7818608E-02  0.9852015E-01
         -2   -1    0    0    0  501 -0.00000000000E+00  0.00000000000E+00  0.25876833879E+03  0.25876833880E+03  0.25500000000E-02 0. -1.
          2   -1    0    0  501    0  0.00000000000E+00 -0.00000000000E+00 -0.37913290954E+03  0.37913290955E+03  0.25500000000E-02 0.  1.
    5000001    1    1    2    0    0  0.23006163289E+03  0.73520764289E+02 -0.52517508329E+01  0.30858586908E+03  0.19200000000E+03 0.  0.
   -5000001    1    1    2    0    0 -0.23006163289E+03 -0.73520764289E+02 -0.11511281992E+03  0.32931537927E+03  0.19200000000E+03 0.  0.
<mgrwt>
<rscale>  0 0.62644263E+03</rscale>
<asrwt>0</asrwt>
<pdfrwt beam="1">  1        2 0.54161844E-01 0.62644263E+03</pdfrwt>
<pdfrwt beam="2">  1       -2 0.36966906E-01 0.62644263E+03</pdfrwt>
<totfact> 0.63689078E+02</totfact>
</mgrwt>
</event>
<event>
 4    1  0.5847263E-005  0.8061261E+03  0.7818608E-02  0.9551192E-01
          2   -1    0    0  501    0  0.00000000000E+00  0.00000000000E+00  0.18733232922E+04  0.18733232922E+04  0.25500000000E-02 0.  1.
         -2   -1    0    0    0  501 -0.00000000000E+00 -0.00000000000E+00 -0.86722788177E+02  0.86722788215E+02  0.25500000000E-02 0. -1.
    5000001    1    1    2    0    0  0.16279869595E+03  0.30623257359E+03  0.10705455298E+04  0.11415837840E+04  0.19200000000E+03 0.  0.
   -5000001    1    1    2    0    0 -0.16279869595E+03 -0.30623257359E+03  0.71605497422E+03  0.81846229641E+03  0.19200000000E+03 0.  0.
<mgrwt>
<rscale>  0 0.80612609E+03</rscale>
<asrwt>0</asrwt>
<pdfrwt beam="1">  1        2 0.26761762E+00 0.80612609E+03</pdfrwt>
<pdfrwt beam="2">  1       -2 0.12388970E-01 0.80612609E+03</pdfrwt>
<totfact> 0.45628931E+02</totfact>
</mgrwt>
</event>
<event>
 4    1  0.5847263E-005  0.6750606E+03  0.7818608E-02  0.9760859E-01
          2   -1    0    0  501    0  0.00000000000E+00  0.00000000000E+00  0.14050494719E+04  0.14050494719E+04  0.25500000000E-02 0.  1.
         -2   -1    0    0    0  501 -0.00000000000E+00 -0.00000000000E+00 -0.81083763620E+02  0.81083763661E+02  0.25500000000E-02 0. -1.
    5000001    1    1    2    0    0  0.17725048706E+03 -0.15477595284E+03  0.33776386474E+03  0.45422655037E+03  0.19200000000E+03 0.  0.
   -5000001    1    1    2    0    0 -0.17725048706E+03  0.15477595284E+03  0.98620184354E+03  0.10319066852E+04  0.19200000000E+03 0.  0.
<mgrwt>
<rscale>  0 0.67506059E+03</rscale>
<asrwt>0</asrwt>
<pdfrwt beam="1">  1        2 0.20072134E+00 0.67506059E+03</pdfrwt>
<pdfrwt beam="2">  1       -2 0.11583395E-01 0.67506059E+03</pdfrwt>
<totfact> 0.89652583E+02</totfact>
</mgrwt>
</event>
<event>
 4    1  0.5847263E-005  0.4477598E+03  0.7818608E-02  0.1028392E+00
         -2   -1    0    0    0  501 -0.00000000000E+00  0.00000000000E+00  0.43113040558E+03  0.43113040559E+03  0.25500000000E-02 0. -1.
          2   -1    0    0  501    0  0.00000000000E+00 -0.00000000000E+00 -0.11625766639E+03  0.11625766642E+03  0.25500000000E-02 0.  1.
    5000001    1    1    2    0    0  0.10296657413E+03  0.10763509669E+02  0.21905160674E+03  0.30913682237E+03  0.19200000000E+03 0.  0.
   -5000001    1    1    2    0    0 -0.10296657413E+03 -0.10763509669E+02  0.95821132457E+02  0.23825124964E+03  0.19200000000E+03 0.  0.
<mgrwt>
<rscale>  0 0.44775982E+03</rscale>
<asrwt>0</asrwt>
<pdfrwt beam="1">  1        2 0.16608238E-01 0.44775982E+03</pdfrwt>
<pdfrwt beam="2">  1       -2 0.61590058E-01 0.44775982E+03</pdfrwt>
<totfact> 0.87117533E+02</totfact>
</mgrwt>
</event>
<event>
 4    1  0.5847263E-005  0.5932973E+03  0.7818608E-02  0.9919410E-01
         -2   -1    0    0    0  501 -0.00000000000E+00  0.00000000000E+00  0.79397957532E+02  0.79397957572E+02  0.25500000000E-02 0. -1.
          2   -1    0    0  501    0  0.00000000000E+00 -0.00000000000E+00 -0.11083461253E+04  0.11083461253E+04  0.25500000000E-02 0.  1.
    5000001    1    1    2    0    0 -0.10592314110E+03  0.17690829928E+03 -0.32860456049E+03  0.43285241752E+03  0.19200000000E+03 0.  0.
   -5000001    1    1    2    0    0  0.10592314110E+03 -0.17690829928E+03 -0.70034360729E+03  0.75489166537E+03  0.19200000000E+03 0.  0.
<mgrwt>
<rscale>  0 0.59329729E+03</rscale>
<asrwt>0</asrwt>
<pdfrwt beam="1">  1        2 0.15833515E+00 0.59329729E+03</pdfrwt>
<pdfrwt beam="2">  1       -2 0.11342566E-01 0.59329729E+03</pdfrwt>
<totfact> 0.13576848E+03</totfact>
</mgrwt>
</event>
<event>
 4    1  0.5847263E-005  0.3884713E+03  0.7818608E-02  0.1047846E+00
          2   -1    0    0  501    0  0.00000000000E+00  0.00000000000E+00  0.50590190838E+03  0.50590190839E+03  0.25500000000E-02 0.  1.
         -2   -1    0    0    0  501 -0.00000000000E+00 -0.00000000000E+00 -0.74574699890E+02  0.74574699933E+02  0.25500000000E-02 0. -1.
    5000001    1    1    2    0    0  0.24411519996E+02  0.45760197890E+01  0.23912968765E+03  0.30767494175E+03  0.19200000000E+03 0.  0.
   -5000001    1    1    2    0    0 -0.24411519996E+02 -0.45760197890E+01  0.19219752084E+03  0.27280166657E+03  0.19200000000E+03 0.  0.
<mgrwt>
<rscale>  0 0.38847128E+03</rscale>
<asrwt>0</asrwt>
<pdfrwt beam="1">  1        2 0.72271698E-01 0.38847128E+03</pdfrwt>
<pdfrwt beam="2">  1       -2 0.10653529E-01 0.38847128E+03</pdfrwt>
<totfact> 0.40293596E+03</totfact>
</mgrwt>
</event>
<event>
 4    1  0.5847263E-005  0.5632008E+03  0.7818608E-02  0.9984838E-01
          2   -1    0    0  501    0  0.00000000000E+00  0.00000000000E+00  0.46226956091E+03  0.46226956092E+03  0.25500000000E-02 0.  1.
         -2   -1    0    0    0  501 -0.00000000000E+00 -0.00000000000E+00 -0.17154232371E+03  0.17154232373E+03  0.25500000000E-02 0. -1.
    5000001    1    1    2    0    0  0.18700822173E+03 -0.86229779602E+02  0.13950034359E+03  0.31421647911E+03  0.19200000000E+03 0.  0.
   -5000001    1    1    2    0    0 -0.18700822173E+03  0.86229779602E+02  0.15122689362E+03  0.31959540553E+03  0.19200000000E+03 0.  0.
<mgrwt>
<rscale>  0 0.56320083E+03</rscale>
<asrwt>0</asrwt>
<pdfrwt beam="1">  1        2 0.66038509E-01 0.56320083E+03</pdfrwt>
<pdfrwt beam="2">  1       -2 0.24506046E-01 0.56320083E+03</pdfrwt>
<totfact> 0.10925633E+03</totfact>
</mgrwt>
</event>
<event>
 4    1  0.5847263E-005  0.4929707E+03  0.7818608E-02  0.1015630E+00
         -2   -1    0    0    0  501 -0.00000000000E+00  0.00000000000E+00  0.13479679443E+04  0.13479679443E+04  0.25500000000E-02 0. -1.
          2   -1    0    0  501    0  0.00000000000E+00 -0.00000000000E+00 -0.45071571527E+02  0.45071571599E+02  0.25500000000E-02 0.  1.
    5000001    1    1    2    0    0 -0.92282395931E+02 -0.11370142671E+03  0.79123216457E+03  0.82725835945E+03  0.19200000000E+03 0.  0.
   -5000001    1    1    2    0    0  0.92282395931E+02  0.11370142671E+03  0.51166420819E+03  0.56578115643E+03  0.19200000000E+03 0.  0.
<mgrwt>
<rscale>  0 0.49297072E+03</rscale>
<asrwt>0</asrwt>
<pdfrwt beam="1">  1        2 0.64387957E-02 0.49297072E+03</pdfrwt>
<pdfrwt beam="2">  1       -2 0.19256686E+00 0.49297072E+03</pdfrwt>
<totfact> 0.18024054E+02</totfact>
</mgrwt>
</event>
<event>
 4    1  0.5847263E-005  0.7669458E+03  0.7818608E-02  0.9609134E-01
         -2   -1    0    0    0  501 -0.00000000000E+00  0.00000000000E+00  0.35440400789E+03  0.35440400790E+03  0.25500000000E-02 0. -1.
          2   -1    0    0  501    0  0.00000000000E+00 -0.00000000000E+00 -0.41492607644E+03  0.41492607645E+03  0.25500000000E-02 0.  1.
    5000001    1    1    2    0    0 -0.27339556538E+03 -0.13566837714E+03 -0.16119044755E+03  0.39496506695E+03  0.19200000000E+03 0.  0.
   -5000001    1    1    2    0    0  0.27339556538E+03  0.13566837714E+03  0.10066837900E+03  0.37436501741E+03  0.19200000000E+03 0.  0.
<mgrwt>
<rscale>  0 0.76694580E+03</rscale>
<asrwt>0</asrwt>
<pdfrwt beam="1">  1        2 0.59275154E-01 0.76694580E+03</pdfrwt>
<pdfrwt beam="2">  1       -2 0.50629144E-01 0.76694580E+03</pdfrwt>
<totfact> 0.30831954E+02</totfact>
</mgrwt>
</event>
<event>
 4    1  0.5847263E-005  0.6236780E+03  0.7818608E-02  0.9857464E-01
         -2   -1    0    0    0  501 -0.00000000000E+00  0.00000000000E+00  0.32604432495E+02  0.32604432595E+02  0.25500000000E-02 0. -1.
          2   -1    0    0  501    0  0.00000000000E+00 -0.00000000000E+00 -0.29825262507E+04  0.29825262507E+04  0.25500000000E-02 0.  1.
    5000001    1    1    2    0    0 -0.44820768097E+02  0.12674012759E+03 -0.24693468028E+04  0.24804454426E+04  0.19200000000E+03 0.  0.
   -5000001    1    1    2    0    0  0.44820768097E+02 -0.12674012759E+03 -0.48057501543E+03  0.53468524073E+03  0.19200000000E+03 0.  0.
<mgrwt>
<rscale>  0 0.62367805E+03</rscale>
<asrwt>0</asrwt>
<pdfrwt beam="1">  1        2 0.42607501E+00 0.62367805E+03</pdfrwt>
<pdfrwt beam="2">  1       -2 0.46577779E-02 0.62367805E+03</pdfrwt>
<totfact> 0.58918808E+02</totfact>
</mgrwt>
</event>
<event>
 4    1  0.5847263E-005  0.4301425E+03  0.7818608E-02  0.1033815E+00
         -2   -1    0    0    0  501 -0.00000000000E+00  0.00000000000E+00  0.11250624705E+02  0.11250624994E+02  0.25500000000E-02 0. -1.
          2   -1    0    0  501    0  0.00000000000E+00 -0.00000000000E+00 -0.41113840259E+04  0.41113840259E+04  0.25500000000E-02 0.  1.
    5000001    1    1    2    0    0 -0.15684564513E+02 -0.40307435654E+02 -0.12188797859E+04  0.12346670107E+04  0.19200000000E+03 0.  0.
   -5000001    1    1    2    0    0  0.15684564513E+02  0.40307435654E+02 -0.28812536153E+04  0.28879676402E+04  0.19200000000E+03 0.  0.
<mgrwt>
<rscale>  0 0.43014248E+03</rscale>
<asrwt>0</asrwt>
<pdfrwt beam="1">  1        2 0.58733961E+00 0.43014248E+03</pdfrwt>
<pdfrwt beam="2">  1       -2 0.16072348E-02 0.43014248E+03</pdfrwt>
<totfact> 0.63079381E+02</totfact>
</mgrwt>
</event>
<event>
 4    1  0.5847263E-005  0.6166187E+03  0.7818608E-02  0.9871515E-01
         -2   -1    0    0    0  501 -0.00000000000E+00  0.00000000000E+00  0.13253192675E+03  0.13253192677E+03  0.25500000000E-02 0.  1.
          2   -1    0    0  501    0  0.00000000000E+00 -0.00000000000E+00 -0.71722069555E+03  0.71722069555E+03  0.25500000000E-02 0. -1.
    5000001    1    1    2    0    0  0.21547408707E+03  0.96811594702E+02 -0.22498616118E+03  0.37852917958E+03  0.19200000000E+03 0.  0.
   -5000001    1    1    2    0    0 -0.21547408707E+03 -0.96811594702E+02 -0.35970260762E+03  0.47122344275E+03  0.19200000000E+03 0.  0.
<mgrwt>
<rscale>  0 0.61661865E+03</rscale>
<asrwt>0</asrwt>
<pdfrwt beam="1">  1        2 0.10246010E+00 0.61661865E+03</pdfrwt>
<pdfrwt beam="2">  1       -2 0.18933133E-01 0.61661865E+03</pdfrwt>
<totfact> 0.10280348E+03</totfact>
</mgrwt>
</event>
<event>
 4    1  0.5847263E-005  0.1029460E+04  0.7818608E-02  0.9276811E-01
         -2   -1    0    0    0  501 -0.00000000000E+00  0.00000000000E+00  0.27888159444E+03  0.27888159445E+03  0.25500000000E-02 0. -1.
          2   -1    0    0  501    0  0.00000000000E+00 -0.00000000000E+00 -0.95003409438E+03  0.95003409438E+03  0.25500000000E-02 0.  1.
    5000001    1    1    2    0    0 -0.44760975147E+03  0.16345471038E+03 -0.37353463340E+03  0.63518820384E+03  0.19200000000E+03 0.  0.
   -5000001    1    1    2    0    0  0.44760975147E+03 -0.16345471038E+03 -0.29761786654E+03  0.59372748499E+03  0.19200000000E+03 0.  0.
<mgrwt>
<rscale>  0 0.10294601E+04</rscale>
<asrwt>0</asrwt>
<pdfrwt beam="1">  1        2 0.13571915E+00 0.10294601E+04</pdfrwt>
<pdfrwt beam="2">  1       -2 0.39840228E-01 0.10294601E+04</pdfrwt>
<totfact> 0.17910810E+02</totfact>
</mgrwt>
</event>
<event>
 4    1  0.5847263E-005  0.8574153E+03  0.7818608E-02  0.9480438E-01
          2   -1    0    0  501    0  0.00000000000E+00  0.00000000000E+00  0.72015881711E+03  0.72015881711E+03  0.25500000000E-02 0.  1.
         -2   -1    0    0    0  501 -0.00000000000E+00 -0.00000000000E+00 -0.25520793486E+03  0.25520793487E+03  0.25500000000E-02 0. -1.
    5000001    1    1    2    0    0 -0.19187890220E+03  0.19859428238E+03 -0.69931201909E+02  0.34352812855E+03  0.19200000000E+03 0.  0.
   -5000001    1    1    2    0    0  0.19187890220E+03 -0.19859428238E+03  0.53488208416E+03  0.63183862343E+03  0.19200000000E+03 0.  0.
<mgrwt>
<rscale>  0 0.85741529E+03</rscale>
<asrwt>0</asrwt>
<pdfrwt beam="1">  1        2 0.10287983E+00 0.85741529E+03</pdfrwt>
<pdfrwt beam="2">  1       -2 0.36458276E-01 0.85741529E+03</pdfrwt>
<totfact> 0.30842335E+02</totfact>
</mgrwt>
</event>
<event>
 4    1  0.5847263E-005  0.6851783E+03  0.7818608E-02  0.9742920E-01
          2   -1    0    0  501    0  0.00000000000E+00  0.00000000000E+00  0.90715001698E+03  0.90715001698E+03  0.25500000000E-02 0. -1.
         -2   -1    0    0    0  501 -0.00000000000E+00 -0.00000000000E+00 -0.12938027090E+03  0.12938027093E+03  0.25500000000E-02 0.  1.
    5000001    1    1    2    0    0 -0.20810943919E+02 -0.26683509389E+03  0.53135437949E+03  0.62516840877E+03  0.19200000000E+03 0.  0.
   -5000001    1    1    2    0    0  0.20810943919E+02  0.26683509389E+03  0.24641536658E+03  0.41136187914E+03  0.19200000000E+03 0.  0.
<mgrwt>
<rscale>  0 0.68517827E+03</rscale>
<asrwt>0</asrwt>
<pdfrwt beam="1">  1        2 0.12959286E+00 0.68517827E+03</pdfrwt>
<pdfrwt beam="2">  1       -2 0.18482895E-01 0.68517827E+03</pdfrwt>
<totfact> 0.79083032E+02</totfact>
</mgrwt>
</event>
<event>
 4    1  0.5847263E-005  0.7894245E+03  0.7818608E-02  0.9575452E-01
          2   -1    0    0  501    0  0.00000000000E+00  0.00000000000E+00  0.55021824737E+03  0.55021824737E+03  0.25500000000E-02 0.  1.
         -2   -1    0    0    0  501 -0.00000000000E+00 -0.00000000000E+00 -0.28315629498E+03  0.28315629499E+03  0.25500000000E-02 0. -1.
    5000001    1    1    2    0    0 -0.16912510165E+03 -0.22575620331E+02  0.44991758420E+03  0.51807604771E+03  0.19200000000E+03 0.  0.
   -5000001    1    1    2    0    0  0.16912510165E+03  0.22575620331E+02 -0.18285563181E+03  0.31529849465E+03  0.19200000000E+03 0.  0.
<mgrwt>
<rscale>  0 0.78942450E+03</rscale>
<asrwt>0</asrwt>
<pdfrwt beam="1">  1        2 0.78602606E-01 0.78942450E+03</pdfrwt>
<pdfrwt beam="2">  1       -2 0.40450899E-01 0.78942450E+03</pdfrwt>
<totfact> 0.34946751E+02</totfact>
</mgrwt>
</event>
<event>
 4    1  0.5847263E-005  0.1031772E+04  0.7818608E-02  0.9274368E-01
          2   -1    0    0  501    0  0.00000000000E+00  0.00000000000E+00  0.16364816309E+04  0.16364816309E+04  0.25500000000E-02 0.  1.
         -2   -1    0    0    0  501 -0.00000000000E+00 -0.00000000000E+00 -0.16262831976E+03  0.16262831978E+03  0.25500000000E-02 0. -1.
    5000001    1    1    2    0    0 -0.21485146661E+03  0.42789776303E+03  0.74403313521E+03  0.90537669210E+03  0.19200000000E+03 0.  0.
   -5000001    1    1    2    0    0  0.21485146661E+03 -0.42789776303E+03  0.72982017594E+03  0.89373325859E+03  0.19200000000E+03 0.  0.
<mgrwt>
<rscale>  0 0.10317718E+04</rscale>
<asrwt>0</asrwt>
<pdfrwt beam="1">  1        2 0.23378309E+00 0.10317718E+04</pdfrwt>
<pdfrwt beam="2">  1       -2 0.23232617E-01 0.10317718E+04</pdfrwt>
<totfact> 0.20177569E+02</totfact>
</mgrwt>
</event>
<event>
 4    1  0.5847263E-005  0.4286248E+03  0.7818608E-02  0.1034295E+00
         -2   -1    0    0    0  501 -0.00000000000E+00  0.00000000000E+00  0.13903559547E+02  0.13903559781E+02  0.25500000000E-02 0. -1.
          2   -1    0    0  501    0  0.00000000000E+00 -0.00000000000E+00 -0.33034564879E+04  0.33034564879E+04  0.25500000000E-02 0.  1.
    5000001    1    1    2    0    0  0.72816978829E+02 -0.47028746935E+02 -0.13398945644E+04  0.13563537367E+04  0.19200000000E+03 0.  0.
   -5000001    1    1    2    0    0 -0.72816978829E+02  0.47028746935E+02 -0.19496583640E+04  0.19610063110E+04  0.19200000000E+03 0.  0.
<mgrwt>
<rscale>  0 0.42862480E+03</rscale>
<asrwt>0</asrwt>
<pdfrwt beam="1">  1        2 0.47192185E+00 0.42862480E+03</pdfrwt>
<pdfrwt beam="2">  1       -2 0.19862249E-02 0.42862480E+03</pdfrwt>
<totfact> 0.14532882E+03</totfact>
</mgrwt>
</event>
<event>
 4    1  0.5847263E-005  0.4605772E+03  0.7818608E-02  0.1024614E+00
          2   -1    0    0  501    0  0.00000000000E+00  0.00000000000E+00  0.19615840889E+03  0.19615840890E+03  0.25500000000E-02 0.  1.
         -2   -1    0    0    0  501 -0.00000000000E+00 -0.00000000000E+00 -0.27035716928E+03  0.27035716929E+03  0.25500000000E-02 0. -1.
    5000001    1    1    2    0    0  0.45017497417E+02  0.11816654210E+03 -0.50648146941E+02  0.23541270470E+03  0.19200000000E+03 0.  0.
   -5000001    1    1    2    0    0 -0.45017497417E+02 -0.11816654210E+03 -0.23550613453E+02  0.23110287350E+03  0.19200000000E+03 0.  0.
<mgrwt>
<rscale>  0 0.46057717E+03</rscale>
<asrwt>0</asrwt>
<pdfrwt beam="1">  1        2 0.28022630E-01 0.46057717E+03</pdfrwt>
<pdfrwt beam="2">  1       -2 0.38622452E-01 0.46057717E+03</pdfrwt>
<totfact> 0.12159465E+03</totfact>
</mgrwt>
</event>
<event>
 4    1  0.5847263E-005  0.6396339E+03  0.7818608E-02  0.9826427E-01
         -2   -1    0    0    0  501 -0.00000000000E+00  0.00000000000E+00  0.74328484558E+02  0.74328484601E+02  0.25500000000E-02 0. -1.
          2   -1    0    0  501    0  0.00000000000E+00 -0.00000000000E+00 -0.13760924533E+04  0.13760924533E+04  0.25500000000E-02 0.  1.
    5000001    1    1    2    0    0  0.14959183697E+03  0.15742432314E+03 -0.34447552244E+03  0.45020830820E+03  0.19200000000E+03 0.  0.
   -5000001    1    1    2    0    0 -0.14959183697E+03 -0.15742432314E+03 -0.95728844625E+03  0.10002126297E+04  0.19200000000E+03 0.  0.
<mgrwt>
<rscale>  0 0.63963385E+03</rscale>
<asrwt>0</asrwt>
<pdfrwt beam="1">  1        2 0.19658462E+00 0.63963385E+03</pdfrwt>
<pdfrwt beam="2">  1       -2 0.10618356E-01 0.63963385E+03</pdfrwt>
<totfact> 0.10727331E+03</totfact>
</mgrwt>
</event>
<event>
 4    1  0.5847263E-005  0.1127189E+04  0.7818608E-02  0.9179089E-01
         -2   -1    0    0    0  501 -0.00000000000E+00  0.00000000000E+00  0.32271460456E+03  0.32271460457E+03  0.25500000000E-02 0.  1.
          2   -1    0    0  501    0  0.00000000000E+00 -0.00000000000E+00 -0.98427208130E+03  0.98427208130E+03  0.25500000000E-02 0. -1.
    5000001    1    1    2    0    0 -0.13540983295E+03 -0.47566023986E+03 -0.11020820290E+03  0.54184715062E+03  0.19200000000E+03 0.  0.
   -5000001    1    1    2    0    0  0.13540983295E+03  0.47566023986E+03 -0.55134927384E+03  0.76513953525E+03  0.19200000000E+03 0.  0.
<mgrwt>
<rscale>  0 0.11271894E+04</rscale>
<asrwt>0</asrwt>
<pdfrwt beam="1">  1        2 0.14061030E+00 0.11271894E+04</pdfrwt>
<pdfrwt beam="2">  1       -2 0.46102087E-01 0.11271894E+04</pdfrwt>
<totfact> 0.12696313E+02</totfact>
</mgrwt>
</event>
<event>
 4    1  0.5847263E-005  0.7118772E+03  0.7818608E-02  0.9697134E-01
         -2   -1    0    0    0  501 -0.00000000000E+00  0.00000000000E+00  0.66705825871E+02  0.66705825920E+02  0.25500000000E-02 0. -1.
          2   -1    0    0  501    0  0.00000000000E+00 -0.00000000000E+00 -0.18992684852E+04  0.18992684852E+04  0.25500000000E-02 0.  1.
    5000001    1    1    2    0    0 -0.10047370061E+03  0.23207335218E+03 -0.13605188172E+04  0.13970785437E+04  0.19200000000E+03 0.  0.
   -5000001    1    1    2    0    0  0.10047370061E+03 -0.23207335218E+03 -0.47204384215E+03  0.56889576745E+03  0.19200000000E+03 0.  0.
<mgrwt>
<rscale>  0 0.71187716E+03</rscale>
<asrwt>0</asrwt>
<pdfrwt beam="1">  1        2 0.27132404E+00 0.71187716E+03</pdfrwt>
<pdfrwt beam="2">  1       -2 0.95294049E-02 0.71187716E+03</pdfrwt>
<totfact> 0.68453751E+02</totfact>
</mgrwt>
</event>
<event>
 4    1  0.5847263E-005  0.5417619E+03  0.7818608E-02  0.1003419E+00
          2   -1    0    0  501    0  0.00000000000E+00  0.00000000000E+00  0.22088119989E+04  0.22088119989E+04  0.25500000000E-02 0.  1.
         -2   -1    0    0    0  501 -0.00000000000E+00 -0.00000000000E+00 -0.33219883475E+02  0.33219883572E+02  0.25500000000E-02 0. -1.
    5000001    1    1    2    0    0 -0.11413129210E+02 -0.13966090872E+03  0.16254237212E+04  0.16427116918E+04  0.19200000000E+03 0.  0.
   -5000001    1    1    2    0    0  0.11413129210E+02  0.13966090872E+03  0.55016839423E+03  0.59932019067E+03  0.19200000000E+03 0.  0.
<mgrwt>
<rscale>  0 0.54176186E+03</rscale>
<asrwt>0</asrwt>
<pdfrwt beam="1">  1        2 0.31554459E+00 0.54176186E+03</pdfrwt>
<pdfrwt beam="2">  1       -2 0.47456974E-02 0.54176186E+03</pdfrwt>
<totfact> 0.14521088E+03</totfact>
</mgrwt>
</event>
<event>
 4    1  0.5847263E-005  0.4610405E+03  0.7818608E-02  0.1024480E+00
          2   -1    0    0  501    0  0.00000000000E+00  0.00000000000E+00  0.35327636796E+04  0.35327636796E+04  0.25500000000E-02 0.  1.
         -2   -1    0    0    0  501 -0.00000000000E+00 -0.00000000000E+00 -0.15041933311E+02  0.15041933527E+02  0.25500000000E-02 0. -1.
    5000001    1    1    2    0    0 -0.12474082816E+03 -0.51022959520E+01  0.15568283958E+04  0.15735834778E+04  0.19200000000E+03 0.  0.
   -5000001    1    1    2    0    0  0.12474082816E+03  0.51022959520E+01  0.19608933504E+04  0.19742221353E+04  0.19200000000E+03 0.  0.
<mgrwt>
<rscale>  0 0.46104055E+03</rscale>
<asrwt>0</asrwt>
<pdfrwt beam="1">  1        2 0.50468049E+00 0.46104055E+03</pdfrwt>
<pdfrwt beam="2">  1       -2 0.21488478E-02 0.46104055E+03</pdfrwt>
<totfact> 0.94821103E+02</totfact>
</mgrwt>
</event>
<event>
 4    1  0.5847263E-005  0.5633760E+03  0.7818608E-02  0.9984445E-01
          2   -1    0    0  501    0  0.00000000000E+00  0.00000000000E+00  0.24026747265E+03  0.24026747266E+03  0.25500000000E-02 0.  1.
         -2   -1    0    0    0  501 -0.00000000000E+00 -0.00000000000E+00 -0.33024917093E+03  0.33024917094E+03  0.25500000000E-02 0. -1.
    5000001    1    1    2    0    0 -0.19107155549E+03 -0.61819909042E+02  0.20096215748E+01  0.27784542295E+03  0.19200000000E+03 0.  0.
   -5000001    1    1    2    0    0  0.19107155549E+03  0.61819909042E+02 -0.91991319859E+02  0.29267122066E+03  0.19200000000E+03 0.  0.
<mgrwt>
<rscale>  0 0.56337602E+03</rscale>
<asrwt>0</asrwt>
<pdfrwt beam="1">  1        2 0.34323925E-01 0.56337602E+03</pdfrwt>
<pdfrwt beam="2">  1       -2 0.47178453E-01 0.56337602E+03</pdfrwt>
<totfact> 0.65507528E+02</totfact>
</mgrwt>
</event>
<event>
 4    1  0.5847263E-005  0.8237327E+03  0.7818608E-02  0.9526286E-01
          2   -1    0    0  501    0  0.00000000000E+00  0.00000000000E+00  0.23150667588E+04  0.23150667588E+04  0.25500000000E-02 0.  1.
         -2   -1    0    0    0  501 -0.00000000000E+00 -0.00000000000E+00 -0.73273863416E+02  0.73273863460E+02  0.25500000000E-02 0. -1.
    5000001    1    1    2    0    0 -0.25248632416E+03  0.25851085341E+03  0.12566645113E+04  0.13216076949E+04  0.19200000000E+03 0.  0.
   -5000001    1    1    2    0    0  0.25248632416E+03 -0.25851085341E+03  0.98512838407E+03  0.10667329274E+04  0.19200000000E+03 0.  0.
<mgrwt>
<rscale>  0 0.82373269E+03</rscale>
<asrwt>0</asrwt>
<pdfrwt beam="1">  1        2 0.33072383E+00 0.82373269E+03</pdfrwt>
<pdfrwt beam="2">  1       -2 0.10467694E-01 0.82373269E+03</pdfrwt>
<totfact> 0.35876749E+02</totfact>
</mgrwt>
</event>
<event>
 4    1  0.5847263E-005  0.5531902E+03  0.7818608E-02  0.1000758E+00
         -2   -1    0    0    0  501 -0.00000000000E+00  0.00000000000E+00  0.18671154466E+03  0.18671154468E+03  0.25500000000E-02 0. -1.
          2   -1    0    0  501    0  0.00000000000E+00 -0.00000000000E+00 -0.40974883495E+03  0.40974883496E+03  0.25500000000E-02 0.  1.
    5000001    1    1    2    0    0 -0.11152975469E+03  0.14868578857E+03 -0.18847729273E+03  0.32700770599E+03  0.19200000000E+03 0.  0.
   -5000001    1    1    2    0    0  0.11152975469E+03 -0.14868578857E+03 -0.34559997560E+02  0.26945267364E+03  0.19200000000E+03 0.  0.
<mgrwt>
<rscale>  0 0.55319016E+03</rscale>
<asrwt>0</asrwt>
<pdfrwt beam="1">  1        2 0.58535547E-01 0.55319016E+03</pdfrwt>
<pdfrwt beam="2">  1       -2 0.26673078E-01 0.55319016E+03</pdfrwt>
<totfact> 0.10733832E+03</totfact>
</mgrwt>
</event>
<event>
 4    1  0.5847263E-005  0.1593430E+04  0.7818608E-02  0.8824594E-01
          2   -1    0    0  501    0  0.00000000000E+00  0.00000000000E+00  0.81015430846E+03  0.81015430847E+03  0.25500000000E-02 0.  1.
         -2   -1    0    0    0  501 -0.00000000000E+00 -0.00000000000E+00 -0.78349858381E+03  0.78349858381E+03  0.25500000000E-02 0. -1.
    5000001    1    1    2    0    0 -0.29335553915E+03  0.63132321836E+03 -0.32326680671E+03  0.79119650322E+03  0.19200000000E+03 0.  0.
   -5000001    1    1    2    0    0  0.29335553915E+03 -0.63132321836E+03  0.34992253137E+03  0.80245638906E+03  0.19200000000E+03 0.  0.
<mgrwt>
<rscale>  0 0.15934300E+04</rscale>
<asrwt>0</asrwt>
<pdfrwt beam="1">  1        2 0.11573633E+00 0.15934300E+04</pdfrwt>
<pdfrwt beam="2">  1       -2 0.11192837E+00 0.15934300E+04</pdfrwt>
<totfact> 0.22651882E+01</totfact>
</mgrwt>
</event>
<event>
 4    1  0.5847263E-005  0.4443822E+03  0.7818608E-02  0.1029411E+00
         -2   -1    0    0    0  501 -0.00000000000E+00  0.00000000000E+00  0.16463681236E+03  0.16463681238E+03  0.25500000000E-02 0. -1.
          2   -1    0    0  501    0  0.00000000000E+00 -0.00000000000E+00 -0.29986540634E+03  0.29986540635E+03  0.25500000000E-02 0.  1.
    5000001    1    1    2    0    0 -0.48945454556E+02 -0.74870495577E+02  0.25332972229E+01  0.21182933278E+03  0.19200000000E+03 0.  0.
   -5000001    1    1    2    0    0  0.48945454556E+02  0.74870495577E+02 -0.13776189120E+03  0.25267288595E+03  0.19200000000E+03 0.  0.
<mgrwt>
<rscale>  0 0.44438220E+03</rscale>
<asrwt>0</asrwt>
<pdfrwt beam="1">  1        2 0.42837915E-01 0.44438220E+03</pdfrwt>
<pdfrwt beam="2">  1       -2 0.23519545E-01 0.44438220E+03</pdfrwt>
<totfact> 0.18937447E+03</totfact>
</mgrwt>
</event>
<event>
 4    1  0.5847263E-005  0.4447544E+03  0.7818608E-02  0.1029298E+00
          2   -1    0    0  501    0  0.00000000000E+00  0.00000000000E+00  0.70904236520E+03  0.70904236521E+03  0.25500000000E-02 0.  1.
         -2   -1    0    0    0  501 -0.00000000000E+00 -0.00000000000E+00 -0.69744237392E+02  0.69744237438E+02  0.25500000000E-02 0. -1.
    5000001    1    1    2    0    0 -0.10843000192E+03  0.20622900695E+02  0.35489910075E+03  0.41832970377E+03  0.19200000000E+03 0.  0.
   -5000001    1    1    2    0    0  0.10843000192E+03 -0.20622900695E+02  0.28439902706E+03  0.36045689887E+03  0.19200000000E+03 0.  0.
<mgrwt>
<rscale>  0 0.44475440E+03</rscale>
<asrwt>0</asrwt>
<pdfrwt beam="1">  1        2 0.10129177E+00 0.44475440E+03</pdfrwt>
<pdfrwt beam="2">  1       -2 0.99634622E-02 0.44475440E+03</pdfrwt>
<totfact> 0.30365804E+03</totfact>
</mgrwt>
</event>
<event>
 4    1  0.5847263E-005  0.5168159E+03  0.7818608E-02  0.1009481E+00
          2   -1    0    0  501    0  0.00000000000E+00  0.00000000000E+00  0.23208737131E+03  0.23208737132E+03  0.25500000000E-02 0.  1.
         -2   -1    0    0    0  501 -0.00000000000E+00 -0.00000000000E+00 -0.28771344810E+03  0.28771344812E+03  0.25500000000E-02 0. -1.
    5000001    1    1    2    0    0  0.76881787772E+02  0.13237069781E+03  0.53136890090E+02  0.25123761664E+03  0.19200000000E+03 0.  0.
   -5000001    1    1    2    0    0 -0.76881787772E+02 -0.13237069781E+03 -0.10876296689E+03  0.26856320279E+03  0.19200000000E+03 0.  0.
<mgrwt>
<rscale>  0 0.51681586E+03</rscale>
<asrwt>0</asrwt>
<pdfrwt beam="1">  1        2 0.33155339E-01 0.51681586E+03</pdfrwt>
<pdfrwt beam="2">  1       -2 0.41101921E-01 0.51681586E+03</pdfrwt>
<totfact> 0.89387657E+02</totfact>
</mgrwt>
</event>
<event>
 4    1  0.5847263E-005  0.9168692E+03  0.7818608E-02  0.9404736E-01
          2   -1    0    0  501    0  0.00000000000E+00  0.00000000000E+00  0.25560029836E+04  0.25560029836E+04  0.25500000000E-02 0.  1.
         -2   -1    0    0    0  501 -0.00000000000E+00 -0.00000000000E+00 -0.82223011424E+02  0.82223011464E+02  0.25500000000E-02 0. -1.
    5000001    1    1    2    0    0 -0.29489284704E+03  0.20253843842E+03  0.62436479017E+03  0.74476775002E+03  0.19200000000E+03 0.  0.
   -5000001    1    1    2    0    0  0.29489284704E+03 -0.20253843842E+03  0.18494151821E+04  0.18934582451E+04  0.19200000000E+03 0.  0.
<mgrwt>
<rscale>  0 0.91686916E+03</rscale>
<asrwt>0</asrwt>
<pdfrwt beam="1">  1        2 0.36514325E+00 0.91686916E+03</pdfrwt>
<pdfrwt beam="2">  1       -2 0.11746146E-01 0.91686916E+03</pdfrwt>
<totfact> 0.22122587E+02</totfact>
</mgrwt>
</event>
<event>
 4    1  0.5847263E-005  0.6192188E+03  0.7818608E-02  0.9866316E-01
          2   -1    0    0  501    0  0.00000000000E+00  0.00000000000E+00  0.11815966199E+04  0.11815966199E+04  0.25500000000E-02 0.  1.
         -2   -1    0    0    0  501 -0.00000000000E+00 -0.00000000000E+00 -0.81125813886E+02  0.81125813926E+02  0.25500000000E-02 0. -1.
    5000001    1    1    2    0    0 -0.49580231562E+02  0.19605478144E+03  0.27589942427E+03  0.39227562886E+03  0.19200000000E+03 0.  0.
   -5000001    1    1    2    0    0  0.49580231562E+02 -0.19605478144E+03  0.82457138170E+03  0.87044680492E+03  0.19200000000E+03 0.  0.
<mgrwt>
<rscale>  0 0.61921882E+03</rscale>
<asrwt>0</asrwt>
<pdfrwt beam="1">  1        2 0.16879951E+00 0.61921882E+03</pdfrwt>
<pdfrwt beam="2">  1       -2 0.11589403E-01 0.61921882E+03</pdfrwt>
<totfact> 0.11892886E+03</totfact>
</mgrwt>
</event>
<event>
 4    1  0.5847263E-005  0.4407458E+03  0.7818608E-02  0.1030518E+00
          2   -1    0    0  501    0  0.00000000000E+00  0.00000000000E+00  0.19136928878E+04  0.19136928878E+04  0.25500000000E-02 0.  1.
         -2   -1    0    0    0  501 -0.00000000000E+00 -0.00000000000E+00 -0.25377229230E+02  0.25377229358E+02  0.25500000000E-02 0. -1.
    5000001    1    1    2    0    0 -0.96602215688E+02 -0.19190954200E+02  0.74740814676E+03  0.77793522779E+03  0.19200000000E+03 0.  0.
   -5000001    1    1    2    0    0  0.96602215688E+02  0.19190954200E+02  0.11409075118E+04  0.11611348894E+04  0.19200000000E+03 0.  0.
<mgrwt>
<rscale>  0 0.44074584E+03</rscale>
<asrwt>0</asrwt>
<pdfrwt beam="1">  1        2 0.27338474E+00 0.44074584E+03</pdfrwt>
<pdfrwt beam="2">  1       -2 0.36253179E-02 0.44074584E+03</pdfrwt>
<totfact> 0.30917164E+03</totfact>
</mgrwt>
</event>
<event>
 4    1  0.5847263E-005  0.5835069E+03  0.7818608E-02  0.9940227E-01
          2   -1    0    0  501    0  0.00000000000E+00  0.00000000000E+00  0.16864182175E+03  0.16864182177E+03  0.25500000000E-02 0.  1.
         -2   -1    0    0    0  501 -0.00000000000E+00 -0.00000000000E+00 -0.50473875269E+03  0.50473875270E+03  0.25500000000E-02 0. -1.
    5000001    1    1    2    0    0  0.20976886130E+03 -0.16248323031E+02 -0.95161315046E+02  0.30031093729E+03  0.19200000000E+03 0.  0.
   -5000001    1    1    2    0    0 -0.20976886130E+03  0.16248323031E+02 -0.24093561590E+03  0.37306963718E+03  0.19200000000E+03 0.  0.
<mgrwt>
<rscale>  0 0.58350686E+03</rscale>
<asrwt>0</asrwt>
<pdfrwt beam="1">  1        2 0.24091689E-01 0.58350686E+03</pdfrwt>
<pdfrwt beam="2">  1       -2 0.72105535E-01 0.58350686E+03</pdfrwt>
<totfact> 0.40219635E+02</totfact>
</mgrwt>
</event>
<event>
 4    1  0.5847263E-005  0.4849574E+03  0.7818608E-02  0.1017782E+00
          2   -1    0    0  501    0  0.00000000000E+00  0.00000000000E+00  0.12320970088E+04  0.12320970088E+04  0.25500000000E-02 0.  1.
         -2   -1    0    0    0  501 -0.00000000000E+00 -0.00000000000E+00 -0.47720198797E+02  0.47720198865E+02  0.25500000000E-02 0. -1.
    5000001    1    1    2    0    0  0.13561822780E+03  0.49168013363E+02  0.68059068080E+03  0.72171841603E+03  0.19200000000E+03 0.  0.
   -5000001    1    1    2    0    0 -0.13561822780E+03 -0.49168013363E+02  0.50378612921E+03  0.55809879165E+03  0.19200000000E+03 0.  0.
<mgrwt>
<rscale>  0 0.48495738E+03</rscale>
<asrwt>0</asrwt>
<pdfrwt beam="1">  1        2 0.17601384E+00 0.48495738E+03</pdfrwt>
<pdfrwt beam="2">  1       -2 0.68171718E-02 0.48495738E+03</pdfrwt>
<totfact> 0.26173096E+03</totfact>
</mgrwt>
</event>
<event>
 4    1  0.5847263E-005  0.9408852E+03  0.7818608E-02  0.9375868E-01
          2   -1    0    0  501    0  0.00000000000E+00  0.00000000000E+00  0.20154584668E+04  0.20154584668E+04  0.25500000000E-02 0.  1.
         -2   -1    0    0    0  501 -0.00000000000E+00 -0.00000000000E+00 -0.10980937086E+03  0.10980937089E+03  0.25500000000E-02 0. -1.
    5000001    1    1    2    0    0  0.60163775043E+02  0.36942073839E+03  0.47707646544E+03  0.63604820231E+03  0.19200000000E+03 0.  0.
   -5000001    1    1    2    0    0 -0.60163775043E+02 -0.36942073839E+03  0.14285726305E+04  0.14892196353E+04  0.19200000000E+03 0.  0.
<mgrwt>
<rscale>  0 0.94088517E+03</rscale>
<asrwt>0</asrwt>
<pdfrwt beam="1">  1        2 0.28792261E+00 0.94088517E+03</pdfrwt>
<pdfrwt beam="2">  1       -2 0.15687055E-01 0.94088517E+03</pdfrwt>
<totfact> 0.25746918E+02</totfact>
</mgrwt>
</event>
<event>
 4    1  0.5847263E-005  0.5716201E+03  0.7818608E-02  0.9966100E-01
         -2   -1    0    0    0  501 -0.00000000000E+00  0.00000000000E+00  0.10030532358E+03  0.10030532362E+03  0.25500000000E-02 0. -1.
          2   -1    0    0  501    0  0.00000000000E+00 -0.00000000000E+00 -0.81438724539E+03  0.81438724539E+03  0.25500000000E-02 0.  1.
    5000001    1    1    2    0    0  0.13629857365E+03 -0.14299303495E+01 -0.97812341315E+02  0.25497176313E+03  0.19200000000E+03 0.  0.
   -5000001    1    1    2    0    0 -0.13629857365E+03  0.14299303495E+01 -0.61626958049E+03  0.65972080588E+03  0.19200000000E+03 0.  0.
<mgrwt>
<rscale>  0 0.57162007E+03</rscale>
<asrwt>0</asrwt>
<pdfrwt beam="1">  1        2 0.11634103E+00 0.57162007E+03</pdfrwt>
<pdfrwt beam="2">  1       -2 0.14329332E-01 0.57162007E+03</pdfrwt>
<totfact> 0.14082612E+03</totfact>
</mgrwt>
</event>
<event>
 4    1  0.5847263E-005  0.7210436E+03  0.7818608E-02  0.9681907E-01
         -2   -1    0    0    0  501 -0.00000000000E+00  0.00000000000E+00  0.17712050728E+03  0.17712050730E+03  0.25500000000E-02 0. -1.
          2   -1    0    0  501    0  0.00000000000E+00 -0.00000000000E+00 -0.73382785103E+03  0.73382785103E+03  0.25500000000E-02 0.  1.
    5000001    1    1    2    0    0 -0.65764852259E+02 -0.28366119984E+03 -0.39361383032E+03  0.52591305318E+03  0.19200000000E+03 0.  0.
   -5000001    1    1    2    0    0  0.65764852259E+02  0.28366119984E+03 -0.16309351343E+03  0.38503530515E+03  0.19200000000E+03 0.  0.
<mgrwt>
<rscale>  0 0.72104358E+03</rscale>
<asrwt>0</asrwt>
<pdfrwt beam="1">  1        2 0.10483255E+00 0.72104358E+03</pdfrwt>
<pdfrwt beam="2">  1       -2 0.25302930E-01 0.72104358E+03</pdfrwt>
<totfact> 0.59717806E+02</totfact>
</mgrwt>
</event>
<event>
 4    1  0.5847263E-005  0.5798577E+03  0.7818608E-02  0.9948099E-01
          2   -1    0    0  501    0  0.00000000000E+00  0.00000000000E+00  0.14768703343E+04  0.14768703343E+04  0.25500000000E-02 0.  1.
         -2   -1    0    0    0  501 -0.00000000000E+00 -0.00000000000E+00 -0.56916798804E+02  0.56916798861E+02  0.25500000000E-02 0. -1.
    5000001    1    1    2    0    0 -0.16595815567E+03  0.94594159963E+02  0.43630611111E+03  0.51353401749E+03  0.19200000000E+03 0.  0.
   -5000001    1    1    2    0    0  0.16595815567E+03 -0.94594159963E+02  0.98364742438E+03  0.10202531157E+04  0.19200000000E+03 0.  0.
<mgrwt>
<rscale>  0 0.57985768E+03</rscale>
<asrwt>0</asrwt>
<pdfrwt beam="1">  1        2 0.21098144E+00 0.57985768E+03</pdfrwt>
<pdfrwt beam="2">  1       -2 0.81309725E-02 0.57985768E+03</pdfrwt>
<totfact> 0.14621910E+03</totfact>
</mgrwt>
</event>
<event>
 4    1  0.5847263E-005  0.9561721E+03  0.7818608E-02  0.9357965E-01
         -2   -1    0    0    0  501 -0.00000000000E+00  0.00000000000E+00  0.13654836051E+03  0.13654836053E+03  0.25500000000E-02 0. -1.
          2   -1    0    0  501    0  0.00000000000E+00 -0.00000000000E+00 -0.16738851689E+04  0.16738851689E+04  0.25500000000E-02 0.  1.
    5000001    1    1    2    0    0 -0.26703617752E+02 -0.41344783171E+03 -0.10367732092E+04  0.11328790227E+04  0.19200000000E+03 0.  0.
   -5000001    1    1    2    0    0  0.26703617752E+02  0.41344783171E+03 -0.50056359915E+03  0.67755450669E+03  0.19200000000E+03 0.  0.
<mgrwt>
<rscale>  0 0.95617211E+03</rscale>
<asrwt>0</asrwt>
<pdfrwt beam="1">  1        2 0.23912644E+00 0.95617211E+03</pdfrwt>
<pdfrwt beam="2">  1       -2 0.19506910E-01 0.95617211E+03</pdfrwt>
<totfact> 0.26414337E+02</totfact>
</mgrwt>
</event>
<event>
 4    1  0.5847263E-005  0.9053135E+03  0.7818608E-02  0.9418964E-01
          2   -1    0    0  501    0  0.00000000000E+00  0.00000000000E+00  0.61519433799E+03  0.61519433799E+03  0.25500000000E-02 0.  1.
         -2   -1    0    0    0  501 -0.00000000000E+00 -0.00000000000E+00 -0.33306247469E+03  0.33306247470E+03  0.25500000000E-02 0. -1.
    5000001    1    1    2    0    0 -0.38637618881E+03 -0.12823318905E+03  0.19134103613E+03  0.48908659986E+03  0.19200000000E+03 0.  0.
   -5000001    1    1    2    0    0  0.38637618881E+03  0.12823318905E+03  0.90790827168E+02  0.45917021283E+03  0.19200000000E+03 0.  0.
<mgrwt>
<rscale>  0 0.90531353E+03</rscale>
<asrwt>0</asrwt>
<pdfrwt beam="1">  1        2 0.87884905E-01 0.90531353E+03</pdfrwt>
<pdfrwt beam="2">  1       -2 0.47580354E-01 0.90531353E+03</pdfrwt>
<totfact> 0.22095518E+02</totfact>
</mgrwt>
</event>
<event>
 4    1  0.5847263E-005  0.5708449E+03  0.7818608E-02  0.9967811E-01
         -2   -1    0    0    0  501 -0.00000000000E+00  0.00000000000E+00  0.64801180652E+03  0.64801180653E+03  0.25500000000E-02 0. -1.
          2   -1    0    0  501    0  0.00000000000E+00 -0.00000000000E+00 -0.12571679591E+03  0.12571679594E+03  0.25500000000E-02 0.  1.
    5000001    1    1    2    0    0 -0.49300039413E+02 -0.82882138044E+02  0.64818635359E+01  0.21495570997E+03  0.19200000000E+03 0.  0.
   -5000001    1    1    2    0    0  0.49300039413E+02  0.82882138044E+02  0.51581314708E+03  0.55877289250E+03  0.19200000000E+03 0.  0.
<mgrwt>
<rscale>  0 0.57084488E+03</rscale>
<asrwt>0</asrwt>
<pdfrwt beam="1">  1        2 0.17959542E-01 0.57084488E+03</pdfrwt>
<pdfrwt beam="2">  1       -2 0.92573115E-01 0.57084488E+03</pdfrwt>
<totfact> 0.32308650E+02</totfact>
</mgrwt>
</event>
<event>
 4    1  0.5847263E-005  0.6180437E+03  0.7818608E-02  0.9868662E-01
          2   -1    0    0  501    0  0.00000000000E+00  0.00000000000E+00  0.73156642994E+03  0.73156642995E+03  0.25500000000E-02 0.  1.
         -2   -1    0    0    0  501 -0.00000000000E+00 -0.00000000000E+00 -0.13053429067E+03  0.13053429069E+03  0.25500000000E-02 0. -1.
    5000001    1    1    2    0    0  0.18836216216E+03  0.14969325742E+03  0.26251649893E+03  0.40455813879E+03  0.19200000000E+03 0.  0.
   -5000001    1    1    2    0    0 -0.18836216216E+03 -0.14969325742E+03  0.33851564035E+03  0.45754258185E+03  0.19200000000E+03 0.  0.
<mgrwt>
<rscale>  0 0.61804370E+03</rscale>
<asrwt>0</asrwt>
<pdfrwt beam="1">  1        2 0.10450949E+00 0.61804370E+03</pdfrwt>
<pdfrwt beam="2">  1       -2 0.18647755E-01 0.61804370E+03</pdfrwt>
<totfact> 0.10298053E+03</totfact>
</mgrwt>
</event>
<event>
 4    1  0.5847263E-005  0.7783118E+03  0.7818608E-02  0.9591951E-01
         -2   -1    0    0    0  501 -0.00000000000E+00  0.00000000000E+00  0.20799248234E+03  0.20799248236E+03  0.25500000000E-02 0. -1.
          2   -1    0    0  501    0  0.00000000000E+00 -0.00000000000E+00 -0.72811439024E+03  0.72811439024E+03  0.25500000000E-02 0.  1.
    5000001    1    1    2    0    0  0.15739636892E+03 -0.28428981566E+03 -0.37406145533E+03  0.53139466369E+03  0.19200000000E+03 0.  0.
   -5000001    1    1    2    0    0 -0.15739636892E+03  0.28428981566E+03 -0.14606045257E+03  0.40471220891E+03  0.19200000000E+03 0.  0.
<mgrwt>
<rscale>  0 0.77831181E+03</rscale>
<asrwt>0</asrwt>
<pdfrwt beam="1">  1        2 0.10401634E+00 0.77831181E+03</pdfrwt>
<pdfrwt beam="2">  1       -2 0.29713212E-01 0.77831181E+03</pdfrwt>
<totfact> 0.44871283E+02</totfact>
</mgrwt>
</event>
<event>
 4    1  0.5847263E-005  0.7520809E+03  0.7818608E-02  0.9632091E-01
         -2   -1    0    0    0  501 -0.00000000000E+00  0.00000000000E+00  0.11160414048E+03  0.11160414051E+03  0.25500000000E-02 0. -1.
          2   -1    0    0  501    0  0.00000000000E+00 -0.00000000000E+00 -0.12670357564E+04  0.12670357564E+04  0.25500000000E-02 0.  1.
    5000001    1    1    2    0    0 -0.15911578825E+03  0.18530982960E+03 -0.96607737197E+03  0.10148039494E+04  0.19200000000E+03 0.  0.
   -5000001    1    1    2    0    0  0.15911578825E+03 -0.18530982960E+03 -0.18935424393E+03  0.36383594753E+03  0.19200000000E+03 0.  0.
<mgrwt>
<rscale>  0 0.75208094E+03</rscale>
<asrwt>0</asrwt>
<pdfrwt beam="1">  1        2 0.18100510E+00 0.75208094E+03</pdfrwt>
<pdfrwt beam="2">  1       -2 0.15943449E-01 0.75208094E+03</pdfrwt>
<totfact> 0.62228307E+02</totfact>
</mgrwt>
</event>
<event>
 4    1  0.5847263E-005  0.7392753E+03  0.7818608E-02  0.9652328E-01
          2   -1    0    0  501    0  0.00000000000E+00  0.00000000000E+00  0.58232183703E+03  0.58232183703E+03  0.25500000000E-02 0.  1.
         -2   -1    0    0    0  501 -0.00000000000E+00 -0.00000000000E+00 -0.23463312762E+03  0.23463312763E+03  0.25500000000E-02 0. -1.
    5000001    1    1    2    0    0 -0.83857155670E+02 -0.30281888894E+03  0.13826346853E+03  0.39333457614E+03  0.19200000000E+03 0.  0.
   -5000001    1    1    2    0    0  0.83857155670E+02  0.30281888894E+03  0.20942524088E+03  0.42362038853E+03  0.19200000000E+03 0.  0.
<mgrwt>
<rscale>  0 0.73927530E+03</rscale>
<asrwt>0</asrwt>
<pdfrwt beam="1">  1        2 0.83188834E-01 0.73927530E+03</pdfrwt>
<pdfrwt beam="2">  1       -2 0.33519018E-01 0.73927530E+03</pdfrwt>
<totfact> 0.46991531E+02</totfact>
</mgrwt>
</event>
<event>
 4    1  0.5847263E-005  0.4874835E+03  0.7818608E-02  0.1017099E+00
         -2   -1    0    0    0  501 -0.00000000000E+00  0.00000000000E+00  0.18399190305E+03  0.18399190307E+03  0.25500000000E-02 0. -1.
          2   -1    0    0  501    0  0.00000000000E+00 -0.00000000000E+00 -0.32289484221E+03  0.32289484222E+03  0.25500000000E-02 0.  1.
    5000001    1    1    2    0    0 -0.73213469800E+02  0.12135365825E+03 -0.12101472860E+03  0.26757333026E+03  0.19200000000E+03 0.  0.
   -5000001    1    1    2    0    0  0.73213469800E+02 -0.12135365825E+03 -0.17888210561E+02  0.23931341502E+03  0.19200000000E+03 0.  0.
<mgrwt>
<rscale>  0 0.48748348E+03</rscale>
<asrwt>0</asrwt>
<pdfrwt beam="1">  1        2 0.46127835E-01 0.48748348E+03</pdfrwt>
<pdfrwt beam="2">  1       -2 0.26284558E-01 0.48748348E+03</pdfrwt>
<totfact> 0.14331577E+03</totfact>
</mgrwt>
</event>
<event>
 4    1  0.5847263E-005  0.5708588E+03  0.7818608E-02  0.9967780E-01
          2   -1    0    0  501    0  0.00000000000E+00  0.00000000000E+00  0.15862682585E+03  0.15862682587E+03  0.25500000000E-02 0.  1.
         -2   -1    0    0    0  501 -0.00000000000E+00 -0.00000000000E+00 -0.51359500121E+03  0.51359500122E+03  0.25500000000E-02 0. -1.
    5000001    1    1    2    0    0  0.20298846094E+02  0.20855834076E+03 -0.20857976472E+03  0.35253105240E+03  0.19200000000E+03 0.  0.
   -5000001    1    1    2    0    0 -0.20298846094E+02 -0.20855834076E+03 -0.14638841064E+03  0.31969077469E+03  0.19200000000E+03 0.  0.
<mgrwt>
<rscale>  0 0.57085881E+03</rscale>
<asrwt>0</asrwt>
<pdfrwt beam="1">  1        2 0.22660975E-01 0.57085881E+03</pdfrwt>
<pdfrwt beam="2">  1       -2 0.73370714E-01 0.57085881E+03</pdfrwt>
<totfact> 0.41549849E+02</totfact>
</mgrwt>
</event>
<event>
 4    1  0.5847263E-005  0.4480608E+03  0.7818608E-02  0.1028302E+00
          2   -1    0    0  501    0  0.00000000000E+00  0.00000000000E+00  0.59459703511E+03  0.59459703511E+03  0.25500000000E-02 0.  1.
         -2   -1    0    0    0  501 -0.00000000000E+00 -0.00000000000E+00 -0.84409458728E+02  0.84409458766E+02  0.25500000000E-02 0. -1.
    5000001    1    1    2    0    0 -0.98861178775E+02 -0.41112433284E+02  0.32048347253E+03  0.38863533164E+03  0.19200000000E+03 0.  0.
   -5000001    1    1    2    0    0  0.98861178775E+02  0.41112433284E+02  0.18970410385E+03  0.29037116224E+03  0.19200000000E+03 0.  0.
<mgrwt>
<rscale>  0 0.44806077E+03</rscale>
<asrwt>0</asrwt>
<pdfrwt beam="1">  1        2 0.84942435E-01 0.44806077E+03</pdfrwt>
<pdfrwt beam="2">  1       -2 0.12058494E-01 0.44806077E+03</pdfrwt>
<totfact> 0.27461046E+03</totfact>
</mgrwt>
</event>
<event>
 4    1  0.5847263E-005  0.5303791E+03  0.7818608E-02  0.1006140E+00
          2   -1    0    0  501    0  0.00000000000E+00  0.00000000000E+00  0.37104495712E+02  0.37104495800E+02  0.25500000000E-02 0.  1.
         -2   -1    0    0    0  501 -0.00000000000E+00 -0.00000000000E+00 -0.18953363274E+04  0.18953363274E+04  0.25500000000E-02 0. -1.
    5000001    1    1    2    0    0 -0.10787372130E+03 -0.14488910497E+03 -0.10342048497E+04  0.10672737529E+04  0.19200000000E+03 0.  0.
   -5000001    1    1    2    0    0  0.10787372130E+03  0.14488910497E+03 -0.82402698191E+03  0.86516707023E+03  0.19200000000E+03 0.  0.
<mgrwt>
<rscale>  0 0.53037910E+03</rscale>
<asrwt>0</asrwt>
<pdfrwt beam="1">  1        2 0.53006434E-02 0.53037910E+03</pdfrwt>
<pdfrwt beam="2">  1       -2 0.27076227E+00 0.53037910E+03</pdfrwt>
<totfact> 0.77061001E+01</totfact>
</mgrwt>
</event>
<event>
 4    1  0.5847263E-005  0.6939476E+03  0.7818608E-02  0.9727639E-01
         -2   -1    0    0    0  501 -0.00000000000E+00  0.00000000000E+00  0.73723991754E+02  0.73723991798E+02  0.25500000000E-02 0. -1.
          2   -1    0    0  501    0  0.00000000000E+00 -0.00000000000E+00 -0.16329935733E+04  0.16329935733E+04  0.25500000000E-02 0.  1.
    5000001    1    1    2    0    0 -0.22482472558E+03 -0.87544732302E+02 -0.38830995300E+03  0.49584156440E+03  0.19200000000E+03 0.  0.
   -5000001    1    1    2    0    0  0.22482472558E+03  0.87544732302E+02 -0.11709596286E+04  0.12108760007E+04  0.19200000000E+03 0.  0.
<mgrwt>
<rscale>  0 0.69394756E+03</rscale>
<asrwt>0</asrwt>
<pdfrwt beam="1">  1        2 0.23328477E+00 0.69394756E+03</pdfrwt>
<pdfrwt beam="2">  1       -2 0.10532000E-01 0.69394756E+03</pdfrwt>
<totfact> 0.79575860E+02</totfact>
</mgrwt>
</event>
<event>
 4    1  0.5847263E-005  0.4399343E+03  0.7818608E-02  0.1030767E+00
         -2   -1    0    0    0  501 -0.00000000000E+00  0.00000000000E+00  0.11707912466E+03  0.11707912469E+03  0.25500000000E-02 0. -1.
          2   -1    0    0  501    0  0.00000000000E+00 -0.00000000000E+00 -0.41327210664E+03  0.41327210665E+03  0.25500000000E-02 0.  1.
    5000001    1    1    2    0    0  0.73033782784E+02  0.67194287261E+02 -0.19739830193E+03  0.29270991659E+03  0.19200000000E+03 0.  0.
   -5000001    1    1    2    0    0 -0.73033782784E+02 -0.67194287261E+02 -0.98794680054E+02  0.23764131475E+03  0.19200000000E+03 0.  0.
<mgrwt>
<rscale>  0 0.43993425E+03</rscale>
<asrwt>0</asrwt>
<pdfrwt beam="1">  1        2 0.59038872E-01 0.43993425E+03</pdfrwt>
<pdfrwt beam="2">  1       -2 0.16725589E-01 0.43993425E+03</pdfrwt>
<totfact> 0.24015473E+03</totfact>
</mgrwt>
</event>
<event>
 4    1  0.5847263E-005  0.3983720E+03  0.7818608E-02  0.1044345E+00
          2   -1    0    0  501    0  0.00000000000E+00  0.00000000000E+00  0.10867112378E+03  0.10867112381E+03  0.25500000000E-02 0.  1.
         -2   -1    0    0    0  501 -0.00000000000E+00 -0.00000000000E+00 -0.36509303953E+03  0.36509303954E+03  0.25500000000E-02 0. -1.
    5000001    1    1    2    0    0  0.36062674212E+02  0.32507377914E+02 -0.15354575736E+03  0.25059438480E+03  0.19200000000E+03 0.  0.
   -5000001    1    1    2    0    0 -0.36062674212E+02 -0.32507377914E+02 -0.10287615840E+03  0.22316977855E+03  0.19200000000E+03 0.  0.
<mgrwt>
<rscale>  0 0.39837204E+03</rscale>
<asrwt>0</asrwt>
<pdfrwt beam="1">  1        2 0.15524446E-01 0.39837204E+03</pdfrwt>
<pdfrwt beam="2">  1       -2 0.52156148E-01 0.39837204E+03</pdfrwt>
<totfact> 0.13296744E+03</totfact>
</mgrwt>
</event>
<event>
 4    1  0.5847263E-005  0.5959253E+03  0.7818608E-02  0.9913896E-01
         -2   -1    0    0    0  501 -0.00000000000E+00  0.00000000000E+00  0.51568564187E+02  0.51568564250E+02  0.25500000000E-02 0.  1.
          2   -1    0    0  501    0  0.00000000000E+00 -0.00000000000E+00 -0.17216250518E+04  0.17216250518E+04  0.25500000000E-02 0. -1.
    5000001    1    1    2    0    0  0.71150799557E+02  0.21307044785E+03 -0.94857815590E+03  0.99354213291E+03  0.19200000000E+03 0.  0.
   -5000001    1    1    2    0    0 -0.71150799557E+02 -0.21307044785E+03 -0.72147833168E+03  0.77965148311E+03  0.19200000000E+03 0.  0.
<mgrwt>
<rscale>  0 0.59592527E+03</rscale>
<asrwt>0</asrwt>
<pdfrwt beam="1">  1        2 0.24594640E+00 0.59592527E+03</pdfrwt>
<pdfrwt beam="2">  1       -2 0.73669388E-02 0.59592527E+03</pdfrwt>
<totfact> 0.12794810E+03</totfact>
</mgrwt>
</event>
<event>
 4    1  0.5847263E-005  0.4562992E+03  0.7818608E-02  0.1025860E+00
         -2   -1    0    0    0  501 -0.00000000000E+00  0.00000000000E+00  0.17889226227E+03  0.17889226229E+03  0.25500000000E-02 0. -1.
          2   -1    0    0  501    0  0.00000000000E+00 -0.00000000000E+00 -0.29096971050E+03  0.29096971051E+03  0.25500000000E-02 0.  1.
    5000001    1    1    2    0    0  0.71390233293E+02  0.13468214830E+02  0.46470609526E+02  0.21047915757E+03  0.19200000000E+03 0.  0.
   -5000001    1    1    2    0    0 -0.71390233293E+02 -0.13468214830E+02 -0.15854805775E+03  0.25938281523E+03  0.19200000000E+03 0.  0.
<mgrwt>
<rscale>  0 0.45629916E+03</rscale>
<asrwt>0</asrwt>
<pdfrwt beam="1">  1        2 0.41567102E-01 0.45629916E+03</pdfrwt>
<pdfrwt beam="2">  1       -2 0.25556037E-01 0.45629916E+03</pdfrwt>
<totfact> 0.16887305E+03</totfact>
</mgrwt>
</event>
<event>
 4    1  0.5847263E-005  0.6252562E+03  0.7818608E-02  0.9854350E-01
          2   -1    0    0  501    0  0.00000000000E+00  0.00000000000E+00  0.12334047591E+04  0.12334047591E+04  0.25500000000E-02 0.  1.
         -2   -1    0    0    0  501 -0.00000000000E+00 -0.00000000000E+00 -0.79241076439E+02  0.79241076480E+02  0.25500000000E-02 0. -1.
    5000001    1    1    2    0    0  0.22924014180E+03  0.89612217790E+02  0.61289006795E+03  0.68780784205E+03  0.19200000000E+03 0.  0.
   -5000001    1    1    2    0    0 -0.22924014180E+03 -0.89612217790E+02  0.54127361474E+03  0.62483799356E+03  0.19200000000E+03 0.  0.
<mgrwt>
<rscale>  0 0.62525617E+03</rscale>
<asrwt>0</asrwt>
<pdfrwt beam="1">  1        2 0.17620068E+00 0.62525617E+03</pdfrwt>
<pdfrwt beam="2">  1       -2 0.11320154E-01 0.62525617E+03</pdfrwt>
<totfact> 0.11559900E+03</totfact>
</mgrwt>
</event>
<event>
 4    1  0.5847263E-005  0.5317064E+03  0.7818608E-02  0.1005819E+00
          2   -1    0    0  501    0  0.00000000000E+00  0.00000000000E+00  0.70294231032E+02  0.70294231079E+02  0.25500000000E-02 0. -1.
         -2   -1    0    0    0  501 -0.00000000000E+00 -0.00000000000E+00 -0.10054583853E+04  0.10054583854E+04  0.25500000000E-02 0.  1.
    5000001    1    1    2    0    0 -0.13700891141E+03  0.65064067929E+02 -0.25723509722E+03  0.35501925297E+03  0.19200000000E+03 0.  0.
   -5000001    1    1    2    0    0  0.13700891141E+03 -0.65064067929E+02 -0.67792905710E+03  0.72073336346E+03  0.19200000000E+03 0.  0.
<mgrwt>
<rscale>  0 0.53170640E+03</rscale>
<asrwt>0</asrwt>
<pdfrwt beam="1">  1        2 0.10042034E-01 0.53170640E+03</pdfrwt>
<pdfrwt beam="2">  1       -2 0.14363690E+00 0.53170640E+03</pdfrwt>
<totfact> 0.22563429E+02</totfact>
</mgrwt>
</event>
<event>
 4    1  0.5847263E-005  0.6178966E+03  0.7818608E-02  0.9868957E-01
         -2   -1    0    0    0  501 -0.00000000000E+00  0.00000000000E+00  0.16213771806E+04  0.16213771806E+04  0.25500000000E-02 0. -1.
          2   -1    0    0  501    0  0.00000000000E+00 -0.00000000000E+00 -0.58869113299E+02  0.58869113354E+02  0.25500000000E-02 0.  1.
    5000001    1    1    2    0    0 -0.75274796176E+02 -0.21486118184E+03  0.10047238546E+04  0.10479339895E+04  0.19200000000E+03 0.  0.
   -5000001    1    1    2    0    0  0.75274796176E+02  0.21486118184E+03  0.55778421276E+03  0.63231230449E+03  0.19200000000E+03 0.  0.
<mgrwt>
<rscale>  0 0.61789655E+03</rscale>
<asrwt>0</asrwt>
<pdfrwt beam="1">  1        2 0.84098737E-02 0.61789655E+03</pdfrwt>
<pdfrwt beam="2">  1       -2 0.23162530E+00 0.61789655E+03</pdfrwt>
<totfact> 0.71627174E+01</totfact>
</mgrwt>
</event>
<event>
 4    1  0.5847263E-005  0.4479942E+03  0.7818608E-02  0.1028322E+00
          2   -1    0    0  501    0  0.00000000000E+00  0.00000000000E+00  0.23472434275E+04  0.23472434275E+04  0.25500000000E-02 0.  1.
         -2   -1    0    0    0  501 -0.00000000000E+00 -0.00000000000E+00 -0.21376006322E+02  0.21376006474E+02  0.25500000000E-02 0. -1.
    5000001    1    1    2    0    0  0.37138978625E+02 -0.10848304499E+03  0.12303975636E+04  0.12505558921E+04  0.19200000000E+03 0.  0.
   -5000001    1    1    2    0    0 -0.37138978625E+02  0.10848304499E+03  0.10954698576E+04  0.11180635419E+04  0.19200000000E+03 0.  0.
<mgrwt>
<rscale>  0 0.44799415E+03</rscale>
<asrwt>0</asrwt>
<pdfrwt beam="1">  1        2 0.33532032E+00 0.44799415E+03</pdfrwt>
<pdfrwt beam="2">  1       -2 0.30537167E-02 0.44799415E+03</pdfrwt>
<totfact> 0.24375703E+03</totfact>
</mgrwt>
</event>
<event>
 4    1  0.5847263E-005  0.4171586E+03  0.7818608E-02  0.1037995E+00
          2   -1    0    0  501    0  0.00000000000E+00  0.00000000000E+00  0.43025392098E+03  0.43025392099E+03  0.25500000000E-02 0.  1.
         -2   -1    0    0    0  501 -0.00000000000E+00 -0.00000000000E+00 -0.10111547154E+03  0.10111547158E+03  0.25500000000E-02 0. -1.
    5000001    1    1    2    0    0 -0.60830649694E+02  0.51926539145E+02  0.18449057816E+03  0.27802429181E+03  0.19200000000E+03 0.  0.
   -5000001    1    1    2    0    0  0.60830649694E+02 -0.51926539145E+02  0.14464787128E+03  0.25334510075E+03  0.19200000000E+03 0.  0.
<mgrwt>
<rscale>  0 0.41715862E+03</rscale>
<asrwt>0</asrwt>
<pdfrwt beam="1">  1        2 0.61464847E-01 0.41715862E+03</pdfrwt>
<pdfrwt beam="2">  1       -2 0.14445067E-01 0.41715862E+03</pdfrwt>
<totfact> 0.29353685E+03</totfact>
</mgrwt>
</event>
<event>
 4    1  0.5847263E-005  0.6712170E+03  0.7818608E-02  0.9767762E-01
         -2   -1    0    0    0  501 -0.00000000000E+00  0.00000000000E+00  0.20812534542E+03  0.20812534544E+03  0.25500000000E-02 0. -1.
          2   -1    0    0  501    0  0.00000000000E+00 -0.00000000000E+00 -0.54117897562E+03  0.54117897563E+03  0.25500000000E-02 0.  1.
    5000001    1    1    2    0    0  0.20946333748E+03 -0.14689424145E+02 -0.36521720587E+03  0.46296681997E+03  0.19200000000E+03 0.  0.
   -5000001    1    1    2    0    0 -0.20946333748E+03  0.14689424145E+02  0.32163575666E+02  0.28633750109E+03  0.19200000000E+03 0.  0.
<mgrwt>
<rscale>  0 0.67121699E+03</rscale>
<asrwt>0</asrwt>
<pdfrwt beam="1">  1        2 0.77311281E-01 0.67121699E+03</pdfrwt>
<pdfrwt beam="2">  1       -2 0.29732193E-01 0.67121699E+03</pdfrwt>
<totfact> 0.64145130E+02</totfact>
</mgrwt>
</event>
<event>
 4    1  0.5847263E-005  0.6049356E+03  0.7818608E-02  0.9895219E-01
         -2   -1    0    0    0  501 -0.00000000000E+00  0.00000000000E+00  0.71909320180E+02  0.71909320225E+02  0.25500000000E-02 0. -1.
          2   -1    0    0  501    0  0.00000000000E+00 -0.00000000000E+00 -0.12722517816E+04  0.12722517816E+04  0.25500000000E-02 0.  1.
    5000001    1    1    2    0    0 -0.18457498905E+03  0.12975640109E+03 -0.73566001642E+03  0.79307270157E+03  0.19200000000E+03 0.  0.
   -5000001    1    1    2    0    0  0.18457498905E+03 -0.12975640109E+03 -0.46468244495E+03  0.55108840022E+03  0.19200000000E+03 0.  0.
<mgrwt>
<rscale>  0 0.60493557E+03</rscale>
<asrwt>0</asrwt>
<pdfrwt beam="1">  1        2 0.18175024E+00 0.60493557E+03</pdfrwt>
<pdfrwt beam="2">  1       -2 0.10272761E-01 0.60493557E+03</pdfrwt>
<totfact> 0.12900146E+03</totfact>
</mgrwt>
</event>
<event>
 4    1  0.5847263E-005  0.5889348E+03  0.7818608E-02  0.9928632E-01
          2   -1    0    0  501    0  0.00000000000E+00  0.00000000000E+00  0.13907187220E+04  0.13907187220E+04  0.25500000000E-02 0.  1.
         -2   -1    0    0    0  501 -0.00000000000E+00 -0.00000000000E+00 -0.62349816810E+02  0.62349816863E+02  0.25500000000E-02 0. -1.
    5000001    1    1    2    0    0 -0.90212917575E+01 -0.20669626420E+03  0.45713361366E+03  0.53725214758E+03  0.19200000000E+03 0.  0.
   -5000001    1    1    2    0    0  0.90212917575E+01  0.20669626420E+03  0.87123529155E+03  0.91581639131E+03  0.19200000000E+03 0.  0.
<mgrwt>
<rscale>  0 0.58893483E+03</rscale>
<asrwt>0</asrwt>
<pdfrwt beam="1">  1        2 0.19867411E+00 0.58893483E+03</pdfrwt>
<pdfrwt beam="2">  1       -2 0.89071163E-02 0.58893483E+03</pdfrwt>
<totfact> 0.14026189E+03</totfact>
</mgrwt>
</event>
<event>
 4    1  0.5847263E-005  0.4726675E+03  0.7818608E-02  0.1021170E+00
         -2   -1    0    0    0  501 -0.00000000000E+00  0.00000000000E+00  0.11605284310E+03  0.11605284313E+03  0.25500000000E-02 0. -1.
          2   -1    0    0  501    0  0.00000000000E+00 -0.00000000000E+00 -0.48127774700E+03  0.48127774701E+03  0.25500000000E-02 0.  1.
    5000001    1    1    2    0    0 -0.54726482711E+02  0.95854797433E+02 -0.78351529146E+02  0.23491720290E+03  0.19200000000E+03 0.  0.
   -5000001    1    1    2    0    0  0.54726482711E+02 -0.95854797433E+02 -0.28687337476E+03  0.36241338723E+03  0.19200000000E+03 0.  0.
<mgrwt>
<rscale>  0 0.47266754E+03</rscale>
<asrwt>0</asrwt>
<pdfrwt beam="1">  1        2 0.68753963E-01 0.47266754E+03</pdfrwt>
<pdfrwt beam="2">  1       -2 0.16578978E-01 0.47266754E+03</pdfrwt>
<totfact> 0.20592221E+03</totfact>
</mgrwt>
</event>
<event>
 4    1  0.5847263E-005  0.5037937E+03  0.7818608E-02  0.1012793E+00
          2   -1    0    0  501    0  0.00000000000E+00  0.00000000000E+00  0.14706154069E+04  0.14706154069E+04  0.25500000000E-02 0. -1.
         -2   -1    0    0    0  501 -0.00000000000E+00 -0.00000000000E+00 -0.43146583674E+02  0.43146583749E+02  0.25500000000E-02 0.  1.
    5000001    1    1    2    0    0 -0.12539808179E+03  0.96652229253E+02  0.83094561748E+03  0.86741048619E+03  0.19200000000E+03 0.  0.
   -5000001    1    1    2    0    0  0.12539808179E+03 -0.96652229253E+02  0.59652320577E+03  0.64635150449E+03  0.19200000000E+03 0.  0.
<mgrwt>
<rscale>  0 0.50379373E+03</rscale>
<asrwt>0</asrwt>
<pdfrwt beam="1">  1        2 0.21008791E+00 0.50379373E+03</pdfrwt>
<pdfrwt beam="2">  1       -2 0.61637978E-02 0.50379373E+03</pdfrwt>
<totfact> 0.22853985E+03</totfact>
</mgrwt>
</event>
<event>
 4    1  0.5847263E-005  0.9536182E+03  0.7818608E-02  0.9360931E-01
          2   -1    0    0  501    0  0.00000000000E+00  0.00000000000E+00  0.38798270620E+04  0.38798270620E+04  0.25500000000E-02 0.  1.
         -2   -1    0    0    0  501 -0.00000000000E+00 -0.00000000000E+00 -0.58597180648E+02  0.58597180703E+02  0.25500000000E-02 0. -1.
    5000001    1    1    2    0    0  0.16724712629E+03 -0.19913404715E+03  0.46301740991E+03  0.56469026189E+03  0.19200000000E+03 0.  0.
   -5000001    1    1    2    0    0 -0.16724712629E+03  0.19913404715E+03  0.33582124714E+04  0.33737339808E+04  0.19200000000E+03 0.  0.
<mgrwt>
<rscale>  0 0.95361822E+03</rscale>
<asrwt>0</asrwt>
<pdfrwt beam="1">  1        2 0.55426086E+00 0.95361822E+03</pdfrwt>
<pdfrwt beam="2">  1       -2 0.83710281E-02 0.95361822E+03</pdfrwt>
<totfact> 0.66171321E+01</totfact>
</mgrwt>
</event>
<event>
 4    1  0.5847263E-005  0.4603303E+03  0.7818608E-02  0.1024685E+00
         -2   -1    0    0    0  501 -0.00000000000E+00  0.00000000000E+00  0.15720179672E+03  0.15720179674E+03  0.25500000000E-02 0. -1.
          2   -1    0    0  501    0  0.00000000000E+00 -0.00000000000E+00 -0.33699362310E+03  0.33699362311E+03  0.25500000000E-02 0.  1.
    5000001    1    1    2    0    0 -0.67390947175E+02 -0.10700613811E+03 -0.78128244074E+02  0.24281654778E+03  0.19200000000E+03 0.  0.
   -5000001    1    1    2    0    0  0.67390947175E+02  0.10700613811E+03 -0.10166358230E+03  0.25137887207E+03  0.19200000000E+03 0.  0.
<mgrwt>
<rscale>  0 0.46033033E+03</rscale>
<asrwt>0</asrwt>
<pdfrwt beam="1">  1        2 0.48141946E-01 0.46033033E+03</pdfrwt>
<pdfrwt beam="2">  1       -2 0.22457400E-01 0.46033033E+03</pdfrwt>
<totfact> 0.18087708E+03</totfact>
</mgrwt>
</event>
<event>
 4    1  0.5847263E-005  0.4436286E+03  0.7818608E-02  0.1029639E+00
          2   -1    0    0  501    0  0.00000000000E+00  0.00000000000E+00  0.19603765241E+04  0.19603765241E+04  0.25500000000E-02 0.  1.
         -2   -1    0    0    0  501 -0.00000000000E+00 -0.00000000000E+00 -0.25098029312E+02  0.25098029441E+02  0.25500000000E-02 0. -1.
    5000001    1    1    2    0    0 -0.11276730552E+02 -0.88021571058E+02  0.12666177867E+04  0.12841571474E+04  0.19200000000E+03 0.  0.
   -5000001    1    1    2    0    0  0.11276730552E+02  0.88021571058E+02  0.66866070810E+03  0.70131740615E+03  0.19200000000E+03 0.  0.
<mgrwt>
<rscale>  0 0.44362862E+03</rscale>
<asrwt>0</asrwt>
<pdfrwt beam="1">  1        2 0.28005387E+00 0.44362862E+03</pdfrwt>
<pdfrwt beam="2">  1       -2 0.35854317E-02 0.44362862E+03</pdfrwt>
<totfact> 0.29803231E+03</totfact>
</mgrwt>
</event>
<event>
 4    1  0.5847263E-005  0.7588311E+03  0.7818608E-02  0.9621597E-01
          2   -1    0    0  501    0  0.00000000000E+00  0.00000000000E+00  0.18399041225E+03  0.18399041227E+03  0.25500000000E-02 0. -1.
         -2   -1    0    0    0  501 -0.00000000000E+00 -0.00000000000E+00 -0.78241127747E+03  0.78241127747E+03  0.25500000000E-02 0.  1.
    5000001    1    1    2    0    0  0.22110349540E+03  0.23959954816E+03 -0.26324619176E+03  0.46093085884E+03  0.19200000000E+03 0.  0.
   -5000001    1    1    2    0    0 -0.22110349540E+03 -0.23959954816E+03 -0.33517467346E+03  0.50547083090E+03  0.19200000000E+03 0.  0.
<mgrwt>
<rscale>  0 0.75883114E+03</rscale>
<asrwt>0</asrwt>
<pdfrwt beam="1">  1        2 0.26284345E-01 0.75883114E+03</pdfrwt>
<pdfrwt beam="2">  1       -2 0.11177304E+00 0.75883114E+03</pdfrwt>
<totfact> 0.13190561E+02</totfact>
</mgrwt>
</event>
<event>
 4    1  0.5847263E-005  0.4033815E+03  0.7818608E-02  0.1042615E+00
         -2   -1    0    0    0  501 -0.00000000000E+00  0.00000000000E+00  0.51355943274E+02  0.51355943337E+02  0.25500000000E-02 0. -1.
          2   -1    0    0  501    0  0.00000000000E+00 -0.00000000000E+00 -0.79210206730E+03  0.79210206731E+03  0.25500000000E-02 0.  1.
    5000001    1    1    2    0    0 -0.54030803013E+02  0.29197112533E+02 -0.35660600408E+03  0.40963842740E+03  0.19200000000E+03 0.  0.
   -5000001    1    1    2    0    0  0.54030803013E+02 -0.29197112533E+02 -0.38414011995E+03  0.43381958325E+03  0.19200000000E+03 0.  0.
<mgrwt>
<rscale>  0 0.40338145E+03</rscale>
<asrwt>0</asrwt>
<pdfrwt beam="1">  1        2 0.11315743E+00 0.40338145E+03</pdfrwt>
<pdfrwt beam="2">  1       -2 0.73365638E-02 0.40338145E+03</pdfrwt>
<totfact> 0.43016976E+03</totfact>
</mgrwt>
</event>
<event>
 4    1  0.5847263E-005  0.4985460E+03  0.7818608E-02  0.1014159E+00
         -2   -1    0    0    0  501 -0.00000000000E+00  0.00000000000E+00  0.11053620409E+03  0.11053620412E+03  0.25500000000E-02 0. -1.
          2   -1    0    0  501    0  0.00000000000E+00 -0.00000000000E+00 -0.56214187095E+03  0.56214187095E+03  0.25500000000E-02 0.  1.
    5000001    1    1    2    0    0 -0.15286066815E+03 -0.31350555073E+02 -0.18479299511E+03  0.30880688498E+03  0.19200000000E+03 0.  0.
   -5000001    1    1    2    0    0  0.15286066815E+03  0.31350555073E+02 -0.26681267175E+03  0.36387119009E+03  0.19200000000E+03 0.  0.
<mgrwt>
<rscale>  0 0.49854600E+03</rscale>
<asrwt>0</asrwt>
<pdfrwt beam="1">  1        2 0.80305980E-01 0.49854600E+03</pdfrwt>
<pdfrwt beam="2">  1       -2 0.15790887E-01 0.49854600E+03</pdfrwt>
<totfact> 0.18743684E+03</totfact>
</mgrwt>
</event>
<event>
 4    1  0.5847263E-005  0.5012706E+03  0.7818608E-02  0.1013448E+00
          2   -1    0    0  501    0  0.00000000000E+00  0.00000000000E+00  0.19347031132E+03  0.19347031134E+03  0.25500000000E-02 0. -1.
         -2   -1    0    0    0  501 -0.00000000000E+00 -0.00000000000E+00 -0.32469098250E+03  0.32469098251E+03  0.25500000000E-02 0.  1.
    5000001    1    1    2    0    0  0.56702966782E+02 -0.98987801672E+02  0.51977960418E+02  0.22930224528E+03  0.19200000000E+03 0.  0.
   -5000001    1    1    2    0    0 -0.56702966782E+02  0.98987801672E+02 -0.18319863160E+03  0.28885904857E+03  0.19200000000E+03 0.  0.
<mgrwt>
<rscale>  0 0.50127065E+03</rscale>
<asrwt>0</asrwt>
<pdfrwt beam="1">  1        2 0.27638616E-01 0.50127065E+03</pdfrwt>
<pdfrwt beam="2">  1       -2 0.46384426E-01 0.50127065E+03</pdfrwt>
<totfact> 0.86374005E+02</totfact>
</mgrwt>
</event>
<event>
 4    1  0.5847263E-005  0.1338840E+04  0.7818608E-02  0.8999319E-01
         -2   -1    0    0    0  501 -0.00000000000E+00  0.00000000000E+00  0.55306190614E+03  0.55306190615E+03  0.25500000000E-02 0. -1.
          2   -1    0    0  501    0  0.00000000000E+00 -0.00000000000E+00 -0.81025890477E+03  0.81025890477E+03  0.25500000000E-02 0.  1.
    5000001    1    1    2    0    0 -0.28230885657E+03  0.56829238467E+03 -0.22305675384E+03  0.69948040745E+03  0.19200000000E+03 0.  0.
   -5000001    1    1    2    0    0  0.28230885657E+03 -0.56829238467E+03 -0.34140244779E+02  0.66384040347E+03  0.19200000000E+03 0.  0.
<mgrwt>
<rscale>  0 0.13388403E+04</rscale>
<asrwt>0</asrwt>
<pdfrwt beam="1">  1        2 0.11575127E+00 0.13388403E+04</pdfrwt>
<pdfrwt beam="2">  1       -2 0.79008844E-01 0.13388403E+04</pdfrwt>
<totfact> 0.52041331E+01</totfact>
</mgrwt>
</event>
<event>
 4    1  0.5847263E-005  0.6669032E+03  0.7818608E-02  0.9775568E-01
          2   -1    0    0  501    0  0.00000000000E+00  0.00000000000E+00  0.14289712703E+04  0.14289712703E+04  0.25500000000E-02 0.  1.
         -2   -1    0    0    0  501 -0.00000000000E+00 -0.00000000000E+00 -0.77811203519E+02  0.77811203561E+02  0.25500000000E-02 0. -1.
    5000001    1    1    2    0    0  0.22730049234E+03  0.11918466688E+03  0.46782250352E+03  0.56709116854E+03  0.19200000000E+03 0.  0.
   -5000001    1    1    2    0    0 -0.22730049234E+03 -0.11918466688E+03  0.88333756328E+03  0.93969130535E+03  0.19200000000E+03 0.  0.
<mgrwt>
<rscale>  0 0.66690321E+03</rscale>
<asrwt>0</asrwt>
<pdfrwt beam="1">  1        2 0.20413875E+00 0.66690321E+03</pdfrwt>
<pdfrwt beam="2">  1       -2 0.11115886E-01 0.66690321E+03</pdfrwt>
<totfact> 0.93190226E+02</totfact>
</mgrwt>
</event>
<event>
 4    1  0.5847263E-005  0.8219273E+03  0.7818608E-02  0.9528810E-01
         -2   -1    0    0    0  501 -0.00000000000E+00  0.00000000000E+00  0.93543533237E+03  0.93543533237E+03  0.25500000000E-02 0. -1.
          2   -1    0    0  501    0  0.00000000000E+00 -0.00000000000E+00 -0.18054813704E+03  0.18054813706E+03  0.25500000000E-02 0.  1.
    5000001    1    1    2    0    0 -0.65054056448E+02 -0.22597097986E+03  0.13350708920E+01  0.30357980238E+03  0.19200000000E+03 0.  0.
   -5000001    1    1    2    0    0  0.65054056448E+02  0.22597097986E+03  0.75355212443E+03  0.81240366705E+03  0.19200000000E+03 0.  0.
<mgrwt>
<rscale>  0 0.82192726E+03</rscale>
<asrwt>0</asrwt>
<pdfrwt beam="1">  1        2 0.25792591E-01 0.82192726E+03</pdfrwt>
<pdfrwt beam="2">  1       -2 0.13363362E+00 0.82192726E+03</pdfrwt>
<totfact> 0.86198552E+01</totfact>
</mgrwt>
</event>
<event>
 4    1  0.5847263E-005  0.5305017E+03  0.7818608E-02  0.1006111E+00
         -2   -1    0    0    0  501 -0.00000000000E+00  0.00000000000E+00  0.71508108906E+02  0.71508108952E+02  0.25500000000E-02 0. -1.
          2   -1    0    0  501    0  0.00000000000E+00 -0.00000000000E+00 -0.98391663279E+03  0.98391663279E+03  0.25500000000E-02 0.  1.
    5000001    1    1    2    0    0 -0.82780396865E+02 -0.13426766787E+03 -0.64084743577E+03  0.68733531604E+03  0.19200000000E+03 0.  0.
   -5000001    1    1    2    0    0  0.82780396865E+02  0.13426766787E+03 -0.27156108811E+03  0.36808942571E+03  0.19200000000E+03 0.  0.
<mgrwt>
<rscale>  0 0.53050172E+03</rscale>
<asrwt>0</asrwt>
<pdfrwt beam="1">  1        2 0.14055951E+00 0.53050172E+03</pdfrwt>
<pdfrwt beam="2">  1       -2 0.10215445E-01 0.53050172E+03</pdfrwt>
<totfact> 0.19109285E+03</totfact>
</mgrwt>
</event>
<event>
 4    1  0.5847263E-005  0.7698501E+03  0.7818608E-02  0.9604713E-01
         -2   -1    0    0    0  501 -0.00000000000E+00  0.00000000000E+00  0.10071767800E+03  0.10071767803E+03  0.25500000000E-02 0. -1.
          2   -1    0    0  501    0  0.00000000000E+00 -0.00000000000E+00 -0.14711150054E+04  0.14711150054E+04  0.25500000000E-02 0.  1.
    5000001    1    1    2    0    0  0.29910358410E+03 -0.13111522978E+03 -0.82441365237E+03  0.90729048695E+03  0.19200000000E+03 0.  0.
   -5000001    1    1    2    0    0 -0.29910358410E+03  0.13111522978E+03 -0.54598367504E+03  0.66454219649E+03  0.19200000000E+03 0.  0.
<mgrwt>
<rscale>  0 0.76985008E+03</rscale>
<asrwt>0</asrwt>
<pdfrwt beam="1">  1        2 0.21015927E+00 0.76985008E+03</pdfrwt>
<pdfrwt beam="2">  1       -2 0.14388241E-01 0.76985008E+03</pdfrwt>
<totfact> 0.57406556E+02</totfact>
</mgrwt>
</event>
<event>
 4    1  0.5847263E-005  0.4864322E+03  0.7818608E-02  0.1017382E+00
         -2   -1    0    0    0  501 -0.00000000000E+00  0.00000000000E+00  0.46778228665E+02  0.46778228735E+02  0.25500000000E-02 0. -1.
          2   -1    0    0  501    0  0.00000000000E+00 -0.00000000000E+00 -0.12645640749E+04  0.12645640749E+04  0.25500000000E-02 0.  1.
    5000001    1    1    2    0    0  0.13468620950E+03  0.58246484933E+02 -0.68306715055E+03  0.72455349022E+03  0.19200000000E+03 0.  0.
   -5000001    1    1    2    0    0 -0.13468620950E+03 -0.58246484933E+02 -0.53471869573E+03  0.58678881346E+03  0.19200000000E+03 0.  0.
<mgrwt>
<rscale>  0 0.48643218E+03</rscale>
<asrwt>0</asrwt>
<pdfrwt beam="1">  1        2 0.18065199E+00 0.48643218E+03</pdfrwt>
<pdfrwt beam="2">  1       -2 0.66826048E-02 0.48643218E+03</pdfrwt>
<totfact> 0.25921556E+03</totfact>
</mgrwt>
</event>
<event>
 4    1  0.5847263E-005  0.4946075E+03  0.7818608E-02  0.1015196E+00
         -2   -1    0    0    0  501 -0.00000000000E+00  0.00000000000E+00  0.15775106648E+02  0.15775106854E+02  0.25500000000E-02 0. -1.
          2   -1    0    0  501    0  0.00000000000E+00 -0.00000000000E+00 -0.38769396582E+04  0.38769396582E+04  0.25500000000E-02 0.  1.
    5000001    1    1    2    0    0  0.10003073441E+03  0.79456602384E+02 -0.26334516420E+04  0.26435300358E+04  0.19200000000E+03 0.  0.
   -5000001    1    1    2    0    0 -0.10003073441E+03 -0.79456602384E+02 -0.12277129095E+04  0.12491847292E+04  0.19200000000E+03 0.  0.
<mgrwt>
<rscale>  0 0.49460747E+03</rscale>
<asrwt>0</asrwt>
<pdfrwt beam="1">  1        2 0.55384792E+00 0.49460747E+03</pdfrwt>
<pdfrwt beam="2">  1       -2 0.22535891E-02 0.49460747E+03</pdfrwt>
<totfact> 0.53900056E+02</totfact>
</mgrwt>
</event>
<event>
 4    1  0.5847263E-005  0.1603101E+04  0.7818608E-02  0.8818645E-01
         -2   -1    0    0    0  501 -0.00000000000E+00  0.00000000000E+00  0.50619760677E+03  0.50619760678E+03  0.25500000000E-02 0. -1.
          2   -1    0    0  501    0  0.00000000000E+00 -0.00000000000E+00 -0.12692347686E+04  0.12692347686E+04  0.25500000000E-02 0.  1.
    5000001    1    1    2    0    0 -0.71822941086E+02  0.59625397755E+03 -0.92963773304E+03  0.11232843163E+04  0.19200000000E+03 0.  0.
   -5000001    1    1    2    0    0  0.71822941086E+02 -0.59625397755E+03  0.16660057121E+03  0.65214805906E+03  0.19200000000E+03 0.  0.
<mgrwt>
<rscale>  0 0.16031015E+04</rscale>
<asrwt>0</asrwt>
<pdfrwt beam="1">  1        2 0.18131925E+00 0.16031015E+04</pdfrwt>
<pdfrwt beam="2">  1       -2 0.72313944E-01 0.16031015E+04</pdfrwt>
<totfact> 0.32480306E+01</totfact>
</mgrwt>
</event>
<event>
 4    1  0.5847263E-005  0.1174674E+04  0.7818608E-02  0.9135318E-01
         -2   -1    0    0    0  501 -0.00000000000E+00  0.00000000000E+00  0.25041747475E+03  0.25041747476E+03  0.25500000000E-02 0. -1.
          2   -1    0    0  501    0  0.00000000000E+00 -0.00000000000E+00 -0.13775580401E+04  0.13775580401E+04  0.25500000000E-02 0.  1.
    5000001    1    1    2    0    0 -0.63249722274E+02 -0.27792933833E+03 -0.12236632837E+04  0.12710078978E+04  0.19200000000E+03 0.  0.
   -5000001    1    1    2    0    0  0.63249722274E+02  0.27792933833E+03  0.96522718325E+02  0.35696761706E+03  0.19200000000E+03 0.  0.
<mgrwt>
<rscale>  0 0.11746738E+04</rscale>
<asrwt>0</asrwt>
<pdfrwt beam="1">  1        2 0.19679400E+00 0.11746738E+04</pdfrwt>
<pdfrwt beam="2">  1       -2 0.35773926E-01 0.11746738E+04</pdfrwt>
<totfact> 0.12341142E+02</totfact>
</mgrwt>
</event>
<event>
 4    1  0.5847263E-005  0.5331945E+03  0.7818608E-02  0.1005460E+00
         -2   -1    0    0    0  501 -0.00000000000E+00  0.00000000000E+00  0.24310436355E+03  0.24310436357E+03  0.25500000000E-02 0. -1.
          2   -1    0    0  501    0  0.00000000000E+00 -0.00000000000E+00 -0.29236043809E+03  0.29236043810E+03  0.25500000000E-02 0.  1.
    5000001    1    1    2    0    0  0.11351310115E+02 -0.16807020466E+03 -0.10133159773E+03  0.27478817048E+03  0.19200000000E+03 0.  0.
   -5000001    1    1    2    0    0 -0.11351310115E+02  0.16807020466E+03  0.52075523189E+02  0.26067663119E+03  0.19200000000E+03 0.  0.
<mgrwt>
<rscale>  0 0.53319452E+03</rscale>
<asrwt>0</asrwt>
<pdfrwt beam="1">  1        2 0.41765777E-01 0.53319452E+03</pdfrwt>
<pdfrwt beam="2">  1       -2 0.34729195E-01 0.53319452E+03</pdfrwt>
<totfact> 0.95638657E+02</totfact>
</mgrwt>
</event>
<event>
 4    1  0.5847263E-005  0.5975051E+03  0.7818608E-02  0.9910596E-01
         -2   -1    0    0    0  501 -0.00000000000E+00  0.00000000000E+00  0.10123664054E+03  0.10123664057E+03  0.25500000000E-02 0.  1.
          2   -1    0    0  501    0  0.00000000000E+00 -0.00000000000E+00 -0.88162816009E+03  0.88162816010E+03  0.25500000000E-02 0. -1.
    5000001    1    1    2    0    0  0.11815788740E+03 -0.19092862097E+03 -0.31711027948E+03  0.43340276189E+03  0.19200000000E+03 0.  0.
   -5000001    1    1    2    0    0 -0.11815788740E+03  0.19092862097E+03 -0.46328124007E+03  0.54946203878E+03  0.19200000000E+03 0.  0.
<mgrwt>
<rscale>  0 0.59750506E+03</rscale>
<asrwt>0</asrwt>
<pdfrwt beam="1">  1        2 0.12594688E+00 0.59750506E+03</pdfrwt>
<pdfrwt beam="2">  1       -2 0.14462378E-01 0.59750506E+03</pdfrwt>
<totfact> 0.12498421E+03</totfact>
</mgrwt>
</event>
<event>
 4    1  0.5847263E-005  0.7648066E+03  0.7818608E-02  0.9612403E-01
          2   -1    0    0  501    0  0.00000000000E+00  0.00000000000E+00  0.23016022778E+04  0.23016022778E+04  0.25500000000E-02 0.  1.
         -2   -1    0    0    0  501 -0.00000000000E+00 -0.00000000000E+00 -0.63534996340E+02  0.63534996391E+02  0.25500000000E-02 0. -1.
    5000001    1    1    2    0    0 -0.27635327109E+03 -0.66945746686E+02  0.16412430191E+04  0.16767216559E+04  0.19200000000E+03 0.  0.
   -5000001    1    1    2    0    0  0.27635327109E+03  0.66945746686E+02  0.59682426237E+03  0.68841561835E+03  0.19200000000E+03 0.  0.
<mgrwt>
<rscale>  0 0.76480662E+03</rscale>
<asrwt>0</asrwt>
<pdfrwt beam="1">  1        2 0.32880022E+00 0.76480662E+03</pdfrwt>
<pdfrwt beam="2">  1       -2 0.90764309E-02 0.76480662E+03</pdfrwt>
<totfact> 0.46163948E+02</totfact>
</mgrwt>
</event>
<event>
 4    1  0.5847263E-005  0.4576288E+03  0.7818608E-02  0.1025471E+00
          2   -1    0    0  501    0  0.00000000000E+00  0.00000000000E+00  0.17054170244E+04  0.17054170244E+04  0.25500000000E-02 0.  1.
         -2   -1    0    0    0  501 -0.00000000000E+00 -0.00000000000E+00 -0.30699836919E+02  0.30699837025E+02  0.25500000000E-02 0. -1.
    5000001    1    1    2    0    0  0.22161029591E+02 -0.12228988997E+03  0.81160142121E+03  0.84321218879E+03  0.19200000000E+03 0.  0.
   -5000001    1    1    2    0    0 -0.22161029591E+02  0.12228988997E+03  0.86311576625E+03  0.89290467261E+03  0.19200000000E+03 0.  0.
<mgrwt>
<rscale>  0 0.45762878E+03</rscale>
<asrwt>0</asrwt>
<pdfrwt beam="1">  1        2 0.24363103E+00 0.45762878E+03</pdfrwt>
<pdfrwt beam="2">  1       -2 0.43856906E-02 0.45762878E+03</pdfrwt>
<totfact> 0.29375052E+03</totfact>
</mgrwt>
</event>
<event>
 4    1  0.5847263E-005  0.6988117E+03  0.7818608E-02  0.9719266E-01
          2   -1    0    0  501    0  0.00000000000E+00  0.00000000000E+00  0.14949949801E+04  0.14949949801E+04  0.25500000000E-02 0.  1.
         -2   -1    0    0    0  501 -0.00000000000E+00 -0.00000000000E+00 -0.81662113081E+02  0.81662113121E+02  0.25500000000E-02 0. -1.
    5000001    1    1    2    0    0  0.59277349989E+02 -0.27222467967E+03  0.50997093998E+03  0.61200852941E+03  0.19200000000E+03 0.  0.
   -5000001    1    1    2    0    0 -0.59277349989E+02  0.27222467967E+03  0.90336192703E+03  0.96464856380E+03  0.19200000000E+03 0.  0.
<mgrwt>
<rscale>  0 0.69881170E+03</rscale>
<asrwt>0</asrwt>
<pdfrwt beam="1">  1        2 0.21357071E+00 0.69881170E+03</pdfrwt>
<pdfrwt beam="2">  1       -2 0.11666016E-01 0.69881170E+03</pdfrwt>
<totfact> 0.79343178E+02</totfact>
</mgrwt>
</event>
<event>
 4    1  0.5847263E-005  0.4772434E+03  0.7818608E-02  0.1019896E+00
         -2   -1    0    0    0  501 -0.00000000000E+00  0.00000000000E+00  0.60135933213E+02  0.60135933267E+02  0.25500000000E-02 0. -1.
          2   -1    0    0  501    0  0.00000000000E+00 -0.00000000000E+00 -0.94685993035E+03  0.94685993035E+03  0.25500000000E-02 0.  1.
    5000001    1    1    2    0    0 -0.59559540574E+02  0.87742858259E+02 -0.24508514451E+03  0.32890253284E+03  0.19200000000E+03 0.  0.
   -5000001    1    1    2    0    0  0.59559540574E+02 -0.87742858259E+02 -0.64163885262E+03  0.67809333078E+03  0.19200000000E+03 0.  0.
<mgrwt>
<rscale>  0 0.47724336E+03</rscale>
<asrwt>0</asrwt>
<pdfrwt beam="1">  1        2 0.13526570E+00 0.47724336E+03</pdfrwt>
<pdfrwt beam="2">  1       -2 0.85908481E-02 0.47724336E+03</pdfrwt>
<totfact> 0.26604874E+03</totfact>
</mgrwt>
</event>
<event>
 4    1  0.5847263E-005  0.7343201E+03  0.7818608E-02  0.9660276E-01
         -2   -1    0    0    0  501 -0.00000000000E+00  0.00000000000E+00  0.54869296467E+02  0.54869296526E+02  0.25500000000E-02 0. -1.
          2   -1    0    0  501    0  0.00000000000E+00 -0.00000000000E+00 -0.24568662011E+04  0.24568662011E+04  0.25500000000E-02 0.  1.
    5000001    1    1    2    0    0 -0.26568001552E+03  0.20559735964E+02 -0.17623545657E+04  0.17926980193E+04  0.19200000000E+03 0.  0.
   -5000001    1    1    2    0    0  0.26568001552E+03 -0.20559735964E+02 -0.63964233893E+03  0.71903747826E+03  0.19200000000E+03 0.  0.
<mgrwt>
<rscale>  0 0.73432015E+03</rscale>
<asrwt>0</asrwt>
<pdfrwt beam="1">  1        2 0.35098082E+00 0.73432015E+03</pdfrwt>
<pdfrwt beam="2">  1       -2 0.78384725E-02 0.73432015E+03</pdfrwt>
<totfact> 0.48763537E+02</totfact>
</mgrwt>
</event>
<event>
 4    1  0.5847263E-005  0.4508776E+03  0.7818608E-02  0.1027461E+00
         -2   -1    0    0    0  501 -0.00000000000E+00  0.00000000000E+00  0.34531730970E+02  0.34531731064E+02  0.25500000000E-02 0.  1.
          2   -1    0    0  501    0  0.00000000000E+00 -0.00000000000E+00 -0.14717667828E+04  0.14717667828E+04  0.25500000000E-02 0. -1.
    5000001    1    1    2    0    0  0.10408496876E+02 -0.10245470808E+03 -0.91207782884E+03  0.93773944669E+03  0.19200000000E+03 0.  0.
   -5000001    1    1    2    0    0 -0.10408496876E+02  0.10245470808E+03 -0.52515722303E+03  0.56855906721E+03  0.19200000000E+03 0.  0.
<mgrwt>
<rscale>  0 0.45087761E+03</rscale>
<asrwt>0</asrwt>
<pdfrwt beam="1">  1        2 0.21025236E+00 0.45087761E+03</pdfrwt>
<pdfrwt beam="2">  1       -2 0.49331053E-02 0.45087761E+03</pdfrwt>
<totfact> 0.32259328E+03</totfact>
</mgrwt>
</event>
<event>
 4    1  0.5847263E-005  0.1132996E+04  0.7818608E-02  0.9173615E-01
          2   -1    0    0  501    0  0.00000000000E+00  0.00000000000E+00  0.78986952366E+03  0.78986952367E+03  0.25500000000E-02 0.  1.
         -2   -1    0    0    0  501 -0.00000000000E+00 -0.00000000000E+00 -0.40629515214E+03  0.40629515215E+03  0.25500000000E-02 0. -1.
    5000001    1    1    2    0    0  0.29091723514E+03 -0.44181715002E+03  0.12319630566E+03  0.57608728634E+03  0.19200000000E+03 0.  0.
   -5000001    1    1    2    0    0 -0.29091723514E+03  0.44181715002E+03  0.26037806587E+03  0.62007738948E+03  0.19200000000E+03 0.  0.
<mgrwt>
<rscale>  0 0.11329963E+04</rscale>
<asrwt>0</asrwt>
<pdfrwt beam="1">  1        2 0.11283850E+00 0.11329963E+04</pdfrwt>
<pdfrwt beam="2">  1       -2 0.58042165E-01 0.11329963E+04</pdfrwt>
<totfact> 0.10641681E+02</totfact>
</mgrwt>
</event>
<event>
 4    1  0.5847263E-005  0.1067152E+04  0.7818608E-02  0.9237812E-01
         -2   -1    0    0    0  501 -0.00000000000E+00  0.00000000000E+00  0.16206030294E+03  0.16206030296E+03  0.25500000000E-02 0. -1.
          2   -1    0    0  501    0  0.00000000000E+00 -0.00000000000E+00 -0.17567756772E+04  0.17567756773E+04  0.25500000000E-02 0.  1.
    5000001    1    1    2    0    0 -0.17261209762E+03  0.44048463389E+03 -0.51869466459E+03  0.72782539391E+03  0.19200000000E+03 0.  0.
   -5000001    1    1    2    0    0  0.17261209762E+03 -0.44048463389E+03 -0.10760207097E+04  0.11910105863E+04  0.19200000000E+03 0.  0.
<mgrwt>
<rscale>  0 0.10671525E+04</rscale>
<asrwt>0</asrwt>
<pdfrwt beam="1">  1        2 0.25096794E+00 0.10671525E+04</pdfrwt>
<pdfrwt beam="2">  1       -2 0.23151473E-01 0.10671525E+04</pdfrwt>
<totfact> 0.17552009E+02</totfact>
</mgrwt>
</event>
<event>
 4    1  0.5847263E-005  0.6519322E+03  0.7818608E-02  0.9803160E-01
          2   -1    0    0  501    0  0.00000000000E+00  0.00000000000E+00  0.65515651438E+03  0.65515651438E+03  0.25500000000E-02 0.  1.
         -2   -1    0    0    0  501 -0.00000000000E+00 -0.00000000000E+00 -0.16218094936E+03  0.16218094938E+03  0.25500000000E-02 0. -1.
    5000001    1    1    2    0    0  0.55850104429E+01  0.24468820795E+03  0.12437825825E+03  0.33501860035E+03  0.19200000000E+03 0.  0.
   -5000001    1    1    2    0    0 -0.55850104429E+01 -0.24468820795E+03  0.36859730677E+03  0.48231886342E+03  0.19200000000E+03 0.  0.
<mgrwt>
<rscale>  0 0.65193222E+03</rscale>
<asrwt>0</asrwt>
<pdfrwt beam="1">  1        2 0.93593789E-01 0.65193222E+03</pdfrwt>
<pdfrwt beam="2">  1       -2 0.23168707E-01 0.65193222E+03</pdfrwt>
<totfact> 0.80502313E+02</totfact>
</mgrwt>
</event>
<event>
 4    1  0.5847263E-005  0.5301932E+03  0.7818608E-02  0.1006185E+00
         -2   -1    0    0    0  501 -0.00000000000E+00  0.00000000000E+00  0.62139504964E+02  0.62139505016E+02  0.25500000000E-02 0. -1.
          2   -1    0    0  501    0  0.00000000000E+00 -0.00000000000E+00 -0.11309423244E+04  0.11309423244E+04  0.25500000000E-02 0.  1.
    5000001    1    1    2    0    0  0.15337337993E+03  0.14842015196E+02 -0.31313471526E+03  0.39832276986E+03  0.19200000000E+03 0.  0.
   -5000001    1    1    2    0    0 -0.15337337993E+03 -0.14842015196E+02 -0.75566810420E+03  0.79475905958E+03  0.19200000000E+03 0.  0.
<mgrwt>
<rscale>  0 0.53019316E+03</rscale>
<asrwt>0</asrwt>
<pdfrwt beam="1">  1        2 0.16156318E+00 0.53019316E+03</pdfrwt>
<pdfrwt beam="2">  1       -2 0.88770728E-02 0.53019316E+03</pdfrwt>
<totfact> 0.19616573E+03</totfact>
</mgrwt>
</event>
<event>
 4    1  0.5847263E-005  0.8682379E+03  0.7818608E-02  0.9466180E-01
         -2   -1    0    0    0  501 -0.00000000000E+00  0.00000000000E+00  0.57503456073E+02  0.57503456130E+02  0.25500000000E-02 0. -1.
          2   -1    0    0  501    0  0.00000000000E+00 -0.00000000000E+00 -0.32773552923E+04  0.32773552923E+04  0.25500000000E-02 0.  1.
    5000001    1    1    2    0    0  0.29756941384E+03 -0.25098119794E+03 -0.16387044594E+04  0.16952154503E+04  0.19200000000E+03 0.  0.
   -5000001    1    1    2    0    0 -0.29756941384E+03  0.25098119794E+03 -0.15811473769E+04  0.16396432981E+04  0.19200000000E+03 0.  0.
<mgrwt>
<rscale>  0 0.86823788E+03</rscale>
<asrwt>0</asrwt>
<pdfrwt beam="1">  1        2 0.46819349E+00 0.86823788E+03</pdfrwt>
<pdfrwt beam="2">  1       -2 0.82147815E-02 0.86823788E+03</pdfrwt>
<totfact> 0.16088989E+02</totfact>
</mgrwt>
</event>
<event>
 4    1  0.5847263E-005  0.4135066E+03  0.7818608E-02  0.1039201E+00
         -2   -1    0    0    0  501 -0.00000000000E+00  0.00000000000E+00  0.27294812348E+03  0.27294812349E+03  0.25500000000E-02 0. -1.
          2   -1    0    0  501    0  0.00000000000E+00 -0.00000000000E+00 -0.15661193275E+03  0.15661193277E+03  0.25500000000E-02 0.  1.
    5000001    1    1    2    0    0  0.38958119391E+02  0.60876981387E+02  0.84839576046E+02  0.22200336843E+03  0.19200000000E+03 0.  0.
   -5000001    1    1    2    0    0 -0.38958119391E+02 -0.60876981387E+02  0.31496614688E+02  0.20755668784E+03  0.19200000000E+03 0.  0.
<mgrwt>
<rscale>  0 0.41350663E+03</rscale>
<asrwt>0</asrwt>
<pdfrwt beam="1">  1        2 0.22373133E-01 0.41350663E+03</pdfrwt>
<pdfrwt beam="2">  1       -2 0.38992589E-01 0.41350663E+03</pdfrwt>
<totfact> 0.15397198E+03</totfact>
</mgrwt>
</event>
<event>
 4    1  0.5847263E-005  0.5887132E+03  0.7818608E-02  0.9929103E-01
          2   -1    0    0  501    0  0.00000000000E+00  0.00000000000E+00  0.11887103133E+04  0.11887103133E+04  0.25500000000E-02 0.  1.
         -2   -1    0    0    0  501 -0.00000000000E+00 -0.00000000000E+00 -0.72890588948E+02  0.72890588993E+02  0.25500000000E-02 0. -1.
    5000001    1    1    2    0    0  0.19965746447E+03 -0.66631343229E+02  0.39928650028E+03  0.49050642027E+03  0.19200000000E+03 0.  0.
   -5000001    1    1    2    0    0 -0.19965746447E+03  0.66631343229E+02  0.71653322408E+03  0.77109448204E+03  0.19200000000E+03 0.  0.
<mgrwt>
<rscale>  0 0.58871316E+03</rscale>
<asrwt>0</asrwt>
<pdfrwt beam="1">  1        2 0.16981575E+00 0.58871316E+03</pdfrwt>
<pdfrwt beam="2">  1       -2 0.10412942E-01 0.58871316E+03</pdfrwt>
<totfact> 0.14046886E+03</totfact>
</mgrwt>
</event>
<event>
 4    1  0.5847263E-005  0.5460408E+03  0.7818608E-02  0.1002415E+00
         -2   -1    0    0    0  501 -0.00000000000E+00  0.00000000000E+00  0.49187398058E+02  0.49187398124E+02  0.25500000000E-02 0. -1.
          2   -1    0    0  501    0  0.00000000000E+00 -0.00000000000E+00 -0.15154315222E+04  0.15154315222E+04  0.25500000000E-02 0.  1.
    5000001    1    1    2    0    0 -0.68614849699E+02  0.18074321988E+03 -0.68349005830E+03  0.73579804901E+03  0.19200000000E+03 0.  0.
   -5000001    1    1    2    0    0  0.68614849699E+02 -0.18074321988E+03 -0.78275406581E+03  0.82882087128E+03  0.19200000000E+03 0.  0.
<mgrwt>
<rscale>  0 0.54604078E+03</rscale>
<asrwt>0</asrwt>
<pdfrwt beam="1">  1        2 0.21649019E+00 0.54604078E+03</pdfrwt>
<pdfrwt beam="2">  1       -2 0.70267721E-02 0.54604078E+03</pdfrwt>
<totfact> 0.17616040E+03</totfact>
</mgrwt>
</event>
<event>
 4    1  0.5847263E-005  0.6812305E+03  0.7818608E-02  0.9749880E-01
          2   -1    0    0  501    0  0.00000000000E+00  0.00000000000E+00  0.15843432696E+03  0.15843432698E+03  0.25500000000E-02 0.  1.
         -2   -1    0    0    0  501 -0.00000000000E+00 -0.00000000000E+00 -0.73228296102E+03  0.73228296102E+03  0.25500000000E-02 0. -1.
    5000001    1    1    2    0    0 -0.25767985610E+03 -0.10396075472E+03 -0.22921558686E+03  0.40817953406E+03  0.19200000000E+03 0.  0.
   -5000001    1    1    2    0    0  0.25767985610E+03  0.10396075472E+03 -0.34463304720E+03  0.48253775395E+03  0.19200000000E+03 0.  0.
<mgrwt>
<rscale>  0 0.68123053E+03</rscale>
<asrwt>0</asrwt>
<pdfrwt beam="1">  1        2 0.22633476E-01 0.68123053E+03</pdfrwt>
<pdfrwt beam="2">  1       -2 0.10461185E+00 0.68123053E+03</pdfrwt>
<totfact> 0.18430067E+02</totfact>
</mgrwt>
</event>
<event>
 4    1  0.5847263E-005  0.8936147E+03  0.7818608E-02  0.9433599E-01
          2   -1    0    0  501    0  0.00000000000E+00  0.00000000000E+00  0.12397716060E+04  0.12397716060E+04  0.25500000000E-02 0.  1.
         -2   -1    0    0    0  501 -0.00000000000E+00 -0.00000000000E+00 -0.16102707274E+03  0.16102707276E+03  0.25500000000E-02 0. -1.
    5000001    1    1    2    0    0 -0.15270829384E+03  0.27025800602E+03  0.94334670032E+03  0.10114970142E+04  0.19200000000E+03 0.  0.
   -5000001    1    1    2    0    0  0.15270829384E+03 -0.27025800602E+03  0.13539783293E+03  0.38930166451E+03  0.19200000000E+03 0.  0.
<mgrwt>
<rscale>  0 0.89361467E+03</rscale>
<asrwt>0</asrwt>
<pdfrwt beam="1">  1        2 0.17711024E+00 0.89361467E+03</pdfrwt>
<pdfrwt beam="2">  1       -2 0.23003866E-01 0.89361467E+03</pdfrwt>
<totfact> 0.33799485E+02</totfact>
</mgrwt>
</event>
<event>
 4    1  0.5847263E-005  0.6769129E+03  0.7818608E-02  0.9757550E-01
         -2   -1    0    0    0  501 -0.00000000000E+00  0.00000000000E+00  0.33801655164E+02  0.33801655261E+02  0.25500000000E-02 0. -1.
          2   -1    0    0  501    0  0.00000000000E+00 -0.00000000000E+00 -0.33889688848E+04  0.33889688848E+04  0.25500000000E-02 0.  1.
    5000001    1    1    2    0    0 -0.11220321914E+03 -0.18901049871E+03 -0.25442026755E+04  0.25608876948E+04  0.19200000000E+03 0.  0.
   -5000001    1    1    2    0    0  0.11220321914E+03  0.18901049871E+03 -0.81096455413E+03  0.86188284532E+03  0.19200000000E+03 0.  0.
<mgrwt>
<rscale>  0 0.67691287E+03</rscale>
<asrwt>0</asrwt>
<pdfrwt beam="1">  1        2 0.48413820E+00 0.67691287E+03</pdfrwt>
<pdfrwt beam="2">  1       -2 0.48288100E-02 0.67691287E+03</pdfrwt>
<totfact> 0.32745007E+02</totfact>
</mgrwt>
</event>
<event>
 4    1  0.5847263E-005  0.5995194E+03  0.7818608E-02  0.9906404E-01
          2   -1    0    0  501    0  0.00000000000E+00  0.00000000000E+00  0.19799733765E+04  0.19799733765E+04  0.25500000000E-02 0.  1.
         -2   -1    0    0    0  501 -0.00000000000E+00 -0.00000000000E+00 -0.45382373746E+02  0.45382373818E+02  0.25500000000E-02 0. -1.
    5000001    1    1    2    0    0 -0.80141249281E+02 -0.19288742698E+03  0.12942008891E+04  0.13249332514E+04  0.19200000000E+03 0.  0.
   -5000001    1    1    2    0    0  0.80141249281E+02  0.19288742698E+03  0.64039011365E+03  0.70042249892E+03  0.19200000000E+03 0.  0.
<mgrwt>
<rscale>  0 0.59951945E+03</rscale>
<asrwt>0</asrwt>
<pdfrwt beam="1">  1        2 0.28285330E+00 0.59951945E+03</pdfrwt>
<pdfrwt beam="2">  1       -2 0.64831972E-02 0.59951945E+03</pdfrwt>
<totfact> 0.11596971E+03</totfact>
</mgrwt>
</event>
<event>
 4    1  0.5847263E-005  0.8607547E+03  0.7818608E-02  0.9476015E-01
          2   -1    0    0  501    0  0.00000000000E+00  0.00000000000E+00  0.25488877728E+04  0.25488877728E+04  0.25500000000E-02 0.  1.
         -2   -1    0    0    0  501 -0.00000000000E+00 -0.00000000000E+00 -0.72668825353E+02  0.72668825398E+02  0.25500000000E-02 0. -1.
    5000001    1    1    2    0    0  0.15035968956E+03 -0.29357556738E+03  0.63229303163E+03  0.73854798616E+03  0.19200000000E+03 0.  0.
   -5000001    1    1    2    0    0 -0.15035968956E+03  0.29357556738E+03  0.18439259158E+04  0.18830086120E+04  0.19200000000E+03 0.  0.
<mgrwt>
<rscale>  0 0.86075474E+03</rscale>
<asrwt>0</asrwt>
<pdfrwt beam="1">  1        2 0.36412689E+00 0.86075474E+03</pdfrwt>
<pdfrwt beam="2">  1       -2 0.10381259E-01 0.86075474E+03</pdfrwt>
<totfact> 0.27466557E+02</totfact>
</mgrwt>
</event>
<event>
 4    1  0.5847263E-005  0.5227357E+03  0.7818608E-02  0.1008009E+00
         -2   -1    0    0    0  501 -0.00000000000E+00  0.00000000000E+00  0.13965800548E+03  0.13965800550E+03  0.25500000000E-02 0. -1.
          2   -1    0    0  501    0  0.00000000000E+00 -0.00000000000E+00 -0.48914594499E+03  0.48914594500E+03  0.25500000000E-02 0.  1.
    5000001    1    1    2    0    0  0.25958569321E+02  0.16784457296E+03 -0.11336609683E+03  0.28028828000E+03  0.19200000000E+03 0.  0.
   -5000001    1    1    2    0    0 -0.25958569321E+02 -0.16784457296E+03 -0.23612184269E+03  0.34851567051E+03  0.19200000000E+03 0.  0.
<mgrwt>
<rscale>  0 0.52273568E+03</rscale>
<asrwt>0</asrwt>
<pdfrwt beam="1">  1        2 0.69877991E-01 0.52273568E+03</pdfrwt>
<pdfrwt beam="2">  1       -2 0.19951144E-01 0.52273568E+03</pdfrwt>
<totfact> 0.14728013E+03</totfact>
</mgrwt>
</event>
<event>
 4    1  0.5847263E-005  0.6610548E+03  0.7818608E-02  0.9786254E-01
          2   -1    0    0  501    0  0.00000000000E+00  0.00000000000E+00  0.44861417999E+03  0.44861418000E+03  0.25500000000E-02 0.  1.
         -2   -1    0    0    0  501 -0.00000000000E+00 -0.00000000000E+00 -0.24352412610E+03  0.24352412612E+03  0.25500000000E-02 0. -1.
    5000001    1    1    2    0    0  0.58298484349E+02  0.21561830271E+03  0.25957866857E+03  0.39260037050E+03  0.19200000000E+03 0.  0.
   -5000001    1    1    2    0    0 -0.58298484349E+02 -0.21561830271E+03 -0.54488614677E+02  0.29953793561E+03  0.19200000000E+03 0.  0.
<mgrwt>
<rscale>  0 0.66105484E+03</rscale>
<asrwt>0</asrwt>
<pdfrwt beam="1">  1        2 0.64087740E-01 0.66105484E+03</pdfrwt>
<pdfrwt beam="2">  1       -2 0.34789161E-01 0.66105484E+03</pdfrwt>
<totfact> 0.59212433E+02</totfact>
</mgrwt>
</event>
<event>
 4    1  0.5847263E-005  0.4861773E+03  0.7818608E-02  0.1017451E+00
          2   -1    0    0  501    0  0.00000000000E+00  0.00000000000E+00  0.20385459783E+04  0.20385459783E+04  0.25500000000E-02 0.  1.
         -2   -1    0    0    0  501 -0.00000000000E+00 -0.00000000000E+00 -0.28987376742E+02  0.28987376854E+02  0.25500000000E-02 0. -1.
    5000001    1    1    2    0    0 -0.33494835622E+02 -0.13878180067E+03  0.11874845812E+04  0.12113488031E+04  0.19200000000E+03 0.  0.
   -5000001    1    1    2    0    0  0.33494835622E+02  0.13878180067E+03  0.82207402032E+03  0.85618455201E+03  0.19200000000E+03 0.  0.
<mgrwt>
<rscale>  0 0.48617734E+03</rscale>
<asrwt>0</asrwt>
<pdfrwt beam="1">  1        2 0.29122095E+00 0.48617734E+03</pdfrwt>
<pdfrwt beam="2">  1       -2 0.41410525E-02 0.48617734E+03</pdfrwt>
<totfact> 0.21844032E+03</totfact>
</mgrwt>
</event>
<event>
 4    1  0.5847263E-005  0.4416906E+03  0.7818608E-02  0.1030229E+00
          2   -1    0    0  501    0  0.00000000000E+00  0.00000000000E+00  0.78183388323E+03  0.78183388324E+03  0.25500000000E-02 0.  1.
         -2   -1    0    0    0  501 -0.00000000000E+00 -0.00000000000E+00 -0.62382373153E+02  0.62382373205E+02  0.25500000000E-02 0. -1.
    5000001    1    1    2    0    0  0.73407116491E+02 -0.15879007562E+02  0.51104589797E+03  0.55106502108E+03  0.19200000000E+03 0.  0.
   -5000001    1    1    2    0    0 -0.73407116491E+02  0.15879007562E+02  0.20840561211E+03  0.29315123536E+03  0.19200000000E+03 0.  0.
<mgrwt>
<rscale>  0 0.44169063E+03</rscale>
<asrwt>0</asrwt>
<pdfrwt beam="1">  1        2 0.11169055E+00 0.44169063E+03</pdfrwt>
<pdfrwt beam="2">  1       -2 0.89117684E-02 0.44169063E+03</pdfrwt>
<totfact> 0.32182099E+03</totfact>
</mgrwt>
</event>
<event>
 4    1  0.5847263E-005  0.1178268E+04  0.7818608E-02  0.9132094E-01
          2   -1    0    0  501    0  0.00000000000E+00  0.00000000000E+00  0.14464871359E+04  0.14464871359E+04  0.25500000000E-02 0.  1.
         -2   -1    0    0    0  501 -0.00000000000E+00 -0.00000000000E+00 -0.23994591862E+03  0.23994591863E+03  0.25500000000E-02 0. -1.
    5000001    1    1    2    0    0 -0.49725594494E+03  0.25080193054E+03  0.61335088488E+03  0.85042835743E+03  0.19200000000E+03 0.  0.
   -5000001    1    1    2    0    0  0.49725594494E+03 -0.25080193054E+03  0.59319033243E+03  0.83600469713E+03  0.19200000000E+03 0.  0.
<mgrwt>
<rscale>  0 0.11782677E+04</rscale>
<asrwt>0</asrwt>
<pdfrwt beam="1">  1        2 0.20664102E+00 0.11782677E+04</pdfrwt>
<pdfrwt beam="2">  1       -2 0.34277989E-01 0.11782677E+04</pdfrwt>
<totfact> 0.12287797E+02</totfact>
</mgrwt>
</event>
<event>
 4    1  0.5847263E-005  0.5233776E+03  0.7818608E-02  0.1007851E+00
         -2   -1    0    0    0  501 -0.00000000000E+00  0.00000000000E+00  0.31013850331E+03  0.31013850332E+03  0.25500000000E-02 0. -1.
          2   -1    0    0  501    0  0.00000000000E+00 -0.00000000000E+00 -0.22080790601E+03  0.22080790602E+03  0.25500000000E-02 0.  1.
    5000001    1    1    2    0    0  0.16386849814E+03 -0.43337362471E+02 -0.98333012543E+01  0.25630393185E+03  0.19200000000E+03 0.  0.
   -5000001    1    1    2    0    0 -0.16386849814E+03  0.43337362471E+02  0.99163898558E+02  0.27464247750E+03  0.19200000000E+03 0.  0.
<mgrwt>
<rscale>  0 0.52337762E+03</rscale>
<asrwt>0</asrwt>
<pdfrwt beam="1">  1        2 0.31543987E-01 0.52337762E+03</pdfrwt>
<pdfrwt beam="2">  1       -2 0.44305500E-01 0.52337762E+03</pdfrwt>
<totfact> 0.81562763E+02</totfact>
</mgrwt>
</event>
<event>
 4    1  0.5847263E-005  0.6900582E+03  0.7818608E-02  0.9734387E-01
         -2   -1    0    0    0  501 -0.00000000000E+00  0.00000000000E+00  0.11208689136E+03  0.11208689139E+03  0.25500000000E-02 0. -1.
          2   -1    0    0  501    0  0.00000000000E+00 -0.00000000000E+00 -0.10620784490E+04  0.10620784490E+04  0.25500000000E-02 0.  1.
    5000001    1    1    2    0    0  0.26064861938E+03  0.10725365915E+02 -0.27274553685E+03  0.42344641235E+03  0.19200000000E+03 0.  0.
   -5000001    1    1    2    0    0 -0.26064861938E+03 -0.10725365915E+02 -0.67724602082E+03  0.75071892808E+03  0.19200000000E+03 0.  0.
<mgrwt>
<rscale>  0 0.69005818E+03</rscale>
<asrwt>0</asrwt>
<pdfrwt beam="1">  1        2 0.15172549E+00 0.69005818E+03</pdfrwt>
<pdfrwt beam="2">  1       -2 0.16012414E-01 0.69005818E+03</pdfrwt>
<totfact> 0.81103884E+02</totfact>
</mgrwt>
</event>
<event>
 4    1  0.5847263E-005  0.6002718E+03  0.7818608E-02  0.9904842E-01
         -2   -1    0    0    0  501 -0.00000000000E+00  0.00000000000E+00  0.94361418086E+02  0.94361418120E+02  0.25500000000E-02 0. -1.
          2   -1    0    0  501    0  0.00000000000E+00 -0.00000000000E+00 -0.95464396671E+03  0.95464396672E+03  0.25500000000E-02 0.  1.
    5000001    1    1    2    0    0 -0.12681533623E+01 -0.82358195860E+02 -0.53573187113E+02  0.21568163347E+03  0.19200000000E+03 0.  0.
   -5000001    1    1    2    0    0  0.12681533623E+01  0.82358195860E+02 -0.80670936152E+03  0.83332375137E+03  0.19200000000E+03 0.  0.
<mgrwt>
<rscale>  0 0.60027180E+03</rscale>
<asrwt>0</asrwt>
<pdfrwt beam="1">  1        2 0.13637770E+00 0.60027180E+03</pdfrwt>
<pdfrwt beam="2">  1       -2 0.13480203E-01 0.60027180E+03</pdfrwt>
<totfact> 0.12625622E+03</totfact>
</mgrwt>
</event>
<event>
 4    1  0.5847263E-005  0.1004044E+04  0.7818608E-02  0.9304121E-01
         -2   -1    0    0    0  501 -0.00000000000E+00  0.00000000000E+00  0.13495061376E+03  0.13495061379E+03  0.25500000000E-02 0. -1.
          2   -1    0    0  501    0  0.00000000000E+00 -0.00000000000E+00 -0.18675424326E+04  0.18675424326E+04  0.25500000000E-02 0.  1.
    5000001    1    1    2    0    0 -0.43408977056E+03 -0.14539840547E+03 -0.71721495794E+03  0.87225909059E+03  0.19200000000E+03 0.  0.
   -5000001    1    1    2    0    0  0.43408977056E+03  0.14539840547E+03 -0.10153768609E+04  0.11302339558E+04  0.19200000000E+03 0.  0.
<mgrwt>
<rscale>  0 0.10040438E+04</rscale>
<asrwt>0</asrwt>
<pdfrwt beam="1">  1        2 0.26679176E+00 0.10040438E+04</pdfrwt>
<pdfrwt beam="2">  1       -2 0.19278660E-01 0.10040438E+04</pdfrwt>
<totfact> 0.21374364E+02</totfact>
</mgrwt>
</event>
<event>
 4    1  0.5847263E-005  0.9171531E+03  0.7818608E-02  0.9404390E-01
         -2   -1    0    0    0  501 -0.00000000000E+00  0.00000000000E+00  0.41863615374E+03  0.41863615375E+03  0.25500000000E-02 0. -1.
          2   -1    0    0  501    0  0.00000000000E+00 -0.00000000000E+00 -0.50232750086E+03  0.50232750086E+03  0.25500000000E-02 0.  1.
    5000001    1    1    2    0    0  0.16726069001E+03 -0.37939421561E+03 -0.80896109949E+02  0.46403048377E+03  0.19200000000E+03 0.  0.
   -5000001    1    1    2    0    0 -0.16726069001E+03  0.37939421561E+03 -0.27952371647E+01  0.45693317084E+03  0.19200000000E+03 0.  0.
<mgrwt>
<rscale>  0 0.91715310E+03</rscale>
<asrwt>0</asrwt>
<pdfrwt beam="1">  1        2 0.71761071E-01 0.91715310E+03</pdfrwt>
<pdfrwt beam="2">  1       -2 0.59805165E-01 0.91715310E+03</pdfrwt>
<totfact> 0.17465680E+02</totfact>
</mgrwt>
</event>
<event>
 4    1  0.5847263E-005  0.1385388E+04  0.7818608E-02  0.8964464E-01
          2   -1    0    0  501    0  0.00000000000E+00  0.00000000000E+00  0.28973286597E+04  0.28973286597E+04  0.25500000000E-02 0.  1.
         -2   -1    0    0    0  501 -0.00000000000E+00 -0.00000000000E+00 -0.16560939252E+03  0.16560939254E+03  0.25500000000E-02 0. -1.
    5000001    1    1    2    0    0 -0.49134586965E+03  0.44762807617E+03  0.12902620793E+04  0.14640464103E+04  0.19200000000E+03 0.  0.
   -5000001    1    1    2    0    0  0.49134586965E+03 -0.44762807617E+03  0.14414571879E+04  0.15988916419E+04  0.19200000000E+03 0.  0.
<mgrwt>
<rscale>  0 0.13853878E+04</rscale>
<asrwt>0</asrwt>
<pdfrwt beam="1">  1        2 0.41390405E+00 0.13853878E+04</pdfrwt>
<pdfrwt beam="2">  1       -2 0.23658487E-01 0.13853878E+04</pdfrwt>
<totfact> 0.41830540E+01</totfact>
</mgrwt>
</event>
<event>
 4    1  0.5847263E-005  0.4683455E+03  0.7818608E-02  0.1022388E+00
         -2   -1    0    0    0  501 -0.00000000000E+00  0.00000000000E+00  0.67311272007E+03  0.67311272007E+03  0.25500000000E-02 0. -1.
          2   -1    0    0  501    0  0.00000000000E+00 -0.00000000000E+00 -0.81467590425E+02  0.81467590465E+02  0.25500000000E-02 0.  1.
    5000001    1    1    2    0    0  0.10671888464E+02  0.51739692540E+02  0.49434218605E+03  0.53294378868E+03  0.19200000000E+03 0.  0.
   -5000001    1    1    2    0    0 -0.10671888464E+02 -0.51739692540E+02  0.97302943591E+02  0.22163652185E+03  0.19200000000E+03 0.  0.
<mgrwt>
<rscale>  0 0.46834548E+03</rscale>
<asrwt>0</asrwt>
<pdfrwt beam="1">  1        2 0.11638227E-01 0.46834548E+03</pdfrwt>
<pdfrwt beam="2">  1       -2 0.96158959E-01 0.46834548E+03</pdfrwt>
<totfact> 0.50138769E+02</totfact>
</mgrwt>
</event>
<event>
 4    1  0.5847263E-005  0.1119614E+04  0.7818608E-02  0.9186283E-01
          2   -1    0    0  501    0  0.00000000000E+00  0.00000000000E+00  0.71822431268E+03  0.71822431268E+03  0.25500000000E-02 0.  1.
         -2   -1    0    0    0  501 -0.00000000000E+00 -0.00000000000E+00 -0.43633121080E+03  0.43633121081E+03  0.25500000000E-02 0. -1.
    5000001    1    1    2    0    0  0.42627985662E+03  0.30697564357E+03  0.11630255597E+03  0.57126075170E+03  0.19200000000E+03 0.  0.
   -5000001    1    1    2    0    0 -0.42627985662E+03 -0.30697564357E+03  0.16559054590E+03  0.58329477179E+03  0.19200000000E+03 0.  0.
<mgrwt>
<rscale>  0 0.11196137E+04</rscale>
<asrwt>0</asrwt>
<pdfrwt beam="1">  1        2 0.10260347E+00 0.11196137E+04</pdfrwt>
<pdfrwt beam="2">  1       -2 0.62333030E-01 0.11196137E+04</pdfrwt>
<totfact> 0.10332627E+02</totfact>
</mgrwt>
</event>
<event>
 4    1  0.5847263E-005  0.6867074E+03  0.7818608E-02  0.9740238E-01
         -2   -1    0    0    0  501 -0.00000000000E+00  0.00000000000E+00  0.54044987804E+03  0.54044987804E+03  0.25500000000E-02 0. -1.
          2   -1    0    0  501    0  0.00000000000E+00 -0.00000000000E+00 -0.21813636498E+03  0.21813636500E+03  0.25500000000E-02 0.  1.
    5000001    1    1    2    0    0 -0.93754328656E+02 -0.21914183898E+03 -0.10742197153E+02  0.30625547266E+03  0.19200000000E+03 0.  0.
   -5000001    1    1    2    0    0  0.93754328656E+02  0.21914183898E+03  0.33305571021E+03  0.45233077038E+03  0.19200000000E+03 0.  0.
<mgrwt>
<rscale>  0 0.68670742E+03</rscale>
<asrwt>0</asrwt>
<pdfrwt beam="1">  1        2 0.31162338E-01 0.68670742E+03</pdfrwt>
<pdfrwt beam="2">  1       -2 0.77207125E-01 0.68670742E+03</pdfrwt>
<totfact> 0.25764513E+02</totfact>
</mgrwt>
</event>
<event>
 4    1  0.5847263E-005  0.4187804E+03  0.7818608E-02  0.1037464E+00
         -2   -1    0    0    0  501 -0.00000000000E+00  0.00000000000E+00  0.72852019179E+03  0.72852019180E+03  0.25500000000E-02 0. -1.
          2   -1    0    0  501    0  0.00000000000E+00 -0.00000000000E+00 -0.60182614730E+02  0.60182614784E+02  0.25500000000E-02 0.  1.
    5000001    1    1    2    0    0  0.35933789440E+02  0.61060312796E+02  0.25077624541E+03  0.32368553301E+03  0.19200000000E+03 0.  0.
   -5000001    1    1    2    0    0 -0.35933789440E+02 -0.61060312796E+02  0.41756133166E+03  0.46501727357E+03  0.19200000000E+03 0.  0.
<mgrwt>
<rscale>  0 0.41878037E+03</rscale>
<asrwt>0</asrwt>
<pdfrwt beam="1">  1        2 0.85975169E-02 0.41878037E+03</pdfrwt>
<pdfrwt beam="2">  1       -2 0.10407431E+00 0.41878037E+03</pdfrwt>
<totfact> 0.60982120E+02</totfact>
</mgrwt>
</event>
<event>
 4    1  0.5847263E-005  0.8174844E+03  0.7818608E-02  0.9535048E-01
          2   -1    0    0  501    0  0.00000000000E+00  0.00000000000E+00  0.21876685119E+04  0.21876685119E+04  0.25500000000E-02 0.  1.
         -2   -1    0    0    0  501 -0.00000000000E+00 -0.00000000000E+00 -0.76369059887E+02  0.76369059930E+02  0.25500000000E-02 0. -1.
    5000001    1    1    2    0    0  0.20686240111E+03 -0.26011621038E+03  0.14448994291E+04  0.14950086475E+04  0.19200000000E+03 0.  0.
   -5000001    1    1    2    0    0 -0.20686240111E+03  0.26011621038E+03  0.66640002284E+03  0.76902892425E+03  0.19200000000E+03 0.  0.
<mgrwt>
<rscale>  0 0.81748440E+03</rscale>
<asrwt>0</asrwt>
<pdfrwt beam="1">  1        2 0.31252403E+00 0.81748440E+03</pdfrwt>
<pdfrwt beam="2">  1       -2 0.10909867E-01 0.81748440E+03</pdfrwt>
<totfact> 0.38951441E+02</totfact>
</mgrwt>
</event>
<event>
 4    1  0.5847263E-005  0.5802615E+03  0.7818608E-02  0.9947225E-01
          2   -1    0    0  501    0  0.00000000000E+00  0.00000000000E+00  0.55803190443E+03  0.55803190443E+03  0.25500000000E-02 0.  1.
         -2   -1    0    0    0  501 -0.00000000000E+00 -0.00000000000E+00 -0.15084417315E+03  0.15084417317E+03  0.25500000000E-02 0. -1.
    5000001    1    1    2    0    0 -0.17808801289E+03  0.97963174583E+02  0.10896739142E+03  0.30008334893E+03  0.19200000000E+03 0.  0.
   -5000001    1    1    2    0    0  0.17808801289E+03 -0.97963174583E+02  0.29822033986E+03  0.40879272868E+03  0.19200000000E+03 0.  0.
<mgrwt>
<rscale>  0 0.58026153E+03</rscale>
<asrwt>0</asrwt>
<pdfrwt beam="1">  1        2 0.79718844E-01 0.58026153E+03</pdfrwt>
<pdfrwt beam="2">  1       -2 0.21549167E-01 0.58026153E+03</pdfrwt>
<totfact> 0.11071091E+03</totfact>
</mgrwt>
</event>
<event>
 4    1  0.5847263E-005  0.5918288E+03  0.7818608E-02  0.9922505E-01
          2   -1    0    0  501    0  0.00000000000E+00  0.00000000000E+00  0.28417916781E+04  0.28417916781E+04  0.25500000000E-02 0.  1.
         -2   -1    0    0    0  501 -0.00000000000E+00 -0.00000000000E+00 -0.30813425466E+02  0.30813425571E+02  0.25500000000E-02 0. -1.
    5000001    1    1    2    0    0  0.19850365664E+02  0.73506346839E+02  0.24340331822E+04  0.24427809464E+04  0.19200000000E+03 0.  0.
   -5000001    1    1    2    0    0 -0.19850365664E+02 -0.73506346839E+02  0.37694507036E+03  0.42982415720E+03  0.19200000000E+03 0.  0.
<mgrwt>
<rscale>  0 0.59182881E+03</rscale>
<asrwt>0</asrwt>
<pdfrwt beam="1">  1        2 0.40597010E+00 0.59182881E+03</pdfrwt>
<pdfrwt beam="2">  1       -2 0.44019194E-02 0.59182881E+03</pdfrwt>
<totfact> 0.76747871E+02</totfact>
</mgrwt>
</event>
<event>
 4    1  0.5847263E-005  0.4471679E+03  0.7818608E-02  0.1028570E+00
          2   -1    0    0  501    0  0.00000000000E+00  0.00000000000E+00  0.19466354485E+03  0.19466354487E+03  0.25500000000E-02 0.  1.
         -2   -1    0    0    0  501 -0.00000000000E+00 -0.00000000000E+00 -0.25680093286E+03  0.25680093287E+03  0.25500000000E-02 0. -1.
    5000001    1    1    2    0    0 -0.69973184055E+02 -0.27012313062E+02  0.56365195281E+02  0.21369826107E+03  0.19200000000E+03 0.  0.
   -5000001    1    1    2    0    0  0.69973184055E+02  0.27012313062E+02 -0.11850258329E+03  0.23776621667E+03  0.19200000000E+03 0.  0.
<mgrwt>
<rscale>  0 0.44716789E+03</rscale>
<asrwt>0</asrwt>
<pdfrwt beam="1">  1        2 0.27809078E-01 0.44716789E+03</pdfrwt>
<pdfrwt beam="2">  1       -2 0.36685847E-01 0.44716789E+03</pdfrwt>
<totfact> 0.13527374E+03</totfact>
</mgrwt>
</event>
<event>
 4    1  0.5847263E-005  0.5186907E+03  0.7818608E-02  0.1009012E+00
          2   -1    0    0  501    0  0.00000000000E+00  0.00000000000E+00  0.53704067528E+03  0.53704067529E+03  0.25500000000E-02 0.  1.
         -2   -1    0    0    0  501 -0.00000000000E+00 -0.00000000000E+00 -0.12524195152E+03  0.12524195154E+03  0.25500000000E-02 0. -1.
    5000001    1    1    2    0    0 -0.76103669162E+02 -0.12780409655E+03  0.32201674670E+03  0.40334159308E+03  0.19200000000E+03 0.  0.
   -5000001    1    1    2    0    0  0.76103669162E+02  0.12780409655E+03  0.89781977068E+02  0.25894103375E+03  0.19200000000E+03 0.  0.
<mgrwt>
<rscale>  0 0.51869074E+03</rscale>
<asrwt>0</asrwt>
<pdfrwt beam="1">  1        2 0.76720098E-01 0.51869074E+03</pdfrwt>
<pdfrwt beam="2">  1       -2 0.17891707E-01 0.51869074E+03</pdfrwt>
<totfact> 0.15979546E+03</totfact>
</mgrwt>
</event>
<event>
 4    1  0.5847263E-005  0.5534311E+03  0.7818608E-02  0.1000703E+00
          2   -1    0    0  501    0  0.00000000000E+00  0.00000000000E+00  0.44592922451E+03  0.44592922452E+03  0.25500000000E-02 0.  1.
         -2   -1    0    0    0  501 -0.00000000000E+00 -0.00000000000E+00 -0.17171223957E+03  0.17171223959E+03  0.25500000000E-02 0. -1.
    5000001    1    1    2    0    0  0.15696827739E+03 -0.11057907411E+03  0.77626138551E+02  0.28241209097E+03  0.19200000000E+03 0.  0.
   -5000001    1    1    2    0    0 -0.15696827739E+03  0.11057907411E+03  0.19659084639E+03  0.33522937315E+03  0.19200000000E+03 0.  0.
<mgrwt>
<rscale>  0 0.55343114E+03</rscale>
<asrwt>0</asrwt>
<pdfrwt beam="1">  1        2 0.63704175E-01 0.55343114E+03</pdfrwt>
<pdfrwt beam="2">  1       -2 0.24530320E-01 0.55343114E+03</pdfrwt>
<totfact> 0.11355959E+03</totfact>
</mgrwt>
</event>
<event>
 4    1  0.5847263E-005  0.5642914E+03  0.7818608E-02  0.9982391E-01
         -2   -1    0    0    0  501 -0.00000000000E+00  0.00000000000E+00  0.15580369146E+03  0.15580369148E+03  0.25500000000E-02 0. -1.
          2   -1    0    0  501    0  0.00000000000E+00 -0.00000000000E+00 -0.51093907052E+03  0.51093907053E+03  0.25500000000E-02 0.  1.
    5000001    1    1    2    0    0  0.10245011223E+03  0.16709219100E+03 -0.99850588834E+02  0.29197596798E+03  0.19200000000E+03 0.  0.
   -5000001    1    1    2    0    0 -0.10245011223E+03 -0.16709219100E+03 -0.25528479023E+03  0.37476679403E+03  0.19200000000E+03 0.  0.
<mgrwt>
<rscale>  0 0.56429139E+03</rscale>
<asrwt>0</asrwt>
<pdfrwt beam="1">  1        2 0.72991295E-01 0.56429139E+03</pdfrwt>
<pdfrwt beam="2">  1       -2 0.22257670E-01 0.56429139E+03</pdfrwt>
<totfact> 0.11573956E+03</totfact>
</mgrwt>
</event>
<event>
 4    1  0.5847263E-005  0.5714490E+03  0.7818608E-02  0.9966477E-01
         -2   -1    0    0    0  501 -0.00000000000E+00  0.00000000000E+00  0.23000894603E+02  0.23000894744E+02  0.25500000000E-02 0. -1.
          2   -1    0    0  501    0  0.00000000000E+00 -0.00000000000E+00 -0.35493620820E+04  0.35493620820E+04  0.25500000000E-02 0.  1.
    5000001    1    1    2    0    0  0.19096151095E+03 -0.64468515456E+02 -0.21659973586E+04  0.21838111286E+04  0.19200000000E+03 0.  0.
   -5000001    1    1    2    0    0 -0.19096151095E+03  0.64468515456E+02 -0.13603638288E+04  0.13885518481E+04  0.19200000000E+03 0.  0.
<mgrwt>
<rscale>  0 0.57144905E+03</rscale>
<asrwt>0</asrwt>
<pdfrwt beam="1">  1        2 0.50705138E+00 0.57144905E+03</pdfrwt>
<pdfrwt beam="2">  1       -2 0.32858444E-02 0.57144905E+03</pdfrwt>
<totfact> 0.48169111E+02</totfact>
</mgrwt>
</event>
<event>
 4    1  0.5847263E-005  0.5192577E+03  0.7818608E-02  0.1008871E+00
         -2   -1    0    0    0  501 -0.00000000000E+00  0.00000000000E+00  0.10833104920E+03  0.10833104923E+03  0.25500000000E-02 0.  1.
          2   -1    0    0  501    0  0.00000000000E+00 -0.00000000000E+00 -0.62223296259E+03  0.62223296259E+03  0.25500000000E-02 0. -1.
    5000001    1    1    2    0    0  0.16231455203E+03  0.13672923557E+01 -0.16582227878E+03  0.30117920152E+03  0.19200000000E+03 0.  0.
   -5000001    1    1    2    0    0 -0.16231455203E+03 -0.13672923557E+01 -0.34807963460E+03  0.42938481030E+03  0.19200000000E+03 0.  0.
<mgrwt>
<rscale>  0 0.51925774E+03</rscale>
<asrwt>0</asrwt>
<pdfrwt beam="1">  1        2 0.88890421E-01 0.51925774E+03</pdfrwt>
<pdfrwt beam="2">  1       -2 0.15475864E-01 0.51925774E+03</pdfrwt>
<totfact> 0.17225869E+03</totfact>
</mgrwt>
</event>
<event>
 4    1  0.5847263E-005  0.4092273E+03  0.7818608E-02  0.1040631E+00
          2   -1    0    0  501    0  0.00000000000E+00  0.00000000000E+00  0.58099610698E+03  0.58099610699E+03  0.25500000000E-02 0.  1.
         -2   -1    0    0    0  501 -0.00000000000E+00 -0.00000000000E+00 -0.72060270481E+02  0.72060270527E+02  0.25500000000E-02 0. -1.
    5000001    1    1    2    0    0  0.70681414042E+02  0.22023187247E+01  0.25219749974E+03  0.32475882032E+03  0.19200000000E+03 0.  0.
   -5000001    1    1    2    0    0 -0.70681414042E+02 -0.22023187247E+01  0.25673833676E+03  0.32829755720E+03  0.19200000000E+03 0.  0.
<mgrwt>
<rscale>  0 0.40922726E+03</rscale>
<asrwt>0</asrwt>
<pdfrwt beam="1">  1        2 0.82999443E-01 0.40922726E+03</pdfrwt>
<pdfrwt beam="2">  1       -2 0.10294324E-01 0.40922726E+03</pdfrwt>
<totfact> 0.36417240E+03</totfact>
</mgrwt>
</event>
<event>
 4    1  0.5847263E-005  0.7238695E+03  0.7818608E-02  0.9677261E-01
          2   -1    0    0  501    0  0.00000000000E+00  0.00000000000E+00  0.13486962691E+04  0.13486962691E+04  0.25500000000E-02 0.  1.
         -2   -1    0    0    0  501 -0.00000000000E+00 -0.00000000000E+00 -0.97128432565E+02  0.97128432598E+02  0.25500000000E-02 0. -1.
    5000001    1    1    2    0    0 -0.25748585644E+02  0.30178013366E+03  0.52796413906E+03  0.63823535696E+03  0.19200000000E+03 0.  0.
   -5000001    1    1    2    0    0  0.25748585644E+02 -0.30178013366E+03  0.72360369744E+03  0.80758934470E+03  0.19200000000E+03 0.  0.
<mgrwt>
<rscale>  0 0.72386948E+03</rscale>
<asrwt>0</asrwt>
<pdfrwt beam="1">  1        2 0.19267089E+00 0.72386948E+03</pdfrwt>
<pdfrwt beam="2">  1       -2 0.13875490E-01 0.72386948E+03</pdfrwt>
<totfact> 0.71080600E+02</totfact>
</mgrwt>
</event>
<event>
 4    1  0.5847263E-005  0.1206903E+04  0.7818608E-02  0.9106836E-01
          2   -1    0    0  501    0  0.00000000000E+00  0.00000000000E+00  0.55787121161E+03  0.55787121161E+03  0.25500000000E-02 0.  1.
         -2   -1    0    0    0  501 -0.00000000000E+00 -0.00000000000E+00 -0.65275599204E+03  0.65275599204E+03  0.25500000000E-02 0. -1.
    5000001    1    1    2    0    0  0.51528723207E+03  0.24851815337E+03 -0.50202622289E+02  0.60552993929E+03  0.19200000000E+03 0.  0.
   -5000001    1    1    2    0    0 -0.51528723207E+03 -0.24851815337E+03 -0.44682158144E+02  0.60509726437E+03  0.19200000000E+03 0.  0.
<mgrwt>
<rscale>  0 0.12069031E+04</rscale>
<asrwt>0</asrwt>
<pdfrwt beam="1">  1        2 0.79695888E-01 0.12069031E+04</pdfrwt>
<pdfrwt beam="2">  1       -2 0.93250856E-01 0.12069031E+04</pdfrwt>
<totfact> 0.56841969E+01</totfact>
</mgrwt>
</event>
<event>
 4    1  0.5847263E-005  0.5534951E+03  0.7818608E-02  0.1000688E+00
          2   -1    0    0  501    0  0.00000000000E+00  0.00000000000E+00  0.27378160523E+04  0.27378160523E+04  0.25500000000E-02 0.  1.
         -2   -1    0    0    0  501 -0.00000000000E+00 -0.00000000000E+00 -0.27974566148E+02  0.27974566265E+02  0.25500000000E-02 0. -1.
    5000001    1    1    2    0    0  0.16686864152E+03 -0.45141722096E+02  0.85918099521E+03  0.89718387253E+03  0.19200000000E+03 0.  0.
   -5000001    1    1    2    0    0 -0.16686864152E+03  0.45141722096E+02  0.18506604909E+04  0.18686067460E+04  0.19200000000E+03 0.  0.
<mgrwt>
<rscale>  0 0.55349514E+03</rscale>
<asrwt>0</asrwt>
<pdfrwt beam="1">  1        2 0.39111639E+00 0.55349514E+03</pdfrwt>
<pdfrwt beam="2">  1       -2 0.39963685E-02 0.55349514E+03</pdfrwt>
<totfact> 0.10138075E+03</totfact>
</mgrwt>
</event>
<event>
 4    1  0.5847263E-005  0.4439522E+03  0.7818608E-02  0.1029541E+00
         -2   -1    0    0    0  501 -0.00000000000E+00  0.00000000000E+00  0.84312368133E+02  0.84312368171E+02  0.25500000000E-02 0. -1.
          2   -1    0    0  501    0  0.00000000000E+00 -0.00000000000E+00 -0.58441480748E+03  0.58441480748E+03  0.25500000000E-02 0.  1.
    5000001    1    1    2    0    0  0.50581662702E+02  0.90213908467E+02 -0.18771965227E+03  0.28774940787E+03  0.19200000000E+03 0.  0.
   -5000001    1    1    2    0    0 -0.50581662702E+02 -0.90213908467E+02 -0.31238278708E+03  0.38097776778E+03  0.19200000000E+03 0.  0.
<mgrwt>
<rscale>  0 0.44395223E+03</rscale>
<asrwt>0</asrwt>
<pdfrwt beam="1">  1        2 0.83487827E-01 0.44395223E+03</pdfrwt>
<pdfrwt beam="2">  1       -2 0.12044624E-01 0.44395223E+03</pdfrwt>
<totfact> 0.28066698E+03</totfact>
</mgrwt>
</event>
<event>
 4    1  0.5847263E-005  0.6523292E+03  0.7818608E-02  0.9802418E-01
         -2   -1    0    0    0  501 -0.00000000000E+00  0.00000000000E+00  0.20367409881E+03  0.20367409882E+03  0.25500000000E-02 0. -1.
          2   -1    0    0  501    0  0.00000000000E+00 -0.00000000000E+00 -0.52232149278E+03  0.52232149279E+03  0.25500000000E-02 0.  1.
    5000001    1    1    2    0    0  0.22923762423E+03  0.12737637553E+03 -0.18969521803E+03  0.37632818808E+03  0.19200000000E+03 0.  0.
   -5000001    1    1    2    0    0 -0.22923762423E+03 -0.12737637553E+03 -0.12895217595E+03  0.34966740352E+03  0.19200000000E+03 0.  0.
<mgrwt>
<rscale>  0 0.65232924E+03</rscale>
<asrwt>0</asrwt>
<pdfrwt beam="1">  1        2 0.74617356E-01 0.65232924E+03</pdfrwt>
<pdfrwt beam="2">  1       -2 0.29096300E-01 0.65232924E+03</pdfrwt>
<totfact> 0.69568663E+02</totfact>
</mgrwt>
</event>
<event>
 4    1  0.5847263E-005  0.4404889E+03  0.7818608E-02  0.1030597E+00
         -2   -1    0    0    0  501 -0.00000000000E+00  0.00000000000E+00  0.54553047338E+02  0.54553047398E+02  0.25500000000E-02 0. -1.
          2   -1    0    0  501    0  0.00000000000E+00 -0.00000000000E+00 -0.88918263154E+03  0.88918263155E+03  0.25500000000E-02 0.  1.
    5000001    1    1    2    0    0  0.92076915557E+02  0.12019588725E+02 -0.53507275075E+03  0.57601169909E+03  0.19200000000E+03 0.  0.
   -5000001    1    1    2    0    0 -0.92076915557E+02 -0.12019588725E+02 -0.29955683346E+03  0.36772397986E+03  0.19200000000E+03 0.  0.
<mgrwt>
<rscale>  0 0.44048892E+03</rscale>
<asrwt>0</asrwt>
<pdfrwt beam="1">  1        2 0.12702608E+00 0.44048892E+03</pdfrwt>
<pdfrwt beam="2">  1       -2 0.77932930E-02 0.44048892E+03</pdfrwt>
<totfact> 0.33754547E+03</totfact>
</mgrwt>
</event>
<event>
 4    1  0.5847263E-005  0.4707447E+03  0.7818608E-02  0.1021710E+00
          2   -1    0    0  501    0  0.00000000000E+00  0.00000000000E+00  0.16829810113E+04  0.16829810113E+04  0.25500000000E-02 0.  1.
         -2   -1    0    0    0  501 -0.00000000000E+00 -0.00000000000E+00 -0.32917866291E+02  0.32917866390E+02  0.25500000000E-02 0. -1.
    5000001    1    1    2    0    0  0.96141497311E+02 -0.92954366654E+02  0.91813748691E+03  0.94748305877E+03  0.19200000000E+03 0.  0.
   -5000001    1    1    2    0    0 -0.96141497311E+02  0.92954366654E+02  0.73192565808E+03  0.76841581891E+03  0.19200000000E+03 0.  0.
<mgrwt>
<rscale>  0 0.47074470E+03</rscale>
<asrwt>0</asrwt>
<pdfrwt beam="1">  1        2 0.24042588E+00 0.47074470E+03</pdfrwt>
<pdfrwt beam="2">  1       -2 0.47025519E-02 0.47074470E+03</pdfrwt>
<totfact> 0.27080835E+03</totfact>
</mgrwt>
</event>
<event>
 4    1  0.5847263E-005  0.8116658E+03  0.7818608E-02  0.9543283E-01
          2   -1    0    0  501    0  0.00000000000E+00  0.00000000000E+00  0.26504133355E+04  0.26504133355E+04  0.25500000000E-02 0.  1.
         -2   -1    0    0    0  501 -0.00000000000E+00 -0.00000000000E+00 -0.62141382525E+02  0.62141382577E+02  0.25500000000E-02 0. -1.
    5000001    1    1    2    0    0 -0.31515641075E+03  0.17190690229E+02  0.73275367348E+03  0.82061624957E+03  0.19200000000E+03 0.  0.
   -5000001    1    1    2    0    0  0.31515641075E+03 -0.17190690229E+02  0.18555182795E+04  0.18919384685E+04  0.19200000000E+03 0.  0.
<mgrwt>
<rscale>  0 0.81166582E+03</rscale>
<asrwt>0</asrwt>
<pdfrwt beam="1">  1        2 0.37863043E+00 0.81166582E+03</pdfrwt>
<pdfrwt beam="2">  1       -2 0.88773416E-02 0.81166582E+03</pdfrwt>
<totfact> 0.31475521E+02</totfact>
</mgrwt>
</event>
<event>
 4    1  0.5847263E-005  0.6582950E+03  0.7818608E-02  0.9791338E-01
         -2   -1    0    0    0  501 -0.00000000000E+00  0.00000000000E+00  0.14051024007E+04  0.14051024007E+04  0.25500000000E-02 0. -1.
          2   -1    0    0  501    0  0.00000000000E+00 -0.00000000000E+00 -0.77103325734E+02  0.77103325777E+02  0.25500000000E-02 0.  1.
    5000001    1    1    2    0    0  0.61278739998E+02  0.17713688381E+03  0.10932288998E+04  0.11256757912E+04  0.19200000000E+03 0.  0.
   -5000001    1    1    2    0    0 -0.61278739998E+02 -0.17713688381E+03  0.23477017514E+03  0.35652993523E+03  0.19200000000E+03 0.  0.
<mgrwt>
<rscale>  0 0.65829497E+03</rscale>
<asrwt>0</asrwt>
<pdfrwt beam="1">  1        2 0.11014760E-01 0.65829497E+03</pdfrwt>
<pdfrwt beam="2">  1       -2 0.20072892E+00 0.65829497E+03</pdfrwt>
<totfact> 0.79124834E+01</totfact>
</mgrwt>
</event>
<event>
 4    1  0.5847263E-005  0.5270465E+03  0.7818608E-02  0.1006951E+00
          2   -1    0    0  501    0  0.00000000000E+00  0.00000000000E+00  0.10154886239E+03  0.10154886242E+03  0.25500000000E-02 0.  1.
         -2   -1    0    0    0  501 -0.00000000000E+00 -0.00000000000E+00 -0.68385309828E+03  0.68385309829E+03  0.25500000000E-02 0. -1.
    5000001    1    1    2    0    0  0.43358309002E+02 -0.10364881219E+03 -0.50167337277E+03  0.54878337455E+03  0.19200000000E+03 0.  0.
   -5000001    1    1    2    0    0 -0.43358309002E+02  0.10364881219E+03 -0.80630863119E+02  0.23661858616E+03  0.19200000000E+03 0.  0.
<mgrwt>
<rscale>  0 0.52704650E+03</rscale>
<asrwt>0</asrwt>
<pdfrwt beam="1">  1        2 0.14506981E-01 0.52704650E+03</pdfrwt>
<pdfrwt beam="2">  1       -2 0.97693298E-01 0.52704650E+03</pdfrwt>
<totfact> 0.36854833E+02</totfact>
</mgrwt>
</event>
<event>
 4    1  0.5847263E-005  0.6796908E+03  0.7818608E-02  0.9752608E-01
          2   -1    0    0  501    0  0.00000000000E+00  0.00000000000E+00  0.63688269906E+03  0.63688269907E+03  0.25500000000E-02 0.  1.
         -2   -1    0    0    0  501 -0.00000000000E+00 -0.00000000000E+00 -0.18134405094E+03  0.18134405095E+03  0.25500000000E-02 0. -1.
    5000001    1    1    2    0    0  0.11320650496E+02  0.27894921283E+03  0.25939270439E+03  0.42671934050E+03  0.19200000000E+03 0.  0.
   -5000001    1    1    2    0    0 -0.11320650496E+02 -0.27894921283E+03  0.19614594373E+03  0.39150740952E+03  0.19200000000E+03 0.  0.
<mgrwt>
<rscale>  0 0.67969078E+03</rscale>
<asrwt>0</asrwt>
<pdfrwt beam="1">  1        2 0.90983243E-01 0.67969078E+03</pdfrwt>
<pdfrwt beam="2">  1       -2 0.25906293E-01 0.67969078E+03</pdfrwt>
<totfact> 0.68122658E+02</totfact>
</mgrwt>
</event>
<event>
 4    1  0.5847263E-005  0.7437553E+03  0.7818608E-02  0.9645199E-01
         -2   -1    0    0    0  501 -0.00000000000E+00  0.00000000000E+00  0.73418424234E+03  0.73418424234E+03  0.25500000000E-02 0.  1.
          2   -1    0    0  501    0  0.00000000000E+00 -0.00000000000E+00 -0.18836275739E+03  0.18836275741E+03  0.25500000000E-02 0. -1.
    5000001    1    1    2    0    0 -0.18325229549E+03 -0.18643574093E+03  0.49854347773E+03  0.59476826453E+03  0.19200000000E+03 0.  0.
   -5000001    1    1    2    0    0  0.18325229549E+03  0.18643574093E+03  0.47278007212E+02  0.32777873522E+03  0.19200000000E+03 0.  0.
<mgrwt>
<rscale>  0 0.74375525E+03</rscale>
<asrwt>0</asrwt>
<pdfrwt beam="1">  1        2 0.26908966E-01 0.74375525E+03</pdfrwt>
<pdfrwt beam="2">  1       -2 0.10488346E+00 0.74375525E+03</pdfrwt>
<totfact> 0.14979428E+02</totfact>
</mgrwt>
</event>
<event>
 4    1  0.5847263E-005  0.5864578E+03  0.7818608E-02  0.9933907E-01
          2   -1    0    0  501    0  0.00000000000E+00  0.00000000000E+00  0.79923754730E+03  0.79923754730E+03  0.25500000000E-02 0.  1.
         -2   -1    0    0    0  501 -0.00000000000E+00 -0.00000000000E+00 -0.10758152282E+03  0.10758152285E+03  0.25500000000E-02 0. -1.
    5000001    1    1    2    0    0  0.40497412223E+02  0.17587711631E+03  0.54472835002E+03  0.60511633241E+03  0.19200000000E+03 0.  0.
   -5000001    1    1    2    0    0 -0.40497412223E+02 -0.17587711631E+03  0.14692767446E+03  0.30170273774E+03  0.19200000000E+03 0.  0.
<mgrwt>
<rscale>  0 0.58645782E+03</rscale>
<asrwt>0</asrwt>
<pdfrwt beam="1">  1        2 0.11417679E+00 0.58645782E+03</pdfrwt>
<pdfrwt beam="2">  1       -2 0.15368789E-01 0.58645782E+03</pdfrwt>
<totfact> 0.12821464E+03</totfact>
</mgrwt>
</event>
<event>
 4    1  0.5847263E-005  0.6845564E+03  0.7818608E-02  0.9744013E-01
          2   -1    0    0  501    0  0.00000000000E+00  0.00000000000E+00  0.49814099235E+03  0.49814099236E+03  0.25500000000E-02 0. -1.
         -2   -1    0    0    0  501 -0.00000000000E+00 -0.00000000000E+00 -0.23518315964E+03  0.23518315965E+03  0.25500000000E-02 0.  1.
    5000001    1    1    2    0    0 -0.18800779131E+02 -0.28262977064E+03  0.12336884596E+03  0.36375393977E+03  0.19200000000E+03 0.  0.
   -5000001    1    1    2    0    0  0.18800779131E+02  0.28262977064E+03  0.13958898675E+03  0.36957021224E+03  0.19200000000E+03 0.  0.
<mgrwt>
<rscale>  0 0.68455642E+03</rscale>
<asrwt>0</asrwt>
<pdfrwt beam="1">  1        2 0.71162999E-01 0.68455642E+03</pdfrwt>
<pdfrwt beam="2">  1       -2 0.33597594E-01 0.68455642E+03</pdfrwt>
<totfact> 0.56140360E+02</totfact>
</mgrwt>
</event>
<event>
 4    1  0.5847263E-005  0.7897348E+03  0.7818608E-02  0.9574996E-01
          2   -1    0    0  501    0  0.00000000000E+00  0.00000000000E+00  0.58712669287E+03  0.58712669288E+03  0.25500000000E-02 0.  1.
         -2   -1    0    0    0  501 -0.00000000000E+00 -0.00000000000E+00 -0.26556495284E+03  0.26556495285E+03  0.25500000000E-02 0. -1.
    5000001    1    1    2    0    0 -0.25198581033E+03 -0.20273952128E+03  0.30962411466E+02  0.37738949776E+03  0.19200000000E+03 0.  0.
   -5000001    1    1    2    0    0  0.25198581033E+03  0.20273952128E+03  0.29059932857E+03  0.47530214797E+03  0.19200000000E+03 0.  0.
<mgrwt>
<rscale>  0 0.78973482E+03</rscale>
<asrwt>0</asrwt>
<pdfrwt beam="1">  1        2 0.83875241E-01 0.78973482E+03</pdfrwt>
<pdfrwt beam="2">  1       -2 0.37937851E-01 0.78973482E+03</pdfrwt>
<totfact> 0.36680283E+02</totfact>
</mgrwt>
</event>
<event>
 4    1  0.5847263E-005  0.8074397E+03  0.7818608E-02  0.9549310E-01
         -2   -1    0    0    0  501 -0.00000000000E+00  0.00000000000E+00  0.26246518586E+03  0.26246518587E+03  0.25500000000E-02 0.  1.
          2   -1    0    0  501    0  0.00000000000E+00 -0.00000000000E+00 -0.62099559899E+03  0.62099559900E+03  0.25500000000E-02 0. -1.
    5000001    1    1    2    0    0  0.18001539903E+03 -0.20247256650E+03 -0.43050338228E+03  0.54368910806E+03  0.19200000000E+03 0.  0.
   -5000001    1    1    2    0    0 -0.18001539903E+03  0.20247256650E+03  0.71972969139E+02  0.33977167681E+03  0.19200000000E+03 0.  0.
<mgrwt>
<rscale>  0 0.80743972E+03</rscale>
<asrwt>0</asrwt>
<pdfrwt beam="1">  1        2 0.88713657E-01 0.80743972E+03</pdfrwt>
<pdfrwt beam="2">  1       -2 0.37495027E-01 0.80743972E+03</pdfrwt>
<totfact> 0.35080397E+02</totfact>
</mgrwt>
</event>
<event>
 4    1  0.5847263E-005  0.7176138E+03  0.7818608E-02  0.9687576E-01
          2   -1    0    0  501    0  0.00000000000E+00  0.00000000000E+00  0.90265852418E+03  0.90265852419E+03  0.25500000000E-02 0.  1.
         -2   -1    0    0    0  501 -0.00000000000E+00 -0.00000000000E+00 -0.14262579953E+03  0.14262579955E+03  0.25500000000E-02 0. -1.
    5000001    1    1    2    0    0 -0.28126271247E+03 -0.27198182615E+02  0.22025367126E+03  0.40647771681E+03  0.19200000000E+03 0.  0.
   -5000001    1    1    2    0    0  0.28126271247E+03  0.27198182615E+02  0.53977905340E+03  0.63880660692E+03  0.19200000000E+03 0.  0.
<mgrwt>
<rscale>  0 0.71761381E+03</rscale>
<asrwt>0</asrwt>
<pdfrwt beam="1">  1        2 0.12895122E+00 0.71761381E+03</pdfrwt>
<pdfrwt beam="2">  1       -2 0.20375114E-01 0.71761381E+03</pdfrwt>
<totfact> 0.67128204E+02</totfact>
</mgrwt>
</event>
<event>
 4    1  0.5847263E-005  0.8958271E+03  0.7818608E-02  0.9430813E-01
         -2   -1    0    0    0  501 -0.00000000000E+00  0.00000000000E+00  0.43064667787E+03  0.43064667788E+03  0.25500000000E-02 0. -1.
          2   -1    0    0  501    0  0.00000000000E+00 -0.00000000000E+00 -0.46587273949E+03  0.46587273949E+03  0.25500000000E-02 0.  1.
    5000001    1    1    2    0    0  0.34646822400E+03  0.14547486641E+03  0.13270085087E+03  0.44235357218E+03  0.19200000000E+03 0.  0.
   -5000001    1    1    2    0    0 -0.34646822400E+03 -0.14547486641E+03 -0.16792691248E+03  0.45416584519E+03  0.19200000000E+03 0.  0.
<mgrwt>
<rscale>  0 0.89582710E+03</rscale>
<asrwt>0</asrwt>
<pdfrwt beam="1">  1        2 0.66553248E-01 0.89582710E+03</pdfrwt>
<pdfrwt beam="2">  1       -2 0.61520954E-01 0.89582710E+03</pdfrwt>
<totfact> 0.17946882E+02</totfact>
</mgrwt>
</event>
<event>
 4    1  0.5847263E-005  0.5340076E+03  0.7818608E-02  0.1005265E+00
         -2   -1    0    0    0  501 -0.00000000000E+00  0.00000000000E+00  0.48976554049E+02  0.48976554115E+02  0.25500000000E-02 0. -1.
          2   -1    0    0  501    0  0.00000000000E+00 -0.00000000000E+00 -0.14556151953E+04  0.14556151953E+04  0.25500000000E-02 0.  1.
    5000001    1    1    2    0    0  0.49957053470E+02  0.17348385910E+03 -0.82400314039E+03  0.86512284210E+03  0.19200000000E+03 0.  0.
   -5000001    1    1    2    0    0 -0.49957053470E+02 -0.17348385910E+03 -0.58263550091E+03  0.63946890736E+03  0.19200000000E+03 0.  0.
<mgrwt>
<rscale>  0 0.53400755E+03</rscale>
<asrwt>0</asrwt>
<pdfrwt beam="1">  1        2 0.20794500E+00 0.53400755E+03</pdfrwt>
<pdfrwt beam="2">  1       -2 0.69966515E-02 0.53400755E+03</pdfrwt>
<totfact> 0.19060160E+03</totfact>
</mgrwt>
</event>
<event>
 4    1  0.5847263E-005  0.4669263E+03  0.7818608E-02  0.1022791E+00
          2   -1    0    0  501    0  0.00000000000E+00  0.00000000000E+00  0.92158222347E+03  0.92158222347E+03  0.25500000000E-02 0.  1.
         -2   -1    0    0    0  501 -0.00000000000E+00 -0.00000000000E+00 -0.59142892239E+02  0.59142892294E+02  0.25500000000E-02 0. -1.
    5000001    1    1    2    0    0 -0.36814706844E+02 -0.12742511200E+03  0.44585565220E+03  0.50323329024E+03  0.19200000000E+03 0.  0.
   -5000001    1    1    2    0    0  0.36814706844E+02  0.12742511200E+03  0.41658367903E+03  0.47749182553E+03  0.19200000000E+03 0.  0.
<mgrwt>
<rscale>  0 0.46692628E+03</rscale>
<asrwt>0</asrwt>
<pdfrwt beam="1">  1        2 0.13165461E+00 0.46692628E+03</pdfrwt>
<pdfrwt beam="2">  1       -2 0.84489843E-02 0.46692628E+03</pdfrwt>
<totfact> 0.28331440E+03</totfact>
</mgrwt>
</event>
<event>
 4    1  0.5847263E-005  0.5032941E+03  0.7818608E-02  0.1012923E+00
          2   -1    0    0  501    0  0.00000000000E+00  0.00000000000E+00  0.24108561193E+03  0.24108561195E+03  0.25500000000E-02 0. -1.
         -2   -1    0    0    0  501 -0.00000000000E+00 -0.00000000000E+00 -0.26267114281E+03  0.26267114282E+03  0.25500000000E-02 0.  1.
    5000001    1    1    2    0    0 -0.15693484944E+03  0.28490085167E+02  0.21205377932E+02  0.25050728528E+03  0.19200000000E+03 0.  0.
   -5000001    1    1    2    0    0  0.15693484944E+03 -0.28490085167E+02 -0.42790908809E+02  0.25324946950E+03  0.19200000000E+03 0.  0.
<mgrwt>
<rscale>  0 0.50329408E+03</rscale>
<asrwt>0</asrwt>
<pdfrwt beam="1">  1        2 0.34440802E-01 0.50329408E+03</pdfrwt>
<pdfrwt beam="2">  1       -2 0.37524449E-01 0.50329408E+03</pdfrwt>
<totfact> 0.10214568E+03</totfact>
</mgrwt>
</event>
<event>
 4    1  0.5847263E-005  0.5051827E+03  0.7818608E-02  0.1012435E+00
         -2   -1    0    0    0  501 -0.00000000000E+00  0.00000000000E+00  0.39278717702E+02  0.39278717785E+02  0.25500000000E-02 0. -1.
          2   -1    0    0  501    0  0.00000000000E+00 -0.00000000000E+00 -0.16243500762E+04  0.16243500762E+04  0.25500000000E-02 0.  1.
    5000001    1    1    2    0    0  0.10060937609E+03  0.12967254954E+03 -0.78897133706E+03  0.82841836494E+03  0.19200000000E+03 0.  0.
   -5000001    1    1    2    0    0 -0.10060937609E+03 -0.12967254954E+03 -0.79610002144E+03  0.83521042905E+03  0.19200000000E+03 0.  0.
<mgrwt>
<rscale>  0 0.50518269E+03</rscale>
<asrwt>0</asrwt>
<pdfrwt beam="1">  1        2 0.23204997E+00 0.50518269E+03</pdfrwt>
<pdfrwt beam="2">  1       -2 0.56112464E-02 0.50518269E+03</pdfrwt>
<totfact> 0.22050237E+03</totfact>
</mgrwt>
</event>
<event>
 4    1  0.5847263E-005  0.5529281E+03  0.7818608E-02  0.1000818E+00
         -2   -1    0    0    0  501 -0.00000000000E+00  0.00000000000E+00  0.62055937299E+02  0.62055937351E+02  0.25500000000E-02 0. -1.
          2   -1    0    0  501    0  0.00000000000E+00 -0.00000000000E+00 -0.12316690517E+04  0.12316690517E+04  0.25500000000E-02 0.  1.
    5000001    1    1    2    0    0 -0.12074596723E+03  0.13633620639E+03 -0.39760695351E+03  0.47762164864E+03  0.19200000000E+03 0.  0.
   -5000001    1    1    2    0    0  0.12074596723E+03 -0.13633620639E+03 -0.77200616092E+03  0.81610334043E+03  0.19200000000E+03 0.  0.
<mgrwt>
<rscale>  0 0.55292812E+03</rscale>
<asrwt>0</asrwt>
<pdfrwt beam="1">  1        2 0.17595271E+00 0.55292812E+03</pdfrwt>
<pdfrwt beam="2">  1       -2 0.88651347E-02 0.55292812E+03</pdfrwt>
<totfact> 0.17249608E+03</totfact>
</mgrwt>
</event>
<event>
 4    1  0.5847263E-005  0.4732107E+03  0.7818608E-02  0.1021018E+00
         -2   -1    0    0    0  501 -0.00000000000E+00  0.00000000000E+00  0.16025614984E+02  0.16025615187E+02  0.25500000000E-02 0. -1.
          2   -1    0    0  501    0  0.00000000000E+00 -0.00000000000E+00 -0.34932878288E+04  0.34932878288E+04  0.25500000000E-02 0.  1.
    5000001    1    1    2    0    0  0.64344225973E+02  0.91869773316E+02 -0.23382635886E+04  0.23488126456E+04  0.19200000000E+03 0.  0.
   -5000001    1    1    2    0    0 -0.64344225973E+02 -0.91869773316E+02 -0.11389986253E+04  0.11605007984E+04  0.19200000000E+03 0.  0.
<mgrwt>
<rscale>  0 0.47321068E+03</rscale>
<asrwt>0</asrwt>
<pdfrwt beam="1">  1        2 0.49904063E+00 0.47321068E+03</pdfrwt>
<pdfrwt beam="2">  1       -2 0.22893758E-02 0.47321068E+03</pdfrwt>
<totfact> 0.90861298E+02</totfact>
</mgrwt>
</event>
<event>
 4    1  0.5847263E-005  0.5081254E+03  0.7818608E-02  0.1011680E+00
         -2   -1    0    0    0  501 -0.00000000000E+00  0.00000000000E+00  0.15550459299E+02  0.15550459508E+02  0.25500000000E-02 0. -1.
          2   -1    0    0  501    0  0.00000000000E+00 -0.00000000000E+00 -0.41508655252E+04  0.41508655252E+04  0.25500000000E-02 0.  1.
    5000001    1    1    2    0    0 -0.93094143861E+01 -0.16420366087E+03 -0.18611389974E+04  0.18782310494E+04  0.19200000000E+03 0.  0.
   -5000001    1    1    2    0    0  0.93094143861E+01  0.16420366087E+03 -0.22741760685E+04  0.22881849353E+04  0.19200000000E+03 0.  0.
<mgrwt>
<rscale>  0 0.50812544E+03</rscale>
<asrwt>0</asrwt>
<pdfrwt beam="1">  1        2 0.59298008E+00 0.50812544E+03</pdfrwt>
<pdfrwt beam="2">  1       -2 0.22214969E-02 0.50812544E+03</pdfrwt>
<totfact> 0.36098717E+02</totfact>
</mgrwt>
</event>
<event>
 4    1  0.5847263E-005  0.4663560E+03  0.7818608E-02  0.1022954E+00
          2   -1    0    0  501    0  0.00000000000E+00  0.00000000000E+00  0.35247475271E+04  0.35247475271E+04  0.25500000000E-02 0.  1.
         -2   -1    0    0    0  501 -0.00000000000E+00 -0.00000000000E+00 -0.15425778031E+02  0.15425778242E+02  0.25500000000E-02 0. -1.
    5000001    1    1    2    0    0  0.12341323592E+03  0.47712771763E+02  0.17607240655E+04  0.17760970047E+04  0.19200000000E+03 0.  0.
   -5000001    1    1    2    0    0 -0.12341323592E+03 -0.47712771763E+02  0.17485976836E+04  0.17640763006E+04  0.19200000000E+03 0.  0.
<mgrwt>
<rscale>  0 0.46635597E+03</rscale>
<asrwt>0</asrwt>
<pdfrwt beam="1">  1        2 0.50353489E+00 0.46635597E+03</pdfrwt>
<pdfrwt beam="2">  1       -2 0.22036847E-02 0.46635597E+03</pdfrwt>
<totfact> 0.92255452E+02</totfact>
</mgrwt>
</event>
<event>
 4    1  0.5847263E-005  0.8357655E+03  0.7818608E-02  0.9509644E-01
         -2   -1    0    0    0  501 -0.00000000000E+00  0.00000000000E+00  0.45606299399E+03  0.45606299400E+03  0.25500000000E-02 0. -1.
          2   -1    0    0  501    0  0.00000000000E+00 -0.00000000000E+00 -0.38289888680E+03  0.38289888681E+03  0.25500000000E-02 0.  1.
    5000001    1    1    2    0    0  0.35765269498E+02  0.35414619623E+03 -0.69002574778E+02  0.41027312626E+03  0.19200000000E+03 0.  0.
   -5000001    1    1    2    0    0 -0.35765269498E+02 -0.35414619623E+03  0.14216668197E+03  0.42868875454E+03  0.19200000000E+03 0.  0.
<mgrwt>
<rscale>  0 0.83576555E+03</rscale>
<asrwt>0</asrwt>
<pdfrwt beam="1">  1        2 0.54699841E-01 0.83576555E+03</pdfrwt>
<pdfrwt beam="2">  1       -2 0.65151857E-01 0.83576555E+03</pdfrwt>
<totfact> 0.19850453E+02</totfact>
</mgrwt>
</event>
<event>
 4    1  0.5847263E-005  0.7107866E+03  0.7818608E-02  0.9698961E-01
         -2   -1    0    0    0  501 -0.00000000000E+00  0.00000000000E+00  0.99367154384E+02  0.99367154417E+02  0.25500000000E-02 0. -1.
          2   -1    0    0  501    0  0.00000000000E+00 -0.00000000000E+00 -0.12710880963E+04  0.12710880963E+04  0.25500000000E-02 0.  1.
    5000001    1    1    2    0    0 -0.23426751020E+03  0.15419349117E+03 -0.38564130636E+03  0.51404291282E+03  0.19200000000E+03 0.  0.
   -5000001    1    1    2    0    0  0.23426751020E+03 -0.15419349117E+03 -0.78607963552E+03  0.85641233786E+03  0.19200000000E+03 0.  0.
<mgrwt>
<rscale>  0 0.71078663E+03</rscale>
<asrwt>0</asrwt>
<pdfrwt beam="1">  1        2 0.18158400E+00 0.71078663E+03</pdfrwt>
<pdfrwt beam="2">  1       -2 0.14195309E-01 0.71078663E+03</pdfrwt>
<totfact> 0.75466346E+02</totfact>
</mgrwt>
</event>
<event>
 4    1  0.5847263E-005  0.5993082E+03  0.7818608E-02  0.9906842E-01
          2   -1    0    0  501    0  0.00000000000E+00  0.00000000000E+00  0.16582177996E+04  0.16582177996E+04  0.25500000000E-02 0.  1.
         -2   -1    0    0    0  501 -0.00000000000E+00 -0.00000000000E+00 -0.54150056829E+02  0.54150056889E+02  0.25500000000E-02 0. -1.
    5000001    1    1    2    0    0 -0.17366191362E+03  0.15013756609E+03  0.75881116240E+03  0.81569487505E+03  0.19200000000E+03 0.  0.
   -5000001    1    1    2    0    0  0.17366191362E+03 -0.15013756609E+03  0.84525658036E+03  0.89667298143E+03  0.19200000000E+03 0.  0.
<mgrwt>
<rscale>  0 0.59930823E+03</rscale>
<asrwt>0</asrwt>
<pdfrwt beam="1">  1        2 0.23688818E+00 0.59930823E+03</pdfrwt>
<pdfrwt beam="2">  1       -2 0.77357250E-02 0.59930823E+03</pdfrwt>
<totfact> 0.12751732E+03</totfact>
</mgrwt>
</event>
<event>
 4    1  0.5847263E-005  0.5171152E+03  0.7818608E-02  0.1009406E+00
         -2   -1    0    0    0  501 -0.00000000000E+00  0.00000000000E+00  0.60363932649E+02  0.60363932703E+02  0.25500000000E-02 0. -1.
          2   -1    0    0  501    0  0.00000000000E+00 -0.00000000000E+00 -0.11074831204E+04  0.11074831204E+04  0.25500000000E-02 0.  1.
    5000001    1    1    2    0    0  0.12094576198E+03 -0.12393425020E+03 -0.52509265185E+03  0.58529810246E+03  0.19200000000E+03 0.  0.
   -5000001    1    1    2    0    0 -0.12094576198E+03  0.12393425020E+03 -0.52202653589E+03  0.58254895064E+03  0.19200000000E+03 0.  0.
<mgrwt>
<rscale>  0 0.51711522E+03</rscale>
<asrwt>0</asrwt>
<pdfrwt beam="1">  1        2 0.15821186E+00 0.51711522E+03</pdfrwt>
<pdfrwt beam="2">  1       -2 0.86234196E-02 0.51711522E+03</pdfrwt>
<totfact> 0.21197854E+03</totfact>
</mgrwt>
</event>
<event>
 4    1  0.5847263E-005  0.6302697E+03  0.7818608E-02  0.9844523E-01
         -2   -1    0    0    0  501 -0.00000000000E+00  0.00000000000E+00  0.54626559187E+02  0.54626559246E+02  0.25500000000E-02 0. -1.
          2   -1    0    0  501    0  0.00000000000E+00 -0.00000000000E+00 -0.18179797067E+04  0.18179797067E+04  0.25500000000E-02 0.  1.
    5000001    1    1    2    0    0  0.19213749244E+03  0.11907193176E+02 -0.13550773545E+04  0.13820843802E+04  0.19200000000E+03 0.  0.
   -5000001    1    1    2    0    0 -0.19213749244E+03 -0.11907193176E+02 -0.40827579296E+03  0.49052188572E+03  0.19200000000E+03 0.  0.
<mgrwt>
<rscale>  0 0.63026971E+03</rscale>
<asrwt>0</asrwt>
<pdfrwt beam="1">  1        2 0.25971135E+00 0.63026971E+03</pdfrwt>
<pdfrwt beam="2">  1       -2 0.78037953E-02 0.63026971E+03</pdfrwt>
<totfact> 0.10418085E+03</totfact>
</mgrwt>
</event>
<event>
 4    1  0.5847263E-005  0.7403534E+03  0.7818608E-02  0.9650607E-01
         -2   -1    0    0    0  501 -0.00000000000E+00  0.00000000000E+00  0.80186804197E+03  0.80186804197E+03  0.25500000000E-02 0. -1.
          2   -1    0    0  501    0  0.00000000000E+00 -0.00000000000E+00 -0.17088945918E+03  0.17088945920E+03  0.25500000000E-02 0.  1.
    5000001    1    1    2    0    0 -0.20146692643E+03  0.16127821866E+03  0.55621536031E+03  0.64252557405E+03  0.19200000000E+03 0.  0.
   -5000001    1    1    2    0    0  0.20146692643E+03 -0.16127821866E+03  0.74763222477E+02  0.33023192713E+03  0.19200000000E+03 0.  0.
<mgrwt>
<rscale>  0 0.74035342E+03</rscale>
<asrwt>0</asrwt>
<pdfrwt beam="1">  1        2 0.24412780E-01 0.74035342E+03</pdfrwt>
<pdfrwt beam="2">  1       -2 0.11455258E+00 0.74035342E+03</pdfrwt>
<totfact> 0.13534952E+02</totfact>
</mgrwt>
</event>
<event>
 4    1  0.5847263E-005  0.4898025E+03  0.7818608E-02  0.1016475E+00
         -2   -1    0    0    0  501 -0.00000000000E+00  0.00000000000E+00  0.22979827002E+03  0.22979827004E+03  0.25500000000E-02 0. -1.
          2   -1    0    0  501    0  0.00000000000E+00 -0.00000000000E+00 -0.26099682528E+03  0.26099682529E+03  0.25500000000E-02 0.  1.
    5000001    1    1    2    0    0  0.12210560535E+03 -0.39729468030E+02 -0.97154694615E+02  0.25058181134E+03  0.19200000000E+03 0.  0.
   -5000001    1    1    2    0    0 -0.12210560535E+03  0.39729468030E+02  0.65956139360E+02  0.24021328399E+03  0.19200000000E+03 0.  0.
<mgrwt>
<rscale>  0 0.48980249E+03</rscale>
<asrwt>0</asrwt>
<pdfrwt beam="1">  1        2 0.37285261E-01 0.48980249E+03</pdfrwt>
<pdfrwt beam="2">  1       -2 0.32828324E-01 0.48980249E+03</pdfrwt>
<totfact> 0.12044880E+03</totfact>
</mgrwt>
</event>
<event>
 4    1  0.5847263E-005  0.8236376E+03  0.7818608E-02  0.9526419E-01
          2   -1    0    0  501    0  0.00000000000E+00  0.00000000000E+00  0.46311096634E+03  0.46311096635E+03  0.25500000000E-02 0.  1.
         -2   -1    0    0    0  501 -0.00000000000E+00 -0.00000000000E+00 -0.36620751792E+03  0.36620751793E+03  0.25500000000E-02 0. -1.
    5000001    1    1    2    0    0 -0.24251786318E+03  0.24056200718E+03 -0.79093690848E+02  0.39975593203E+03  0.19200000000E+03 0.  0.
   -5000001    1    1    2    0    0  0.24251786318E+03 -0.24056200718E+03  0.17599713927E+03  0.42956255225E+03  0.19200000000E+03 0.  0.
<mgrwt>
<rscale>  0 0.82363758E+03</rscale>
<asrwt>0</asrwt>
<pdfrwt beam="1">  1        2 0.66158709E-01 0.82363758E+03</pdfrwt>
<pdfrwt beam="2">  1       -2 0.52315360E-01 0.82363758E+03</pdfrwt>
<totfact> 0.25422177E+02</totfact>
</mgrwt>
</event>
<event>
 4    1  0.5847263E-005  0.4690145E+03  0.7818608E-02  0.1022199E+00
         -2   -1    0    0    0  501 -0.00000000000E+00  0.00000000000E+00  0.35067553811E+02  0.35067553904E+02  0.25500000000E-02 0. -1.
          2   -1    0    0  501    0  0.00000000000E+00 -0.00000000000E+00 -0.15682202158E+04  0.15682202158E+04  0.25500000000E-02 0.  1.
    5000001    1    1    2    0    0  0.55251780304E+02 -0.12028460249E+03 -0.85090131150E+03  0.88228010673E+03  0.19200000000E+03 0.  0.
   -5000001    1    1    2    0    0 -0.55251780304E+02  0.12028460249E+03 -0.68225135047E+03  0.72100766296E+03  0.19200000000E+03 0.  0.
<mgrwt>
<rscale>  0 0.46901449E+03</rscale>
<asrwt>0</asrwt>
<pdfrwt beam="1">  1        2 0.22403142E+00 0.46901449E+03</pdfrwt>
<pdfrwt beam="2">  1       -2 0.50096515E-02 0.46901449E+03</pdfrwt>
<totfact> 0.28095513E+03</totfact>
</mgrwt>
</event>
<event>
 4    1  0.5847263E-005  0.9172996E+03  0.7818608E-02  0.9404211E-01
         -2   -1    0    0    0  501 -0.00000000000E+00  0.00000000000E+00  0.19371024650E+03  0.19371024651E+03  0.25500000000E-02 0. -1.
          2   -1    0    0  501    0  0.00000000000E+00 -0.00000000000E+00 -0.10859498705E+04  0.10859498705E+04  0.25500000000E-02 0.  1.
    5000001    1    1    2    0    0 -0.40903483590E+03  0.75799264803E+02 -0.41683775686E+03  0.61941322319E+03  0.19200000000E+03 0.  0.
   -5000001    1    1    2    0    0  0.40903483590E+03 -0.75799264803E+02 -0.47540186715E+03  0.66024689383E+03  0.19200000000E+03 0.  0.
<mgrwt>
<rscale>  0 0.91729955E+03</rscale>
<asrwt>0</asrwt>
<pdfrwt beam="1">  1        2 0.15513569E+00 0.91729955E+03</pdfrwt>
<pdfrwt beam="2">  1       -2 0.27672893E-01 0.91729955E+03</pdfrwt>
<totfact> 0.29628271E+02</totfact>
</mgrwt>
</event>
<event>
 4    1  0.5847263E-005  0.5143834E+03  0.7818608E-02  0.1010091E+00
          2   -1    0    0  501    0  0.00000000000E+00  0.00000000000E+00  0.11066349097E+04  0.11066349098E+04  0.25500000000E-02 0.  1.
         -2   -1    0    0    0  501 -0.00000000000E+00 -0.00000000000E+00 -0.59773618125E+02  0.59773618179E+02  0.25500000000E-02 0. -1.
    5000001    1    1    2    0    0 -0.67497433459E+02  0.10939469242E+03  0.77958224710E+03  0.81310244265E+03  0.19200000000E+03 0.  0.
   -5000001    1    1    2    0    0  0.67497433459E+02 -0.10939469242E+03  0.26727904453E+03  0.35330608528E+03  0.19200000000E+03 0.  0.
<mgrwt>
<rscale>  0 0.51438341E+03</rscale>
<asrwt>0</asrwt>
<pdfrwt beam="1">  1        2 0.15809071E+00 0.51438341E+03</pdfrwt>
<pdfrwt beam="2">  1       -2 0.85390879E-02 0.51438341E+03</pdfrwt>
<totfact> 0.21557813E+03</totfact>
</mgrwt>
</event>
<event>
 4    1  0.5847263E-005  0.5485137E+03  0.7818608E-02  0.1001839E+00
          2   -1    0    0  501    0  0.00000000000E+00  0.00000000000E+00  0.67048710344E+03  0.67048710345E+03  0.25500000000E-02 0.  1.
         -2   -1    0    0    0  501 -0.00000000000E+00 -0.00000000000E+00 -0.11218234163E+03  0.11218234166E+03  0.25500000000E-02 0. -1.
    5000001    1    1    2    0    0  0.73429989992E+00  0.18472301161E+03  0.37195170946E+03  0.45753164304E+03  0.19200000000E+03 0.  0.
   -5000001    1    1    2    0    0 -0.73429989992E+00 -0.18472301161E+03  0.18635305235E+03  0.32513780207E+03  0.19200000000E+03 0.  0.
<mgrwt>
<rscale>  0 0.54851368E+03</rscale>
<asrwt>0</asrwt>
<pdfrwt beam="1">  1        2 0.95783874E-01 0.54851368E+03</pdfrwt>
<pdfrwt beam="2">  1       -2 0.16026048E-01 0.54851368E+03</pdfrwt>
<totfact> 0.14854745E+03</totfact>
</mgrwt>
</event>
<event>
 4    1  0.5847263E-005  0.4456711E+03  0.7818608E-02  0.1029021E+00
         -2   -1    0    0    0  501 -0.00000000000E+00  0.00000000000E+00  0.43832681645E+02  0.43832681720E+02  0.25500000000E-02 0. -1.
          2   -1    0    0  501    0  0.00000000000E+00 -0.00000000000E+00 -0.11328461761E+04  0.11328461761E+04  0.25500000000E-02 0.  1.
    5000001    1    1    2    0    0  0.39933226501E+02  0.73144252160E+02 -0.34261998571E+03  0.40149370955E+03  0.19200000000E+03 0.  0.
   -5000001    1    1    2    0    0 -0.39933226501E+02 -0.73144252160E+02 -0.74639350878E+03  0.77518514831E+03  0.19200000000E+03 0.  0.
<mgrwt>
<rscale>  0 0.44567112E+03</rscale>
<asrwt>0</asrwt>
<pdfrwt beam="1">  1        2 0.16183515E+00 0.44567112E+03</pdfrwt>
<pdfrwt beam="2">  1       -2 0.62618124E-02 0.44567112E+03</pdfrwt>
<totfact> 0.33961964E+03</totfact>
</mgrwt>
</event>
<event>
 4    1  0.5847263E-005  0.5801475E+03  0.7818608E-02  0.9947472E-01
         -2   -1    0    0    0  501 -0.00000000000E+00  0.00000000000E+00  0.16643364158E+03  0.16643364160E+03  0.25500000000E-02 0.  1.
          2   -1    0    0  501    0  0.00000000000E+00 -0.00000000000E+00 -0.50556359427E+03  0.50556359428E+03  0.25500000000E-02 0. -1.
    5000001    1    1    2    0    0  0.11592132970E+02 -0.19458387470E+03 -0.57971506576E+02  0.27968188610E+03  0.19200000000E+03 0.  0.
   -5000001    1    1    2    0    0 -0.11592132970E+02  0.19458387470E+03 -0.28115844612E+03  0.39231534977E+03  0.19200000000E+03 0.  0.
<mgrwt>
<rscale>  0 0.58014753E+03</rscale>
<asrwt>0</asrwt>
<pdfrwt beam="1">  1        2 0.72223370E-01 0.58014753E+03</pdfrwt>
<pdfrwt beam="2">  1       -2 0.23776235E-01 0.58014753E+03</pdfrwt>
<totfact> 0.10419630E+03</totfact>
</mgrwt>
</event>
<event>
 4    1  0.5847263E-005  0.4542660E+03  0.7818608E-02  0.1026457E+00
         -2   -1    0    0    0  501 -0.00000000000E+00  0.00000000000E+00  0.83852406333E+02  0.83852406372E+02  0.25500000000E-02 0. -1.
          2   -1    0    0  501    0  0.00000000000E+00 -0.00000000000E+00 -0.61524046699E+03  0.61524046700E+03  0.25500000000E-02 0.  1.
    5000001    1    1    2    0    0  0.46947542626E+02  0.10403631794E+03 -0.32910488975E+03  0.39774571735E+03  0.19200000000E+03 0.  0.
   -5000001    1    1    2    0    0 -0.46947542626E+02 -0.10403631794E+03 -0.20228317091E+03  0.30134715602E+03  0.19200000000E+03 0.  0.
<mgrwt>
<rscale>  0 0.45426597E+03</rscale>
<asrwt>0</asrwt>
<pdfrwt beam="1">  1        2 0.87891493E-01 0.45426597E+03</pdfrwt>
<pdfrwt beam="2">  1       -2 0.11978916E-01 0.45426597E+03</pdfrwt>
<totfact> 0.26680040E+03</totfact>
</mgrwt>
</event>
<event>
 4    1  0.5847263E-005  0.5499462E+03  0.7818608E-02  0.1001506E+00
         -2   -1    0    0    0  501 -0.00000000000E+00  0.00000000000E+00  0.13111907231E+03  0.13111907234E+03  0.25500000000E-02 0. -1.
          2   -1    0    0  501    0  0.00000000000E+00 -0.00000000000E+00 -0.57665300569E+03  0.57665300569E+03  0.25500000000E-02 0.  1.
    5000001    1    1    2    0    0  0.72496986825E+02  0.83372170066E+02 -0.43242880155E+03  0.48586561954E+03  0.19200000000E+03 0.  0.
   -5000001    1    1    2    0    0 -0.72496986825E+02 -0.83372170066E+02 -0.13105131828E+02  0.22190645849E+03  0.19200000000E+03 0.  0.
<mgrwt>
<rscale>  0 0.54994621E+03</rscale>
<asrwt>0</asrwt>
<pdfrwt beam="1">  1        2 0.82378999E-01 0.54994621E+03</pdfrwt>
<pdfrwt beam="2">  1       -2 0.18731296E-01 0.54994621E+03</pdfrwt>
<totfact> 0.13603985E+03</totfact>
</mgrwt>
</event>
<event>
 4    1  0.5847263E-005  0.4377394E+03  0.7818608E-02  0.1031443E+00
         -2   -1    0    0    0  501 -0.00000000000E+00  0.00000000000E+00  0.28589306284E+03  0.28589306285E+03  0.25500000000E-02 0. -1.
          2   -1    0    0  501    0  0.00000000000E+00 -0.00000000000E+00 -0.16755895486E+03  0.16755895488E+03  0.25500000000E-02 0.  1.
    5000001    1    1    2    0    0  0.86093391315E+02  0.48284874771E+02  0.96465625711E+02  0.23645954856E+03  0.19200000000E+03 0.  0.
   -5000001    1    1    2    0    0 -0.86093391315E+02 -0.48284874771E+02  0.21868482271E+02  0.21699246917E+03  0.19200000000E+03 0.  0.
<mgrwt>
<rscale>  0 0.43773939E+03</rscale>
<asrwt>0</asrwt>
<pdfrwt beam="1">  1        2 0.23936994E-01 0.43773939E+03</pdfrwt>
<pdfrwt beam="2">  1       -2 0.40841866E-01 0.43773939E+03</pdfrwt>
<totfact> 0.13042696E+03</totfact>
</mgrwt>
</event>
<event>
 4    1  0.5847263E-005  0.5011000E+03  0.7818608E-02  0.1013492E+00
         -2   -1    0    0    0  501 -0.00000000000E+00  0.00000000000E+00  0.16876976767E+03  0.16876976769E+03  0.25500000000E-02 0. -1.
          2   -1    0    0  501    0  0.00000000000E+00 -0.00000000000E+00 -0.37195821600E+03  0.37195821601E+03  0.25500000000E-02 0.  1.
    5000001    1    1    2    0    0 -0.19856849518E+02  0.15912832404E+03 -0.86518567409E+02  0.26469903757E+03  0.19200000000E+03 0.  0.
   -5000001    1    1    2    0    0  0.19856849518E+02 -0.15912832404E+03 -0.11666988093E+03  0.27602894613E+03  0.19200000000E+03 0.  0.
<mgrwt>
<rscale>  0 0.50110000E+03</rscale>
<asrwt>0</asrwt>
<pdfrwt beam="1">  1        2 0.53136888E-01 0.50110000E+03</pdfrwt>
<pdfrwt beam="2">  1       -2 0.24109967E-01 0.50110000E+03</pdfrwt>
<totfact> 0.14320964E+03</totfact>
</mgrwt>
</event>
<event>
 4    1  0.5847263E-005  0.4028451E+03  0.7818608E-02  0.1042799E+00
          2   -1    0    0  501    0  0.00000000000E+00  0.00000000000E+00  0.71429693071E+03  0.71429693072E+03  0.25500000000E-02 0.  1.
         -2   -1    0    0    0  501 -0.00000000000E+00 -0.00000000000E+00 -0.56798560498E+02  0.56798560555E+02  0.25500000000E-02 0. -1.
    5000001    1    1    2    0    0  0.20583227095E+02  0.57110593030E+02  0.31982263616E+03  0.37793624816E+03  0.19200000000E+03 0.  0.
   -5000001    1    1    2    0    0 -0.20583227095E+02 -0.57110593030E+02  0.33767573406E+03  0.39315924311E+03  0.19200000000E+03 0.  0.
<mgrwt>
<rscale>  0 0.40284507E+03</rscale>
<asrwt>0</asrwt>
<pdfrwt beam="1">  1        2 0.10204242E+00 0.40284507E+03</pdfrwt>
<pdfrwt beam="2">  1       -2 0.81140796E-02 0.40284507E+03</pdfrwt>
<totfact> 0.41696401E+03</totfact>
</mgrwt>
</event>
<event>
 4    1  0.5847263E-005  0.6565416E+03  0.7818608E-02  0.9794581E-01
         -2   -1    0    0    0  501 -0.00000000000E+00  0.00000000000E+00  0.41628206548E+02  0.41628206626E+02  0.25500000000E-02 0. -1.
          2   -1    0    0  501    0  0.00000000000E+00 -0.00000000000E+00 -0.25886703288E+04  0.25886703288E+04  0.25500000000E-02 0.  1.
    5000001    1    1    2    0    0  0.53697340189E+02  0.25963614251E+03 -0.13719302252E+04  0.14104435025E+04  0.19200000000E+03 0.  0.
   -5000001    1    1    2    0    0 -0.53697340189E+02 -0.25963614251E+03 -0.11751118970E+04  0.12198550329E+04  0.19200000000E+03 0.  0.
<mgrwt>
<rscale>  0 0.65654155E+03</rscale>
<asrwt>0</asrwt>
<pdfrwt beam="1">  1        2 0.36980994E+00 0.65654155E+03</pdfrwt>
<pdfrwt beam="2">  1       -2 0.59468883E-02 0.65654155E+03</pdfrwt>
<totfact> 0.64940624E+02</totfact>
</mgrwt>
</event>
<event>
 4    1  0.5847263E-005  0.6575487E+03  0.7818608E-02  0.9792717E-01
          2   -1    0    0  501    0  0.00000000000E+00  0.00000000000E+00  0.57331163145E+03  0.57331163145E+03  0.25500000000E-02 0.  1.
         -2   -1    0    0    0  501 -0.00000000000E+00 -0.00000000000E+00 -0.18854070804E+03  0.18854070806E+03  0.25500000000E-02 0. -1.
    5000001    1    1    2    0    0  0.77436672893E+01  0.24596121478E+03  0.72694979402E+02  0.32047690025E+03  0.19200000000E+03 0.  0.
   -5000001    1    1    2    0    0 -0.77436672893E+01 -0.24596121478E+03  0.31207594400E+03  0.44137543926E+03  0.19200000000E+03 0.  0.
<mgrwt>
<rscale>  0 0.65754872E+03</rscale>
<asrwt>0</asrwt>
<pdfrwt beam="1">  1        2 0.81901660E-01 0.65754872E+03</pdfrwt>
<pdfrwt beam="2">  1       -2 0.26934387E-01 0.65754872E+03</pdfrwt>
<totfact> 0.71922369E+02</totfact>
</mgrwt>
</event>
<event>
 4    1  0.5847263E-005  0.4901209E+03  0.7818608E-02  0.1016390E+00
         -2   -1    0    0    0  501 -0.00000000000E+00  0.00000000000E+00  0.72661796188E+02  0.72661796232E+02  0.25500000000E-02 0. -1.
          2   -1    0    0  501    0  0.00000000000E+00 -0.00000000000E+00 -0.82649529707E+03  0.82649529708E+03  0.25500000000E-02 0.  1.
    5000001    1    1    2    0    0 -0.14856611556E+03  0.14594870043E+02 -0.43212858253E+03  0.49586693050E+03  0.19200000000E+03 0.  0.
   -5000001    1    1    2    0    0  0.14856611556E+03 -0.14594870043E+02 -0.32170491835E+03  0.40329016281E+03  0.19200000000E+03 0.  0.
<mgrwt>
<rscale>  0 0.49012094E+03</rscale>
<asrwt>0</asrwt>
<pdfrwt beam="1">  1        2 0.11807075E+00 0.49012094E+03</pdfrwt>
<pdfrwt beam="2">  1       -2 0.10380257E-01 0.49012094E+03</pdfrwt>
<totfact> 0.23490957E+03</totfact>
</mgrwt>
</event>
<event>
 4    1  0.5847263E-005  0.6748654E+03  0.7818608E-02  0.9761208E-01
         -2   -1    0    0    0  501 -0.00000000000E+00  0.00000000000E+00  0.60573982760E+02  0.60573982814E+02  0.25500000000E-02 0. -1.
          2   -1    0    0  501    0  0.00000000000E+00 -0.00000000000E+00 -0.18796984460E+04  0.18796984460E+04  0.25500000000E-02 0.  1.
    5000001    1    1    2    0    0 -0.21348931600E+03 -0.42582036596E+02 -0.41487042231E+03  0.50633228733E+03  0.19200000000E+03 0.  0.
   -5000001    1    1    2    0    0  0.21348931600E+03  0.42582036596E+02 -0.14042540409E+04  0.14339401415E+04  0.19200000000E+03 0.  0.
<mgrwt>
<rscale>  0 0.67486538E+03</rscale>
<asrwt>0</asrwt>
<pdfrwt beam="1">  1        2 0.26852831E+00 0.67486538E+03</pdfrwt>
<pdfrwt beam="2">  1       -2 0.86534273E-02 0.67486538E+03</pdfrwt>
<totfact> 0.81993492E+02</totfact>
</mgrwt>
</event>
<event>
 4    1  0.5847263E-005  0.8794097E+03  0.7818608E-02  0.9451693E-01
          2   -1    0    0  501    0  0.00000000000E+00  0.00000000000E+00  0.15250393762E+03  0.15250393764E+03  0.25500000000E-02 0.  1.
         -2   -1    0    0    0  501 -0.00000000000E+00 -0.00000000000E+00 -0.12677729491E+04  0.12677729491E+04  0.25500000000E-02 0. -1.
    5000001    1    1    2    0    0  0.11819750377E+03 -0.27874514331E+03 -0.96877689100E+03  0.10329870132E+04  0.19200000000E+03 0.  0.
   -5000001    1    1    2    0    0 -0.11819750377E+03  0.27874514331E+03 -0.14649212048E+03  0.38728987358E+03  0.19200000000E+03 0.  0.
<mgrwt>
<rscale>  0 0.87940973E+03</rscale>
<asrwt>0</asrwt>
<pdfrwt beam="1">  1        2 0.21786277E-01 0.87940973E+03</pdfrwt>
<pdfrwt beam="2">  1       -2 0.18111042E+00 0.87940973E+03</pdfrwt>
<totfact> 0.46117449E+01</totfact>
</mgrwt>
</event>
<event>
 4    1  0.5847263E-005  0.5033382E+03  0.7818608E-02  0.1012911E+00
         -2   -1    0    0    0  501 -0.00000000000E+00  0.00000000000E+00  0.26592588147E+03  0.26592588148E+03  0.25500000000E-02 0. -1.
          2   -1    0    0  501    0  0.00000000000E+00 -0.00000000000E+00 -0.23817667172E+03  0.23817667174E+03  0.25500000000E-02 0.  1.
    5000001    1    1    2    0    0  0.14491832346E+03 -0.31485082904E+02  0.80914361206E+02  0.25574159765E+03  0.19200000000E+03 0.  0.
   -5000001    1    1    2    0    0 -0.14491832346E+03  0.31485082904E+02 -0.53165151457E+02  0.24836095557E+03  0.19200000000E+03 0.  0.
<mgrwt>
<rscale>  0 0.50333822E+03</rscale>
<asrwt>0</asrwt>
<pdfrwt beam="1">  1        2 0.34025239E-01 0.50333822E+03</pdfrwt>
<pdfrwt beam="2">  1       -2 0.37989412E-01 0.50333822E+03</pdfrwt>
<totfact> 0.10111768E+03</totfact>
</mgrwt>
</event>
<event>
 4    1  0.5847263E-005  0.6305657E+03  0.7818608E-02  0.9843946E-01
         -2   -1    0    0    0  501 -0.00000000000E+00  0.00000000000E+00  0.21620870123E+02  0.21620870274E+02  0.25500000000E-02 0. -1.
          2   -1    0    0  501    0  0.00000000000E+00 -0.00000000000E+00 -0.45975606344E+04  0.45975606344E+04  0.25500000000E-02 0.  1.
    5000001    1    1    2    0    0  0.44960673958E+02  0.19526262896E+03 -0.11918331751E+04  0.12237153565E+04  0.19200000000E+03 0.  0.
   -5000001    1    1    2    0    0 -0.44960673958E+02 -0.19526262896E+03 -0.33841065892E+04  0.33954661482E+04  0.19200000000E+03 0.  0.
<mgrwt>
<rscale>  0 0.63056566E+03</rscale>
<asrwt>0</asrwt>
<pdfrwt beam="1">  1        2 0.65679375E+00 0.63056566E+03</pdfrwt>
<pdfrwt beam="2">  1       -2 0.30886987E-02 0.63056566E+03</pdfrwt>
<totfact> 0.99961933E+01</totfact>
</mgrwt>
</event>
<event>
 4    1  0.5847263E-005  0.6953753E+03  0.7818608E-02  0.9725174E-01
          2   -1    0    0  501    0  0.00000000000E+00  0.00000000000E+00  0.58704495103E+03  0.58704495104E+03  0.25500000000E-02 0.  1.
         -2   -1    0    0    0  501 -0.00000000000E+00 -0.00000000000E+00 -0.20592410768E+03  0.20592410769E+03  0.25500000000E-02 0. -1.
    5000001    1    1    2    0    0 -0.23775571751E+03 -0.69884888414E+02  0.19086873944E+02  0.31407003613E+03  0.19200000000E+03 0.  0.
   -5000001    1    1    2    0    0  0.23775571751E+03  0.69884888414E+02  0.36203396941E+03  0.47889902260E+03  0.19200000000E+03 0.  0.
<mgrwt>
<rscale>  0 0.69537532E+03</rscale>
<asrwt>0</asrwt>
<pdfrwt beam="1">  1        2 0.83863566E-01 0.69537532E+03</pdfrwt>
<pdfrwt beam="2">  1       -2 0.29417729E-01 0.69537532E+03</pdfrwt>
<totfact> 0.59461750E+02</totfact>
</mgrwt>
</event>
<event>
 4    1  0.5847263E-005  0.4539935E+03  0.7818608E-02  0.1026538E+00
         -2   -1    0    0    0  501 -0.00000000000E+00  0.00000000000E+00  0.87244864072E+03  0.87244864072E+03  0.25500000000E-02 0. -1.
          2   -1    0    0  501    0  0.00000000000E+00 -0.00000000000E+00 -0.59060808753E+02  0.59060808808E+02  0.25500000000E-02 0.  1.
    5000001    1    1    2    0    0 -0.63584152992E+02 -0.10160772997E+03  0.44202127735E+03  0.49660234084E+03  0.19200000000E+03 0.  0.
   -5000001    1    1    2    0    0  0.63584152992E+02  0.10160772997E+03  0.37136655461E+03  0.43490710869E+03  0.19200000000E+03 0.  0.
<mgrwt>
<rscale>  0 0.45399349E+03</rscale>
<asrwt>0</asrwt>
<pdfrwt beam="1">  1        2 0.84372591E-02 0.45399349E+03</pdfrwt>
<pdfrwt beam="2">  1       -2 0.12463551E+00 0.45399349E+03</pdfrwt>
<totfact> 0.40395432E+02</totfact>
</mgrwt>
</event>
<event>
 4    1  0.5847263E-005  0.7863190E+03  0.7818608E-02  0.9580034E-01
          2   -1    0    0  501    0  0.00000000000E+00  0.00000000000E+00  0.83190594404E+03  0.83190594404E+03  0.25500000000E-02 0.  1.
         -2   -1    0    0    0  501 -0.00000000000E+00 -0.00000000000E+00 -0.18580751954E+03  0.18580751956E+03  0.25500000000E-02 0. -1.
    5000001    1    1    2    0    0 -0.80694347768E+02  0.31731731296E+03  0.45572682559E+03  0.59308750992E+03  0.19200000000E+03 0.  0.
   -5000001    1    1    2    0    0  0.80694347768E+02 -0.31731731296E+03  0.19037159891E+03  0.42462595368E+03  0.19200000000E+03 0.  0.
<mgrwt>
<rscale>  0 0.78631897E+03</rscale>
<asrwt>0</asrwt>
<pdfrwt beam="1">  1        2 0.11884371E+00 0.78631897E+03</pdfrwt>
<pdfrwt beam="2">  1       -2 0.26543931E-01 0.78631897E+03</pdfrwt>
<totfact> 0.46549238E+02</totfact>
</mgrwt>
</event>
<event>
 4    1  0.5847263E-005  0.8824802E+03  0.7818608E-02  0.9447751E-01
          2   -1    0    0  501    0  0.00000000000E+00  0.00000000000E+00  0.95925342846E+03  0.95925342846E+03  0.25500000000E-02 0.  1.
         -2   -1    0    0    0  501 -0.00000000000E+00 -0.00000000000E+00 -0.20296288543E+03  0.20296288544E+03  0.25500000000E-02 0. -1.
    5000001    1    1    2    0    0  0.63431271761E+02 -0.20328431121E+03 -0.63548411123E+02  0.29368424877E+03  0.19200000000E+03 0.  0.
   -5000001    1    1    2    0    0 -0.63431271761E+02  0.20328431121E+03  0.81983895416E+03  0.86853206514E+03  0.19200000000E+03 0.  0.
<mgrwt>
<rscale>  0 0.88248024E+03</rscale>
<asrwt>0</asrwt>
<pdfrwt beam="1">  1        2 0.13703621E+00 0.88248024E+03</pdfrwt>
<pdfrwt beam="2">  1       -2 0.28994697E-01 0.88248024E+03</pdfrwt>
<totfact> 0.32543170E+02</totfact>
</mgrwt>
</event>
<event>
 4    1  0.5847263E-005  0.7971696E+03  0.7818608E-02  0.9564123E-01
         -2   -1    0    0    0  501 -0.00000000000E+00  0.00000000000E+00  0.14554630128E+03  0.14554630130E+03  0.25500000000E-02 0. -1.
          2   -1    0    0  501    0  0.00000000000E+00 -0.00000000000E+00 -0.10915417335E+04  0.10915417335E+04  0.25500000000E-02 0.  1.
    5000001    1    1    2    0    0 -0.18363871849E+03  0.21270350299E+03 -0.79494553934E+03  0.86473601152E+03  0.19200000000E+03 0.  0.
   -5000001    1    1    2    0    0  0.18363871849E+03 -0.21270350299E+03 -0.15104989291E+03  0.37235202331E+03  0.19200000000E+03 0.  0.
<mgrwt>
<rscale>  0 0.79716965E+03</rscale>
<asrwt>0</asrwt>
<pdfrwt beam="1">  1        2 0.15593453E+00 0.79716965E+03</pdfrwt>
<pdfrwt beam="2">  1       -2 0.20792329E-01 0.79716965E+03</pdfrwt>
<totfact> 0.49401762E+02</totfact>
</mgrwt>
</event>
<event>
 4    1  0.5847263E-005  0.8539407E+03  0.7818608E-02  0.9485063E-01
          2   -1    0    0  501    0  0.00000000000E+00  0.00000000000E+00  0.35626988001E+04  0.35626988001E+04  0.25500000000E-02 0.  1.
         -2   -1    0    0    0  501 -0.00000000000E+00 -0.00000000000E+00 -0.51170103186E+02  0.51170103249E+02  0.25500000000E-02 0. -1.
    5000001    1    1    2    0    0  0.16479547072E+03 -0.33983582583E+03  0.15320793357E+04  0.15895839162E+04  0.19200000000E+03 0.  0.
   -5000001    1    1    2    0    0 -0.16479547072E+03  0.33983582583E+03  0.19794493612E+04  0.20242849872E+04  0.19200000000E+03 0.  0.
<mgrwt>
<rscale>  0 0.85394067E+03</rscale>
<asrwt>0</asrwt>
<pdfrwt beam="1">  1        2 0.50895711E+00 0.85394067E+03</pdfrwt>
<pdfrwt beam="2">  1       -2 0.73100128E-02 0.85394067E+03</pdfrwt>
<totfact> 0.13177696E+02</totfact>
</mgrwt>
</event>
<event>
 4    1  0.5847263E-005  0.4322690E+03  0.7818608E-02  0.1033146E+00
         -2   -1    0    0    0  501 -0.00000000000E+00  0.00000000000E+00  0.13536692631E+04  0.13536692631E+04  0.25500000000E-02 0. -1.
          2   -1    0    0  501    0  0.00000000000E+00 -0.00000000000E+00 -0.34509260391E+02  0.34509260485E+02  0.25500000000E-02 0.  1.
    5000001    1    1    2    0    0 -0.10250283173E+02 -0.52594699272E+02  0.92785690556E+03  0.94902776982E+03  0.19200000000E+03 0.  0.
   -5000001    1    1    2    0    0  0.10250283173E+02  0.52594699272E+02  0.39130309716E+03  0.43915075378E+03  0.19200000000E+03 0.  0.
<mgrwt>
<rscale>  0 0.43226901E+03</rscale>
<asrwt>0</asrwt>
<pdfrwt beam="1">  1        2 0.49298945E-02 0.43226901E+03</pdfrwt>
<pdfrwt beam="2">  1       -2 0.19338132E+00 0.43226901E+03</pdfrwt>
<totfact> 0.25448718E+02</totfact>
</mgrwt>
</event>
<event>
 4    1  0.5847263E-005  0.6102640E+03  0.7818608E-02  0.9884337E-01
         -2   -1    0    0    0  501 -0.00000000000E+00  0.00000000000E+00  0.65614877108E+02  0.65614877158E+02  0.25500000000E-02 0. -1.
          2   -1    0    0  501    0  0.00000000000E+00 -0.00000000000E+00 -0.14189700362E+04  0.14189700362E+04  0.25500000000E-02 0.  1.
    5000001    1    1    2    0    0 -0.29204920779E+02 -0.22733468570E+03 -0.52855159710E+03  0.60726005757E+03  0.19200000000E+03 0.  0.
   -5000001    1    1    2    0    0  0.29204920779E+02  0.22733468570E+03 -0.82480356200E+03  0.87732485581E+03  0.19200000000E+03 0.  0.
<mgrwt>
<rscale>  0 0.61026402E+03</rscale>
<asrwt>0</asrwt>
<pdfrwt beam="1">  1        2 0.20270999E+00 0.61026402E+03</pdfrwt>
<pdfrwt beam="2">  1       -2 0.93735548E-02 0.61026402E+03</pdfrwt>
<totfact> 0.12472887E+03</totfact>
</mgrwt>
</event>
<event>
 4    1  0.5847263E-005  0.6014471E+03  0.7818608E-02  0.9902408E-01
          2   -1    0    0  501    0  0.00000000000E+00  0.00000000000E+00  0.23948665805E+04  0.23948665805E+04  0.25500000000E-02 0.  1.
         -2   -1    0    0    0  501 -0.00000000000E+00 -0.00000000000E+00 -0.37761870492E+02  0.37761870578E+02  0.25500000000E-02 0. -1.
    5000001    1    1    2    0    0  0.13840684002E+03 -0.78760850599E+02  0.49921268649E+03  0.55806543640E+03  0.19200000000E+03 0.  0.
   -5000001    1    1    2    0    0 -0.13840684002E+03  0.78760850599E+02  0.18578920235E+04  0.18745630147E+04  0.19200000000E+03 0.  0.
<mgrwt>
<rscale>  0 0.60144706E+03</rscale>
<asrwt>0</asrwt>
<pdfrwt beam="1">  1        2 0.34212391E+00 0.60144706E+03</pdfrwt>
<pdfrwt beam="2">  1       -2 0.53945512E-02 0.60144706E+03</pdfrwt>
<totfact> 0.95499559E+02</totfact>
</mgrwt>
</event>
<event>
 4    1  0.5847263E-005  0.5721634E+03  0.7818608E-02  0.9964903E-01
          2   -1    0    0  501    0  0.00000000000E+00  0.00000000000E+00  0.33758714944E+04  0.33758714944E+04  0.25500000000E-02 0.  1.
         -2   -1    0    0    0  501 -0.00000000000E+00 -0.00000000000E+00 -0.24243443514E+02  0.24243443648E+02  0.25500000000E-02 0. -1.
    5000001    1    1    2    0    0  0.17880384165E+03  0.12068501639E+01  0.99808922016E+03  0.10319972683E+04  0.19200000000E+03 0.  0.
   -5000001    1    1    2    0    0 -0.17880384165E+03 -0.12068501639E+01  0.23535388307E+04  0.23681176698E+04  0.19200000000E+03 0.  0.
<mgrwt>
<rscale>  0 0.57216344E+03</rscale>
<asrwt>0</asrwt>
<pdfrwt beam="1">  1        2 0.48226709E+00 0.57216344E+03</pdfrwt>
<pdfrwt beam="2">  1       -2 0.34633510E-02 0.57216344E+03</pdfrwt>
<totfact> 0.56236329E+02</totfact>
</mgrwt>
</event>
<event>
 4    1  0.5847263E-005  0.5312611E+03  0.7818608E-02  0.1005927E+00
          2   -1    0    0  501    0  0.00000000000E+00  0.00000000000E+00  0.17312355357E+04  0.17312355357E+04  0.25500000000E-02 0.  1.
         -2   -1    0    0    0  501 -0.00000000000E+00 -0.00000000000E+00 -0.40756782338E+02  0.40756782418E+02  0.25500000000E-02 0. -1.
    5000001    1    1    2    0    0  0.59494061028E+02 -0.11623596538E+03  0.12755667150E+04  0.12965279740E+04  0.19200000000E+03 0.  0.
   -5000001    1    1    2    0    0 -0.59494061028E+02  0.11623596538E+03  0.41491203830E+03  0.47546434406E+03  0.19200000000E+03 0.  0.
<mgrwt>
<rscale>  0 0.53126110E+03</rscale>
<asrwt>0</asrwt>
<pdfrwt beam="1">  1        2 0.24731939E+00 0.53126110E+03</pdfrwt>
<pdfrwt beam="2">  1       -2 0.58223967E-02 0.53126110E+03</pdfrwt>
<totfact> 0.18361237E+03</totfact>
</mgrwt>
</event>
<event>
 4    1  0.5847263E-005  0.6654962E+03  0.7818608E-02  0.9778128E-01
         -2   -1    0    0    0  501 -0.00000000000E+00  0.00000000000E+00  0.38639639157E+02  0.38639639241E+02  0.25500000000E-02 0. -1.
          2   -1    0    0  501    0  0.00000000000E+00 -0.00000000000E+00 -0.28654849529E+04  0.28654849529E+04  0.25500000000E-02 0.  1.
    5000001    1    1    2    0    0 -0.86795655066E+02 -0.25666531265E+03 -0.15056575509E+04  0.15418428030E+04  0.19200000000E+03 0.  0.
   -5000001    1    1    2    0    0  0.86795655066E+02  0.25666531265E+03 -0.13211877629E+04  0.13622817892E+04  0.19200000000E+03 0.  0.
<mgrwt>
<rscale>  0 0.66549622E+03</rscale>
<asrwt>0</asrwt>
<pdfrwt beam="1">  1        2 0.40935486E+00 0.66549622E+03</pdfrwt>
<pdfrwt beam="2">  1       -2 0.55199503E-02 0.66549622E+03</pdfrwt>
<totfact> 0.52121934E+02</totfact>
</mgrwt>
</event>
<event>
 4    1  0.5847263E-005  0.6784365E+03  0.7818608E-02  0.9754836E-01
          2   -1    0    0  501    0  0.00000000000E+00  0.00000000000E+00  0.33726769799E+03  0.33726769800E+03  0.25500000000E-02 0.  1.
         -2   -1    0    0    0  501 -0.00000000000E+00 -0.00000000000E+00 -0.34118008124E+03  0.34118008125E+03  0.25500000000E-02 0. -1.
    5000001    1    1    2    0    0 -0.16351658747E+03  0.10854557181E+03 -0.20117096223E+03  0.34037269512E+03  0.19200000000E+03 0.  0.
   -5000001    1    1    2    0    0  0.16351658747E+03 -0.10854557181E+03  0.19725857898E+03  0.33807508414E+03  0.19200000000E+03 0.  0.
<mgrwt>
<rscale>  0 0.67843650E+03</rscale>
<asrwt>0</asrwt>
<pdfrwt beam="1">  1        2 0.48181100E-01 0.67843650E+03</pdfrwt>
<pdfrwt beam="2">  1       -2 0.48740011E-01 0.67843650E+03</pdfrwt>
<totfact> 0.42059250E+02</totfact>
</mgrwt>
</event>
<event>
 4    1  0.5847263E-005  0.6982678E+03  0.7818608E-02  0.9720199E-01
          2   -1    0    0  501    0  0.00000000000E+00  0.00000000000E+00  0.11871264391E+04  0.11871264391E+04  0.25500000000E-02 0.  1.
         -2   -1    0    0    0  501 -0.00000000000E+00 -0.00000000000E+00 -0.10268027841E+03  0.10268027844E+03  0.25500000000E-02 0. -1.
    5000001    1    1    2    0    0 -0.25848224506E+03 -0.11740621317E+03  0.41923572013E+03  0.54149781065E+03  0.19200000000E+03 0.  0.
   -5000001    1    1    2    0    0  0.25848224506E+03  0.11740621317E+03  0.66521044055E+03  0.74830890688E+03  0.19200000000E+03 0.  0.
<mgrwt>
<rscale>  0 0.69826778E+03</rscale>
<asrwt>0</asrwt>
<pdfrwt beam="1">  1        2 0.16958949E+00 0.69826778E+03</pdfrwt>
<pdfrwt beam="2">  1       -2 0.14668611E-01 0.69826778E+03</pdfrwt>
<totfact> 0.79595736E+02</totfact>
</mgrwt>
</event>
<event>
 4    1  0.5847263E-005  0.1232466E+04  0.7818608E-02  0.9084904E-01
          2   -1    0    0  501    0  0.00000000000E+00  0.00000000000E+00  0.18673159485E+04  0.18673159485E+04  0.25500000000E-02 0.  1.
         -2   -1    0    0    0  501 -0.00000000000E+00 -0.00000000000E+00 -0.20336312860E+03  0.20336312862E+03  0.25500000000E-02 0. -1.
    5000001    1    1    2    0    0 -0.33457475768E+03  0.42880259046E+03  0.11964762609E+04  0.13282437175E+04  0.19200000000E+03 0.  0.
   -5000001    1    1    2    0    0  0.33457475768E+03 -0.42880259046E+03  0.46747655898E+03  0.74243535965E+03  0.19200000000E+03 0.  0.
<mgrwt>
<rscale>  0 0.12324662E+04</rscale>
<asrwt>0</asrwt>
<pdfrwt beam="1">  1        2 0.26675944E+00 0.12324662E+04</pdfrwt>
<pdfrwt beam="2">  1       -2 0.29051873E-01 0.12324662E+04</pdfrwt>
<totfact> 0.10068818E+02</totfact>
</mgrwt>
</event>
<event>
 4    1  0.5847263E-005  0.4967694E+03  0.7818608E-02  0.1014626E+00
          2   -1    0    0  501    0  0.00000000000E+00  0.00000000000E+00  0.17144970312E+04  0.17144970312E+04  0.25500000000E-02 0.  1.
         -2   -1    0    0    0  501 -0.00000000000E+00 -0.00000000000E+00 -0.35984289307E+02  0.35984289397E+02  0.25500000000E-02 0. -1.
    5000001    1    1    2    0    0  0.11715557860E+03 -0.83961103274E+02  0.61483982188E+03  0.66005068216E+03  0.19200000000E+03 0.  0.
   -5000001    1    1    2    0    0 -0.11715557860E+03  0.83961103274E+02  0.10636729200E+04  0.10904306384E+04  0.19200000000E+03 0.  0.
<mgrwt>
<rscale>  0 0.49676939E+03</rscale>
<asrwt>0</asrwt>
<pdfrwt beam="1">  1        2 0.24492818E+00 0.49676939E+03</pdfrwt>
<pdfrwt beam="2">  1       -2 0.51406121E-02 0.49676939E+03</pdfrwt>
<totfact> 0.22741144E+03</totfact>
</mgrwt>
</event>
<event>
 4    1  0.5847263E-005  0.9674377E+03  0.7818608E-02  0.9344998E-01
         -2   -1    0    0    0  501 -0.00000000000E+00  0.00000000000E+00  0.21710620923E+03  0.21710620924E+03  0.25500000000E-02 0. -1.
          2   -1    0    0  501    0  0.00000000000E+00 -0.00000000000E+00 -0.10777394316E+04  0.10777394316E+04  0.25500000000E-02 0.  1.
    5000001    1    1    2    0    0 -0.43806546664E+03  0.31885767621E+02 -0.34355728690E+03  0.58975729298E+03  0.19200000000E+03 0.  0.
   -5000001    1    1    2    0    0  0.43806546664E+03 -0.31885767621E+02 -0.51707593543E+03  0.70508834782E+03  0.19200000000E+03 0.  0.
<mgrwt>
<rscale>  0 0.96743769E+03</rscale>
<asrwt>0</asrwt>
<pdfrwt beam="1">  1        2 0.15396277E+00 0.96743769E+03</pdfrwt>
<pdfrwt beam="2">  1       -2 0.31015173E-01 0.96743769E+03</pdfrwt>
<totfact> 0.24196611E+02</totfact>
</mgrwt>
</event>
<event>
 4    1  0.5847263E-005  0.4711776E+03  0.7818608E-02  0.1021588E+00
          2   -1    0    0  501    0  0.00000000000E+00  0.00000000000E+00  0.98244492882E+03  0.98244492883E+03  0.25500000000E-02 0.  1.
         -2   -1    0    0    0  501 -0.00000000000E+00 -0.00000000000E+00 -0.56493825225E+02  0.56493825282E+02  0.25500000000E-02 0. -1.
    5000001    1    1    2    0    0  0.11662472843E+03  0.65155049877E+02  0.52501221918E+03  0.57475937408E+03  0.19200000000E+03 0.  0.
   -5000001    1    1    2    0    0 -0.11662472843E+03 -0.65155049877E+02  0.40093888442E+03  0.46417938003E+03  0.19200000000E+03 0.  0.
<mgrwt>
<rscale>  0 0.47117756E+03</rscale>
<asrwt>0</asrwt>
<pdfrwt beam="1">  1        2 0.14034928E+00 0.47117756E+03</pdfrwt>
<pdfrwt beam="2">  1       -2 0.80705461E-02 0.47117756E+03</pdfrwt>
<totfact> 0.27936043E+03</totfact>
</mgrwt>
</event>
<event>
 4    1  0.5847263E-005  0.5479185E+03  0.7818608E-02  0.1001977E+00
          2   -1    0    0  501    0  0.00000000000E+00  0.00000000000E+00  0.80508472912E+03  0.80508472912E+03  0.25500000000E-02 0.  1.
         -2   -1    0    0    0  501 -0.00000000000E+00 -0.00000000000E+00 -0.93224572259E+02  0.93224572294E+02  0.25500000000E-02 0. -1.
    5000001    1    1    2    0    0 -0.43229102430E+02 -0.17394910880E+03  0.22827429295E+03  0.34799454101E+03  0.19200000000E+03 0.  0.
   -5000001    1    1    2    0    0  0.43229102430E+02  0.17394910880E+03  0.48358586391E+03  0.55031476041E+03  0.19200000000E+03 0.  0.
<mgrwt>
<rscale>  0 0.54791853E+03</rscale>
<asrwt>0</asrwt>
<pdfrwt beam="1">  1        2 0.11501211E+00 0.54791853E+03</pdfrwt>
<pdfrwt beam="2">  1       -2 0.13317795E-01 0.54791853E+03</pdfrwt>
<totfact> 0.16149392E+03</totfact>
</mgrwt>
</event>
<event>
 4    1  0.5847263E-005  0.4608677E+03  0.7818608E-02  0.1024530E+00
          2   -1    0    0  501    0  0.00000000000E+00  0.00000000000E+00  0.13052294415E+03  0.13052294417E+03  0.25500000000E-02 0.  1.
         -2   -1    0    0    0  501 -0.00000000000E+00 -0.00000000000E+00 -0.40682310540E+03  0.40682310541E+03  0.25500000000E-02 0. -1.
    5000001    1    1    2    0    0 -0.24906670371E+02 -0.11105012674E+03 -0.20495855649E+03  0.30302554803E+03  0.19200000000E+03 0.  0.
   -5000001    1    1    2    0    0  0.24906670371E+02  0.11105012674E+03 -0.71341604757E+02  0.23432050155E+03  0.19200000000E+03 0.  0.
<mgrwt>
<rscale>  0 0.46086766E+03</rscale>
<asrwt>0</asrwt>
<pdfrwt beam="1">  1        2 0.18646135E-01 0.46086766E+03</pdfrwt>
<pdfrwt beam="2">  1       -2 0.58117586E-01 0.46086766E+03</pdfrwt>
<totfact> 0.85800408E+02</totfact>
</mgrwt>
</event>
<event>
 4    1  0.5847263E-005  0.8938493E+03  0.7818608E-02  0.9433303E-01
         -2   -1    0    0    0  501 -0.00000000000E+00  0.00000000000E+00  0.13235098932E+03  0.13235098935E+03  0.25500000000E-02 0. -1.
          2   -1    0    0  501    0  0.00000000000E+00 -0.00000000000E+00 -0.15091813397E+04  0.15091813397E+04  0.25500000000E-02 0.  1.
    5000001    1    1    2    0    0  0.20988175429E+03  0.21467174675E+03 -0.11837304664E+04  0.12362103893E+04  0.19200000000E+03 0.  0.
   -5000001    1    1    2    0    0 -0.20988175429E+03 -0.21467174675E+03 -0.19309988403E+03  0.40532193976E+03  0.19200000000E+03 0.  0.
<mgrwt>
<rscale>  0 0.89384930E+03</rscale>
<asrwt>0</asrwt>
<pdfrwt beam="1">  1        2 0.21559732E+00 0.89384930E+03</pdfrwt>
<pdfrwt beam="2">  1       -2 0.18907285E-01 0.89384930E+03</pdfrwt>
<totfact> 0.34123179E+02</totfact>
</mgrwt>
</event>
<event>
 4    1  0.5847263E-005  0.4356210E+03  0.7818608E-02  0.1032099E+00
          2   -1    0    0  501    0  0.00000000000E+00  0.00000000000E+00  0.53624199474E+03  0.53624199475E+03  0.25500000000E-02 0.  1.
         -2   -1    0    0    0  501 -0.00000000000E+00 -0.00000000000E+00 -0.88470176814E+02  0.88470176850E+02  0.25500000000E-02 0. -1.
    5000001    1    1    2    0    0 -0.42281553937E+02  0.65711047118E+02  0.31978400765E+03  0.38109248623E+03  0.19200000000E+03 0.  0.
   -5000001    1    1    2    0    0  0.42281553937E+02 -0.65711047118E+02  0.12798781028E+03  0.24361968536E+03  0.19200000000E+03 0.  0.
<mgrwt>
<rscale>  0 0.43562105E+03</rscale>
<asrwt>0</asrwt>
<pdfrwt beam="1">  1        2 0.76606002E-01 0.43562105E+03</pdfrwt>
<pdfrwt beam="2">  1       -2 0.12638596E-01 0.43562105E+03</pdfrwt>
<totfact> 0.28623550E+03</totfact>
</mgrwt>
</event>
<event>
 4    1  0.5847263E-005  0.4461054E+03  0.7818608E-02  0.1028890E+00
          2   -1    0    0  501    0  0.00000000000E+00  0.00000000000E+00  0.13257633341E+04  0.13257633341E+04  0.25500000000E-02 0.  1.
         -2   -1    0    0    0  501 -0.00000000000E+00 -0.00000000000E+00 -0.37527439869E+02  0.37527439956E+02  0.25500000000E-02 0. -1.
    5000001    1    1    2    0    0  0.94224185099E+02  0.48534001655E+02  0.51980447216E+03  0.56417589071E+03  0.19200000000E+03 0.  0.
   -5000001    1    1    2    0    0 -0.94224185099E+02 -0.48534001655E+02  0.76843142209E+03  0.79911488338E+03  0.19200000000E+03 0.  0.
<mgrwt>
<rscale>  0 0.44610539E+03</rscale>
<asrwt>0</asrwt>
<pdfrwt beam="1">  1        2 0.18939473E+00 0.44610539E+03</pdfrwt>
<pdfrwt beam="2">  1       -2 0.53610638E-02 0.44610539E+03</pdfrwt>
<totfact> 0.33857833E+03</totfact>
</mgrwt>
</event>
<event>
 4    1  0.5847263E-005  0.4790004E+03  0.7818608E-02  0.1019410E+00
         -2   -1    0    0    0  501 -0.00000000000E+00  0.00000000000E+00  0.34149742788E+02  0.34149742883E+02  0.25500000000E-02 0. -1.
          2   -1    0    0  501    0  0.00000000000E+00 -0.00000000000E+00 -0.16796712008E+04  0.16796712008E+04  0.25500000000E-02 0.  1.
    5000001    1    1    2    0    0  0.12157022637E+03 -0.54201089754E+02 -0.10113835771E+04  0.10380162899E+04  0.19200000000E+03 0.  0.
   -5000001    1    1    2    0    0 -0.12157022637E+03  0.54201089754E+02 -0.63413788090E+03  0.67580465377E+03  0.19200000000E+03 0.  0.
<mgrwt>
<rscale>  0 0.47900037E+03</rscale>
<asrwt>0</asrwt>
<pdfrwt beam="1">  1        2 0.23995298E+00 0.47900037E+03</pdfrwt>
<pdfrwt beam="2">  1       -2 0.48785357E-02 0.47900037E+03</pdfrwt>
<totfact> 0.25685347E+03</totfact>
</mgrwt>
</event>
<event>
 4    1  0.5847263E-005  0.4554016E+03  0.7818608E-02  0.1026123E+00
         -2   -1    0    0    0  501 -0.00000000000E+00  0.00000000000E+00  0.27061713308E+02  0.27061713428E+02  0.25500000000E-02 0. -1.
          2   -1    0    0  501    0  0.00000000000E+00 -0.00000000000E+00 -0.19159046461E+04  0.19159046461E+04  0.25500000000E-02 0.  1.
    5000001    1    1    2    0    0 -0.69108006743E+02  0.58738026378E+02 -0.12951463791E+04  0.13124382712E+04  0.19200000000E+03 0.  0.
   -5000001    1    1    2    0    0  0.69108006743E+02 -0.58738026378E+02 -0.59369655363E+03  0.63052808830E+03  0.19200000000E+03 0.  0.
<mgrwt>
<rscale>  0 0.45540164E+03</rscale>
<asrwt>0</asrwt>
<pdfrwt beam="1">  1        2 0.27370058E+00 0.45540164E+03</pdfrwt>
<pdfrwt beam="2">  1       -2 0.38659603E-02 0.45540164E+03</pdfrwt>
<totfact> 0.27955450E+03</totfact>
</mgrwt>
</event>
<event>
 4    1  0.5847263E-005  0.5814037E+03  0.7818608E-02  0.9944757E-01
         -2   -1    0    0    0  501 -0.00000000000E+00  0.00000000000E+00  0.25179006288E+03  0.25179006290E+03  0.25500000000E-02 0. -1.
          2   -1    0    0  501    0  0.00000000000E+00 -0.00000000000E+00 -0.33562705683E+03  0.33562705684E+03  0.25500000000E-02 0.  1.
    5000001    1    1    2    0    0 -0.17792230988E+03 -0.12620729822E+03 -0.34162689779E+02  0.29260164020E+03  0.19200000000E+03 0.  0.
   -5000001    1    1    2    0    0  0.17792230988E+03  0.12620729822E+03 -0.49674304166E+02  0.29481547953E+03  0.19200000000E+03 0.  0.
<mgrwt>
<rscale>  0 0.58140367E+03</rscale>
<asrwt>0</asrwt>
<pdfrwt beam="1">  1        2 0.47946722E-01 0.58140367E+03</pdfrwt>
<pdfrwt beam="2">  1       -2 0.35970009E-01 0.58140367E+03</pdfrwt>
<totfact> 0.76838729E+02</totfact>
</mgrwt>
</event>
<event>
 4    1  0.5847263E-005  0.4073587E+03  0.7818608E-02  0.1041261E+00
          2   -1    0    0  501    0  0.00000000000E+00  0.00000000000E+00  0.19820574981E+04  0.19820574981E+04  0.25500000000E-02 0.  1.
         -2   -1    0    0    0  501 -0.00000000000E+00 -0.00000000000E+00 -0.20930410526E+02  0.20930410682E+02  0.25500000000E-02 0. -1.
    5000001    1    1    2    0    0  0.38198326820E+02  0.50466827253E+02  0.11025277085E+04  0.11209091671E+04  0.19200000000E+03 0.  0.
   -5000001    1    1    2    0    0 -0.38198326820E+02 -0.50466827253E+02  0.85859937902E+03  0.88207874165E+03  0.19200000000E+03 0.  0.
<mgrwt>
<rscale>  0 0.40735870E+03</rscale>
<asrwt>0</asrwt>
<pdfrwt beam="1">  1        2 0.28315111E+00 0.40735870E+03</pdfrwt>
<pdfrwt beam="2">  1       -2 0.29900583E-02 0.40735870E+03</pdfrwt>
<totfact> 0.38292195E+03</totfact>
</mgrwt>
</event>
<event>
 4    1  0.5847263E-005  0.8307661E+03  0.7818608E-02  0.9516522E-01
         -2   -1    0    0    0  501 -0.00000000000E+00  0.00000000000E+00  0.21264859923E+03  0.21264859925E+03  0.25500000000E-02 0. -1.
          2   -1    0    0  501    0  0.00000000000E+00 -0.00000000000E+00 -0.81140002002E+03  0.81140002002E+03  0.25500000000E-02 0.  1.
    5000001    1    1    2    0    0  0.16685580593E+03  0.32713324261E+03 -0.26403352647E+03  0.49136007316E+03  0.19200000000E+03 0.  0.
   -5000001    1    1    2    0    0 -0.16685580593E+03 -0.32713324261E+03 -0.33471789432E+03  0.53268854612E+03  0.19200000000E+03 0.  0.
<mgrwt>
<rscale>  0 0.83076610E+03</rscale>
<asrwt>0</asrwt>
<pdfrwt beam="1">  1        2 0.11591429E+00 0.83076610E+03</pdfrwt>
<pdfrwt beam="2">  1       -2 0.30378372E-01 0.83076610E+03</pdfrwt>
<totfact> 0.37450324E+02</totfact>
</mgrwt>
</event>
<event>
 4    1  0.5847263E-005  0.1318279E+04  0.7818608E-02  0.9015194E-01
         -2   -1    0    0    0  501 -0.00000000000E+00  0.00000000000E+00  0.64470726047E+03  0.64470726047E+03  0.25500000000E-02 0. -1.
          2   -1    0    0  501    0  0.00000000000E+00 -0.00000000000E+00 -0.67389521325E+03  0.67389521325E+03  0.25500000000E-02 0.  1.
    5000001    1    1    2    0    0  0.61330019028E+03  0.14616538323E+03 -0.24581117982E+02  0.65952230745E+03  0.19200000000E+03 0.  0.
   -5000001    1    1    2    0    0 -0.61330019028E+03 -0.14616538323E+03 -0.46068347996E+01  0.65908016628E+03  0.19200000000E+03 0.  0.
<mgrwt>
<rscale>  0 0.13182794E+04</rscale>
<asrwt>0</asrwt>
<pdfrwt beam="1">  1        2 0.96270745E-01 0.13182794E+04</pdfrwt>
<pdfrwt beam="2">  1       -2 0.92101037E-01 0.13182794E+04</pdfrwt>
<totfact> 0.46333741E+01</totfact>
</mgrwt>
</event>
<event>
 4    1  0.5847263E-005  0.5830425E+03  0.7818608E-02  0.9941226E-01
         -2   -1    0    0    0  501 -0.00000000000E+00  0.00000000000E+00  0.33116462558E+03  0.33116462559E+03  0.25500000000E-02 0. -1.
          2   -1    0    0  501    0  0.00000000000E+00 -0.00000000000E+00 -0.25662353716E+03  0.25662353717E+03  0.25500000000E-02 0.  1.
    5000001    1    1    2    0    0 -0.10885729827E+03 -0.18768252319E+03  0.69875662884E+02  0.29802894014E+03  0.19200000000E+03 0.  0.
   -5000001    1    1    2    0    0  0.10885729827E+03  0.18768252319E+03  0.46654255361E+01  0.28975922262E+03  0.19200000000E+03 0.  0.
<mgrwt>
<rscale>  0 0.58304249E+03</rscale>
<asrwt>0</asrwt>
<pdfrwt beam="1">  1        2 0.36660505E-01 0.58304249E+03</pdfrwt>
<pdfrwt beam="2">  1       -2 0.47309232E-01 0.58304249E+03</pdfrwt>
<totfact> 0.60537194E+02</totfact>
</mgrwt>
</event>
<event>
 4    1  0.5847263E-005  0.1272594E+04  0.7818608E-02  0.9051585E-01
          2   -1    0    0  501    0  0.00000000000E+00  0.00000000000E+00  0.41770239834E+04  0.41770239834E+04  0.25500000000E-02 0.  1.
         -2   -1    0    0    0  501 -0.00000000000E+00 -0.00000000000E+00 -0.96928762619E+02  0.96928762653E+02  0.25500000000E-02 0. -1.
    5000001    1    1    2    0    0  0.16076835131E+03  0.37445175923E+03  0.53079841681E+03  0.69618355486E+03  0.19200000000E+03 0.  0.
   -5000001    1    1    2    0    0 -0.16076835131E+03 -0.37445175923E+03  0.35492968040E+04  0.35777691912E+04  0.19200000000E+03 0.  0.
<mgrwt>
<rscale>  0 0.12725938E+04</rscale>
<asrwt>0</asrwt>
<pdfrwt beam="1">  1        2 0.59671765E+00 0.12725938E+04</pdfrwt>
<pdfrwt beam="2">  1       -2 0.13846968E-01 0.12725938E+04</pdfrwt>
<totfact> 0.17432654E+01</totfact>
</mgrwt>
</event>
<event>
 4    1  0.5847263E-005  0.4409975E+03  0.7818608E-02  0.1030441E+00
          2   -1    0    0  501    0  0.00000000000E+00  0.00000000000E+00  0.13686096350E+04  0.13686096350E+04  0.25500000000E-02 0.  1.
         -2   -1    0    0    0  501 -0.00000000000E+00 -0.00000000000E+00 -0.35524888549E+02  0.35524888641E+02  0.25500000000E-02 0. -1.
    5000001    1    1    2    0    0 -0.29569122584E+02  0.10090540478E+03  0.58233357900E+03  0.62211946679E+03  0.19200000000E+03 0.  0.
   -5000001    1    1    2    0    0  0.29569122584E+02 -0.10090540478E+03  0.75075116749E+03  0.78201505690E+03  0.19200000000E+03 0.  0.
<mgrwt>
<rscale>  0 0.44099753E+03</rscale>
<asrwt>0</asrwt>
<pdfrwt beam="1">  1        2 0.19551561E+00 0.44099753E+03</pdfrwt>
<pdfrwt beam="2">  1       -2 0.50749854E-02 0.44099753E+03</pdfrwt>
<totfact> 0.34966397E+03</totfact>
</mgrwt>
</event>
<event>
 4    1  0.5847263E-005  0.5573744E+03  0.7818608E-02  0.9998013E-01
          2   -1    0    0  501    0  0.00000000000E+00  0.00000000000E+00  0.51965380021E+03  0.51965380021E+03  0.25500000000E-02 0.  1.
         -2   -1    0    0    0  501 -0.00000000000E+00 -0.00000000000E+00 -0.14945824485E+03  0.14945824487E+03  0.25500000000E-02 0. -1.
    5000001    1    1    2    0    0  0.20023202918E+03  0.23325695028E+02  0.16964983348E+03  0.32600923232E+03  0.19200000000E+03 0.  0.
   -5000001    1    1    2    0    0 -0.20023202918E+03 -0.23325695028E+02  0.20054572188E+03  0.34310281276E+03  0.19200000000E+03 0.  0.
<mgrwt>
<rscale>  0 0.55737436E+03</rscale>
<asrwt>0</asrwt>
<pdfrwt beam="1">  1        2 0.74236255E-01 0.55737436E+03</pdfrwt>
<pdfrwt beam="2">  1       -2 0.21351179E-01 0.55737436E+03</pdfrwt>
<totfact> 0.12214692E+03</totfact>
</mgrwt>
</event>
<event>
 4    1  0.5847263E-005  0.5649859E+03  0.7818608E-02  0.9980836E-01
          2   -1    0    0  501    0  0.00000000000E+00  0.00000000000E+00  0.27260296545E+04  0.27260296545E+04  0.25500000000E-02 0.  1.
         -2   -1    0    0    0  501 -0.00000000000E+00 -0.00000000000E+00 -0.29274172070E+02  0.29274172181E+02  0.25500000000E-02 0. -1.
    5000001    1    1    2    0    0  0.56148612785E+02  0.17814875675E+03  0.17858922703E+04  0.18058695543E+04  0.19200000000E+03 0.  0.
   -5000001    1    1    2    0    0 -0.56148612785E+02 -0.17814875675E+03  0.91086321218E+03  0.94943427237E+03  0.19200000000E+03 0.  0.
<mgrwt>
<rscale>  0 0.56498588E+03</rscale>
<asrwt>0</asrwt>
<pdfrwt beam="1">  1        2 0.38943279E+00 0.56498588E+03</pdfrwt>
<pdfrwt beam="2">  1       -2 0.41820248E-02 0.56498588E+03</pdfrwt>
<totfact> 0.95818215E+02</totfact>
</mgrwt>
</event>
<event>
 4    1  0.5847263E-005  0.6662416E+03  0.7818608E-02  0.9776771E-01
          2   -1    0    0  501    0  0.00000000000E+00  0.00000000000E+00  0.25139537631E+04  0.25139537631E+04  0.25500000000E-02 0.  1.
         -2   -1    0    0    0  501 -0.00000000000E+00 -0.00000000000E+00 -0.44141410545E+02  0.44141410619E+02  0.25500000000E-02 0. -1.
    5000001    1    1    2    0    0  0.22644214745E+03 -0.12881128953E+03  0.15381383595E+04  0.15718148769E+04  0.19200000000E+03 0.  0.
   -5000001    1    1    2    0    0 -0.22644214745E+03  0.12881128953E+03  0.93167399306E+03  0.98628029677E+03  0.19200000000E+03 0.  0.
<mgrwt>
<rscale>  0 0.66624159E+03</rscale>
<asrwt>0</asrwt>
<pdfrwt beam="1">  1        2 0.35913637E+00 0.66624159E+03</pdfrwt>
<pdfrwt beam="2">  1       -2 0.63059137E-02 0.66624159E+03</pdfrwt>
<totfact> 0.64687829E+02</totfact>
</mgrwt>
</event>
<event>
 4    1  0.5847263E-005  0.5476354E+03  0.7818608E-02  0.1002043E+00
         -2   -1    0    0    0  501 -0.00000000000E+00  0.00000000000E+00  0.28270360570E+03  0.28270360571E+03  0.25500000000E-02 0. -1.
          2   -1    0    0  501    0  0.00000000000E+00 -0.00000000000E+00 -0.26521105092E+03  0.26521105093E+03  0.25500000000E-02 0.  1.
    5000001    1    1    2    0    0 -0.20827814491E+02 -0.12803460423E+03  0.15471606870E+03  0.27861751498E+03  0.19200000000E+03 0.  0.
   -5000001    1    1    2    0    0  0.20827814491E+02  0.12803460423E+03 -0.13722351392E+03  0.26929714167E+03  0.19200000000E+03 0.  0.
<mgrwt>
<rscale>  0 0.54763535E+03</rscale>
<asrwt>0</asrwt>
<pdfrwt beam="1">  1        2 0.37887293E-01 0.54763535E+03</pdfrwt>
<pdfrwt beam="2">  1       -2 0.40386229E-01 0.54763535E+03</pdfrwt>
<totfact> 0.79765822E+02</totfact>
</mgrwt>
</event>
<event>
 4    1  0.5847263E-005  0.4802216E+03  0.7818608E-02  0.1019074E+00
         -2   -1    0    0    0  501 -0.00000000000E+00  0.00000000000E+00  0.21573288281E+04  0.21573288281E+04  0.25500000000E-02 0. -1.
          2   -1    0    0  501    0  0.00000000000E+00 -0.00000000000E+00 -0.26724340100E+02  0.26724340221E+02  0.25500000000E-02 0.  1.
    5000001    1    1    2    0    0 -0.11780657054E+03  0.49885417729E+02  0.13677448798E+04  0.13870677703E+04  0.19200000000E+03 0.  0.
   -5000001    1    1    2    0    0  0.11780657054E+03 -0.49885417729E+02  0.76285960818E+03  0.79698539808E+03  0.19200000000E+03 0.  0.
<mgrwt>
<rscale>  0 0.48022157E+03</rscale>
<asrwt>0</asrwt>
<pdfrwt beam="1">  1        2 0.38177628E-02 0.48022157E+03</pdfrwt>
<pdfrwt beam="2">  1       -2 0.30818984E+00 0.48022157E+03</pdfrwt>
<totfact> 0.72348881E+01</totfact>
</mgrwt>
</event>
<event>
 4    1  0.5847263E-005  0.7953998E+03  0.7818608E-02  0.9566700E-01
          2   -1    0    0  501    0  0.00000000000E+00  0.00000000000E+00  0.12898932144E+04  0.12898932144E+04  0.25500000000E-02 0.  1.
         -2   -1    0    0    0  501 -0.00000000000E+00 -0.00000000000E+00 -0.12261884008E+03  0.12261884011E+03  0.25500000000E-02 0. -1.
    5000001    1    1    2    0    0  0.18607888721E+03  0.14897205238E+03  0.13268559260E+03  0.33359779846E+03  0.19200000000E+03 0.  0.
   -5000001    1    1    2    0    0 -0.18607888721E+03 -0.14897205238E+03  0.10345887817E+04  0.10789142561E+04  0.19200000000E+03 0.  0.
<mgrwt>
<rscale>  0 0.79539980E+03</rscale>
<asrwt>0</asrwt>
<pdfrwt beam="1">  1        2 0.18427046E+00 0.79539980E+03</pdfrwt>
<pdfrwt beam="2">  1       -2 0.17516977E-01 0.79539980E+03</pdfrwt>
<totfact> 0.51354205E+02</totfact>
</mgrwt>
</event>
<event>
 4    1  0.5847263E-005  0.8149168E+03  0.7818608E-02  0.9538673E-01
         -2   -1    0    0    0  501 -0.00000000000E+00  0.00000000000E+00  0.29650832254E+03  0.29650832255E+03  0.25500000000E-02 0. -1.
          2   -1    0    0  501    0  0.00000000000E+00 -0.00000000000E+00 -0.55992471272E+03  0.55992471272E+03  0.25500000000E-02 0.  1.
    5000001    1    1    2    0    0 -0.25087954789E+03  0.17412359727E+03 -0.33083049202E+03  0.48946132546E+03  0.19200000000E+03 0.  0.
   -5000001    1    1    2    0    0  0.25087954789E+03 -0.17412359727E+03  0.67414101840E+02  0.36697170981E+03  0.19200000000E+03 0.  0.
<mgrwt>
<rscale>  0 0.81491677E+03</rscale>
<asrwt>0</asrwt>
<pdfrwt beam="1">  1        2 0.79989245E-01 0.81491677E+03</pdfrwt>
<pdfrwt beam="2">  1       -2 0.42358332E-01 0.81491677E+03</pdfrwt>
<totfact> 0.31252530E+02</totfact>
</mgrwt>
</event>
<event>
 4    1  0.5847263E-005  0.4200458E+03  0.7818608E-02  0.1037051E+00
         -2   -1    0    0    0  501 -0.00000000000E+00  0.00000000000E+00  0.83680721378E+03  0.83680721378E+03  0.25500000000E-02 0. -1.
          2   -1    0    0  501    0  0.00000000000E+00 -0.00000000000E+00 -0.52711797452E+02  0.52711797513E+02  0.25500000000E-02 0.  1.
    5000001    1    1    2    0    0  0.61225560648E+02 -0.43557898024E+02  0.30734739137E+03  0.37009766108E+03  0.19200000000E+03 0.  0.
   -5000001    1    1    2    0    0 -0.61225560648E+02  0.43557898024E+02  0.47674802495E+03  0.51942135021E+03  0.19200000000E+03 0.  0.
<mgrwt>
<rscale>  0 0.42004577E+03</rscale>
<asrwt>0</asrwt>
<pdfrwt beam="1">  1        2 0.75302571E-02 0.42004577E+03</pdfrwt>
<pdfrwt beam="2">  1       -2 0.11954388E+00 0.42004577E+03</pdfrwt>
<totfact> 0.51845462E+02</totfact>
</mgrwt>
</event>
<event>
 4    1  0.5847263E-005  0.7286086E+03  0.7818608E-02  0.9669521E-01
         -2   -1    0    0    0  501 -0.00000000000E+00  0.00000000000E+00  0.47725334810E+03  0.47725334811E+03  0.25500000000E-02 0. -1.
          2   -1    0    0  501    0  0.00000000000E+00 -0.00000000000E+00 -0.27808630935E+03  0.27808630936E+03  0.25500000000E-02 0.  1.
    5000001    1    1    2    0    0  0.26386899051E+03  0.14215879505E+03  0.18000306955E+03  0.39887475755E+03  0.19200000000E+03 0.  0.
   -5000001    1    1    2    0    0 -0.26386899051E+03 -0.14215879505E+03  0.19163969204E+02  0.35646489992E+03  0.19200000000E+03 0.  0.
<mgrwt>
<rscale>  0 0.72860860E+03</rscale>
<asrwt>0</asrwt>
<pdfrwt beam="1">  1        2 0.39726616E-01 0.72860860E+03</pdfrwt>
<pdfrwt beam="2">  1       -2 0.68179050E-01 0.72860860E+03</pdfrwt>
<totfact> 0.25779367E+02</totfact>
</mgrwt>
</event>
<event>
 4    1  0.5847263E-005  0.4329376E+03  0.7818608E-02  0.1032936E+00
          2   -1    0    0  501    0  0.00000000000E+00  0.00000000000E+00  0.29299590475E+03  0.29299590477E+03  0.25500000000E-02 0.  1.
         -2   -1    0    0    0  501 -0.00000000000E+00 -0.00000000000E+00 -0.15992965221E+03  0.15992965223E+03  0.25500000000E-02 0. -1.
    5000001    1    1    2    0    0 -0.87883664926E+02  0.41687740069E+02  0.90693203229E+02  0.23356083436E+03  0.19200000000E+03 0.  0.
   -5000001    1    1    2    0    0  0.87883664926E+02 -0.41687740069E+02  0.42373049311E+02  0.21936472264E+03  0.19200000000E+03 0.  0.
<mgrwt>
<rscale>  0 0.43293756E+03</rscale>
<asrwt>0</asrwt>
<pdfrwt beam="1">  1        2 0.41856558E-01 0.43293756E+03</pdfrwt>
<pdfrwt beam="2">  1       -2 0.22847093E-01 0.43293756E+03</pdfrwt>
<totfact> 0.20437845E+03</totfact>
</mgrwt>
</event>
<event>
 4    1  0.5847263E-005  0.4344852E+03  0.7818608E-02  0.1032452E+00
          2   -1    0    0  501    0  0.00000000000E+00  0.00000000000E+00  0.42613090238E+03  0.42613090239E+03  0.25500000000E-02 0.  1.
         -2   -1    0    0    0  501 -0.00000000000E+00 -0.00000000000E+00 -0.11075081290E+03  0.11075081293E+03  0.25500000000E-02 0. -1.
    5000001    1    1    2    0    0 -0.98966691418E+02  0.11826283939E+02  0.13309807194E+03  0.25399481049E+03  0.19200000000E+03 0.  0.
   -5000001    1    1    2    0    0  0.98966691418E+02 -0.11826283939E+02  0.18228201754E+03  0.28288690483E+03  0.19200000000E+03 0.  0.
<mgrwt>
<rscale>  0 0.43448518E+03</rscale>
<asrwt>0</asrwt>
<pdfrwt beam="1">  1        2 0.60875844E-01 0.43448518E+03</pdfrwt>
<pdfrwt beam="2">  1       -2 0.15821545E-01 0.43448518E+03</pdfrwt>
<totfact> 0.25493805E+03</totfact>
</mgrwt>
</event>
<event>
 4    1  0.5847263E-005  0.9225899E+03  0.7818608E-02  0.9397775E-01
         -2   -1    0    0    0  501 -0.00000000000E+00  0.00000000000E+00  0.37050229116E+03  0.37050229117E+03  0.25500000000E-02 0. -1.
          2   -1    0    0  501    0  0.00000000000E+00 -0.00000000000E+00 -0.57433660875E+03  0.57433660876E+03  0.25500000000E-02 0.  1.
    5000001    1    1    2    0    0 -0.37269352632E+03  0.36619571458E+02 -0.29538445891E+03  0.51415701506E+03  0.19200000000E+03 0.  0.
   -5000001    1    1    2    0    0  0.37269352632E+03 -0.36619571458E+02  0.91550141317E+02  0.43068188486E+03  0.19200000000E+03 0.  0.
<mgrwt>
<rscale>  0 0.92258990E+03</rscale>
<asrwt>0</asrwt>
<pdfrwt beam="1">  1        2 0.82048087E-01 0.92258990E+03</pdfrwt>
<pdfrwt beam="2">  1       -2 0.52928899E-01 0.92258990E+03</pdfrwt>
<totfact> 0.19278124E+02</totfact>
</mgrwt>
</event>
<event>
 4    1  0.5847263E-005  0.4046106E+03  0.7818608E-02  0.1042195E+00
          2   -1    0    0  501    0  0.00000000000E+00  0.00000000000E+00  0.17146711363E+04  0.17146711363E+04  0.25500000000E-02 0.  1.
         -2   -1    0    0    0  501 -0.00000000000E+00 -0.00000000000E+00 -0.23868965843E+02  0.23868965979E+02  0.25500000000E-02 0. -1.
    5000001    1    1    2    0    0 -0.19727018205E+02  0.59179023855E+02  0.90177219644E+03  0.92409328878E+03  0.19200000000E+03 0.  0.
   -5000001    1    1    2    0    0  0.19727018205E+02 -0.59179023855E+02  0.78902997407E+03  0.81444681354E+03  0.19200000000E+03 0.  0.
<mgrwt>
<rscale>  0 0.40461056E+03</rscale>
<asrwt>0</asrwt>
<pdfrwt beam="1">  1        2 0.24495299E+00 0.40461056E+03</pdfrwt>
<pdfrwt beam="2">  1       -2 0.34098527E-02 0.40461056E+03</pdfrwt>
<totfact> 0.42651245E+03</totfact>
</mgrwt>
</event>
<event>
 4    1  0.5847263E-005  0.5325802E+03  0.7818608E-02  0.1005608E+00
          2   -1    0    0  501    0  0.00000000000E+00  0.00000000000E+00  0.42193610564E+03  0.42193610564E+03  0.25500000000E-02 0.  1.
         -2   -1    0    0    0  501 -0.00000000000E+00 -0.00000000000E+00 -0.16805963149E+03  0.16805963151E+03  0.25500000000E-02 0. -1.
    5000001    1    1    2    0    0 -0.15468347128E+03  0.93556385549E+02  0.16789191763E+03  0.31262032815E+03  0.19200000000E+03 0.  0.
   -5000001    1    1    2    0    0  0.15468347128E+03 -0.93556385549E+02  0.85984556511E+02  0.27737540901E+03  0.19200000000E+03 0.  0.
<mgrwt>
<rscale>  0 0.53258023E+03</rscale>
<asrwt>0</asrwt>
<pdfrwt beam="1">  1        2 0.60276587E-01 0.53258023E+03</pdfrwt>
<pdfrwt beam="2">  1       -2 0.24008518E-01 0.53258023E+03</pdfrwt>
<totfact> 0.12551235E+03</totfact>
</mgrwt>
</event>
<event>
 4    1  0.5847263E-005  0.6275704E+03  0.7818608E-02  0.9849801E-01
         -2   -1    0    0    0  501 -0.00000000000E+00  0.00000000000E+00  0.50852937755E+02  0.50852937818E+02  0.25500000000E-02 0. -1.
          2   -1    0    0  501    0  0.00000000000E+00 -0.00000000000E+00 -0.19361940852E+04  0.19361940852E+04  0.25500000000E-02 0.  1.
    5000001    1    1    2    0    0 -0.17971176396E+03 -0.12036589682E+03 -0.55731150678E+03  0.62788882998E+03  0.19200000000E+03 0.  0.
   -5000001    1    1    2    0    0  0.17971176396E+03  0.12036589682E+03 -0.13280296407E+04  0.13591581931E+04  0.19200000000E+03 0.  0.
<mgrwt>
<rscale>  0 0.62757042E+03</rscale>
<asrwt>0</asrwt>
<pdfrwt beam="1">  1        2 0.27659911E+00 0.62757042E+03</pdfrwt>
<pdfrwt beam="2">  1       -2 0.72647066E-02 0.62757042E+03</pdfrwt>
<totfact> 0.10177619E+03</totfact>
</mgrwt>
</event>
<event>
 4    1  0.5847263E-005  0.7596192E+03  0.7818608E-02  0.9620379E-01
          2   -1    0    0  501    0  0.00000000000E+00  0.00000000000E+00  0.56486778301E+03  0.56486778302E+03  0.25500000000E-02 0.  1.
         -2   -1    0    0    0  501 -0.00000000000E+00 -0.00000000000E+00 -0.25537892179E+03  0.25537892181E+03  0.25500000000E-02 0. -1.
    5000001    1    1    2    0    0  0.14986795616E+03 -0.12008394552E+03 -0.13198765337E+03  0.30193591853E+03  0.19200000000E+03 0.  0.
   -5000001    1    1    2    0    0 -0.14986795616E+03  0.12008394552E+03  0.44147651459E+03  0.51831078630E+03  0.19200000000E+03 0.  0.
<mgrwt>
<rscale>  0 0.75961918E+03</rscale>
<asrwt>0</asrwt>
<pdfrwt beam="1">  1        2 0.80695397E-01 0.75961918E+03</pdfrwt>
<pdfrwt beam="2">  1       -2 0.36482703E-01 0.75961918E+03</pdfrwt>
<totfact> 0.41425075E+02</totfact>
</mgrwt>
</event>
<event>
 4    1  0.5847263E-005  0.7247882E+03  0.7818608E-02  0.9675756E-01
         -2   -1    0    0    0  501 -0.00000000000E+00  0.00000000000E+00  0.82709787777E+02  0.82709787816E+02  0.25500000000E-02 0. -1.
          2   -1    0    0  501    0  0.00000000000E+00 -0.00000000000E+00 -0.15878349959E+04  0.15878349959E+04  0.25500000000E-02 0.  1.
    5000001    1    1    2    0    0 -0.22406848310E+03 -0.18562390807E+03 -0.52436184734E+03  0.62966837884E+03  0.19200000000E+03 0.  0.
   -5000001    1    1    2    0    0  0.22406848310E+03  0.18562390807E+03 -0.98076336075E+03  0.10408764048E+04  0.19200000000E+03 0.  0.
<mgrwt>
<rscale>  0 0.72478823E+03</rscale>
<asrwt>0</asrwt>
<pdfrwt beam="1">  1        2 0.22683355E+00 0.72478823E+03</pdfrwt>
<pdfrwt beam="2">  1       -2 0.11815685E-01 0.72478823E+03</pdfrwt>
<totfact> 0.69416925E+02</totfact>
</mgrwt>
</event>
<event>
 4    1  0.5847263E-005  0.4844870E+03  0.7818608E-02  0.1017909E+00
          2   -1    0    0  501    0  0.00000000000E+00  0.00000000000E+00  0.19911884389E+03  0.19911884391E+03  0.25500000000E-02 0.  1.
         -2   -1    0    0    0  501 -0.00000000000E+00 -0.00000000000E+00 -0.29470797691E+03  0.29470797692E+03  0.25500000000E-02 0. -1.
    5000001    1    1    2    0    0 -0.73320041575E+02  0.12808587673E+03 -0.53917986593E+02  0.24809870937E+03  0.19200000000E+03 0.  0.
   -5000001    1    1    2    0    0  0.73320041575E+02 -0.12808587673E+03 -0.41671146424E+02  0.24572811145E+03  0.19200000000E+03 0.  0.
<mgrwt>
<rscale>  0 0.48448699E+03</rscale>
<asrwt>0</asrwt>
<pdfrwt beam="1">  1        2 0.28445549E-01 0.48448699E+03</pdfrwt>
<pdfrwt beam="2">  1       -2 0.42101139E-01 0.48448699E+03</pdfrwt>
<totfact> 0.10121197E+03</totfact>
</mgrwt>
</event>
<event>
 4    1  0.5847263E-005  0.5815781E+03  0.7818608E-02  0.9944380E-01
         -2   -1    0    0    0  501 -0.00000000000E+00  0.00000000000E+00  0.12724746859E+03  0.12724746862E+03  0.25500000000E-02 0. -1.
          2   -1    0    0  501    0  0.00000000000E+00 -0.00000000000E+00 -0.66451824151E+03  0.66451824152E+03  0.25500000000E-02 0.  1.
    5000001    1    1    2    0    0 -0.21420297033E+03 -0.41187240958E+02 -0.25403826354E+03  0.38597764269E+03  0.19200000000E+03 0.  0.
   -5000001    1    1    2    0    0  0.21420297033E+03  0.41187240958E+02 -0.28323250938E+03  0.40578806745E+03  0.19200000000E+03 0.  0.
<mgrwt>
<rscale>  0 0.58157807E+03</rscale>
<asrwt>0</asrwt>
<pdfrwt beam="1">  1        2 0.94931176E-01 0.58157807E+03</pdfrwt>
<pdfrwt beam="2">  1       -2 0.18178210E-01 0.58157807E+03</pdfrwt>
<totfact> 0.12108956E+03</totfact>
</mgrwt>
</event>
<event>
 4    1  0.5847263E-005  0.4628704E+03  0.7818608E-02  0.1023952E+00
         -2   -1    0    0    0  501 -0.00000000000E+00  0.00000000000E+00  0.22357272457E+02  0.22357272602E+02  0.25500000000E-02 0. -1.
          2   -1    0    0  501    0  0.00000000000E+00 -0.00000000000E+00 -0.23957419380E+04  0.23957419380E+04  0.25500000000E-02 0.  1.
    5000001    1    1    2    0    0  0.11602040863E+03  0.32844287538E+01 -0.88993860129E+03  0.91778332778E+03  0.19200000000E+03 0.  0.
   -5000001    1    1    2    0    0 -0.11602040863E+03 -0.32844287538E+01 -0.14834460642E+04  0.15003158828E+04  0.19200000000E+03 0.  0.
<mgrwt>
<rscale>  0 0.46287042E+03</rscale>
<asrwt>0</asrwt>
<pdfrwt beam="1">  1        2 0.34224869E+00 0.46287042E+03</pdfrwt>
<pdfrwt beam="2">  1       -2 0.31938976E-02 0.46287042E+03</pdfrwt>
<totfact> 0.21514125E+03</totfact>
</mgrwt>
</event>
<event>
 4    1  0.5847263E-005  0.6662190E+03  0.7818608E-02  0.9776813E-01
          2   -1    0    0  501    0  0.00000000000E+00  0.00000000000E+00  0.17741177704E+03  0.17741177706E+03  0.25500000000E-02 0.  1.
         -2   -1    0    0    0  501 -0.00000000000E+00 -0.00000000000E+00 -0.62544853127E+03  0.62544853128E+03  0.25500000000E-02 0. -1.
    5000001    1    1    2    0    0  0.22996301634E+03 -0.11806954128E+03 -0.32680236131E+03  0.45878882813E+03  0.19200000000E+03 0.  0.
   -5000001    1    1    2    0    0 -0.22996301634E+03  0.11806954128E+03 -0.12123439292E+03  0.34407148020E+03  0.19200000000E+03 0.  0.
<mgrwt>
<rscale>  0 0.66621899E+03</rscale>
<asrwt>0</asrwt>
<pdfrwt beam="1">  1        2 0.25344540E-01 0.66621899E+03</pdfrwt>
<pdfrwt beam="2">  1       -2 0.89349789E-01 0.66621899E+03</pdfrwt>
<totfact> 0.23421968E+02</totfact>
</mgrwt>
</event>
<event>
 4    1  0.5847263E-005  0.8185928E+03  0.7818608E-02  0.9533488E-01
          2   -1    0    0  501    0  0.00000000000E+00  0.00000000000E+00  0.66754632157E+03  0.66754632157E+03  0.25500000000E-02 0.  1.
         -2   -1    0    0    0  501 -0.00000000000E+00 -0.00000000000E+00 -0.25095416972E+03  0.25095416973E+03  0.25500000000E-02 0. -1.
    5000001    1    1    2    0    0 -0.30593333153E+03 -0.10036380970E+03  0.39263815227E+03  0.54285984955E+03  0.19200000000E+03 0.  0.
   -5000001    1    1    2    0    0  0.30593333153E+03  0.10036380970E+03  0.23953999587E+02  0.37564064175E+03  0.19200000000E+03 0.  0.
<mgrwt>
<rscale>  0 0.81859278E+03</rscale>
<asrwt>0</asrwt>
<pdfrwt beam="1">  1        2 0.95363760E-01 0.81859278E+03</pdfrwt>
<pdfrwt beam="2">  1       -2 0.35850596E-01 0.81859278E+03</pdfrwt>
<totfact> 0.35025873E+02</totfact>
</mgrwt>
</event>
<event>
 4    1  0.5847263E-005  0.4894229E+03  0.7818608E-02  0.1016577E+00
         -2   -1    0    0    0  501 -0.00000000000E+00  0.00000000000E+00  0.17600590434E+02  0.17600590618E+02  0.25500000000E-02 0. -1.
          2   -1    0    0  501    0  0.00000000000E+00 -0.00000000000E+00 -0.34023688748E+04  0.34023688748E+04  0.25500000000E-02 0.  1.
    5000001    1    1    2    0    0 -0.86523774654E+02 -0.10028321960E+03 -0.22095072777E+04  0.22217852051E+04  0.19200000000E+03 0.  0.
   -5000001    1    1    2    0    0  0.86523774654E+02  0.10028321960E+03 -0.11752610067E+04  0.11981842603E+04  0.19200000000E+03 0.  0.
<mgrwt>
<rscale>  0 0.48942293E+03</rscale>
<asrwt>0</asrwt>
<pdfrwt beam="1">  1        2 0.48605228E+00 0.48942293E+03</pdfrwt>
<pdfrwt beam="2">  1       -2 0.25143722E-02 0.48942293E+03</pdfrwt>
<totfact> 0.89013819E+02</totfact>
</mgrwt>
</event>
<event>
 4    1  0.5847263E-005  0.4118153E+03  0.7818608E-02  0.1039764E+00
          2   -1    0    0  501    0  0.00000000000E+00  0.00000000000E+00  0.37354286184E+04  0.37354286184E+04  0.25500000000E-02 0.  1.
         -2   -1    0    0    0  501 -0.00000000000E+00 -0.00000000000E+00 -0.11350227073E+02  0.11350227359E+02  0.25500000000E-02 0. -1.
    5000001    1    1    2    0    0 -0.59453792866E+02 -0.59980908223E+01  0.22651658246E+04  0.22740736452E+04  0.19200000000E+03 0.  0.
   -5000001    1    1    2    0    0  0.59453792866E+02  0.59980908223E+01  0.14589125667E+04  0.14727052006E+04  0.19200000000E+03 0.  0.
<mgrwt>
<rscale>  0 0.41181532E+03</rscale>
<asrwt>0</asrwt>
<pdfrwt beam="1">  1        2 0.53363301E+00 0.41181532E+03</pdfrwt>
<pdfrwt beam="2">  1       -2 0.16214600E-02 0.41181532E+03</pdfrwt>
<totfact> 0.10940019E+03</totfact>
</mgrwt>
</event>
<event>
 4    1  0.5847263E-005  0.5254716E+03  0.7818608E-02  0.1007336E+00
          2   -1    0    0  501    0  0.00000000000E+00  0.00000000000E+00  0.12425773046E+04  0.12425773046E+04  0.25500000000E-02 0.  1.
         -2   -1    0    0    0  501 -0.00000000000E+00 -0.00000000000E+00 -0.55553971146E+02  0.55553971205E+02  0.25500000000E-02 0. -1.
    5000001    1    1    2    0    0 -0.17524302492E+03 -0.10446144315E+01  0.68774078879E+03  0.73522962506E+03  0.19200000000E+03 0.  0.
   -5000001    1    1    2    0    0  0.17524302492E+03  0.10446144315E+01  0.49928254462E+03  0.56290165070E+03  0.19200000000E+03 0.  0.
<mgrwt>
<rscale>  0 0.52547161E+03</rscale>
<asrwt>0</asrwt>
<pdfrwt beam="1">  1        2 0.17751103E+00 0.52547161E+03</pdfrwt>
<pdfrwt beam="2">  1       -2 0.79362821E-02 0.52547161E+03</pdfrwt>
<totfact> 0.20307673E+03</totfact>
</mgrwt>
</event>
<event>
 4    1  0.5847263E-005  0.5236147E+03  0.7818608E-02  0.1007793E+00
          2   -1    0    0  501    0  0.00000000000E+00  0.00000000000E+00  0.27399447338E+04  0.27399447338E+04  0.25500000000E-02 0.  1.
         -2   -1    0    0    0  501 -0.00000000000E+00 -0.00000000000E+00 -0.25016228968E+02  0.25016229098E+02  0.25500000000E-02 0. -1.
    5000001    1    1    2    0    0  0.11884270083E+03 -0.76301571245E+02  0.78546926064E+03  0.82083584030E+03  0.19200000000E+03 0.  0.
   -5000001    1    1    2    0    0 -0.11884270083E+03  0.76301571245E+02  0.19294592442E+04  0.19441251226E+04  0.19200000000E+03 0.  0.
<mgrwt>
<rscale>  0 0.52361469E+03</rscale>
<asrwt>0</asrwt>
<pdfrwt beam="1">  1        2 0.39142077E+00 0.52361469E+03</pdfrwt>
<pdfrwt beam="2">  1       -2 0.35737461E-02 0.52361469E+03</pdfrwt>
<totfact> 0.12025498E+03</totfact>
</mgrwt>
</event>
<event>
 4    1  0.5847263E-005  0.1224674E+04  0.7818608E-02  0.9091529E-01
         -2   -1    0    0    0  501 -0.00000000000E+00  0.00000000000E+00  0.85837913016E+03  0.85837913017E+03  0.25500000000E-02 0. -1.
          2   -1    0    0  501    0  0.00000000000E+00 -0.00000000000E+00 -0.43681967250E+03  0.43681967250E+03  0.25500000000E-02 0.  1.
    5000001    1    1    2    0    0 -0.23136543062E+03 -0.23805776579E+03 -0.29409050254E+03  0.48327495902E+03  0.19200000000E+03 0.  0.
   -5000001    1    1    2    0    0  0.23136543062E+03  0.23805776579E+03  0.71564996021E+03  0.81192384364E+03  0.19200000000E+03 0.  0.
<mgrwt>
<rscale>  0 0.12246745E+04</rscale>
<asrwt>0</asrwt>
<pdfrwt beam="1">  1        2 0.62402809E-01 0.12246745E+04</pdfrwt>
<pdfrwt beam="2">  1       -2 0.12262559E+00 0.12246745E+04</pdfrwt>
<totfact> 0.38844635E+01</totfact>
</mgrwt>
</event>
<event>
 4    1  0.5847263E-005  0.4272403E+03  0.7818608E-02  0.1034735E+00
          2   -1    0    0  501    0  0.00000000000E+00  0.00000000000E+00  0.13361455316E+04  0.13361455316E+04  0.25500000000E-02 0.  1.
         -2   -1    0    0    0  501 -0.00000000000E+00 -0.00000000000E+00 -0.34153141725E+02  0.34153141820E+02  0.25500000000E-02 0. -1.
    5000001    1    1    2    0    0  0.52171667345E+02  0.74461570346E+02  0.57905198599E+03  0.61679138354E+03  0.19200000000E+03 0.  0.
   -5000001    1    1    2    0    0 -0.52171667345E+02 -0.74461570346E+02  0.72294040385E+03  0.75350728984E+03  0.19200000000E+03 0.  0.
<mgrwt>
<rscale>  0 0.42724030E+03</rscale>
<asrwt>0</asrwt>
<pdfrwt beam="1">  1        2 0.19087794E+00 0.42724030E+03</pdfrwt>
<pdfrwt beam="2">  1       -2 0.48790202E-02 0.42724030E+03</pdfrwt>
<totfact> 0.38650515E+03</totfact>
</mgrwt>
</event>
<event>
 4    1  0.5847263E-005  0.5170364E+03  0.7818608E-02  0.1009425E+00
         -2   -1    0    0    0  501 -0.00000000000E+00  0.00000000000E+00  0.38679716826E+02  0.38679716910E+02  0.25500000000E-02 0.  1.
          2   -1    0    0  501    0  0.00000000000E+00 -0.00000000000E+00 -0.17278216249E+04  0.17278216249E+04  0.25500000000E-02 0. -1.
    5000001    1    1    2    0    0 -0.75616782999E+02  0.15382165518E+03 -0.76167714221E+03  0.80398698275E+03  0.19200000000E+03 0.  0.
   -5000001    1    1    2    0    0  0.75616782999E+02 -0.15382165518E+03 -0.92746476591E+03  0.96251435910E+03  0.19200000000E+03 0.  0.
<mgrwt>
<rscale>  0 0.51703637E+03</rscale>
<asrwt>0</asrwt>
<pdfrwt beam="1">  1        2 0.24683161E+00 0.51703637E+03</pdfrwt>
<pdfrwt beam="2">  1       -2 0.55256749E-02 0.51703637E+03</pdfrwt>
<totfact> 0.20007374E+03</totfact>
</mgrwt>
</event>
<event>
 4    1  0.5847263E-005  0.6135869E+03  0.7818608E-02  0.9877612E-01
          2   -1    0    0  501    0  0.00000000000E+00  0.00000000000E+00  0.18497585278E+04  0.18497585278E+04  0.25500000000E-02 0.  1.
         -2   -1    0    0    0  501 -0.00000000000E+00 -0.00000000000E+00 -0.50883512487E+02  0.50883512551E+02  0.25500000000E-02 0. -1.
    5000001    1    1    2    0    0 -0.14925564821E+03  0.12724981839E+03  0.13240274574E+04  0.13521769384E+04  0.19200000000E+03 0.  0.
   -5000001    1    1    2    0    0  0.14925564821E+03 -0.12724981839E+03  0.47484755792E+03  0.54846510196E+03  0.19200000000E+03 0.  0.
<mgrwt>
<rscale>  0 0.61358687E+03</rscale>
<asrwt>0</asrwt>
<pdfrwt beam="1">  1        2 0.26425114E+00 0.61358687E+03</pdfrwt>
<pdfrwt beam="2">  1       -2 0.72690753E-02 0.61358687E+03</pdfrwt>
<totfact> 0.11248190E+03</totfact>
</mgrwt>
</event>
<event>
 4    1  0.5847263E-005  0.5143482E+03  0.7818608E-02  0.1010100E+00
          2   -1    0    0  501    0  0.00000000000E+00  0.00000000000E+00  0.28903498092E+03  0.28903498093E+03  0.25500000000E-02 0.  1.
         -2   -1    0    0    0  501 -0.00000000000E+00 -0.00000000000E+00 -0.22882527190E+03  0.22882527191E+03  0.25500000000E-02 0. -1.
    5000001    1    1    2    0    0  0.14669871073E+03  0.87878317714E+02  0.24463232959E+02  0.25827419581E+03  0.19200000000E+03 0.  0.
   -5000001    1    1    2    0    0 -0.14669871073E+03 -0.87878317714E+02  0.35746476063E+02  0.25958605703E+03  0.19200000000E+03 0.  0.
<mgrwt>
<rscale>  0 0.51434816E+03</rscale>
<asrwt>0</asrwt>
<pdfrwt beam="1">  1        2 0.41290712E-01 0.51434816E+03</pdfrwt>
<pdfrwt beam="2">  1       -2 0.32689324E-01 0.51434816E+03</pdfrwt>
<totfact> 0.10851272E+03</totfact>
</mgrwt>
</event>
<event>
 4    1  0.5847263E-005  0.4731048E+03  0.7818608E-02  0.1021048E+00
          2   -1    0    0  501    0  0.00000000000E+00  0.00000000000E+00  0.13176163738E+04  0.13176163738E+04  0.25500000000E-02 0.  1.
         -2   -1    0    0    0  501 -0.00000000000E+00 -0.00000000000E+00 -0.42468376655E+02  0.42468376732E+02  0.25500000000E-02 0. -1.
    5000001    1    1    2    0    0  0.97621829333E+02  0.62407667254E+02  0.85401258288E+03  0.88296445580E+03  0.19200000000E+03 0.  0.
   -5000001    1    1    2    0    0 -0.97621829333E+02 -0.62407667254E+02  0.42113541425E+03  0.47712029472E+03  0.19200000000E+03 0.  0.
<mgrwt>
<rscale>  0 0.47310476E+03</rscale>
<asrwt>0</asrwt>
<pdfrwt beam="1">  1        2 0.18823091E+00 0.47310476E+03</pdfrwt>
<pdfrwt beam="2">  1       -2 0.60669111E-02 0.47310476E+03</pdfrwt>
<totfact> 0.28225317E+03</totfact>
</mgrwt>
</event>
<event>
 4    1  0.5847263E-005  0.4370961E+03  0.7818608E-02  0.1031642E+00
          2   -1    0    0  501    0  0.00000000000E+00  0.00000000000E+00  0.97052034883E+03  0.97052034884E+03  0.25500000000E-02 0.  1.
         -2   -1    0    0    0  501 -0.00000000000E+00 -0.00000000000E+00 -0.49214064394E+02  0.49214064460E+02  0.25500000000E-02 0. -1.
    5000001    1    1    2    0    0  0.77640670752E+02 -0.38642217842E+02  0.59624610460E+03  0.63237228909E+03  0.19200000000E+03 0.  0.
   -5000001    1    1    2    0    0 -0.77640670752E+02  0.38642217842E+02  0.32506017984E+03  0.38736212421E+03  0.19200000000E+03 0.  0.
<mgrwt>
<rscale>  0 0.43709610E+03</rscale>
<asrwt>0</asrwt>
<pdfrwt beam="1">  1        2 0.13864577E+00 0.43709610E+03</pdfrwt>
<pdfrwt beam="2">  1       -2 0.70305805E-02 0.43709610E+03</pdfrwt>
<totfact> 0.35298397E+03</totfact>
</mgrwt>
</event>
<event>
 4    1  0.5847263E-005  0.4314978E+03  0.7818608E-02  0.1033388E+00
          2   -1    0    0  501    0  0.00000000000E+00  0.00000000000E+00  0.10697823072E+04  0.10697823072E+04  0.25500000000E-02 0.  1.
         -2   -1    0    0    0  501 -0.00000000000E+00 -0.00000000000E+00 -0.43511280738E+02  0.43511280812E+02  0.25500000000E-02 0. -1.
    5000001    1    1    2    0    0  0.50747703588E+02 -0.30470505000E+02  0.31031172542E+03  0.36967708616E+03  0.19200000000E+03 0.  0.
   -5000001    1    1    2    0    0 -0.50747703588E+02  0.30470505000E+02  0.71595930108E+03  0.74361650190E+03  0.19200000000E+03 0.  0.
<mgrwt>
<rscale>  0 0.43149785E+03</rscale>
<asrwt>0</asrwt>
<pdfrwt beam="1">  1        2 0.15282606E+00 0.43149785E+03</pdfrwt>
<pdfrwt beam="2">  1       -2 0.62158968E-02 0.43149785E+03</pdfrwt>
<totfact> 0.37336081E+03</totfact>
</mgrwt>
</event>
<event>
 4    1  0.5847263E-005  0.5783503E+03  0.7818608E-02  0.9951369E-01
          2   -1    0    0  501    0  0.00000000000E+00  0.00000000000E+00  0.94215190775E+03  0.94215190775E+03  0.25500000000E-02 0.  1.
         -2   -1    0    0    0  501 -0.00000000000E+00 -0.00000000000E+00 -0.88756668098E+02  0.88756668134E+02  0.25500000000E-02 0. -1.
    5000001    1    1    2    0    0 -0.27218656928E+02 -0.20370308985E+03  0.54656929301E+03  0.61468511952E+03  0.19200000000E+03 0.  0.
   -5000001    1    1    2    0    0  0.27218656928E+02  0.20370308985E+03  0.30682594664E+03  0.41622345637E+03  0.19200000000E+03 0.  0.
<mgrwt>
<rscale>  0 0.57835029E+03</rscale>
<asrwt>0</asrwt>
<pdfrwt beam="1">  1        2 0.13459313E+00 0.57835029E+03</pdfrwt>
<pdfrwt beam="2">  1       -2 0.12679524E-01 0.57835029E+03</pdfrwt>
<totfact> 0.14235429E+03</totfact>
</mgrwt>
</event>
<event>
 4    1  0.5847263E-005  0.4627447E+03  0.7818608E-02  0.1023988E+00
          2   -1    0    0  501    0  0.00000000000E+00  0.00000000000E+00  0.86622765825E+03  0.86622765825E+03  0.25500000000E-02 0.  1.
         -2   -1    0    0    0  501 -0.00000000000E+00 -0.00000000000E+00 -0.61800343239E+02  0.61800343292E+02  0.25500000000E-02 0. -1.
    5000001    1    1    2    0    0 -0.10076943107E+03  0.69631014807E+02  0.48407606415E+03  0.53497345013E+03  0.19200000000E+03 0.  0.
   -5000001    1    1    2    0    0  0.10076943107E+03 -0.69631014807E+02  0.32035125086E+03  0.39305455141E+03  0.19200000000E+03 0.  0.
<mgrwt>
<rscale>  0 0.46274471E+03</rscale>
<asrwt>0</asrwt>
<pdfrwt beam="1">  1        2 0.12374680E+00 0.46274471E+03</pdfrwt>
<pdfrwt beam="2">  1       -2 0.88286210E-02 0.46274471E+03</pdfrwt>
<totfact> 0.28667130E+03</totfact>
</mgrwt>
</event>
<event>
 4    1  0.5847263E-005  0.6768226E+03  0.7818608E-02  0.9757711E-01
          2   -1    0    0  501    0  0.00000000000E+00  0.00000000000E+00  0.90573256613E+03  0.90573256613E+03  0.25500000000E-02 0.  1.
         -2   -1    0    0    0  501 -0.00000000000E+00 -0.00000000000E+00 -0.12644152190E+03  0.12644152193E+03  0.25500000000E-02 0. -1.
    5000001    1    1    2    0    0  0.17897737502E+03  0.19109466663E+03  0.53518900355E+03  0.62597231720E+03  0.19200000000E+03 0.  0.
   -5000001    1    1    2    0    0 -0.17897737502E+03 -0.19109466663E+03  0.24410204068E+03  0.40620177086E+03  0.19200000000E+03 0.  0.
<mgrwt>
<rscale>  0 0.67682259E+03</rscale>
<asrwt>0</asrwt>
<pdfrwt beam="1">  1        2 0.12939037E+00 0.67682259E+03</pdfrwt>
<pdfrwt beam="2">  1       -2 0.18063075E-01 0.67682259E+03</pdfrwt>
<totfact> 0.82474350E+02</totfact>
</mgrwt>
</event>
<event>
 4    1  0.5847263E-005  0.5099144E+03  0.7818608E-02  0.1011223E+00
         -2   -1    0    0    0  501 -0.00000000000E+00  0.00000000000E+00  0.45402418233E+02  0.45402418305E+02  0.25500000000E-02 0. -1.
          2   -1    0    0  501    0  0.00000000000E+00 -0.00000000000E+00 -0.14317116400E+04  0.14317116400E+04  0.25500000000E-02 0.  1.
    5000001    1    1    2    0    0  0.10957910380E+03 -0.12395931153E+03 -0.77331141004E+03  0.81378622979E+03  0.19200000000E+03 0.  0.
   -5000001    1    1    2    0    0 -0.10957910380E+03  0.12395931153E+03 -0.61299781177E+03  0.66332782855E+03  0.19200000000E+03 0.  0.
<mgrwt>
<rscale>  0 0.50991439E+03</rscale>
<asrwt>0</asrwt>
<pdfrwt beam="1">  1        2 0.20453021E+00 0.50991439E+03</pdfrwt>
<pdfrwt beam="2">  1       -2 0.64860606E-02 0.50991439E+03</pdfrwt>
<totfact> 0.22110677E+03</totfact>
</mgrwt>
</event>
<event>
 4    1  0.5847263E-005  0.5078859E+03  0.7818608E-02  0.1011741E+00
          2   -1    0    0  501    0  0.00000000000E+00  0.00000000000E+00  0.20834089369E+04  0.20834089369E+04  0.25500000000E-02 0.  1.
         -2   -1    0    0    0  501 -0.00000000000E+00 -0.00000000000E+00 -0.30952644304E+02  0.30952644409E+02  0.25500000000E-02 0. -1.
    5000001    1    1    2    0    0 -0.10963399705E+03 -0.12465377671E+03  0.99270616676E+03  0.10246402837E+04  0.19200000000E+03 0.  0.
   -5000001    1    1    2    0    0  0.10963399705E+03  0.12465377671E+03  0.10597501258E+04  0.10897212976E+04  0.19200000000E+03 0.  0.
<mgrwt>
<rscale>  0 0.50788588E+03</rscale>
<asrwt>0</asrwt>
<pdfrwt beam="1">  1        2 0.29762983E+00 0.50788588E+03</pdfrwt>
<pdfrwt beam="2">  1       -2 0.44218065E-02 0.50788588E+03</pdfrwt>
<totfact> 0.18743058E+03</totfact>
</mgrwt>
</event>
<event>
 4    1  0.5847263E-005  0.8379064E+03  0.7818608E-02  0.9506714E-01
          2   -1    0    0  501    0  0.00000000000E+00  0.00000000000E+00  0.18288634007E+04  0.18288634007E+04  0.25500000000E-02 0.  1.
         -2   -1    0    0    0  501 -0.00000000000E+00 -0.00000000000E+00 -0.95973160225E+02  0.95973160259E+02  0.25500000000E-02 0. -1.
    5000001    1    1    2    0    0  0.36494412186E+03 -0.49282080512E+02  0.73968509129E+03  0.84829886821E+03  0.19200000000E+03 0.  0.
   -5000001    1    1    2    0    0 -0.36494412186E+03  0.49282080512E+02  0.99320514922E+03  0.10765376928E+04  0.19200000000E+03 0.  0.
<mgrwt>
<rscale>  0 0.83790644E+03</rscale>
<asrwt>0</asrwt>
<pdfrwt beam="1">  1        2 0.26126620E+00 0.83790644E+03</pdfrwt>
<pdfrwt beam="2">  1       -2 0.13710451E-01 0.83790644E+03</pdfrwt>
<totfact> 0.40509777E+02</totfact>
</mgrwt>
</event>
<event>
 4    1  0.5847263E-005  0.4665561E+03  0.7818608E-02  0.1022897E+00
         -2   -1    0    0    0  501 -0.00000000000E+00  0.00000000000E+00  0.29279487611E+03  0.29279487612E+03  0.25500000000E-02 0. -1.
          2   -1    0    0  501    0  0.00000000000E+00 -0.00000000000E+00 -0.18585930145E+03  0.18585930147E+03  0.25500000000E-02 0.  1.
    5000001    1    1    2    0    0 -0.12971048225E+03 -0.11660581183E+01  0.81158074439E+02  0.24551334372E+03  0.19200000000E+03 0.  0.
   -5000001    1    1    2    0    0  0.12971048225E+03  0.11660581183E+01  0.25777500220E+02  0.23314083387E+03  0.19200000000E+03 0.  0.
<mgrwt>
<rscale>  0 0.46655611E+03</rscale>
<asrwt>0</asrwt>
<pdfrwt beam="1">  1        2 0.26551329E-01 0.46655611E+03</pdfrwt>
<pdfrwt beam="2">  1       -2 0.41827839E-01 0.46655611E+03</pdfrwt>
<totfact> 0.11075610E+03</totfact>
</mgrwt>
</event>
<event>
 4    1  0.5847263E-005  0.6963049E+03  0.7818608E-02  0.9723572E-01
          2   -1    0    0  501    0  0.00000000000E+00  0.00000000000E+00  0.17501017792E+04  0.17501017792E+04  0.25500000000E-02 0.  1.
         -2   -1    0    0    0  501 -0.00000000000E+00 -0.00000000000E+00 -0.69258911043E+02  0.69258911090E+02  0.25500000000E-02 0. -1.
    5000001    1    1    2    0    0 -0.38732339577E+02  0.25691445052E+03  0.11795014257E+04  0.12229443332E+04  0.19200000000E+03 0.  0.
   -5000001    1    1    2    0    0  0.38732339577E+02 -0.25691445052E+03  0.50134144247E+03  0.59641635705E+03  0.19200000000E+03 0.  0.
<mgrwt>
<rscale>  0 0.69630494E+03</rscale>
<asrwt>0</asrwt>
<pdfrwt beam="1">  1        2 0.25001456E+00 0.69630494E+03</pdfrwt>
<pdfrwt beam="2">  1       -2 0.98941295E-02 0.69630494E+03</pdfrwt>
<totfact> 0.76733688E+02</totfact>
</mgrwt>
</event>
<event>
 4    1  0.5847263E-005  0.6419298E+03  0.7818608E-02  0.9822041E-01
         -2   -1    0    0    0  501 -0.00000000000E+00  0.00000000000E+00  0.28905795579E+02  0.28905795692E+02  0.25500000000E-02 0. -1.
          2   -1    0    0  501    0  0.00000000000E+00 -0.00000000000E+00 -0.35639383469E+04  0.35639383469E+04  0.25500000000E-02 0.  1.
    5000001    1    1    2    0    0  0.59290091643E+02 -0.19025599443E+03 -0.85740088356E+03  0.90095112715E+03  0.19200000000E+03 0.  0.
   -5000001    1    1    2    0    0 -0.59290091643E+02  0.19025599443E+03 -0.26776316678E+04  0.26918930154E+04  0.19200000000E+03 0.  0.
<mgrwt>
<rscale>  0 0.64192982E+03</rscale>
<asrwt>0</asrwt>
<pdfrwt beam="1">  1        2 0.50913377E+00 0.64192982E+03</pdfrwt>
<pdfrwt beam="2">  1       -2 0.41294017E-02 0.64192982E+03</pdfrwt>
<totfact> 0.32984435E+02</totfact>
</mgrwt>
</event>
<event>
 4    1  0.5847263E-005  0.6562487E+03  0.7818608E-02  0.9795124E-01
          2   -1    0    0  501    0  0.00000000000E+00  0.00000000000E+00  0.13422447343E+04  0.13422447343E+04  0.25500000000E-02 0.  1.
         -2   -1    0    0    0  501 -0.00000000000E+00 -0.00000000000E+00 -0.80213071623E+02  0.80213071664E+02  0.25500000000E-02 0. -1.
    5000001    1    1    2    0    0  0.22672779469E+03  0.11406322121E+03  0.45780544786E+03  0.55755335117E+03  0.19200000000E+03 0.  0.
   -5000001    1    1    2    0    0 -0.22672779469E+03 -0.11406322121E+03  0.80422621486E+03  0.86490445483E+03  0.19200000000E+03 0.  0.
<mgrwt>
<rscale>  0 0.65624865E+03</rscale>
<asrwt>0</asrwt>
<pdfrwt beam="1">  1        2 0.19174923E+00 0.65624865E+03</pdfrwt>
<pdfrwt beam="2">  1       -2 0.11459012E-01 0.65624865E+03</pdfrwt>
<totfact> 0.98686632E+02</totfact>
</mgrwt>
</event>
<event>
 4    1  0.5847263E-005  0.6488942E+03  0.7818608E-02  0.9808856E-01
          2   -1    0    0  501    0  0.00000000000E+00  0.00000000000E+00  0.14434275542E+04  0.14434275542E+04  0.25500000000E-02 0.  1.
         -2   -1    0    0    0  501 -0.00000000000E+00 -0.00000000000E+00 -0.72927757559E+02  0.72927757603E+02  0.25500000000E-02 0. -1.
    5000001    1    1    2    0    0 -0.83063314279E+01 -0.19360306191E+03  0.27479992782E+03  0.38720813660E+03  0.19200000000E+03 0.  0.
   -5000001    1    1    2    0    0  0.83063314279E+01  0.19360306191E+03  0.10956998688E+04  0.11291471752E+04  0.19200000000E+03 0.  0.
<mgrwt>
<rscale>  0 0.64889424E+03</rscale>
<asrwt>0</asrwt>
<pdfrwt beam="1">  1        2 0.20620392E+00 0.64889424E+03</pdfrwt>
<pdfrwt beam="2">  1       -2 0.10418252E-01 0.64889424E+03</pdfrwt>
<totfact> 0.10186503E+03</totfact>
</mgrwt>
</event>
<event>
 4    1  0.5847263E-005  0.6296549E+03  0.7818608E-02  0.9845722E-01
         -2   -1    0    0    0  501 -0.00000000000E+00  0.00000000000E+00  0.14144493829E+03  0.14144493831E+03  0.25500000000E-02 0. -1.
          2   -1    0    0  501    0  0.00000000000E+00 -0.00000000000E+00 -0.70074144963E+03  0.70074144964E+03  0.25500000000E-02 0.  1.
    5000001    1    1    2    0    0  0.15840987371E+02  0.17969457263E+03 -0.51019877778E+03  0.57420194110E+03  0.19200000000E+03 0.  0.
   -5000001    1    1    2    0    0 -0.15840987371E+02 -0.17969457263E+03 -0.49097733565E+02  0.26798444685E+03  0.19200000000E+03 0.  0.
<mgrwt>
<rscale>  0 0.62965492E+03</rscale>
<asrwt>0</asrwt>
<pdfrwt beam="1">  1        2 0.10010592E+00 0.62965492E+03</pdfrwt>
<pdfrwt beam="2">  1       -2 0.20206420E-01 0.62965492E+03</pdfrwt>
<totfact> 0.94447227E+02</totfact>
</mgrwt>
</event>
<event>
 4    1  0.5847263E-005  0.5246485E+03  0.7818608E-02  0.1007538E+00
         -2   -1    0    0    0  501 -0.00000000000E+00  0.00000000000E+00  0.18030964204E+03  0.18030964206E+03  0.25500000000E-02 0. -1.
          2   -1    0    0  501    0  0.00000000000E+00 -0.00000000000E+00 -0.38164350607E+03  0.38164350608E+03  0.25500000000E-02 0.  1.
    5000001    1    1    2    0    0 -0.13784227617E+03  0.92606114185E+02 -0.17150262504E+03  0.30635524458E+03  0.19200000000E+03 0.  0.
   -5000001    1    1    2    0    0  0.13784227617E+03 -0.92606114185E+02 -0.29831238987E+02  0.25559790356E+03  0.19200000000E+03 0.  0.
<mgrwt>
<rscale>  0 0.52464847E+03</rscale>
<asrwt>0</asrwt>
<pdfrwt beam="1">  1        2 0.54520501E-01 0.52464847E+03</pdfrwt>
<pdfrwt beam="2">  1       -2 0.25758520E-01 0.52464847E+03</pdfrwt>
<totfact> 0.12367984E+03</totfact>
</mgrwt>
</event>
<event>
 4    1  0.5847263E-005  0.5113273E+03  0.7818608E-02  0.1010864E+00
          2   -1    0    0  501    0  0.00000000000E+00  0.00000000000E+00  0.12753274449E+04  0.12753274449E+04  0.25500000000E-02 0.  1.
         -2   -1    0    0    0  501 -0.00000000000E+00 -0.00000000000E+00 -0.51252644760E+02  0.51252644823E+02  0.25500000000E-02 0. -1.
    5000001    1    1    2    0    0 -0.91947062891E+02 -0.83437530254E+02  0.90879495049E+03  0.93711703958E+03  0.19200000000E+03 0.  0.
   -5000001    1    1    2    0    0  0.91947062891E+02  0.83437530254E+02  0.31527984960E+03  0.38946305010E+03  0.19200000000E+03 0.  0.
<mgrwt>
<rscale>  0 0.51132731E+03</rscale>
<asrwt>0</asrwt>
<pdfrwt beam="1">  1        2 0.18218963E+00 0.51132731E+03</pdfrwt>
<pdfrwt beam="2">  1       -2 0.73218066E-02 0.51132731E+03</pdfrwt>
<totfact> 0.22143947E+03</totfact>
</mgrwt>
</event>
<event>
 4    1  0.5847263E-005  0.4797189E+03  0.7818608E-02  0.1019212E+00
         -2   -1    0    0    0  501 -0.00000000000E+00  0.00000000000E+00  0.40279209069E+02  0.40279209149E+02  0.25500000000E-02 0. -1.
          2   -1    0    0  501    0  0.00000000000E+00 -0.00000000000E+00 -0.14283434409E+04  0.14283434409E+04  0.25500000000E-02 0.  1.
    5000001    1    1    2    0    0 -0.14152735750E+03  0.24190919275E+02 -0.71639322099E+03  0.75544585549E+03  0.19200000000E+03 0.  0.
   -5000001    1    1    2    0    0  0.14152735750E+03 -0.24190919275E+02 -0.67167101082E+03  0.71317679454E+03  0.19200000000E+03 0.  0.
<mgrwt>
<rscale>  0 0.47971885E+03</rscale>
<asrwt>0</asrwt>
<pdfrwt beam="1">  1        2 0.20404903E+00 0.47971885E+03</pdfrwt>
<pdfrwt beam="2">  1       -2 0.57541736E-02 0.47971885E+03</pdfrwt>
<totfact> 0.26774757E+03</totfact>
</mgrwt>
</event>
<event>
 4    1  0.5847263E-005  0.4639686E+03  0.7818608E-02  0.1023636E+00
          2   -1    0    0  501    0  0.00000000000E+00  0.00000000000E+00  0.71839816145E+03  0.71839816146E+03  0.25500000000E-02 0.  1.
         -2   -1    0    0    0  501 -0.00000000000E+00 -0.00000000000E+00 -0.74912092105E+02  0.74912092148E+02  0.25500000000E-02 0. -1.
    5000001    1    1    2    0    0  0.40419275881E+02  0.92497133269E+02  0.18112762350E+03  0.28259627301E+03  0.19200000000E+03 0.  0.
   -5000001    1    1    2    0    0 -0.40419275881E+02 -0.92497133269E+02  0.46235844585E+03  0.51071398059E+03  0.19200000000E+03 0.  0.
<mgrwt>
<rscale>  0 0.46396857E+03</rscale>
<asrwt>0</asrwt>
<pdfrwt beam="1">  1        2 0.10262830E+00 0.46396857E+03</pdfrwt>
<pdfrwt beam="2">  1       -2 0.10701728E-01 0.46396857E+03</pdfrwt>
<totfact> 0.26637118E+03</totfact>
</mgrwt>
</event>
<event>
 4    1  0.5847263E-005  0.4212227E+03  0.7818608E-02  0.1036669E+00
          2   -1    0    0  501    0  0.00000000000E+00  0.00000000000E+00  0.12918440390E+04  0.12918440390E+04  0.25500000000E-02 0.  1.
         -2   -1    0    0    0  501 -0.00000000000E+00 -0.00000000000E+00 -0.34336289055E+02  0.34336289150E+02  0.25500000000E-02 0. -1.
    5000001    1    1    2    0    0  0.39737527924E+01  0.78288051138E+02  0.74436176420E+03  0.77271161869E+03  0.19200000000E+03 0.  0.
   -5000001    1    1    2    0    0 -0.39737527924E+01 -0.78288051138E+02  0.51314598573E+03  0.55346870945E+03  0.19200000000E+03 0.  0.
<mgrwt>
<rscale>  0 0.42122265E+03</rscale>
<asrwt>0</asrwt>
<pdfrwt beam="1">  1        2 0.18454916E+00 0.42122265E+03</pdfrwt>
<pdfrwt beam="2">  1       -2 0.49051839E-02 0.42122265E+03</pdfrwt>
<totfact> 0.40480923E+03</totfact>
</mgrwt>
</event>
<event>
 4    1  0.5847263E-005  0.4971132E+03  0.7818608E-02  0.1014535E+00
         -2   -1    0    0    0  501 -0.00000000000E+00  0.00000000000E+00  0.26445152537E+03  0.26445152539E+03  0.25500000000E-02 0. -1.
          2   -1    0    0  501    0  0.00000000000E+00 -0.00000000000E+00 -0.23361705680E+03  0.23361705681E+03  0.25500000000E-02 0.  1.
    5000001    1    1    2    0    0  0.42025243649E+02 -0.14305741617E+03  0.67332272039E+02  0.25224825130E+03  0.19200000000E+03 0.  0.
   -5000001    1    1    2    0    0 -0.42025243649E+02  0.14305741617E+03 -0.36497803464E+02  0.24582033090E+03  0.19200000000E+03 0.  0.
<mgrwt>
<rscale>  0 0.49711321E+03</rscale>
<asrwt>0</asrwt>
<pdfrwt beam="1">  1        2 0.33373865E-01 0.49711321E+03</pdfrwt>
<pdfrwt beam="2">  1       -2 0.37778789E-01 0.49711321E+03</pdfrwt>
<totfact> 0.10441479E+03</totfact>
</mgrwt>
</event>
<event>
 4    1  0.5847263E-005  0.4589652E+03  0.7818608E-02  0.1025082E+00
         -2   -1    0    0    0  501 -0.00000000000E+00  0.00000000000E+00  0.16416928649E+02  0.16416928847E+02  0.25500000000E-02 0. -1.
          2   -1    0    0  501    0  0.00000000000E+00 -0.00000000000E+00 -0.32078025556E+04  0.32078025556E+04  0.25500000000E-02 0.  1.
    5000001    1    1    2    0    0 -0.70641309321E+02 -0.56375703938E+02 -0.98206805846E+03  0.10047338384E+04  0.19200000000E+03 0.  0.
   -5000001    1    1    2    0    0  0.70641309321E+02  0.56375703938E+02 -0.22093175685E+04  0.22194856461E+04  0.19200000000E+03 0.  0.
<mgrwt>
<rscale>  0 0.45896521E+03</rscale>
<asrwt>0</asrwt>
<pdfrwt beam="1">  1        2 0.45825711E+00 0.45896521E+03</pdfrwt>
<pdfrwt beam="2">  1       -2 0.23452776E-02 0.45896521E+03</pdfrwt>
<totfact> 0.12789707E+03</totfact>
</mgrwt>
</event>
<event>
 4    1  0.5847263E-005  0.5453352E+03  0.7818608E-02  0.1002579E+00
          2   -1    0    0  501    0  0.00000000000E+00  0.00000000000E+00  0.26822689995E+03  0.26822689996E+03  0.25500000000E-02 0.  1.
         -2   -1    0    0    0  501 -0.00000000000E+00 -0.00000000000E+00 -0.27718182267E+03  0.27718182269E+03  0.25500000000E-02 0. -1.
    5000001    1    1    2    0    0  0.15719219208E+03 -0.10430484377E+03  0.39056964666E+02  0.27198958100E+03  0.19200000000E+03 0.  0.
   -5000001    1    1    2    0    0 -0.15719219208E+03  0.10430484377E+03 -0.48011887391E+02  0.27341914164E+03  0.19200000000E+03 0.  0.
<mgrwt>
<rscale>  0 0.54533520E+03</rscale>
<asrwt>0</asrwt>
<pdfrwt beam="1">  1        2 0.38318129E-01 0.54533520E+03</pdfrwt>
<pdfrwt beam="2">  1       -2 0.39597403E-01 0.54533520E+03</pdfrwt>
<totfact> 0.81845181E+02</totfact>
</mgrwt>
</event>
<event>
 4    1  0.5847263E-005  0.8184080E+03  0.7818608E-02  0.9533748E-01
         -2   -1    0    0    0  501 -0.00000000000E+00  0.00000000000E+00  0.12939084868E+03  0.12939084870E+03  0.25500000000E-02 0. -1.
          2   -1    0    0  501    0  0.00000000000E+00 -0.00000000000E+00 -0.12941249248E+04  0.12941249248E+04  0.25500000000E-02 0.  1.
    5000001    1    1    2    0    0  0.15627245383E+03  0.21919417749E+03 -0.10016846321E+04  0.10548475101E+04  0.19200000000E+03 0.  0.
   -5000001    1    1    2    0    0 -0.15627245383E+03 -0.21919417749E+03 -0.16304944398E+03  0.36866826342E+03  0.19200000000E+03 0.  0.
<mgrwt>
<rscale>  0 0.81840802E+03</rscale>
<asrwt>0</asrwt>
<pdfrwt beam="1">  1        2 0.18487498E+00 0.81840802E+03</pdfrwt>
<pdfrwt beam="2">  1       -2 0.18484408E-01 0.81840802E+03</pdfrwt>
<totfact> 0.46500023E+02</totfact>
</mgrwt>
</event>
<event>
 4    1  0.5847263E-005  0.5535585E+03  0.7818608E-02  0.1000674E+00
          2   -1    0    0  501    0  0.00000000000E+00  0.00000000000E+00  0.41354537300E+03  0.41354537301E+03  0.25500000000E-02 0.  1.
         -2   -1    0    0    0  501 -0.00000000000E+00 -0.00000000000E+00 -0.18524387725E+03  0.18524387727E+03  0.25500000000E-02 0. -1.
    5000001    1    1    2    0    0  0.11142282668E+03  0.15396777990E+03  0.17924793322E+03  0.32421435057E+03  0.19200000000E+03 0.  0.
   -5000001    1    1    2    0    0 -0.11142282668E+03 -0.15396777990E+03  0.49053562540E+02  0.27457489971E+03  0.19200000000E+03 0.  0.
<mgrwt>
<rscale>  0 0.55355848E+03</rscale>
<asrwt>0</asrwt>
<pdfrwt beam="1">  1        2 0.59077909E-01 0.55355848E+03</pdfrwt>
<pdfrwt beam="2">  1       -2 0.26463412E-01 0.55355848E+03</pdfrwt>
<totfact> 0.10777173E+03</totfact>
</mgrwt>
</event>
<event>
 4    1  0.5847263E-005  0.4460827E+03  0.7818608E-02  0.1028897E+00
          2   -1    0    0  501    0  0.00000000000E+00  0.00000000000E+00  0.56771491899E+03  0.56771491899E+03  0.25500000000E-02 0.  1.
         -2   -1    0    0    0  501 -0.00000000000E+00 -0.00000000000E+00 -0.87627523475E+02  0.87627523512E+02  0.25500000000E-02 0. -1.
    5000001    1    1    2    0    0 -0.85196242140E+02  0.29473216868E+02  0.13872461474E+03  0.25344740859E+03  0.19200000000E+03 0.  0.
   -5000001    1    1    2    0    0  0.85196242140E+02 -0.29473216868E+02  0.34136278077E+03  0.40189503391E+03  0.19200000000E+03 0.  0.
<mgrwt>
<rscale>  0 0.44608274E+03</rscale>
<asrwt>0</asrwt>
<pdfrwt beam="1">  1        2 0.81102134E-01 0.44608274E+03</pdfrwt>
<pdfrwt beam="2">  1       -2 0.12518217E-01 0.44608274E+03</pdfrwt>
<totfact> 0.27246471E+03</totfact>
</mgrwt>
</event>
<event>
 4    1  0.5847263E-005  0.5539754E+03  0.7818608E-02  0.1000578E+00
         -2   -1    0    0    0  501 -0.00000000000E+00  0.00000000000E+00  0.16441277749E+03  0.16441277751E+03  0.25500000000E-02 0. -1.
          2   -1    0    0  501    0  0.00000000000E+00 -0.00000000000E+00 -0.46664376689E+03  0.46664376689E+03  0.25500000000E-02 0.  1.
    5000001    1    1    2    0    0 -0.15631564617E+03  0.18137883984E+02 -0.29107069869E+03  0.38255681370E+03  0.19200000000E+03 0.  0.
   -5000001    1    1    2    0    0  0.15631564617E+03 -0.18137883984E+02 -0.11160290707E+02  0.24849973071E+03  0.19200000000E+03 0.  0.
<mgrwt>
<rscale>  0 0.55397544E+03</rscale>
<asrwt>0</asrwt>
<pdfrwt beam="1">  1        2 0.66663395E-01 0.55397544E+03</pdfrwt>
<pdfrwt beam="2">  1       -2 0.23487540E-01 0.55397544E+03</pdfrwt>
<totfact> 0.11660740E+03</totfact>
</mgrwt>
</event>
<event>
 4    1  0.5847263E-005  0.6798651E+03  0.7818608E-02  0.9752299E-01
          2   -1    0    0  501    0  0.00000000000E+00  0.00000000000E+00  0.30024424392E+03  0.30024424393E+03  0.25500000000E-02 0.  1.
         -2   -1    0    0    0  501 -0.00000000000E+00 -0.00000000000E+00 -0.38486707856E+03  0.38486707856E+03  0.25500000000E-02 0. -1.
    5000001    1    1    2    0    0  0.19353534984E+03 -0.10721781520E+03 -0.21609077857E+03  0.36402035124E+03  0.19200000000E+03 0.  0.
   -5000001    1    1    2    0    0 -0.19353534984E+03  0.10721781520E+03  0.13146794393E+03  0.32109097125E+03  0.19200000000E+03 0.  0.
<mgrwt>
<rscale>  0 0.67986506E+03</rscale>
<asrwt>0</asrwt>
<pdfrwt beam="1">  1        2 0.42892035E-01 0.67986506E+03</pdfrwt>
<pdfrwt beam="2">  1       -2 0.54981011E-01 0.67986506E+03</pdfrwt>
<totfact> 0.37391583E+02</totfact>
</mgrwt>
</event>
<event>
 4    1  0.5847263E-005  0.5858085E+03  0.7818608E-02  0.9935294E-01
          2   -1    0    0  501    0  0.00000000000E+00  0.00000000000E+00  0.32211605198E+03  0.32211605199E+03  0.25500000000E-02 0.  1.
         -2   -1    0    0    0  501 -0.00000000000E+00 -0.00000000000E+00 -0.26634155080E+03  0.26634155082E+03  0.25500000000E-02 0. -1.
    5000001    1    1    2    0    0 -0.73661496597E+02 -0.20312970520E+03  0.75442604550E+02  0.29873613741E+03  0.19200000000E+03 0.  0.
   -5000001    1    1    2    0    0  0.73661496597E+02  0.20312970520E+03 -0.19668103377E+02  0.28972146539E+03  0.19200000000E+03 0.  0.
<mgrwt>
<rscale>  0 0.58580846E+03</rscale>
<asrwt>0</asrwt>
<pdfrwt beam="1">  1        2 0.46016579E-01 0.58580846E+03</pdfrwt>
<pdfrwt beam="2">  1       -2 0.38048793E-01 0.58580846E+03</pdfrwt>
<totfact> 0.72205451E+02</totfact>
</mgrwt>
</event>
<event>
 4    1  0.5847263E-005  0.1016885E+04  0.7818608E-02  0.9290218E-01
         -2   -1    0    0    0  501 -0.00000000000E+00  0.00000000000E+00  0.31899187423E+03  0.31899187424E+03  0.25500000000E-02 0. -1.
          2   -1    0    0  501    0  0.00000000000E+00 -0.00000000000E+00 -0.81040785944E+03  0.81040785945E+03  0.25500000000E-02 0.  1.
    5000001    1    1    2    0    0  0.47052673284E+03 -0.49917905619E+01 -0.22889360045E+03  0.55738371398E+03  0.19200000000E+03 0.  0.
   -5000001    1    1    2    0    0 -0.47052673284E+03  0.49917905619E+01 -0.26252238477E+03  0.57201601970E+03  0.19200000000E+03 0.  0.
<mgrwt>
<rscale>  0 0.10168845E+04</rscale>
<asrwt>0</asrwt>
<pdfrwt beam="1">  1        2 0.11577255E+00 0.10168845E+04</pdfrwt>
<pdfrwt beam="2">  1       -2 0.45570268E-01 0.10168845E+04</pdfrwt>
<totfact> 0.17013066E+02</totfact>
</mgrwt>
</event>
<event>
 4    1  0.5847263E-005  0.6280512E+03  0.7818608E-02  0.9848859E-01
         -2   -1    0    0    0  501 -0.00000000000E+00  0.00000000000E+00  0.13533901321E+03  0.13533901323E+03  0.25500000000E-02 0. -1.
          2   -1    0    0  501    0  0.00000000000E+00 -0.00000000000E+00 -0.72863014627E+03  0.72863014627E+03  0.25500000000E-02 0.  1.
    5000001    1    1    2    0    0 -0.57649448659E+00 -0.17937320854E+03 -0.60080343662E+02  0.26953427979E+03  0.19200000000E+03 0.  0.
   -5000001    1    1    2    0    0  0.57649448659E+00  0.17937320854E+03 -0.53321078940E+03  0.59443487971E+03  0.19200000000E+03 0.  0.
<mgrwt>
<rscale>  0 0.62805122E+03</rscale>
<asrwt>0</asrwt>
<pdfrwt beam="1">  1        2 0.10409002E+00 0.62805122E+03</pdfrwt>
<pdfrwt beam="2">  1       -2 0.19334145E-01 0.62805122E+03</pdfrwt>
<totfact> 0.97198354E+02</totfact>
</mgrwt>
</event>
<event>
 4    1  0.5847263E-005  0.4329740E+03  0.7818608E-02  0.1032925E+00
         -2   -1    0    0    0  501 -0.00000000000E+00  0.00000000000E+00  0.40005547171E+03  0.40005547172E+03  0.25500000000E-02 0. -1.
          2   -1    0    0  501    0  0.00000000000E+00 -0.00000000000E+00 -0.11715030811E+03  0.11715030814E+03  0.25500000000E-02 0.  1.
    5000001    1    1    2    0    0  0.83659046898E+02 -0.53334517639E+02  0.15652536245E+03  0.26684751449E+03  0.19200000000E+03 0.  0.
   -5000001    1    1    2    0    0 -0.83659046898E+02  0.53334517639E+02  0.12637980115E+03  0.25035826537E+03  0.19200000000E+03 0.  0.
<mgrwt>
<rscale>  0 0.43297400E+03</rscale>
<asrwt>0</asrwt>
<pdfrwt beam="1">  1        2 0.16735758E-01 0.43297400E+03</pdfrwt>
<pdfrwt beam="2">  1       -2 0.57150782E-01 0.43297400E+03</pdfrwt>
<totfact> 0.10089103E+03</totfact>
</mgrwt>
</event>
<event>
 4    1  0.5847263E-005  0.8110371E+03  0.7818608E-02  0.9544177E-01
          2   -1    0    0  501    0  0.00000000000E+00  0.00000000000E+00  0.54024002219E+03  0.54024002220E+03  0.25500000000E-02 0.  1.
         -2   -1    0    0    0  501 -0.00000000000E+00 -0.00000000000E+00 -0.30439305737E+03  0.30439305738E+03  0.25500000000E-02 0. -1.
    5000001    1    1    2    0    0 -0.13369824753E+03 -0.26381069610E+03  0.32649438114E+03  0.48055580913E+03  0.19200000000E+03 0.  0.
   -5000001    1    1    2    0    0  0.13369824753E+03  0.26381069610E+03 -0.90647416317E+02  0.36407727045E+03  0.19200000000E+03 0.  0.
<mgrwt>
<rscale>  0 0.81103714E+03</rscale>
<asrwt>0</asrwt>
<pdfrwt beam="1">  1        2 0.77177146E-01 0.81103714E+03</pdfrwt>
<pdfrwt beam="2">  1       -2 0.43484722E-01 0.81103714E+03</pdfrwt>
<totfact> 0.30941903E+02</totfact>
</mgrwt>
</event>
<event>
 4    1  0.5847263E-005  0.6038651E+03  0.7818608E-02  0.9897420E-01
          2   -1    0    0  501    0  0.00000000000E+00  0.00000000000E+00  0.43613333874E+03  0.43613333875E+03  0.25500000000E-02 0. -1.
         -2   -1    0    0    0  501 -0.00000000000E+00 -0.00000000000E+00 -0.20902612987E+03  0.20902612988E+03  0.25500000000E-02 0.  1.
    5000001    1    1    2    0    0 -0.20194011908E+03 -0.90151821441E+02  0.19200599263E+03  0.35019632181E+03  0.19200000000E+03 0.  0.
   -5000001    1    1    2    0    0  0.20194011908E+03  0.90151821441E+02  0.35101216243E+02  0.29496314682E+03  0.19200000000E+03 0.  0.
<mgrwt>
<rscale>  0 0.60386510E+03</rscale>
<asrwt>0</asrwt>
<pdfrwt beam="1">  1        2 0.62304763E-01 0.60386510E+03</pdfrwt>
<pdfrwt beam="2">  1       -2 0.29860876E-01 0.60386510E+03</pdfrwt>
<totfact> 0.81419809E+02</totfact>
</mgrwt>
</event>
<event>
 4    1  0.5847263E-005  0.9009742E+03  0.7818608E-02  0.9424364E-01
          2   -1    0    0  501    0  0.00000000000E+00  0.00000000000E+00  0.89443114001E+03  0.89443114001E+03  0.25500000000E-02 0.  1.
         -2   -1    0    0    0  501 -0.00000000000E+00 -0.00000000000E+00 -0.22689126190E+03  0.22689126191E+03  0.25500000000E-02 0. -1.
    5000001    1    1    2    0    0 -0.21439392540E+03 -0.34648945083E+03  0.32454709845E+03  0.55517070699E+03  0.19200000000E+03 0.  0.
   -5000001    1    1    2    0    0  0.21439392540E+03  0.34648945083E+03  0.34299277965E+03  0.56615169494E+03  0.19200000000E+03 0.  0.
<mgrwt>
<rscale>  0 0.90097416E+03</rscale>
<asrwt>0</asrwt>
<pdfrwt beam="1">  1        2 0.12777588E+00 0.90097416E+03</pdfrwt>
<pdfrwt beam="2">  1       -2 0.32413037E-01 0.90097416E+03</pdfrwt>
<totfact> 0.29072995E+02</totfact>
</mgrwt>
</event>
<event>
 4    1  0.5847263E-005  0.7357579E+03  0.7818608E-02  0.9657963E-01
          2   -1    0    0  501    0  0.00000000000E+00  0.00000000000E+00  0.19127624298E+04  0.19127624298E+04  0.25500000000E-02 0.  1.
         -2   -1    0    0    0  501 -0.00000000000E+00 -0.00000000000E+00 -0.70753651052E+02  0.70753651098E+02  0.25500000000E-02 0. -1.
    5000001    1    1    2    0    0 -0.12645618764E+03  0.28553460428E+03  0.83792276849E+03  0.91460359915E+03  0.19200000000E+03 0.  0.
   -5000001    1    1    2    0    0  0.12645618764E+03 -0.28553460428E+03  0.10040860103E+04  0.10689124818E+04  0.19200000000E+03 0.  0.
<mgrwt>
<rscale>  0 0.73575791E+03</rscale>
<asrwt>0</asrwt>
<pdfrwt beam="1">  1        2 0.27325175E+00 0.73575791E+03</pdfrwt>
<pdfrwt beam="2">  1       -2 0.10107665E-01 0.73575791E+03</pdfrwt>
<totfact> 0.61149569E+02</totfact>
</mgrwt>
</event>
<event>
 4    1  0.5847263E-005  0.7144691E+03  0.7818608E-02  0.9692803E-01
          2   -1    0    0  501    0  0.00000000000E+00  0.00000000000E+00  0.13681502777E+04  0.13681502777E+04  0.25500000000E-02 0.  1.
         -2   -1    0    0    0  501 -0.00000000000E+00 -0.00000000000E+00 -0.93276698604E+02  0.93276698639E+02  0.25500000000E-02 0. -1.
    5000001    1    1    2    0    0  0.24782301638E+02 -0.25211546856E+03  0.97089378213E+03  0.10216041837E+04  0.19200000000E+03 0.  0.
   -5000001    1    1    2    0    0 -0.24782301638E+02  0.25211546856E+03  0.30397979695E+03  0.43982279263E+03  0.19200000000E+03 0.  0.
<mgrwt>
<rscale>  0 0.71446915E+03</rscale>
<asrwt>0</asrwt>
<pdfrwt beam="1">  1        2 0.19545003E+00 0.71446915E+03</pdfrwt>
<pdfrwt beam="2">  1       -2 0.13325243E-01 0.71446915E+03</pdfrwt>
<totfact> 0.74271792E+02</totfact>
</mgrwt>
</event>
<event>
 4    1  0.5847263E-005  0.4667384E+03  0.7818608E-02  0.1022845E+00
          2   -1    0    0  501    0  0.00000000000E+00  0.00000000000E+00  0.88987124409E+03  0.88987124409E+03  0.25500000000E-02 0.  1.
         -2   -1    0    0    0  501 -0.00000000000E+00 -0.00000000000E+00 -0.61201183447E+02  0.61201183500E+02  0.25500000000E-02 0. -1.
    5000001    1    1    2    0    0  0.78597696889E+02  0.10671748506E+03  0.40299807517E+03  0.46565831697E+03  0.19200000000E+03 0.  0.
   -5000001    1    1    2    0    0 -0.78597696889E+02 -0.10671748506E+03  0.42567198547E+03  0.48541411062E+03  0.19200000000E+03 0.  0.
<mgrwt>
<rscale>  0 0.46673836E+03</rscale>
<asrwt>0</asrwt>
<pdfrwt beam="1">  1        2 0.12712447E+00 0.46673836E+03</pdfrwt>
<pdfrwt beam="2">  1       -2 0.87430260E-02 0.46673836E+03</pdfrwt>
<totfact> 0.28107004E+03</totfact>
</mgrwt>
</event>
<event>
 4    1  0.5847263E-005  0.4655417E+03  0.7818608E-02  0.1023186E+00
         -2   -1    0    0    0  501 -0.00000000000E+00  0.00000000000E+00  0.11921508700E+03  0.11921508702E+03  0.25500000000E-02 0. -1.
          2   -1    0    0  501    0  0.00000000000E+00 -0.00000000000E+00 -0.45449171213E+03  0.45449171214E+03  0.25500000000E-02 0.  1.
    5000001    1    1    2    0    0 -0.52585776053E+02 -0.60136134531E+02 -0.29651476529E+03  0.36216933132E+03  0.19200000000E+03 0.  0.
   -5000001    1    1    2    0    0  0.52585776053E+02  0.60136134531E+02 -0.38761859849E+02  0.21153746784E+03  0.19200000000E+03 0.  0.
<mgrwt>
<rscale>  0 0.46554170E+03</rscale>
<asrwt>0</asrwt>
<pdfrwt beam="1">  1        2 0.64927386E-01 0.46554170E+03</pdfrwt>
<pdfrwt beam="2">  1       -2 0.17030727E-01 0.46554170E+03</pdfrwt>
<totfact> 0.20973792E+03</totfact>
</mgrwt>
</event>
<event>
 4    1  0.5847263E-005  0.5196802E+03  0.7818608E-02  0.1008766E+00
          2   -1    0    0  501    0  0.00000000000E+00  0.00000000000E+00  0.10878972010E+04  0.10878972010E+04  0.25500000000E-02 0.  1.
         -2   -1    0    0    0  501 -0.00000000000E+00 -0.00000000000E+00 -0.62061813752E+02  0.62061813804E+02  0.25500000000E-02 0. -1.
    5000001    1    1    2    0    0  0.36102609767E+02 -0.12472806928E+03  0.77279351309E+03  0.80680499724E+03  0.19200000000E+03 0.  0.
   -5000001    1    1    2    0    0 -0.36102609767E+02  0.12472806928E+03  0.25304187417E+03  0.34315401758E+03  0.19200000000E+03 0.  0.
<mgrwt>
<rscale>  0 0.51968018E+03</rscale>
<asrwt>0</asrwt>
<pdfrwt beam="1">  1        2 0.15541389E+00 0.51968018E+03</pdfrwt>
<pdfrwt beam="2">  1       -2 0.88659734E-02 0.51968018E+03</pdfrwt>
<totfact> 0.20814564E+03</totfact>
</mgrwt>
</event>
<event>
 4    1  0.5847263E-005  0.5207509E+03  0.7818608E-02  0.1008500E+00
         -2   -1    0    0    0  501 -0.00000000000E+00  0.00000000000E+00  0.92429090954E+02  0.92429090989E+02  0.25500000000E-02 0. -1.
          2   -1    0    0  501    0  0.00000000000E+00 -0.00000000000E+00 -0.73348512950E+03  0.73348512950E+03  0.25500000000E-02 0.  1.
    5000001    1    1    2    0    0 -0.67593173119E+02 -0.15937922144E+03 -0.27136717904E+03  0.37479957196E+03  0.19200000000E+03 0.  0.
   -5000001    1    1    2    0    0  0.67593173119E+02  0.15937922144E+03 -0.36968885951E+03  0.45111464854E+03  0.19200000000E+03 0.  0.
<mgrwt>
<rscale>  0 0.52075086E+03</rscale>
<asrwt>0</asrwt>
<pdfrwt beam="1">  1        2 0.10478359E+00 0.52075086E+03</pdfrwt>
<pdfrwt beam="2">  1       -2 0.13204156E-01 0.52075086E+03</pdfrwt>
<totfact> 0.18413616E+03</totfact>
</mgrwt>
</event>
<event>
 4    1  0.5847263E-005  0.6210732E+03  0.7818608E-02  0.9862625E-01
         -2   -1    0    0    0  501 -0.00000000000E+00  0.00000000000E+00  0.45522704464E+02  0.45522704536E+02  0.25500000000E-02 0. -1.
          2   -1    0    0  501    0  0.00000000000E+00 -0.00000000000E+00 -0.21183491812E+04  0.21183491812E+04  0.25500000000E-02 0.  1.
    5000001    1    1    2    0    0  0.14772098227E+03  0.19375416982E+03 -0.10865183159E+04  0.11299328377E+04  0.19200000000E+03 0.  0.
   -5000001    1    1    2    0    0 -0.14772098227E+03 -0.19375416982E+03 -0.98630816077E+03  0.10339390480E+04  0.19200000000E+03 0.  0.
<mgrwt>
<rscale>  0 0.62107321E+03</rscale>
<asrwt>0</asrwt>
<pdfrwt beam="1">  1        2 0.30262125E+00 0.62107321E+03</pdfrwt>
<pdfrwt beam="2">  1       -2 0.65032449E-02 0.62107321E+03</pdfrwt>
<totfact> 0.98212538E+02</totfact>
</mgrwt>
</event>
<event>
 4    1  0.5847263E-005  0.5205698E+03  0.7818608E-02  0.1008545E+00
          2   -1    0    0  501    0  0.00000000000E+00  0.00000000000E+00  0.13348696708E+04  0.13348696708E+04  0.25500000000E-02 0.  1.
         -2   -1    0    0    0  501 -0.00000000000E+00 -0.00000000000E+00 -0.50752686939E+02  0.50752687003E+02  0.25500000000E-02 0. -1.
    5000001    1    1    2    0    0 -0.11364611305E+03 -0.76852462644E+02  0.34972115762E+03  0.42188935530E+03  0.19200000000E+03 0.  0.
   -5000001    1    1    2    0    0  0.11364611305E+03  0.76852462644E+02  0.93439582624E+03  0.96373300250E+03  0.19200000000E+03 0.  0.
<mgrwt>
<rscale>  0 0.52056977E+03</rscale>
<asrwt>0</asrwt>
<pdfrwt beam="1">  1        2 0.19069564E+00 0.52056977E+03</pdfrwt>
<pdfrwt beam="2">  1       -2 0.72503847E-02 0.52056977E+03</pdfrwt>
<totfact> 0.20880965E+03</totfact>
</mgrwt>
</event>
<event>
 4    1  0.5847263E-005  0.6873728E+03  0.7818608E-02  0.9739073E-01
         -2   -1    0    0    0  501 -0.00000000000E+00  0.00000000000E+00  0.69220389506E+02  0.69220389553E+02  0.25500000000E-02 0. -1.
          2   -1    0    0  501    0  0.00000000000E+00 -0.00000000000E+00 -0.17064387131E+04  0.17064387131E+04  0.25500000000E-02 0.  1.
    5000001    1    1    2    0    0  0.47770514781E+01  0.26131061861E+03 -0.52463644675E+03  0.61677667018E+03  0.19200000000E+03 0.  0.
   -5000001    1    1    2    0    0 -0.47770514781E+01 -0.26131061861E+03 -0.11125818768E+04  0.11588824324E+04  0.19200000000E+03 0.  0.
<mgrwt>
<rscale>  0 0.68737283E+03</rscale>
<asrwt>0</asrwt>
<pdfrwt beam="1">  1        2 0.24377693E+00 0.68737283E+03</pdfrwt>
<pdfrwt beam="2">  1       -2 0.98886281E-02 0.68737283E+03</pdfrwt>
<totfact> 0.80881172E+02</totfact>
</mgrwt>
</event>
<event>
 4    1  0.5847263E-005  0.5277116E+03  0.7818608E-02  0.1006789E+00
          2   -1    0    0  501    0  0.00000000000E+00  0.00000000000E+00  0.42255517671E+03  0.42255517672E+03  0.25500000000E-02 0.  1.
         -2   -1    0    0    0  501 -0.00000000000E+00 -0.00000000000E+00 -0.16475926368E+03  0.16475926370E+03  0.25500000000E-02 0. -1.
    5000001    1    1    2    0    0 -0.62675694577E+02 -0.16617623031E+03  0.16766136129E+03  0.31067203653E+03  0.19200000000E+03 0.  0.
   -5000001    1    1    2    0    0  0.62675694577E+02  0.16617623031E+03  0.90134551735E+02  0.27664240389E+03  0.19200000000E+03 0.  0.
<mgrwt>
<rscale>  0 0.52771159E+03</rscale>
<asrwt>0</asrwt>
<pdfrwt beam="1">  1        2 0.60365025E-01 0.52771159E+03</pdfrwt>
<pdfrwt beam="2">  1       -2 0.23537038E-01 0.52771159E+03</pdfrwt>
<totfact> 0.12980582E+03</totfact>
</mgrwt>
</event>
<event>
 4    1  0.5847263E-005  0.7368716E+03  0.7818608E-02  0.9656175E-01
          2   -1    0    0  501    0  0.00000000000E+00  0.00000000000E+00  0.36738699576E+03  0.36738699577E+03  0.25500000000E-02 0.  1.
         -2   -1    0    0    0  501 -0.00000000000E+00 -0.00000000000E+00 -0.36948756400E+03  0.36948756401E+03  0.25500000000E-02 0. -1.
    5000001    1    1    2    0    0 -0.27478814329E+03  0.60511668359E+02  0.13934523074E+03  0.36803706203E+03  0.19200000000E+03 0.  0.
   -5000001    1    1    2    0    0  0.27478814329E+03 -0.60511668359E+02 -0.14144579898E+03  0.36883749775E+03  0.19200000000E+03 0.  0.
<mgrwt>
<rscale>  0 0.73687157E+03</rscale>
<asrwt>0</asrwt>
<pdfrwt beam="1">  1        2 0.52483857E-01 0.73687157E+03</pdfrwt>
<pdfrwt beam="2">  1       -2 0.52783937E-01 0.73687157E+03</pdfrwt>
<totfact> 0.32463720E+02</totfact>
</mgrwt>
</event>
<event>
 4    1  0.5847263E-005  0.6394290E+03  0.7818608E-02  0.9826820E-01
          2   -1    0    0  501    0  0.00000000000E+00  0.00000000000E+00  0.16481106876E+04  0.16481106876E+04  0.25500000000E-02 0.  1.
         -2   -1    0    0    0  501 -0.00000000000E+00 -0.00000000000E+00 -0.62020928408E+02  0.62020928461E+02  0.25500000000E-02 0. -1.
    5000001    1    1    2    0    0 -0.18917248103E+03  0.42938699494E+02  0.34773694720E+03  0.44205762513E+03  0.19200000000E+03 0.  0.
   -5000001    1    1    2    0    0  0.18917248103E+03 -0.42938699494E+02  0.12383528120E+04  0.12680739909E+04  0.19200000000E+03 0.  0.
<mgrwt>
<rscale>  0 0.63942898E+03</rscale>
<asrwt>0</asrwt>
<pdfrwt beam="1">  1        2 0.23544434E+00 0.63942898E+03</pdfrwt>
<pdfrwt beam="2">  1       -2 0.88601343E-02 0.63942898E+03</pdfrwt>
<totfact> 0.10369420E+03</totfact>
</mgrwt>
</event>
<event>
 4    1  0.5847263E-005  0.4914656E+03  0.7818608E-02  0.1016031E+00
          2   -1    0    0  501    0  0.00000000000E+00  0.00000000000E+00  0.11369631862E+04  0.11369631862E+04  0.25500000000E-02 0.  1.
         -2   -1    0    0    0  501 -0.00000000000E+00 -0.00000000000E+00 -0.53110430682E+02  0.53110430743E+02  0.25500000000E-02 0. -1.
    5000001    1    1    2    0    0 -0.59115191510E+02 -0.13974710758E+03  0.48795701526E+03  0.54588451955E+03  0.19200000000E+03 0.  0.
   -5000001    1    1    2    0    0  0.59115191510E+02  0.13974710758E+03  0.59589574023E+03  0.64418909736E+03  0.19200000000E+03 0.  0.
<mgrwt>
<rscale>  0 0.49146558E+03</rscale>
<asrwt>0</asrwt>
<pdfrwt beam="1">  1        2 0.16242331E+00 0.49146558E+03</pdfrwt>
<pdfrwt beam="2">  1       -2 0.75872046E-02 0.49146558E+03</pdfrwt>
<totfact> 0.24993113E+03</totfact>
</mgrwt>
</event>
<event>
 4    1  0.5847263E-005  0.6071505E+03  0.7818608E-02  0.9890681E-01
          2   -1    0    0  501    0  0.00000000000E+00  0.00000000000E+00  0.91737990808E+03  0.91737990808E+03  0.25500000000E-02 0.  1.
         -2   -1    0    0    0  501 -0.00000000000E+00 -0.00000000000E+00 -0.10045775144E+03  0.10045775147E+03  0.25500000000E-02 0. -1.
    5000001    1    1    2    0    0 -0.18218486341E+03 -0.29097860397E+02  0.65287281769E+03  0.70508504878E+03  0.19200000000E+03 0.  0.
   -5000001    1    1    2    0    0  0.18218486341E+03  0.29097860397E+02  0.16404933894E+03  0.31275261077E+03  0.19200000000E+03 0.  0.
<mgrwt>
<rscale>  0 0.60715047E+03</rscale>
<asrwt>0</asrwt>
<pdfrwt beam="1">  1        2 0.13105428E+00 0.60715047E+03</pdfrwt>
<pdfrwt beam="2">  1       -2 0.14351107E-01 0.60715047E+03</pdfrwt>
<totfact> 0.12003404E+03</totfact>
</mgrwt>
</event>
<event>
 4    1  0.5847263E-005  0.4846260E+03  0.7818608E-02  0.1017872E+00
          2   -1    0    0  501    0  0.00000000000E+00  0.00000000000E+00  0.10718133385E+04  0.10718133385E+04  0.25500000000E-02 0.  1.
         -2   -1    0    0    0  501 -0.00000000000E+00 -0.00000000000E+00 -0.54781539086E+02  0.54781539145E+02  0.25500000000E-02 0. -1.
    5000001    1    1    2    0    0 -0.71482343335E+02  0.10247140651E+03  0.69217164487E+03  0.72909238133E+03  0.19200000000E+03 0.  0.
   -5000001    1    1    2    0    0  0.71482343335E+02 -0.10247140651E+03  0.32486015452E+03  0.39750249629E+03  0.19200000000E+03 0.  0.
<mgrwt>
<rscale>  0 0.48462598E+03</rscale>
<asrwt>0</asrwt>
<pdfrwt beam="1">  1        2 0.15311620E+00 0.48462598E+03</pdfrwt>
<pdfrwt beam="2">  1       -2 0.78259335E-02 0.48462598E+03</pdfrwt>
<totfact> 0.25946665E+03</totfact>
</mgrwt>
</event>
<event>
 4    1  0.5847263E-005  0.4553224E+03  0.7818608E-02  0.1026147E+00
         -2   -1    0    0    0  501 -0.00000000000E+00  0.00000000000E+00  0.33865981869E+02  0.33865981965E+02  0.25500000000E-02 0. -1.
          2   -1    0    0  501    0  0.00000000000E+00 -0.00000000000E+00 -0.15304330747E+04  0.15304330747E+04  0.25500000000E-02 0.  1.
    5000001    1    1    2    0    0 -0.94367873655E+02  0.56741330753E+02 -0.56517151591E+03  0.60696599295E+03  0.19200000000E+03 0.  0.
   -5000001    1    1    2    0    0  0.94367873655E+02 -0.56741330753E+02 -0.93139557696E+03  0.95733306376E+03  0.19200000000E+03 0.  0.
<mgrwt>
<rscale>  0 0.45532239E+03</rscale>
<asrwt>0</asrwt>
<pdfrwt beam="1">  1        2 0.21863325E+00 0.45532239E+03</pdfrwt>
<pdfrwt beam="2">  1       -2 0.48379984E-02 0.45532239E+03</pdfrwt>
<totfact> 0.31002869E+03</totfact>
</mgrwt>
</event>
<event>
 4    1  0.5847263E-005  0.5795628E+03  0.7818608E-02  0.9948738E-01
         -2   -1    0    0    0  501 -0.00000000000E+00  0.00000000000E+00  0.24745179863E+02  0.24745179994E+02  0.25500000000E-02 0. -1.
          2   -1    0    0  501    0  0.00000000000E+00 -0.00000000000E+00 -0.33935203706E+04  0.33935203706E+04  0.25500000000E-02 0.  1.
    5000001    1    1    2    0    0 -0.49148627259E+02 -0.17845756260E+03 -0.10158911889E+04  0.10503149989E+04  0.19200000000E+03 0.  0.
   -5000001    1    1    2    0    0  0.49148627259E+02  0.17845756260E+03 -0.23528840019E+04  0.23679505517E+04  0.19200000000E+03 0.  0.
<mgrwt>
<rscale>  0 0.57956284E+03</rscale>
<asrwt>0</asrwt>
<pdfrwt beam="1">  1        2 0.48478833E+00 0.57956284E+03</pdfrwt>
<pdfrwt beam="2">  1       -2 0.35350279E-02 0.57956284E+03</pdfrwt>
<totfact> 0.53189724E+02</totfact>
</mgrwt>
</event>
<event>
 4    1  0.5847263E-005  0.4311161E+03  0.7818608E-02  0.1033508E+00
         -2   -1    0    0    0  501 -0.00000000000E+00  0.00000000000E+00  0.57389667713E+02  0.57389667769E+02  0.25500000000E-02 0. -1.
          2   -1    0    0  501    0  0.00000000000E+00 -0.00000000000E+00 -0.80964514132E+03  0.80964514132E+03  0.25500000000E-02 0.  1.
    5000001    1    1    2    0    0  0.90787239239E+02 -0.35111979709E+02 -0.35354452971E+03  0.41392379542E+03  0.19200000000E+03 0.  0.
   -5000001    1    1    2    0    0 -0.90787239239E+02  0.35111979709E+02 -0.39871094390E+03  0.45311101367E+03  0.19200000000E+03 0.  0.
<mgrwt>
<rscale>  0 0.43111607E+03</rscale>
<asrwt>0</asrwt>
<pdfrwt beam="1">  1        2 0.11566358E+00 0.43111607E+03</pdfrwt>
<pdfrwt beam="2">  1       -2 0.81985244E-02 0.43111607E+03</pdfrwt>
<totfact> 0.35152263E+03</totfact>
</mgrwt>
</event>
<event>
 4    1  0.5847263E-005  0.1104105E+04  0.7818608E-02  0.9201200E-01
          2   -1    0    0  501    0  0.00000000000E+00  0.00000000000E+00  0.94093925353E+03  0.94093925354E+03  0.25500000000E-02 0.  1.
         -2   -1    0    0    0  501 -0.00000000000E+00 -0.00000000000E+00 -0.32389127240E+03  0.32389127241E+03  0.25500000000E-02 0. -1.
    5000001    1    1    2    0    0 -0.35075420321E+03 -0.30447324817E+03  0.46878177478E+02  0.50477126844E+03  0.19200000000E+03 0.  0.
   -5000001    1    1    2    0    0  0.35075420321E+03  0.30447324817E+03  0.57016980365E+03  0.76005925750E+03  0.19200000000E+03 0.  0.
<mgrwt>
<rscale>  0 0.11041051E+04</rscale>
<asrwt>0</asrwt>
<pdfrwt beam="1">  1        2 0.13441990E+00 0.11041051E+04</pdfrwt>
<pdfrwt beam="2">  1       -2 0.46270181E-01 0.11041051E+04</pdfrwt>
<totfact> 0.13441702E+02</totfact>
</mgrwt>
</event>
<event>
 4    1  0.5847263E-005  0.5981476E+03  0.7818608E-02  0.9909257E-01
         -2   -1    0    0    0  501 -0.00000000000E+00  0.00000000000E+00  0.43647486946E+02  0.43647487020E+02  0.25500000000E-02 0. -1.
          2   -1    0    0  501    0  0.00000000000E+00 -0.00000000000E+00 -0.20492619350E+04  0.20492619350E+04  0.25500000000E-02 0.  1.
    5000001    1    1    2    0    0  0.92259480537E+02  0.18381868585E+03 -0.13575707010E+04  0.13864210505E+04  0.19200000000E+03 0.  0.
   -5000001    1    1    2    0    0 -0.92259480537E+02 -0.18381868585E+03 -0.64804374702E+03  0.70648837150E+03  0.19200000000E+03 0.  0.
<mgrwt>
<rscale>  0 0.59814759E+03</rscale>
<asrwt>0</asrwt>
<pdfrwt beam="1">  1        2 0.29275164E+00 0.59814759E+03</pdfrwt>
<pdfrwt beam="2">  1       -2 0.62353566E-02 0.59814759E+03</pdfrwt>
<totfact> 0.11381132E+03</totfact>
</mgrwt>
</event>
<event>
 4    1  0.5847263E-005  0.4522314E+03  0.7818608E-02  0.1027059E+00
         -2   -1    0    0    0  501 -0.00000000000E+00  0.00000000000E+00  0.35158173663E+02  0.35158173756E+02  0.25500000000E-02 0. -1.
          2   -1    0    0  501    0  0.00000000000E+00 -0.00000000000E+00 -0.14542367134E+04  0.14542367134E+04  0.25500000000E-02 0.  1.
    5000001    1    1    2    0    0 -0.44219003746E+02 -0.11089221044E+03 -0.72090250863E+03  0.75552420847E+03  0.19200000000E+03 0.  0.
   -5000001    1    1    2    0    0  0.44219003746E+02  0.11089221044E+03 -0.69817603106E+03  0.73387067865E+03  0.19200000000E+03 0.  0.
<mgrwt>
<rscale>  0 0.45223139E+03</rscale>
<asrwt>0</asrwt>
<pdfrwt beam="1">  1        2 0.20774806E+00 0.45223139E+03</pdfrwt>
<pdfrwt beam="2">  1       -2 0.50225972E-02 0.45223139E+03</pdfrwt>
<totfact> 0.32042051E+03</totfact>
</mgrwt>
</event>
<event>
 4    1  0.5847263E-005  0.5250697E+03  0.7818608E-02  0.1007435E+00
         -2   -1    0    0    0  501 -0.00000000000E+00  0.00000000000E+00  0.10421112209E+03  0.10421112212E+03  0.25500000000E-02 0. -1.
          2   -1    0    0  501    0  0.00000000000E+00 -0.00000000000E+00 -0.66139349814E+03  0.66139349815E+03  0.25500000000E-02 0.  1.
    5000001    1    1    2    0    0 -0.21241682072E+01 -0.14523942537E+03 -0.43125062392E+03  0.49390292913E+03  0.19200000000E+03 0.  0.
   -5000001    1    1    2    0    0  0.21241682072E+01  0.14523942537E+03 -0.12593175213E+03  0.27170169114E+03  0.19200000000E+03 0.  0.
<mgrwt>
<rscale>  0 0.52506974E+03</rscale>
<asrwt>0</asrwt>
<pdfrwt beam="1">  1        2 0.94484783E-01 0.52506974E+03</pdfrwt>
<pdfrwt beam="2">  1       -2 0.14887304E-01 0.52506974E+03</pdfrwt>
<totfact> 0.17098083E+03</totfact>
</mgrwt>
</event>
<event>
 4    1  0.5847263E-005  0.1147285E+04  0.7818608E-02  0.9160292E-01
          2   -1    0    0  501    0  0.00000000000E+00  0.00000000000E+00  0.77955367473E+03  0.77955367473E+03  0.25500000000E-02 0.  1.
         -2   -1    0    0    0  501 -0.00000000000E+00 -0.00000000000E+00 -0.42212032552E+03  0.42212032552E+03  0.25500000000E-02 0. -1.
    5000001    1    1    2    0    0  0.31309556626E+03  0.34141784797E+03 -0.11306935285E+03  0.51404635888E+03  0.19200000000E+03 0.  0.
   -5000001    1    1    2    0    0 -0.31309556626E+03 -0.34141784797E+03  0.47050270206E+03  0.68762764137E+03  0.19200000000E+03 0.  0.
<mgrwt>
<rscale>  0 0.11472845E+04</rscale>
<asrwt>0</asrwt>
<pdfrwt beam="1">  1        2 0.11136481E+00 0.11472845E+04</pdfrwt>
<pdfrwt beam="2">  1       -2 0.60302904E-01 0.11472845E+04</pdfrwt>
<totfact> 0.99770821E+01</totfact>
</mgrwt>
</event>
<event>
 4    1  0.5847263E-005  0.4979834E+03  0.7818608E-02  0.1014307E+00
          2   -1    0    0  501    0  0.00000000000E+00  0.00000000000E+00  0.10343241504E+04  0.10343241504E+04  0.25500000000E-02 0.  1.
         -2   -1    0    0    0  501 -0.00000000000E+00 -0.00000000000E+00 -0.59939498118E+02  0.59939498172E+02  0.25500000000E-02 0. -1.
    5000001    1    1    2    0    0  0.12525612753E+03 -0.95645824532E+02  0.52497524382E+03  0.58077553999E+03  0.19200000000E+03 0.  0.
   -5000001    1    1    2    0    0 -0.12525612753E+03  0.95645824532E+02  0.44940940843E+03  0.51348810854E+03  0.19200000000E+03 0.  0.
<mgrwt>
<rscale>  0 0.49798342E+03</rscale>
<asrwt>0</asrwt>
<pdfrwt beam="1">  1        2 0.14776058E+00 0.49798342E+03</pdfrwt>
<pdfrwt beam="2">  1       -2 0.85627863E-02 0.49798342E+03</pdfrwt>
<totfact> 0.23663269E+03</totfact>
</mgrwt>
</event>
<event>
 4    1  0.5847263E-005  0.7148976E+03  0.7818608E-02  0.9692089E-01
          2   -1    0    0  501    0  0.00000000000E+00  0.00000000000E+00  0.17020737995E+03  0.17020737997E+03  0.25500000000E-02 0.  1.
         -2   -1    0    0    0  501 -0.00000000000E+00 -0.00000000000E+00 -0.75067044175E+03  0.75067044175E+03  0.25500000000E-02 0. -1.
    5000001    1    1    2    0    0  0.24958769090E+03 -0.15773030935E+03 -0.36893149760E+03  0.51004638599E+03  0.19200000000E+03 0.  0.
   -5000001    1    1    2    0    0 -0.24958769090E+03  0.15773030935E+03 -0.21153156419E+03  0.41083143573E+03  0.19200000000E+03 0.  0.
<mgrwt>
<rscale>  0 0.71489761E+03</rscale>
<asrwt>0</asrwt>
<pdfrwt beam="1">  1        2 0.24315341E-01 0.71489761E+03</pdfrwt>
<pdfrwt beam="2">  1       -2 0.10723863E+00 0.71489761E+03</pdfrwt>
<totfact> 0.15967683E+02</totfact>
</mgrwt>
</event>
<event>
 4    1  0.5847263E-005  0.7306796E+03  0.7818608E-02  0.9666158E-01
          2   -1    0    0  501    0  0.00000000000E+00  0.00000000000E+00  0.43673838183E+04  0.43673838183E+04  0.25500000000E-02 0.  1.
         -2   -1    0    0    0  501 -0.00000000000E+00 -0.00000000000E+00 -0.30561355909E+02  0.30561356015E+02  0.25500000000E-02 0. -1.
    5000001    1    1    2    0    0 -0.14852982139E+03  0.27250975067E+03  0.22702902413E+04  0.22994356811E+04  0.19200000000E+03 0.  0.
   -5000001    1    1    2    0    0  0.14852982139E+03 -0.27250975067E+03  0.20665322211E+04  0.20985094932E+04  0.19200000000E+03 0.  0.
<mgrwt>
<rscale>  0 0.73067961E+03</rscale>
<asrwt>0</asrwt>
<pdfrwt beam="1">  1        2 0.62391146E+00 0.73067961E+03</pdfrwt>
<pdfrwt beam="2">  1       -2 0.43659116E-02 0.73067961E+03</pdfrwt>
<totfact> 0.87053253E+01</totfact>
</mgrwt>
</event>
<event>
 4    1  0.5847263E-005  0.6206424E+03  0.7818608E-02  0.9863481E-01
          2   -1    0    0  501    0  0.00000000000E+00  0.00000000000E+00  0.10243465385E+04  0.10243465385E+04  0.25500000000E-02 0.  1.
         -2   -1    0    0    0  501 -0.00000000000E+00 -0.00000000000E+00 -0.94010425183E+02  0.94010425217E+02  0.25500000000E-02 0. -1.
    5000001    1    1    2    0    0  0.23018796566E+03 -0.66827758973E+02  0.54540584773E+03  0.62592650338E+03  0.19200000000E+03 0.  0.
   -5000001    1    1    2    0    0 -0.23018796566E+03  0.66827758973E+02  0.38493026560E+03  0.49243046034E+03  0.19200000000E+03 0.  0.
<mgrwt>
<rscale>  0 0.62064242E+03</rscale>
<asrwt>0</asrwt>
<pdfrwt beam="1">  1        2 0.14633522E+00 0.62064242E+03</pdfrwt>
<pdfrwt beam="2">  1       -2 0.13430060E-01 0.62064242E+03</pdfrwt>
<totfact> 0.11507979E+03</totfact>
</mgrwt>
</event>
<event>
 4    1  0.5847263E-005  0.4802906E+03  0.7818608E-02  0.1019055E+00
          2   -1    0    0  501    0  0.00000000000E+00  0.00000000000E+00  0.68338225649E+03  0.68338225650E+03  0.25500000000E-02 0.  1.
         -2   -1    0    0    0  501 -0.00000000000E+00 -0.00000000000E+00 -0.84388747646E+02  0.84388747684E+02  0.25500000000E-02 0. -1.
    5000001    1    1    2    0    0  0.12164934008E+03 -0.40668164104E+02  0.19402468866E+03  0.30159914013E+03  0.19200000000E+03 0.  0.
   -5000001    1    1    2    0    0 -0.12164934008E+03  0.40668164104E+02  0.40496882019E+03  0.46617186406E+03  0.19200000000E+03 0.  0.
<mgrwt>
<rscale>  0 0.48029063E+03</rscale>
<asrwt>0</asrwt>
<pdfrwt beam="1">  1        2 0.97626038E-01 0.48029063E+03</pdfrwt>
<pdfrwt beam="2">  1       -2 0.12055535E-01 0.48029063E+03</pdfrwt>
<totfact> 0.23315468E+03</totfact>
</mgrwt>
</event>
<event>
 4    1  0.5847263E-005  0.1106204E+04  0.7818608E-02  0.9199166E-01
          2   -1    0    0  501    0  0.00000000000E+00  0.00000000000E+00  0.15596461971E+04  0.15596461971E+04  0.25500000000E-02 0. -1.
         -2   -1    0    0    0  501 -0.00000000000E+00 -0.00000000000E+00 -0.19614834040E+03  0.19614834042E+03  0.25500000000E-02 0.  1.
    5000001    1    1    2    0    0  0.41231540370E+03 -0.30849083316E+03  0.58278670310E+03  0.80104614573E+03  0.19200000000E+03 0.  0.
   -5000001    1    1    2    0    0 -0.41231540370E+03  0.30849083316E+03  0.78071115358E+03  0.95474839177E+03  0.19200000000E+03 0.  0.
<mgrwt>
<rscale>  0 0.11062043E+04</rscale>
<asrwt>0</asrwt>
<pdfrwt beam="1">  1        2 0.22280659E+00 0.11062043E+04</pdfrwt>
<pdfrwt beam="2">  1       -2 0.28021193E-01 0.11062043E+04</pdfrwt>
<totfact> 0.15676586E+02</totfact>
</mgrwt>
</event>
<event>
 4    1  0.5847263E-005  0.4335541E+03  0.7818608E-02  0.1032743E+00
          2   -1    0    0  501    0  0.00000000000E+00  0.00000000000E+00  0.38327321023E+03  0.38327321024E+03  0.25500000000E-02 0.  1.
         -2   -1    0    0    0  501 -0.00000000000E+00 -0.00000000000E+00 -0.12260783700E+03  0.12260783703E+03  0.25500000000E-02 0. -1.
    5000001    1    1    2    0    0 -0.60900130021E+02 -0.75111365721E+02  0.16287338027E+03  0.26970776981E+03  0.19200000000E+03 0.  0.
   -5000001    1    1    2    0    0  0.60900130021E+02  0.75111365721E+02  0.97791992958E+02  0.23617327745E+03  0.19200000000E+03 0.  0.
<mgrwt>
<rscale>  0 0.43355415E+03</rscale>
<asrwt>0</asrwt>
<pdfrwt beam="1">  1        2 0.54753316E-01 0.43355415E+03</pdfrwt>
<pdfrwt beam="2">  1       -2 0.17515405E-01 0.43355415E+03</pdfrwt>
<totfact> 0.24123626E+03</totfact>
</mgrwt>
</event>
<event>
 4    1  0.5847263E-005  0.5046897E+03  0.7818608E-02  0.1012562E+00
          2   -1    0    0  501    0  0.00000000000E+00  0.00000000000E+00  0.53155089209E+03  0.53155089210E+03  0.25500000000E-02 0.  1.
         -2   -1    0    0    0  501 -0.00000000000E+00 -0.00000000000E+00 -0.11979646013E+03  0.11979646015E+03  0.25500000000E-02 0. -1.
    5000001    1    1    2    0    0  0.13049411799E+03 -0.91668542112E+01  0.78761198502E+02  0.24531627022E+03  0.19200000000E+03 0.  0.
   -5000001    1    1    2    0    0 -0.13049411799E+03  0.91668542112E+01  0.33299323346E+03  0.40603108203E+03  0.19200000000E+03 0.  0.
<mgrwt>
<rscale>  0 0.50468967E+03</rscale>
<asrwt>0</asrwt>
<pdfrwt beam="1">  1        2 0.75935842E-01 0.50468967E+03</pdfrwt>
<pdfrwt beam="2">  1       -2 0.17113780E-01 0.50468967E+03</pdfrwt>
<totfact> 0.17441956E+03</totfact>
</mgrwt>
</event>
<event>
 4    1  0.5847263E-005  0.5601945E+03  0.7818608E-02  0.9991615E-01
         -2   -1    0    0    0  501 -0.00000000000E+00  0.00000000000E+00  0.38790429080E+03  0.38790429080E+03  0.25500000000E-02 0. -1.
          2   -1    0    0  501    0  0.00000000000E+00 -0.00000000000E+00 -0.20225212833E+03  0.20225212835E+03  0.25500000000E-02 0.  1.
    5000001    1    1    2    0    0  0.18618740031E+03  0.83214791010E+02  0.92971039216E+02  0.29512381065E+03  0.19200000000E+03 0.  0.
   -5000001    1    1    2    0    0 -0.18618740031E+03 -0.83214791010E+02  0.92681123246E+02  0.29503260851E+03  0.19200000000E+03 0.  0.
<mgrwt>
<rscale>  0 0.56019450E+03</rscale>
<asrwt>0</asrwt>
<pdfrwt beam="1">  1        2 0.28893162E-01 0.56019450E+03</pdfrwt>
<pdfrwt beam="2">  1       -2 0.55414898E-01 0.56019450E+03</pdfrwt>
<totfact> 0.57262446E+02</totfact>
</mgrwt>
</event>
<event>
 4    1  0.5847263E-005  0.5709496E+03  0.7818608E-02  0.9967579E-01
         -2   -1    0    0    0  501 -0.00000000000E+00  0.00000000000E+00  0.30533594750E+02  0.30533594857E+02  0.25500000000E-02 0. -1.
          2   -1    0    0  501    0  0.00000000000E+00 -0.00000000000E+00 -0.26690559791E+04  0.26690559791E+04  0.25500000000E-02 0.  1.
    5000001    1    1    2    0    0  0.80057031090E+02  0.18749213374E+03 -0.15812181198E+04  0.16058260089E+04  0.19200000000E+03 0.  0.
   -5000001    1    1    2    0    0 -0.80057031090E+02 -0.18749213374E+03 -0.10573042646E+04  0.10937635651E+04  0.19200000000E+03 0.  0.
<mgrwt>
<rscale>  0 0.57094964E+03</rscale>
<asrwt>0</asrwt>
<pdfrwt beam="1">  1        2 0.38129356E+00 0.57094964E+03</pdfrwt>
<pdfrwt beam="2">  1       -2 0.43619438E-02 0.57094964E+03</pdfrwt>
<totfact> 0.96127136E+02</totfact>
</mgrwt>
</event>
<event>
 4    1  0.5847263E-005  0.7334392E+03  0.7818608E-02  0.9661696E-01
          2   -1    0    0  501    0  0.00000000000E+00  0.00000000000E+00  0.14957849441E+04  0.14957849441E+04  0.25500000000E-02 0.  1.
         -2   -1    0    0    0  501 -0.00000000000E+00 -0.00000000000E+00 -0.89908145526E+02  0.89908145562E+02  0.25500000000E-02 0. -1.
    5000001    1    1    2    0    0  0.25445828461E+03 -0.10278344759E+03  0.10258353100E+04  0.10791272117E+04  0.19200000000E+03 0.  0.
   -5000001    1    1    2    0    0 -0.25445828461E+03  0.10278344759E+03  0.38004148850E+03  0.50656587793E+03  0.19200000000E+03 0.  0.
<mgrwt>
<rscale>  0 0.73343916E+03</rscale>
<asrwt>0</asrwt>
<pdfrwt beam="1">  1        2 0.21368356E+00 0.73343916E+03</pdfrwt>
<pdfrwt beam="2">  1       -2 0.12844021E-01 0.73343916E+03</pdfrwt>
<totfact> 0.67492745E+02</totfact>
</mgrwt>
</event>
<event>
 4    1  0.5847263E-005  0.4208553E+03  0.7818608E-02  0.1036788E+00
         -2   -1    0    0    0  501 -0.00000000000E+00  0.00000000000E+00  0.38772087118E+02  0.38772087202E+02  0.25500000000E-02 0. -1.
          2   -1    0    0  501    0  0.00000000000E+00 -0.00000000000E+00 -0.11420533351E+04  0.11420533351E+04  0.25500000000E-02 0.  1.
    5000001    1    1    2    0    0 -0.80720645445E+02  0.90938738085E+01 -0.63185196483E+03  0.66535661611E+03  0.19200000000E+03 0.  0.
   -5000001    1    1    2    0    0  0.80720645445E+02 -0.90938738085E+01 -0.47142928310E+03  0.51546880615E+03  0.19200000000E+03 0.  0.
<mgrwt>
<rscale>  0 0.42085528E+03</rscale>
<asrwt>0</asrwt>
<pdfrwt beam="1">  1        2 0.16315046E+00 0.42085528E+03</pdfrwt>
<pdfrwt beam="2">  1       -2 0.55388703E-02 0.42085528E+03</pdfrwt>
<totfact> 0.40581994E+03</totfact>
</mgrwt>
</event>
<event>
 4    1  0.5847263E-005  0.1256793E+04  0.7818608E-02  0.9064548E-01
         -2   -1    0    0    0  501 -0.00000000000E+00  0.00000000000E+00  0.36955093523E+03  0.36955093524E+03  0.25500000000E-02 0. -1.
          2   -1    0    0  501    0  0.00000000000E+00 -0.00000000000E+00 -0.10685458775E+04  0.10685458775E+04  0.25500000000E-02 0.  1.
    5000001    1    1    2    0    0  0.31867289241E+03 -0.42405250872E+03 -0.32710851589E+02  0.56507251068E+03  0.19200000000E+03 0.  0.
   -5000001    1    1    2    0    0 -0.31867289241E+03  0.42405250872E+03 -0.66628409069E+03  0.87302430208E+03  0.19200000000E+03 0.  0.
<mgrwt>
<rscale>  0 0.12567929E+04</rscale>
<asrwt>0</asrwt>
<pdfrwt beam="1">  1        2 0.15264941E+00 0.12567929E+04</pdfrwt>
<pdfrwt beam="2">  1       -2 0.52792991E-01 0.12567929E+04</pdfrwt>
<totfact> 0.84908980E+01</totfact>
</mgrwt>
</event>
<event>
 4    1  0.5847263E-005  0.4759434E+03  0.7818608E-02  0.1020256E+00
          2   -1    0    0  501    0  0.00000000000E+00  0.00000000000E+00  0.58911930215E+03  0.58911930216E+03  0.25500000000E-02 0.  1.
         -2   -1    0    0    0  501 -0.00000000000E+00 -0.00000000000E+00 -0.96127438045E+02  0.96127438079E+02  0.25500000000E-02 0. -1.
    5000001    1    1    2    0    0 -0.97730738550E+02  0.67376996836E+02  0.35496265060E+03  0.42065834151E+03  0.19200000000E+03 0.  0.
   -5000001    1    1    2    0    0  0.97730738550E+02 -0.67376996836E+02  0.13802921351E+03  0.26458839873E+03  0.19200000000E+03 0.  0.
<mgrwt>
<rscale>  0 0.47594340E+03</rscale>
<asrwt>0</asrwt>
<pdfrwt beam="1">  1        2 0.84159902E-01 0.47594340E+03</pdfrwt>
<pdfrwt beam="2">  1       -2 0.13732491E-01 0.47594340E+03</pdfrwt>
<totfact> 0.22418745E+03</totfact>
</mgrwt>
</event>
<event>
 4    1  0.5847263E-005  0.1057439E+04  0.7818608E-02  0.9247698E-01
         -2   -1    0    0    0  501 -0.00000000000E+00  0.00000000000E+00  0.28681806064E+03  0.28681806065E+03  0.25500000000E-02 0. -1.
          2   -1    0    0  501    0  0.00000000000E+00 -0.00000000000E+00 -0.97463895645E+03  0.97463895645E+03  0.25500000000E-02 0.  1.
    5000001    1    1    2    0    0  0.95243096037E+02  0.47498229725E+03 -0.23720679292E+03  0.57254737153E+03  0.19200000000E+03 0.  0.
   -5000001    1    1    2    0    0 -0.95243096037E+02 -0.47498229725E+03 -0.45061410288E+03  0.68890964557E+03  0.19200000000E+03 0.  0.
<mgrwt>
<rscale>  0 0.10574385E+04</rscale>
<asrwt>0</asrwt>
<pdfrwt beam="1">  1        2 0.13923413E+00 0.10574385E+04</pdfrwt>
<pdfrwt beam="2">  1       -2 0.40974009E-01 0.10574385E+04</pdfrwt>
<totfact> 0.16333047E+02</totfact>
</mgrwt>
</event>
<event>
 4    1  0.5847263E-005  0.6082766E+03  0.7818608E-02  0.9888382E-01
          2   -1    0    0  501    0  0.00000000000E+00  0.00000000000E+00  0.30795126706E+04  0.30795126706E+04  0.25500000000E-02 0.  1.
         -2   -1    0    0    0  501 -0.00000000000E+00 -0.00000000000E+00 -0.30037250292E+02  0.30037250401E+02  0.25500000000E-02 0. -1.
    5000001    1    1    2    0    0 -0.10511329303E+03 -0.21082404936E+03  0.14641410997E+04  0.14953490375E+04  0.19200000000E+03 0.  0.
   -5000001    1    1    2    0    0  0.10511329303E+03  0.21082404936E+03  0.15853343206E+04  0.16142008835E+04  0.19200000000E+03 0.  0.
<mgrwt>
<rscale>  0 0.60827656E+03</rscale>
<asrwt>0</asrwt>
<pdfrwt beam="1">  1        2 0.43993035E+00 0.60827656E+03</pdfrwt>
<pdfrwt beam="2">  1       -2 0.42910361E-02 0.60827656E+03</pdfrwt>
<totfact> 0.59271786E+02</totfact>
</mgrwt>
</event>
<event>
 4    1  0.5847263E-005  0.4778858E+03  0.7818608E-02  0.1019718E+00
          2   -1    0    0  501    0  0.00000000000E+00  0.00000000000E+00  0.10333947802E+04  0.10333947802E+04  0.25500000000E-02 0.  1.
         -2   -1    0    0    0  501 -0.00000000000E+00 -0.00000000000E+00 -0.55248700677E+02  0.55248700736E+02  0.25500000000E-02 0. -1.
    5000001    1    1    2    0    0  0.95118402266E+02 -0.10463723096E+03  0.52386509903E+03  0.57558240291E+03  0.19200000000E+03 0.  0.
   -5000001    1    1    2    0    0 -0.95118402266E+02  0.10463723096E+03  0.45428098044E+03  0.51306107799E+03  0.19200000000E+03 0.  0.
<mgrwt>
<rscale>  0 0.47788584E+03</rscale>
<asrwt>0</asrwt>
<pdfrwt beam="1">  1        2 0.14762782E+00 0.47788584E+03</pdfrwt>
<pdfrwt beam="2">  1       -2 0.78926717E-02 0.47788584E+03</pdfrwt>
<totfact> 0.26969074E+03</totfact>
</mgrwt>
</event>
<event>
 4    1  0.5847263E-005  0.5735247E+03  0.7818608E-02  0.9961909E-01
         -2   -1    0    0    0  501 -0.00000000000E+00  0.00000000000E+00  0.18343084234E+03  0.18343084236E+03  0.25500000000E-02 0. -1.
          2   -1    0    0  501    0  0.00000000000E+00 -0.00000000000E+00 -0.44830325951E+03  0.44830325952E+03  0.25500000000E-02 0.  1.
    5000001    1    1    2    0    0  0.13125457740E+03  0.16317202846E+03 -0.89551862876E+02  0.29788657423E+03  0.19200000000E+03 0.  0.
   -5000001    1    1    2    0    0 -0.13125457740E+03 -0.16317202846E+03 -0.17532055429E+03  0.33384752765E+03  0.19200000000E+03 0.  0.
<mgrwt>
<rscale>  0 0.57352470E+03</rscale>
<asrwt>0</asrwt>
<pdfrwt beam="1">  1        2 0.64043323E-01 0.57352470E+03</pdfrwt>
<pdfrwt beam="2">  1       -2 0.26204406E-01 0.57352470E+03</pdfrwt>
<totfact> 0.10024724E+03</totfact>
</mgrwt>
</event>
<event>
 4    1  0.5847263E-005  0.5052061E+03  0.7818608E-02  0.1012429E+00
          2   -1    0    0  501    0  0.00000000000E+00  0.00000000000E+00  0.26706224047E+04  0.26706224047E+04  0.25500000000E-02 0.  1.
         -2   -1    0    0    0  501 -0.00000000000E+00 -0.00000000000E+00 -0.23892669621E+02  0.23892669757E+02  0.25500000000E-02 0. -1.
    5000001    1    1    2    0    0 -0.30093938869E+02  0.16121297718E+03  0.13607107012E+04  0.13839410687E+04  0.19200000000E+03 0.  0.
   -5000001    1    1    2    0    0  0.30093938869E+02 -0.16121297718E+03  0.12860190339E+04  0.13105740058E+04  0.19200000000E+03 0.  0.
<mgrwt>
<rscale>  0 0.50520609E+03</rscale>
<asrwt>0</asrwt>
<pdfrwt beam="1">  1        2 0.38151749E+00 0.50520609E+03</pdfrwt>
<pdfrwt beam="2">  1       -2 0.34132385E-02 0.50520609E+03</pdfrwt>
<totfact> 0.14035340E+03</totfact>
</mgrwt>
</event>
<event>
 4    1  0.5847263E-005  0.5370623E+03  0.7818608E-02  0.1004534E+00
         -2   -1    0    0    0  501 -0.00000000000E+00  0.00000000000E+00  0.69324214990E+02  0.69324215037E+02  0.25500000000E-02 0. -1.
          2   -1    0    0  501    0  0.00000000000E+00 -0.00000000000E+00 -0.10401699900E+04  0.10401699900E+04  0.25500000000E-02 0.  1.
    5000001    1    1    2    0    0 -0.14583356631E+03  0.11042377134E+03 -0.39816320786E+03  0.47839186702E+03  0.19200000000E+03 0.  0.
   -5000001    1    1    2    0    0  0.14583356631E+03 -0.11042377134E+03 -0.57268256715E+03  0.63110233802E+03  0.19200000000E+03 0.  0.
<mgrwt>
<rscale>  0 0.53706226E+03</rscale>
<asrwt>0</asrwt>
<pdfrwt beam="1">  1        2 0.14859570E+00 0.53706226E+03</pdfrwt>
<pdfrwt beam="2">  1       -2 0.99034599E-02 0.53706226E+03</pdfrwt>
<totfact> 0.18581158E+03</totfact>
</mgrwt>
</event>
<event>
 4    1  0.5847263E-005  0.4818973E+03  0.7818608E-02  0.1018615E+00
          2   -1    0    0  501    0  0.00000000000E+00  0.00000000000E+00  0.20306708821E+04  0.20306708821E+04  0.25500000000E-02 0.  1.
         -2   -1    0    0    0  501 -0.00000000000E+00 -0.00000000000E+00 -0.28589687625E+02  0.28589687738E+02  0.25500000000E-02 0. -1.
    5000001    1    1    2    0    0 -0.14344152556E+02 -0.14485516769E+03  0.99307816306E+03  0.10218889432E+04  0.19200000000E+03 0.  0.
   -5000001    1    1    2    0    0  0.14344152556E+02  0.14485516769E+03  0.10090030314E+04  0.10373716266E+04  0.19200000000E+03 0.  0.
<mgrwt>
<rscale>  0 0.48189728E+03</rscale>
<asrwt>0</asrwt>
<pdfrwt beam="1">  1        2 0.29009592E+00 0.48189728E+03</pdfrwt>
<pdfrwt beam="2">  1       -2 0.40842399E-02 0.48189728E+03</pdfrwt>
<totfact> 0.22517129E+03</totfact>
</mgrwt>
</event>
<event>
 4    1  0.5847263E-005  0.4604308E+03  0.7818608E-02  0.1024656E+00
         -2   -1    0    0    0  501 -0.00000000000E+00  0.00000000000E+00  0.26068548066E+02  0.26068548191E+02  0.25500000000E-02 0. -1.
          2   -1    0    0  501    0  0.00000000000E+00 -0.00000000000E+00 -0.20330680156E+04  0.20330680156E+04  0.25500000000E-02 0.  1.
    5000001    1    1    2    0    0 -0.88664567453E+02  0.90949390479E+02 -0.99727989840E+03  0.10235059320E+04  0.19200000000E+03 0.  0.
   -5000001    1    1    2    0    0  0.88664567453E+02 -0.90949390479E+02 -0.10097195692E+04  0.10356306318E+04  0.19200000000E+03 0.  0.
<mgrwt>
<rscale>  0 0.46043080E+03</rscale>
<asrwt>0</asrwt>
<pdfrwt beam="1">  1        2 0.29043819E+00 0.46043080E+03</pdfrwt>
<pdfrwt beam="2">  1       -2 0.37240796E-02 0.46043080E+03</pdfrwt>
<totfact> 0.25873078E+03</totfact>
</mgrwt>
</event>
<event>
 4    1  0.5847263E-005  0.6480445E+03  0.7818608E-02  0.9810455E-01
         -2   -1    0    0    0  501 -0.00000000000E+00  0.00000000000E+00  0.74433712500E+02  0.74433712544E+02  0.25500000000E-02 0. -1.
          2   -1    0    0  501    0  0.00000000000E+00 -0.00000000000E+00 -0.14105225740E+04  0.14105225740E+04  0.25500000000E-02 0.  1.
    5000001    1    1    2    0    0 -0.16742344181E+03 -0.14650661111E+01 -0.20921976842E+03  0.32965082555E+03  0.19200000000E+03 0.  0.
   -5000001    1    1    2    0    0  0.16742344181E+03  0.14650661111E+01 -0.11268690931E+04  0.11553054610E+04  0.19200000000E+03 0.  0.
<mgrwt>
<rscale>  0 0.64804454E+03</rscale>
<asrwt>0</asrwt>
<pdfrwt beam="1">  1        2 0.20150321E+00 0.64804454E+03</pdfrwt>
<pdfrwt beam="2">  1       -2 0.10633388E-01 0.64804454E+03</pdfrwt>
<totfact> 0.10256418E+03</totfact>
</mgrwt>
</event>
<event>
 4    1  0.5847263E-005  0.4877845E+03  0.7818608E-02  0.1017017E+00
         -2   -1    0    0    0  501 -0.00000000000E+00  0.00000000000E+00  0.21187361635E+02  0.21187361789E+02  0.25500000000E-02 0. -1.
          2   -1    0    0  501    0  0.00000000000E+00 -0.00000000000E+00 -0.28074955436E+04  0.28074955436E+04  0.25500000000E-02 0.  1.
    5000001    1    1    2    0    0  0.49178351881E+02 -0.11091760240E+03 -0.19085254999E+04  0.19219924060E+04  0.19200000000E+03 0.  0.
   -5000001    1    1    2    0    0 -0.49178351881E+02  0.11091760240E+03 -0.87778268204E+03  0.90669049940E+03  0.19200000000E+03 0.  0.
<mgrwt>
<rscale>  0 0.48778448E+03</rscale>
<asrwt>0</asrwt>
<pdfrwt beam="1">  1        2 0.40107056E+00 0.48778448E+03</pdfrwt>
<pdfrwt beam="2">  1       -2 0.30267677E-02 0.48778448E+03</pdfrwt>
<totfact> 0.14304187E+03</totfact>
</mgrwt>
</event>
<event>
 4    1  0.5847263E-005  0.1227198E+04  0.7818608E-02  0.9089378E-01
          2   -1    0    0  501    0  0.00000000000E+00  0.00000000000E+00  0.36975655273E+04  0.36975655273E+04  0.25500000000E-02 0.  1.
         -2   -1    0    0    0  501 -0.00000000000E+00 -0.00000000000E+00 -0.10182471743E+03  0.10182471746E+03  0.25500000000E-02 0. -1.
    5000001    1    1    2    0    0  0.55510567485E+03 -0.12125605435E+03  0.13966533986E+04  0.15199835712E+04  0.19200000000E+03 0.  0.
   -5000001    1    1    2    0    0 -0.55510567485E+03  0.12125605435E+03  0.21990874113E+04  0.22794066736E+04  0.19200000000E+03 0.  0.
<mgrwt>
<rscale>  0 0.12271977E+04</rscale>
<asrwt>0</asrwt>
<pdfrwt beam="1">  1        2 0.52822370E+00 0.12271977E+04</pdfrwt>
<pdfrwt beam="2">  1       -2 0.14546387E-01 0.12271977E+04</pdfrwt>
<totfact> 0.33753806E+01</totfact>
</mgrwt>
</event>
<event>
 4    1  0.5847263E-005  0.4478122E+03  0.7818608E-02  0.1028376E+00
          2   -1    0    0  501    0  0.00000000000E+00  0.00000000000E+00  0.22095778535E+04  0.22095778535E+04  0.25500000000E-02 0.  1.
         -2   -1    0    0    0  501 -0.00000000000E+00 -0.00000000000E+00 -0.22689379460E+02  0.22689379603E+02  0.25500000000E-02 0. -1.
    5000001    1    1    2    0    0  0.83020491147E+02  0.67437029775E+02  0.88021266292E+03  0.90723673145E+03  0.19200000000E+03 0.  0.
   -5000001    1    1    2    0    0 -0.83020491147E+02 -0.67437029775E+02  0.13066758111E+04  0.13250305016E+04  0.19200000000E+03 0.  0.
<mgrwt>
<rscale>  0 0.44781224E+03</rscale>
<asrwt>0</asrwt>
<pdfrwt beam="1">  1        2 0.31565399E+00 0.44781224E+03</pdfrwt>
<pdfrwt beam="2">  1       -2 0.32413399E-02 0.44781224E+03</pdfrwt>
<totfact> 0.26103580E+03</totfact>
</mgrwt>
</event>
<event>
 4    1  0.5847263E-005  0.6172157E+03  0.7818608E-02  0.9870319E-01
         -2   -1    0    0    0  501 -0.00000000000E+00  0.00000000000E+00  0.29467858486E+03  0.29467858487E+03  0.25500000000E-02 0. -1.
          2   -1    0    0  501    0  0.00000000000E+00 -0.00000000000E+00 -0.32319551919E+03  0.32319551920E+03  0.25500000000E-02 0.  1.
    5000001    1    1    2    0    0 -0.38967697081E+02 -0.74232877369E+02  0.21257936771E+03  0.29846773540E+03  0.19200000000E+03 0.  0.
   -5000001    1    1    2    0    0  0.38967697081E+02  0.74232877369E+02 -0.24109630204E+03  0.31940636868E+03  0.19200000000E+03 0.  0.
<mgrwt>
<rscale>  0 0.61721568E+03</rscale>
<asrwt>0</asrwt>
<pdfrwt beam="1">  1        2 0.46170788E-01 0.61721568E+03</pdfrwt>
<pdfrwt beam="2">  1       -2 0.42096941E-01 0.61721568E+03</pdfrwt>
<totfact> 0.59090694E+02</totfact>
</mgrwt>
</event>
<event>
 4    1  0.5847263E-005  0.5677754E+03  0.7818608E-02  0.9974613E-01
         -2   -1    0    0    0  501 -0.00000000000E+00  0.00000000000E+00  0.12892782996E+03  0.12892782999E+03  0.25500000000E-02 0. -1.
          2   -1    0    0  501    0  0.00000000000E+00 -0.00000000000E+00 -0.62509574509E+03  0.62509574510E+03  0.25500000000E-02 0.  1.
    5000001    1    1    2    0    0 -0.17052425095E+03  0.12094180612E+03 -0.24174306863E+03  0.37283931105E+03  0.19200000000E+03 0.  0.
   -5000001    1    1    2    0    0  0.17052425095E+03 -0.12094180612E+03 -0.25442484650E+03  0.38118426403E+03  0.19200000000E+03 0.  0.
<mgrwt>
<rscale>  0 0.56777544E+03</rscale>
<asrwt>0</asrwt>
<pdfrwt beam="1">  1        2 0.89299390E-01 0.56777544E+03</pdfrwt>
<pdfrwt beam="2">  1       -2 0.18418262E-01 0.56777544E+03</pdfrwt>
<totfact> 0.12737918E+03</totfact>
</mgrwt>
</event>
<event>
 4    1  0.5847263E-005  0.8435143E+03  0.7818608E-02  0.9499083E-01
         -2   -1    0    0    0  501 -0.00000000000E+00  0.00000000000E+00  0.11933672448E+03  0.11933672450E+03  0.25500000000E-02 0. -1.
          2   -1    0    0  501    0  0.00000000000E+00 -0.00000000000E+00 -0.14905645449E+04  0.14905645449E+04  0.25500000000E-02 0.  1.
    5000001    1    1    2    0    0 -0.20998063821E+03 -0.10551445198E+03 -0.12446308066E+04  0.12810913366E+04  0.19200000000E+03 0.  0.
   -5000001    1    1    2    0    0  0.20998063821E+03  0.10551445198E+03 -0.12659701383E+03  0.32880993280E+03  0.19200000000E+03 0.  0.
<mgrwt>
<rscale>  0 0.84351429E+03</rscale>
<asrwt>0</asrwt>
<pdfrwt beam="1">  1        2 0.21293778E+00 0.84351429E+03</pdfrwt>
<pdfrwt beam="2">  1       -2 0.17048104E-01 0.84351429E+03</pdfrwt>
<totfact> 0.41857919E+02</totfact>
</mgrwt>
</event>
<event>
 4    1  0.5847263E-005  0.8298916E+03  0.7818608E-02  0.9517730E-01
          2   -1    0    0  501    0  0.00000000000E+00  0.00000000000E+00  0.44937370847E+04  0.44937370847E+04  0.25500000000E-02 0.  1.
         -2   -1    0    0    0  501 -0.00000000000E+00 -0.00000000000E+00 -0.38315556525E+02  0.38315556610E+02  0.25500000000E-02 0. -1.
    5000001    1    1    2    0    0 -0.59252966584E+02  0.36227897287E+03  0.23568345788E+04  0.23929668197E+04  0.19200000000E+03 0.  0.
   -5000001    1    1    2    0    0  0.59252966584E+02 -0.36227897287E+03  0.20985869494E+04  0.21390858216E+04  0.19200000000E+03 0.  0.
<mgrwt>
<rscale>  0 0.82989165E+03</rscale>
<asrwt>0</asrwt>
<pdfrwt beam="1">  1        2 0.64196233E+00 0.82989165E+03</pdfrwt>
<pdfrwt beam="2">  1       -2 0.54736519E-02 0.82989165E+03</pdfrwt>
<totfact> 0.48306917E+01</totfact>
</mgrwt>
</event>
<event>
 4    1  0.5847263E-005  0.4941677E+03  0.7818608E-02  0.1015313E+00
          2   -1    0    0  501    0  0.00000000000E+00  0.00000000000E+00  0.33526673639E+04  0.33526673639E+04  0.25500000000E-02 0.  1.
         -2   -1    0    0    0  501 -0.00000000000E+00 -0.00000000000E+00 -0.18209512230E+02  0.18209512409E+02  0.25500000000E-02 0. -1.
    5000001    1    1    2    0    0 -0.11721897340E+03 -0.85479570272E+02  0.12850283413E+04  0.13073671568E+04  0.19200000000E+03 0.  0.
   -5000001    1    1    2    0    0  0.11721897340E+03  0.85479570272E+02  0.20494295103E+04  0.20635097195E+04  0.19200000000E+03 0.  0.
<mgrwt>
<rscale>  0 0.49416774E+03</rscale>
<asrwt>0</asrwt>
<pdfrwt beam="1">  1        2 0.47895237E+00 0.49416774E+03</pdfrwt>
<pdfrwt beam="2">  1       -2 0.26013595E-02 0.49416774E+03</pdfrwt>
<totfact> 0.90285934E+02</totfact>
</mgrwt>
</event>
<event>
 4    1  0.5847263E-005  0.9069817E+03  0.7818608E-02  0.9416896E-01
         -2   -1    0    0    0  501 -0.00000000000E+00  0.00000000000E+00  0.89168942410E+02  0.89168942446E+02  0.25500000000E-02 0. -1.
          2   -1    0    0  501    0  0.00000000000E+00 -0.00000000000E+00 -0.23063405695E+04  0.23063405695E+04  0.25500000000E-02 0.  1.
    5000001    1    1    2    0    0 -0.39926841595E+03  0.83448163452E+02 -0.97889605453E+03  0.10777199773E+04  0.19200000000E+03 0.  0.
   -5000001    1    1    2    0    0  0.39926841595E+03 -0.83448163452E+02 -0.12382755726E+04  0.13177895347E+04  0.19200000000E+03 0.  0.
<mgrwt>
<rscale>  0 0.90698170E+03</rscale>
<asrwt>0</asrwt>
<pdfrwt beam="1">  1        2 0.32947719E+00 0.90698170E+03</pdfrwt>
<pdfrwt beam="2">  1       -2 0.12738422E-01 0.90698170E+03</pdfrwt>
<totfact> 0.26047318E+02</totfact>
</mgrwt>
</event>
<event>
 4    1  0.5847263E-005  0.5609935E+03  0.7818608E-02  0.9989809E-01
         -2   -1    0    0    0  501 -0.00000000000E+00  0.00000000000E+00  0.18209476122E+03  0.18209476123E+03  0.25500000000E-02 0. -1.
          2   -1    0    0  501    0  0.00000000000E+00 -0.00000000000E+00 -0.43207415318E+03  0.43207415319E+03  0.25500000000E-02 0.  1.
    5000001    1    1    2    0    0  0.12435147554E+03  0.16198364038E+03 -0.11338027021E+03  0.30235918192E+03  0.19200000000E+03 0.  0.
   -5000001    1    1    2    0    0 -0.12435147554E+03 -0.16198364038E+03 -0.13659912176E+03  0.31180973250E+03  0.19200000000E+03 0.  0.
<mgrwt>
<rscale>  0 0.56099355E+03</rscale>
<asrwt>0</asrwt>
<pdfrwt beam="1">  1        2 0.61724879E-01 0.56099355E+03</pdfrwt>
<pdfrwt beam="2">  1       -2 0.26013538E-01 0.56099355E+03</pdfrwt>
<totfact> 0.10586273E+03</totfact>
</mgrwt>
</event>
<event>
 4    1  0.5847263E-005  0.5499073E+03  0.7818608E-02  0.1001515E+00
          2   -1    0    0  501    0  0.00000000000E+00  0.00000000000E+00  0.55080397516E+04  0.55080397516E+04  0.25500000000E-02 0. -1.
         -2   -1    0    0    0  501 -0.00000000000E+00 -0.00000000000E+00 -0.13725301100E+02  0.13725301337E+02  0.25500000000E-02 0.  1.
    5000001    1    1    2    0    0  0.15068573962E+03 -0.58177937304E+02  0.16180330889E+04  0.16373716564E+04  0.19200000000E+03 0.  0.
   -5000001    1    1    2    0    0 -0.15068573962E+03  0.58177937304E+02  0.38762813616E+04  0.38843933965E+04  0.19200000000E+03 0.  0.
<mgrwt>
<rscale>  0 0.54990728E+03</rscale>
<asrwt>0</asrwt>
<pdfrwt beam="1">  1        2 0.78686379E+00 0.54990728E+03</pdfrwt>
<pdfrwt beam="2">  1       -2 0.19607549E-02 0.54990728E+03</pdfrwt>
<totfact> 0.26035988E+01</totfact>
</mgrwt>
</event>
<event>
 4    1  0.5847263E-005  0.5206041E+03  0.7818608E-02  0.1008537E+00
          2   -1    0    0  501    0  0.00000000000E+00  0.00000000000E+00  0.13753754899E+04  0.13753754899E+04  0.25500000000E-02 0.  1.
         -2   -1    0    0    0  501 -0.00000000000E+00 -0.00000000000E+00 -0.49264470947E+02  0.49264471013E+02  0.25500000000E-02 0. -1.
    5000001    1    1    2    0    0 -0.13552277194E+03 -0.72724770747E+02  0.43024540753E+03  0.49561116280E+03  0.19200000000E+03 0.  0.
   -5000001    1    1    2    0    0  0.13552277194E+03  0.72724770747E+02  0.89586561144E+03  0.92902879813E+03  0.19200000000E+03 0.  0.
<mgrwt>
<rscale>  0 0.52060406E+03</rscale>
<asrwt>0</asrwt>
<pdfrwt beam="1">  1        2 0.19648219E+00 0.52060406E+03</pdfrwt>
<pdfrwt beam="2">  1       -2 0.70377825E-02 0.52060406E+03</pdfrwt>
<totfact> 0.20822023E+03</totfact>
</mgrwt>
</event>
<event>
 4    1  0.5847263E-005  0.5823417E+03  0.7818608E-02  0.9942734E-01
         -2   -1    0    0    0  501 -0.00000000000E+00  0.00000000000E+00  0.20963070258E+03  0.20963070260E+03  0.25500000000E-02 0. -1.
          2   -1    0    0  501    0  0.00000000000E+00 -0.00000000000E+00 -0.40442768149E+03  0.40442768149E+03  0.25500000000E-02 0.  1.
    5000001    1    1    2    0    0  0.20958411529E+03 -0.62399815716E+02 -0.87001418160E+02  0.30373094203E+03  0.19200000000E+03 0.  0.
   -5000001    1    1    2    0    0 -0.20958411529E+03  0.62399815716E+02 -0.10779556074E+03  0.31032744206E+03  0.19200000000E+03 0.  0.
<mgrwt>
<rscale>  0 0.58234168E+03</rscale>
<asrwt>0</asrwt>
<pdfrwt beam="1">  1        2 0.57775383E-01 0.58234168E+03</pdfrwt>
<pdfrwt beam="2">  1       -2 0.29947243E-01 0.58234168E+03</pdfrwt>
<totfact> 0.88117899E+02</totfact>
</mgrwt>
</event>
<event>
 4    1  0.5847263E-005  0.9613849E+03  0.7818608E-02  0.9351941E-01
          2   -1    0    0  501    0  0.00000000000E+00  0.00000000000E+00  0.74160579268E+03  0.74160579268E+03  0.25500000000E-02 0.  1.
         -2   -1    0    0    0  501 -0.00000000000E+00 -0.00000000000E+00 -0.31157421238E+03  0.31157421239E+03  0.25500000000E-02 0. -1.
    5000001    1    1    2    0    0 -0.26253888687E+03  0.31214476025E+03  0.39780125150E+03  0.60122446238E+03  0.19200000000E+03 0.  0.
   -5000001    1    1    2    0    0  0.26253888687E+03 -0.31214476025E+03  0.32230328801E+02  0.45195554269E+03  0.19200000000E+03 0.  0.
<mgrwt>
<rscale>  0 0.96138492E+03</rscale>
<asrwt>0</asrwt>
<pdfrwt beam="1">  1        2 0.10594368E+00 0.96138492E+03</pdfrwt>
<pdfrwt beam="2">  1       -2 0.44510602E-01 0.96138492E+03</pdfrwt>
<totfact> 0.20031788E+02</totfact>
</mgrwt>
</event>
<event>
 4    1  0.5847263E-005  0.4534140E+03  0.7818608E-02  0.1026709E+00
          2   -1    0    0  501    0  0.00000000000E+00  0.00000000000E+00  0.18893414680E+04  0.18893414680E+04  0.25500000000E-02 0.  1.
         -2   -1    0    0    0  501 -0.00000000000E+00 -0.00000000000E+00 -0.27203165363E+02  0.27203165482E+02  0.25500000000E-02 0. -1.
    5000001    1    1    2    0    0 -0.94931283982E+02 -0.13660361778E+02  0.62237334766E+03  0.65833968287E+03  0.19200000000E+03 0.  0.
   -5000001    1    1    2    0    0  0.94931283982E+02  0.13660361778E+02  0.12397649550E+04  0.12582049506E+04  0.19200000000E+03 0.  0.
<mgrwt>
<rscale>  0 0.45341402E+03</rscale>
<asrwt>0</asrwt>
<pdfrwt beam="1">  1        2 0.26990595E+00 0.45341402E+03</pdfrwt>
<pdfrwt beam="2">  1       -2 0.38861661E-02 0.45341402E+03</pdfrwt>
<totfact> 0.28593285E+03</totfact>
</mgrwt>
</event>
<event>
 4    1  0.5847263E-005  0.6829656E+03  0.7818608E-02  0.9746815E-01
         -2   -1    0    0    0  501 -0.00000000000E+00  0.00000000000E+00  0.12253010423E+03  0.12253010426E+03  0.25500000000E-02 0. -1.
          2   -1    0    0  501    0  0.00000000000E+00 -0.00000000000E+00 -0.95168860036E+03  0.95168860036E+03  0.25500000000E-02 0.  1.
    5000001    1    1    2    0    0  0.18225380791E+03 -0.19999051151E+03 -0.54171813362E+03  0.63524419831E+03  0.19200000000E+03 0.  0.
   -5000001    1    1    2    0    0 -0.18225380791E+03  0.19999051151E+03 -0.28744036250E+03  0.43897450631E+03  0.19200000000E+03 0.  0.
<mgrwt>
<rscale>  0 0.68296560E+03</rscale>
<asrwt>0</asrwt>
<pdfrwt beam="1">  1        2 0.13595551E+00 0.68296560E+03</pdfrwt>
<pdfrwt beam="2">  1       -2 0.17504301E-01 0.68296560E+03</pdfrwt>
<totfact> 0.81365891E+02</totfact>
</mgrwt>
</event>
<event>
 4    1  0.5847263E-005  0.9091146E+03  0.7818608E-02  0.9414259E-01
          2   -1    0    0  501    0  0.00000000000E+00  0.00000000000E+00  0.16889012169E+04  0.16889012170E+04  0.25500000000E-02 0. -1.
         -2   -1    0    0    0  501 -0.00000000000E+00 -0.00000000000E+00 -0.12234127539E+03  0.12234127542E+03  0.25500000000E-02 0.  1.
    5000001    1    1    2    0    0  0.39963408013E+03 -0.79251881566E+01  0.98239310219E+03  0.10778359865E+04  0.19200000000E+03 0.  0.
   -5000001    1    1    2    0    0 -0.39963408013E+03  0.79251881566E+01  0.58416683937E+03  0.73340650585E+03  0.19200000000E+03 0.  0.
<mgrwt>
<rscale>  0 0.90911458E+03</rscale>
<asrwt>0</asrwt>
<pdfrwt beam="1">  1        2 0.24127159E+00 0.90911458E+03</pdfrwt>
<pdfrwt beam="2">  1       -2 0.17477326E-01 0.90911458E+03</pdfrwt>
<totfact> 0.31489819E+02</totfact>
</mgrwt>
</event>
<event>
 4    1  0.5847263E-005  0.5610451E+03  0.7818608E-02  0.9989693E-01
         -2   -1    0    0    0  501 -0.00000000000E+00  0.00000000000E+00  0.14073738379E+03  0.14073738381E+03  0.25500000000E-02 0. -1.
          2   -1    0    0  501    0  0.00000000000E+00 -0.00000000000E+00 -0.55914715624E+03  0.55914715624E+03  0.25500000000E-02 0.  1.
    5000001    1    1    2    0    0  0.13132891762E+03  0.15637311391E+03 -0.22337735777E+03  0.35841495410E+03  0.19200000000E+03 0.  0.
   -5000001    1    1    2    0    0 -0.13132891762E+03 -0.15637311391E+03 -0.19503241468E+03  0.34146958595E+03  0.19200000000E+03 0.  0.
<mgrwt>
<rscale>  0 0.56104512E+03</rscale>
<asrwt>0</asrwt>
<pdfrwt beam="1">  1        2 0.79878164E-01 0.56104512E+03</pdfrwt>
<pdfrwt beam="2">  1       -2 0.20105341E-01 0.56104512E+03</pdfrwt>
<totfact> 0.12471617E+03</totfact>
</mgrwt>
</event>
<event>
 4    1  0.5847263E-005  0.6772640E+03  0.7818608E-02  0.9756924E-01
         -2   -1    0    0    0  501 -0.00000000000E+00  0.00000000000E+00  0.16775476940E+03  0.16775476942E+03  0.25500000000E-02 0. -1.
          2   -1    0    0  501    0  0.00000000000E+00 -0.00000000000E+00 -0.68356695076E+03  0.68356695077E+03  0.25500000000E-02 0.  1.
    5000001    1    1    2    0    0  0.76419861667E+02 -0.25510812975E+03 -0.36222556586E+03  0.48886758297E+03  0.19200000000E+03 0.  0.
   -5000001    1    1    2    0    0 -0.76419861667E+02  0.25510812975E+03 -0.15358661551E+03  0.36245413721E+03  0.19200000000E+03 0.  0.
<mgrwt>
<rscale>  0 0.67726396E+03</rscale>
<asrwt>0</asrwt>
<pdfrwt beam="1">  1        2 0.97652420E-01 0.67726396E+03</pdfrwt>
<pdfrwt beam="2">  1       -2 0.23964967E-01 0.67726396E+03</pdfrwt>
<totfact> 0.71949606E+02</totfact>
</mgrwt>
</event>
<event>
 4    1  0.5847263E-005  0.5197165E+03  0.7818608E-02  0.1008757E+00
          2   -1    0    0  501    0  0.00000000000E+00  0.00000000000E+00  0.43852303272E+03  0.43852303273E+03  0.25500000000E-02 0.  1.
         -2   -1    0    0    0  501 -0.00000000000E+00 -0.00000000000E+00 -0.15398579513E+03  0.15398579515E+03  0.25500000000E-02 0. -1.
    5000001    1    1    2    0    0  0.11207398308E+03 -0.10900513963E+03  0.52358160412E+02  0.25307721175E+03  0.19200000000E+03 0.  0.
   -5000001    1    1    2    0    0 -0.11207398308E+03  0.10900513963E+03  0.23217907718E+03  0.33943161613E+03  0.19200000000E+03 0.  0.
<mgrwt>
<rscale>  0 0.51971653E+03</rscale>
<asrwt>0</asrwt>
<pdfrwt beam="1">  1        2 0.62646148E-01 0.51971653E+03</pdfrwt>
<pdfrwt beam="2">  1       -2 0.21997971E-01 0.51971653E+03</pdfrwt>
<totfact> 0.14036283E+03</totfact>
</mgrwt>
</event>
<event>
 4    1  0.5847263E-005  0.5813890E+03  0.7818608E-02  0.9944788E-01
         -2   -1    0    0    0  501 -0.00000000000E+00  0.00000000000E+00  0.61896998700E+02  0.61896998752E+02  0.25500000000E-02 0.  1.
          2   -1    0    0  501    0  0.00000000000E+00 -0.00000000000E+00 -0.13652244638E+04  0.13652244638E+04  0.25500000000E-02 0. -1.
    5000001    1    1    2    0    0 -0.10722602561E+03  0.14731080966E+03 -0.35667950913E+03  0.44416457247E+03  0.19200000000E+03 0.  0.
   -5000001    1    1    2    0    0  0.10722602561E+03 -0.14731080966E+03 -0.94664795597E+03  0.98295689008E+03  0.19200000000E+03 0.  0.
<mgrwt>
<rscale>  0 0.58138902E+03</rscale>
<asrwt>0</asrwt>
<pdfrwt beam="1">  1        2 0.19503205E+00 0.58138902E+03</pdfrwt>
<pdfrwt beam="2">  1       -2 0.88424292E-02 0.58138902E+03</pdfrwt>
<totfact> 0.14645649E+03</totfact>
</mgrwt>
</event>
<event>
 4    1  0.5847263E-005  0.8103114E+03  0.7818608E-02  0.9545211E-01
          2   -1    0    0  501    0  0.00000000000E+00  0.00000000000E+00  0.47673465997E+03  0.47673465998E+03  0.25500000000E-02 0.  1.
         -2   -1    0    0    0  501 -0.00000000000E+00 -0.00000000000E+00 -0.34432389963E+03  0.34432389964E+03  0.25500000000E-02 0. -1.
    5000001    1    1    2    0    0 -0.98360014209E+02  0.17209381420E+03 -0.23437045294E+03  0.36205591073E+03  0.19200000000E+03 0.  0.
   -5000001    1    1    2    0    0  0.98360014209E+02 -0.17209381420E+03  0.36678121327E+03  0.45900264890E+03  0.19200000000E+03 0.  0.
<mgrwt>
<rscale>  0 0.81031139E+03</rscale>
<asrwt>0</asrwt>
<pdfrwt beam="1">  1        2 0.68104951E-01 0.81031139E+03</pdfrwt>
<pdfrwt beam="2">  1       -2 0.49189129E-01 0.81031139E+03</pdfrwt>
<totfact> 0.27907651E+02</totfact>
</mgrwt>
</event>
<event>
 4    1  0.5847263E-005  0.4690870E+03  0.7818608E-02  0.1022178E+00
         -2   -1    0    0    0  501 -0.00000000000E+00  0.00000000000E+00  0.71414875079E+02  0.71414875125E+02  0.25500000000E-02 0. -1.
          2   -1    0    0  501    0  0.00000000000E+00 -0.00000000000E+00 -0.77029681905E+03  0.77029681906E+03  0.25500000000E-02 0.  1.
    5000001    1    1    2    0    0 -0.10256269548E+03  0.83748796594E+02 -0.39389204656E+03  0.45776403504E+03  0.19200000000E+03 0.  0.
   -5000001    1    1    2    0    0  0.10256269548E+03 -0.83748796594E+02 -0.30498989741E+03  0.38394765914E+03  0.19200000000E+03 0.  0.
<mgrwt>
<rscale>  0 0.46908699E+03</rscale>
<asrwt>0</asrwt>
<pdfrwt beam="1">  1        2 0.11004240E+00 0.46908699E+03</pdfrwt>
<pdfrwt beam="2">  1       -2 0.10202125E-01 0.46908699E+03</pdfrwt>
<totfact> 0.26404372E+03</totfact>
</mgrwt>
</event>
<event>
 4    1  0.5847263E-005  0.7215917E+03  0.7818608E-02  0.9681004E-01
         -2   -1    0    0    0  501 -0.00000000000E+00  0.00000000000E+00  0.53829155590E+02  0.53829155650E+02  0.25500000000E-02 0. -1.
          2   -1    0    0  501    0  0.00000000000E+00 -0.00000000000E+00 -0.24182741069E+04  0.24182741069E+04  0.25500000000E-02 0.  1.
    5000001    1    1    2    0    0 -0.34144475995E+02  0.23164566470E+03 -0.18542943160E+04  0.18788552285E+04  0.19200000000E+03 0.  0.
   -5000001    1    1    2    0    0  0.34144475995E+02 -0.23164566470E+03 -0.51015063524E+03  0.59324803400E+03  0.19200000000E+03 0.  0.
<mgrwt>
<rscale>  0 0.72159172E+03</rscale>
<asrwt>0</asrwt>
<pdfrwt beam="1">  1        2 0.34546766E+00 0.72159172E+03</pdfrwt>
<pdfrwt beam="2">  1       -2 0.76898809E-02 0.72159172E+03</pdfrwt>
<totfact> 0.52675746E+02</totfact>
</mgrwt>
</event>
<event>
 4    1  0.5847263E-005  0.1107998E+04  0.7818608E-02  0.9197432E-01
         -2   -1    0    0    0  501 -0.00000000000E+00  0.00000000000E+00  0.91363411504E+03  0.91363411505E+03  0.25500000000E-02 0.  1.
          2   -1    0    0  501    0  0.00000000000E+00 -0.00000000000E+00 -0.33592738787E+03  0.33592738788E+03  0.25500000000E-02 0. -1.
    5000001    1    1    2    0    0  0.50032539832E+03  0.11580834489E+03  0.37846385379E+03  0.66621015121E+03  0.19200000000E+03 0.  0.
   -5000001    1    1    2    0    0 -0.50032539832E+03 -0.11580834489E+03  0.19924287338E+03  0.58335135171E+03  0.19200000000E+03 0.  0.
<mgrwt>
<rscale>  0 0.11079977E+04</rscale>
<asrwt>0</asrwt>
<pdfrwt beam="1">  1        2 0.47989626E-01 0.11079977E+04</pdfrwt>
<pdfrwt beam="2">  1       -2 0.13051916E+00 0.11079977E+04</pdfrwt>
<totfact> 0.44862703E+01</totfact>
</mgrwt>
</event>
<event>
 4    1  0.5847263E-005  0.5960245E+03  0.7818608E-02  0.9913688E-01
         -2   -1    0    0    0  501 -0.00000000000E+00  0.00000000000E+00  0.51928854862E+02  0.51928854924E+02  0.25500000000E-02 0. -1.
          2   -1    0    0  501    0  0.00000000000E+00 -0.00000000000E+00 -0.17102495472E+04  0.17102495472E+04  0.25500000000E-02 0.  1.
    5000001    1    1    2    0    0  0.17450619301E+03 -0.14279136775E+03 -0.73085707294E+03  0.78857963908E+03  0.19200000000E+03 0.  0.
   -5000001    1    1    2    0    0 -0.17450619301E+03  0.14279136775E+03 -0.92746361938E+03  0.97359876303E+03  0.19200000000E+03 0.  0.
<mgrwt>
<rscale>  0 0.59602450E+03</rscale>
<asrwt>0</asrwt>
<pdfrwt beam="1">  1        2 0.24432133E+00 0.59602450E+03</pdfrwt>
<pdfrwt beam="2">  1       -2 0.74184089E-02 0.59602450E+03</pdfrwt>
<totfact> 0.12823757E+03</totfact>
</mgrwt>
</event>
<event>
 4    1  0.5847263E-005  0.4094745E+03  0.7818608E-02  0.1040547E+00
         -2   -1    0    0    0  501 -0.00000000000E+00  0.00000000000E+00  0.78717740262E+02  0.78717740303E+02  0.25500000000E-02 0. -1.
          2   -1    0    0  501    0  0.00000000000E+00 -0.00000000000E+00 -0.53250178972E+03  0.53250178973E+03  0.25500000000E-02 0.  1.
    5000001    1    1    2    0    0  0.55291671273E+02 -0.42752803287E+02 -0.24626062364E+03  0.31998947773E+03  0.19200000000E+03 0.  0.
   -5000001    1    1    2    0    0 -0.55291671273E+02  0.42752803287E+02 -0.20752342582E+03  0.29123005230E+03  0.19200000000E+03 0.  0.
<mgrwt>
<rscale>  0 0.40947448E+03</rscale>
<asrwt>0</asrwt>
<pdfrwt beam="1">  1        2 0.76071682E-01 0.40947448E+03</pdfrwt>
<pdfrwt beam="2">  1       -2 0.11245392E-01 0.40947448E+03</pdfrwt>
<totfact> 0.34880200E+03</totfact>
</mgrwt>
</event>
<event>
 4    1  0.5847263E-005  0.8132657E+03  0.7818608E-02  0.9541012E-01
          2   -1    0    0  501    0  0.00000000000E+00  0.00000000000E+00  0.75316290099E+03  0.75316290099E+03  0.25500000000E-02 0.  1.
         -2   -1    0    0    0  501 -0.00000000000E+00 -0.00000000000E+00 -0.21954119402E+03  0.21954119403E+03  0.25500000000E-02 0. -1.
    5000001    1    1    2    0    0  0.21523444769E+03  0.16979844731E+03 -0.93929154656E+01  0.33482772741E+03  0.19200000000E+03 0.  0.
   -5000001    1    1    2    0    0 -0.21523444769E+03 -0.16979844731E+03  0.54301462244E+03  0.63787636762E+03  0.19200000000E+03 0.  0.
<mgrwt>
<rscale>  0 0.81326572E+03</rscale>
<asrwt>0</asrwt>
<pdfrwt beam="1">  1        2 0.10759470E+00 0.81326572E+03</pdfrwt>
<pdfrwt beam="2">  1       -2 0.31363028E-01 0.81326572E+03</pdfrwt>
<totfact> 0.38841789E+02</totfact>
</mgrwt>
</event>
<event>
 4    1  0.5847263E-005  0.6114940E+03  0.7818608E-02  0.9881842E-01
         -2   -1    0    0    0  501 -0.00000000000E+00  0.00000000000E+00  0.47103958275E+02  0.47103958344E+02  0.25500000000E-02 0. -1.
          2   -1    0    0  501    0  0.00000000000E+00 -0.00000000000E+00 -0.19845728057E+04  0.19845728057E+04  0.25500000000E-02 0.  1.
    5000001    1    1    2    0    0  0.15454470432E+03 -0.17152740008E+03 -0.77753961537E+03  0.83350918896E+03  0.19200000000E+03 0.  0.
   -5000001    1    1    2    0    0 -0.15454470432E+03  0.17152740008E+03 -0.11599292320E+04  0.11981675751E+04  0.19200000000E+03 0.  0.
<mgrwt>
<rscale>  0 0.61149402E+03</rscale>
<asrwt>0</asrwt>
<pdfrwt beam="1">  1        2 0.28351035E+00 0.61149402E+03</pdfrwt>
<pdfrwt beam="2">  1       -2 0.67291381E-02 0.61149402E+03</pdfrwt>
<totfact> 0.10871397E+03</totfact>
</mgrwt>
</event>
<event>
 4    1  0.5847263E-005  0.4917033E+03  0.7818608E-02  0.1015967E+00
         -2   -1    0    0    0  501 -0.00000000000E+00  0.00000000000E+00  0.32953018216E+02  0.32953018314E+02  0.25500000000E-02 0. -1.
          2   -1    0    0  501    0  0.00000000000E+00 -0.00000000000E+00 -0.18342182208E+04  0.18342182208E+04  0.25500000000E-02 0.  1.
    5000001    1    1    2    0    0 -0.14190726398E+03 -0.51203342839E+02 -0.10093439239E+04  0.10384597299E+04  0.19200000000E+03 0.  0.
   -5000001    1    1    2    0    0  0.14190726398E+03  0.51203342839E+02 -0.79192127864E+03  0.82871150918E+03  0.19200000000E+03 0.  0.
<mgrwt>
<rscale>  0 0.49170327E+03</rscale>
<asrwt>0</asrwt>
<pdfrwt beam="1">  1        2 0.26203111E+00 0.49170327E+03</pdfrwt>
<pdfrwt beam="2">  1       -2 0.47075752E-02 0.49170327E+03</pdfrwt>
<totfact> 0.22683862E+03</totfact>
</mgrwt>
</event>
<event>
 4    1  0.5847263E-005  0.4828670E+03  0.7818608E-02  0.1018350E+00
         -2   -1    0    0    0  501 -0.00000000000E+00  0.00000000000E+00  0.64924143549E+02  0.64924143599E+02  0.25500000000E-02 0. -1.
          2   -1    0    0  501    0  0.00000000000E+00 -0.00000000000E+00 -0.89781909772E+03  0.89781909772E+03  0.25500000000E-02 0.  1.
    5000001    1    1    2    0    0 -0.13523174873E+03 -0.46055429778E+02 -0.35285138607E+03  0.42635293963E+03  0.19200000000E+03 0.  0.
   -5000001    1    1    2    0    0  0.13523174873E+03  0.46055429778E+02 -0.48004356810E+03  0.53639030169E+03  0.19200000000E+03 0.  0.
<mgrwt>
<rscale>  0 0.48286700E+03</rscale>
<asrwt>0</asrwt>
<pdfrwt beam="1">  1        2 0.12825986E+00 0.48286700E+03</pdfrwt>
<pdfrwt beam="2">  1       -2 0.92748782E-02 0.48286700E+03</pdfrwt>
<totfact> 0.25279166E+03</totfact>
</mgrwt>
</event>
<event>
 4    1  0.5847263E-005  0.6038836E+03  0.7818608E-02  0.9897381E-01
         -2   -1    0    0    0  501 -0.00000000000E+00  0.00000000000E+00  0.26432718295E+02  0.26432718418E+02  0.25500000000E-02 0. -1.
          2   -1    0    0  501    0  0.00000000000E+00 -0.00000000000E+00 -0.34490915137E+04  0.34490915137E+04  0.25500000000E-02 0.  1.
    5000001    1    1    2    0    0  0.79270816305E+02 -0.10872296915E+03 -0.28063524105E+04  0.28161289740E+04  0.19200000000E+03 0.  0.
   -5000001    1    1    2    0    0 -0.79270816305E+02  0.10872296915E+03 -0.61630638487E+03  0.65939525807E+03  0.19200000000E+03 0.  0.
<mgrwt>
<rscale>  0 0.60388365E+03</rscale>
<asrwt>0</asrwt>
<pdfrwt beam="1">  1        2 0.49272707E+00 0.60388365E+03</pdfrwt>
<pdfrwt beam="2">  1       -2 0.37761048E-02 0.60388365E+03</pdfrwt>
<totfact> 0.44492024E+02</totfact>
</mgrwt>
</event>
<event>
 4    1  0.5847263E-005  0.5320960E+03  0.7818608E-02  0.1005725E+00
         -2   -1    0    0    0  501 -0.00000000000E+00  0.00000000000E+00  0.20111296561E+02  0.20111296723E+02  0.25500000000E-02 0. -1.
          2   -1    0    0  501    0  0.00000000000E+00 -0.00000000000E+00 -0.35194912150E+04  0.35194912150E+04  0.25500000000E-02 0.  1.
    5000001    1    1    2    0    0 -0.14776449935E+03 -0.98991922831E+02 -0.14317888710E+04  0.14555126654E+04  0.19200000000E+03 0.  0.
   -5000001    1    1    2    0    0  0.14776449935E+03  0.98991922831E+02 -0.20675910474E+04  0.20840898463E+04  0.19200000000E+03 0.  0.
<mgrwt>
<rscale>  0 0.53209598E+03</rscale>
<asrwt>0</asrwt>
<pdfrwt beam="1">  1        2 0.50278407E+00 0.53209598E+03</pdfrwt>
<pdfrwt beam="2">  1       -2 0.28730446E-02 0.53209598E+03</pdfrwt>
<totfact> 0.61833046E+02</totfact>
</mgrwt>
</event>
<event>
 4    1  0.5847263E-005  0.4214659E+03  0.7818608E-02  0.1036590E+00
         -2   -1    0    0    0  501 -0.00000000000E+00  0.00000000000E+00  0.30736713788E+02  0.30736713894E+02  0.25500000000E-02 0. -1.
          2   -1    0    0  501    0  0.00000000000E+00 -0.00000000000E+00 -0.14447991682E+04  0.14447991682E+04  0.25500000000E-02 0.  1.
    5000001    1    1    2    0    0  0.30215122306E+02 -0.44495929392E+02 -0.46825803125E+03  0.50894245763E+03  0.19200000000E+03 0.  0.
   -5000001    1    1    2    0    0 -0.30215122306E+02  0.44495929392E+02 -0.94580442320E+03  0.96659342450E+03  0.19200000000E+03 0.  0.
<mgrwt>
<rscale>  0 0.42146591E+03</rscale>
<asrwt>0</asrwt>
<pdfrwt beam="1">  1        2 0.20639984E+00 0.42146591E+03</pdfrwt>
<pdfrwt beam="2">  1       -2 0.43909600E-02 0.42146591E+03</pdfrwt>
<totfact> 0.39832747E+03</totfact>
</mgrwt>
</event>
<event>
 4    1  0.5847263E-005  0.1066888E+04  0.7818608E-02  0.9238079E-01
          2   -1    0    0  501    0  0.00000000000E+00  0.00000000000E+00  0.12231935071E+04  0.12231935071E+04  0.25500000000E-02 0.  1.
         -2   -1    0    0    0  501 -0.00000000000E+00 -0.00000000000E+00 -0.23263914152E+03  0.23263914154E+03  0.25500000000E-02 0. -1.
    5000001    1    1    2    0    0 -0.31408112608E+03  0.38593850980E+03  0.50913940913E+03  0.73734823865E+03  0.19200000000E+03 0.  0.
   -5000001    1    1    2    0    0  0.31408112608E+03 -0.38593850980E+03  0.48141495644E+03  0.71848440998E+03  0.19200000000E+03 0.  0.
<mgrwt>
<rscale>  0 0.10668883E+04</rscale>
<asrwt>0</asrwt>
<pdfrwt beam="1">  1        2 0.17474193E+00 0.10668883E+04</pdfrwt>
<pdfrwt beam="2">  1       -2 0.33234163E-01 0.10668883E+04</pdfrwt>
<totfact> 0.17402658E+02</totfact>
</mgrwt>
</event>
<event>
 4    1  0.5847263E-005  0.4248846E+03  0.7818608E-02  0.1035488E+00
         -2   -1    0    0    0  501 -0.00000000000E+00  0.00000000000E+00  0.44908449542E+02  0.44908449614E+02  0.25500000000E-02 0. -1.
          2   -1    0    0  501    0  0.00000000000E+00 -0.00000000000E+00 -0.10049719382E+04  0.10049719382E+04  0.25500000000E-02 0.  1.
    5000001    1    1    2    0    0 -0.17507655687E+02 -0.75197011488E+02 -0.36135731697E+03  0.41641832221E+03  0.19200000000E+03 0.  0.
   -5000001    1    1    2    0    0  0.17507655687E+02  0.75197011488E+02 -0.59870617167E+03  0.63346206559E+03  0.19200000000E+03 0.  0.
<mgrwt>
<rscale>  0 0.42488460E+03</rscale>
<asrwt>0</asrwt>
<pdfrwt beam="1">  1        2 0.14356741E+00 0.42488460E+03</pdfrwt>
<pdfrwt beam="2">  1       -2 0.64154934E-02 0.42488460E+03</pdfrwt>
<totfact> 0.38812263E+03</totfact>
</mgrwt>
</event>
<event>
 4    1  0.5847263E-005  0.8865494E+03  0.7818608E-02  0.9442553E-01
         -2   -1    0    0    0  501 -0.00000000000E+00  0.00000000000E+00  0.71683193372E+03  0.71683193372E+03  0.25500000000E-02 0. -1.
          2   -1    0    0  501    0  0.00000000000E+00 -0.00000000000E+00 -0.27411229571E+03  0.27411229572E+03  0.25500000000E-02 0.  1.
    5000001    1    1    2    0    0  0.24574034217E+03  0.31163351717E+03  0.16983775213E+03  0.47245383567E+03  0.19200000000E+03 0.  0.
   -5000001    1    1    2    0    0 -0.24574034217E+03 -0.31163351717E+03  0.27288188588E+03  0.51849039377E+03  0.19200000000E+03 0.  0.
<mgrwt>
<rscale>  0 0.88654937E+03</rscale>
<asrwt>0</asrwt>
<pdfrwt beam="1">  1        2 0.39158899E-01 0.88654937E+03</pdfrwt>
<pdfrwt beam="2">  1       -2 0.10240456E+00 0.88654937E+03</pdfrwt>
<totfact> 0.10336298E+02</totfact>
</mgrwt>
</event>
<event>
 4    1  0.5847263E-005  0.6768963E+03  0.7818608E-02  0.9757579E-01
         -2   -1    0    0    0  501 -0.00000000000E+00  0.00000000000E+00  0.28667032992E+03  0.28667032994E+03  0.25500000000E-02 0. -1.
          2   -1    0    0  501    0  0.00000000000E+00 -0.00000000000E+00 -0.39957793619E+03  0.39957793620E+03  0.25500000000E-02 0.  1.
    5000001    1    1    2    0    0  0.16164936279E+02 -0.22555270549E+03  0.10873229608E+03  0.31594626178E+03  0.19200000000E+03 0.  0.
   -5000001    1    1    2    0    0 -0.16164936279E+02  0.22555270549E+03 -0.22163990235E+03  0.37030200436E+03  0.19200000000E+03 0.  0.
<mgrwt>
<rscale>  0 0.67689627E+03</rscale>
<asrwt>0</asrwt>
<pdfrwt beam="1">  1        2 0.57082562E-01 0.67689627E+03</pdfrwt>
<pdfrwt beam="2">  1       -2 0.40952904E-01 0.67689627E+03</pdfrwt>
<totfact> 0.49227957E+02</totfact>
</mgrwt>
</event>
<event>
 4    1  0.5847263E-005  0.6028652E+03  0.7818608E-02  0.9899479E-01
         -2   -1    0    0    0  501 -0.00000000000E+00  0.00000000000E+00  0.84209354965E+02  0.84209355004E+02  0.25500000000E-02 0. -1.
          2   -1    0    0  501    0  0.00000000000E+00 -0.00000000000E+00 -0.10789967823E+04  0.10789967823E+04  0.25500000000E-02 0.  1.
    5000001    1    1    2    0    0 -0.17264084371E+03  0.15195237088E+03 -0.56148091008E+03  0.63641118494E+03  0.19200000000E+03 0.  0.
   -5000001    1    1    2    0    0  0.17264084371E+03 -0.15195237088E+03 -0.43330651721E+03  0.52679495232E+03  0.19200000000E+03 0.  0.
<mgrwt>
<rscale>  0 0.60286524E+03</rscale>
<asrwt>0</asrwt>
<pdfrwt beam="1">  1        2 0.15414239E+00 0.60286524E+03</pdfrwt>
<pdfrwt beam="2">  1       -2 0.12029908E-01 0.60286524E+03</pdfrwt>
<totfact> 0.12819294E+03</totfact>
</mgrwt>
</event>
<event>
 4    1  0.5847263E-005  0.5924412E+03  0.7818608E-02  0.9921213E-01
          2   -1    0    0  501    0  0.00000000000E+00  0.00000000000E+00  0.20168521783E+04  0.20168521783E+04  0.25500000000E-02 0.  1.
         -2   -1    0    0    0  501 -0.00000000000E+00 -0.00000000000E+00 -0.43506735398E+02  0.43506735473E+02  0.25500000000E-02 0. -1.
    5000001    1    1    2    0    0  0.81976649504E+02  0.20873132675E+03  0.90193298840E+03  0.94901846842E+03  0.19200000000E+03 0.  0.
   -5000001    1    1    2    0    0 -0.81976649504E+02 -0.20873132675E+03  0.10714124545E+04  0.11113404454E+04  0.19200000000E+03 0.  0.
<mgrwt>
<rscale>  0 0.59244123E+03</rscale>
<asrwt>0</asrwt>
<pdfrwt beam="1">  1        2 0.28812180E+00 0.59244123E+03</pdfrwt>
<pdfrwt beam="2">  1       -2 0.62152465E-02 0.59244123E+03</pdfrwt>
<totfact> 0.11879365E+03</totfact>
</mgrwt>
</event>
<event>
 4    1  0.5847263E-005  0.4741764E+03  0.7818608E-02  0.1020748E+00
         -2   -1    0    0    0  501 -0.00000000000E+00  0.00000000000E+00  0.28587095081E+02  0.28587095195E+02  0.25500000000E-02 0. -1.
          2   -1    0    0  501    0  0.00000000000E+00 -0.00000000000E+00 -0.19663005028E+04  0.19663005028E+04  0.25500000000E-02 0.  1.
    5000001    1    1    2    0    0 -0.37990840431E+02 -0.96930018501E+02 -0.58080067078E+03  0.62050959028E+03  0.19200000000E+03 0.  0.
   -5000001    1    1    2    0    0  0.37990840431E+02  0.96930018501E+02 -0.13569127369E+04  0.13743780077E+04  0.19200000000E+03 0.  0.
<mgrwt>
<rscale>  0 0.47417642E+03</rscale>
<asrwt>0</asrwt>
<pdfrwt beam="1">  1        2 0.28089999E+00 0.47417642E+03</pdfrwt>
<pdfrwt beam="2">  1       -2 0.40838720E-02 0.47417642E+03</pdfrwt>
<totfact> 0.24252904E+03</totfact>
</mgrwt>
</event>
<event>
 4    1  0.5847263E-005  0.7421909E+03  0.7818608E-02  0.9647682E-01
          2   -1    0    0  501    0  0.00000000000E+00  0.00000000000E+00  0.12236001734E+04  0.12236001734E+04  0.25500000000E-02 0. -1.
         -2   -1    0    0    0  501 -0.00000000000E+00 -0.00000000000E+00 -0.11254643423E+03  0.11254643426E+03  0.25500000000E-02 0.  1.
    5000001    1    1    2    0    0  0.19160765313E+03  0.60722024965E+02  0.11291148721E+03  0.30002276746E+03  0.19200000000E+03 0.  0.
   -5000001    1    1    2    0    0 -0.19160765313E+03 -0.60722024965E+02  0.99814225194E+03  0.10361238402E+04  0.19200000000E+03 0.  0.
<mgrwt>
<rscale>  0 0.74219091E+03</rscale>
<asrwt>0</asrwt>
<pdfrwt beam="1">  1        2 0.17480002E+00 0.74219091E+03</pdfrwt>
<pdfrwt beam="2">  1       -2 0.16078062E-01 0.74219091E+03</pdfrwt>
<totfact> 0.64882819E+02</totfact>
</mgrwt>
</event>
<event>
 4    1  0.5847263E-005  0.5388355E+03  0.7818608E-02  0.1004112E+00
         -2   -1    0    0    0  501 -0.00000000000E+00  0.00000000000E+00  0.19637582783E+03  0.19637582785E+03  0.25500000000E-02 0. -1.
          2   -1    0    0  501    0  0.00000000000E+00 -0.00000000000E+00 -0.36962764831E+03  0.36962764832E+03  0.25500000000E-02 0.  1.
    5000001    1    1    2    0    0 -0.23856770626E+02  0.18382985369E+03 -0.47897249938E+02  0.27114702131E+03  0.19200000000E+03 0.  0.
   -5000001    1    1    2    0    0  0.23856770626E+02 -0.18382985369E+03 -0.12535457054E+03  0.29485645485E+03  0.19200000000E+03 0.  0.
<mgrwt>
<rscale>  0 0.53883554E+03</rscale>
<asrwt>0</asrwt>
<pdfrwt beam="1">  1        2 0.52803949E-01 0.53883554E+03</pdfrwt>
<pdfrwt beam="2">  1       -2 0.28053690E-01 0.53883554E+03</pdfrwt>
<totfact> 0.10977713E+03</totfact>
</mgrwt>
</event>
<event>
 4    1  0.5847263E-005  0.5225394E+03  0.7818608E-02  0.1008058E+00
          2   -1    0    0  501    0  0.00000000000E+00  0.00000000000E+00  0.20971538885E+04  0.20971538885E+04  0.25500000000E-02 0.  1.
         -2   -1    0    0    0  501 -0.00000000000E+00 -0.00000000000E+00 -0.32549763061E+02  0.32549763161E+02  0.25500000000E-02 0. -1.
    5000001    1    1    2    0    0 -0.11130620629E+03 -0.97294392827E+02  0.63416437659E+03  0.67888417788E+03  0.19200000000E+03 0.  0.
   -5000001    1    1    2    0    0  0.11130620629E+03  0.97294392827E+02  0.14304397489E+04  0.14508194738E+04  0.19200000000E+03 0.  0.
<mgrwt>
<rscale>  0 0.52253942E+03</rscale>
<asrwt>0</asrwt>
<pdfrwt beam="1">  1        2 0.29959357E+00 0.52253942E+03</pdfrwt>
<pdfrwt beam="2">  1       -2 0.46499637E-02 0.52253942E+03</pdfrwt>
<totfact> 0.17062293E+03</totfact>
</mgrwt>
</event>
<event>
 4    1  0.5847263E-005  0.4319134E+03  0.7818608E-02  0.1033257E+00
          2   -1    0    0  501    0  0.00000000000E+00  0.00000000000E+00  0.18939083278E+04  0.18939083278E+04  0.25500000000E-02 0.  1.
         -2   -1    0    0    0  501 -0.00000000000E+00 -0.00000000000E+00 -0.24624895701E+02  0.24624895833E+02  0.25500000000E-02 0. -1.
    5000001    1    1    2    0    0  0.32917452162E+02 -0.26976087980E+02  0.13309968423E+04  0.13454470864E+04  0.19200000000E+03 0.  0.
   -5000001    1    1    2    0    0 -0.32917452162E+02  0.26976087980E+02  0.53828658978E+03  0.57308613726E+03  0.19200000000E+03 0.  0.
<mgrwt>
<rscale>  0 0.43191339E+03</rscale>
<asrwt>0</asrwt>
<pdfrwt beam="1">  1        2 0.27055824E+00 0.43191339E+03</pdfrwt>
<pdfrwt beam="2">  1       -2 0.35178435E-02 0.43191339E+03</pdfrwt>
<totfact> 0.33109812E+03</totfact>
</mgrwt>
</event>
<event>
 4    1  0.5847263E-005  0.5128104E+03  0.7818608E-02  0.1010488E+00
         -2   -1    0    0    0  501 -0.00000000000E+00  0.00000000000E+00  0.27665672126E+02  0.27665672244E+02  0.25500000000E-02 0. -1.
          2   -1    0    0  501    0  0.00000000000E+00 -0.00000000000E+00 -0.23763606300E+04  0.23763606300E+04  0.25500000000E-02 0.  1.
    5000001    1    1    2    0    0  0.11698421052E+03 -0.12324722174E+03 -0.11644793779E+04  0.11923721754E+04  0.19200000000E+03 0.  0.
   -5000001    1    1    2    0    0 -0.11698421052E+03  0.12324722174E+03 -0.11842155800E+04  0.12116541268E+04  0.19200000000E+03 0.  0.
<mgrwt>
<rscale>  0 0.51281035E+03</rscale>
<asrwt>0</asrwt>
<pdfrwt beam="1">  1        2 0.33947996E+00 0.51281035E+03</pdfrwt>
<pdfrwt beam="2">  1       -2 0.39522404E-02 0.51281035E+03</pdfrwt>
<totfact> 0.15865245E+03</totfact>
</mgrwt>
</event>
<event>
 4    1  0.5847263E-005  0.6297314E+03  0.7818608E-02  0.9845573E-01
          2   -1    0    0  501    0  0.00000000000E+00  0.00000000000E+00  0.30213378021E+03  0.30213378023E+03  0.25500000000E-02 0.  1.
         -2   -1    0    0    0  501 -0.00000000000E+00 -0.00000000000E+00 -0.32813415606E+03  0.32813415607E+03  0.25500000000E-02 0. -1.
    5000001    1    1    2    0    0  0.22892705868E+03  0.62674295182E+02 -0.90142100835E+02  0.31831629524E+03  0.19200000000E+03 0.  0.
   -5000001    1    1    2    0    0 -0.22892705868E+03 -0.62674295182E+02  0.64141724991E+02  0.31195164105E+03  0.19200000000E+03 0.  0.
<mgrwt>
<rscale>  0 0.62973141E+03</rscale>
<asrwt>0</asrwt>
<pdfrwt beam="1">  1        2 0.43161969E-01 0.62973141E+03</pdfrwt>
<pdfrwt beam="2">  1       -2 0.46876308E-01 0.62973141E+03</pdfrwt>
<totfact> 0.51430622E+02</totfact>
</mgrwt>
</event>
<event>
 4    1  0.5847263E-005  0.5209044E+03  0.7818608E-02  0.1008462E+00
          2   -1    0    0  501    0  0.00000000000E+00  0.00000000000E+00  0.28721332226E+03  0.28721332227E+03  0.25500000000E-02 0.  1.
         -2   -1    0    0    0  501 -0.00000000000E+00 -0.00000000000E+00 -0.23618450937E+03  0.23618450938E+03  0.25500000000E-02 0. -1.
    5000001    1    1    2    0    0  0.43125391948E+02 -0.16255342270E+03 -0.26578949403E+02  0.25662006004E+03  0.19200000000E+03 0.  0.
   -5000001    1    1    2    0    0 -0.43125391948E+02  0.16255342270E+03  0.77607762296E+02  0.26677777162E+03  0.19200000000E+03 0.  0.
<mgrwt>
<rscale>  0 0.52090436E+03</rscale>
<asrwt>0</asrwt>
<pdfrwt beam="1">  1        2 0.41030475E-01 0.52090436E+03</pdfrwt>
<pdfrwt beam="2">  1       -2 0.33740644E-01 0.52090436E+03</pdfrwt>
<totfact> 0.10297945E+03</totfact>
</mgrwt>
</event>
<event>
 4    1  0.5847263E-005  0.1072245E+04  0.7818608E-02  0.9232674E-01
         -2   -1    0    0    0  501 -0.00000000000E+00  0.00000000000E+00  0.30561353446E+03  0.30561353447E+03  0.25500000000E-02 0. -1.
          2   -1    0    0  501    0  0.00000000000E+00 -0.00000000000E+00 -0.94049285739E+03  0.94049285739E+03  0.25500000000E-02 0.  1.
    5000001    1    1    2    0    0 -0.44412414663E+03  0.21107311473E+03 -0.20863619893E+03  0.56761886939E+03  0.19200000000E+03 0.  0.
   -5000001    1    1    2    0    0  0.44412414663E+03 -0.21107311473E+03 -0.42624312400E+03  0.67848752247E+03  0.19200000000E+03 0.  0.
<mgrwt>
<rscale>  0 0.10722450E+04</rscale>
<asrwt>0</asrwt>
<pdfrwt beam="1">  1        2 0.13435612E+00 0.10722450E+04</pdfrwt>
<pdfrwt beam="2">  1       -2 0.43659077E-01 0.10722450E+04</pdfrwt>
<totfact> 0.15132199E+02</totfact>
</mgrwt>
</event>
<event>
 4    1  0.5847263E-005  0.4912156E+03  0.7818608E-02  0.1016098E+00
          2   -1    0    0  501    0  0.00000000000E+00  0.00000000000E+00  0.18400180844E+04  0.18400180844E+04  0.25500000000E-02 0.  1.
         -2   -1    0    0    0  501 -0.00000000000E+00 -0.00000000000E+00 -0.32784021205E+02  0.32784021304E+02  0.25500000000E-02 0. -1.
    5000001    1    1    2    0    0  0.13734217258E+03  0.44869436418E+02  0.10973869784E+04  0.11233869854E+04  0.19200000000E+03 0.  0.
   -5000001    1    1    2    0    0 -0.13734217258E+03 -0.44869436418E+02  0.70984708483E+03  0.74941512030E+03  0.19200000000E+03 0.  0.
<mgrwt>
<rscale>  0 0.49121560E+03</rscale>
<asrwt>0</asrwt>
<pdfrwt beam="1">  1        2 0.26285969E+00 0.49121560E+03</pdfrwt>
<pdfrwt beam="2">  1       -2 0.46834322E-02 0.49121560E+03</pdfrwt>
<totfact> 0.22712206E+03</totfact>
</mgrwt>
</event>
<event>
 4    1  0.5847263E-005  0.6863401E+03  0.7818608E-02  0.9740882E-01
          2   -1    0    0  501    0  0.00000000000E+00  0.00000000000E+00  0.99484164821E+03  0.99484164821E+03  0.25500000000E-02 0.  1.
         -2   -1    0    0    0  501 -0.00000000000E+00 -0.00000000000E+00 -0.11837630980E+03  0.11837630983E+03  0.25500000000E-02 0. -1.
    5000001    1    1    2    0    0  0.38400609498E+02  0.26562839207E+03  0.59097843790E+03  0.67686967988E+03  0.19200000000E+03 0.  0.
   -5000001    1    1    2    0    0 -0.38400609498E+02 -0.26562839207E+03  0.28548690051E+03  0.43634827815E+03  0.19200000000E+03 0.  0.
<mgrwt>
<rscale>  0 0.68634010E+03</rscale>
<asrwt>0</asrwt>
<pdfrwt beam="1">  1        2 0.14212023E+00 0.68634010E+03</pdfrwt>
<pdfrwt beam="2">  1       -2 0.16910902E-01 0.68634010E+03</pdfrwt>
<totfact> 0.81145488E+02</totfact>
</mgrwt>
</event>
<event>
 4    1  0.5847263E-005  0.1024855E+04  0.7818608E-02  0.9281697E-01
         -2   -1    0    0    0  501 -0.00000000000E+00  0.00000000000E+00  0.63068060018E+02  0.63068060069E+02  0.25500000000E-02 0. -1.
          2   -1    0    0  501    0  0.00000000000E+00 -0.00000000000E+00 -0.41634686103E+04  0.41634686103E+04  0.25500000000E-02 0.  1.
    5000001    1    1    2    0    0  0.47097304005E+03  0.20164600912E+01 -0.23076872761E+04  0.23630709331E+04  0.19200000000E+03 0.  0.
   -5000001    1    1    2    0    0 -0.47097304005E+03 -0.20164600912E+01 -0.17927132742E+04  0.18634657373E+04  0.19200000000E+03 0.  0.
<mgrwt>
<rscale>  0 0.10248549E+04</rscale>
<asrwt>0</asrwt>
<pdfrwt beam="1">  1        2 0.59478106E+00 0.10248549E+04</pdfrwt>
<pdfrwt beam="2">  1       -2 0.90097255E-02 0.10248549E+04</pdfrwt>
<totfact> 0.37359931E+01</totfact>
</mgrwt>
</event>
<event>
 4    1  0.5847263E-005  0.4474777E+03  0.7818608E-02  0.1028477E+00
         -2   -1    0    0    0  501 -0.00000000000E+00  0.00000000000E+00  0.28327844128E+03  0.28327844129E+03  0.25500000000E-02 0. -1.
          2   -1    0    0  501    0  0.00000000000E+00 -0.00000000000E+00 -0.17671332727E+03  0.17671332729E+03  0.25500000000E-02 0.  1.
    5000001    1    1    2    0    0  0.92419860891E+02  0.17005923722E+02 -0.14628908448E+02  0.21426300915E+03  0.19200000000E+03 0.  0.
   -5000001    1    1    2    0    0 -0.92419860891E+02 -0.17005923722E+02  0.12119402246E+03  0.24572875942E+03  0.19200000000E+03 0.  0.
<mgrwt>
<rscale>  0 0.44747771E+03</rscale>
<asrwt>0</asrwt>
<pdfrwt beam="1">  1        2 0.25244761E-01 0.44747771E+03</pdfrwt>
<pdfrwt beam="2">  1       -2 0.40468349E-01 0.44747771E+03</pdfrwt>
<totfact> 0.12500072E+03</totfact>
</mgrwt>
</event>
<event>
 4    1  0.5847263E-005  0.6127606E+03  0.7818608E-02  0.9879280E-01
         -2   -1    0    0    0  501 -0.00000000000E+00  0.00000000000E+00  0.15292868931E+03  0.15292868933E+03  0.25500000000E-02 0.  1.
          2   -1    0    0  501    0  0.00000000000E+00 -0.00000000000E+00 -0.61380820974E+03  0.61380820975E+03  0.25500000000E-02 0. -1.
    5000001    1    1    2    0    0 -0.13027669285E+03  0.19857406213E+03 -0.26112070265E+03  0.40181052277E+03  0.19200000000E+03 0.  0.
   -5000001    1    1    2    0    0  0.13027669285E+03 -0.19857406213E+03 -0.19975881778E+03  0.36492637632E+03  0.19200000000E+03 0.  0.
<mgrwt>
<rscale>  0 0.61276059E+03</rscale>
<asrwt>0</asrwt>
<pdfrwt beam="1">  1        2 0.87686886E-01 0.61276059E+03</pdfrwt>
<pdfrwt beam="2">  1       -2 0.21846956E-01 0.61276059E+03</pdfrwt>
<totfact> 0.96627943E+02</totfact>
</mgrwt>
</event>
<event>
 4    1  0.5847263E-005  0.6870424E+03  0.7818608E-02  0.9739652E-01
          2   -1    0    0  501    0  0.00000000000E+00  0.00000000000E+00  0.52271694000E+03  0.52271694001E+03  0.25500000000E-02 0.  1.
         -2   -1    0    0    0  501 -0.00000000000E+00 -0.00000000000E+00 -0.22575660157E+03  0.22575660159E+03  0.25500000000E-02 0. -1.
    5000001    1    1    2    0    0 -0.75090031132E+02 -0.27477650476E+03  0.14687920443E+03  0.37360158062E+03  0.19200000000E+03 0.  0.
   -5000001    1    1    2    0    0  0.75090031132E+02  0.27477650476E+03  0.15008113400E+03  0.37487196098E+03  0.19200000000E+03 0.  0.
<mgrwt>
<rscale>  0 0.68704236E+03</rscale>
<asrwt>0</asrwt>
<pdfrwt beam="1">  1        2 0.74673847E-01 0.68704236E+03</pdfrwt>
<pdfrwt beam="2">  1       -2 0.32250944E-01 0.68704236E+03</pdfrwt>
<totfact> 0.57369163E+02</totfact>
</mgrwt>
</event>
<event>
 4    1  0.5847263E-005  0.1520072E+04  0.7818608E-02  0.8871214E-01
         -2   -1    0    0    0  501 -0.00000000000E+00  0.00000000000E+00  0.24803483311E+03  0.24803483312E+03  0.25500000000E-02 0. -1.
          2   -1    0    0  501    0  0.00000000000E+00 -0.00000000000E+00 -0.23289268401E+04  0.23289268401E+04  0.25500000000E-02 0.  1.
    5000001    1    1    2    0    0  0.69715173422E+03 -0.17593972843E+02 -0.64481886320E+03  0.96901261847E+03  0.19200000000E+03 0.  0.
   -5000001    1    1    2    0    0 -0.69715173422E+03  0.17593972843E+02 -0.14360731438E+04  0.16079490548E+04  0.19200000000E+03 0.  0.
<mgrwt>
<rscale>  0 0.15200723E+04</rscale>
<asrwt>0</asrwt>
<pdfrwt beam="1">  1        2 0.33270382E+00 0.15200723E+04</pdfrwt>
<pdfrwt beam="2">  1       -2 0.35433549E-01 0.15200723E+04</pdfrwt>
<totfact> 0.39214360E+01</totfact>
</mgrwt>
</event>
<event>
 4    1  0.5847263E-005  0.5343905E+03  0.7818608E-02  0.1005173E+00
         -2   -1    0    0    0  501 -0.00000000000E+00  0.00000000000E+00  0.45604736274E+02  0.45604736345E+02  0.25500000000E-02 0. -1.
          2   -1    0    0  501    0  0.00000000000E+00 -0.00000000000E+00 -0.15654800197E+04  0.15654800197E+04  0.25500000000E-02 0.  1.
    5000001    1    1    2    0    0 -0.69582125988E+02 -0.17160603944E+03 -0.80654529281E+03  0.84951139744E+03  0.19200000000E+03 0.  0.
   -5000001    1    1    2    0    0  0.69582125988E+02  0.17160603944E+03 -0.71332999064E+03  0.76157335863E+03  0.19200000000E+03 0.  0.
<mgrwt>
<rscale>  0 0.53439051E+03</rscale>
<asrwt>0</asrwt>
<pdfrwt beam="1">  1        2 0.22363997E+00 0.53439051E+03</pdfrwt>
<pdfrwt beam="2">  1       -2 0.65149633E-02 0.53439051E+03</pdfrwt>
<totfact> 0.18702679E+03</totfact>
</mgrwt>
</event>
<event>
 4    1  0.5847263E-005  0.7148702E+03  0.7818608E-02  0.9692135E-01
          2   -1    0    0  501    0  0.00000000000E+00  0.00000000000E+00  0.64340901708E+03  0.64340901708E+03  0.25500000000E-02 0.  1.
         -2   -1    0    0    0  501 -0.00000000000E+00 -0.00000000000E+00 -0.19856706333E+03  0.19856706334E+03  0.25500000000E-02 0. -1.
    5000001    1    1    2    0    0 -0.21985427828E+03  0.13892588757E+03  0.40204858081E+03  0.51589084819E+03  0.19200000000E+03 0.  0.
   -5000001    1    1    2    0    0  0.21985427828E+03 -0.13892588757E+03  0.42793372942E+02  0.32608523224E+03  0.19200000000E+03 0.  0.
<mgrwt>
<rscale>  0 0.71487017E+03</rscale>
<asrwt>0</asrwt>
<pdfrwt beam="1">  1        2 0.91915573E-01 0.71487017E+03</pdfrwt>
<pdfrwt beam="2">  1       -2 0.28366724E-01 0.71487017E+03</pdfrwt>
<totfact> 0.56985945E+02</totfact>
</mgrwt>
</event>
<event>
 4    1  0.5847263E-005  0.6830064E+03  0.7818608E-02  0.9746743E-01
         -2   -1    0    0    0  501 -0.00000000000E+00  0.00000000000E+00  0.27470656732E+03  0.27470656733E+03  0.25500000000E-02 0. -1.
          2   -1    0    0  501    0  0.00000000000E+00 -0.00000000000E+00 -0.42454186774E+03  0.42454186775E+03  0.25500000000E-02 0.  1.
    5000001    1    1    2    0    0 -0.16658981959E+03 -0.21308142129E+03  0.82834934242E+01  0.33179583534E+03  0.19200000000E+03 0.  0.
   -5000001    1    1    2    0    0  0.16658981959E+03  0.21308142129E+03 -0.15811879384E+03  0.36745259974E+03  0.19200000000E+03 0.  0.
<mgrwt>
<rscale>  0 0.68300641E+03</rscale>
<asrwt>0</asrwt>
<pdfrwt beam="1">  1        2 0.60648838E-01 0.68300641E+03</pdfrwt>
<pdfrwt beam="2">  1       -2 0.39243795E-01 0.68300641E+03</pdfrwt>
<totfact> 0.49977002E+02</totfact>
</mgrwt>
</event>
<event>
 4    1  0.5847263E-005  0.6009279E+03  0.7818608E-02  0.9903483E-01
         -2   -1    0    0    0  501 -0.00000000000E+00  0.00000000000E+00  0.45709885483E+03  0.45709885484E+03  0.25500000000E-02 0. -1.
          2   -1    0    0  501    0  0.00000000000E+00 -0.00000000000E+00 -0.19750339745E+03  0.19750339746E+03  0.25500000000E-02 0.  1.
    5000001    1    1    2    0    0  0.22351116603E+03  0.26925970331E+02  0.18673826207E+03  0.34988201975E+03  0.19200000000E+03 0.  0.
   -5000001    1    1    2    0    0 -0.22351116603E+03 -0.26925970331E+02  0.72857195312E+02  0.30472023256E+03  0.19200000000E+03 0.  0.
<mgrwt>
<rscale>  0 0.60092787E+03</rscale>
<asrwt>0</asrwt>
<pdfrwt beam="1">  1        2 0.28214772E-01 0.60092787E+03</pdfrwt>
<pdfrwt beam="2">  1       -2 0.65299835E-01 0.60092787E+03</pdfrwt>
<totfact> 0.41624149E+02</totfact>
</mgrwt>
</event>
<event>
 4    1  0.5847263E-005  0.6787290E+03  0.7818608E-02  0.9754316E-01
         -2   -1    0    0    0  501 -0.00000000000E+00  0.00000000000E+00  0.21550649808E+03  0.21550649810E+03  0.25500000000E-02 0. -1.
          2   -1    0    0  501    0  0.00000000000E+00 -0.00000000000E+00 -0.53440738856E+03  0.53440738856E+03  0.25500000000E-02 0.  1.
    5000001    1    1    2    0    0 -0.95807781297E+02  0.22966534716E+03 -0.30085330046E+03  0.43508850943E+03  0.19200000000E+03 0.  0.
   -5000001    1    1    2    0    0  0.95807781297E+02 -0.22966534716E+03 -0.18047590015E+02  0.31482537723E+03  0.19200000000E+03 0.  0.
<mgrwt>
<rscale>  0 0.67872900E+03</rscale>
<asrwt>0</asrwt>
<pdfrwt beam="1">  1        2 0.76343912E-01 0.67872900E+03</pdfrwt>
<pdfrwt beam="2">  1       -2 0.30786643E-01 0.67872900E+03</pdfrwt>
<totfact> 0.61003371E+02</totfact>
</mgrwt>
</event>
<event>
 4    1  0.5847263E-005  0.6923198E+03  0.7818608E-02  0.9730457E-01
          2   -1    0    0  501    0  0.00000000000E+00  0.00000000000E+00  0.11101774300E+04  0.11101774300E+04  0.25500000000E-02 0.  1.
         -2   -1    0    0    0  501 -0.00000000000E+00 -0.00000000000E+00 -0.10793470987E+03  0.10793470990E+03  0.25500000000E-02 0. -1.
    5000001    1    1    2    0    0 -0.39778475072E+02 -0.28409367875E+03  0.54670247648E+03  0.64655946608E+03  0.19200000000E+03 0.  0.
   -5000001    1    1    2    0    0  0.39778475072E+02  0.28409367875E+03  0.45554024367E+03  0.57155267385E+03  0.19200000000E+03 0.  0.
<mgrwt>
<rscale>  0 0.69231981E+03</rscale>
<asrwt>0</asrwt>
<pdfrwt beam="1">  1        2 0.15859677E+00 0.69231981E+03</pdfrwt>
<pdfrwt beam="2">  1       -2 0.15419244E-01 0.69231981E+03</pdfrwt>
<totfact> 0.81008730E+02</totfact>
</mgrwt>
</event>
<event>
 4    1  0.5847263E-005  0.4572743E+03  0.7818608E-02  0.1025575E+00
         -2   -1    0    0    0  501 -0.00000000000E+00  0.00000000000E+00  0.51720833806E+02  0.51720833868E+02  0.25500000000E-02 0. -1.
          2   -1    0    0  501    0  0.00000000000E+00 -0.00000000000E+00 -0.10107134510E+04  0.10107134510E+04  0.25500000000E-02 0.  1.
    5000001    1    1    2    0    0 -0.62264433629E+02  0.87410044983E+02 -0.33451930663E+03  0.40035551972E+03  0.19200000000E+03 0.  0.
   -5000001    1    1    2    0    0  0.62264433629E+02 -0.87410044983E+02 -0.62447331051E+03  0.66207876510E+03  0.19200000000E+03 0.  0.
<mgrwt>
<rscale>  0 0.45727428E+03</rscale>
<asrwt>0</asrwt>
<pdfrwt beam="1">  1        2 0.14438762E+00 0.45727428E+03</pdfrwt>
<pdfrwt beam="2">  1       -2 0.73886912E-02 0.45727428E+03</pdfrwt>
<totfact> 0.30875573E+03</totfact>
</mgrwt>
</event>
<event>
 4    1  0.5847263E-005  0.8451765E+03  0.7818608E-02  0.9496834E-01
          2   -1    0    0  501    0  0.00000000000E+00  0.00000000000E+00  0.72056190147E+02  0.72056190192E+02  0.25500000000E-02 0.  1.
         -2   -1    0    0    0  501 -0.00000000000E+00 -0.00000000000E+00 -0.24783552767E+04  0.24783552767E+04  0.25500000000E-02 0. -1.
    5000001    1    1    2    0    0 -0.27231500854E+03 -0.25969719043E+03 -0.11702666789E+04  0.12441809331E+04  0.19200000000E+03 0.  0.
   -5000001    1    1    2    0    0  0.27231500854E+03  0.25969719043E+03 -0.12360324077E+04  0.13062305338E+04  0.19200000000E+03 0.  0.
<mgrwt>
<rscale>  0 0.84517652E+03</rscale>
<asrwt>0</asrwt>
<pdfrwt beam="1">  1        2 0.10293743E-01 0.84517652E+03</pdfrwt>
<pdfrwt beam="2">  1       -2 0.35405070E+00 0.84517652E+03</pdfrwt>
<totfact> 0.98133648E+00</totfact>
</mgrwt>
</event>
<event>
 4    1  0.5847263E-005  0.4407055E+03  0.7818608E-02  0.1030531E+00
          2   -1    0    0  501    0  0.00000000000E+00  0.00000000000E+00  0.31001107191E+03  0.31001107192E+03  0.25500000000E-02 0.  1.
         -2   -1    0    0    0  501 -0.00000000000E+00 -0.00000000000E+00 -0.15662452720E+03  0.15662452722E+03  0.25500000000E-02 0. -1.
    5000001    1    1    2    0    0  0.61640369666E+02  0.52402018151E+02  0.15264840701E+03  0.25828480954E+03  0.19200000000E+03 0.  0.
   -5000001    1    1    2    0    0 -0.61640369666E+02 -0.52402018151E+02  0.73813769501E+00  0.20835078960E+03  0.19200000000E+03 0.  0.
<mgrwt>
<rscale>  0 0.44070551E+03</rscale>
<asrwt>0</asrwt>
<pdfrwt beam="1">  1        2 0.44287296E-01 0.44070551E+03</pdfrwt>
<pdfrwt beam="2">  1       -2 0.22374933E-01 0.44070551E+03</pdfrwt>
<totfact> 0.19937257E+03</totfact>
</mgrwt>
</event>
<event>
 4    1  0.5847263E-005  0.8580422E+03  0.7818608E-02  0.9479606E-01
          2   -1    0    0  501    0  0.00000000000E+00  0.00000000000E+00  0.75381955583E+03  0.75381955584E+03  0.25500000000E-02 0.  1.
         -2   -1    0    0    0  501 -0.00000000000E+00 -0.00000000000E+00 -0.24416862542E+03  0.24416862543E+03  0.25500000000E-02 0. -1.
    5000001    1    1    2    0    0 -0.34805715208E+03  0.81552371079E+00  0.67098802224E+02  0.40312615327E+03  0.19200000000E+03 0.  0.
   -5000001    1    1    2    0    0  0.34805715208E+03 -0.81552371079E+00  0.44255212819E+03  0.59486202800E+03  0.19200000000E+03 0.  0.
<mgrwt>
<rscale>  0 0.85804215E+03</rscale>
<asrwt>0</asrwt>
<pdfrwt beam="1">  1        2 0.10768851E+00 0.85804215E+03</pdfrwt>
<pdfrwt beam="2">  1       -2 0.34881232E-01 0.85804215E+03</pdfrwt>
<totfact> 0.31690834E+02</totfact>
</mgrwt>
</event>
<event>
 4    1  0.5847263E-005  0.6830238E+03  0.7818608E-02  0.9746712E-01
         -2   -1    0    0    0  501 -0.00000000000E+00  0.00000000000E+00  0.28871094841E+02  0.28871094954E+02  0.25500000000E-02 0. -1.
          2   -1    0    0  501    0  0.00000000000E+00 -0.00000000000E+00 -0.40396939844E+04  0.40396939844E+04  0.25500000000E-02 0.  1.
    5000001    1    1    2    0    0  0.27045669164E+03 -0.20707920762E+02 -0.15367308355E+04  0.15722535740E+04  0.19200000000E+03 0.  0.
   -5000001    1    1    2    0    0 -0.27045669164E+03  0.20707920762E+02 -0.24740920541E+04  0.24963115054E+04  0.19200000000E+03 0.  0.
<mgrwt>
<rscale>  0 0.68302383E+03</rscale>
<asrwt>0</asrwt>
<pdfrwt beam="1">  1        2 0.57709878E+00 0.68302383E+03</pdfrwt>
<pdfrwt beam="2">  1       -2 0.41244447E-02 0.68302383E+03</pdfrwt>
<totfact> 0.16349671E+02</totfact>
</mgrwt>
</event>
<event>
 4    1  0.5847263E-005  0.4206445E+03  0.7818608E-02  0.1036857E+00
         -2   -1    0    0    0  501 -0.00000000000E+00  0.00000000000E+00  0.23505591282E+03  0.23505591284E+03  0.25500000000E-02 0. -1.
          2   -1    0    0  501    0  0.00000000000E+00 -0.00000000000E+00 -0.18819121590E+03  0.18819121591E+03  0.25500000000E-02 0.  1.
    5000001    1    1    2    0    0  0.57134980000E+02 -0.63843382149E+02  0.17823393431E+02  0.21100250410E+03  0.19200000000E+03 0.  0.
   -5000001    1    1    2    0    0 -0.57134980000E+02  0.63843382149E+02  0.29041303498E+02  0.21224462465E+03  0.19200000000E+03 0.  0.
<mgrwt>
<rscale>  0 0.42064454E+03</rscale>
<asrwt>0</asrwt>
<pdfrwt beam="1">  1        2 0.26884459E-01 0.42064454E+03</pdfrwt>
<pdfrwt beam="2">  1       -2 0.33579416E-01 0.42064454E+03</pdfrwt>
<totfact> 0.16590814E+03</totfact>
</mgrwt>
</event>
<event>
 4    1  0.5847263E-005  0.4050332E+03  0.7818608E-02  0.1042051E+00
          2   -1    0    0  501    0  0.00000000000E+00  0.00000000000E+00  0.30670799193E+04  0.30670799193E+04  0.25500000000E-02 0.  1.
         -2   -1    0    0    0  501 -0.00000000000E+00 -0.00000000000E+00 -0.13371995939E+02  0.13371996182E+02  0.25500000000E-02 0. -1.
    5000001    1    1    2    0    0 -0.20674228930E+02  0.38819392911E+02  0.18847629101E+04  0.18950275978E+04  0.19200000000E+03 0.  0.
   -5000001    1    1    2    0    0  0.20674228930E+02 -0.38819392911E+02  0.11689450133E+04  0.11854243177E+04  0.19200000000E+03 0.  0.
<mgrwt>
<rscale>  0 0.40503324E+03</rscale>
<asrwt>0</asrwt>
<pdfrwt beam="1">  1        2 0.43815519E+00 0.40503324E+03</pdfrwt>
<pdfrwt beam="2">  1       -2 0.19102812E-02 0.40503324E+03</pdfrwt>
<totfact> 0.20867385E+03</totfact>
</mgrwt>
</event>
<event>
 4    1  0.5847263E-005  0.5577801E+03  0.7818608E-02  0.9997090E-01
         -2   -1    0    0    0  501 -0.00000000000E+00  0.00000000000E+00  0.70334575249E+02  0.70334575295E+02  0.25500000000E-02 0. -1.
          2   -1    0    0  501    0  0.00000000000E+00 -0.00000000000E+00 -0.11058523755E+04  0.11058523755E+04  0.25500000000E-02 0.  1.
    5000001    1    1    2    0    0 -0.17582621227E+03 -0.42634728498E+02 -0.32700573560E+03  0.42015393382E+03  0.19200000000E+03 0.  0.
   -5000001    1    1    2    0    0  0.17582621227E+03  0.42634728498E+02 -0.70851206467E+03  0.75603301699E+03  0.19200000000E+03 0.  0.
<mgrwt>
<rscale>  0 0.55778009E+03</rscale>
<asrwt>0</asrwt>
<pdfrwt beam="1">  1        2 0.15797890E+00 0.55778009E+03</pdfrwt>
<pdfrwt beam="2">  1       -2 0.10047797E-01 0.55778009E+03</pdfrwt>
<totfact> 0.16605412E+03</totfact>
</mgrwt>
</event>
<event>
 4    1  0.5847263E-005  0.5481691E+03  0.7818608E-02  0.1001919E+00
          2   -1    0    0  501    0  0.00000000000E+00  0.00000000000E+00  0.12443835535E+04  0.12443835535E+04  0.25500000000E-02 0.  1.
         -2   -1    0    0    0  501 -0.00000000000E+00 -0.00000000000E+00 -0.60369112582E+02  0.60369112635E+02  0.25500000000E-02 0. -1.
    5000001    1    1    2    0    0  0.18191001926E+03  0.44339461236E+02  0.45733982129E+03  0.53017068484E+03  0.19200000000E+03 0.  0.
   -5000001    1    1    2    0    0 -0.18191001926E+03 -0.44339461236E+02  0.72667461963E+03  0.77458198130E+03  0.19200000000E+03 0.  0.
<mgrwt>
<rscale>  0 0.54816906E+03</rscale>
<asrwt>0</asrwt>
<pdfrwt beam="1">  1        2 0.17776908E+00 0.54816906E+03</pdfrwt>
<pdfrwt beam="2">  1       -2 0.86241589E-02 0.54816906E+03</pdfrwt>
<totfact> 0.17740369E+03</totfact>
</mgrwt>
</event>
<event>
 4    1  0.5847263E-005  0.1256477E+04  0.7818608E-02  0.9064810E-01
         -2   -1    0    0    0  501 -0.00000000000E+00  0.00000000000E+00  0.12250631704E+03  0.12250631707E+03  0.25500000000E-02 0. -1.
          2   -1    0    0  501    0  0.00000000000E+00 -0.00000000000E+00 -0.32217406886E+04  0.32217406886E+04  0.25500000000E-02 0.  1.
    5000001    1    1    2    0    0 -0.49470416815E+02 -0.48548802270E+03 -0.62886432709E+03  0.81882860491E+03  0.19200000000E+03 0.  0.
   -5000001    1    1    2    0    0  0.49470416815E+02  0.48548802270E+03 -0.24703700445E+04  0.25254184007E+04  0.19200000000E+03 0.  0.
<mgrwt>
<rscale>  0 0.12564770E+04</rscale>
<asrwt>0</asrwt>
<pdfrwt beam="1">  1        2 0.46024862E+00 0.12564770E+04</pdfrwt>
<pdfrwt beam="2">  1       -2 0.17500904E-01 0.12564770E+04</pdfrwt>
<totfact> 0.47370188E+01</totfact>
</mgrwt>
</event>
<event>
 4    1  0.5847263E-005  0.9875169E+03  0.7818608E-02  0.9322343E-01
          2   -1    0    0  501    0  0.00000000000E+00  0.00000000000E+00  0.15418757992E+04  0.15418757992E+04  0.25500000000E-02 0.  1.
         -2   -1    0    0    0  501 -0.00000000000E+00 -0.00000000000E+00 -0.15811741724E+03  0.15811741726E+03  0.25500000000E-02 0. -1.
    5000001    1    1    2    0    0 -0.40703655540E+03  0.19262300084E+03  0.80279186169E+03  0.94027716716E+03  0.19200000000E+03 0.  0.
   -5000001    1    1    2    0    0  0.40703655540E+03 -0.19262300084E+03  0.58096652026E+03  0.75971604929E+03  0.19200000000E+03 0.  0.
<mgrwt>
<rscale>  0 0.98751692E+03</rscale>
<asrwt>0</asrwt>
<pdfrwt beam="1">  1        2 0.22026795E+00 0.98751692E+03</pdfrwt>
<pdfrwt beam="2">  1       -2 0.22588204E-01 0.98751692E+03</pdfrwt>
<totfact> 0.23843609E+02</totfact>
</mgrwt>
</event>
<event>
 4    1  0.5847263E-005  0.5203864E+03  0.7818608E-02  0.1008591E+00
         -2   -1    0    0    0  501 -0.00000000000E+00  0.00000000000E+00  0.26011604760E+03  0.26011604761E+03  0.25500000000E-02 0. -1.
          2   -1    0    0  501    0  0.00000000000E+00 -0.00000000000E+00 -0.26027036913E+03  0.26027036914E+03  0.25500000000E-02 0.  1.
    5000001    1    1    2    0    0 -0.11520558205E+03  0.13124682406E+03 -0.18474030136E+02  0.26019866400E+03  0.19200000000E+03 0.  0.
   -5000001    1    1    2    0    0  0.11520558205E+03 -0.13124682406E+03  0.18319708608E+02  0.26018775275E+03  0.19200000000E+03 0.  0.
<mgrwt>
<rscale>  0 0.52038639E+03</rscale>
<asrwt>0</asrwt>
<pdfrwt beam="1">  1        2 0.37181481E-01 0.52038639E+03</pdfrwt>
<pdfrwt beam="2">  1       -2 0.37159435E-01 0.52038639E+03</pdfrwt>
<totfact> 0.95615809E+02</totfact>
</mgrwt>
</event>
<event>
 4    1  0.5847263E-005  0.1171778E+04  0.7818608E-02  0.9137924E-01
          2   -1    0    0  501    0  0.00000000000E+00  0.00000000000E+00  0.89614675334E+03  0.89614675334E+03  0.25500000000E-02 0.  1.
         -2   -1    0    0    0  501 -0.00000000000E+00 -0.00000000000E+00 -0.38304670773E+03  0.38304670774E+03  0.25500000000E-02 0. -1.
    5000001    1    1    2    0    0 -0.15923563111E+03 -0.46774634615E+03 -0.15841370226E+02  0.53033723193E+03  0.19200000000E+03 0.  0.
   -5000001    1    1    2    0    0  0.15923563111E+03  0.46774634615E+03  0.52894141584E+03  0.74885622915E+03  0.19200000000E+03 0.  0.
<mgrwt>
<rscale>  0 0.11717782E+04</rscale>
<asrwt>0</asrwt>
<pdfrwt beam="1">  1        2 0.12802097E+00 0.11717782E+04</pdfrwt>
<pdfrwt beam="2">  1       -2 0.54720958E-01 0.11717782E+04</pdfrwt>
<totfact> 0.10162601E+02</totfact>
</mgrwt>
</event>
<event>
 4    1  0.5847263E-005  0.1004981E+04  0.7818608E-02  0.9303099E-01
          2   -1    0    0  501    0  0.00000000000E+00  0.00000000000E+00  0.95970398569E+03  0.95970398570E+03  0.25500000000E-02 0.  1.
         -2   -1    0    0    0  501 -0.00000000000E+00 -0.00000000000E+00 -0.26309833808E+03  0.26309833809E+03  0.25500000000E-02 0. -1.
    5000001    1    1    2    0    0  0.75918359260E+02 -0.29080873814E+03 -0.82395036820E+02  0.36604133857E+03  0.19200000000E+03 0.  0.
   -5000001    1    1    2    0    0 -0.75918359260E+02  0.29080873814E+03  0.77900068443E+03  0.85676098522E+03  0.19200000000E+03 0.  0.
<mgrwt>
<rscale>  0 0.10049806E+04</rscale>
<asrwt>0</asrwt>
<pdfrwt beam="1">  1        2 0.13710057E+00 0.10049806E+04</pdfrwt>
<pdfrwt beam="2">  1       -2 0.37585477E-01 0.10049806E+04</pdfrwt>
<totfact> 0.19800969E+02</totfact>
</mgrwt>
</event>
<event>
 4    1  0.5847263E-005  0.7318144E+03  0.7818608E-02  0.9664321E-01
          2   -1    0    0  501    0  0.00000000000E+00  0.00000000000E+00  0.16273720710E+04  0.16273720710E+04  0.25500000000E-02 0.  1.
         -2   -1    0    0    0  501 -0.00000000000E+00 -0.00000000000E+00 -0.82272570665E+02  0.82272570705E+02  0.25500000000E-02 0. -1.
    5000001    1    1    2    0    0 -0.60336592728E+02 -0.29956614819E+03  0.63153117339E+03  0.72737610939E+03  0.19200000000E+03 0.  0.
   -5000001    1    1    2    0    0  0.60336592728E+02  0.29956614819E+03  0.91356832692E+03  0.98226853228E+03  0.19200000000E+03 0.  0.
<mgrwt>
<rscale>  0 0.73181441E+03</rscale>
<asrwt>0</asrwt>
<pdfrwt beam="1">  1        2 0.23248169E+00 0.73181441E+03</pdfrwt>
<pdfrwt beam="2">  1       -2 0.11753226E-01 0.73181441E+03</pdfrwt>
<totfact> 0.66783901E+02</totfact>
</mgrwt>
</event>
<event>
 4    1  0.5847263E-005  0.4687102E+03  0.7818608E-02  0.1022285E+00
         -2   -1    0    0    0  501 -0.00000000000E+00  0.00000000000E+00  0.27715539513E+03  0.27715539514E+03  0.25500000000E-02 0. -1.
          2   -1    0    0  501    0  0.00000000000E+00 -0.00000000000E+00 -0.19816432601E+03  0.19816432602E+03  0.25500000000E-02 0.  1.
    5000001    1    1    2    0    0 -0.99937560295E+02 -0.84815181455E+02  0.69530426233E+02  0.24265121293E+03  0.19200000000E+03 0.  0.
   -5000001    1    1    2    0    0  0.99937560295E+02  0.84815181455E+02  0.94606428912E+01  0.23266850824E+03  0.19200000000E+03 0.  0.
<mgrwt>
<rscale>  0 0.46871020E+03</rscale>
<asrwt>0</asrwt>
<pdfrwt beam="1">  1        2 0.28309189E-01 0.46871020E+03</pdfrwt>
<pdfrwt beam="2">  1       -2 0.39593628E-01 0.46871020E+03</pdfrwt>
<totfact> 0.11461800E+03</totfact>
</mgrwt>
</event>
<event>
 4    1  0.5847263E-005  0.6849598E+03  0.7818608E-02  0.9743304E-01
         -2   -1    0    0    0  501 -0.00000000000E+00  0.00000000000E+00  0.10463314850E+03  0.10463314853E+03  0.25500000000E-02 0. -1.
          2   -1    0    0  501    0  0.00000000000E+00 -0.00000000000E+00 -0.11209876360E+04  0.11209876360E+04  0.25500000000E-02 0.  1.
    5000001    1    1    2    0    0  0.13365996701E+03  0.22682437695E+03 -0.69681551021E+03  0.76923997558E+03  0.19200000000E+03 0.  0.
   -5000001    1    1    2    0    0 -0.13365996701E+03 -0.22682437695E+03 -0.31953897724E+03  0.45638080891E+03  0.19200000000E+03 0.  0.
<mgrwt>
<rscale>  0 0.68495975E+03</rscale>
<asrwt>0</asrwt>
<pdfrwt beam="1">  1        2 0.16014108E+00 0.68495975E+03</pdfrwt>
<pdfrwt beam="2">  1       -2 0.14947593E-01 0.68495975E+03</pdfrwt>
<totfact> 0.84171240E+02</totfact>
</mgrwt>
</event>
<event>
 4    1  0.5847263E-005  0.5382549E+03  0.7818608E-02  0.1004250E+00
         -2   -1    0    0    0  501 -0.00000000000E+00  0.00000000000E+00  0.73182247090E+02  0.73182247135E+02  0.25500000000E-02 0. -1.
          2   -1    0    0  501    0  0.00000000000E+00 -0.00000000000E+00 -0.98971540639E+03  0.98971540639E+03  0.25500000000E-02 0.  1.
    5000001    1    1    2    0    0  0.77722084719E+02  0.16489169518E+03 -0.55370055356E+03  0.61374122935E+03  0.19200000000E+03 0.  0.
   -5000001    1    1    2    0    0 -0.77722084719E+02 -0.16489169518E+03 -0.36283260574E+03  0.44915642418E+03  0.19200000000E+03 0.  0.
<mgrwt>
<rscale>  0 0.53825495E+03</rscale>
<asrwt>0</asrwt>
<pdfrwt beam="1">  1        2 0.14138791E+00 0.53825495E+03</pdfrwt>
<pdfrwt beam="2">  1       -2 0.10454607E-01 0.53825495E+03</pdfrwt>
<totfact> 0.18254846E+03</totfact>
</mgrwt>
</event>
<event>
 4    1  0.5847263E-005  0.4390953E+03  0.7818608E-02  0.1031025E+00
         -2   -1    0    0    0  501 -0.00000000000E+00  0.00000000000E+00  0.72933937045E+02  0.72933937090E+02  0.25500000000E-02 0. -1.
          2   -1    0    0  501    0  0.00000000000E+00 -0.00000000000E+00 -0.66088823301E+03  0.66088823301E+03  0.25500000000E-02 0.  1.
    5000001    1    1    2    0    0  0.10343587462E+03 -0.15207931428E+02 -0.26026501556E+03  0.33990019074E+03  0.19200000000E+03 0.  0.
   -5000001    1    1    2    0    0 -0.10343587462E+03  0.15207931428E+02 -0.32768928041E+03  0.39392197937E+03  0.19200000000E+03 0.  0.
<mgrwt>
<rscale>  0 0.43909535E+03</rscale>
<asrwt>0</asrwt>
<pdfrwt beam="1">  1        2 0.94412601E-01 0.43909535E+03</pdfrwt>
<pdfrwt beam="2">  1       -2 0.10419134E-01 0.43909535E+03</pdfrwt>
<totfact> 0.30743948E+03</totfact>
</mgrwt>
</event>
<event>
 4    1  0.5847263E-005  0.9031691E+03  0.7818608E-02  0.9421629E-01
          2   -1    0    0  501    0  0.00000000000E+00  0.00000000000E+00  0.17485308221E+04  0.17485308221E+04  0.25500000000E-02 0.  1.
         -2   -1    0    0    0  501 -0.00000000000E+00 -0.00000000000E+00 -0.11662855408E+03  0.11662855411E+03  0.25500000000E-02 0. -1.
    5000001    1    1    2    0    0 -0.97609930236E+02 -0.37964868515E+03  0.10550408042E+04  0.11417687687E+04  0.19200000000E+03 0.  0.
   -5000001    1    1    2    0    0  0.97609930236E+02  0.37964868515E+03  0.57686146388E+03  0.72339060758E+03  0.19200000000E+03 0.  0.
<mgrwt>
<rscale>  0 0.90316913E+03</rscale>
<asrwt>0</asrwt>
<pdfrwt beam="1">  1        2 0.24979010E+00 0.90316913E+03</pdfrwt>
<pdfrwt beam="2">  1       -2 0.16661223E-01 0.90316913E+03</pdfrwt>
<totfact> 0.31867251E+02</totfact>
</mgrwt>
</event>
<event>
 4    1  0.5847263E-005  0.6958621E+03  0.7818608E-02  0.9724335E-01
         -2   -1    0    0    0  501 -0.00000000000E+00  0.00000000000E+00  0.68035989238E+02  0.68035989286E+02  0.25500000000E-02 0. -1.
          2   -1    0    0  501    0  0.00000000000E+00 -0.00000000000E+00 -0.17792937191E+04  0.17792937191E+04  0.25500000000E-02 0.  1.
    5000001    1    1    2    0    0 -0.13837925241E+03 -0.24139047032E+03 -0.10741223267E+04  0.11260643629E+04  0.19200000000E+03 0.  0.
   -5000001    1    1    2    0    0  0.13837925241E+03  0.24139047032E+03 -0.63713540321E+03  0.72126534554E+03  0.19200000000E+03 0.  0.
<mgrwt>
<rscale>  0 0.69586208E+03</rscale>
<asrwt>0</asrwt>
<pdfrwt beam="1">  1        2 0.25418479E+00 0.69586208E+03</pdfrwt>
<pdfrwt beam="2">  1       -2 0.97194282E-02 0.69586208E+03</pdfrwt>
<totfact> 0.76331590E+02</totfact>
</mgrwt>
</event>
<event>
 4    1  0.5847263E-005  0.7792280E+03  0.7818608E-02  0.9590580E-01
         -2   -1    0    0    0  501 -0.00000000000E+00  0.00000000000E+00  0.47493009636E+03  0.47493009637E+03  0.25500000000E-02 0. -1.
          2   -1    0    0  501    0  0.00000000000E+00 -0.00000000000E+00 -0.31962403992E+03  0.31962403993E+03  0.25500000000E-02 0.  1.
    5000001    1    1    2    0    0 -0.24682606227E+02  0.29931699197E+03  0.23802058032E+03  0.42862301546E+03  0.19200000000E+03 0.  0.
   -5000001    1    1    2    0    0  0.24682606227E+02 -0.29931699197E+03 -0.82714523875E+02  0.36593112083E+03  0.19200000000E+03 0.  0.
<mgrwt>
<rscale>  0 0.77922802E+03</rscale>
<asrwt>0</asrwt>
<pdfrwt beam="1">  1        2 0.45660578E-01 0.77922802E+03</pdfrwt>
<pdfrwt beam="2">  1       -2 0.67847156E-01 0.77922802E+03</pdfrwt>
<totfact> 0.22285515E+02</totfact>
</mgrwt>
</event>
<event>
 4    1  0.5847263E-005  0.5424212E+03  0.7818608E-02  0.1003264E+00
          2   -1    0    0  501    0  0.00000000000E+00  0.00000000000E+00  0.14836353668E+04  0.14836353668E+04  0.25500000000E-02 0.  1.
         -2   -1    0    0    0  501 -0.00000000000E+00 -0.00000000000E+00 -0.49577664231E+02  0.49577664296E+02  0.25500000000E-02 0. -1.
    5000001    1    1    2    0    0  0.46622424081E+01 -0.16807798783E+03  0.45766940927E+03  0.52402026171E+03  0.19200000000E+03 0.  0.
   -5000001    1    1    2    0    0 -0.46622424081E+01  0.16807798783E+03  0.97638829328E+03  0.10091927694E+04  0.19200000000E+03 0.  0.
<mgrwt>
<rscale>  0 0.54242115E+03</rscale>
<asrwt>0</asrwt>
<pdfrwt beam="1">  1        2 0.21194792E+00 0.54242115E+03</pdfrwt>
<pdfrwt beam="2">  1       -2 0.70825230E-02 0.54242115E+03</pdfrwt>
<totfact> 0.18073974E+03</totfact>
</mgrwt>
</event>
<event>
 4    1  0.5847263E-005  0.6974304E+03  0.7818608E-02  0.9721637E-01
          2   -1    0    0  501    0  0.00000000000E+00  0.00000000000E+00  0.46881470498E+03  0.46881470498E+03  0.25500000000E-02 0.  1.
         -2   -1    0    0    0  501 -0.00000000000E+00 -0.00000000000E+00 -0.25938243255E+03  0.25938243256E+03  0.25500000000E-02 0. -1.
    5000001    1    1    2    0    0  0.52451108309E+02 -0.28631501961E+03  0.10127065651E+03  0.36310763567E+03  0.19200000000E+03 0.  0.
   -5000001    1    1    2    0    0 -0.52451108309E+02  0.28631501961E+03  0.10816161592E+03  0.36508950187E+03  0.19200000000E+03 0.  0.
<mgrwt>
<rscale>  0 0.69743042E+03</rscale>
<asrwt>0</asrwt>
<pdfrwt beam="1">  1        2 0.66973529E-01 0.69743042E+03</pdfrwt>
<pdfrwt beam="2">  1       -2 0.37054633E-01 0.69743042E+03</pdfrwt>
<totfact> 0.49909129E+02</totfact>
</mgrwt>
</event>
<event>
 4    1  0.5847263E-005  0.6266056E+03  0.7818608E-02  0.9851695E-01
         -2   -1    0    0    0  501 -0.00000000000E+00  0.00000000000E+00  0.15236430073E+03  0.15236430075E+03  0.25500000000E-02 0. -1.
          2   -1    0    0  501    0  0.00000000000E+00 -0.00000000000E+00 -0.64423648602E+03  0.64423648602E+03  0.25500000000E-02 0.  1.
    5000001    1    1    2    0    0  0.72203463726E+02  0.21771498092E+03 -0.12748377425E+03  0.32516036934E+03  0.19200000000E+03 0.  0.
   -5000001    1    1    2    0    0 -0.72203463726E+02 -0.21771498092E+03 -0.36438841104E+03  0.47144041743E+03  0.19200000000E+03 0.  0.
<mgrwt>
<rscale>  0 0.62660559E+03</rscale>
<asrwt>0</asrwt>
<pdfrwt beam="1">  1        2 0.92033783E-01 0.62660559E+03</pdfrwt>
<pdfrwt beam="2">  1       -2 0.21766329E-01 0.62660559E+03</pdfrwt>
<totfact> 0.91793326E+02</totfact>
</mgrwt>
</event>
<event>
 4    1  0.5847263E-005  0.5021093E+03  0.7818608E-02  0.1013230E+00
         -2   -1    0    0    0  501 -0.00000000000E+00  0.00000000000E+00  0.36953606868E+02  0.36953606956E+02  0.25500000000E-02 0. -1.
          2   -1    0    0  501    0  0.00000000000E+00 -0.00000000000E+00 -0.17056098634E+04  0.17056098634E+04  0.25500000000E-02 0.  1.
    5000001    1    1    2    0    0  0.69828942222E+01 -0.11801930842E+03 -0.45120280389E+03  0.50440587647E+03  0.19200000000E+03 0.  0.
   -5000001    1    1    2    0    0 -0.69828942222E+01  0.11801930842E+03 -0.12174534526E+04  0.12381575939E+04  0.19200000000E+03 0.  0.
<mgrwt>
<rscale>  0 0.50210930E+03</rscale>
<asrwt>0</asrwt>
<pdfrwt beam="1">  1        2 0.24365850E+00 0.50210930E+03</pdfrwt>
<pdfrwt beam="2">  1       -2 0.52790878E-02 0.50210930E+03</pdfrwt>
<totfact> 0.22047731E+03</totfact>
</mgrwt>
</event>
<event>
 4    1  0.5847263E-005  0.4000970E+03  0.7818608E-02  0.1043746E+00
         -2   -1    0    0    0  501 -0.00000000000E+00  0.00000000000E+00  0.55320886701E+03  0.55320886702E+03  0.25500000000E-02 0. -1.
          2   -1    0    0  501    0  0.00000000000E+00 -0.00000000000E+00 -0.72340481510E+02  0.72340481555E+02  0.25500000000E-02 0.  1.
    5000001    1    1    2    0    0 -0.19764633525E+01  0.43072896470E+02  0.29672465828E+03  0.35604592913E+03  0.19200000000E+03 0.  0.
   -5000001    1    1    2    0    0  0.19764633525E+01 -0.43072896470E+02  0.18414372723E+03  0.26950341945E+03  0.19200000000E+03 0.  0.
<mgrwt>
<rscale>  0 0.40009697E+03</rscale>
<asrwt>0</asrwt>
<pdfrwt beam="1">  1        2 0.10334355E-01 0.40009697E+03</pdfrwt>
<pdfrwt beam="2">  1       -2 0.79029836E-01 0.40009697E+03</pdfrwt>
<totfact> 0.90679203E+02</totfact>
</mgrwt>
</event>
<event>
 4    1  0.5847263E-005  0.6913359E+03  0.7818608E-02  0.9732165E-01
          2   -1    0    0  501    0  0.00000000000E+00  0.00000000000E+00  0.30531851664E+04  0.30531851664E+04  0.25500000000E-02 0.  1.
         -2   -1    0    0    0  501 -0.00000000000E+00 -0.00000000000E+00 -0.39134979570E+02  0.39134979654E+02  0.25500000000E-02 0. -1.
    5000001    1    1    2    0    0  0.20222206146E+03  0.18954061861E+03  0.11662883019E+04  0.12140476974E+04  0.19200000000E+03 0.  0.
   -5000001    1    1    2    0    0 -0.20222206146E+03 -0.18954061861E+03  0.18477618849E+04  0.18782724487E+04  0.19200000000E+03 0.  0.
<mgrwt>
<rscale>  0 0.69133592E+03</rscale>
<asrwt>0</asrwt>
<pdfrwt beam="1">  1        2 0.43616930E+00 0.69133592E+03</pdfrwt>
<pdfrwt beam="2">  1       -2 0.55907116E-02 0.69133592E+03</pdfrwt>
<totfact> 0.40308135E+02</totfact>
</mgrwt>
</event>
<event>
 4    1  0.5847263E-005  0.6395907E+03  0.7818608E-02  0.9826510E-01
         -2   -1    0    0    0  501 -0.00000000000E+00  0.00000000000E+00  0.35165696457E+03  0.35165696458E+03  0.25500000000E-02 0. -1.
          2   -1    0    0  501    0  0.00000000000E+00 -0.00000000000E+00 -0.29082049761E+03  0.29082049762E+03  0.25500000000E-02 0.  1.
    5000001    1    1    2    0    0 -0.22496003129E+02 -0.24028779820E+03 -0.54584963735E+02  0.31318974183E+03  0.19200000000E+03 0.  0.
   -5000001    1    1    2    0    0  0.22496003129E+02  0.24028779820E+03  0.11542143070E+03  0.32928772037E+03  0.19200000000E+03 0.  0.
<mgrwt>
<rscale>  0 0.63959066E+03</rscale>
<asrwt>0</asrwt>
<pdfrwt beam="1">  1        2 0.41545785E-01 0.63959066E+03</pdfrwt>
<pdfrwt beam="2">  1       -2 0.50236710E-01 0.63959066E+03</pdfrwt>
<totfact> 0.46648647E+02</totfact>
</mgrwt>
</event>
<event>
 4    1  0.5847263E-005  0.5566049E+03  0.7818608E-02  0.9999766E-01
          2   -1    0    0  501    0  0.00000000000E+00  0.00000000000E+00  0.37413062059E+04  0.37413062059E+04  0.25500000000E-02 0.  1.
         -2   -1    0    0    0  501 -0.00000000000E+00 -0.00000000000E+00 -0.20701931269E+02  0.20701931426E+02  0.25500000000E-02 0. -1.
    5000001    1    1    2    0    0 -0.26278420036E+01  0.20131026640E+03  0.18099338375E+04  0.18311901116E+04  0.19200000000E+03 0.  0.
   -5000001    1    1    2    0    0  0.26278420036E+01 -0.20131026640E+03  0.19106704371E+04  0.19308180256E+04  0.19200000000E+03 0.  0.
<mgrwt>
<rscale>  0 0.55660494E+03</rscale>
<asrwt>0</asrwt>
<pdfrwt beam="1">  1        2 0.53447276E+00 0.55660494E+03</pdfrwt>
<pdfrwt beam="2">  1       -2 0.29574163E-02 0.55660494E+03</pdfrwt>
<totfact> 0.43228256E+02</totfact>
</mgrwt>
</event>
<event>
 4    1  0.5847263E-005  0.6739942E+03  0.7818608E-02  0.9762769E-01
          2   -1    0    0  501    0  0.00000000000E+00  0.00000000000E+00  0.45400235117E+04  0.45400235117E+04  0.25500000000E-02 0.  1.
         -2   -1    0    0    0  501 -0.00000000000E+00 -0.00000000000E+00 -0.25014639288E+02  0.25014639418E+02  0.25500000000E-02 0. -1.
    5000001    1    1    2    0    0  0.17267675525E+03  0.21559519219E+03  0.21212820025E+04  0.21477895342E+04  0.19200000000E+03 0.  0.
   -5000001    1    1    2    0    0 -0.17267675525E+03 -0.21559519219E+03  0.23937268698E+04  0.24172486169E+04  0.19200000000E+03 0.  0.
<mgrwt>
<rscale>  0 0.67399422E+03</rscale>
<asrwt>0</asrwt>
<pdfrwt beam="1">  1        2 0.64857537E+00 0.67399422E+03</pdfrwt>
<pdfrwt beam="2">  1       -2 0.35735167E-02 0.67399422E+03</pdfrwt>
<totfact> 0.88212515E+01</totfact>
</mgrwt>
</event>
<event>
 4    1  0.5847263E-005  0.4372389E+03  0.7818608E-02  0.1031597E+00
         -2   -1    0    0    0  501 -0.00000000000E+00  0.00000000000E+00  0.16300232702E+02  0.16300232902E+02  0.25500000000E-02 0. -1.
          2   -1    0    0  501    0  0.00000000000E+00 -0.00000000000E+00 -0.29321334159E+04  0.29321334159E+04  0.25500000000E-02 0.  1.
    5000001    1    1    2    0    0 -0.85562013410E+02 -0.53840746020E+02 -0.12781379380E+04  0.12964259611E+04  0.19200000000E+03 0.  0.
   -5000001    1    1    2    0    0  0.85562013410E+02  0.53840746020E+02 -0.16376952452E+04  0.16520076877E+04  0.19200000000E+03 0.  0.
<mgrwt>
<rscale>  0 0.43723887E+03</rscale>
<asrwt>0</asrwt>
<pdfrwt beam="1">  1        2 0.41887587E+00 0.43723887E+03</pdfrwt>
<pdfrwt beam="2">  1       -2 0.23286066E-02 0.43723887E+03</pdfrwt>
<totfact> 0.18307091E+03</totfact>
</mgrwt>
</event>
<event>
 4    1  0.5847263E-005  0.7212142E+03  0.7818608E-02  0.9681625E-01
         -2   -1    0    0    0  501 -0.00000000000E+00  0.00000000000E+00  0.12654992972E+03  0.12654992975E+03  0.25500000000E-02 0. -1.
          2   -1    0    0  501    0  0.00000000000E+00 -0.00000000000E+00 -0.10275585702E+04  0.10275585702E+04  0.25500000000E-02 0.  1.
    5000001    1    1    2    0    0  0.17979937064E+03 -0.24401107717E+03 -0.39271307488E+03  0.53193681828E+03  0.19200000000E+03 0.  0.
   -5000001    1    1    2    0    0 -0.17979937064E+03  0.24401107717E+03 -0.50829556560E+03  0.62217168167E+03  0.19200000000E+03 0.  0.
<mgrwt>
<rscale>  0 0.72121416E+03</rscale>
<asrwt>0</asrwt>
<pdfrwt beam="1">  1        2 0.14679408E+00 0.72121416E+03</pdfrwt>
<pdfrwt beam="2">  1       -2 0.18078562E-01 0.72121416E+03</pdfrwt>
<totfact> 0.69028721E+02</totfact>
</mgrwt>
</event>
<event>
 4    1  0.5847263E-005  0.5367006E+03  0.7818608E-02  0.1004620E+00
         -2   -1    0    0    0  501 -0.00000000000E+00  0.00000000000E+00  0.31720059937E+02  0.31720060040E+02  0.25500000000E-02 0. -1.
          2   -1    0    0  501    0  0.00000000000E+00 -0.00000000000E+00 -0.22702318877E+04  0.22702318877E+04  0.25500000000E-02 0.  1.
    5000001    1    1    2    0    0  0.20620583625E+02 -0.18589560961E+03 -0.11744344787E+04  0.12046338576E+04  0.19200000000E+03 0.  0.
   -5000001    1    1    2    0    0 -0.20620583625E+02  0.18589560961E+03 -0.10640773491E+04  0.10973180901E+04  0.19200000000E+03 0.  0.
<mgrwt>
<rscale>  0 0.53670063E+03</rscale>
<asrwt>0</asrwt>
<pdfrwt beam="1">  1        2 0.32431874E+00 0.53670063E+03</pdfrwt>
<pdfrwt beam="2">  1       -2 0.45314386E-02 0.53670063E+03</pdfrwt>
<totfact> 0.14527566E+03</totfact>
</mgrwt>
</event>
<event>
 4    1  0.5847263E-005  0.1099275E+04  0.7818608E-02  0.9205899E-01
          2   -1    0    0  501    0  0.00000000000E+00  0.00000000000E+00  0.21859139251E+04  0.21859139251E+04  0.25500000000E-02 0.  1.
         -2   -1    0    0    0  501 -0.00000000000E+00 -0.00000000000E+00 -0.13820362161E+03  0.13820362163E+03  0.25500000000E-02 0. -1.
    5000001    1    1    2    0    0 -0.51035771787E+02  0.45365233416E+03  0.15278763737E+04  0.16061367637E+04  0.19200000000E+03 0.  0.
   -5000001    1    1    2    0    0  0.51035771787E+02 -0.45365233416E+03  0.51983392979E+03  0.71798078307E+03  0.19200000000E+03 0.  0.
<mgrwt>
<rscale>  0 0.10992747E+04</rscale>
<asrwt>0</asrwt>
<pdfrwt beam="1">  1        2 0.31227339E+00 0.10992747E+04</pdfrwt>
<pdfrwt beam="2">  1       -2 0.19743377E-01 0.10992747E+04</pdfrwt>
<totfact> 0.13999573E+02</totfact>
</mgrwt>
</event>
<event>
 4    1  0.5847263E-005  0.7010251E+03  0.7818608E-02  0.9715481E-01
          2   -1    0    0  501    0  0.00000000000E+00  0.00000000000E+00  0.20320360825E+03  0.20320360826E+03  0.25500000000E-02 0.  1.
         -2   -1    0    0    0  501 -0.00000000000E+00 -0.00000000000E+00 -0.60461048543E+03  0.60461048543E+03  0.25500000000E-02 0. -1.
    5000001    1    1    2    0    0  0.62520227210E+02 -0.23423490447E+03 -0.39082179158E+03  0.49837781056E+03  0.19200000000E+03 0.  0.
   -5000001    1    1    2    0    0 -0.62520227210E+02  0.23423490447E+03 -0.10585085605E+02  0.30943628314E+03  0.19200000000E+03 0.  0.
<mgrwt>
<rscale>  0 0.70102506E+03</rscale>
<asrwt>0</asrwt>
<pdfrwt beam="1">  1        2 0.29029087E-01 0.70102506E+03</pdfrwt>
<pdfrwt beam="2">  1       -2 0.86372926E-01 0.70102506E+03</pdfrwt>
<totfact> 0.21666283E+02</totfact>
</mgrwt>
</event>
<event>
 4    1  0.5847263E-005  0.4434696E+03  0.7818608E-02  0.1029688E+00
         -2   -1    0    0    0  501 -0.00000000000E+00  0.00000000000E+00  0.77167998482E+03  0.77167998483E+03  0.25500000000E-02 0. -1.
          2   -1    0    0  501    0  0.00000000000E+00 -0.00000000000E+00 -0.63713358616E+02  0.63713358667E+02  0.25500000000E-02 0.  1.
    5000001    1    1    2    0    0 -0.57923820572E+02 -0.93081354692E+02  0.38567407507E+03  0.44455348358E+03  0.19200000000E+03 0.  0.
   -5000001    1    1    2    0    0  0.57923820572E+02  0.93081354692E+02  0.32229255114E+03  0.39083985992E+03  0.19200000000E+03 0.  0.
<mgrwt>
<rscale>  0 0.44346961E+03</rscale>
<asrwt>0</asrwt>
<pdfrwt beam="1">  1        2 0.91019088E-02 0.44346961E+03</pdfrwt>
<pdfrwt beam="2">  1       -2 0.11023999E+00 0.44346961E+03</pdfrwt>
<totfact> 0.49440245E+02</totfact>
</mgrwt>
</event>
<event>
 4    1  0.5847263E-005  0.5726826E+03  0.7818608E-02  0.9963760E-01
          2   -1    0    0  501    0  0.00000000000E+00  0.00000000000E+00  0.27771670311E+03  0.27771670312E+03  0.25500000000E-02 0.  1.
         -2   -1    0    0    0  501 -0.00000000000E+00 -0.00000000000E+00 -0.29523378818E+03  0.29523378819E+03  0.25500000000E-02 0. -1.
    5000001    1    1    2    0    0  0.18499379771E+03 -0.10228241988E+02  0.95213265263E+02  0.28329646664E+03  0.19200000000E+03 0.  0.
   -5000001    1    1    2    0    0 -0.18499379771E+03  0.10228241988E+02 -0.11273035033E+03  0.28965402468E+03  0.19200000000E+03 0.  0.
<mgrwt>
<rscale>  0 0.57268265E+03</rscale>
<asrwt>0</asrwt>
<pdfrwt beam="1">  1        2 0.39673815E-01 0.57268265E+03</pdfrwt>
<pdfrwt beam="2">  1       -2 0.42176255E-01 0.57268265E+03</pdfrwt>
<totfact> 0.69642951E+02</totfact>
</mgrwt>
</event>
<event>
 4    1  0.5847263E-005  0.9044902E+03  0.7818608E-02  0.9419986E-01
          2   -1    0    0  501    0  0.00000000000E+00  0.00000000000E+00  0.22482067111E+04  0.22482067111E+04  0.25500000000E-02 0.  1.
         -2   -1    0    0    0  501 -0.00000000000E+00 -0.00000000000E+00 -0.90972786884E+02  0.90972786920E+02  0.25500000000E-02 0. -1.
    5000001    1    1    2    0    0 -0.29988452224E+03 -0.26967029988E+03  0.12616493509E+04  0.13383855505E+04  0.19200000000E+03 0.  0.
   -5000001    1    1    2    0    0  0.29988452224E+03  0.26967029988E+03  0.89558457336E+03  0.10007939475E+04  0.19200000000E+03 0.  0.
<mgrwt>
<rscale>  0 0.90449020E+03</rscale>
<asrwt>0</asrwt>
<pdfrwt beam="1">  1        2 0.32117235E+00 0.90449020E+03</pdfrwt>
<pdfrwt beam="2">  1       -2 0.12996114E-01 0.90449020E+03</pdfrwt>
<totfact> 0.26982872E+02</totfact>
</mgrwt>
</event>
<event>
 4    1  0.5847263E-005  0.6438701E+03  0.7818608E-02  0.9818350E-01
         -2   -1    0    0    0  501 -0.00000000000E+00  0.00000000000E+00  0.36611892625E+03  0.36611892626E+03  0.25500000000E-02 0. -1.
          2   -1    0    0  501    0  0.00000000000E+00 -0.00000000000E+00 -0.28308333159E+03  0.28308333160E+03  0.25500000000E-02 0.  1.
    5000001    1    1    2    0    0 -0.47812494069E+02 -0.25356903755E+03  0.27442461836E+02  0.32280083659E+03  0.19200000000E+03 0.  0.
   -5000001    1    1    2    0    0  0.47812494069E+02  0.25356903755E+03  0.55593132826E+02  0.32640142127E+03  0.19200000000E+03 0.  0.
<mgrwt>
<rscale>  0 0.64387007E+03</rscale>
<asrwt>0</asrwt>
<pdfrwt beam="1">  1        2 0.40440476E-01 0.64387007E+03</pdfrwt>
<pdfrwt beam="2">  1       -2 0.52302704E-01 0.64387007E+03</pdfrwt>
<totfact> 0.44266497E+02</totfact>
</mgrwt>
</event>
<event>
 4    1  0.5847263E-005  0.5974533E+03  0.7818608E-02  0.9910704E-01
         -2   -1    0    0    0  501 -0.00000000000E+00  0.00000000000E+00  0.43632790616E+02  0.43632790691E+02  0.25500000000E-02 0. -1.
          2   -1    0    0  501    0  0.00000000000E+00 -0.00000000000E+00 -0.20451959202E+04  0.20451959202E+04  0.25500000000E-02 0.  1.
    5000001    1    1    2    0    0  0.92180474248E+02  0.20538617379E+03 -0.85693064775E+03  0.90657313840E+03  0.19200000000E+03 0.  0.
   -5000001    1    1    2    0    0 -0.92180474248E+02 -0.20538617379E+03 -0.11446324818E+04  0.11822555725E+04  0.19200000000E+03 0.  0.
<mgrwt>
<rscale>  0 0.59745328E+03</rscale>
<asrwt>0</asrwt>
<pdfrwt beam="1">  1        2 0.29217079E+00 0.59745328E+03</pdfrwt>
<pdfrwt beam="2">  1       -2 0.62332571E-02 0.59745328E+03</pdfrwt>
<totfact> 0.11441242E+03</totfact>
</mgrwt>
</event>
<event>
 4    1  0.5847263E-005  0.6123468E+03  0.7818608E-02  0.9880116E-01
          2   -1    0    0  501    0  0.00000000000E+00  0.00000000000E+00  0.11452287747E+04  0.11452287747E+04  0.25500000000E-02 0.  1.
         -2   -1    0    0    0  501 -0.00000000000E+00 -0.00000000000E+00 -0.81854511524E+02  0.81854511564E+02  0.25500000000E-02 0. -1.
    5000001    1    1    2    0    0 -0.20032930619E+02 -0.95192721540E+02  0.96803741474E+03  0.99167706884E+03  0.19200000000E+03 0.  0.
   -5000001    1    1    2    0    0  0.20032930619E+02  0.95192721540E+02  0.95336848486E+02  0.23540621747E+03  0.19200000000E+03 0.  0.
<mgrwt>
<rscale>  0 0.61234677E+03</rscale>
<asrwt>0</asrwt>
<pdfrwt beam="1">  1        2 0.16360409E+00 0.61234677E+03</pdfrwt>
<pdfrwt beam="2">  1       -2 0.11693503E-01 0.61234677E+03</pdfrwt>
<totfact> 0.12292911E+03</totfact>
</mgrwt>
</event>
<event>
 4    1  0.5847263E-005  0.4961729E+03  0.7818608E-02  0.1014783E+00
          2   -1    0    0  501    0  0.00000000000E+00  0.00000000000E+00  0.20187024351E+04  0.20187024351E+04  0.25500000000E-02 0.  1.
         -2   -1    0    0    0  501 -0.00000000000E+00 -0.00000000000E+00 -0.30488338615E+02  0.30488338721E+02  0.25500000000E-02 0. -1.
    5000001    1    1    2    0    0 -0.11833733683E+03 -0.74862987670E+02  0.69989925177E+03  0.73914217498E+03  0.19200000000E+03 0.  0.
   -5000001    1    1    2    0    0  0.11833733683E+03  0.74862987670E+02  0.12883148447E+04  0.13100485988E+04  0.19200000000E+03 0.  0.
<mgrwt>
<rscale>  0 0.49617289E+03</rscale>
<asrwt>0</asrwt>
<pdfrwt beam="1">  1        2 0.28838615E+00 0.49617289E+03</pdfrwt>
<pdfrwt beam="2">  1       -2 0.43554756E-02 0.49617289E+03</pdfrwt>
<totfact> 0.20674564E+03</totfact>
</mgrwt>
</event>
<event>
 4    1  0.5847263E-005  0.7760019E+03  0.7818608E-02  0.9595418E-01
          2   -1    0    0  501    0  0.00000000000E+00  0.00000000000E+00  0.47349661308E+03  0.47349661309E+03  0.25500000000E-02 0.  1.
         -2   -1    0    0    0  501 -0.00000000000E+00 -0.00000000000E+00 -0.31794260677E+03  0.31794260679E+03  0.25500000000E-02 0. -1.
    5000001    1    1    2    0    0 -0.27979839326E+03  0.65014317428E+02  0.25783005764E+03  0.43110827058E+03  0.19200000000E+03 0.  0.
   -5000001    1    1    2    0    0  0.27979839326E+03 -0.65014317428E+02 -0.10227605133E+03  0.36033094929E+03  0.19200000000E+03 0.  0.
<mgrwt>
<rscale>  0 0.77600193E+03</rscale>
<asrwt>0</asrwt>
<pdfrwt beam="1">  1        2 0.67642373E-01 0.77600193E+03</pdfrwt>
<pdfrwt beam="2">  1       -2 0.45420372E-01 0.77600193E+03</pdfrwt>
<totfact> 0.33057030E+02</totfact>
</mgrwt>
</event>
<event>
 4    1  0.5847263E-005  0.6147786E+03  0.7818608E-02  0.9875211E-01
          2   -1    0    0  501    0  0.00000000000E+00  0.00000000000E+00  0.92207731248E+03  0.92207731248E+03  0.25500000000E-02 0.  1.
         -2   -1    0    0    0  501 -0.00000000000E+00 -0.00000000000E+00 -0.10247315758E+03  0.10247315761E+03  0.25500000000E-02 0. -1.
    5000001    1    1    2    0    0  0.58130906058E+02 -0.18527842409E+03  0.64499554510E+03  0.70042169432E+03  0.19200000000E+03 0.  0.
   -5000001    1    1    2    0    0 -0.58130906058E+02  0.18527842409E+03  0.17460860980E+03  0.32412877578E+03  0.19200000000E+03 0.  0.
<mgrwt>
<rscale>  0 0.61477857E+03</rscale>
<asrwt>0</asrwt>
<pdfrwt beam="1">  1        2 0.13172533E+00 0.61477857E+03</pdfrwt>
<pdfrwt beam="2">  1       -2 0.14639022E-01 0.61477857E+03</pdfrwt>
<totfact> 0.11528219E+03</totfact>
</mgrwt>
</event>
<event>
 4    1  0.5847263E-005  0.9446888E+03  0.7818608E-02  0.9371380E-01
         -2   -1    0    0    0  501 -0.00000000000E+00  0.00000000000E+00  0.12653437442E+03  0.12653437445E+03  0.25500000000E-02 0. -1.
          2   -1    0    0  501    0  0.00000000000E+00 -0.00000000000E+00 -0.17632300972E+04  0.17632300972E+04  0.25500000000E-02 0.  1.
    5000001    1    1    2    0    0 -0.25549109358E+03 -0.24455640964E+03 -0.13130669117E+04  0.13733507385E+04  0.19200000000E+03 0.  0.
   -5000001    1    1    2    0    0  0.25549109358E+03  0.24455640964E+03 -0.32362881106E+03  0.51641373311E+03  0.19200000000E+03 0.  0.
<mgrwt>
<rscale>  0 0.94468877E+03</rscale>
<asrwt>0</asrwt>
<pdfrwt beam="1">  1        2 0.25189000E+00 0.94468877E+03</pdfrwt>
<pdfrwt beam="2">  1       -2 0.18076340E-01 0.94468877E+03</pdfrwt>
<totfact> 0.27143834E+02</totfact>
</mgrwt>
</event>
<event>
 4    1  0.5847263E-005  0.4049421E+03  0.7818608E-02  0.1042082E+00
          2   -1    0    0  501    0  0.00000000000E+00  0.00000000000E+00  0.27780085696E+03  0.27780085697E+03  0.25500000000E-02 0.  1.
         -2   -1    0    0    0  501 -0.00000000000E+00 -0.00000000000E+00 -0.14756804241E+03  0.14756804243E+03  0.25500000000E-02 0. -1.
    5000001    1    1    2    0    0 -0.61458749233E+02 -0.67121840348E+01  0.83560517256E+02  0.21833137960E+03  0.19200000000E+03 0.  0.
   -5000001    1    1    2    0    0  0.61458749233E+02  0.67121840348E+01  0.46672297290E+02  0.20703751980E+03  0.19200000000E+03 0.  0.
<mgrwt>
<rscale>  0 0.40494211E+03</rscale>
<asrwt>0</asrwt>
<pdfrwt beam="1">  1        2 0.39685837E-01 0.40494211E+03</pdfrwt>
<pdfrwt beam="2">  1       -2 0.21081149E-01 0.40494211E+03</pdfrwt>
<totfact> 0.24913860E+03</totfact>
</mgrwt>
</event>
<event>
 4    1  0.5847263E-005  0.4993532E+03  0.7818608E-02  0.1013948E+00
          2   -1    0    0  501    0  0.00000000000E+00  0.00000000000E+00  0.35475095001E+03  0.35475095002E+03  0.25500000000E-02 0.  1.
         -2   -1    0    0    0  501 -0.00000000000E+00 -0.00000000000E+00 -0.17572440085E+03  0.17572440087E+03  0.25500000000E-02 0. -1.
    5000001    1    1    2    0    0 -0.49269017574E+02  0.14988166070E+03  0.11515142316E+03  0.27389012133E+03  0.19200000000E+03 0.  0.
   -5000001    1    1    2    0    0  0.49269017574E+02 -0.14988166070E+03  0.63875125994E+02  0.25658522956E+03  0.19200000000E+03 0.  0.
<mgrwt>
<rscale>  0 0.49935317E+03</rscale>
<asrwt>0</asrwt>
<pdfrwt beam="1">  1        2 0.50678707E-01 0.49935317E+03</pdfrwt>
<pdfrwt beam="2">  1       -2 0.25103486E-01 0.49935317E+03</pdfrwt>
<totfact> 0.14038325E+03</totfact>
</mgrwt>
</event>
<event>
 4    1  0.5847263E-005  0.5926002E+03  0.7818608E-02  0.9920878E-01
         -2   -1    0    0    0  501 -0.00000000000E+00  0.00000000000E+00  0.87395696023E+02  0.87395696060E+02  0.25500000000E-02 0. -1.
          2   -1    0    0  501    0  0.00000000000E+00 -0.00000000000E+00 -0.10045546161E+04  0.10045546161E+04  0.25500000000E-02 0.  1.
    5000001    1    1    2    0    0 -0.13273673508E+03  0.15386219275E+03 -0.27768925713E+03  0.39404052929E+03  0.19200000000E+03 0.  0.
   -5000001    1    1    2    0    0  0.13273673508E+03 -0.15386219275E+03 -0.63946966293E+03  0.69790978286E+03  0.19200000000E+03 0.  0.
<mgrwt>
<rscale>  0 0.59260020E+03</rscale>
<asrwt>0</asrwt>
<pdfrwt beam="1">  1        2 0.14350780E+00 0.59260020E+03</pdfrwt>
<pdfrwt beam="2">  1       -2 0.12485100E-01 0.59260020E+03</pdfrwt>
<totfact> 0.13360035E+03</totfact>
</mgrwt>
</event>
<event>
 4    1  0.5847263E-005  0.7659577E+03  0.7818608E-02  0.9610643E-01
          2   -1    0    0  501    0  0.00000000000E+00  0.00000000000E+00  0.18432777562E+04  0.18432777562E+04  0.25500000000E-02 0.  1.
         -2   -1    0    0    0  501 -0.00000000000E+00 -0.00000000000E+00 -0.79571727018E+02  0.79571727058E+02  0.25500000000E-02 0. -1.
    5000001    1    1    2    0    0  0.30613938617E+03  0.50229697463E+02  0.58947711120E+03  0.69324714994E+03  0.19200000000E+03 0.  0.
   -5000001    1    1    2    0    0 -0.30613938617E+03 -0.50229697463E+02  0.11742289179E+04  0.12296023333E+04  0.19200000000E+03 0.  0.
<mgrwt>
<rscale>  0 0.76595769E+03</rscale>
<asrwt>0</asrwt>
<pdfrwt beam="1">  1        2 0.26332541E+00 0.76595769E+03</pdfrwt>
<pdfrwt beam="2">  1       -2 0.11367389E-01 0.76595769E+03</pdfrwt>
<totfact> 0.54618359E+02</totfact>
</mgrwt>
</event>
<event>
 4    1  0.5847263E-005  0.5515839E+03  0.7818608E-02  0.1001128E+00
         -2   -1    0    0    0  501 -0.00000000000E+00  0.00000000000E+00  0.36608516040E+03  0.36608516041E+03  0.25500000000E-02 0. -1.
          2   -1    0    0  501    0  0.00000000000E+00 -0.00000000000E+00 -0.20776912968E+03  0.20776912970E+03  0.25500000000E-02 0.  1.
    5000001    1    1    2    0    0 -0.11168570067E+03 -0.59628033952E+02  0.23751393714E+03  0.33061468283E+03  0.19200000000E+03 0.  0.
   -5000001    1    1    2    0    0  0.11168570067E+03  0.59628033952E+02 -0.79197906418E+02  0.24323960728E+03  0.19200000000E+03 0.  0.
<mgrwt>
<rscale>  0 0.55158388E+03</rscale>
<asrwt>0</asrwt>
<pdfrwt beam="1">  1        2 0.29681304E-01 0.55158388E+03</pdfrwt>
<pdfrwt beam="2">  1       -2 0.52297880E-01 0.55158388E+03</pdfrwt>
<totfact> 0.62577189E+02</totfact>
</mgrwt>
</event>
<event>
 4    1  0.5847263E-005  0.5336147E+03  0.7818608E-02  0.1005359E+00
          2   -1    0    0  501    0  0.00000000000E+00  0.00000000000E+00  0.38115329144E+03  0.38115329144E+03  0.25500000000E-02 0.  1.
         -2   -1    0    0    0  501 -0.00000000000E+00 -0.00000000000E+00 -0.18676520552E+03  0.18676520554E+03  0.25500000000E-02 0. -1.
    5000001    1    1    2    0    0 -0.15667689845E+03 -0.93332646857E+02  0.62485612465E+02  0.27207918928E+03  0.19200000000E+03 0.  0.
   -5000001    1    1    2    0    0  0.15667689845E+03  0.93332646857E+02  0.13190247345E+03  0.29583930770E+03  0.19200000000E+03 0.  0.
<mgrwt>
<rscale>  0 0.53361474E+03</rscale>
<asrwt>0</asrwt>
<pdfrwt beam="1">  1        2 0.54450470E-01 0.53361474E+03</pdfrwt>
<pdfrwt beam="2">  1       -2 0.26680744E-01 0.53361474E+03</pdfrwt>
<totfact> 0.11624205E+03</totfact>
</mgrwt>
</event>
<event>
 4    1  0.5847263E-005  0.4803741E+03  0.7818608E-02  0.1019032E+00
         -2   -1    0    0    0  501 -0.00000000000E+00  0.00000000000E+00  0.73224620123E+02  0.73224620167E+02  0.25500000000E-02 0. -1.
          2   -1    0    0  501    0  0.00000000000E+00 -0.00000000000E+00 -0.78784721944E+03  0.78784721945E+03  0.25500000000E-02 0.  1.
    5000001    1    1    2    0    0 -0.85445468446E+02 -0.75248091949E+02 -0.19836764682E+03  0.29862506045E+03  0.19200000000E+03 0.  0.
   -5000001    1    1    2    0    0  0.85445468446E+02  0.75248091949E+02 -0.51625495249E+03  0.56244677917E+03  0.19200000000E+03 0.  0.
<mgrwt>
<rscale>  0 0.48037408E+03</rscale>
<asrwt>0</asrwt>
<pdfrwt beam="1">  1        2 0.11254960E+00 0.48037408E+03</pdfrwt>
<pdfrwt beam="2">  1       -2 0.10460660E-01 0.48037408E+03</pdfrwt>
<totfact> 0.24654097E+03</totfact>
</mgrwt>
</event>
<event>
 4    1  0.5847263E-005  0.5048984E+03  0.7818608E-02  0.1012508E+00
         -2   -1    0    0    0  501 -0.00000000000E+00  0.00000000000E+00  0.41711512763E+02  0.41711512841E+02  0.25500000000E-02 0. -1.
          2   -1    0    0  501    0  0.00000000000E+00 -0.00000000000E+00 -0.15278899149E+04  0.15278899149E+04  0.25500000000E-02 0.  1.
    5000001    1    1    2    0    0 -0.14467016056E+03  0.74045235520E+02 -0.67681763366E+03  0.72205142580E+03  0.19200000000E+03 0.  0.
   -5000001    1    1    2    0    0  0.14467016056E+03 -0.74045235520E+02 -0.80936076852E+03  0.84755000199E+03  0.19200000000E+03 0.  0.
<mgrwt>
<rscale>  0 0.50489840E+03</rscale>
<asrwt>0</asrwt>
<pdfrwt beam="1">  1        2 0.21826995E+00 0.50489840E+03</pdfrwt>
<pdfrwt beam="2">  1       -2 0.59587885E-02 0.50489840E+03</pdfrwt>
<totfact> 0.22501346E+03</totfact>
</mgrwt>
</event>
<event>
 4    1  0.5847263E-005  0.5036103E+03  0.7818608E-02  0.1012841E+00
          2   -1    0    0  501    0  0.00000000000E+00  0.00000000000E+00  0.11098375637E+03  0.11098375640E+03  0.25500000000E-02 0.  1.
         -2   -1    0    0    0  501 -0.00000000000E+00 -0.00000000000E+00 -0.57130725296E+03  0.57130725296E+03  0.25500000000E-02 0. -1.
    5000001    1    1    2    0    0 -0.23904350229E+02  0.58900101069E+02 -0.43338704694E+03  0.47825617855E+03  0.19200000000E+03 0.  0.
   -5000001    1    1    2    0    0  0.23904350229E+02 -0.58900101069E+02 -0.26936449653E+02  0.20403483082E+03  0.19200000000E+03 0.  0.
<mgrwt>
<rscale>  0 0.50361027E+03</rscale>
<asrwt>0</asrwt>
<pdfrwt beam="1">  1        2 0.15854823E-01 0.50361027E+03</pdfrwt>
<pdfrwt beam="2">  1       -2 0.81615320E-01 0.50361027E+03</pdfrwt>
<totfact> 0.49972774E+02</totfact>
</mgrwt>
</event>
<event>
 4    1  0.5847263E-005  0.4877348E+03  0.7818608E-02  0.1017031E+00
          2   -1    0    0  501    0  0.00000000000E+00  0.00000000000E+00  0.48995359922E+02  0.48995359988E+02  0.25500000000E-02 0.  1.
         -2   -1    0    0    0  501 -0.00000000000E+00 -0.00000000000E+00 -0.12138149825E+04  0.12138149825E+04  0.25500000000E-02 0. -1.
    5000001    1    1    2    0    0  0.96815239434E+02  0.25201864788E+02 -0.87302751026E+03  0.89947171065E+03  0.19200000000E+03 0.  0.
   -5000001    1    1    2    0    0 -0.96815239434E+02 -0.25201864788E+02 -0.29179211227E+03  0.36333863180E+03  0.19200000000E+03 0.  0.
<mgrwt>
<rscale>  0 0.48773477E+03</rscale>
<asrwt>0</asrwt>
<pdfrwt beam="1">  1        2 0.69993379E-02 0.48773477E+03</pdfrwt>
<pdfrwt beam="2">  1       -2 0.17340212E+00 0.48773477E+03</pdfrwt>
<totfact> 0.21741329E+02</totfact>
</mgrwt>
</event>
<event>
 4    1  0.5847263E-005  0.1171587E+04  0.7818608E-02  0.9138096E-01
         -2   -1    0    0    0  501 -0.00000000000E+00  0.00000000000E+00  0.14421053824E+03  0.14421053826E+03  0.25500000000E-02 0.  1.
          2   -1    0    0  501    0  0.00000000000E+00 -0.00000000000E+00 -0.23795355791E+04  0.23795355791E+04  0.25500000000E-02 0. -1.
    5000001    1    1    2    0    0 -0.39987431756E+03  0.31579948110E+03 -0.15829802486E+04  0.16740129180E+04  0.19200000000E+03 0.  0.
   -5000001    1    1    2    0    0  0.39987431756E+03 -0.31579948110E+03 -0.65234479220E+03  0.84973319931E+03  0.19200000000E+03 0.  0.
<mgrwt>
<rscale>  0 0.11715871E+04</rscale>
<asrwt>0</asrwt>
<pdfrwt beam="1">  1        2 0.33993363E+00 0.11715871E+04</pdfrwt>
<pdfrwt beam="2">  1       -2 0.20601507E-01 0.11715871E+04</pdfrwt>
<totfact> 0.10267302E+02</totfact>
</mgrwt>
</event>
<event>
 4    1  0.5847263E-005  0.6907216E+03  0.7818608E-02  0.9733232E-01
          2   -1    0    0  501    0  0.00000000000E+00  0.00000000000E+00  0.12077067141E+04  0.12077067141E+04  0.25500000000E-02 0.  1.
         -2   -1    0    0    0  501 -0.00000000000E+00 -0.00000000000E+00 -0.98760806374E+02  0.98760806407E+02  0.25500000000E-02 0. -1.
    5000001    1    1    2    0    0  0.46174275434E+02 -0.25547558146E+03  0.78620685196E+03  0.84993237996E+03  0.19200000000E+03 0.  0.
   -5000001    1    1    2    0    0 -0.46174275434E+02  0.25547558146E+03  0.32273905574E+03  0.45653514053E+03  0.19200000000E+03 0.  0.
<mgrwt>
<rscale>  0 0.69072162E+03</rscale>
<asrwt>0</asrwt>
<pdfrwt beam="1">  1        2 0.17252952E+00 0.69072162E+03</pdfrwt>
<pdfrwt beam="2">  1       -2 0.14108688E-01 0.69072162E+03</pdfrwt>
<totfact> 0.82759429E+02</totfact>
</mgrwt>
</event>
<event>
 4    1  0.5847263E-005  0.5979903E+03  0.7818608E-02  0.9909584E-01
         -2   -1    0    0    0  501 -0.00000000000E+00  0.00000000000E+00  0.25067848860E+02  0.25067848990E+02  0.25500000000E-02 0. -1.
          2   -1    0    0  501    0  0.00000000000E+00 -0.00000000000E+00 -0.35662448912E+04  0.35662448912E+04  0.25500000000E-02 0.  1.
    5000001    1    1    2    0    0 -0.11222500197E+02  0.20860395370E+03 -0.23369215438E+04  0.23540832305E+04  0.19200000000E+03 0.  0.
   -5000001    1    1    2    0    0  0.11222500197E+02 -0.20860395370E+03 -0.12042554986E+04  0.12372295098E+04  0.19200000000E+03 0.  0.
<mgrwt>
<rscale>  0 0.59799026E+03</rscale>
<asrwt>0</asrwt>
<pdfrwt beam="1">  1        2 0.50946323E+00 0.59799026E+03</pdfrwt>
<pdfrwt beam="2">  1       -2 0.35811236E-02 0.59799026E+03</pdfrwt>
<totfact> 0.41129004E+02</totfact>
</mgrwt>
</event>
<event>
 4    1  0.5847263E-005  0.4769794E+03  0.7818608E-02  0.1019969E+00
          2   -1    0    0  501    0  0.00000000000E+00  0.00000000000E+00  0.17238220542E+04  0.17238220542E+04  0.25500000000E-02 0.  1.
         -2   -1    0    0    0  501 -0.00000000000E+00 -0.00000000000E+00 -0.32994896627E+02  0.32994896726E+02  0.25500000000E-02 0. -1.
    5000001    1    1    2    0    0  0.11625002371E+03 -0.58338292381E+02  0.10503507851E+04  0.10756478031E+04  0.19200000000E+03 0.  0.
   -5000001    1    1    2    0    0 -0.11625002371E+03  0.58338292381E+02  0.64047637243E+03  0.68116914788E+03  0.19200000000E+03 0.  0.
<mgrwt>
<rscale>  0 0.47697937E+03</rscale>
<asrwt>0</asrwt>
<pdfrwt beam="1">  1        2 0.24626041E+00 0.47697937E+03</pdfrwt>
<pdfrwt beam="2">  1       -2 0.47135544E-02 0.47697937E+03</pdfrwt>
<totfact> 0.25730631E+03</totfact>
</mgrwt>
</event>
<event>
 4    1  0.5847263E-005  0.4633792E+03  0.7818608E-02  0.1023806E+00
         -2   -1    0    0    0  501 -0.00000000000E+00  0.00000000000E+00  0.25178534086E+02  0.25178534215E+02  0.25500000000E-02 0. -1.
          2   -1    0    0  501    0  0.00000000000E+00 -0.00000000000E+00 -0.21319774278E+04  0.21319774278E+04  0.25500000000E-02 0.  1.
    5000001    1    1    2    0    0  0.22511620420E+02 -0.57236561269E+02 -0.15848608318E+04  0.15976328280E+04  0.19200000000E+03 0.  0.
   -5000001    1    1    2    0    0 -0.22511620420E+02  0.57236561269E+02 -0.52193806190E+03  0.55952313398E+03  0.19200000000E+03 0.  0.
<mgrwt>
<rscale>  0 0.46337918E+03</rscale>
<asrwt>0</asrwt>
<pdfrwt beam="1">  1        2 0.30456809E+00 0.46337918E+03</pdfrwt>
<pdfrwt beam="2">  1       -2 0.35969348E-02 0.46337918E+03</pdfrwt>
<totfact> 0.24351216E+03</totfact>
</mgrwt>
</event>
<event>
 4    1  0.5847263E-005  0.6833302E+03  0.7818608E-02  0.9746172E-01
          2   -1    0    0  501    0  0.00000000000E+00  0.00000000000E+00  0.25817261310E+03  0.25817261311E+03  0.25500000000E-02 0.  1.
         -2   -1    0    0    0  501 -0.00000000000E+00 -0.00000000000E+00 -0.45215881784E+03  0.45215881785E+03  0.25500000000E-02 0. -1.
    5000001    1    1    2    0    0 -0.51760680083E+02  0.26662222516E+03 -0.15774871246E+02  0.33298562359E+03  0.19200000000E+03 0.  0.
   -5000001    1    1    2    0    0  0.51760680083E+02 -0.26662222516E+03 -0.17821133350E+03  0.37734580737E+03  0.19200000000E+03 0.  0.
<mgrwt>
<rscale>  0 0.68333015E+03</rscale>
<asrwt>0</asrwt>
<pdfrwt beam="1">  1        2 0.36881802E-01 0.68333015E+03</pdfrwt>
<pdfrwt beam="2">  1       -2 0.64594117E-01 0.68333015E+03</pdfrwt>
<totfact> 0.31495959E+02</totfact>
</mgrwt>
</event>
<event>
 4    1  0.5847263E-005  0.1123303E+04  0.7818608E-02  0.9182773E-01
          2   -1    0    0  501    0  0.00000000000E+00  0.00000000000E+00  0.41626999981E+03  0.41626999981E+03  0.25500000000E-02 0.  1.
         -2   -1    0    0    0  501 -0.00000000000E+00 -0.00000000000E+00 -0.75780662557E+03  0.75780662558E+03  0.25500000000E-02 0. -1.
    5000001    1    1    2    0    0 -0.92300933021E+02  0.51965510477E+03 -0.16530982893E+03  0.58545045024E+03  0.19200000000E+03 0.  0.
   -5000001    1    1    2    0    0  0.92300933021E+02 -0.51965510477E+03 -0.17622679684E+03  0.58862617515E+03  0.19200000000E+03 0.  0.
<mgrwt>
<rscale>  0 0.11233026E+04</rscale>
<asrwt>0</asrwt>
<pdfrwt beam="1">  1        2 0.59467143E-01 0.11233026E+04</pdfrwt>
<pdfrwt beam="2">  1       -2 0.10825809E+00 0.11233026E+04</pdfrwt>
<totfact> 0.56033384E+01</totfact>
</mgrwt>
</event>
<event>
 4    1  0.5847263E-005  0.8181009E+03  0.7818608E-02  0.9534180E-01
          2   -1    0    0  501    0  0.00000000000E+00  0.00000000000E+00  0.14552928869E+03  0.14552928871E+03  0.25500000000E-02 0.  1.
         -2   -1    0    0    0  501 -0.00000000000E+00 -0.00000000000E+00 -0.11497498032E+04  0.11497498032E+04  0.25500000000E-02 0. -1.
    5000001    1    1    2    0    0 -0.66642277452E+02  0.27788060563E+03 -0.85186525925E+03  0.91880207012E+03  0.19200000000E+03 0.  0.
   -5000001    1    1    2    0    0  0.66642277452E+02 -0.27788060563E+03 -0.15235525525E+03  0.37647702179E+03  0.19200000000E+03 0.  0.
<mgrwt>
<rscale>  0 0.81810090E+03</rscale>
<asrwt>0</asrwt>
<pdfrwt beam="1">  1        2 0.20789899E-01 0.81810090E+03</pdfrwt>
<pdfrwt beam="2">  1       -2 0.16424997E+00 0.81810090E+03</pdfrwt>
<totfact> 0.64227197E+01</totfact>
</mgrwt>
</event>
<event>
 4    1  0.5847263E-005  0.7071967E+03  0.7818608E-02  0.9705003E-01
          2   -1    0    0  501    0  0.00000000000E+00  0.00000000000E+00  0.20060545558E+04  0.20060545558E+04  0.25500000000E-02 0.  1.
         -2   -1    0    0    0  501 -0.00000000000E+00 -0.00000000000E+00 -0.62327219218E+02  0.62327219270E+02  0.25500000000E-02 0. -1.
    5000001    1    1    2    0    0  0.48774101997E+02  0.28659845171E+03  0.79515828612E+03  0.86813494662E+03  0.19200000000E+03 0.  0.
   -5000001    1    1    2    0    0 -0.48774101997E+02 -0.28659845171E+03  0.11485690505E+04  0.12002468285E+04  0.19200000000E+03 0.  0.
<mgrwt>
<rscale>  0 0.70719673E+03</rscale>
<asrwt>0</asrwt>
<pdfrwt beam="1">  1        2 0.28657924E+00 0.70719673E+03</pdfrwt>
<pdfrwt beam="2">  1       -2 0.89038880E-02 0.70719673E+03</pdfrwt>
<totfact> 0.67485823E+02</totfact>
</mgrwt>
</event>
<event>
 4    1  0.5847263E-005  0.6270572E+03  0.7818608E-02  0.9850808E-01
          2   -1    0    0  501    0  0.00000000000E+00  0.00000000000E+00  0.18776728539E+04  0.18776728539E+04  0.25500000000E-02 0.  1.
         -2   -1    0    0    0  501 -0.00000000000E+00 -0.00000000000E+00 -0.52352136369E+02  0.52352136431E+02  0.25500000000E-02 0. -1.
    5000001    1    1    2    0    0  0.17503530888E+03  0.17408378824E+03  0.98104680541E+03  0.10296889623E+04  0.19200000000E+03 0.  0.
   -5000001    1    1    2    0    0 -0.17503530888E+03 -0.17408378824E+03  0.84427391213E+03  0.90033602804E+03  0.19200000000E+03 0.  0.
<mgrwt>
<rscale>  0 0.62705721E+03</rscale>
<asrwt>0</asrwt>
<pdfrwt beam="1">  1        2 0.26823893E+00 0.62705721E+03</pdfrwt>
<pdfrwt beam="2">  1       -2 0.74788780E-02 0.62705721E+03</pdfrwt>
<totfact> 0.10401787E+03</totfact>
</mgrwt>
</event>
<event>
 4    1  0.5847263E-005  0.5263566E+03  0.7818608E-02  0.1007120E+00
          2   -1    0    0  501    0  0.00000000000E+00  0.00000000000E+00  0.14506644649E+04  0.14506644649E+04  0.25500000000E-02 0.  1.
         -2   -1    0    0    0  501 -0.00000000000E+00 -0.00000000000E+00 -0.47745576898E+02  0.47745576967E+02  0.25500000000E-02 0. -1.
    5000001    1    1    2    0    0 -0.39428312286E+02 -0.16140920116E+03  0.89850962558E+03  0.93369752559E+03  0.19200000000E+03 0.  0.
   -5000001    1    1    2    0    0  0.39428312286E+02  0.16140920116E+03  0.50440926245E+03  0.56471251631E+03  0.19200000000E+03 0.  0.
<mgrwt>
<rscale>  0 0.52635658E+03</rscale>
<asrwt>0</asrwt>
<pdfrwt beam="1">  1        2 0.20723777E+00 0.52635658E+03</pdfrwt>
<pdfrwt beam="2">  1       -2 0.68207972E-02 0.52635658E+03</pdfrwt>
<totfact> 0.19962013E+03</totfact>
</mgrwt>
</event>
<event>
 4    1  0.5847263E-005  0.4632800E+03  0.7818608E-02  0.1023834E+00
         -2   -1    0    0    0  501 -0.00000000000E+00  0.00000000000E+00  0.16401295491E+03  0.16401295493E+03  0.25500000000E-02 0. -1.
          2   -1    0    0  501    0  0.00000000000E+00 -0.00000000000E+00 -0.32715154581E+03  0.32715154582E+03  0.25500000000E-02 0.  1.
    5000001    1    1    2    0    0 -0.71005325453E+02 -0.89267707699E+02 -0.16364535631E+02  0.22392471482E+03  0.19200000000E+03 0.  0.
   -5000001    1    1    2    0    0  0.71005325453E+02  0.89267707699E+02 -0.14677405527E+03  0.26723978592E+03  0.19200000000E+03 0.  0.
<mgrwt>
<rscale>  0 0.46328001E+03</rscale>
<asrwt>0</asrwt>
<pdfrwt beam="1">  1        2 0.46735935E-01 0.46328001E+03</pdfrwt>
<pdfrwt beam="2">  1       -2 0.23430422E-01 0.46328001E+03</pdfrwt>
<totfact> 0.17338598E+03</totfact>
</mgrwt>
</event>
<event>
 4    1  0.5847263E-005  0.1333700E+04  0.7818608E-02  0.9003260E-01
          2   -1    0    0  501    0  0.00000000000E+00  0.00000000000E+00  0.94112845899E+03  0.94112845899E+03  0.25500000000E-02 0.  1.
         -2   -1    0    0    0  501 -0.00000000000E+00 -0.00000000000E+00 -0.47250591562E+03  0.47250591563E+03  0.25500000000E-02 0. -1.
    5000001    1    1    2    0    0  0.52548133352E+02  0.48056275940E+03  0.67660110783E+03  0.85343712783E+03  0.19200000000E+03 0.  0.
   -5000001    1    1    2    0    0 -0.52548133352E+02 -0.48056275940E+03 -0.20797856446E+03  0.56019724679E+03  0.19200000000E+03 0.  0.
<mgrwt>
<rscale>  0 0.13336998E+04</rscale>
<asrwt>0</asrwt>
<pdfrwt beam="1">  1        2 0.13444692E+00 0.13336998E+04</pdfrwt>
<pdfrwt beam="2">  1       -2 0.67500846E-01 0.13336998E+04</pdfrwt>
<totfact> 0.60260828E+01</totfact>
</mgrwt>
</event>
<event>
 4    1  0.5847263E-005  0.5161424E+03  0.7818608E-02  0.1009649E+00
         -2   -1    0    0    0  501 -0.00000000000E+00  0.00000000000E+00  0.13567993865E+03  0.13567993867E+03  0.25500000000E-02 0. -1.
          2   -1    0    0  501    0  0.00000000000E+00 -0.00000000000E+00 -0.49086652401E+03  0.49086652402E+03  0.25500000000E-02 0.  1.
    5000001    1    1    2    0    0 -0.53789290195E+02  0.42294408193E+02  0.14551138223E+02  0.20434735214E+03  0.19200000000E+03 0.  0.
   -5000001    1    1    2    0    0  0.53789290195E+02 -0.42294408193E+02 -0.36973772359E+03  0.42219911055E+03  0.19200000000E+03 0.  0.
<mgrwt>
<rscale>  0 0.51614238E+03</rscale>
<asrwt>0</asrwt>
<pdfrwt beam="1">  1        2 0.70123788E-01 0.51614238E+03</pdfrwt>
<pdfrwt beam="2">  1       -2 0.19382849E-01 0.51614238E+03</pdfrwt>
<totfact> 0.15422709E+03</totfact>
</mgrwt>
</event>
<event>
 4    1  0.5847263E-005  0.4734727E+03  0.7818608E-02  0.1020945E+00
         -2   -1    0    0    0  501 -0.00000000000E+00  0.00000000000E+00  0.15464834214E+02  0.15464834425E+02  0.25500000000E-02 0.  1.
          2   -1    0    0  501    0  0.00000000000E+00 -0.00000000000E+00 -0.36239698442E+04  0.36239698442E+04  0.25500000000E-02 0. -1.
    5000001    1    1    2    0    0  0.48833802142E+02 -0.12135361643E+03 -0.14546433398E+04  0.14730793212E+04  0.19200000000E+03 0.  0.
   -5000001    1    1    2    0    0 -0.48833802142E+02  0.12135361643E+03 -0.21538616701E+04  0.21663553574E+04  0.19200000000E+03 0.  0.
<mgrwt>
<rscale>  0 0.47347267E+03</rscale>
<asrwt>0</asrwt>
<pdfrwt beam="1">  1        2 0.51770944E+00 0.47347267E+03</pdfrwt>
<pdfrwt beam="2">  1       -2 0.22092644E-02 0.47347267E+03</pdfrwt>
<totfact> 0.80083443E+02</totfact>
</mgrwt>
</event>
<event>
 4    1  0.5847263E-005  0.1289197E+04  0.7818608E-02  0.9038176E-01
         -2   -1    0    0    0  501 -0.00000000000E+00  0.00000000000E+00  0.66107533953E+03  0.66107533953E+03  0.25500000000E-02 0. -1.
          2   -1    0    0  501    0  0.00000000000E+00 -0.00000000000E+00 -0.62853220420E+03  0.62853220420E+03  0.25500000000E-02 0.  1.
    5000001    1    1    2    0    0 -0.37986264418E+03  0.47764886990E+03 -0.62487679615E+02  0.64281628904E+03  0.19200000000E+03 0.  0.
   -5000001    1    1    2    0    0  0.37986264418E+03 -0.47764886990E+03  0.95030814944E+02  0.64679125469E+03  0.19200000000E+03 0.  0.
<mgrwt>
<rscale>  0 0.12891969E+04</rscale>
<asrwt>0</asrwt>
<pdfrwt beam="1">  1        2 0.89790314E-01 0.12891969E+04</pdfrwt>
<pdfrwt beam="2">  1       -2 0.94439335E-01 0.12891969E+04</pdfrwt>
<totfact> 0.47653899E+01</totfact>
</mgrwt>
</event>
<event>
 4    1  0.5847263E-005  0.4335567E+03  0.7818608E-02  0.1032742E+00
         -2   -1    0    0    0  501 -0.00000000000E+00  0.00000000000E+00  0.52559287841E+02  0.52559287903E+02  0.25500000000E-02 0. -1.
          2   -1    0    0  501    0  0.00000000000E+00 -0.00000000000E+00 -0.89409224119E+03  0.89409224119E+03  0.25500000000E-02 0.  1.
    5000001    1    1    2    0    0  0.43225764237E+02 -0.45987835736E+02 -0.59193463987E+03  0.62548698277E+03  0.19200000000E+03 0.  0.
   -5000001    1    1    2    0    0 -0.43225764237E+02  0.45987835736E+02 -0.24959831348E+03  0.32116454633E+03  0.19200000000E+03 0.  0.
<mgrwt>
<rscale>  0 0.43355669E+03</rscale>
<asrwt>0</asrwt>
<pdfrwt beam="1">  1        2 0.12772745E+00 0.43355669E+03</pdfrwt>
<pdfrwt beam="2">  1       -2 0.75084702E-02 0.43355669E+03</pdfrwt>
<totfact> 0.35532425E+03</totfact>
</mgrwt>
</event>
<event>
 4    1  0.5847263E-005  0.4803277E+03  0.7818608E-02  0.1019045E+00
         -2   -1    0    0    0  501 -0.00000000000E+00  0.00000000000E+00  0.75052034503E+02  0.75052034546E+02  0.25500000000E-02 0.  1.
          2   -1    0    0  501    0  0.00000000000E+00 -0.00000000000E+00 -0.76851577207E+03  0.76851577207E+03  0.25500000000E-02 0. -1.
    5000001    1    1    2    0    0 -0.19273346882E+02 -0.12458430243E+03 -0.46994344126E+03  0.52307126503E+03  0.19200000000E+03 0.  0.
   -5000001    1    1    2    0    0  0.19273346882E+02  0.12458430243E+03 -0.22352029630E+03  0.32049654159E+03  0.19200000000E+03 0.  0.
<mgrwt>
<rscale>  0 0.48032769E+03</rscale>
<asrwt>0</asrwt>
<pdfrwt beam="1">  1        2 0.10978796E+00 0.48032769E+03</pdfrwt>
<pdfrwt beam="2">  1       -2 0.10721720E-01 0.48032769E+03</pdfrwt>
<totfact> 0.24439102E+03</totfact>
</mgrwt>
</event>
<event>
 4    1  0.5847263E-005  0.5447910E+03  0.7818608E-02  0.1002707E+00
          2   -1    0    0  501    0  0.00000000000E+00  0.00000000000E+00  0.12831099108E+04  0.12831099108E+04  0.25500000000E-02 0.  1.
         -2   -1    0    0    0  501 -0.00000000000E+00 -0.00000000000E+00 -0.57827714210E+02  0.57827714266E+02  0.25500000000E-02 0. -1.
    5000001    1    1    2    0    0 -0.19039133380E+03  0.27832714672E+02  0.65610332804E+03  0.71018243928E+03  0.19200000000E+03 0.  0.
   -5000001    1    1    2    0    0  0.19039133380E+03 -0.27832714672E+02  0.56917886850E+03  0.63075518575E+03  0.19200000000E+03 0.  0.
<mgrwt>
<rscale>  0 0.54479102E+03</rscale>
<asrwt>0</asrwt>
<pdfrwt beam="1">  1        2 0.18330141E+00 0.54479102E+03</pdfrwt>
<pdfrwt beam="2">  1       -2 0.82611023E-02 0.54479102E+03</pdfrwt>
<totfact> 0.18097112E+03</totfact>
</mgrwt>
</event>
<event>
 4    1  0.5847263E-005  0.6971083E+03  0.7818608E-02  0.9722190E-01
          2   -1    0    0  501    0  0.00000000000E+00  0.00000000000E+00  0.34067338192E+03  0.34067338193E+03  0.25500000000E-02 0.  1.
         -2   -1    0    0    0  501 -0.00000000000E+00 -0.00000000000E+00 -0.35661723816E+03  0.35661723817E+03  0.25500000000E-02 0. -1.
    5000001    1    1    2    0    0 -0.22351064091E+03 -0.15041191544E+03  0.10180762630E+03  0.34613515233E+03  0.19200000000E+03 0.  0.
   -5000001    1    1    2    0    0  0.22351064091E+03  0.15041191544E+03 -0.11775148255E+03  0.35115546777E+03  0.19200000000E+03 0.  0.
<mgrwt>
<rscale>  0 0.69710831E+03</rscale>
<asrwt>0</asrwt>
<pdfrwt beam="1">  1        2 0.48667626E-01 0.69710831E+03</pdfrwt>
<pdfrwt beam="2">  1       -2 0.50945319E-01 0.69710831E+03</pdfrwt>
<totfact> 0.38003409E+02</totfact>
</mgrwt>
</event>
<event>
 4    1  0.5847263E-005  0.6152031E+03  0.7818608E-02  0.9874357E-01
          2   -1    0    0  501    0  0.00000000000E+00  0.00000000000E+00  0.12624570747E+04  0.12624570747E+04  0.25500000000E-02 0.  1.
         -2   -1    0    0    0  501 -0.00000000000E+00 -0.00000000000E+00 -0.74948064763E+02  0.74948064806E+02  0.25500000000E-02 0. -1.
    5000001    1    1    2    0    0 -0.15118356503E+03 -0.66634117363E+02  0.21435553268E+03  0.33182656663E+03  0.19200000000E+03 0.  0.
   -5000001    1    1    2    0    0  0.15118356503E+03  0.66634117363E+02  0.97315347727E+03  0.10055785729E+04  0.19200000000E+03 0.  0.
<mgrwt>
<rscale>  0 0.61520310E+03</rscale>
<asrwt>0</asrwt>
<pdfrwt beam="1">  1        2 0.18035100E+00 0.61520310E+03</pdfrwt>
<pdfrwt beam="2">  1       -2 0.10706867E-01 0.61520310E+03</pdfrwt>
<totfact> 0.12206209E+03</totfact>
</mgrwt>
</event>
<event>
 4    1  0.5847263E-005  0.4168459E+03  0.7818608E-02  0.1038098E+00
          2   -1    0    0  501    0  0.00000000000E+00  0.00000000000E+00  0.11827887874E+03  0.11827887877E+03  0.25500000000E-02 0.  1.
         -2   -1    0    0    0  501 -0.00000000000E+00 -0.00000000000E+00 -0.36726866094E+03  0.36726866095E+03  0.25500000000E-02 0. -1.
    5000001    1    1    2    0    0 -0.69462653453E+01 -0.62937780088E+02 -0.65482299994E+02  0.21251199114E+03  0.19200000000E+03 0.  0.
   -5000001    1    1    2    0    0  0.69462653453E+01  0.62937780088E+02 -0.18350748220E+03  0.27303554858E+03  0.19200000000E+03 0.  0.
<mgrwt>
<rscale>  0 0.41684590E+03</rscale>
<asrwt>0</asrwt>
<pdfrwt beam="1">  1        2 0.16896983E-01 0.41684590E+03</pdfrwt>
<pdfrwt beam="2">  1       -2 0.52466951E-01 0.41684590E+03</pdfrwt>
<totfact> 0.11884190E+03</totfact>
</mgrwt>
</event>
<event>
 4    1  0.5847263E-005  0.5346814E+03  0.7818608E-02  0.1005103E+00
         -2   -1    0    0    0  501 -0.00000000000E+00  0.00000000000E+00  0.60224764338E+02  0.60224764391E+02  0.25500000000E-02 0. -1.
          2   -1    0    0  501    0  0.00000000000E+00 -0.00000000000E+00 -0.11867386931E+04  0.11867386931E+04  0.25500000000E-02 0.  1.
    5000001    1    1    2    0    0  0.25169397693E+00  0.14671810887E+03 -0.82998927909E+03  0.86444922941E+03  0.19200000000E+03 0.  0.
   -5000001    1    1    2    0    0 -0.25169397693E+00 -0.14671810887E+03 -0.29652464965E+03  0.38251422806E+03  0.19200000000E+03 0.  0.
<mgrwt>
<rscale>  0 0.53468143E+03</rscale>
<asrwt>0</asrwt>
<pdfrwt beam="1">  1        2 0.16953408E+00 0.53468143E+03</pdfrwt>
<pdfrwt beam="2">  1       -2 0.86035385E-02 0.53468143E+03</pdfrwt>
<totfact> 0.19175631E+03</totfact>
</mgrwt>
</event>
<event>
 4    1  0.5847263E-005  0.5537199E+03  0.7818608E-02  0.1000637E+00
         -2   -1    0    0    0  501 -0.00000000000E+00  0.00000000000E+00  0.66977042375E+02  0.66977042424E+02  0.25500000000E-02 0. -1.
          2   -1    0    0  501    0  0.00000000000E+00 -0.00000000000E+00 -0.11444434338E+04  0.11444434338E+04  0.25500000000E-02 0.  1.
    5000001    1    1    2    0    0 -0.59040536887E+02  0.16933051233E+03 -0.34764506785E+03  0.43575187963E+03  0.19200000000E+03 0.  0.
   -5000001    1    1    2    0    0  0.59040536887E+02 -0.16933051233E+03 -0.72982132357E+03  0.77566859659E+03  0.19200000000E+03 0.  0.
<mgrwt>
<rscale>  0 0.55371992E+03</rscale>
<asrwt>0</asrwt>
<pdfrwt beam="1">  1        2 0.16349191E+00 0.55371992E+03</pdfrwt>
<pdfrwt beam="2">  1       -2 0.95681496E-02 0.55371992E+03</pdfrwt>
<totfact> 0.17078061E+03</totfact>
</mgrwt>
</event>
<event>
 4    1  0.5847263E-005  0.5900138E+03  0.7818608E-02  0.9926344E-01
          2   -1    0    0  501    0  0.00000000000E+00  0.00000000000E+00  0.35680356501E+04  0.35680356501E+04  0.25500000000E-02 0.  1.
         -2   -1    0    0    0  501 -0.00000000000E+00 -0.00000000000E+00 -0.24391308112E+02  0.24391308246E+02  0.25500000000E-02 0. -1.
    5000001    1    1    2    0    0 -0.16282503434E+03 -0.13896189770E+03  0.13705827989E+04  0.14004226538E+04  0.19200000000E+03 0.  0.
   -5000001    1    1    2    0    0  0.16282503434E+03  0.13896189770E+03  0.21730615431E+04  0.21920043045E+04  0.19200000000E+03 0.  0.
<mgrwt>
<rscale>  0 0.59001375E+03</rscale>
<asrwt>0</asrwt>
<pdfrwt beam="1">  1        2 0.50971938E+00 0.59001375E+03</pdfrwt>
<pdfrwt beam="2">  1       -2 0.34844726E-02 0.59001375E+03</pdfrwt>
<totfact> 0.42821558E+02</totfact>
</mgrwt>
</event>
<event>
 4    1  0.5847263E-005  0.5946159E+03  0.7818608E-02  0.9916640E-01
          2   -1    0    0  501    0  0.00000000000E+00  0.00000000000E+00  0.13230392662E+04  0.13230392662E+04  0.25500000000E-02 0.  1.
         -2   -1    0    0    0  501 -0.00000000000E+00 -0.00000000000E+00 -0.66809821620E+02  0.66809821668E+02  0.25500000000E-02 0. -1.
    5000001    1    1    2    0    0  0.20753204616E+03 -0.91946335728E+02  0.63298332621E+03  0.69932508184E+03  0.19200000000E+03 0.  0.
   -5000001    1    1    2    0    0 -0.20753204616E+03  0.91946335728E+02  0.62324611840E+03  0.69052400606E+03  0.19200000000E+03 0.  0.
<mgrwt>
<rscale>  0 0.59461590E+03</rscale>
<asrwt>0</asrwt>
<pdfrwt beam="1">  1        2 0.18900560E+00 0.59461590E+03</pdfrwt>
<pdfrwt beam="2">  1       -2 0.95442606E-02 0.59461590E+03</pdfrwt>
<totfact> 0.13640311E+03</totfact>
</mgrwt>
</event>
<event>
 4    1  0.5847263E-005  0.6463118E+03  0.7818608E-02  0.9813724E-01
         -2   -1    0    0    0  501 -0.00000000000E+00  0.00000000000E+00  0.18795917175E+03  0.18795917177E+03  0.25500000000E-02 0. -1.
          2   -1    0    0  501    0  0.00000000000E+00 -0.00000000000E+00 -0.55559804384E+03  0.55559804385E+03  0.25500000000E-02 0.  1.
    5000001    1    1    2    0    0  0.24647802476E+03  0.11071285430E+02 -0.27793087164E+03  0.41831036260E+03  0.19200000000E+03 0.  0.
   -5000001    1    1    2    0    0 -0.24647802476E+03 -0.11071285430E+02 -0.89708000451E+02  0.32524685301E+03  0.19200000000E+03 0.  0.
<mgrwt>
<rscale>  0 0.64631184E+03</rscale>
<asrwt>0</asrwt>
<pdfrwt beam="1">  1        2 0.79371148E-01 0.64631184E+03</pdfrwt>
<pdfrwt beam="2">  1       -2 0.26851311E-01 0.64631184E+03</pdfrwt>
<totfact> 0.75037902E+02</totfact>
</mgrwt>
</event>
<event>
 4    1  0.5847263E-005  0.8857973E+03  0.7818608E-02  0.9443512E-01
          2   -1    0    0  501    0  0.00000000000E+00  0.00000000000E+00  0.12890592980E+04  0.12890592980E+04  0.25500000000E-02 0.  1.
         -2   -1    0    0    0  501 -0.00000000000E+00 -0.00000000000E+00 -0.15217236870E+03  0.15217236872E+03  0.25500000000E-02 0. -1.
    5000001    1    1    2    0    0  0.34870680059E+03  0.17945051973E+03  0.68906756106E+03  0.81576775219E+03  0.19200000000E+03 0.  0.
   -5000001    1    1    2    0    0 -0.34870680059E+03 -0.17945051973E+03  0.44781936826E+03  0.62546391454E+03  0.19200000000E+03 0.  0.
<mgrwt>
<rscale>  0 0.88579728E+03</rscale>
<asrwt>0</asrwt>
<pdfrwt beam="1">  1        2 0.18415133E+00 0.88579728E+03</pdfrwt>
<pdfrwt beam="2">  1       -2 0.21738910E-01 0.88579728E+03</pdfrwt>
<totfact> 0.35103975E+02</totfact>
</mgrwt>
</event>
<event>
 4    1  0.5847263E-005  0.5732508E+03  0.7818608E-02  0.9962511E-01
         -2   -1    0    0    0  501 -0.00000000000E+00  0.00000000000E+00  0.37814386526E+02  0.37814386612E+02  0.25500000000E-02 0. -1.
          2   -1    0    0  501    0  0.00000000000E+00 -0.00000000000E+00 -0.21725627162E+04  0.21725627162E+04  0.25500000000E-02 0.  1.
    5000001    1    1    2    0    0  0.20018809802E+03 -0.23171951520E+02 -0.80365133191E+03  0.85048908118E+03  0.19200000000E+03 0.  0.
   -5000001    1    1    2    0    0 -0.20018809802E+03  0.23171951520E+02 -0.13310969977E+04  0.13598880216E+04  0.19200000000E+03 0.  0.
<mgrwt>
<rscale>  0 0.57325082E+03</rscale>
<asrwt>0</asrwt>
<pdfrwt beam="1">  1        2 0.31036602E+00 0.57325082E+03</pdfrwt>
<pdfrwt beam="2">  1       -2 0.54020566E-02 0.57325082E+03</pdfrwt>
<totfact> 0.12365832E+03</totfact>
</mgrwt>
</event>
<event>
 4    1  0.5847263E-005  0.1168389E+04  0.7818608E-02  0.9140984E-01
          2   -1    0    0  501    0  0.00000000000E+00  0.00000000000E+00  0.53090136287E+03  0.53090136288E+03  0.25500000000E-02 0.  1.
         -2   -1    0    0    0  501 -0.00000000000E+00 -0.00000000000E+00 -0.64283785909E+03  0.64283785910E+03  0.25500000000E-02 0. -1.
    5000001    1    1    2    0    0  0.30445102689E+02  0.37866490569E+03  0.34599567626E+03  0.54853534350E+03  0.19200000000E+03 0.  0.
   -5000001    1    1    2    0    0 -0.30445102689E+02 -0.37866490569E+03 -0.45793217248E+03  0.62520387848E+03  0.19200000000E+03 0.  0.
<mgrwt>
<rscale>  0 0.11683895E+04</rscale>
<asrwt>0</asrwt>
<pdfrwt beam="1">  1        2 0.75843051E-01 0.11683895E+04</pdfrwt>
<pdfrwt beam="2">  1       -2 0.91833980E-01 0.11683895E+04</pdfrwt>
<totfact> 0.62554078E+01</totfact>
</mgrwt>
</event>
<event>
 4    1  0.5847263E-005  0.4603224E+03  0.7818608E-02  0.1024688E+00
          2   -1    0    0  501    0  0.00000000000E+00  0.00000000000E+00  0.35234653187E+03  0.35234653188E+03  0.25500000000E-02 0.  1.
         -2   -1    0    0    0  501 -0.00000000000E+00 -0.00000000000E+00 -0.15034683719E+03  0.15034683721E+03  0.25500000000E-02 0. -1.
    5000001    1    1    2    0    0  0.31572491033E+02  0.12220195719E+03  0.11565306213E+03  0.25723485633E+03  0.19200000000E+03 0.  0.
   -5000001    1    1    2    0    0 -0.31572491033E+02 -0.12220195719E+03  0.86346632553E+02  0.24545851276E+03  0.19200000000E+03 0.  0.
<mgrwt>
<rscale>  0 0.46032244E+03</rscale>
<asrwt>0</asrwt>
<pdfrwt beam="1">  1        2 0.50335219E-01 0.46032244E+03</pdfrwt>
<pdfrwt beam="2">  1       -2 0.21478120E-01 0.46032244E+03</pdfrwt>
<totfact> 0.18626328E+03</totfact>
</mgrwt>
</event>
<event>
 4    1  0.5847263E-005  0.6717715E+03  0.7818608E-02  0.9766763E-01
          2   -1    0    0  501    0  0.00000000000E+00  0.00000000000E+00  0.28202982709E+04  0.28202982709E+04  0.25500000000E-02 0.  1.
         -2   -1    0    0    0  501 -0.00000000000E+00 -0.00000000000E+00 -0.40002595499E+02  0.40002595581E+02  0.25500000000E-02 0. -1.
    5000001    1    1    2    0    0 -0.20381796512E+03  0.18516953771E+03  0.13424047694E+04  0.13837427815E+04  0.19200000000E+03 0.  0.
   -5000001    1    1    2    0    0  0.20381796512E+03 -0.18516953771E+03  0.14378909060E+04  0.14765580850E+04  0.19200000000E+03 0.  0.
<mgrwt>
<rscale>  0 0.67177154E+03</rscale>
<asrwt>0</asrwt>
<pdfrwt beam="1">  1        2 0.40289970E+00 0.67177154E+03</pdfrwt>
<pdfrwt beam="2">  1       -2 0.57146573E-02 0.67177154E+03</pdfrwt>
<totfact> 0.52163369E+02</totfact>
</mgrwt>
</event>
<event>
 4    1  0.5847263E-005  0.5190564E+03  0.7818608E-02  0.1008921E+00
          2   -1    0    0  501    0  0.00000000000E+00  0.00000000000E+00  0.71876569762E+03  0.71876569763E+03  0.25500000000E-02 0.  1.
         -2   -1    0    0    0  501 -0.00000000000E+00 -0.00000000000E+00 -0.93709093304E+02  0.93709093339E+02  0.25500000000E-02 0. -1.
    5000001    1    1    2    0    0 -0.15037723200E+02 -0.14813628487E+03  0.45530824276E+03  0.51608147413E+03  0.19200000000E+03 0.  0.
   -5000001    1    1    2    0    0  0.15037723200E+02  0.14813628487E+03  0.16974836156E+03  0.29639331684E+03  0.19200000000E+03 0.  0.
<mgrwt>
<rscale>  0 0.51905638E+03</rscale>
<asrwt>0</asrwt>
<pdfrwt beam="1">  1        2 0.10268082E+00 0.51905638E+03</pdfrwt>
<pdfrwt beam="2">  1       -2 0.13387012E-01 0.51905638E+03</pdfrwt>
<totfact> 0.18453377E+03</totfact>
</mgrwt>
</event>
<event>
 4    1  0.5847263E-005  0.4933283E+03  0.7818608E-02  0.1015535E+00
          2   -1    0    0  501    0  0.00000000000E+00  0.00000000000E+00  0.12000133024E+04  0.12000133024E+04  0.25500000000E-02 0.  1.
         -2   -1    0    0    0  501 -0.00000000000E+00 -0.00000000000E+00 -0.50702101767E+02  0.50702101832E+02  0.25500000000E-02 0. -1.
    5000001    1    1    2    0    0 -0.22814586334E+02  0.15245736261E+03  0.61186816074E+03  0.65955318124E+03  0.19200000000E+03 0.  0.
   -5000001    1    1    2    0    0  0.22814586334E+02 -0.15245736261E+03  0.53744303993E+03  0.59116222303E+03  0.19200000000E+03 0.  0.
<mgrwt>
<rscale>  0 0.49332827E+03</rscale>
<asrwt>0</asrwt>
<pdfrwt beam="1">  1        2 0.17143049E+00 0.49332827E+03</pdfrwt>
<pdfrwt beam="2">  1       -2 0.72431567E-02 0.49332827E+03</pdfrwt>
<totfact> 0.24783956E+03</totfact>
</mgrwt>
</event>
<event>
 4    1  0.5847263E-005  0.7990620E+03  0.7818608E-02  0.9561376E-01
         -2   -1    0    0    0  501 -0.00000000000E+00  0.00000000000E+00  0.34543856855E+02  0.34543856949E+02  0.25500000000E-02 0. -1.
          2   -1    0    0  501    0  0.00000000000E+00 -0.00000000000E+00 -0.46209382362E+04  0.46209382362E+04  0.25500000000E-02 0.  1.
    5000001    1    1    2    0    0 -0.34143768902E+03  0.43521618148E+02 -0.19117177232E+04  0.19519227648E+04  0.19200000000E+03 0.  0.
   -5000001    1    1    2    0    0  0.34143768902E+03 -0.43521618148E+02 -0.26746766562E+04  0.27035593284E+04  0.19200000000E+03 0.  0.
<mgrwt>
<rscale>  0 0.79906202E+03</rscale>
<asrwt>0</asrwt>
<pdfrwt beam="1">  1        2 0.66013364E+00 0.79906202E+03</pdfrwt>
<pdfrwt beam="2">  1       -2 0.49348396E-02 0.79906202E+03</pdfrwt>
<totfact> 0.45209343E+01</totfact>
</mgrwt>
</event>
<event>
 4    1  0.5847263E-005  0.8750728E+03  0.7818608E-02  0.9457290E-01
         -2   -1    0    0    0  501 -0.00000000000E+00  0.00000000000E+00  0.97351957140E+02  0.97351957173E+02  0.25500000000E-02 0. -1.
          2   -1    0    0  501    0  0.00000000000E+00 -0.00000000000E+00 -0.19664534210E+04  0.19664534210E+04  0.25500000000E-02 0.  1.
    5000001    1    1    2    0    0  0.25729258128E+03  0.14086718506E+03 -0.15519530720E+04  0.15910579417E+04  0.19200000000E+03 0.  0.
   -5000001    1    1    2    0    0 -0.25729258128E+03 -0.14086718506E+03 -0.31714839182E+03  0.47274743642E+03  0.19200000000E+03 0.  0.
<mgrwt>
<rscale>  0 0.87507277E+03</rscale>
<asrwt>0</asrwt>
<pdfrwt beam="1">  1        2 0.28092189E+00 0.87507277E+03</pdfrwt>
<pdfrwt beam="2">  1       -2 0.13907424E-01 0.87507277E+03</pdfrwt>
<totfact> 0.33581059E+02</totfact>
</mgrwt>
</event>
<event>
 4    1  0.5847263E-005  0.5249904E+03  0.7818608E-02  0.1007454E+00
         -2   -1    0    0    0  501 -0.00000000000E+00  0.00000000000E+00  0.28210411952E+03  0.28210411954E+03  0.25500000000E-02 0. -1.
          2   -1    0    0  501    0  0.00000000000E+00 -0.00000000000E+00 -0.24424930017E+03  0.24424930018E+03  0.25500000000E-02 0.  1.
    5000001    1    1    2    0    0 -0.14009834770E+03  0.91503970748E+02  0.82647193848E+02  0.26775937396E+03  0.19200000000E+03 0.  0.
   -5000001    1    1    2    0    0  0.14009834770E+03 -0.91503970748E+02 -0.44792374494E+02  0.25859404576E+03  0.19200000000E+03 0.  0.
<mgrwt>
<rscale>  0 0.52499041E+03</rscale>
<asrwt>0</asrwt>
<pdfrwt beam="1">  1        2 0.34892757E-01 0.52499041E+03</pdfrwt>
<pdfrwt beam="2">  1       -2 0.40300589E-01 0.52499041E+03</pdfrwt>
<totfact> 0.87750325E+02</totfact>
</mgrwt>
</event>
<event>
 4    1  0.5847263E-005  0.7006442E+03  0.7818608E-02  0.9716131E-01
         -2   -1    0    0    0  501 -0.00000000000E+00  0.00000000000E+00  0.22425461189E+03  0.22425461191E+03  0.25500000000E-02 0. -1.
          2   -1    0    0  501    0  0.00000000000E+00 -0.00000000000E+00 -0.54726002911E+03  0.54726002912E+03  0.25500000000E-02 0.  1.
    5000001    1    1    2    0    0 -0.19683696515E+03  0.52714721415E+02  0.70361886351E+02  0.28868395826E+03  0.19200000000E+03 0.  0.
   -5000001    1    1    2    0    0  0.19683696515E+03 -0.52714721415E+02 -0.39336730357E+03  0.48283068277E+03  0.19200000000E+03 0.  0.
<mgrwt>
<rscale>  0 0.70064423E+03</rscale>
<asrwt>0</asrwt>
<pdfrwt beam="1">  1        2 0.78180004E-01 0.70064423E+03</pdfrwt>
<pdfrwt beam="2">  1       -2 0.32036373E-01 0.70064423E+03</pdfrwt>
<totfact> 0.55072767E+02</totfact>
</mgrwt>
</event>
<event>
 4    1  0.5847263E-005  0.5542067E+03  0.7818608E-02  0.1000525E+00
         -2   -1    0    0    0  501 -0.00000000000E+00  0.00000000000E+00  0.97440033019E+02  0.97440033053E+02  0.25500000000E-02 0. -1.
          2   -1    0    0  501    0  0.00000000000E+00 -0.00000000000E+00 -0.78803620078E+03  0.78803620078E+03  0.25500000000E-02 0.  1.
    5000001    1    1    2    0    0 -0.60816827872E+02  0.16178373549E+03 -0.18512862137E+03  0.31781955584E+03  0.19200000000E+03 0.  0.
   -5000001    1    1    2    0    0  0.60816827872E+02 -0.16178373549E+03 -0.50546754639E+03  0.56765667800E+03  0.19200000000E+03 0.  0.
<mgrwt>
<rscale>  0 0.55420672E+03</rscale>
<asrwt>0</asrwt>
<pdfrwt beam="1">  1        2 0.11257660E+00 0.55420672E+03</pdfrwt>
<pdfrwt beam="2">  1       -2 0.13920005E-01 0.55420672E+03</pdfrwt>
<totfact> 0.15417043E+03</totfact>
</mgrwt>
</event>
<event>
 4    1  0.5847263E-005  0.8315975E+03  0.7818608E-02  0.9515375E-01
          2   -1    0    0  501    0  0.00000000000E+00  0.00000000000E+00  0.22836684822E+04  0.22836684822E+04  0.25500000000E-02 0.  1.
         -2   -1    0    0    0  501 -0.00000000000E+00 -0.00000000000E+00 -0.75706520671E+02  0.75706520714E+02  0.25500000000E-02 0. -1.
    5000001    1    1    2    0    0  0.16227587455E+03 -0.32744444483E+03  0.12450215389E+04  0.13116767728E+04  0.19200000000E+03 0.  0.
   -5000001    1    1    2    0    0 -0.16227587455E+03  0.32744444483E+03  0.96294042264E+03  0.10476982302E+04  0.19200000000E+03 0.  0.
<mgrwt>
<rscale>  0 0.83159749E+03</rscale>
<asrwt>0</asrwt>
<pdfrwt beam="1">  1        2 0.32623843E+00 0.83159749E+03</pdfrwt>
<pdfrwt beam="2">  1       -2 0.10815215E-01 0.83159749E+03</pdfrwt>
<totfact> 0.35266662E+02</totfact>
</mgrwt>
</event>
<event>
 4    1  0.5847263E-005  0.7231010E+03  0.7818608E-02  0.9678522E-01
          2   -1    0    0  501    0  0.00000000000E+00  0.00000000000E+00  0.62931308196E+03  0.62931308197E+03  0.25500000000E-02 0.  1.
         -2   -1    0    0    0  501 -0.00000000000E+00 -0.00000000000E+00 -0.20771658860E+03  0.20771658861E+03  0.25500000000E-02 0. -1.
    5000001    1    1    2    0    0 -0.24551326625E+03  0.17717550427E+03  0.15666666433E+03  0.39124975007E+03  0.19200000000E+03 0.  0.
   -5000001    1    1    2    0    0  0.24551326625E+03 -0.17717550427E+03  0.26492982904E+03  0.44577992051E+03  0.19200000000E+03 0.  0.
<mgrwt>
<rscale>  0 0.72310101E+03</rscale>
<asrwt>0</asrwt>
<pdfrwt beam="1">  1        2 0.89901869E-01 0.72310101E+03</pdfrwt>
<pdfrwt beam="2">  1       -2 0.29673798E-01 0.72310101E+03</pdfrwt>
<totfact> 0.53844970E+02</totfact>
</mgrwt>
</event>
<event>
 4    1  0.5847263E-005  0.5239556E+03  0.7818608E-02  0.1007709E+00
         -2   -1    0    0    0  501 -0.00000000000E+00  0.00000000000E+00  0.30180177773E+02  0.30180177881E+02  0.25500000000E-02 0.  1.
          2   -1    0    0  501    0  0.00000000000E+00 -0.00000000000E+00 -0.22740875665E+04  0.22740875665E+04  0.25500000000E-02 0. -1.
    5000001    1    1    2    0    0  0.14884442483E+03  0.59315330417E+02 -0.14653055637E+04  0.14864916300E+04  0.19200000000E+03 0.  0.
   -5000001    1    1    2    0    0 -0.14884442483E+03 -0.59315330417E+02 -0.77860182508E+03  0.81777611438E+03  0.19200000000E+03 0.  0.
<mgrwt>
<rscale>  0 0.52395560E+03</rscale>
<asrwt>0</asrwt>
<pdfrwt beam="1">  1        2 0.32486954E+00 0.52395560E+03</pdfrwt>
<pdfrwt beam="2">  1       -2 0.43114554E-02 0.52395560E+03</pdfrwt>
<totfact> 0.15625163E+03</totfact>
</mgrwt>
</event>
<event>
 4    1  0.5847263E-005  0.4589878E+03  0.7818608E-02  0.1025075E+00
          2   -1    0    0  501    0  0.00000000000E+00  0.00000000000E+00  0.17825931662E+04  0.17825931662E+04  0.25500000000E-02 0.  1.
         -2   -1    0    0    0  501 -0.00000000000E+00 -0.00000000000E+00 -0.29545405981E+02  0.29545406091E+02  0.25500000000E-02 0. -1.
    5000001    1    1    2    0    0  0.12518252434E+03  0.10841913555E+02  0.89193035513E+03  0.92097338175E+03  0.19200000000E+03 0.  0.
   -5000001    1    1    2    0    0 -0.12518252434E+03 -0.10841913555E+02  0.86111740512E+03  0.89116519058E+03  0.19200000000E+03 0.  0.
<mgrwt>
<rscale>  0 0.45898775E+03</rscale>
<asrwt>0</asrwt>
<pdfrwt beam="1">  1        2 0.25465624E+00 0.45898775E+03</pdfrwt>
<pdfrwt beam="2">  1       -2 0.42207711E-02 0.45898775E+03</pdfrwt>
<totfact> 0.28491923E+03</totfact>
</mgrwt>
</event>
<event>
 4    1  0.5847263E-005  0.5603285E+03  0.7818608E-02  0.9991312E-01
         -2   -1    0    0    0  501 -0.00000000000E+00  0.00000000000E+00  0.52937391151E+02  0.52937391212E+02  0.25500000000E-02 0. -1.
          2   -1    0    0  501    0  0.00000000000E+00 -0.00000000000E+00 -0.14827325865E+04  0.14827325865E+04  0.25500000000E-02 0.  1.
    5000001    1    1    2    0    0 -0.56183958135E+02 -0.15692179147E+03 -0.10373990214E+04  0.10681019687E+04  0.19200000000E+03 0.  0.
   -5000001    1    1    2    0    0  0.56183958135E+02  0.15692179147E+03 -0.39239617395E+03  0.46756800908E+03  0.19200000000E+03 0.  0.
<mgrwt>
<rscale>  0 0.56032846E+03</rscale>
<asrwt>0</asrwt>
<pdfrwt beam="1">  1        2 0.21181891E+00 0.56032846E+03</pdfrwt>
<pdfrwt beam="2">  1       -2 0.75624854E-02 0.56032846E+03</pdfrwt>
<totfact> 0.16302691E+03</totfact>
</mgrwt>
</event>
<event>
 4    1  0.5847263E-005  0.5284728E+03  0.7818608E-02  0.1006603E+00
          2   -1    0    0  501    0  0.00000000000E+00  0.00000000000E+00  0.10070934897E+04  0.10070934897E+04  0.25500000000E-02 0.  1.
         -2   -1    0    0    0  501 -0.00000000000E+00 -0.00000000000E+00 -0.69329084796E+02  0.69329084843E+02  0.25500000000E-02 0. -1.
    5000001    1    1    2    0    0  0.87848481885E+01 -0.17323318015E+03  0.57800066161E+03  0.63327377419E+03  0.19200000000E+03 0.  0.
   -5000001    1    1    2    0    0 -0.87848481885E+01  0.17323318015E+03  0.35976374328E+03  0.44314880034E+03  0.19200000000E+03 0.  0.
<mgrwt>
<rscale>  0 0.52847278E+03</rscale>
<asrwt>0</asrwt>
<pdfrwt beam="1">  1        2 0.14387049E+00 0.52847278E+03</pdfrwt>
<pdfrwt beam="2">  1       -2 0.99041553E-02 0.52847278E+03</pdfrwt>
<totfact> 0.19448838E+03</totfact>
</mgrwt>
</event>
<event>
 4    1  0.5847263E-005  0.6158038E+03  0.7818608E-02  0.9873150E-01
         -2   -1    0    0    0  501 -0.00000000000E+00  0.00000000000E+00  0.86929973098E+02  0.86929973136E+02  0.25500000000E-02 0. -1.
          2   -1    0    0  501    0  0.00000000000E+00 -0.00000000000E+00 -0.10905739621E+04  0.10905739621E+04  0.25500000000E-02 0.  1.
    5000001    1    1    2    0    0  0.21801467081E+03 -0.99381129935E+02 -0.54594896582E+03  0.62636353578E+03  0.19200000000E+03 0.  0.
   -5000001    1    1    2    0    0 -0.21801467081E+03  0.99381129935E+02 -0.45769502322E+03  0.55114039950E+03  0.19200000000E+03 0.  0.
<mgrwt>
<rscale>  0 0.61580375E+03</rscale>
<asrwt>0</asrwt>
<pdfrwt beam="1">  1        2 0.15579627E+00 0.61580375E+03</pdfrwt>
<pdfrwt beam="2">  1       -2 0.12418568E-01 0.61580375E+03</pdfrwt>
<totfact> 0.11971938E+03</totfact>
</mgrwt>
</event>
<event>
 4    1  0.5847263E-005  0.4726194E+03  0.7818608E-02  0.1021184E+00
          2   -1    0    0  501    0  0.00000000000E+00  0.00000000000E+00  0.93442270778E+03  0.93442270779E+03  0.25500000000E-02 0.  1.
         -2   -1    0    0    0  501 -0.00000000000E+00 -0.00000000000E+00 -0.59761247905E+02  0.59761247960E+02  0.25500000000E-02 0. -1.
    5000001    1    1    2    0    0  0.67159414223E+02  0.10834746051E+03  0.32744690569E+03  0.40041857495E+03  0.19200000000E+03 0.  0.
   -5000001    1    1    2    0    0 -0.67159414223E+02 -0.10834746051E+03  0.54721455419E+03  0.59376538080E+03  0.19200000000E+03 0.  0.
<mgrwt>
<rscale>  0 0.47261937E+03</rscale>
<asrwt>0</asrwt>
<pdfrwt beam="1">  1        2 0.13348895E+00 0.47261937E+03</pdfrwt>
<pdfrwt beam="2">  1       -2 0.85373215E-02 0.47261937E+03</pdfrwt>
<totfact> 0.27354697E+03</totfact>
</mgrwt>
</event>
<event>
 4    1  0.5847263E-005  0.1059259E+04  0.7818608E-02  0.9245836E-01
          2   -1    0    0  501    0  0.00000000000E+00  0.00000000000E+00  0.13125394041E+04  0.13125394041E+04  0.25500000000E-02 0.  1.
         -2   -1    0    0    0  501 -0.00000000000E+00 -0.00000000000E+00 -0.21371354823E+03  0.21371354825E+03  0.25500000000E-02 0. -1.
    5000001    1    1    2    0    0  0.26215650258E+03 -0.40837089029E+03  0.41933005959E+03  0.66947331146E+03  0.19200000000E+03 0.  0.
   -5000001    1    1    2    0    0 -0.26215650258E+03  0.40837089029E+03  0.67949579630E+03  0.85677964091E+03  0.19200000000E+03 0.  0.
<mgrwt>
<rscale>  0 0.10592591E+04</rscale>
<asrwt>0</asrwt>
<pdfrwt beam="1">  1        2 0.18750563E+00 0.10592591E+04</pdfrwt>
<pdfrwt beam="2">  1       -2 0.30530507E-01 0.10592591E+04</pdfrwt>
<totfact> 0.18205117E+02</totfact>
</mgrwt>
</event>
<event>
 4    1  0.5847263E-005  0.6585063E+03  0.7818608E-02  0.9790947E-01
          2   -1    0    0  501    0  0.00000000000E+00  0.00000000000E+00  0.16428106295E+04  0.16428106295E+04  0.25500000000E-02 0. -1.
         -2   -1    0    0    0  501 -0.00000000000E+00 -0.00000000000E+00 -0.65989122678E+02  0.65989122727E+02  0.25500000000E-02 0.  1.
    5000001    1    1    2    0    0 -0.25585486015E+03 -0.70526538209E+01  0.98995411362E+03  0.10403771415E+04  0.19200000000E+03 0.  0.
   -5000001    1    1    2    0    0  0.25585486015E+03  0.70526538209E+01  0.58686739316E+03  0.66842261073E+03  0.19200000000E+03 0.  0.
<mgrwt>
<rscale>  0 0.65850629E+03</rscale>
<asrwt>0</asrwt>
<pdfrwt beam="1">  1        2 0.23468726E+00 0.65850629E+03</pdfrwt>
<pdfrwt beam="2">  1       -2 0.94270164E-02 0.65850629E+03</pdfrwt>
<totfact> 0.94333819E+02</totfact>
</mgrwt>
</event>
<event>
 4    1  0.5847263E-005  0.7088110E+03  0.7818608E-02  0.9702282E-01
          2   -1    0    0  501    0  0.00000000000E+00  0.00000000000E+00  0.14555903017E+04  0.14555903017E+04  0.25500000000E-02 0.  1.
         -2   -1    0    0    0  501 -0.00000000000E+00 -0.00000000000E+00 -0.86290256386E+02  0.86290256424E+02  0.25500000000E-02 0. -1.
    5000001    1    1    2    0    0  0.59536012271E+02 -0.10411370088E+03  0.12778150633E+04  0.12977131947E+04  0.19200000000E+03 0.  0.
   -5000001    1    1    2    0    0 -0.59536012271E+02  0.10411370088E+03  0.91484981996E+02  0.24416736350E+03  0.19200000000E+03 0.  0.
<mgrwt>
<rscale>  0 0.70881101E+03</rscale>
<asrwt>0</asrwt>
<pdfrwt beam="1">  1        2 0.20794148E+00 0.70881101E+03</pdfrwt>
<pdfrwt beam="2">  1       -2 0.12327179E-01 0.70881101E+03</pdfrwt>
<totfact> 0.75949134E+02</totfact>
</mgrwt>
</event>
<event>
 4    1  0.5847263E-005  0.5116433E+03  0.7818608E-02  0.1010784E+00
          2   -1    0    0  501    0  0.00000000000E+00  0.00000000000E+00  0.85052551006E+03  0.85052551006E+03  0.25500000000E-02 0.  1.
         -2   -1    0    0    0  501 -0.00000000000E+00 -0.00000000000E+00 -0.76946205665E+02  0.76946205707E+02  0.25500000000E-02 0. -1.
    5000001    1    1    2    0    0 -0.11243351901E+03  0.11714636763E+03  0.30145364641E+03  0.39255938223E+03  0.19200000000E+03 0.  0.
   -5000001    1    1    2    0    0  0.11243351901E+03 -0.11714636763E+03  0.47212565798E+03  0.53491233354E+03  0.19200000000E+03 0.  0.
<mgrwt>
<rscale>  0 0.51164328E+03</rscale>
<asrwt>0</asrwt>
<pdfrwt beam="1">  1        2 0.12150364E+00 0.51164328E+03</pdfrwt>
<pdfrwt beam="2">  1       -2 0.10992316E-01 0.51164328E+03</pdfrwt>
<totfact> 0.20628129E+03</totfact>
</mgrwt>
</event>
<event>
 4    1  0.5847263E-005  0.4258489E+03  0.7818608E-02  0.1035179E+00
          2   -1    0    0  501    0  0.00000000000E+00  0.00000000000E+00  0.93821647208E+03  0.93821647209E+03  0.25500000000E-02 0.  1.
         -2   -1    0    0    0  501 -0.00000000000E+00 -0.00000000000E+00 -0.48322336464E+02  0.48322336531E+02  0.25500000000E-02 0. -1.
    5000001    1    1    2    0    0 -0.27748528517E+02  0.64349170239E+02  0.58321026443E+03  0.61798787131E+03  0.19200000000E+03 0.  0.
   -5000001    1    1    2    0    0  0.27748528517E+02 -0.64349170239E+02  0.30668387119E+03  0.36855093731E+03  0.19200000000E+03 0.  0.
<mgrwt>
<rscale>  0 0.42584886E+03</rscale>
<asrwt>0</asrwt>
<pdfrwt beam="1">  1        2 0.13403092E+00 0.42584886E+03</pdfrwt>
<pdfrwt beam="2">  1       -2 0.69031914E-02 0.42584886E+03</pdfrwt>
<totfact> 0.38021585E+03</totfact>
</mgrwt>
</event>
<event>
 4    1  0.5847263E-005  0.5558943E+03  0.7818608E-02  0.1000139E+00
          2   -1    0    0  501    0  0.00000000000E+00  0.00000000000E+00  0.15023721367E+03  0.15023721370E+03  0.25500000000E-02 0.  1.
         -2   -1    0    0    0  501 -0.00000000000E+00 -0.00000000000E+00 -0.51421761309E+03  0.51421761310E+03  0.25500000000E-02 0. -1.
    5000001    1    1    2    0    0 -0.18855278683E+03 -0.36077797563E+02 -0.25307589204E+03  0.37116730463E+03  0.19200000000E+03 0.  0.
   -5000001    1    1    2    0    0  0.18855278683E+03  0.36077797563E+02 -0.11090450738E+03  0.29328752216E+03  0.19200000000E+03 0.  0.
<mgrwt>
<rscale>  0 0.55589431E+03</rscale>
<asrwt>0</asrwt>
<pdfrwt beam="1">  1        2 0.21462459E-01 0.55589431E+03</pdfrwt>
<pdfrwt beam="2">  1       -2 0.73459658E-01 0.55589431E+03</pdfrwt>
<totfact> 0.44137862E+02</totfact>
</mgrwt>
</event>
<event>
 4    1  0.5847263E-005  0.8060244E+03  0.7818608E-02  0.9551338E-01
         -2   -1    0    0    0  501 -0.00000000000E+00  0.00000000000E+00  0.53003619048E+02  0.53003619110E+02  0.25500000000E-02 0. -1.
          2   -1    0    0  501    0  0.00000000000E+00 -0.00000000000E+00 -0.30642970940E+04  0.30642970940E+04  0.25500000000E-02 0.  1.
    5000001    1    1    2    0    0 -0.24433570287E+02 -0.27139207225E+03 -0.23816523334E+04  0.24048664191E+04  0.19200000000E+03 0.  0.
   -5000001    1    1    2    0    0  0.24433570287E+02  0.27139207225E+03 -0.62964114155E+03  0.71243429407E+03  0.19200000000E+03 0.  0.
<mgrwt>
<rscale>  0 0.80602441E+03</rscale>
<asrwt>0</asrwt>
<pdfrwt beam="1">  1        2 0.43775662E+00 0.80602441E+03</pdfrwt>
<pdfrwt beam="2">  1       -2 0.75719475E-02 0.80602441E+03</pdfrwt>
<totfact> 0.24332704E+02</totfact>
</mgrwt>
</event>
<event>
 4    1  0.5847263E-005  0.7213521E+03  0.7818608E-02  0.9681398E-01
         -2   -1    0    0    0  501 -0.00000000000E+00  0.00000000000E+00  0.15532636773E+03  0.15532636775E+03  0.25500000000E-02 0. -1.
          2   -1    0    0  501    0  0.00000000000E+00 -0.00000000000E+00 -0.83750897188E+03  0.83750897188E+03  0.25500000000E-02 0.  1.
    5000001    1    1    2    0    0 -0.86813398285E+02 -0.28004149861E+03 -0.22379063879E+03  0.41581974109E+03  0.19200000000E+03 0.  0.
   -5000001    1    1    2    0    0  0.86813398285E+02  0.28004149861E+03 -0.45839196535E+03  0.57701559855E+03  0.19200000000E+03 0.  0.
<mgrwt>
<rscale>  0 0.72135214E+03</rscale>
<asrwt>0</asrwt>
<pdfrwt beam="1">  1        2 0.11964414E+00 0.72135214E+03</pdfrwt>
<pdfrwt beam="2">  1       -2 0.22189482E-01 0.72135214E+03</pdfrwt>
<totfact> 0.63792511E+02</totfact>
</mgrwt>
</event>
<event>
 4    1  0.5847263E-005  0.4846197E+03  0.7818608E-02  0.1017873E+00
         -2   -1    0    0    0  501 -0.00000000000E+00  0.00000000000E+00  0.48215001776E+02  0.48215001844E+02  0.25500000000E-02 0. -1.
          2   -1    0    0  501    0  0.00000000000E+00 -0.00000000000E+00 -0.12177552185E+04  0.12177552185E+04  0.25500000000E-02 0.  1.
    5000001    1    1    2    0    0 -0.94857937659E+02  0.11230442255E+03 -0.62521925130E+03  0.67035320828E+03  0.19200000000E+03 0.  0.
   -5000001    1    1    2    0    0  0.94857937659E+02 -0.11230442255E+03 -0.54432096544E+03  0.59561701208E+03  0.19200000000E+03 0.  0.
<mgrwt>
<rscale>  0 0.48461973E+03</rscale>
<asrwt>0</asrwt>
<pdfrwt beam="1">  1        2 0.17396501E+00 0.48461973E+03</pdfrwt>
<pdfrwt beam="2">  1       -2 0.68878582E-02 0.48461973E+03</pdfrwt>
<totfact> 0.26225791E+03</totfact>
</mgrwt>
</event>
<event>
 4    1  0.5847263E-005  0.5151250E+03  0.7818608E-02  0.1009905E+00
          2   -1    0    0  501    0  0.00000000000E+00  0.00000000000E+00  0.29591944790E+04  0.29591944790E+04  0.25500000000E-02 0.  1.
         -2   -1    0    0    0  501 -0.00000000000E+00 -0.00000000000E+00 -0.22417735169E+02  0.22417735314E+02  0.25500000000E-02 0. -1.
    5000001    1    1    2    0    0 -0.13153692423E+03  0.10533088282E+03  0.16584191556E+04  0.16779793363E+04  0.19200000000E+03 0.  0.
   -5000001    1    1    2    0    0  0.13153692423E+03 -0.10533088282E+03  0.12783575882E+04  0.13036328780E+04  0.19200000000E+03 0.  0.
<mgrwt>
<rscale>  0 0.51512499E+03</rscale>
<asrwt>0</asrwt>
<pdfrwt beam="1">  1        2 0.42274223E+00 0.51512499E+03</pdfrwt>
<pdfrwt beam="2">  1       -2 0.32025324E-02 0.51512499E+03</pdfrwt>
<totfact> 0.10878188E+03</totfact>
</mgrwt>
</event>
<event>
 4    1  0.5847263E-005  0.9492982E+03  0.7818608E-02  0.9365971E-01
          2   -1    0    0  501    0  0.00000000000E+00  0.00000000000E+00  0.10660809971E+04  0.10660809971E+04  0.25500000000E-02 0.  1.
         -2   -1    0    0    0  501 -0.00000000000E+00 -0.00000000000E+00 -0.21132708643E+03  0.21132708644E+03  0.25500000000E-02 0. -1.
    5000001    1    1    2    0    0  0.27092308868E+03  0.27878615820E+03  0.68728557537E+03  0.81261707101E+03  0.19200000000E+03 0.  0.
   -5000001    1    1    2    0    0 -0.27092308868E+03 -0.27878615820E+03  0.16746833526E+03  0.46479101250E+03  0.19200000000E+03 0.  0.
<mgrwt>
<rscale>  0 0.94929825E+03</rscale>
<asrwt>0</asrwt>
<pdfrwt beam="1">  1        2 0.15229729E+00 0.94929825E+03</pdfrwt>
<pdfrwt beam="2">  1       -2 0.30189583E-01 0.94929825E+03</pdfrwt>
<totfact> 0.25880758E+02</totfact>
</mgrwt>
</event>
<event>
 4    1  0.5847263E-005  0.4141119E+03  0.7818608E-02  0.1039000E+00
         -2   -1    0    0    0  501 -0.00000000000E+00  0.00000000000E+00  0.69245066676E+02  0.69245066723E+02  0.25500000000E-02 0. -1.
          2   -1    0    0  501    0  0.00000000000E+00 -0.00000000000E+00 -0.61913691010E+03  0.61913691011E+03  0.25500000000E-02 0.  1.
    5000001    1    1    2    0    0  0.15035045630E+02 -0.70144970727E+02 -0.32374557862E+03  0.38317302775E+03  0.19200000000E+03 0.  0.
   -5000001    1    1    2    0    0 -0.15035045630E+02  0.70144970727E+02 -0.22614626480E+03  0.30520894908E+03  0.19200000000E+03 0.  0.
<mgrwt>
<rscale>  0 0.41411195E+03</rscale>
<asrwt>0</asrwt>
<pdfrwt beam="1">  1        2 0.88448127E-01 0.41411195E+03</pdfrwt>
<pdfrwt beam="2">  1       -2 0.98921528E-02 0.41411195E+03</pdfrwt>
<totfact> 0.36070954E+03</totfact>
</mgrwt>
</event>
<event>
 4    1  0.5847263E-005  0.4171689E+03  0.7818608E-02  0.1037992E+00
          2   -1    0    0  501    0  0.00000000000E+00  0.00000000000E+00  0.15693273861E+04  0.15693273861E+04  0.25500000000E-02 0.  1.
         -2   -1    0    0    0  501 -0.00000000000E+00 -0.00000000000E+00 -0.27723644038E+02  0.27723644156E+02  0.25500000000E-02 0. -1.
    5000001    1    1    2    0    0 -0.57823010946E+02 -0.36149654287E+02  0.59988707180E+03  0.63354462907E+03  0.19200000000E+03 0.  0.
   -5000001    1    1    2    0    0  0.57823010946E+02  0.36149654287E+02  0.94171667030E+03  0.96350640124E+03  0.19200000000E+03 0.  0.
<mgrwt>
<rscale>  0 0.41716891E+03</rscale>
<asrwt>0</asrwt>
<pdfrwt beam="1">  1        2 0.22418972E+00 0.41716891E+03</pdfrwt>
<pdfrwt beam="2">  1       -2 0.39605190E-02 0.41716891E+03</pdfrwt>
<totfact> 0.40235433E+03</totfact>
</mgrwt>
</event>
<event>
 4    1  0.5847263E-005  0.9534210E+03  0.7818608E-02  0.9361161E-01
         -2   -1    0    0    0  501 -0.00000000000E+00  0.00000000000E+00  0.67362226877E+02  0.67362226925E+02  0.25500000000E-02 0. -1.
          2   -1    0    0  501    0  0.00000000000E+00 -0.00000000000E+00 -0.33735950768E+04  0.33735950768E+04  0.25500000000E-02 0.  1.
    5000001    1    1    2    0    0  0.82712827988E+02 -0.35837101210E+03 -0.25004220092E+04  0.25346095199E+04  0.19200000000E+03 0.  0.
   -5000001    1    1    2    0    0 -0.82712827988E+02  0.35837101210E+03 -0.80581084067E+03  0.90634778378E+03  0.19200000000E+03 0.  0.
<mgrwt>
<rscale>  0 0.95342095E+03</rscale>
<asrwt>0</asrwt>
<pdfrwt beam="1">  1        2 0.48194205E+00 0.95342095E+03</pdfrwt>
<pdfrwt beam="2">  1       -2 0.96231774E-02 0.95342095E+03</pdfrwt>
<totfact> 0.10855505E+02</totfact>
</mgrwt>
</event>
<event>
 4    1  0.5847263E-005  0.6118055E+03  0.7818608E-02  0.9881212E-01
          2   -1    0    0  501    0  0.00000000000E+00  0.00000000000E+00  0.79944669916E+03  0.79944669917E+03  0.25500000000E-02 0.  1.
         -2   -1    0    0    0  501 -0.00000000000E+00 -0.00000000000E+00 -0.11705155705E+03  0.11705155708E+03  0.25500000000E-02 0. -1.
    5000001    1    1    2    0    0  0.20271653988E+03  0.93870094591E+02  0.21760491017E+03  0.36622600554E+03  0.19200000000E+03 0.  0.
   -5000001    1    1    2    0    0 -0.20271653988E+03 -0.93870094591E+02  0.46479023194E+03  0.55027225071E+03  0.19200000000E+03 0.  0.
<mgrwt>
<rscale>  0 0.61180546E+03</rscale>
<asrwt>0</asrwt>
<pdfrwt beam="1">  1        2 0.11420667E+00 0.61180546E+03</pdfrwt>
<pdfrwt beam="2">  1       -2 0.16721651E-01 0.61180546E+03</pdfrwt>
<totfact> 0.11104315E+03</totfact>
</mgrwt>
</event>
<event>
 4    1  0.5847263E-005  0.8680264E+03  0.7818608E-02  0.9466457E-01
          2   -1    0    0  501    0  0.00000000000E+00  0.00000000000E+00  0.23768648528E+04  0.23768648528E+04  0.25500000000E-02 0.  1.
         -2   -1    0    0    0  501 -0.00000000000E+00 -0.00000000000E+00 -0.79250388916E+02  0.79250388957E+02  0.25500000000E-02 0. -1.
    5000001    1    1    2    0    0  0.18587146085E+03  0.33687157182E+03  0.98206093546E+03  0.10720719830E+04  0.19200000000E+03 0.  0.
   -5000001    1    1    2    0    0 -0.18587146085E+03 -0.33687157182E+03  0.13155535284E+04  0.13840432587E+04  0.19200000000E+03 0.  0.
<mgrwt>
<rscale>  0 0.86802641E+03</rscale>
<asrwt>0</asrwt>
<pdfrwt beam="1">  1        2 0.33955212E+00 0.86802641E+03</pdfrwt>
<pdfrwt beam="2">  1       -2 0.11321484E-01 0.86802641E+03</pdfrwt>
<totfact> 0.29222671E+02</totfact>
</mgrwt>
</event>
<event>
 4    1  0.5847263E-005  0.5654895E+03  0.7818608E-02  0.9979710E-01
          2   -1    0    0  501    0  0.00000000000E+00  0.00000000000E+00  0.28443903102E+04  0.28443903102E+04  0.25500000000E-02 0.  1.
         -2   -1    0    0    0  501 -0.00000000000E+00 -0.00000000000E+00 -0.28106051578E+02  0.28106051694E+02  0.25500000000E-02 0. -1.
    5000001    1    1    2    0    0  0.98605363124E+02 -0.12646087896E+03  0.73875865135E+03  0.77996391999E+03  0.19200000000E+03 0.  0.
   -5000001    1    1    2    0    0 -0.98605363124E+02  0.12646087896E+03  0.20775256073E+04  0.20925324419E+04  0.19200000000E+03 0.  0.
<mgrwt>
<rscale>  0 0.56548946E+03</rscale>
<asrwt>0</asrwt>
<pdfrwt beam="1">  1        2 0.40634134E+00 0.56548946E+03</pdfrwt>
<pdfrwt beam="2">  1       -2 0.40151515E-02 0.56548946E+03</pdfrwt>
<totfact> 0.88336425E+02</totfact>
</mgrwt>
</event>
<event>
 4    1  0.5847263E-005  0.4312982E+03  0.7818608E-02  0.1033451E+00
          2   -1    0    0  501    0  0.00000000000E+00  0.00000000000E+00  0.11862003185E+04  0.11862003185E+04  0.25500000000E-02 0.  1.
         -2   -1    0    0    0  501 -0.00000000000E+00 -0.00000000000E+00 -0.39204620807E+02  0.39204620890E+02  0.25500000000E-02 0. -1.
    5000001    1    1    2    0    0  0.58668844952E+02 -0.70096643418E+02  0.47165115178E+03  0.51737257538E+03  0.19200000000E+03 0.  0.
   -5000001    1    1    2    0    0 -0.58668844952E+02  0.70096643418E+02  0.67534454593E+03  0.70803236402E+03  0.19200000000E+03 0.  0.
<mgrwt>
<rscale>  0 0.43129820E+03</rscale>
<asrwt>0</asrwt>
<pdfrwt beam="1">  1        2 0.16945719E+00 0.43129820E+03</pdfrwt>
<pdfrwt beam="2">  1       -2 0.56006600E-02 0.43129820E+03</pdfrwt>
<totfact> 0.37689693E+03</totfact>
</mgrwt>
</event>
<event>
 4    1  0.5847263E-005  0.4201141E+03  0.7818608E-02  0.1037029E+00
          2   -1    0    0  501    0  0.00000000000E+00  0.00000000000E+00  0.42566067800E+04  0.42566067800E+04  0.25500000000E-02 0.  1.
         -2   -1    0    0    0  501 -0.00000000000E+00 -0.00000000000E+00 -0.10365993187E+02  0.10365993500E+02  0.25500000000E-02 0. -1.
    5000001    1    1    2    0    0  0.21731995357E+02  0.74901062188E+02  0.17745947562E+04  0.17866541348E+04  0.19200000000E+03 0.  0.
   -5000001    1    1    2    0    0 -0.21731995357E+02 -0.74901062188E+02  0.24716460306E+04  0.24803186387E+04  0.19200000000E+03 0.  0.
<mgrwt>
<rscale>  0 0.42011407E+03</rscale>
<asrwt>0</asrwt>
<pdfrwt beam="1">  1        2 0.60808735E+00 0.42011407E+03</pdfrwt>
<pdfrwt beam="2">  1       -2 0.14808546E-02 0.42011407E+03</pdfrwt>
<totfact> 0.56539829E+02</totfact>
</mgrwt>
</event>
<event>
 4    1  0.5847263E-005  0.5720398E+03  0.7818608E-02  0.9965175E-01
         -2   -1    0    0    0  501 -0.00000000000E+00  0.00000000000E+00  0.90209934367E+02  0.90209934403E+02  0.25500000000E-02 0. -1.
          2   -1    0    0  501    0  0.00000000000E+00 -0.00000000000E+00 -0.90685552226E+03  0.90685552226E+03  0.25500000000E-02 0.  1.
    5000001    1    1    2    0    0 -0.19264166445E+03  0.55381825019E+02 -0.28799996897E+03  0.39998242405E+03  0.19200000000E+03 0.  0.
   -5000001    1    1    2    0    0  0.19264166445E+03 -0.55381825019E+02 -0.52864561892E+03  0.59708303261E+03  0.19200000000E+03 0.  0.
<mgrwt>
<rscale>  0 0.57203978E+03</rscale>
<asrwt>0</asrwt>
<pdfrwt beam="1">  1        2 0.12955078E+00 0.57203978E+03</pdfrwt>
<pdfrwt beam="2">  1       -2 0.12887134E-01 0.57203978E+03</pdfrwt>
<totfact> 0.14593135E+03</totfact>
</mgrwt>
</event>
<event>
 4    1  0.5847263E-005  0.5745201E+03  0.7818608E-02  0.9959726E-01
         -2   -1    0    0    0  501 -0.00000000000E+00  0.00000000000E+00  0.66764739219E+02  0.66764739268E+02  0.25500000000E-02 0. -1.
          2   -1    0    0  501    0  0.00000000000E+00 -0.00000000000E+00 -0.12359567090E+04  0.12359567090E+04  0.25500000000E-02 0.  1.
    5000001    1    1    2    0    0  0.20061041318E+03  0.71985131091E+02 -0.61882918545E+03  0.68208500771E+03  0.19200000000E+03 0.  0.
   -5000001    1    1    2    0    0 -0.20061041318E+03 -0.71985131091E+02 -0.55036278431E+03  0.62063644054E+03  0.19200000000E+03 0.  0.
<mgrwt>
<rscale>  0 0.57452007E+03</rscale>
<asrwt>0</asrwt>
<pdfrwt beam="1">  1        2 0.17656523E+00 0.57452007E+03</pdfrwt>
<pdfrwt beam="2">  1       -2 0.95378206E-02 0.57452007E+03</pdfrwt>
<totfact> 0.15244794E+03</totfact>
</mgrwt>
</event>
<event>
 4    1  0.5847263E-005  0.6440399E+03  0.7818608E-02  0.9818028E-01
          2   -1    0    0  501    0  0.00000000000E+00  0.00000000000E+00  0.10936450434E+04  0.10936450434E+04  0.25500000000E-02 0.  1.
         -2   -1    0    0    0  501 -0.00000000000E+00 -0.00000000000E+00 -0.94817642474E+02  0.94817642509E+02  0.25500000000E-02 0. -1.
    5000001    1    1    2    0    0  0.21336571260E+03 -0.85785724428E+02  0.28147213306E+03  0.41106529837E+03  0.19200000000E+03 0.  0.
   -5000001    1    1    2    0    0 -0.21336571260E+03  0.85785724428E+02  0.71735526786E+03  0.77739738754E+03  0.19200000000E+03 0.  0.
<mgrwt>
<rscale>  0 0.64403989E+03</rscale>
<asrwt>0</asrwt>
<pdfrwt beam="1">  1        2 0.15623500E+00 0.64403989E+03</pdfrwt>
<pdfrwt beam="2">  1       -2 0.13545378E-01 0.64403989E+03</pdfrwt>
<totfact> 0.10313574E+03</totfact>
</mgrwt>
</event>
<event>
 4    1  0.5847263E-005  0.4176354E+03  0.7818608E-02  0.1037839E+00
         -2   -1    0    0    0  501 -0.00000000000E+00  0.00000000000E+00  0.41482668518E+02  0.41482668596E+02  0.25500000000E-02 0. -1.
          2   -1    0    0  501    0  0.00000000000E+00 -0.00000000000E+00 -0.10511575947E+04  0.10511575947E+04  0.25500000000E-02 0.  1.
    5000001    1    1    2    0    0 -0.47038211882E+02 -0.62162026142E+02 -0.57225926541E+03  0.60862252482E+03  0.19200000000E+03 0.  0.
   -5000001    1    1    2    0    0  0.47038211882E+02  0.62162026142E+02 -0.43741566074E+03  0.48401773845E+03  0.19200000000E+03 0.  0.
<mgrwt>
<rscale>  0 0.41763535E+03</rscale>
<asrwt>0</asrwt>
<pdfrwt beam="1">  1        2 0.15016535E+00 0.41763535E+03</pdfrwt>
<pdfrwt beam="2">  1       -2 0.59260961E-02 0.41763535E+03</pdfrwt>
<totfact> 0.41220171E+03</totfact>
</mgrwt>
</event>
<event>
 4    1  0.5847263E-005  0.9659685E+03  0.7818608E-02  0.9346678E-01
          2   -1    0    0  501    0  0.00000000000E+00  0.00000000000E+00  0.20492270703E+03  0.20492270705E+03  0.25500000000E-02 0. -1.
         -2   -1    0    0    0  501 -0.00000000000E+00 -0.00000000000E+00 -0.11383500103E+04  0.11383500103E+04  0.25500000000E-02 0.  1.
    5000001    1    1    2    0    0  0.33146789736E+03  0.20883492978E+03 -0.75482831245E+03  0.87184446787E+03  0.19200000000E+03 0.  0.
   -5000001    1    1    2    0    0 -0.33146789736E+03 -0.20883492978E+03 -0.17859899080E+03  0.47142824946E+03  0.19200000000E+03 0.  0.
<mgrwt>
<rscale>  0 0.96596846E+03</rscale>
<asrwt>0</asrwt>
<pdfrwt beam="1">  1        2 0.29274673E-01 0.96596846E+03</pdfrwt>
<pdfrwt beam="2">  1       -2 0.16262143E+00 0.96596846E+03</pdfrwt>
<totfact> 0.44114798E+01</totfact>
</mgrwt>
</event>
<event>
 4    1  0.5847263E-005  0.6857729E+03  0.7818608E-02  0.9741877E-01
          2   -1    0    0  501    0  0.00000000000E+00  0.00000000000E+00  0.49677873392E+03  0.49677873393E+03  0.25500000000E-02 0.  1.
         -2   -1    0    0    0  501 -0.00000000000E+00 -0.00000000000E+00 -0.23666695590E+03  0.23666695592E+03  0.25500000000E-02 0. -1.
    5000001    1    1    2    0    0  0.24732309898E+03 -0.66746466529E+02  0.26140765189E+03  0.41330589948E+03  0.19200000000E+03 0.  0.
   -5000001    1    1    2    0    0 -0.24732309898E+03  0.66746466529E+02 -0.12958738669E+01  0.32013979036E+03  0.19200000000E+03 0.  0.
<mgrwt>
<rscale>  0 0.68577288E+03</rscale>
<asrwt>0</asrwt>
<pdfrwt beam="1">  1        2 0.70968391E-01 0.68577288E+03</pdfrwt>
<pdfrwt beam="2">  1       -2 0.33809565E-01 0.68577288E+03</pdfrwt>
<totfact> 0.55649987E+02</totfact>
</mgrwt>
</event>
<event>
 4    1  0.5847263E-005  0.6042554E+03  0.7818608E-02  0.9896617E-01
          2   -1    0    0  501    0  0.00000000000E+00  0.00000000000E+00  0.27360941743E+04  0.27360941743E+04  0.25500000000E-02 0.  1.
         -2   -1    0    0    0  501 -0.00000000000E+00 -0.00000000000E+00 -0.33361841268E+02  0.33361841365E+02  0.25500000000E-02 0. -1.
    5000001    1    1    2    0    0  0.28668816372E+02 -0.19251319686E+03  0.76203188639E+03  0.80959238378E+03  0.19200000000E+03 0.  0.
   -5000001    1    1    2    0    0 -0.28668816372E+02  0.19251319686E+03  0.19407004466E+04  0.19598636318E+04  0.19200000000E+03 0.  0.
<mgrwt>
<rscale>  0 0.60425538E+03</rscale>
<asrwt>0</asrwt>
<pdfrwt beam="1">  1        2 0.39087049E+00 0.60425538E+03</pdfrwt>
<pdfrwt beam="2">  1       -2 0.47659786E-02 0.60425538E+03</pdfrwt>
<totfact> 0.77120503E+02</totfact>
</mgrwt>
</event>
<event>
 4    1  0.5847263E-005  0.4555775E+03  0.7818608E-02  0.1026072E+00
          2   -1    0    0  501    0  0.00000000000E+00  0.00000000000E+00  0.42427645345E+03  0.42427645346E+03  0.25500000000E-02 0.  1.
         -2   -1    0    0    0  501 -0.00000000000E+00 -0.00000000000E+00 -0.12229694624E+03  0.12229694627E+03  0.25500000000E-02 0. -1.
    5000001    1    1    2    0    0  0.91429176843E+02 -0.81435768216E+02  0.15784359520E+03  0.27707341856E+03  0.19200000000E+03 0.  0.
   -5000001    1    1    2    0    0 -0.91429176843E+02  0.81435768216E+02  0.14413591201E+03  0.26949998117E+03  0.19200000000E+03 0.  0.
<mgrwt>
<rscale>  0 0.45557750E+03</rscale>
<asrwt>0</asrwt>
<pdfrwt beam="1">  1        2 0.60610922E-01 0.45557750E+03</pdfrwt>
<pdfrwt beam="2">  1       -2 0.17470992E-01 0.45557750E+03</pdfrwt>
<totfact> 0.21673063E+03</totfact>
</mgrwt>
</event>
<event>
 4    1  0.5847263E-005  0.6304147E+03  0.7818608E-02  0.9844240E-01
         -2   -1    0    0    0  501 -0.00000000000E+00  0.00000000000E+00  0.12092387877E+03  0.12092387879E+03  0.25500000000E-02 0. -1.
          2   -1    0    0  501    0  0.00000000000E+00 -0.00000000000E+00 -0.82163820774E+03  0.82163820775E+03  0.25500000000E-02 0.  1.
    5000001    1    1    2    0    0 -0.16232766253E+03  0.17431573553E+03 -0.46378578181E+03  0.55560552291E+03  0.19200000000E+03 0.  0.
   -5000001    1    1    2    0    0  0.16232766253E+03 -0.17431573553E+03 -0.23692854717E+03  0.38695656363E+03  0.19200000000E+03 0.  0.
<mgrwt>
<rscale>  0 0.63041472E+03</rscale>
<asrwt>0</asrwt>
<pdfrwt beam="1">  1        2 0.11737688E+00 0.63041472E+03</pdfrwt>
<pdfrwt beam="2">  1       -2 0.17274840E-01 0.63041472E+03</pdfrwt>
<totfact> 0.10136987E+03</totfact>
</mgrwt>
</event>
<event>
 4    1  0.5847263E-005  0.6846004E+03  0.7818608E-02  0.9743936E-01
          2   -1    0    0  501    0  0.00000000000E+00  0.00000000000E+00  0.17937981178E+03  0.17937981179E+03  0.25500000000E-02 0.  1.
         -2   -1    0    0    0  501 -0.00000000000E+00 -0.00000000000E+00 -0.65319179453E+03  0.65319179454E+03  0.25500000000E-02 0. -1.
    5000001    1    1    2    0    0 -0.19893831294E+03  0.16198518995E+03 -0.90514727737E+02  0.33297532950E+03  0.19200000000E+03 0.  0.
   -5000001    1    1    2    0    0  0.19893831294E+03 -0.16198518995E+03 -0.38329725502E+03  0.49959627683E+03  0.19200000000E+03 0.  0.
<mgrwt>
<rscale>  0 0.68460038E+03</rscale>
<asrwt>0</asrwt>
<pdfrwt beam="1">  1        2 0.25625688E-01 0.68460038E+03</pdfrwt>
<pdfrwt beam="2">  1       -2 0.93313112E-01 0.68460038E+03</pdfrwt>
<totfact> 0.20910931E+02</totfact>
</mgrwt>
</event>
<event>
 4    1  0.5847263E-005  0.5790423E+03  0.7818608E-02  0.9949867E-01
          2   -1    0    0  501    0  0.00000000000E+00  0.00000000000E+00  0.81840849980E+03  0.81840849980E+03  0.25500000000E-02 0.  1.
         -2   -1    0    0    0  501 -0.00000000000E+00 -0.00000000000E+00 -0.10242134582E+03  0.10242134586E+03  0.25500000000E-02 0. -1.
    5000001    1    1    2    0    0 -0.69742036341E+02  0.20054156001E+03  0.42690230271E+03  0.51399459626E+03  0.19200000000E+03 0.  0.
   -5000001    1    1    2    0    0  0.69742036341E+02 -0.20054156001E+03  0.28908485126E+03  0.40683524940E+03  0.19200000000E+03 0.  0.
<mgrwt>
<rscale>  0 0.57904231E+03</rscale>
<asrwt>0</asrwt>
<pdfrwt beam="1">  1        2 0.11691550E+00 0.57904231E+03</pdfrwt>
<pdfrwt beam="2">  1       -2 0.14631621E-01 0.57904231E+03</pdfrwt>
<totfact> 0.13511481E+03</totfact>
</mgrwt>
</event>
<event>
 4    1  0.5847263E-005  0.8384672E+03  0.7818608E-02  0.9505948E-01
         -2   -1    0    0    0  501 -0.00000000000E+00  0.00000000000E+00  0.14275282568E+03  0.14275282571E+03  0.25500000000E-02 0. -1.
          2   -1    0    0  501    0  0.00000000000E+00 -0.00000000000E+00 -0.12311966951E+04  0.12311966951E+04  0.25500000000E-02 0.  1.
    5000001    1    1    2    0    0  0.29855676240E+03  0.11257060586E+03 -0.85978129534E+03  0.93696112912E+03  0.19200000000E+03 0.  0.
   -5000001    1    1    2    0    0 -0.29855676240E+03 -0.11257060586E+03 -0.22866257407E+03  0.43698839167E+03  0.19200000000E+03 0.  0.
<mgrwt>
<rscale>  0 0.83846719E+03</rscale>
<asrwt>0</asrwt>
<pdfrwt beam="1">  1        2 0.17588524E+00 0.83846719E+03</pdfrwt>
<pdfrwt beam="2">  1       -2 0.20393261E-01 0.83846719E+03</pdfrwt>
<totfact> 0.42415781E+02</totfact>
</mgrwt>
</event>
<event>
 4    1  0.5847263E-005  0.6884123E+03  0.7818608E-02  0.9737257E-01
         -2   -1    0    0    0  501 -0.00000000000E+00  0.00000000000E+00  0.13536261112E+03  0.13536261115E+03  0.25500000000E-02 0. -1.
          2   -1    0    0  501    0  0.00000000000E+00 -0.00000000000E+00 -0.87526285112E+03  0.87526285113E+03  0.25500000000E-02 0.  1.
    5000001    1    1    2    0    0  0.15637658932E+03  0.11750049928E+03 -0.67562201946E+03  0.72910158291E+03  0.19200000000E+03 0.  0.
   -5000001    1    1    2    0    0 -0.15637658932E+03 -0.11750049928E+03 -0.64278220539E+02  0.28152387937E+03  0.19200000000E+03 0.  0.
<mgrwt>
<rscale>  0 0.68841227E+03</rscale>
<asrwt>0</asrwt>
<pdfrwt beam="1">  1        2 0.12503755E+00 0.68841227E+03</pdfrwt>
<pdfrwt beam="2">  1       -2 0.19337516E-01 0.68841227E+03</pdfrwt>
<totfact> 0.76702703E+02</totfact>
</mgrwt>
</event>
<event>
 4    1  0.5847263E-005  0.5622517E+03  0.7818608E-02  0.9986973E-01
          2   -1    0    0  501    0  0.00000000000E+00  0.00000000000E+00  0.10299980146E+04  0.10299980146E+04  0.25500000000E-02 0.  1.
         -2   -1    0    0    0  501 -0.00000000000E+00 -0.00000000000E+00 -0.76730004440E+02  0.76730004483E+02  0.25500000000E-02 0. -1.
    5000001    1    1    2    0    0  0.10679851052E+03 -0.13774478732E+03  0.69034847358E+03  0.73744461707E+03  0.19200000000E+03 0.  0.
   -5000001    1    1    2    0    0 -0.10679851052E+03  0.13774478732E+03  0.26291953658E+03  0.36928340201E+03  0.19200000000E+03 0.  0.
<mgrwt>
<rscale>  0 0.56225173E+03</rscale>
<asrwt>0</asrwt>
<pdfrwt beam="1">  1        2 0.14714257E+00 0.56225173E+03</pdfrwt>
<pdfrwt beam="2">  1       -2 0.10961429E-01 0.56225173E+03</pdfrwt>
<totfact> 0.15975310E+03</totfact>
</mgrwt>
</event>
<event>
 4    1  0.5847263E-005  0.4433328E+03  0.7818608E-02  0.1029729E+00
         -2   -1    0    0    0  501 -0.00000000000E+00  0.00000000000E+00  0.94057932548E+02  0.94057932582E+02  0.25500000000E-02 0. -1.
          2   -1    0    0  501    0  0.00000000000E+00 -0.00000000000E+00 -0.52240135105E+03  0.52240135106E+03  0.25500000000E-02 0.  1.
    5000001    1    1    2    0    0 -0.78705608521E+02  0.77742729848E+02 -0.22221821727E+03  0.31382071465E+03  0.19200000000E+03 0.  0.
   -5000001    1    1    2    0    0  0.78705608521E+02 -0.77742729848E+02 -0.20612520124E+03  0.30263856899E+03  0.19200000000E+03 0.  0.
<mgrwt>
<rscale>  0 0.44333279E+03</rscale>
<asrwt>0</asrwt>
<pdfrwt beam="1">  1        2 0.74628763E-01 0.44333279E+03</pdfrwt>
<pdfrwt beam="2">  1       -2 0.13436848E-01 0.44333279E+03</pdfrwt>
<totfact> 0.26662089E+03</totfact>
</mgrwt>
</event>
<event>
 4    1  0.5847263E-005  0.6928371E+03  0.7818608E-02  0.9729561E-01
          2   -1    0    0  501    0  0.00000000000E+00  0.00000000000E+00  0.12428846976E+04  0.12428846976E+04  0.25500000000E-02 0.  1.
         -2   -1    0    0    0  501 -0.00000000000E+00 -0.00000000000E+00 -0.96554256624E+02  0.96554256658E+02  0.25500000000E-02 0. -1.
    5000001    1    1    2    0    0 -0.18145839160E+03 -0.18002411576E+03  0.31519194851E+03  0.44893851978E+03  0.19200000000E+03 0.  0.
   -5000001    1    1    2    0    0  0.18145839160E+03  0.18002411576E+03  0.83113849246E+03  0.89050043447E+03  0.19200000000E+03 0.  0.
<mgrwt>
<rscale>  0 0.69283709E+03</rscale>
<asrwt>0</asrwt>
<pdfrwt beam="1">  1        2 0.17755495E+00 0.69283709E+03</pdfrwt>
<pdfrwt beam="2">  1       -2 0.13793466E-01 0.69283709E+03</pdfrwt>
<totfact> 0.82143744E+02</totfact>
</mgrwt>
</event>
<event>
 4    1  0.5847263E-005  0.5148064E+03  0.7818608E-02  0.1009985E+00
          2   -1    0    0  501    0  0.00000000000E+00  0.00000000000E+00  0.74886188777E+03  0.74886188778E+03  0.25500000000E-02 0.  1.
         -2   -1    0    0    0  501 -0.00000000000E+00 -0.00000000000E+00 -0.88476131915E+02  0.88476131951E+02  0.25500000000E-02 0. -1.
    5000001    1    1    2    0    0  0.73010309154E+02  0.93256620024E+02  0.12857706386E+03  0.25966009276E+03  0.19200000000E+03 0.  0.
   -5000001    1    1    2    0    0 -0.73010309154E+02 -0.93256620024E+02  0.53180869200E+03  0.57767792697E+03  0.19200000000E+03 0.  0.
<mgrwt>
<rscale>  0 0.51480638E+03</rscale>
<asrwt>0</asrwt>
<pdfrwt beam="1">  1        2 0.10698028E+00 0.51480638E+03</pdfrwt>
<pdfrwt beam="2">  1       -2 0.12639447E-01 0.51480638E+03</pdfrwt>
<totfact> 0.19290667E+03</totfact>
</mgrwt>
</event>
<event>
 4    1  0.5847263E-005  0.6731566E+03  0.7818608E-02  0.9764272E-01
         -2   -1    0    0    0  501 -0.00000000000E+00  0.00000000000E+00  0.15374606826E+04  0.15374606826E+04  0.25500000000E-02 0. -1.
          2   -1    0    0  501    0  0.00000000000E+00 -0.00000000000E+00 -0.73683155997E+02  0.73683156041E+02  0.25500000000E-02 0.  1.
    5000001    1    1    2    0    0 -0.13919133646E+03 -0.23624636262E+03  0.64779898084E+03  0.72917356752E+03  0.19200000000E+03 0.  0.
   -5000001    1    1    2    0    0  0.13919133646E+03  0.23624636262E+03  0.81597854577E+03  0.88197027113E+03  0.19200000000E+03 0.  0.
<mgrwt>
<rscale>  0 0.67315661E+03</rscale>
<asrwt>0</asrwt>
<pdfrwt beam="1">  1        2 0.10526166E-01 0.67315661E+03</pdfrwt>
<pdfrwt beam="2">  1       -2 0.21963723E+00 0.67315661E+03</pdfrwt>
<totfact> 0.63506056E+01</totfact>
</mgrwt>
</event>
<event>
 4    1  0.5847263E-005  0.4780419E+03  0.7818608E-02  0.1019675E+00
         -2   -1    0    0    0  501 -0.00000000000E+00  0.00000000000E+00  0.82756135196E+02  0.82756135235E+02  0.25500000000E-02 0. -1.
          2   -1    0    0  501    0  0.00000000000E+00 -0.00000000000E+00 -0.69035375346E+03  0.69035375347E+03  0.25500000000E-02 0.  1.
    5000001    1    1    2    0    0  0.13243394784E+03 -0.51393729003E+02 -0.28871914299E+03  0.37470362881E+03  0.19200000000E+03 0.  0.
   -5000001    1    1    2    0    0 -0.13243394784E+03  0.51393729003E+02 -0.31887847528E+03  0.39840625989E+03  0.19200000000E+03 0.  0.
<mgrwt>
<rscale>  0 0.47804188E+03</rscale>
<asrwt>0</asrwt>
<pdfrwt beam="1">  1        2 0.98621961E-01 0.47804188E+03</pdfrwt>
<pdfrwt beam="2">  1       -2 0.11822305E-01 0.47804188E+03</pdfrwt>
<totfact> 0.23779251E+03</totfact>
</mgrwt>
</event>
<event>
 4    1  0.5847263E-005  0.6491309E+03  0.7818608E-02  0.9808411E-01
          2   -1    0    0  501    0  0.00000000000E+00  0.00000000000E+00  0.17079155409E+04  0.17079155409E+04  0.25500000000E-02 0.  1.
         -2   -1    0    0    0  501 -0.00000000000E+00 -0.00000000000E+00 -0.61679129072E+02  0.61679129125E+02  0.25500000000E-02 0. -1.
    5000001    1    1    2    0    0 -0.97034176899E+01  0.25460938986E+03  0.98574191151E+03  0.10360845592E+04  0.19200000000E+03 0.  0.
   -5000001    1    1    2    0    0  0.97034176899E+01 -0.25460938986E+03  0.66049450028E+03  0.73351011078E+03  0.19200000000E+03 0.  0.
<mgrwt>
<rscale>  0 0.64913094E+03</rscale>
<asrwt>0</asrwt>
<pdfrwt beam="1">  1        2 0.24398794E+00 0.64913094E+03</pdfrwt>
<pdfrwt beam="2">  1       -2 0.88113039E-02 0.64913094E+03</pdfrwt>
<totfact> 0.97467318E+02</totfact>
</mgrwt>
</event>
<event>
 4    1  0.5847263E-005  0.5652461E+03  0.7818608E-02  0.9980254E-01
          2   -1    0    0  501    0  0.00000000000E+00  0.00000000000E+00  0.11803870933E+04  0.11803870933E+04  0.25500000000E-02 0.  1.
         -2   -1    0    0    0  501 -0.00000000000E+00 -0.00000000000E+00 -0.67669145036E+02  0.67669145084E+02  0.25500000000E-02 0. -1.
    5000001    1    1    2    0    0  0.19090788864E+03 -0.67781118553E+02  0.45831629126E+03  0.53661711193E+03  0.19200000000E+03 0.  0.
   -5000001    1    1    2    0    0 -0.19090788864E+03  0.67781118553E+02  0.65440165703E+03  0.71143912649E+03  0.19200000000E+03 0.  0.
<mgrwt>
<rscale>  0 0.56524609E+03</rscale>
<asrwt>0</asrwt>
<pdfrwt beam="1">  1        2 0.16862673E+00 0.56524609E+03</pdfrwt>
<pdfrwt beam="2">  1       -2 0.96670207E-02 0.56524609E+03</pdfrwt>
<totfact> 0.16024418E+03</totfact>
</mgrwt>
</event>
<event>
 4    1  0.5847263E-005  0.5911085E+03  0.7818608E-02  0.9924027E-01
         -2   -1    0    0    0  501 -0.00000000000E+00  0.00000000000E+00  0.26043427788E+03  0.26043427790E+03  0.25500000000E-02 0. -1.
          2   -1    0    0  501    0  0.00000000000E+00 -0.00000000000E+00 -0.33541018403E+03  0.33541018404E+03  0.25500000000E-02 0.  1.
    5000001    1    1    2    0    0 -0.10911071926E+03  0.13395049993E+03 -0.18230677811E+03  0.31614497755E+03  0.19200000000E+03 0.  0.
   -5000001    1    1    2    0    0  0.10911071926E+03 -0.13395049993E+03  0.10733087196E+03  0.27969948438E+03  0.19200000000E+03 0.  0.
<mgrwt>
<rscale>  0 0.59110848E+03</rscale>
<asrwt>0</asrwt>
<pdfrwt beam="1">  1        2 0.47915740E-01 0.59110848E+03</pdfrwt>
<pdfrwt beam="2">  1       -2 0.37204897E-01 0.59110848E+03</pdfrwt>
<totfact> 0.72087130E+02</totfact>
</mgrwt>
</event>
<event>
 4    1  0.5847263E-005  0.5258673E+03  0.7818608E-02  0.1007239E+00
         -2   -1    0    0    0  501 -0.00000000000E+00  0.00000000000E+00  0.35490507026E+02  0.35490507117E+02  0.25500000000E-02 0. -1.
          2   -1    0    0  501    0  0.00000000000E+00 -0.00000000000E+00 -0.19479607858E+04  0.19479607858E+04  0.25500000000E-02 0.  1.
    5000001    1    1    2    0    0  0.31912648351E+02  0.13855099976E+03 -0.54210704144E+03  0.59241779264E+03  0.19200000000E+03 0.  0.
   -5000001    1    1    2    0    0 -0.31912648351E+02 -0.13855099976E+03 -0.13703632374E+04  0.13910335003E+04  0.19200000000E+03 0.  0.
<mgrwt>
<rscale>  0 0.52586734E+03</rscale>
<asrwt>0</asrwt>
<pdfrwt beam="1">  1        2 0.27828004E+00 0.52586734E+03</pdfrwt>
<pdfrwt beam="2">  1       -2 0.50700737E-02 0.52586734E+03</pdfrwt>
<totfact> 0.17722407E+03</totfact>
</mgrwt>
</event>
<event>
 4    1  0.5847263E-005  0.4613665E+03  0.7818608E-02  0.1024386E+00
          2   -1    0    0  501    0  0.00000000000E+00  0.00000000000E+00  0.34109386161E+03  0.34109386162E+03  0.25500000000E-02 0.  1.
         -2   -1    0    0    0  501 -0.00000000000E+00 -0.00000000000E+00 -0.15601210295E+03  0.15601210298E+03  0.25500000000E-02 0. -1.
    5000001    1    1    2    0    0 -0.11532962993E+03  0.55225072807E+02  0.92752169556E+02  0.24863164956E+03  0.19200000000E+03 0.  0.
   -5000001    1    1    2    0    0  0.11532962993E+03 -0.55225072807E+02  0.92329589097E+02  0.24847431503E+03  0.19200000000E+03 0.  0.
<mgrwt>
<rscale>  0 0.46136654E+03</rscale>
<asrwt>0</asrwt>
<pdfrwt beam="1">  1        2 0.48727695E-01 0.46136654E+03</pdfrwt>
<pdfrwt beam="2">  1       -2 0.22287443E-01 0.46136654E+03</pdfrwt>
<totfact> 0.18089926E+03</totfact>
</mgrwt>
</event>
<event>
 4    1  0.5847263E-005  0.4951640E+03  0.7818608E-02  0.1015049E+00
         -2   -1    0    0    0  501 -0.00000000000E+00  0.00000000000E+00  0.11121671211E+03  0.11121671214E+03  0.25500000000E-02 0. -1.
          2   -1    0    0  501    0  0.00000000000E+00 -0.00000000000E+00 -0.55114788807E+03  0.55114788807E+03  0.25500000000E-02 0.  1.
    5000001    1    1    2    0    0  0.20709529880E+01 -0.12706058736E+03 -0.34171661471E+03  0.41204723816E+03  0.19200000000E+03 0.  0.
   -5000001    1    1    2    0    0 -0.20709529880E+01  0.12706058736E+03 -0.98214561252E+02  0.25031736206E+03  0.19200000000E+03 0.  0.
<mgrwt>
<rscale>  0 0.49516404E+03</rscale>
<asrwt>0</asrwt>
<pdfrwt beam="1">  1        2 0.78735411E-01 0.49516404E+03</pdfrwt>
<pdfrwt beam="2">  1       -2 0.15888102E-01 0.49516404E+03</pdfrwt>
<totfact> 0.18977009E+03</totfact>
</mgrwt>
</event>
<event>
 4    1  0.5847263E-005  0.6246745E+03  0.7818608E-02  0.9855497E-01
         -2   -1    0    0    0  501 -0.00000000000E+00  0.00000000000E+00  0.46098090296E+02  0.46098090367E+02  0.25500000000E-02 0. -1.
          2   -1    0    0  501    0  0.00000000000E+00 -0.00000000000E+00 -0.21162384720E+04  0.21162384720E+04  0.25500000000E-02 0.  1.
    5000001    1    1    2    0    0  0.15291852043E+03  0.16206760223E+03 -0.13987886034E+04  0.14293787247E+04  0.19200000000E+03 0.  0.
   -5000001    1    1    2    0    0 -0.15291852043E+03 -0.16206760223E+03 -0.67135177827E+03  0.73295783765E+03  0.19200000000E+03 0.  0.
<mgrwt>
<rscale>  0 0.62467448E+03</rscale>
<asrwt>0</asrwt>
<pdfrwt beam="1">  1        2 0.30231972E+00 0.62467448E+03</pdfrwt>
<pdfrwt beam="2">  1       -2 0.65854428E-02 0.62467448E+03</pdfrwt>
<totfact> 0.96503381E+02</totfact>
</mgrwt>
</event>
<event>
 4    1  0.5847263E-005  0.5500646E+03  0.7818608E-02  0.1001479E+00
         -2   -1    0    0    0  501 -0.00000000000E+00  0.00000000000E+00  0.19103828554E+03  0.19103828556E+03  0.25500000000E-02 0. -1.
          2   -1    0    0  501    0  0.00000000000E+00 -0.00000000000E+00 -0.39595599994E+03  0.39595599995E+03  0.25500000000E-02 0.  1.
    5000001    1    1    2    0    0  0.77524065611E+02 -0.51160180196E+02 -0.28775826230E+03  0.35818453667E+03  0.19200000000E+03 0.  0.
   -5000001    1    1    2    0    0 -0.77524065611E+02  0.51160180196E+02  0.82840547907E+02  0.22880974884E+03  0.19200000000E+03 0.  0.
<mgrwt>
<rscale>  0 0.55006456E+03</rscale>
<asrwt>0</asrwt>
<pdfrwt beam="1">  1        2 0.56565143E-01 0.55006456E+03</pdfrwt>
<pdfrwt beam="2">  1       -2 0.27291184E-01 0.55006456E+03</pdfrwt>
<totfact> 0.10695922E+03</totfact>
</mgrwt>
</event>
<event>
 4    1  0.5847263E-005  0.7311905E+03  0.7818608E-02  0.9665331E-01
         -2   -1    0    0    0  501 -0.00000000000E+00  0.00000000000E+00  0.11531552141E+03  0.11531552144E+03  0.25500000000E-02 0. -1.
          2   -1    0    0  501    0  0.00000000000E+00 -0.00000000000E+00 -0.11590796744E+04  0.11590796744E+04  0.25500000000E-02 0.  1.
    5000001    1    1    2    0    0  0.14745849713E+03  0.15495573294E+03 -0.91564193661E+03  0.95969757926E+03  0.19200000000E+03 0.  0.
   -5000001    1    1    2    0    0 -0.14745849713E+03 -0.15495573294E+03 -0.12812221636E+03  0.31469761656E+03  0.19200000000E+03 0.  0.
<mgrwt>
<rscale>  0 0.73119047E+03</rscale>
<asrwt>0</asrwt>
<pdfrwt beam="1">  1        2 0.16558280E+00 0.73119047E+03</pdfrwt>
<pdfrwt beam="2">  1       -2 0.16473647E-01 0.73119047E+03</pdfrwt>
<totfact> 0.67741141E+02</totfact>
</mgrwt>
</event>
<event>
 4    1  0.5847263E-005  0.7053579E+03  0.7818608E-02  0.9708113E-01
         -2   -1    0    0    0  501 -0.00000000000E+00  0.00000000000E+00  0.54812498016E+02  0.54812498075E+02  0.25500000000E-02 0. -1.
          2   -1    0    0  501    0  0.00000000000E+00 -0.00000000000E+00 -0.22692348668E+04  0.22692348668E+04  0.25500000000E-02 0.  1.
    5000001    1    1    2    0    0  0.23583242413E+03 -0.16043820531E+03 -0.84859009194E+03  0.91560171152E+03  0.19200000000E+03 0.  0.
   -5000001    1    1    2    0    0 -0.23583242413E+03  0.16043820531E+03 -0.13658322768E+04  0.14084456534E+04  0.19200000000E+03 0.  0.
<mgrwt>
<rscale>  0 0.70535787E+03</rscale>
<asrwt>0</asrwt>
<pdfrwt beam="1">  1        2 0.32417635E+00 0.70535787E+03</pdfrwt>
<pdfrwt beam="2">  1       -2 0.78303583E-02 0.70535787E+03</pdfrwt>
<totfact> 0.61042019E+02</totfact>
</mgrwt>
</event>
<event>
 4    1  0.5847263E-005  0.7003935E+03  0.7818608E-02  0.9716559E-01
          2   -1    0    0  501    0  0.00000000000E+00  0.00000000000E+00  0.22015757449E+04  0.22015757449E+04  0.25500000000E-02 0.  1.
         -2   -1    0    0    0  501 -0.00000000000E+00 -0.00000000000E+00 -0.55704541353E+02  0.55704541412E+02  0.25500000000E-02 0. -1.
    5000001    1    1    2    0    0  0.21258408944E+03 -0.20042259955E+03  0.11383967495E+04  0.11908704266E+04  0.19200000000E+03 0.  0.
   -5000001    1    1    2    0    0 -0.21258408944E+03  0.20042259955E+03  0.10074744540E+04  0.10664098597E+04  0.19200000000E+03 0.  0.
<mgrwt>
<rscale>  0 0.70039351E+03</rscale>
<asrwt>0</asrwt>
<pdfrwt beam="1">  1        2 0.31451078E+00 0.70039351E+03</pdfrwt>
<pdfrwt beam="2">  1       -2 0.79577926E-02 0.70039351E+03</pdfrwt>
<totfact> 0.64400762E+02</totfact>
</mgrwt>
</event>
<event>
 4    1  0.5847263E-005  0.5519024E+03  0.7818608E-02  0.1001055E+00
          2   -1    0    0  501    0  0.00000000000E+00  0.00000000000E+00  0.17902638423E+03  0.17902638425E+03  0.25500000000E-02 0.  1.
         -2   -1    0    0    0  501 -0.00000000000E+00 -0.00000000000E+00 -0.42535103666E+03  0.42535103667E+03  0.25500000000E-02 0. -1.
    5000001    1    1    2    0    0  0.44756323346E+00 -0.19151590967E+03 -0.17907059080E+03  0.32497510745E+03  0.19200000000E+03 0.  0.
   -5000001    1    1    2    0    0 -0.44756323346E+00  0.19151590967E+03 -0.67254061626E+02  0.27940231347E+03  0.19200000000E+03 0.  0.
<mgrwt>
<rscale>  0 0.55190238E+03</rscale>
<asrwt>0</asrwt>
<pdfrwt beam="1">  1        2 0.25575198E-01 0.55190238E+03</pdfrwt>
<pdfrwt beam="2">  1       -2 0.60764433E-01 0.55190238E+03</pdfrwt>
<totfact> 0.54250837E+02</totfact>
</mgrwt>
</event>
<event>
 4    1  0.5847263E-005  0.1259830E+04  0.7818608E-02  0.9062041E-01
          2   -1    0    0  501    0  0.00000000000E+00  0.00000000000E+00  0.33498277236E+04  0.33498277237E+04  0.25500000000E-02 0.  1.
         -2   -1    0    0    0  501 -0.00000000000E+00 -0.00000000000E+00 -0.11845173502E+03  0.11845173505E+03  0.25500000000E-02 0. -1.
    5000001    1    1    2    0    0 -0.26596700295E+03  0.49281520700E+03  0.22082085691E+04  0.22861877349E+04  0.19200000000E+03 0.  0.
   -5000001    1    1    2    0    0  0.26596700295E+03 -0.49281520700E+03  0.10231674196E+04  0.11820917238E+04  0.19200000000E+03 0.  0.
<mgrwt>
<rscale>  0 0.12598300E+04</rscale>
<asrwt>0</asrwt>
<pdfrwt beam="1">  1        2 0.47854681E+00 0.12598300E+04</pdfrwt>
<pdfrwt beam="2">  1       -2 0.16921677E-01 0.12598300E+04</pdfrwt>
<totfact> 0.42282979E+01</totfact>
</mgrwt>
</event>
<event>
 4    1  0.5847263E-005  0.5657813E+03  0.7818608E-02  0.9979058E-01
          2   -1    0    0  501    0  0.00000000000E+00  0.00000000000E+00  0.12880543680E+04  0.12880543680E+04  0.25500000000E-02 0.  1.
         -2   -1    0    0    0  501 -0.00000000000E+00 -0.00000000000E+00 -0.62130239736E+02  0.62130239788E+02  0.25500000000E-02 0. -1.
    5000001    1    1    2    0    0  0.90153109853E+02 -0.16417112323E+03  0.82751832812E+03  0.86990247976E+03  0.19200000000E+03 0.  0.
   -5000001    1    1    2    0    0 -0.90153109853E+02  0.16417112323E+03  0.39840580015E+03  0.48028212803E+03  0.19200000000E+03 0.  0.
<mgrwt>
<rscale>  0 0.56578132E+03</rscale>
<asrwt>0</asrwt>
<pdfrwt beam="1">  1        2 0.18400777E+00 0.56578132E+03</pdfrwt>
<pdfrwt beam="2">  1       -2 0.88757484E-02 0.56578132E+03</pdfrwt>
<totfact> 0.16028321E+03</totfact>
</mgrwt>
</event>
<event>
 4    1  0.5847263E-005  0.5324658E+03  0.7818608E-02  0.1005636E+00
         -2   -1    0    0    0  501 -0.00000000000E+00  0.00000000000E+00  0.48042283880E+02  0.48042283948E+02  0.25500000000E-02 0.  1.
          2   -1    0    0  501    0  0.00000000000E+00 -0.00000000000E+00 -0.14753661361E+04  0.14753661361E+04  0.25500000000E-02 0. -1.
    5000001    1    1    2    0    0 -0.35869454107E+02  0.17587802520E+03 -0.59240420983E+03  0.64809447252E+03  0.19200000000E+03 0.  0.
   -5000001    1    1    2    0    0  0.35869454107E+02 -0.17587802520E+03 -0.83491964234E+03  0.87531394748E+03  0.19200000000E+03 0.  0.
<mgrwt>
<rscale>  0 0.53246581E+03</rscale>
<asrwt>0</asrwt>
<pdfrwt beam="1">  1        2 0.21076656E+00 0.53246581E+03</pdfrwt>
<pdfrwt beam="2">  1       -2 0.68631843E-02 0.53246581E+03</pdfrwt>
<totfact> 0.19187012E+03</totfact>
</mgrwt>
</event>
<event>
 4    1  0.5847263E-005  0.6716706E+03  0.7818608E-02  0.9766945E-01
         -2   -1    0    0    0  501 -0.00000000000E+00  0.00000000000E+00  0.65782749085E+02  0.65782749134E+02  0.25500000000E-02 0. -1.
          2   -1    0    0  501    0  0.00000000000E+00 -0.00000000000E+00 -0.17145125479E+04  0.17145125479E+04  0.25500000000E-02 0.  1.
    5000001    1    1    2    0    0  0.25070965792E+03 -0.30607710526E+02 -0.11162765996E+04  0.11604867993E+04  0.19200000000E+03 0.  0.
   -5000001    1    1    2    0    0 -0.25070965792E+03  0.30607710526E+02 -0.53245319918E+03  0.61980849771E+03  0.19200000000E+03 0.  0.
<mgrwt>
<rscale>  0 0.67167060E+03</rscale>
<asrwt>0</asrwt>
<pdfrwt beam="1">  1        2 0.24493034E+00 0.67167060E+03</pdfrwt>
<pdfrwt beam="2">  1       -2 0.93975367E-02 0.67167060E+03</pdfrwt>
<totfact> 0.87079438E+02</totfact>
</mgrwt>
</event>
<event>
 4    1  0.5847263E-005  0.5005928E+03  0.7818608E-02  0.1013624E+00
         -2   -1    0    0    0  501 -0.00000000000E+00  0.00000000000E+00  0.45535042514E+02  0.45535042585E+02  0.25500000000E-02 0. -1.
          2   -1    0    0  501    0  0.00000000000E+00 -0.00000000000E+00 -0.13758258238E+04  0.13758258238E+04  0.25500000000E-02 0.  1.
    5000001    1    1    2    0    0 -0.81404338936E+02 -0.13512748281E+03 -0.58005068978E+03  0.63103795902E+03  0.19200000000E+03 0.  0.
   -5000001    1    1    2    0    0  0.81404338936E+02  0.13512748281E+03 -0.75024009151E+03  0.79032290737E+03  0.19200000000E+03 0.  0.
<mgrwt>
<rscale>  0 0.50059280E+03</rscale>
<asrwt>0</asrwt>
<pdfrwt beam="1">  1        2 0.19654652E+00 0.50059280E+03</pdfrwt>
<pdfrwt beam="2">  1       -2 0.65050069E-02 0.50059280E+03</pdfrwt>
<totfact> 0.23558933E+03</totfact>
</mgrwt>
</event>
<event>
 4    1  0.5847263E-005  0.4465569E+03  0.7818608E-02  0.1028754E+00
         -2   -1    0    0    0  501 -0.00000000000E+00  0.00000000000E+00  0.17825872347E+02  0.17825872529E+02  0.25500000000E-02 0. -1.
          2   -1    0    0  501    0  0.00000000000E+00 -0.00000000000E+00 -0.27966802067E+04  0.27966802067E+04  0.25500000000E-02 0.  1.
    5000001    1    1    2    0    0  0.50599482318E+02 -0.72875644696E+02 -0.18403265779E+04  0.18524408441E+04  0.19200000000E+03 0.  0.
   -5000001    1    1    2    0    0 -0.50599482318E+02  0.72875644696E+02 -0.93852775638E+03  0.96206523515E+03  0.19200000000E+03 0.  0.
<mgrwt>
<rscale>  0 0.44655689E+03</rscale>
<asrwt>0</asrwt>
<pdfrwt beam="1">  1        2 0.39952546E+00 0.44655689E+03</pdfrwt>
<pdfrwt beam="2">  1       -2 0.25465550E-02 0.44655689E+03</pdfrwt>
<totfact> 0.18864771E+03</totfact>
</mgrwt>
</event>
<event>
 4    1  0.5847263E-005  0.7953668E+03  0.7818608E-02  0.9566748E-01
          2   -1    0    0  501    0  0.00000000000E+00  0.00000000000E+00  0.68930291957E+03  0.68930291958E+03  0.25500000000E-02 0. -1.
         -2   -1    0    0    0  501 -0.00000000000E+00 -0.00000000000E+00 -0.22943769483E+03  0.22943769484E+03  0.25500000000E-02 0.  1.
    5000001    1    1    2    0    0  0.71659873610E+01 -0.33897381697E+03  0.32186032108E+03  0.50538368222E+03  0.19200000000E+03 0.  0.
   -5000001    1    1    2    0    0 -0.71659873610E+01  0.33897381697E+03  0.13800490367E+03  0.41335693220E+03  0.19200000000E+03 0.  0.
<mgrwt>
<rscale>  0 0.79536677E+03</rscale>
<asrwt>0</asrwt>
<pdfrwt beam="1">  1        2 0.98471846E-01 0.79536677E+03</pdfrwt>
<pdfrwt beam="2">  1       -2 0.32776813E-01 0.79536677E+03</pdfrwt>
<totfact> 0.39955929E+02</totfact>
</mgrwt>
</event>
<event>
 4    1  0.5847263E-005  0.7963432E+03  0.7818608E-02  0.9565325E-01
         -2   -1    0    0    0  501 -0.00000000000E+00  0.00000000000E+00  0.78483577926E+03  0.78483577926E+03  0.25500000000E-02 0. -1.
          2   -1    0    0  501    0  0.00000000000E+00 -0.00000000000E+00 -0.20200484640E+03  0.20200484642E+03  0.25500000000E-02 0.  1.
    5000001    1    1    2    0    0 -0.23701113806E+03 -0.24767345567E+03  0.37134447094E+03  0.54062661450E+03  0.19200000000E+03 0.  0.
   -5000001    1    1    2    0    0  0.23701113806E+03  0.24767345567E+03  0.21148646191E+03  0.44621401118E+03  0.19200000000E+03 0.  0.
<mgrwt>
<rscale>  0 0.79634322E+03</rscale>
<asrwt>0</asrwt>
<pdfrwt beam="1">  1        2 0.28857835E-01 0.79634322E+03</pdfrwt>
<pdfrwt beam="2">  1       -2 0.11211940E+00 0.79634322E+03</pdfrwt>
<totfact> 0.11752974E+02</totfact>
</mgrwt>
</event>
<event>
 4    1  0.5847263E-005  0.5318719E+03  0.7818608E-02  0.1005779E+00
         -2   -1    0    0    0  501 -0.00000000000E+00  0.00000000000E+00  0.68169353831E+03  0.68169353831E+03  0.25500000000E-02 0. -1.
          2   -1    0    0  501    0  0.00000000000E+00 -0.00000000000E+00 -0.10374444999E+03  0.10374445002E+03  0.25500000000E-02 0.  1.
    5000001    1    1    2    0    0 -0.11367029959E+02  0.18347146185E+03  0.27689279056E+03  0.38382887352E+03  0.19200000000E+03 0.  0.
   -5000001    1    1    2    0    0  0.11367029959E+02 -0.18347146185E+03  0.30105629776E+03  0.40160911482E+03  0.19200000000E+03 0.  0.
<mgrwt>
<rscale>  0 0.53187187E+03</rscale>
<asrwt>0</asrwt>
<pdfrwt beam="1">  1        2 0.14820636E-01 0.53187187E+03</pdfrwt>
<pdfrwt beam="2">  1       -2 0.97384788E-01 0.53187187E+03</pdfrwt>
<totfact> 0.36175558E+02</totfact>
</mgrwt>
</event>
<event>
 4    1  0.5847263E-005  0.4531275E+03  0.7818608E-02  0.1026793E+00
          2   -1    0    0  501    0  0.00000000000E+00  0.00000000000E+00  0.18328392779E+04  0.18328392779E+04  0.25500000000E-02 0.  1.
         -2   -1    0    0    0  501 -0.00000000000E+00 -0.00000000000E+00 -0.28006350182E+02  0.28006350298E+02  0.25500000000E-02 0. -1.
    5000001    1    1    2    0    0  0.11553994782E+03 -0.11112428549E+02  0.10319018972E+04  0.10560106491E+04  0.19200000000E+03 0.  0.
   -5000001    1    1    2    0    0 -0.11553994782E+03  0.11112428549E+02  0.77293103047E+03  0.80483497903E+03  0.19200000000E+03 0.  0.
<mgrwt>
<rscale>  0 0.45312753E+03</rscale>
<asrwt>0</asrwt>
<pdfrwt beam="1">  1        2 0.26183422E+00 0.45312753E+03</pdfrwt>
<pdfrwt beam="2">  1       -2 0.40009065E-02 0.45312753E+03</pdfrwt>
<totfact> 0.29185155E+03</totfact>
</mgrwt>
</event>
<event>
 4    1  0.5847263E-005  0.4690599E+03  0.7818608E-02  0.1022186E+00
          2   -1    0    0  501    0  0.00000000000E+00  0.00000000000E+00  0.64663303605E+03  0.64663303606E+03  0.25500000000E-02 0.  1.
         -2   -1    0    0    0  501 -0.00000000000E+00 -0.00000000000E+00 -0.85062607231E+02  0.85062607269E+02  0.25500000000E-02 0. -1.
    5000001    1    1    2    0    0 -0.10718100382E+03  0.12684578547E+02  0.15510152372E+03  0.26938661580E+03  0.19200000000E+03 0.  0.
   -5000001    1    1    2    0    0  0.10718100382E+03 -0.12684578547E+02  0.40646890511E+03  0.46230902753E+03  0.19200000000E+03 0.  0.
<mgrwt>
<rscale>  0 0.46905988E+03</rscale>
<asrwt>0</asrwt>
<pdfrwt beam="1">  1        2 0.92376152E-01 0.46905988E+03</pdfrwt>
<pdfrwt beam="2">  1       -2 0.12151800E-01 0.46905988E+03</pdfrwt>
<totfact> 0.24582833E+03</totfact>
</mgrwt>
</event>
<event>
 4    1  0.5847263E-005  0.6539251E+03  0.7818608E-02  0.9799442E-01
         -2   -1    0    0    0  501 -0.00000000000E+00  0.00000000000E+00  0.94886676101E+02  0.94886676135E+02  0.25500000000E-02 0. -1.
          2   -1    0    0  501    0  0.00000000000E+00 -0.00000000000E+00 -0.11266545124E+04  0.11266545124E+04  0.25500000000E-02 0.  1.
    5000001    1    1    2    0    0  0.77026687751E+02 -0.24590288329E+03 -0.62857275274E+03  0.70595257923E+03  0.19200000000E+03 0.  0.
   -5000001    1    1    2    0    0 -0.77026687751E+02  0.24590288329E+03 -0.40319508355E+03  0.51558860930E+03  0.19200000000E+03 0.  0.
<mgrwt>
<rscale>  0 0.65392508E+03</rscale>
<asrwt>0</asrwt>
<pdfrwt beam="1">  1        2 0.16095064E+00 0.65392508E+03</pdfrwt>
<pdfrwt beam="2">  1       -2 0.13555240E-01 0.65392508E+03</pdfrwt>
<totfact> 0.98531547E+02</totfact>
</mgrwt>
</event>
<event>
 4    1  0.5847263E-005  0.4419398E+03  0.7818608E-02  0.1030153E+00
          2   -1    0    0  501    0  0.00000000000E+00  0.00000000000E+00  0.29133245592E+03  0.29133245593E+03  0.25500000000E-02 0.  1.
         -2   -1    0    0    0  501 -0.00000000000E+00 -0.00000000000E+00 -0.16760130932E+03  0.16760130934E+03  0.25500000000E-02 0. -1.
    5000001    1    1    2    0    0  0.18113592697E+02  0.70997977083E+02  0.14619720939E+03  0.25220317013E+03  0.19200000000E+03 0.  0.
   -5000001    1    1    2    0    0 -0.18113592697E+02 -0.70997977083E+02 -0.22466062799E+02  0.20673059514E+03  0.19200000000E+03 0.  0.
<mgrwt>
<rscale>  0 0.44193982E+03</rscale>
<asrwt>0</asrwt>
<pdfrwt beam="1">  1        2 0.41618922E-01 0.44193982E+03</pdfrwt>
<pdfrwt beam="2">  1       -2 0.23943044E-01 0.44193982E+03</pdfrwt>
<totfact> 0.18936023E+03</totfact>
</mgrwt>
</event>
<event>
 4    1  0.5847263E-005  0.6202861E+03  0.7818608E-02  0.9864190E-01
         -2   -1    0    0    0  501 -0.00000000000E+00  0.00000000000E+00  0.41713208961E+02  0.41713209039E+02  0.25500000000E-02 0. -1.
          2   -1    0    0  501    0  0.00000000000E+00 -0.00000000000E+00 -0.23059529333E+04  0.23059529333E+04  0.25500000000E-02 0.  1.
    5000001    1    1    2    0    0  0.83659116745E+02  0.16946502686E+02 -0.26872910761E+03  0.34112367998E+03  0.19200000000E+03 0.  0.
   -5000001    1    1    2    0    0 -0.83659116745E+02 -0.16946502686E+02 -0.19955106167E+04  0.20065424624E+04  0.19200000000E+03 0.  0.
<mgrwt>
<rscale>  0 0.62028605E+03</rscale>
<asrwt>0</asrwt>
<pdfrwt beam="1">  1        2 0.32942177E+00 0.62028605E+03</pdfrwt>
<pdfrwt beam="2">  1       -2 0.59590313E-02 0.62028605E+03</pdfrwt>
<totfact> 0.90595559E+02</totfact>
</mgrwt>
</event>
<event>
 4    1  0.5847263E-005  0.6446665E+03  0.7818608E-02  0.9816839E-01
         -2   -1    0    0    0  501 -0.00000000000E+00  0.00000000000E+00  0.16376517481E+03  0.16376517483E+03  0.25500000000E-02 0. -1.
          2   -1    0    0  501    0  0.00000000000E+00 -0.00000000000E+00 -0.63443722596E+03  0.63443722596E+03  0.25500000000E-02 0.  1.
    5000001    1    1    2    0    0  0.19431751666E+03 -0.10565685723E+03 -0.40196932222E+03  0.49735903004E+03  0.19200000000E+03 0.  0.
   -5000001    1    1    2    0    0 -0.19431751666E+03  0.10565685723E+03 -0.68702728929E+02  0.30084337075E+03  0.19200000000E+03 0.  0.
<mgrwt>
<rscale>  0 0.64466650E+03</rscale>
<asrwt>0</asrwt>
<pdfrwt beam="1">  1        2 0.90633888E-01 0.64466650E+03</pdfrwt>
<pdfrwt beam="2">  1       -2 0.23395025E-01 0.64466650E+03</pdfrwt>
<totfact> 0.82243801E+02</totfact>
</mgrwt>
</event>
<event>
 4    1  0.5847263E-005  0.1953389E+04  0.7818608E-02  0.8628728E-01
          2   -1    0    0  501    0  0.00000000000E+00  0.00000000000E+00  0.78802198713E+03  0.78802198713E+03  0.25500000000E-02 0.  1.
         -2   -1    0    0    0  501 -0.00000000000E+00 -0.00000000000E+00 -0.12105402694E+04  0.12105402694E+04  0.25500000000E-02 0. -1.
    5000001    1    1    2    0    0 -0.35876743142E+02 -0.86574073626E+03  0.20593798881E+03  0.91108101635E+03  0.19200000000E+03 0.  0.
   -5000001    1    1    2    0    0  0.35876743142E+02  0.86574073626E+03 -0.62845627112E+03  0.10874812402E+04  0.19200000000E+03 0.  0.
<mgrwt>
<rscale>  0 0.19533892E+04</rscale>
<asrwt>0</asrwt>
<pdfrwt beam="1">  1        2 0.11257457E+00 0.19533892E+04</pdfrwt>
<pdfrwt beam="2">  1       -2 0.17293432E+00 0.19533892E+04</pdfrwt>
<totfact> 0.73661617E+00</totfact>
</mgrwt>
</event>
<event>
 4    1  0.5847263E-005  0.7166717E+03  0.7818608E-02  0.9689139E-01
         -2   -1    0    0    0  501 -0.00000000000E+00  0.00000000000E+00  0.87329698978E+02  0.87329699015E+02  0.25500000000E-02 0. -1.
          2   -1    0    0  501    0  0.00000000000E+00 -0.00000000000E+00 -0.14703428432E+04  0.14703428433E+04  0.25500000000E-02 0.  1.
    5000001    1    1    2    0    0  0.23978540224E+03 -0.24391632319E+02 -0.29399946351E+03  0.42590101596E+03  0.19200000000E+03 0.  0.
   -5000001    1    1    2    0    0 -0.23978540224E+03  0.24391632319E+02 -0.10890136808E+04  0.11317715263E+04  0.19200000000E+03 0.  0.
<mgrwt>
<rscale>  0 0.71667175E+03</rscale>
<asrwt>0</asrwt>
<pdfrwt beam="1">  1        2 0.21004896E+00 0.71667175E+03</pdfrwt>
<pdfrwt beam="2">  1       -2 0.12475672E-01 0.71667175E+03</pdfrwt>
<totfact> 0.73108336E+02</totfact>
</mgrwt>
</event>
<event>
 4    1  0.5847263E-005  0.5186211E+03  0.7818608E-02  0.1009030E+00
          2   -1    0    0  501    0  0.00000000000E+00  0.00000000000E+00  0.17127677241E+04  0.17127677241E+04  0.25500000000E-02 0.  1.
         -2   -1    0    0    0  501 -0.00000000000E+00 -0.00000000000E+00 -0.39259242327E+02  0.39259242410E+02  0.25500000000E-02 0. -1.
    5000001    1    1    2    0    0 -0.57133092151E+02  0.79821721471E+02  0.35021407863E+03  0.41127800611E+03  0.19200000000E+03 0.  0.
   -5000001    1    1    2    0    0  0.57133092151E+02 -0.79821721471E+02  0.13232944032E+04  0.13407489604E+04  0.19200000000E+03 0.  0.
<mgrwt>
<rscale>  0 0.51862111E+03</rscale>
<asrwt>0</asrwt>
<pdfrwt beam="1">  1        2 0.24468106E+00 0.51862111E+03</pdfrwt>
<pdfrwt beam="2">  1       -2 0.56084642E-02 0.51862111E+03</pdfrwt>
<totfact> 0.19894454E+03</totfact>
</mgrwt>
</event>
<event>
 4    1  0.5847263E-005  0.5910741E+03  0.7818608E-02  0.9924099E-01
         -2   -1    0    0    0  501 -0.00000000000E+00  0.00000000000E+00  0.18405992651E+03  0.18405992652E+03  0.25500000000E-02 0. -1.
          2   -1    0    0  501    0  0.00000000000E+00 -0.00000000000E+00 -0.47453109765E+03  0.47453109766E+03  0.25500000000E-02 0.  1.
    5000001    1    1    2    0    0 -0.21830786903E+03 -0.53101872992E+02 -0.14540952350E+03  0.32937222731E+03  0.19200000000E+03 0.  0.
   -5000001    1    1    2    0    0  0.21830786903E+03  0.53101872992E+02 -0.14506164765E+03  0.32921879688E+03  0.19200000000E+03 0.  0.
<mgrwt>
<rscale>  0 0.59107414E+03</rscale>
<asrwt>0</asrwt>
<pdfrwt beam="1">  1        2 0.67790156E-01 0.59107414E+03</pdfrwt>
<pdfrwt beam="2">  1       -2 0.26294275E-01 0.59107414E+03</pdfrwt>
<totfact> 0.93442096E+02</totfact>
</mgrwt>
</event>
<event>
 4    1  0.5847263E-005  0.5790296E+03  0.7818608E-02  0.9949894E-01
          2   -1    0    0  501    0  0.00000000000E+00  0.00000000000E+00  0.17568531964E+04  0.17568531964E+04  0.25500000000E-02 0.  1.
         -2   -1    0    0    0  501 -0.00000000000E+00 -0.00000000000E+00 -0.47709624112E+02  0.47709624180E+02  0.25500000000E-02 0. -1.
    5000001    1    1    2    0    0 -0.16186971333E+03 -0.14363874210E+03  0.88884133717E+03  0.93473890204E+03  0.19200000000E+03 0.  0.
   -5000001    1    1    2    0    0  0.16186971333E+03  0.14363874210E+03  0.82030223511E+03  0.86982391853E+03  0.19200000000E+03 0.  0.
<mgrwt>
<rscale>  0 0.57902955E+03</rscale>
<asrwt>0</asrwt>
<pdfrwt beam="1">  1        2 0.25097906E+00 0.57902955E+03</pdfrwt>
<pdfrwt beam="2">  1       -2 0.68156598E-02 0.57902955E+03</pdfrwt>
<totfact> 0.13896334E+03</totfact>
</mgrwt>
</event>
<event>
 4    1  0.5847263E-005  0.4887543E+03  0.7818608E-02  0.1016757E+00
          2   -1    0    0  501    0  0.00000000000E+00  0.00000000000E+00  0.68185806882E+03  0.68185806882E+03  0.25500000000E-02 0.  1.
         -2   -1    0    0    0  501 -0.00000000000E+00 -0.00000000000E+00 -0.87584494981E+02  0.87584495018E+02  0.25500000000E-02 0. -1.
    5000001    1    1    2    0    0 -0.11224603688E+03  0.26554217775E+02  0.14327513825E+03  0.26588731545E+03  0.19200000000E+03 0.  0.
   -5000001    1    1    2    0    0  0.11224603688E+03 -0.26554217775E+02  0.45099843559E+03  0.50355524839E+03  0.19200000000E+03 0.  0.
<mgrwt>
<rscale>  0 0.48875431E+03</rscale>
<asrwt>0</asrwt>
<pdfrwt beam="1">  1        2 0.97408297E-01 0.48875431E+03</pdfrwt>
<pdfrwt beam="2">  1       -2 0.12512071E-01 0.48875431E+03</pdfrwt>
<totfact> 0.21996554E+03</totfact>
</mgrwt>
</event>
<event>
 4    1  0.5847263E-005  0.9632864E+03  0.7818608E-02  0.9349754E-01
         -2   -1    0    0    0  501 -0.00000000000E+00  0.00000000000E+00  0.25010937055E+03  0.25010937057E+03  0.25500000000E-02 0. -1.
          2   -1    0    0  501    0  0.00000000000E+00 -0.00000000000E+00 -0.92751484613E+03  0.92751484613E+03  0.25500000000E-02 0.  1.
    5000001    1    1    2    0    0  0.34434090920E+03 -0.27245449443E+03 -0.27989467853E+03  0.55498391360E+03  0.19200000000E+03 0.  0.
   -5000001    1    1    2    0    0 -0.34434090920E+03  0.27245449443E+03 -0.39751079704E+03  0.62264030310E+03  0.19200000000E+03 0.  0.
<mgrwt>
<rscale>  0 0.96328636E+03</rscale>
<asrwt>0</asrwt>
<pdfrwt beam="1">  1        2 0.13250212E+00 0.96328636E+03</pdfrwt>
<pdfrwt beam="2">  1       -2 0.35729910E-01 0.96328636E+03</pdfrwt>
<totfact> 0.22930237E+02</totfact>
</mgrwt>
</event>
<event>
 4    1  0.5847263E-005  0.1084324E+04  0.7818608E-02  0.9220607E-01
          2   -1    0    0  501    0  0.00000000000E+00  0.00000000000E+00  0.33539988531E+03  0.33539988532E+03  0.25500000000E-02 0.  1.
         -2   -1    0    0    0  501 -0.00000000000E+00 -0.00000000000E+00 -0.87638594338E+03  0.87638594338E+03  0.25500000000E-02 0. -1.
    5000001    1    1    2    0    0 -0.34545242169E+03 -0.35557420525E+03 -0.15166776268E+03  0.55284491616E+03  0.19200000000E+03 0.  0.
   -5000001    1    1    2    0    0  0.34545242169E+03  0.35557420525E+03 -0.38931829539E+03  0.65894091254E+03  0.19200000000E+03 0.  0.
<mgrwt>
<rscale>  0 0.10843242E+04</rscale>
<asrwt>0</asrwt>
<pdfrwt beam="1">  1        2 0.47914270E-01 0.10843242E+04</pdfrwt>
<pdfrwt beam="2">  1       -2 0.12519799E+00 0.10843242E+04</pdfrwt>
<totfact> 0.49993978E+01</totfact>
</mgrwt>
</event>
<event>
 4    1  0.5847263E-005  0.8129392E+03  0.7818608E-02  0.9541475E-01
         -2   -1    0    0    0  501 -0.00000000000E+00  0.00000000000E+00  0.21162222221E+03  0.21162222223E+03  0.25500000000E-02 0. -1.
          2   -1    0    0  501    0  0.00000000000E+00 -0.00000000000E+00 -0.78071918544E+03  0.78071918544E+03  0.25500000000E-02 0.  1.
    5000001    1    1    2    0    0  0.29426938790E+02  0.34657521083E+03 -0.17973158817E+03  0.43605935980E+03  0.19200000000E+03 0.  0.
   -5000001    1    1    2    0    0 -0.29426938790E+02 -0.34657521083E+03 -0.38936537505E+03  0.55628204786E+03  0.19200000000E+03 0.  0.
<mgrwt>
<rscale>  0 0.81293918E+03</rscale>
<asrwt>0</asrwt>
<pdfrwt beam="1">  1        2 0.11153131E+00 0.81293918E+03</pdfrwt>
<pdfrwt beam="2">  1       -2 0.30231746E-01 0.81293918E+03</pdfrwt>
<totfact> 0.39738923E+02</totfact>
</mgrwt>
</event>
<event>
 4    1  0.5847263E-005  0.6550260E+03  0.7818608E-02  0.9797394E-01
         -2   -1    0    0    0  501 -0.00000000000E+00  0.00000000000E+00  0.57736659050E+02  0.57736659106E+02  0.25500000000E-02 0. -1.
          2   -1    0    0  501    0  0.00000000000E+00 -0.00000000000E+00 -0.18578279005E+04  0.18578279005E+04  0.25500000000E-02 0.  1.
    5000001    1    1    2    0    0 -0.15965770332E+03 -0.19937379073E+03 -0.68997027058E+03  0.76037061026E+03  0.19200000000E+03 0.  0.
   -5000001    1    1    2    0    0  0.15965770332E+03  0.19937379073E+03 -0.11101209709E+04  0.11551939494E+04  0.19200000000E+03 0.  0.
<mgrwt>
<rscale>  0 0.65502603E+03</rscale>
<asrwt>0</asrwt>
<pdfrwt beam="1">  1        2 0.26540395E+00 0.65502603E+03</pdfrwt>
<pdfrwt beam="2">  1       -2 0.82480953E-02 0.65502603E+03</pdfrwt>
<totfact> 0.90929100E+02</totfact>
</mgrwt>
</event>
<event>
 4    1  0.5847263E-005  0.1152800E+04  0.7818608E-02  0.9155204E-01
          2   -1    0    0  501    0  0.00000000000E+00  0.00000000000E+00  0.12241056778E+04  0.12241056778E+04  0.25500000000E-02 0.  1.
         -2   -1    0    0    0  501 -0.00000000000E+00 -0.00000000000E+00 -0.27141191700E+03  0.27141191701E+03  0.25500000000E-02 0. -1.
    5000001    1    1    2    0    0 -0.44884251128E+03  0.29685384758E+03  0.57506951161E+03  0.81064835159E+03  0.19200000000E+03 0.  0.
   -5000001    1    1    2    0    0  0.44884251128E+03 -0.29685384758E+03  0.37762424923E+03  0.68486924326E+03  0.19200000000E+03 0.  0.
<mgrwt>
<rscale>  0 0.11527998E+04</rscale>
<asrwt>0</asrwt>
<pdfrwt beam="1">  1        2 0.17487224E+00 0.11527998E+04</pdfrwt>
<pdfrwt beam="2">  1       -2 0.38773131E-01 0.11527998E+04</pdfrwt>
<totfact> 0.12867446E+02</totfact>
</mgrwt>
</event>
<event>
 4    1  0.5847263E-005  0.5831679E+03  0.7818608E-02  0.9940956E-01
         -2   -1    0    0    0  501 -0.00000000000E+00  0.00000000000E+00  0.53192106590E+02  0.53192106652E+02  0.25500000000E-02 0.  1.
          2   -1    0    0  501    0  0.00000000000E+00 -0.00000000000E+00 -0.15983801494E+04  0.15983801494E+04  0.25500000000E-02 0. -1.
    5000001    1    1    2    0    0  0.19560340910E+03 -0.72868899863E+02 -0.96439514169E+03  0.10052325898E+04  0.19200000000E+03 0.  0.
   -5000001    1    1    2    0    0 -0.19560340910E+03  0.72868899863E+02 -0.58079290112E+03  0.64633966628E+03  0.19200000000E+03 0.  0.
<mgrwt>
<rscale>  0 0.58316793E+03</rscale>
<asrwt>0</asrwt>
<pdfrwt beam="1">  1        2 0.22833999E+00 0.58316793E+03</pdfrwt>
<pdfrwt beam="2">  1       -2 0.75988734E-02 0.58316793E+03</pdfrwt>
<totfact> 0.14086382E+03</totfact>
</mgrwt>
</event>
<event>
 4    1  0.5847263E-005  0.6646894E+03  0.7818608E-02  0.9779599E-01
          2   -1    0    0  501    0  0.00000000000E+00  0.00000000000E+00  0.12572477153E+04  0.12572477153E+04  0.25500000000E-02 0.  1.
         -2   -1    0    0    0  501 -0.00000000000E+00 -0.00000000000E+00 -0.87852999814E+02  0.87852999851E+02  0.25500000000E-02 0. -1.
    5000001    1    1    2    0    0  0.22304129141E+03 -0.15427587735E+03  0.57181583680E+03  0.66135150655E+03  0.19200000000E+03 0.  0.
   -5000001    1    1    2    0    0 -0.22304129141E+03  0.15427587735E+03  0.59757887867E+03  0.68374920858E+03  0.19200000000E+03 0.  0.
<mgrwt>
<rscale>  0 0.66468935E+03</rscale>
<asrwt>0</asrwt>
<pdfrwt beam="1">  1        2 0.17960682E+00 0.66468935E+03</pdfrwt>
<pdfrwt beam="2">  1       -2 0.12550429E-01 0.66468935E+03</pdfrwt>
<totfact> 0.94483821E+02</totfact>
</mgrwt>
</event>
<event>
 4    1  0.5847263E-005  0.4769408E+03  0.7818608E-02  0.1019979E+00
          2   -1    0    0  501    0  0.00000000000E+00  0.00000000000E+00  0.13725331971E+04  0.13725331971E+04  0.25500000000E-02 0.  1.
         -2   -1    0    0    0  501 -0.00000000000E+00 -0.00000000000E+00 -0.41432976473E+02  0.41432976551E+02  0.25500000000E-02 0. -1.
    5000001    1    1    2    0    0 -0.16881994023E+02 -0.13679812817E+03  0.57154633572E+03  0.61848843439E+03  0.19200000000E+03 0.  0.
   -5000001    1    1    2    0    0  0.16881994023E+02  0.13679812817E+03  0.75955388487E+03  0.79547773924E+03  0.19200000000E+03 0.  0.
<mgrwt>
<rscale>  0 0.47694082E+03</rscale>
<asrwt>0</asrwt>
<pdfrwt beam="1">  1        2 0.19607611E+00 0.47694082E+03</pdfrwt>
<pdfrwt beam="2">  1       -2 0.59189985E-02 0.47694082E+03</pdfrwt>
<totfact> 0.27418817E+03</totfact>
</mgrwt>
</event>
<event>
 4    1  0.5847263E-005  0.5659279E+03  0.7818608E-02  0.9978730E-01
          2   -1    0    0  501    0  0.00000000000E+00  0.00000000000E+00  0.16692307075E+04  0.16692307075E+04  0.25500000000E-02 0.  1.
         -2   -1    0    0    0  501 -0.00000000000E+00 -0.00000000000E+00 -0.47967369637E+02  0.47967369705E+02  0.25500000000E-02 0. -1.
    5000001    1    1    2    0    0  0.11393057569E+03  0.17205094980E+03  0.73490152544E+03  0.78709971256E+03  0.19200000000E+03 0.  0.
   -5000001    1    1    2    0    0 -0.11393057569E+03 -0.17205094980E+03  0.88636181238E+03  0.93009836461E+03  0.19200000000E+03 0.  0.
<mgrwt>
<rscale>  0 0.56592793E+03</rscale>
<asrwt>0</asrwt>
<pdfrwt beam="1">  1        2 0.23846147E+00 0.56592793E+03</pdfrwt>
<pdfrwt beam="2">  1       -2 0.68524830E-02 0.56592793E+03</pdfrwt>
<totfact> 0.15271824E+03</totfact>
</mgrwt>
</event>
<event>
 4    1  0.5847263E-005  0.9906662E+03  0.7818608E-02  0.9318842E-01
          2   -1    0    0  501    0  0.00000000000E+00  0.00000000000E+00  0.11224117346E+04  0.11224117346E+04  0.25500000000E-02 0.  1.
         -2   -1    0    0    0  501 -0.00000000000E+00 -0.00000000000E+00 -0.21859614654E+03  0.21859614655E+03  0.25500000000E-02 0. -1.
    5000001    1    1    2    0    0  0.10401888224E+03  0.31021810867E+03  0.20786622350E+02  0.37993589785E+03  0.19200000000E+03 0.  0.
   -5000001    1    1    2    0    0 -0.10401888224E+03 -0.31021810867E+03  0.88302896570E+03  0.96107198329E+03  0.19200000000E+03 0.  0.
<mgrwt>
<rscale>  0 0.99066620E+03</rscale>
<asrwt>0</asrwt>
<pdfrwt beam="1">  1        2 0.16034453E+00 0.99066620E+03</pdfrwt>
<pdfrwt beam="2">  1       -2 0.31228021E-01 0.99066620E+03</pdfrwt>
<totfact> 0.22454155E+02</totfact>
</mgrwt>
</event>
<event>
 4    1  0.5847263E-005  0.8243981E+03  0.7818608E-02  0.9525358E-01
          2   -1    0    0  501    0  0.00000000000E+00  0.00000000000E+00  0.66271740921E+03  0.66271740922E+03  0.25500000000E-02 0.  1.
         -2   -1    0    0    0  501 -0.00000000000E+00 -0.00000000000E+00 -0.25638088497E+03  0.25638088499E+03  0.25500000000E-02 0. -1.
    5000001    1    1    2    0    0 -0.11342315149E+03  0.27878330003E+03  0.43289446319E+03  0.56111189252E+03  0.19200000000E+03 0.  0.
   -5000001    1    1    2    0    0  0.11342315149E+03 -0.27878330003E+03 -0.26557938952E+02  0.35798640168E+03  0.19200000000E+03 0.  0.
<mgrwt>
<rscale>  0 0.82439815E+03</rscale>
<asrwt>0</asrwt>
<pdfrwt beam="1">  1        2 0.94673914E-01 0.82439815E+03</pdfrwt>
<pdfrwt beam="2">  1       -2 0.36625841E-01 0.82439815E+03</pdfrwt>
<totfact> 0.33910255E+02</totfact>
</mgrwt>
</event>
<event>
 4    1  0.5847263E-005  0.1066232E+04  0.7818608E-02  0.9238744E-01
         -2   -1    0    0    0  501 -0.00000000000E+00  0.00000000000E+00  0.51319827804E+03  0.51319827805E+03  0.25500000000E-02 0. -1.
          2   -1    0    0  501    0  0.00000000000E+00 -0.00000000000E+00 -0.55380679160E+03  0.55380679160E+03  0.25500000000E-02 0.  1.
    5000001    1    1    2    0    0 -0.29017145420E+03  0.40123211108E+03 -0.66835408908E+02  0.53527343636E+03  0.19200000000E+03 0.  0.
   -5000001    1    1    2    0    0  0.29017145420E+03 -0.40123211108E+03  0.26226895354E+02  0.53173163328E+03  0.19200000000E+03 0.  0.
<mgrwt>
<rscale>  0 0.10662320E+04</rscale>
<asrwt>0</asrwt>
<pdfrwt beam="1">  1        2 0.79115256E-01 0.10662320E+04</pdfrwt>
<pdfrwt beam="2">  1       -2 0.73314040E-01 0.10662320E+04</pdfrwt>
<totfact> 0.99734735E+01</totfact>
</mgrwt>
</event>
<event>
 4    1  0.5847263E-005  0.6119829E+03  0.7818608E-02  0.9880853E-01
         -2   -1    0    0    0  501 -0.00000000000E+00  0.00000000000E+00  0.11590843207E+03  0.11590843210E+03  0.25500000000E-02 0.  1.
          2   -1    0    0  501    0  0.00000000000E+00 -0.00000000000E+00 -0.80779946146E+03  0.80779946146E+03  0.25500000000E-02 0. -1.
    5000001    1    1    2    0    0 -0.22033664831E+03  0.76975321024E+02 -0.41822726763E+03  0.51599562597E+03  0.19200000000E+03 0.  0.
   -5000001    1    1    2    0    0  0.22033664831E+03 -0.76975321024E+02 -0.27366376176E+03  0.40771226758E+03  0.19200000000E+03 0.  0.
<mgrwt>
<rscale>  0 0.61198291E+03</rscale>
<asrwt>0</asrwt>
<pdfrwt beam="1">  1        2 0.11539992E+00 0.61198291E+03</pdfrwt>
<pdfrwt beam="2">  1       -2 0.16558348E-01 0.61198291E+03</pdfrwt>
<totfact> 0.11142174E+03</totfact>
</mgrwt>
</event>
<event>
 4    1  0.5847263E-005  0.6608919E+03  0.7818608E-02  0.9786553E-01
          2   -1    0    0  501    0  0.00000000000E+00  0.00000000000E+00  0.26023789221E+03  0.26023789222E+03  0.25500000000E-02 0.  1.
         -2   -1    0    0    0  501 -0.00000000000E+00 -0.00000000000E+00 -0.41959505989E+03  0.41959505989E+03  0.25500000000E-02 0. -1.
    5000001    1    1    2    0    0  0.22113652060E+03 -0.15083455757E+03 -0.10646543544E+03  0.34619548444E+03  0.19200000000E+03 0.  0.
   -5000001    1    1    2    0    0 -0.22113652060E+03  0.15083455757E+03 -0.52891732237E+02  0.33363746768E+03  0.19200000000E+03 0.  0.
<mgrwt>
<rscale>  0 0.66089192E+03</rscale>
<asrwt>0</asrwt>
<pdfrwt beam="1">  1        2 0.37176842E-01 0.66089192E+03</pdfrwt>
<pdfrwt beam="2">  1       -2 0.59942151E-01 0.66089192E+03</pdfrwt>
<totfact> 0.36605496E+02</totfact>
</mgrwt>
</event>
<event>
 4    1  0.5847263E-005  0.5824276E+03  0.7818608E-02  0.9942549E-01
          2   -1    0    0  501    0  0.00000000000E+00  0.00000000000E+00  0.12638356448E+04  0.12638356448E+04  0.25500000000E-02 0.  1.
         -2   -1    0    0    0  501 -0.00000000000E+00 -0.00000000000E+00 -0.67101671770E+02  0.67101671818E+02  0.25500000000E-02 0. -1.
    5000001    1    1    2    0    0 -0.62302355026E+02 -0.19896417190E+03  0.75120198898E+03  0.80289274090E+03  0.19200000000E+03 0.  0.
   -5000001    1    1    2    0    0  0.62302355026E+02  0.19896417190E+03  0.44553198409E+03  0.52804457576E+03  0.19200000000E+03 0.  0.
<mgrwt>
<rscale>  0 0.58242763E+03</rscale>
<asrwt>0</asrwt>
<pdfrwt beam="1">  1        2 0.18054794E+00 0.58242763E+03</pdfrwt>
<pdfrwt beam="2">  1       -2 0.95859537E-02 0.58242763E+03</pdfrwt>
<totfact> 0.14593188E+03</totfact>
</mgrwt>
</event>
<event>
 4    1  0.5847263E-005  0.1231813E+04  0.7818608E-02  0.9085457E-01
         -2   -1    0    0    0  501 -0.00000000000E+00  0.00000000000E+00  0.36850437630E+03  0.36850437631E+03  0.25500000000E-02 0. -1.
          2   -1    0    0  501    0  0.00000000000E+00 -0.00000000000E+00 -0.10294068153E+04  0.10294068153E+04  0.25500000000E-02 0.  1.
    5000001    1    1    2    0    0 -0.25231300723E+03 -0.47327855606E+03 -0.59616497987E+03  0.82457936457E+03  0.19200000000E+03 0.  0.
   -5000001    1    1    2    0    0  0.25231300723E+03  0.47327855606E+03 -0.64737459091E+02  0.57333182700E+03  0.19200000000E+03 0.  0.
<mgrwt>
<rscale>  0 0.12318132E+04</rscale>
<asrwt>0</asrwt>
<pdfrwt beam="1">  1        2 0.14705811E+00 0.12318132E+04</pdfrwt>
<pdfrwt beam="2">  1       -2 0.52643483E-01 0.12318132E+04</pdfrwt>
<totfact> 0.90338727E+01</totfact>
</mgrwt>
</event>
<event>
 4    1  0.5847263E-005  0.4668021E+03  0.7818608E-02  0.1022827E+00
          2   -1    0    0  501    0  0.00000000000E+00  0.00000000000E+00  0.15385754218E+04  0.15385754218E+04  0.25500000000E-02 0.  1.
         -2   -1    0    0    0  501 -0.00000000000E+00 -0.00000000000E+00 -0.35406806127E+02  0.35406806219E+02  0.25500000000E-02 0. -1.
    5000001    1    1    2    0    0  0.11334127389E+03  0.12125863551E+02  0.98073954804E+03  0.10058366378E+04  0.19200000000E+03 0.  0.
   -5000001    1    1    2    0    0 -0.11334127389E+03 -0.12125863551E+02  0.52242906766E+03  0.56814559021E+03  0.19200000000E+03 0.  0.
<mgrwt>
<rscale>  0 0.46680206E+03</rscale>
<asrwt>0</asrwt>
<pdfrwt beam="1">  1        2 0.21979649E+00 0.46680206E+03</pdfrwt>
<pdfrwt beam="2">  1       -2 0.50581151E-02 0.46680206E+03</pdfrwt>
<totfact> 0.28667268E+03</totfact>
</mgrwt>
</event>
<event>
 4    1  0.5847263E-005  0.5330817E+03  0.7818608E-02  0.1005487E+00
          2   -1    0    0  501    0  0.00000000000E+00  0.00000000000E+00  0.72610262455E+03  0.72610262456E+03  0.25500000000E-02 0.  1.
         -2   -1    0    0    0  501 -0.00000000000E+00 -0.00000000000E+00 -0.97842949625E+02  0.97842949659E+02  0.25500000000E-02 0. -1.
    5000001    1    1    2    0    0 -0.11132102798E+03  0.88806276066E+02  0.13189588759E+03  0.27301914054E+03  0.19200000000E+03 0.  0.
   -5000001    1    1    2    0    0  0.11132102798E+03 -0.88806276066E+02  0.49636378734E+03  0.55092643368E+03  0.19200000000E+03 0.  0.
<mgrwt>
<rscale>  0 0.53308169E+03</rscale>
<asrwt>0</asrwt>
<pdfrwt beam="1">  1        2 0.10372895E+00 0.53308169E+03</pdfrwt>
<pdfrwt beam="2">  1       -2 0.13977564E-01 0.53308169E+03</pdfrwt>
<totfact> 0.16961728E+03</totfact>
</mgrwt>
</event>
<event>
 4    1  0.5847263E-005  0.4606560E+03  0.7818608E-02  0.1024591E+00
         -2   -1    0    0    0  501 -0.00000000000E+00  0.00000000000E+00  0.22582229136E+03  0.22582229137E+03  0.25500000000E-02 0. -1.
          2   -1    0    0  501    0  0.00000000000E+00 -0.00000000000E+00 -0.23492358370E+03  0.23492358371E+03  0.25500000000E-02 0.  1.
    5000001    1    1    2    0    0  0.55735761286E+02  0.10354199154E+03  0.44034165501E+02  0.22941322287E+03  0.19200000000E+03 0.  0.
   -5000001    1    1    2    0    0 -0.55735761286E+02 -0.10354199154E+03 -0.53135457845E+02  0.23133265221E+03  0.19200000000E+03 0.  0.
<mgrwt>
<rscale>  0 0.46065598E+03</rscale>
<asrwt>0</asrwt>
<pdfrwt beam="1">  1        2 0.33560512E-01 0.46065598E+03</pdfrwt>
<pdfrwt beam="2">  1       -2 0.32260327E-01 0.46065598E+03</pdfrwt>
<totfact> 0.13972789E+03</totfact>
</mgrwt>
</event>
<event>
 4    1  0.5847263E-005  0.1013573E+04  0.7818608E-02  0.9293782E-01
          2   -1    0    0  501    0  0.00000000000E+00  0.00000000000E+00  0.14396425570E+04  0.14396425570E+04  0.25500000000E-02 0.  1.
         -2   -1    0    0    0  501 -0.00000000000E+00 -0.00000000000E+00 -0.17840038704E+03  0.17840038705E+03  0.25500000000E-02 0. -1.
    5000001    1    1    2    0    0  0.34367877679E+03 -0.17675370954E+03  0.20641831697E+03  0.47836126205E+03  0.19200000000E+03 0.  0.
   -5000001    1    1    2    0    0 -0.34367877679E+03  0.17675370954E+03  0.10548238530E+04  0.11396816820E+04  0.19200000000E+03 0.  0.
<mgrwt>
<rscale>  0 0.10135735E+04</rscale>
<asrwt>0</asrwt>
<pdfrwt beam="1">  1        2 0.20566323E+00 0.10135735E+04</pdfrwt>
<pdfrwt beam="2">  1       -2 0.25485769E-01 0.10135735E+04</pdfrwt>
<totfact> 0.21710259E+02</totfact>
</mgrwt>
</event>
<event>
 4    1  0.5847263E-005  0.5147911E+03  0.7818608E-02  0.1009989E+00
         -2   -1    0    0    0  501 -0.00000000000E+00  0.00000000000E+00  0.51602155490E+02  0.51602155553E+02  0.25500000000E-02 0. -1.
          2   -1    0    0  501    0  0.00000000000E+00 -0.00000000000E+00 -0.12839089705E+04  0.12839089705E+04  0.25500000000E-02 0.  1.
    5000001    1    1    2    0    0 -0.12135560738E+03 -0.62187355472E+01 -0.92986385932E+03  0.95722340808E+03  0.19200000000E+03 0.  0.
   -5000001    1    1    2    0    0  0.12135560738E+03  0.62187355472E+01 -0.30244295564E+03  0.37828771792E+03  0.19200000000E+03 0.  0.
<mgrwt>
<rscale>  0 0.51479110E+03</rscale>
<asrwt>0</asrwt>
<pdfrwt beam="1">  1        2 0.18341555E+00 0.51479110E+03</pdfrwt>
<pdfrwt beam="2">  1       -2 0.73717373E-02 0.51479110E+03</pdfrwt>
<totfact> 0.21672318E+03</totfact>
</mgrwt>
</event>
<event>
 4    1  0.5847263E-005  0.7353176E+03  0.7818608E-02  0.9658670E-01
         -2   -1    0    0    0  501 -0.00000000000E+00  0.00000000000E+00  0.97769503188E+02  0.97769503221E+02  0.25500000000E-02 0. -1.
          2   -1    0    0  501    0  0.00000000000E+00 -0.00000000000E+00 -0.13825680571E+04  0.13825680571E+04  0.25500000000E-02 0.  1.
    5000001    1    1    2    0    0  0.11707780676E+03  0.17459954443E+03 -0.11107290484E+04  0.11466364868E+04  0.19200000000E+03 0.  0.
   -5000001    1    1    2    0    0 -0.11707780676E+03 -0.17459954443E+03 -0.17406950547E+03  0.33370107355E+03  0.19200000000E+03 0.  0.
<mgrwt>
<rscale>  0 0.73531760E+03</rscale>
<asrwt>0</asrwt>
<pdfrwt beam="1">  1        2 0.19750971E+00 0.73531760E+03</pdfrwt>
<pdfrwt beam="2">  1       -2 0.13967073E-01 0.73531760E+03</pdfrwt>
<totfact> 0.67374234E+02</totfact>
</mgrwt>
</event>
<event>
 4    1  0.5847263E-005  0.8037636E+03  0.7818608E-02  0.9554585E-01
         -2   -1    0    0    0  501 -0.00000000000E+00  0.00000000000E+00  0.90497466422E+02  0.90497466458E+02  0.25500000000E-02 0. -1.
          2   -1    0    0  501    0  0.00000000000E+00 -0.00000000000E+00 -0.17846796876E+04  0.17846796876E+04  0.25500000000E-02 0.  1.
    5000001    1    1    2    0    0 -0.29972619841E+03  0.18651348306E+03 -0.83616911068E+03  0.92772078506E+03  0.19200000000E+03 0.  0.
   -5000001    1    1    2    0    0  0.29972619841E+03 -0.18651348306E+03 -0.85801311051E+03  0.94745636902E+03  0.19200000000E+03 0.  0.
<mgrwt>
<rscale>  0 0.80376362E+03</rscale>
<asrwt>0</asrwt>
<pdfrwt beam="1">  1        2 0.25495422E+00 0.80376362E+03</pdfrwt>
<pdfrwt beam="2">  1       -2 0.12928211E-01 0.80376362E+03</pdfrwt>
<totfact> 0.47170632E+02</totfact>
</mgrwt>
</event>
<event>
 4    1  0.5847263E-005  0.6661379E+03  0.7818608E-02  0.9776960E-01
          2   -1    0    0  501    0  0.00000000000E+00  0.00000000000E+00  0.20318103554E+04  0.20318103554E+04  0.25500000000E-02 0.  1.
         -2   -1    0    0    0  501 -0.00000000000E+00 -0.00000000000E+00 -0.54599048158E+02  0.54599048217E+02  0.25500000000E-02 0. -1.
    5000001    1    1    2    0    0  0.62008528557E+02  0.20183368870E+03  0.15264610815E+04  0.15529099551E+04  0.19200000000E+03 0.  0.
   -5000001    1    1    2    0    0 -0.62008528557E+02 -0.20183368870E+03  0.45075022580E+03  0.53349944852E+03  0.19200000000E+03 0.  0.
<mgrwt>
<rscale>  0 0.66613786E+03</rscale>
<asrwt>0</asrwt>
<pdfrwt beam="1">  1        2 0.29025867E+00 0.66613786E+03</pdfrwt>
<pdfrwt beam="2">  1       -2 0.77998628E-02 0.66613786E+03</pdfrwt>
<totfact> 0.81182479E+02</totfact>
</mgrwt>
</event>
<event>
 4    1  0.5847263E-005  0.4867533E+03  0.7818608E-02  0.1017295E+00
          2   -1    0    0  501    0  0.00000000000E+00  0.00000000000E+00  0.12562504957E+04  0.12562504957E+04  0.25500000000E-02 0.  1.
         -2   -1    0    0    0  501 -0.00000000000E+00 -0.00000000000E+00 -0.47149993163E+02  0.47149993232E+02  0.25500000000E-02 0. -1.
    5000001    1    1    2    0    0  0.13259140761E+03 -0.62830049382E+02  0.68216351535E+03  0.72369825076E+03  0.19200000000E+03 0.  0.
   -5000001    1    1    2    0    0 -0.13259140761E+03  0.62830049382E+02  0.52693698716E+03  0.57970223814E+03  0.19200000000E+03 0.  0.
<mgrwt>
<rscale>  0 0.48675334E+03</rscale>
<asrwt>0</asrwt>
<pdfrwt beam="1">  1        2 0.17946437E+00 0.48675334E+03</pdfrwt>
<pdfrwt beam="2">  1       -2 0.67357129E-02 0.48675334E+03</pdfrwt>
<totfact> 0.25870404E+03</totfact>
</mgrwt>
</event>
<event>
 4    1  0.5847263E-005  0.4735413E+03  0.7818608E-02  0.1020925E+00
         -2   -1    0    0    0  501 -0.00000000000E+00  0.00000000000E+00  0.35608160596E+02  0.35608160687E+02  0.25500000000E-02 0. -1.
          2   -1    0    0  501    0  0.00000000000E+00 -0.00000000000E+00 -0.15743677829E+04  0.15743677829E+04  0.25500000000E-02 0.  1.
    5000001    1    1    2    0    0 -0.13155979991E+03  0.30965388791E+02 -0.66572551370E+03  0.70591876009E+03  0.19200000000E+03 0.  0.
   -5000001    1    1    2    0    0  0.13155979991E+03 -0.30965388791E+02 -0.87303410862E+03  0.90405718352E+03  0.19200000000E+03 0.  0.
<mgrwt>
<rscale>  0 0.47354130E+03</rscale>
<asrwt>0</asrwt>
<pdfrwt beam="1">  1        2 0.22490964E+00 0.47354130E+03</pdfrwt>
<pdfrwt beam="2">  1       -2 0.50868811E-02 0.47354130E+03</pdfrwt>
<totfact> 0.27240103E+03</totfact>
</mgrwt>
</event>
<event>
 4    1  0.5847263E-005  0.6004224E+03  0.7818608E-02  0.9904530E-01
         -2   -1    0    0    0  501 -0.00000000000E+00  0.00000000000E+00  0.23676502708E+03  0.23676502710E+03  0.25500000000E-02 0. -1.
          2   -1    0    0  501    0  0.00000000000E+00 -0.00000000000E+00 -0.38065912406E+03  0.38065912407E+03  0.25500000000E-02 0.  1.
    5000001    1    1    2    0    0  0.53042502874E+02 -0.22256716027E+03 -0.10302058042E+03  0.31595393324E+03  0.19200000000E+03 0.  0.
   -5000001    1    1    2    0    0 -0.53042502874E+02  0.22256716027E+03 -0.40873516551E+02  0.30147021792E+03  0.19200000000E+03 0.  0.
<mgrwt>
<rscale>  0 0.60042241E+03</rscale>
<asrwt>0</asrwt>
<pdfrwt beam="1">  1        2 0.54379875E-01 0.60042241E+03</pdfrwt>
<pdfrwt beam="2">  1       -2 0.33823575E-01 0.60042241E+03</pdfrwt>
<totfact> 0.75096095E+02</totfact>
</mgrwt>
</event>
<event>
 4    1  0.5847263E-005  0.5754322E+03  0.7818608E-02  0.9957730E-01
          2   -1    0    0  501    0  0.00000000000E+00  0.00000000000E+00  0.18643014246E+04  0.18643014246E+04  0.25500000000E-02 0. -1.
         -2   -1    0    0    0  501 -0.00000000000E+00 -0.00000000000E+00 -0.44402981414E+02  0.44402981487E+02  0.25500000000E-02 0.  1.
    5000001    1    1    2    0    0  0.13642517886E+03  0.12587158478E+03  0.55484415276E+03  0.61576904691E+03  0.19200000000E+03 0.  0.
   -5000001    1    1    2    0    0 -0.13642517886E+03 -0.12587158478E+03  0.12650542904E+04  0.12929353591E+04  0.19200000000E+03 0.  0.
<mgrwt>
<rscale>  0 0.57543216E+03</rscale>
<asrwt>0</asrwt>
<pdfrwt beam="1">  1        2 0.26632876E+00 0.57543216E+03</pdfrwt>
<pdfrwt beam="2">  1       -2 0.63432834E-02 0.57543216E+03</pdfrwt>
<totfact> 0.13736332E+03</totfact>
</mgrwt>
</event>
<event>
 4    1  0.5847263E-005  0.5855903E+03  0.7818608E-02  0.9935761E-01
          2   -1    0    0  501    0  0.00000000000E+00  0.00000000000E+00  0.13773744168E+04  0.13773744168E+04  0.25500000000E-02 0.  1.
         -2   -1    0    0    0  501 -0.00000000000E+00 -0.00000000000E+00 -0.62240878906E+02  0.62240878958E+02  0.25500000000E-02 0. -1.
    5000001    1    1    2    0    0 -0.19237591037E+03 -0.10827310282E+03  0.68596513761E+03  0.74575044465E+03  0.19200000000E+03 0.  0.
   -5000001    1    1    2    0    0  0.19237591037E+03  0.10827310282E+03  0.62916840027E+03  0.69386485110E+03  0.19200000000E+03 0.  0.
<mgrwt>
<rscale>  0 0.58559028E+03</rscale>
<asrwt>0</asrwt>
<pdfrwt beam="1">  1        2 0.19676778E+00 0.58559028E+03</pdfrwt>
<pdfrwt beam="2">  1       -2 0.88915539E-02 0.58559028E+03</pdfrwt>
<totfact> 0.14299086E+03</totfact>
</mgrwt>
</event>
<event>
 4    1  0.5847263E-005  0.6602444E+03  0.7818608E-02  0.9787744E-01
          2   -1    0    0  501    0  0.00000000000E+00  0.00000000000E+00  0.29573395239E+04  0.29573395239E+04  0.25500000000E-02 0.  1.
         -2   -1    0    0    0  501 -0.00000000000E+00 -0.00000000000E+00 -0.36850915930E+02  0.36850916018E+02  0.25500000000E-02 0. -1.
    5000001    1    1    2    0    0  0.12682783785E+03  0.20158817625E+03  0.89758635184E+03  0.94828706216E+03  0.19200000000E+03 0.  0.
   -5000001    1    1    2    0    0 -0.12682783785E+03 -0.20158817625E+03  0.20229022561E+04  0.20459033778E+04  0.19200000000E+03 0.  0.
<mgrwt>
<rscale>  0 0.66024441E+03</rscale>
<asrwt>0</asrwt>
<pdfrwt beam="1">  1        2 0.42247717E+00 0.66024441E+03</pdfrwt>
<pdfrwt beam="2">  1       -2 0.52644153E-02 0.66024441E+03</pdfrwt>
<totfact> 0.50101851E+02</totfact>
</mgrwt>
</event>
<event>
 4    1  0.5847263E-005  0.6483702E+03  0.7818608E-02  0.9809842E-01
         -2   -1    0    0    0  501 -0.00000000000E+00  0.00000000000E+00  0.60791238136E+02  0.60791238190E+02  0.25500000000E-02 0. -1.
          2   -1    0    0  501    0  0.00000000000E+00 -0.00000000000E+00 -0.17288014051E+04  0.17288014051E+04  0.25500000000E-02 0.  1.
    5000001    1    1    2    0    0  0.96918766602E+02 -0.24240429910E+03 -0.80949006277E+03  0.87194681791E+03  0.19200000000E+03 0.  0.
   -5000001    1    1    2    0    0 -0.96918766602E+02  0.24240429910E+03 -0.85852010422E+03  0.91764582541E+03  0.19200000000E+03 0.  0.
<mgrwt>
<rscale>  0 0.64837020E+03</rscale>
<asrwt>0</asrwt>
<pdfrwt beam="1">  1        2 0.24697160E+00 0.64837020E+03</pdfrwt>
<pdfrwt beam="2">  1       -2 0.86844637E-02 0.64837020E+03</pdfrwt>
<totfact> 0.97354217E+02</totfact>
</mgrwt>
</event>
<event>
 4    1  0.5847263E-005  0.5329940E+03  0.7818608E-02  0.1005509E+00
          2   -1    0    0  501    0  0.00000000000E+00  0.00000000000E+00  0.12586969726E+04  0.12586969726E+04  0.25500000000E-02 0.  1.
         -2   -1    0    0    0  501 -0.00000000000E+00 -0.00000000000E+00 -0.56423947905E+02  0.56423947963E+02  0.25500000000E-02 0. -1.
    5000001    1    1    2    0    0 -0.17729742338E+03 -0.18250683112E+02  0.48053060345E+03  0.54730350320E+03  0.19200000000E+03 0.  0.
   -5000001    1    1    2    0    0  0.17729742338E+03  0.18250683112E+02  0.72174242121E+03  0.76781741732E+03  0.19200000000E+03 0.  0.
<mgrwt>
<rscale>  0 0.53299401E+03</rscale>
<asrwt>0</asrwt>
<pdfrwt beam="1">  1        2 0.17981385E+00 0.53299401E+03</pdfrwt>
<pdfrwt beam="2">  1       -2 0.80605640E-02 0.53299401E+03</pdfrwt>
<totfact> 0.19410261E+03</totfact>
</mgrwt>
</event>
<event>
 4    1  0.5847263E-005  0.1181924E+04  0.7818608E-02  0.9128827E-01
         -2   -1    0    0    0  501 -0.00000000000E+00  0.00000000000E+00  0.10085079740E+03  0.10085079743E+03  0.25500000000E-02 0. -1.
          2   -1    0    0  501    0  0.00000000000E+00 -0.00000000000E+00 -0.34628985083E+04  0.34628985083E+04  0.25500000000E-02 0.  1.
    5000001    1    1    2    0    0  0.42810572642E+03 -0.33589015119E+03 -0.12963585427E+04  0.14189806827E+04  0.19200000000E+03 0.  0.
   -5000001    1    1    2    0    0 -0.42810572642E+03  0.33589015119E+03 -0.20656891683E+04  0.21447686231E+04  0.19200000000E+03 0.  0.
<mgrwt>
<rscale>  0 0.11819240E+04</rscale>
<asrwt>0</asrwt>
<pdfrwt beam="1">  1        2 0.49469971E+00 0.11819240E+04</pdfrwt>
<pdfrwt beam="2">  1       -2 0.14407259E-01 0.11819240E+04</pdfrwt>
<totfact> 0.48052072E+01</totfact>
</mgrwt>
</event>
<event>
 4    1  0.5847263E-005  0.9075341E+03  0.7818608E-02  0.9416212E-01
         -2   -1    0    0    0  501 -0.00000000000E+00  0.00000000000E+00  0.37109299875E+03  0.37109299876E+03  0.25500000000E-02 0. -1.
          2   -1    0    0  501    0  0.00000000000E+00 -0.00000000000E+00 -0.55485967804E+03  0.55485967804E+03  0.25500000000E-02 0.  1.
    5000001    1    1    2    0    0 -0.64361233888E+02 -0.24320881422E+03 -0.42367173121E+03  0.52882381903E+03  0.19200000000E+03 0.  0.
   -5000001    1    1    2    0    0  0.64361233888E+02  0.24320881422E+03  0.23990505193E+03  0.39712885778E+03  0.19200000000E+03 0.  0.
<mgrwt>
<rscale>  0 0.90753411E+03</rscale>
<asrwt>0</asrwt>
<pdfrwt beam="1">  1        2 0.79265669E-01 0.90753411E+03</pdfrwt>
<pdfrwt beam="2">  1       -2 0.53013285E-01 0.90753411E+03</pdfrwt>
<totfact> 0.20022507E+02</totfact>
</mgrwt>
</event>
<event>
 4    1  0.5847263E-005  0.4235984E+03  0.7818608E-02  0.1035901E+00
         -2   -1    0    0    0  501 -0.00000000000E+00  0.00000000000E+00  0.86895925532E+02  0.86895925570E+02  0.25500000000E-02 0. -1.
          2   -1    0    0  501    0  0.00000000000E+00 -0.00000000000E+00 -0.51623719125E+03  0.51623719126E+03  0.25500000000E-02 0.  1.
    5000001    1    1    2    0    0 -0.38556633250E+02  0.80164924729E+02 -0.20178676687E+03  0.29239515798E+03  0.19200000000E+03 0.  0.
   -5000001    1    1    2    0    0  0.38556633250E+02 -0.80164924729E+02 -0.22755449885E+03  0.31073795885E+03  0.19200000000E+03 0.  0.
<mgrwt>
<rscale>  0 0.42359844E+03</rscale>
<asrwt>0</asrwt>
<pdfrwt beam="1">  1        2 0.73748169E-01 0.42359844E+03</pdfrwt>
<pdfrwt beam="2">  1       -2 0.12413704E-01 0.42359844E+03</pdfrwt>
<totfact> 0.30766672E+03</totfact>
</mgrwt>
</event>
<event>
 4    1  0.5847263E-005  0.5933761E+03  0.7818608E-02  0.9919245E-01
         -2   -1    0    0    0  501 -0.00000000000E+00  0.00000000000E+00  0.42546392484E+02  0.42546392560E+02  0.25500000000E-02 0. -1.
          2   -1    0    0  501    0  0.00000000000E+00 -0.00000000000E+00 -0.20688899532E+04  0.20688899532E+04  0.25500000000E-02 0.  1.
    5000001    1    1    2    0    0 -0.21315179231E+03 -0.62107902074E+02 -0.85934897000E+03  0.90809456022E+03  0.19200000000E+03 0.  0.
   -5000001    1    1    2    0    0  0.21315179231E+03  0.62107902074E+02 -0.11669945908E+04  0.12033417856E+04  0.19200000000E+03 0.  0.
<mgrwt>
<rscale>  0 0.59337612E+03</rscale>
<asrwt>0</asrwt>
<pdfrwt beam="1">  1        2 0.29555564E+00 0.59337612E+03</pdfrwt>
<pdfrwt beam="2">  1       -2 0.60780574E-02 0.59337612E+03</pdfrwt>
<totfact> 0.11583702E+03</totfact>
</mgrwt>
</event>
<event>
 4    1  0.5847263E-005  0.4368679E+03  0.7818608E-02  0.1031712E+00
         -2   -1    0    0    0  501 -0.00000000000E+00  0.00000000000E+00  0.16972956747E+03  0.16972956749E+03  0.25500000000E-02 0. -1.
          2   -1    0    0  501    0  0.00000000000E+00 -0.00000000000E+00 -0.28111417989E+03  0.28111417990E+03  0.25500000000E-02 0.  1.
    5000001    1    1    2    0    0 -0.11781125048E+02 -0.10340302055E+03 -0.60120089377E+02  0.22651579352E+03  0.19200000000E+03 0.  0.
   -5000001    1    1    2    0    0  0.11781125048E+02  0.10340302055E+03 -0.51264523041E+02  0.22432795387E+03  0.19200000000E+03 0.  0.
<mgrwt>
<rscale>  0 0.43686789E+03</rscale>
<asrwt>0</asrwt>
<pdfrwt beam="1">  1        2 0.40159168E-01 0.43686789E+03</pdfrwt>
<pdfrwt beam="2">  1       -2 0.24247081E-01 0.43686789E+03</pdfrwt>
<totfact> 0.19252316E+03</totfact>
</mgrwt>
</event>
<event>
 4    1  0.5847263E-005  0.9186506E+03  0.7818608E-02  0.9402563E-01
          2   -1    0    0  501    0  0.00000000000E+00  0.00000000000E+00  0.42486077284E+03  0.42486077285E+03  0.25500000000E-02 0.  1.
         -2   -1    0    0    0  501 -0.00000000000E+00 -0.00000000000E+00 -0.49658558231E+03  0.49658558232E+03  0.25500000000E-02 0. -1.
    5000001    1    1    2    0    0 -0.32305367219E+03  0.79424827723E+02  0.21678458797E+03  0.44105729328E+03  0.19200000000E+03 0.  0.
   -5000001    1    1    2    0    0  0.32305367219E+03 -0.79424827723E+02 -0.28850939743E+03  0.48038906189E+03  0.19200000000E+03 0.  0.
<mgrwt>
<rscale>  0 0.91865061E+03</rscale>
<asrwt>0</asrwt>
<pdfrwt beam="1">  1        2 0.60694397E-01 0.91865061E+03</pdfrwt>
<pdfrwt beam="2">  1       -2 0.70940797E-01 0.91865061E+03</pdfrwt>
<totfact> 0.14634322E+02</totfact>
</mgrwt>
</event>
<event>
 4    1  0.5847263E-005  0.5388732E+03  0.7818608E-02  0.1004103E+00
         -2   -1    0    0    0  501 -0.00000000000E+00  0.00000000000E+00  0.41382122239E+02  0.41382122318E+02  0.25500000000E-02 0. -1.
          2   -1    0    0  501    0  0.00000000000E+00 -0.00000000000E+00 -0.17542861895E+04  0.17542861895E+04  0.25500000000E-02 0.  1.
    5000001    1    1    2    0    0  0.21096315602E+02 -0.18506722106E+03 -0.96376724962E+03  0.10002031005E+04  0.19200000000E+03 0.  0.
   -5000001    1    1    2    0    0 -0.21096315602E+02  0.18506722106E+03 -0.74913681760E+03  0.79546521126E+03  0.19200000000E+03 0.  0.
<mgrwt>
<rscale>  0 0.53887322E+03</rscale>
<asrwt>0</asrwt>
<pdfrwt beam="1">  1        2 0.25061227E+00 0.53887322E+03</pdfrwt>
<pdfrwt beam="2">  1       -2 0.59117329E-02 0.53887322E+03</pdfrwt>
<totfact> 0.17451433E+03</totfact>
</mgrwt>
</event>
<event>
 4    1  0.5847263E-005  0.7697655E+03  0.7818608E-02  0.9604842E-01
         -2   -1    0    0    0  501 -0.00000000000E+00  0.00000000000E+00  0.18326644006E+04  0.18326644006E+04  0.25500000000E-02 0. -1.
          2   -1    0    0  501    0  0.00000000000E+00 -0.00000000000E+00 -0.80830254252E+02  0.80830254292E+02  0.25500000000E-02 0.  1.
    5000001    1    1    2    0    0  0.32208957597E+03 -0.11329602723E+02  0.10897647169E+04  0.11525281746E+04  0.19200000000E+03 0.  0.
   -5000001    1    1    2    0    0 -0.32208957597E+03  0.11329602723E+02  0.66206942942E+03  0.76096648035E+03  0.19200000000E+03 0.  0.
<mgrwt>
<rscale>  0 0.76976550E+03</rscale>
<asrwt>0</asrwt>
<pdfrwt beam="1">  1        2 0.11547181E-01 0.76976550E+03</pdfrwt>
<pdfrwt beam="2">  1       -2 0.26180916E+00 0.76976550E+03</pdfrwt>
<totfact> 0.31028728E+01</totfact>
</mgrwt>
</event>
<event>
 4    1  0.5847263E-005  0.6030499E+03  0.7818608E-02  0.9899099E-01
         -2   -1    0    0    0  501 -0.00000000000E+00  0.00000000000E+00  0.30225564387E+02  0.30225564495E+02  0.25500000000E-02 0. -1.
          2   -1    0    0  501    0  0.00000000000E+00 -0.00000000000E+00 -0.30079605149E+04  0.30079605149E+04  0.25500000000E-02 0.  1.
    5000001    1    1    2    0    0  0.48291980530E+02  0.18864212523E+03 -0.21288234920E+04  0.21463157798E+04  0.19200000000E+03 0.  0.
   -5000001    1    1    2    0    0 -0.48291980530E+02 -0.18864212523E+03 -0.84891145852E+03  0.89187029954E+03  0.19200000000E+03 0.  0.
<mgrwt>
<rscale>  0 0.60304993E+03</rscale>
<asrwt>0</asrwt>
<pdfrwt beam="1">  1        2 0.42970846E+00 0.60304993E+03</pdfrwt>
<pdfrwt beam="2">  1       -2 0.43179397E-02 0.60304993E+03</pdfrwt>
<totfact> 0.64279938E+02</totfact>
</mgrwt>
</event>
<event>
 4    1  0.5847263E-005  0.6464010E+03  0.7818608E-02  0.9813556E-01
         -2   -1    0    0    0  501 -0.00000000000E+00  0.00000000000E+00  0.11912281094E+03  0.11912281097E+03  0.25500000000E-02 0. -1.
          2   -1    0    0  501    0  0.00000000000E+00 -0.00000000000E+00 -0.87689802667E+03  0.87689802668E+03  0.25500000000E-02 0.  1.
    5000001    1    1    2    0    0 -0.25576357124E+03 -0.39464156338E+02 -0.41732096597E+03  0.52725061655E+03  0.19200000000E+03 0.  0.
   -5000001    1    1    2    0    0  0.25576357124E+03  0.39464156338E+02 -0.34045424976E+03  0.46877022110E+03  0.19200000000E+03 0.  0.
<mgrwt>
<rscale>  0 0.64640098E+03</rscale>
<asrwt>0</asrwt>
<pdfrwt beam="1">  1        2 0.12527114E+00 0.64640098E+03</pdfrwt>
<pdfrwt beam="2">  1       -2 0.17017545E-01 0.64640098E+03</pdfrwt>
<totfact> 0.95474248E+02</totfact>
</mgrwt>
</event>
<event>
 4    1  0.5847263E-005  0.4128997E+03  0.7818608E-02  0.1039402E+00
          2   -1    0    0  501    0  0.00000000000E+00  0.00000000000E+00  0.76278083559E+03  0.76278083559E+03  0.25500000000E-02 0.  1.
         -2   -1    0    0    0  501 -0.00000000000E+00 -0.00000000000E+00 -0.55876531822E+02  0.55876531881E+02  0.25500000000E-02 0. -1.
    5000001    1    1    2    0    0  0.45346135133E+02 -0.70854194535E+01  0.23364912229E+03  0.30587969447E+03  0.19200000000E+03 0.  0.
   -5000001    1    1    2    0    0 -0.45346135133E+02  0.70854194535E+01  0.47325518148E+03  0.51277767301E+03  0.19200000000E+03 0.  0.
<mgrwt>
<rscale>  0 0.41289973E+03</rscale>
<asrwt>0</asrwt>
<pdfrwt beam="1">  1        2 0.10896870E+00 0.41289973E+03</pdfrwt>
<pdfrwt beam="2">  1       -2 0.79823614E-02 0.41289973E+03</pdfrwt>
<totfact> 0.39493773E+03</totfact>
</mgrwt>
</event>
<event>
 4    1  0.5847263E-005  0.7158504E+03  0.7818608E-02  0.9690503E-01
         -2   -1    0    0    0  501 -0.00000000000E+00  0.00000000000E+00  0.31236533858E+03  0.31236533859E+03  0.25500000000E-02 0. -1.
          2   -1    0    0  501    0  0.00000000000E+00 -0.00000000000E+00 -0.41013012089E+03  0.41013012090E+03  0.25500000000E-02 0.  1.
    5000001    1    1    2    0    0 -0.76878096784E+02 -0.26886402621E+03 -0.16417203646E+03  0.37684819744E+03  0.19200000000E+03 0.  0.
   -5000001    1    1    2    0    0  0.76878096784E+02  0.26886402621E+03  0.66407254148E+02  0.34564726205E+03  0.19200000000E+03 0.  0.
<mgrwt>
<rscale>  0 0.71585036E+03</rscale>
<asrwt>0</asrwt>
<pdfrwt beam="1">  1        2 0.58590017E-01 0.71585036E+03</pdfrwt>
<pdfrwt beam="2">  1       -2 0.44623620E-01 0.71585036E+03</pdfrwt>
<totfact> 0.40336460E+02</totfact>
</mgrwt>
</event>
<event>
 4    1  0.5847263E-005  0.8236010E+03  0.7818608E-02  0.9526470E-01
          2   -1    0    0  501    0  0.00000000000E+00  0.00000000000E+00  0.13289011416E+04  0.13289011416E+04  0.25500000000E-02 0.  1.
         -2   -1    0    0    0  501 -0.00000000000E+00 -0.00000000000E+00 -0.12760894259E+03  0.12760894262E+03  0.25500000000E-02 0. -1.
    5000001    1    1    2    0    0  0.35550142191E+03 -0.45508097618E+02  0.71611784947E+03  0.82349318288E+03  0.19200000000E+03 0.  0.
   -5000001    1    1    2    0    0 -0.35550142191E+03  0.45508097618E+02  0.48517434955E+03  0.63301690135E+03  0.19200000000E+03 0.  0.
<mgrwt>
<rscale>  0 0.82360104E+03</rscale>
<asrwt>0</asrwt>
<pdfrwt beam="1">  1        2 0.18984302E+00 0.82360104E+03</pdfrwt>
<pdfrwt beam="2">  1       -2 0.18229849E-01 0.82360104E+03</pdfrwt>
<totfact> 0.45574079E+02</totfact>
</mgrwt>
</event>
<event>
 4    1  0.5847263E-005  0.6371854E+03  0.7818608E-02  0.9831127E-01
          2   -1    0    0  501    0  0.00000000000E+00  0.00000000000E+00  0.35842731829E+04  0.35842731829E+04  0.25500000000E-02 0.  1.
         -2   -1    0    0    0  501 -0.00000000000E+00 -0.00000000000E+00 -0.28318516169E+02  0.28318516284E+02  0.25500000000E-02 0. -1.
    5000001    1    1    2    0    0  0.13427170259E+03 -0.12763440508E+03  0.27651711031E+04  0.27780127179E+04  0.19200000000E+03 0.  0.
   -5000001    1    1    2    0    0 -0.13427170259E+03  0.12763440508E+03  0.79078356372E+03  0.83457898136E+03  0.19200000000E+03 0.  0.
<mgrwt>
<rscale>  0 0.63718537E+03</rscale>
<asrwt>0</asrwt>
<pdfrwt beam="1">  1        2 0.51203908E+00 0.63718537E+03</pdfrwt>
<pdfrwt beam="2">  1       -2 0.40455019E-02 0.63718537E+03</pdfrwt>
<totfact> 0.33112805E+02</totfact>
</mgrwt>
</event>
<event>
 4    1  0.5847263E-005  0.4167506E+03  0.7818608E-02  0.1038129E+00
          2   -1    0    0  501    0  0.00000000000E+00  0.00000000000E+00  0.28869925851E+02  0.28869925963E+02  0.25500000000E-02 0.  1.
         -2   -1    0    0    0  501 -0.00000000000E+00 -0.00000000000E+00 -0.15039967450E+04  0.15039967450E+04  0.25500000000E-02 0. -1.
    5000001    1    1    2    0    0 -0.51019949657E+02  0.60126896615E+02 -0.80518473030E+03  0.83150750379E+03  0.19200000000E+03 0.  0.
   -5000001    1    1    2    0    0  0.51019949657E+02 -0.60126896615E+02 -0.66994208880E+03  0.70135916713E+03  0.19200000000E+03 0.  0.
<mgrwt>
<rscale>  0 0.41675064E+03</rscale>
<asrwt>0</asrwt>
<pdfrwt beam="1">  1        2 0.41242761E-02 0.41675064E+03</pdfrwt>
<pdfrwt beam="2">  1       -2 0.21485663E+00 0.41675064E+03</pdfrwt>
<totfact> 0.23656106E+02</totfact>
</mgrwt>
</event>
<event>
 4    1  0.5847263E-005  0.7193713E+03  0.7818608E-02  0.9684666E-01
          2   -1    0    0  501    0  0.00000000000E+00  0.00000000000E+00  0.12966809036E+04  0.12966809036E+04  0.25500000000E-02 0.  1.
         -2   -1    0    0    0  501 -0.00000000000E+00 -0.00000000000E+00 -0.99773025275E+02  0.99773025308E+02  0.25500000000E-02 0. -1.
    5000001    1    1    2    0    0  0.34034808806E+02 -0.17396186538E+03  0.10782468770E+04  0.11094599706E+04  0.19200000000E+03 0.  0.
   -5000001    1    1    2    0    0 -0.34034808806E+02  0.17396186538E+03  0.11866100133E+03  0.28699395822E+03  0.19200000000E+03 0.  0.
<mgrwt>
<rscale>  0 0.71937133E+03</rscale>
<asrwt>0</asrwt>
<pdfrwt beam="1">  1        2 0.18524012E+00 0.71937133E+03</pdfrwt>
<pdfrwt beam="2">  1       -2 0.14253290E-01 0.71937133E+03</pdfrwt>
<totfact> 0.72537380E+02</totfact>
</mgrwt>
</event>
<event>
 4    1  0.5847263E-005  0.7997524E+03  0.7818608E-02  0.9560376E-01
         -2   -1    0    0    0  501 -0.00000000000E+00  0.00000000000E+00  0.96715405466E+02  0.96715405500E+02  0.25500000000E-02 0. -1.
          2   -1    0    0  501    0  0.00000000000E+00 -0.00000000000E+00 -0.16533145934E+04  0.16533145934E+04  0.25500000000E-02 0.  1.
    5000001    1    1    2    0    0  0.26754362110E+03 -0.19132406006E+03 -0.10449791908E+04  0.11122185012E+04  0.19200000000E+03 0.  0.
   -5000001    1    1    2    0    0 -0.26754362110E+03  0.19132406006E+03 -0.51161999708E+03  0.63781149767E+03  0.19200000000E+03 0.  0.
<mgrwt>
<rscale>  0 0.79975244E+03</rscale>
<asrwt>0</asrwt>
<pdfrwt beam="1">  1        2 0.23618778E+00 0.79975244E+03</pdfrwt>
<pdfrwt beam="2">  1       -2 0.13816487E-01 0.79975244E+03</pdfrwt>
<totfact> 0.49303264E+02</totfact>
</mgrwt>
</event>
<event>
 4    1  0.5847263E-005  0.6259078E+03  0.7818608E-02  0.9853067E-01
         -2   -1    0    0    0  501 -0.00000000000E+00  0.00000000000E+00  0.26183752239E+03  0.26183752240E+03  0.25500000000E-02 0. -1.
          2   -1    0    0  501    0  0.00000000000E+00 -0.00000000000E+00 -0.37404926480E+03  0.37404926481E+03  0.25500000000E-02 0.  1.
    5000001    1    1    2    0    0  0.11818739181E+02  0.20824420806E+03 -0.19077412493E+03  0.34170762287E+03  0.19200000000E+03 0.  0.
   -5000001    1    1    2    0    0 -0.11818739181E+02 -0.20824420806E+03  0.78562382516E+02  0.29417916434E+03  0.19200000000E+03 0.  0.
<mgrwt>
<rscale>  0 0.62590777E+03</rscale>
<asrwt>0</asrwt>
<pdfrwt beam="1">  1        2 0.53435609E-01 0.62590777E+03</pdfrwt>
<pdfrwt beam="2">  1       -2 0.37405361E-01 0.62590777E+03</pdfrwt>
<totfact> 0.63206323E+02</totfact>
</mgrwt>
</event>
<event>
 4    1  0.5847263E-005  0.5273322E+03  0.7818608E-02  0.1006881E+00
          2   -1    0    0  501    0  0.00000000000E+00  0.00000000000E+00  0.34183429869E+03  0.34183429870E+03  0.25500000000E-02 0.  1.
         -2   -1    0    0    0  501 -0.00000000000E+00 -0.00000000000E+00 -0.20337282115E+03  0.20337282116E+03  0.25500000000E-02 0. -1.
    5000001    1    1    2    0    0 -0.94364854208E+02  0.14985797516E+03  0.32043961458E+02  0.26315955976E+03  0.19200000000E+03 0.  0.
   -5000001    1    1    2    0    0  0.94364854208E+02 -0.14985797516E+03  0.10641751609E+03  0.28204756010E+03  0.19200000000E+03 0.  0.
<mgrwt>
<rscale>  0 0.52733217E+03</rscale>
<asrwt>0</asrwt>
<pdfrwt beam="1">  1        2 0.48833471E-01 0.52733217E+03</pdfrwt>
<pdfrwt beam="2">  1       -2 0.29053260E-01 0.52733217E+03</pdfrwt>
<totfact> 0.11223651E+03</totfact>
</mgrwt>
</event>
<event>
 4    1  0.5847263E-005  0.9794461E+03  0.7818608E-02  0.9331380E-01
         -2   -1    0    0    0  501 -0.00000000000E+00  0.00000000000E+00  0.26033688327E+03  0.26033688329E+03  0.25500000000E-02 0. -1.
          2   -1    0    0  501    0  0.00000000000E+00 -0.00000000000E+00 -0.92122430651E+03  0.92122430652E+03  0.25500000000E-02 0.  1.
    5000001    1    1    2    0    0 -0.24583830009E+03 -0.21806826119E+03  0.41330294543E+02  0.38283472880E+03  0.19200000000E+03 0.  0.
   -5000001    1    1    2    0    0  0.24583830009E+03  0.21806826119E+03 -0.70221771778E+03  0.79872646100E+03  0.19200000000E+03 0.  0.
<mgrwt>
<rscale>  0 0.97944610E+03</rscale>
<asrwt>0</asrwt>
<pdfrwt beam="1">  1        2 0.13160347E+00 0.97944610E+03</pdfrwt>
<pdfrwt beam="2">  1       -2 0.37190984E-01 0.97944610E+03</pdfrwt>
<totfact> 0.21412838E+02</totfact>
</mgrwt>
</event>
<event>
 4    1  0.5847263E-005  0.6856674E+03  0.7818608E-02  0.9742062E-01
          2   -1    0    0  501    0  0.00000000000E+00  0.00000000000E+00  0.65543751131E+03  0.65543751132E+03  0.25500000000E-02 0.  1.
         -2   -1    0    0    0  501 -0.00000000000E+00 -0.00000000000E+00 -0.17932287288E+03  0.17932287289E+03  0.25500000000E-02 0. -1.
    5000001    1    1    2    0    0  0.16467163021E+03 -0.20611262301E+03  0.10995498716E+03  0.34431563769E+03  0.19200000000E+03 0.  0.
   -5000001    1    1    2    0    0 -0.16467163021E+03  0.20611262301E+03  0.36615965128E+03  0.49044474652E+03  0.19200000000E+03 0.  0.
<mgrwt>
<rscale>  0 0.68566738E+03</rscale>
<asrwt>0</asrwt>
<pdfrwt beam="1">  1        2 0.93633930E-01 0.68566738E+03</pdfrwt>
<pdfrwt beam="2">  1       -2 0.25617553E-01 0.68566738E+03</pdfrwt>
<totfact> 0.67147868E+02</totfact>
</mgrwt>
</event>
<event>
 4    1  0.5847263E-005  0.7350170E+03  0.7818608E-02  0.9659154E-01
          2   -1    0    0  501    0  0.00000000000E+00  0.00000000000E+00  0.36567978909E+03  0.36567978910E+03  0.25500000000E-02 0.  1.
         -2   -1    0    0    0  501 -0.00000000000E+00 -0.00000000000E+00 -0.36934633871E+03  0.36934633872E+03  0.25500000000E-02 0. -1.
    5000001    1    1    2    0    0 -0.24116052465E+03 -0.16678643553E+03 -0.11238951238E+03  0.36806455442E+03  0.19200000000E+03 0.  0.
   -5000001    1    1    2    0    0  0.24116052465E+03  0.16678643553E+03  0.10872296276E+03  0.36696157341E+03  0.19200000000E+03 0.  0.
<mgrwt>
<rscale>  0 0.73501698E+03</rscale>
<asrwt>0</asrwt>
<pdfrwt beam="1">  1        2 0.52239970E-01 0.73501698E+03</pdfrwt>
<pdfrwt beam="2">  1       -2 0.52763762E-01 0.73501698E+03</pdfrwt>
<totfact> 0.32659954E+02</totfact>
</mgrwt>
</event>
<event>
 4    1  0.5847263E-005  0.5971756E+03  0.7818608E-02  0.9911283E-01
          2   -1    0    0  501    0  0.00000000000E+00  0.00000000000E+00  0.37180243074E+03  0.37180243074E+03  0.25500000000E-02 0.  1.
         -2   -1    0    0    0  501 -0.00000000000E+00 -0.00000000000E+00 -0.23979044673E+03  0.23979044675E+03  0.25500000000E-02 0. -1.
    5000001    1    1    2    0    0 -0.36974794295E+02 -0.22554827214E+03  0.58655495853E+02  0.30420983822E+03  0.19200000000E+03 0.  0.
   -5000001    1    1    2    0    0  0.36974794295E+02  0.22554827214E+03  0.73356488149E+02  0.30738303927E+03  0.19200000000E+03 0.  0.
<mgrwt>
<rscale>  0 0.59717559E+03</rscale>
<asrwt>0</asrwt>
<pdfrwt beam="1">  1        2 0.53114633E-01 0.59717559E+03</pdfrwt>
<pdfrwt beam="2">  1       -2 0.34255778E-01 0.59717559E+03</pdfrwt>
<totfact> 0.75261091E+02</totfact>
</mgrwt>
</event>
<event>
 4    1  0.5847263E-005  0.5543730E+03  0.7818608E-02  0.1000487E+00
         -2   -1    0    0    0  501 -0.00000000000E+00  0.00000000000E+00  0.75734553288E+03  0.75734553288E+03  0.25500000000E-02 0. -1.
          2   -1    0    0  501    0  0.00000000000E+00 -0.00000000000E+00 -0.10144952730E+03  0.10144952733E+03  0.25500000000E-02 0.  1.
    5000001    1    1    2    0    0 -0.15900486112E+03 -0.11551164769E+03  0.27118010433E+03  0.38604162418E+03  0.19200000000E+03 0.  0.
   -5000001    1    1    2    0    0  0.15900486112E+03  0.11551164769E+03  0.38471590125E+03  0.47275343604E+03  0.19200000000E+03 0.  0.
<mgrwt>
<rscale>  0 0.55437297E+03</rscale>
<asrwt>0</asrwt>
<pdfrwt beam="1">  1        2 0.14492790E-01 0.55437297E+03</pdfrwt>
<pdfrwt beam="2">  1       -2 0.10819221E+00 0.55437297E+03</pdfrwt>
<totfact> 0.28950187E+02</totfact>
</mgrwt>
</event>
<event>
 4    1  0.5847263E-005  0.4896930E+03  0.7818608E-02  0.1016505E+00
          2   -1    0    0  501    0  0.00000000000E+00  0.00000000000E+00  0.10438850752E+04  0.10438850752E+04  0.25500000000E-02 0.  1.
         -2   -1    0    0    0  501 -0.00000000000E+00 -0.00000000000E+00 -0.57429499972E+02  0.57429500029E+02  0.25500000000E-02 0. -1.
    5000001    1    1    2    0    0 -0.33964393952E+02 -0.14489645252E+03  0.56207906343E+03  0.61232788240E+03  0.19200000000E+03 0.  0.
   -5000001    1    1    2    0    0  0.33964393952E+02  0.14489645252E+03  0.42437651180E+03  0.48898669284E+03  0.19200000000E+03 0.  0.
<mgrwt>
<rscale>  0 0.48969296E+03</rscale>
<asrwt>0</asrwt>
<pdfrwt beam="1">  1        2 0.14912642E+00 0.48969296E+03</pdfrwt>
<pdfrwt beam="2">  1       -2 0.82042151E-02 0.48969296E+03</pdfrwt>
<totfact> 0.25002313E+03</totfact>
</mgrwt>
</event>
<event>
 4    1  0.5847263E-005  0.1118314E+04  0.7818608E-02  0.9187524E-01
          2   -1    0    0  501    0  0.00000000000E+00  0.00000000000E+00  0.35480894411E+03  0.35480894412E+03  0.25500000000E-02 0.  1.
         -2   -1    0    0    0  501 -0.00000000000E+00 -0.00000000000E+00 -0.88119647239E+03  0.88119647240E+03  0.25500000000E-02 0. -1.
    5000001    1    1    2    0    0 -0.46337035822E+03 -0.24710779604E+03 -0.26788787351E+03  0.62000182622E+03  0.19200000000E+03 0.  0.
   -5000001    1    1    2    0    0  0.46337035822E+03  0.24710779604E+03 -0.25849965477E+03  0.61600359030E+03  0.19200000000E+03 0.  0.
<mgrwt>
<rscale>  0 0.11183137E+04</rscale>
<asrwt>0</asrwt>
<pdfrwt beam="1">  1        2 0.50686992E-01 0.11183137E+04</pdfrwt>
<pdfrwt beam="2">  1       -2 0.12588521E+00 0.11183137E+04</pdfrwt>
<totfact> 0.46220889E+01</totfact>
</mgrwt>
</event>
<event>
 4    1  0.5847263E-005  0.6287316E+03  0.7818608E-02  0.9847527E-01
          2   -1    0    0  501    0  0.00000000000E+00  0.00000000000E+00  0.13190078025E+03  0.13190078027E+03  0.25500000000E-02 0.  1.
         -2   -1    0    0    0  501 -0.00000000000E+00 -0.00000000000E+00 -0.74924381764E+03  0.74924381765E+03  0.25500000000E-02 0. -1.
    5000001    1    1    2    0    0  0.11665648021E+03 -0.17324486921E+03 -0.49846163649E+03  0.57354208401E+03  0.19200000000E+03 0.  0.
   -5000001    1    1    2    0    0 -0.11665648021E+03  0.17324486921E+03 -0.11888140091E+03  0.30760251391E+03  0.19200000000E+03 0.  0.
<mgrwt>
<rscale>  0 0.62873156E+03</rscale>
<asrwt>0</asrwt>
<pdfrwt beam="1">  1        2 0.18842969E-01 0.62873156E+03</pdfrwt>
<pdfrwt beam="2">  1       -2 0.10703483E+00 0.62873156E+03</pdfrwt>
<totfact> 0.21651748E+02</totfact>
</mgrwt>
</event>
<event>
 4    1  0.5847263E-005  0.6298523E+03  0.7818608E-02  0.9845337E-01
         -2   -1    0    0    0  501 -0.00000000000E+00  0.00000000000E+00  0.18157719969E+03  0.18157719971E+03  0.25500000000E-02 0. -1.
          2   -1    0    0  501    0  0.00000000000E+00 -0.00000000000E+00 -0.54620551659E+03  0.54620551659E+03  0.25500000000E-02 0.  1.
    5000001    1    1    2    0    0  0.20995762516E+03 -0.40885911503E+02 -0.33101079899E+03  0.43839024986E+03  0.19200000000E+03 0.  0.
   -5000001    1    1    2    0    0 -0.20995762516E+03  0.40885911503E+02 -0.33617517909E+02  0.28939246644E+03  0.19200000000E+03 0.  0.
<mgrwt>
<rscale>  0 0.62985226E+03</rscale>
<asrwt>0</asrwt>
<pdfrwt beam="1">  1        2 0.78029359E-01 0.62985226E+03</pdfrwt>
<pdfrwt beam="2">  1       -2 0.25939600E-01 0.62985226E+03</pdfrwt>
<totfact> 0.81503765E+02</totfact>
</mgrwt>
</event>
<event>
 4    1  0.5847263E-005  0.5790098E+03  0.7818608E-02  0.9949937E-01
         -2   -1    0    0    0  501 -0.00000000000E+00  0.00000000000E+00  0.26344114883E+02  0.26344115006E+02  0.25500000000E-02 0. -1.
          2   -1    0    0  501    0  0.00000000000E+00 -0.00000000000E+00 -0.31814726838E+04  0.31814726838E+04  0.25500000000E-02 0.  1.
    5000001    1    1    2    0    0  0.20553834654E+03 -0.67120207498E+02 -0.14996173336E+04  0.15272417233E+04  0.19200000000E+03 0.  0.
   -5000001    1    1    2    0    0 -0.20553834654E+03  0.67120207498E+02 -0.16555112353E+04  0.16805750755E+04  0.19200000000E+03 0.  0.
<mgrwt>
<rscale>  0 0.57900978E+03</rscale>
<asrwt>0</asrwt>
<pdfrwt beam="1">  1        2 0.45449585E+00 0.57900978E+03</pdfrwt>
<pdfrwt beam="2">  1       -2 0.37634470E-02 0.57900978E+03</pdfrwt>
<totfact> 0.63837587E+02</totfact>
</mgrwt>
</event>
<event>
 4    1  0.5847263E-005  0.4443078E+03  0.7818608E-02  0.1029433E+00
          2   -1    0    0  501    0  0.00000000000E+00  0.00000000000E+00  0.11160182738E+04  0.11160182738E+04  0.25500000000E-02 0.  1.
         -2   -1    0    0    0  501 -0.00000000000E+00 -0.00000000000E+00 -0.44221826104E+02  0.44221826178E+02  0.25500000000E-02 0. -1.
    5000001    1    1    2    0    0  0.61741566424E+02  0.77985414086E+02  0.40288317220E+03  0.45724456943E+03  0.19200000000E+03 0.  0.
   -5000001    1    1    2    0    0 -0.61741566424E+02 -0.77985414086E+02  0.66891327551E+03  0.70299553056E+03  0.19200000000E+03 0.  0.
<mgrwt>
<rscale>  0 0.44430785E+03</rscale>
<asrwt>0</asrwt>
<pdfrwt beam="1">  1        2 0.15943115E+00 0.44430785E+03</pdfrwt>
<pdfrwt beam="2">  1       -2 0.63174048E-02 0.44430785E+03</pdfrwt>
<totfact> 0.34244022E+03</totfact>
</mgrwt>
</event>
<event>
 4    1  0.5847263E-005  0.6232788E+03  0.7818608E-02  0.9858253E-01
         -2   -1    0    0    0  501 -0.00000000000E+00  0.00000000000E+00  0.15384734506E+03  0.15384734508E+03  0.25500000000E-02 0. -1.
          2   -1    0    0  501    0  0.00000000000E+00 -0.00000000000E+00 -0.63126936241E+03  0.63126936241E+03  0.25500000000E-02 0.  1.
    5000001    1    1    2    0    0 -0.15630159400E+03 -0.15221574989E+03 -0.97005099568E+02  0.30638833552E+03  0.19200000000E+03 0.  0.
   -5000001    1    1    2    0    0  0.15630159400E+03  0.15221574989E+03 -0.38041691778E+03  0.47872837198E+03  0.19200000000E+03 0.  0.
<mgrwt>
<rscale>  0 0.62327880E+03</rscale>
<asrwt>0</asrwt>
<pdfrwt beam="1">  1        2 0.90181337E-01 0.62327880E+03</pdfrwt>
<pdfrwt beam="2">  1       -2 0.21978192E-01 0.62327880E+03</pdfrwt>
<totfact> 0.92463596E+02</totfact>
</mgrwt>
</event>
<event>
 4    1  0.5847263E-005  0.6251796E+03  0.7818608E-02  0.9854501E-01
          2   -1    0    0  501    0  0.00000000000E+00  0.00000000000E+00  0.12500863033E+03  0.12500863035E+03  0.25500000000E-02 0.  1.
         -2   -1    0    0    0  501 -0.00000000000E+00 -0.00000000000E+00 -0.78164520133E+03  0.78164520134E+03  0.25500000000E-02 0. -1.
    5000001    1    1    2    0    0 -0.56878926226E+02  0.21779426435E+03 -0.18200429169E+03  0.34736021077E+03  0.19200000000E+03 0.  0.
   -5000001    1    1    2    0    0  0.56878926226E+02 -0.21779426435E+03 -0.47463227932E+03  0.55929362092E+03  0.19200000000E+03 0.  0.
<mgrwt>
<rscale>  0 0.62517964E+03</rscale>
<asrwt>0</asrwt>
<pdfrwt beam="1">  1        2 0.17858376E-01 0.62517964E+03</pdfrwt>
<pdfrwt beam="2">  1       -2 0.11166360E+00 0.62517964E+03</pdfrwt>
<totfact> 0.20837939E+02</totfact>
</mgrwt>
</event>
<event>
 4    1  0.5847263E-005  0.6649097E+03  0.7818608E-02  0.9779197E-01
         -2   -1    0    0    0  501 -0.00000000000E+00  0.00000000000E+00  0.46230561266E+02  0.46230561336E+02  0.25500000000E-02 0. -1.
          2   -1    0    0  501    0  0.00000000000E+00 -0.00000000000E+00 -0.23907613647E+04  0.23907613647E+04  0.25500000000E-02 0.  1.
    5000001    1    1    2    0    0  0.10887369956E+03  0.24344450086E+03 -0.98741941250E+03  0.10406631557E+04  0.19200000000E+03 0.  0.
   -5000001    1    1    2    0    0 -0.10887369956E+03 -0.24344450086E+03 -0.13571113909E+04  0.13963287703E+04  0.19200000000E+03 0.  0.
<mgrwt>
<rscale>  0 0.66490974E+03</rscale>
<asrwt>0</asrwt>
<pdfrwt beam="1">  1        2 0.34153726E+00 0.66490974E+03</pdfrwt>
<pdfrwt beam="2">  1       -2 0.66043674E-02 0.66490974E+03</pdfrwt>
<totfact> 0.69566646E+02</totfact>
</mgrwt>
</event>
<event>
 4    1  0.5847263E-005  0.6048773E+03  0.7818608E-02  0.9895339E-01
          2   -1    0    0  501    0  0.00000000000E+00  0.00000000000E+00  0.48969156261E+03  0.48969156261E+03  0.25500000000E-02 0.  1.
         -2   -1    0    0    0  501 -0.00000000000E+00 -0.00000000000E+00 -0.18678926422E+03  0.18678926424E+03  0.25500000000E-02 0. -1.
    5000001    1    1    2    0    0  0.17051156303E+03  0.15378430257E+03  0.19995986512E+03  0.35996076523E+03  0.19200000000E+03 0.  0.
   -5000001    1    1    2    0    0 -0.17051156303E+03 -0.15378430257E+03  0.10294243326E+03  0.31652006163E+03  0.19200000000E+03 0.  0.
<mgrwt>
<rscale>  0 0.60487727E+03</rscale>
<asrwt>0</asrwt>
<pdfrwt beam="1">  1        2 0.69955938E-01 0.60487727E+03</pdfrwt>
<pdfrwt beam="2">  1       -2 0.26684180E-01 0.60487727E+03</pdfrwt>
<totfact> 0.87787048E+02</totfact>
</mgrwt>
</event>
<event>
 4    1  0.5847263E-005  0.5711427E+03  0.7818608E-02  0.9967153E-01
         -2   -1    0    0    0  501 -0.00000000000E+00  0.00000000000E+00  0.35066359663E+03  0.35066359664E+03  0.25500000000E-02 0. -1.
          2   -1    0    0  501    0  0.00000000000E+00 -0.00000000000E+00 -0.23256188440E+03  0.23256188441E+03  0.25500000000E-02 0.  1.
    5000001    1    1    2    0    0 -0.19706729493E+03  0.46770736479E+02 -0.27604071787E+01  0.27909611314E+03  0.19200000000E+03 0.  0.
   -5000001    1    1    2    0    0  0.19706729493E+03 -0.46770736479E+02  0.12086211941E+03  0.30412936792E+03  0.19200000000E+03 0.  0.
<mgrwt>
<rscale>  0 0.57114267E+03</rscale>
<asrwt>0</asrwt>
<pdfrwt beam="1">  1        2 0.33223127E-01 0.57114267E+03</pdfrwt>
<pdfrwt beam="2">  1       -2 0.50094799E-01 0.57114267E+03</pdfrwt>
<totfact> 0.60197916E+02</totfact>
</mgrwt>
</event>
<event>
 4    1  0.5847263E-005  0.6205453E+03  0.7818608E-02  0.9863675E-01
          2   -1    0    0  501    0  0.00000000000E+00  0.00000000000E+00  0.10402261716E+04  0.10402261716E+04  0.25500000000E-02 0.  1.
         -2   -1    0    0    0  501 -0.00000000000E+00 -0.00000000000E+00 -0.92546333448E+02  0.92546333483E+02  0.25500000000E-02 0. -1.
    5000001    1    1    2    0    0  0.21308789500E+03  0.14816632792E+02  0.68811919852E+03  0.74565274423E+03  0.19200000000E+03 0.  0.
   -5000001    1    1    2    0    0 -0.21308789500E+03 -0.14816632792E+02  0.25956063965E+03  0.38711976087E+03  0.19200000000E+03 0.  0.
<mgrwt>
<rscale>  0 0.62054530E+03</rscale>
<asrwt>0</asrwt>
<pdfrwt beam="1">  1        2 0.14860372E+00 0.62054530E+03</pdfrwt>
<pdfrwt beam="2">  1       -2 0.13220906E-01 0.62054530E+03</pdfrwt>
<totfact> 0.11556112E+03</totfact>
</mgrwt>
</event>
<event>
 4    1  0.5847263E-005  0.7437662E+03  0.7818608E-02  0.9645181E-01
          2   -1    0    0  501    0  0.00000000000E+00  0.00000000000E+00  0.44648717271E+03  0.44648717272E+03  0.25500000000E-02 0.  1.
         -2   -1    0    0    0  501 -0.00000000000E+00 -0.00000000000E+00 -0.30974467044E+03  0.30974467046E+03  0.25500000000E-02 0. -1.
    5000001    1    1    2    0    0 -0.23018842198E+03  0.21911167549E+03  0.47131272863E+02  0.37427529017E+03  0.19200000000E+03 0.  0.
   -5000001    1    1    2    0    0  0.23018842198E+03 -0.21911167549E+03  0.89611229404E+02  0.38195655301E+03  0.19200000000E+03 0.  0.
<mgrwt>
<rscale>  0 0.74376615E+03</rscale>
<asrwt>0</asrwt>
<pdfrwt beam="1">  1        2 0.63783881E-01 0.74376615E+03</pdfrwt>
<pdfrwt beam="2">  1       -2 0.44249239E-01 0.74376615E+03</pdfrwt>
<totfact> 0.37254927E+02</totfact>
</mgrwt>
</event>
<event>
 4    1  0.5847263E-005  0.8715805E+03  0.7818608E-02  0.9461821E-01
         -2   -1    0    0    0  501 -0.00000000000E+00  0.00000000000E+00  0.96240053479E+02  0.96240053513E+02  0.25500000000E-02 0. -1.
          2   -1    0    0  501    0  0.00000000000E+00 -0.00000000000E+00 -0.19733276961E+04  0.19733276961E+04  0.25500000000E-02 0.  1.
    5000001    1    1    2    0    0  0.11287668395E+03  0.26618979820E+03 -0.31277863587E+03  0.46721796787E+03  0.19200000000E+03 0.  0.
   -5000001    1    1    2    0    0 -0.11287668395E+03 -0.26618979820E+03 -0.15643090067E+04  0.16023497817E+04  0.19200000000E+03 0.  0.
<mgrwt>
<rscale>  0 0.87158055E+03</rscale>
<asrwt>0</asrwt>
<pdfrwt beam="1">  1        2 0.28190393E+00 0.87158055E+03</pdfrwt>
<pdfrwt beam="2">  1       -2 0.13748580E-01 0.87158055E+03</pdfrwt>
<totfact> 0.33968976E+02</totfact>
</mgrwt>
</event>
<event>
 4    1  0.5847263E-005  0.7055720E+03  0.7818608E-02  0.9707751E-01
         -2   -1    0    0    0  501 -0.00000000000E+00  0.00000000000E+00  0.24752480403E+03  0.24752480405E+03  0.25500000000E-02 0. -1.
          2   -1    0    0  501    0  0.00000000000E+00 -0.00000000000E+00 -0.50281005583E+03  0.50281005584E+03  0.25500000000E-02 0.  1.
    5000001    1    1    2    0    0  0.38420432476E+01  0.22913131119E+03  0.71530829014E+02  0.30740295796E+03  0.19200000000E+03 0.  0.
   -5000001    1    1    2    0    0 -0.38420432476E+01 -0.22913131119E+03 -0.32681608081E+03  0.44293190192E+03  0.19200000000E+03 0.  0.
<mgrwt>
<rscale>  0 0.70557200E+03</rscale>
<asrwt>0</asrwt>
<pdfrwt beam="1">  1        2 0.71830008E-01 0.70557200E+03</pdfrwt>
<pdfrwt beam="2">  1       -2 0.35360686E-01 0.70557200E+03</pdfrwt>
<totfact> 0.50387625E+02</totfact>
</mgrwt>
</event>
<event>
 4    1  0.5847263E-005  0.1133559E+04  0.7818608E-02  0.9173086E-01
         -2   -1    0    0    0  501 -0.00000000000E+00  0.00000000000E+00  0.15497012654E+04  0.15497012654E+04  0.25500000000E-02 0. -1.
          2   -1    0    0  501    0  0.00000000000E+00 -0.00000000000E+00 -0.20729108974E+03  0.20729108975E+03  0.25500000000E-02 0.  1.
    5000001    1    1    2    0    0  0.18948554314E+03  0.41181333130E+03  0.11065262381E+04  0.12110983885E+04  0.19200000000E+03 0.  0.
   -5000001    1    1    2    0    0 -0.18948554314E+03 -0.41181333130E+03  0.23588393757E+03  0.54589396672E+03  0.19200000000E+03 0.  0.
<mgrwt>
<rscale>  0 0.11335595E+04</rscale>
<asrwt>0</asrwt>
<pdfrwt beam="1">  1        2 0.29613012E-01 0.11335595E+04</pdfrwt>
<pdfrwt beam="2">  1       -2 0.22138590E+00 0.11335595E+04</pdfrwt>
<totfact> 0.17382196E+01</totfact>
</mgrwt>
</event>
<event>
 4    1  0.5847263E-005  0.1169806E+04  0.7818608E-02  0.9139704E-01
         -2   -1    0    0    0  501 -0.00000000000E+00  0.00000000000E+00  0.78634801626E+02  0.78634801667E+02  0.25500000000E-02 0. -1.
          2   -1    0    0  501    0  0.00000000000E+00 -0.00000000000E+00 -0.43506382016E+04  0.43506382016E+04  0.25500000000E-02 0.  1.
    5000001    1    1    2    0    0 -0.26836786566E+03 -0.40835398132E+03 -0.31122092169E+04  0.31561819490E+04  0.19200000000E+03 0.  0.
   -5000001    1    1    2    0    0  0.26836786566E+03  0.40835398132E+03 -0.11597941830E+04  0.12730910542E+04  0.19200000000E+03 0.  0.
<mgrwt>
<rscale>  0 0.11698061E+04</rscale>
<asrwt>0</asrwt>
<pdfrwt beam="1">  1        2 0.62151959E+00 0.11698061E+04</pdfrwt>
<pdfrwt beam="2">  1       -2 0.11233546E-01 0.11698061E+04</pdfrwt>
<totfact> 0.18685363E+01</totfact>
</mgrwt>
</event>
<event>
 4    1  0.5847263E-005  0.4190772E+03  0.7818608E-02  0.1037367E+00
          2   -1    0    0  501    0  0.00000000000E+00  0.00000000000E+00  0.34833972917E+03  0.34833972918E+03  0.25500000000E-02 0.  1.
         -2   -1    0    0    0  501 -0.00000000000E+00 -0.00000000000E+00 -0.12604486734E+03  0.12604486736E+03  0.25500000000E-02 0. -1.
    5000001    1    1    2    0    0 -0.12688093169E+02  0.66208839276E+02  0.54573216781E+02  0.21068183143E+03  0.19200000000E+03 0.  0.
   -5000001    1    1    2    0    0  0.12688093169E+02 -0.66208839276E+02  0.16772164505E+03  0.26370276511E+03  0.19200000000E+03 0.  0.
<mgrwt>
<rscale>  0 0.41907725E+03</rscale>
<asrwt>0</asrwt>
<pdfrwt beam="1">  1        2 0.49762819E-01 0.41907725E+03</pdfrwt>
<pdfrwt beam="2">  1       -2 0.18006410E-01 0.41907725E+03</pdfrwt>
<totfact> 0.25543147E+03</totfact>
</mgrwt>
</event>
<event>
 4    1  0.5847263E-005  0.5977729E+03  0.7818608E-02  0.9910037E-01
          2   -1    0    0  501    0  0.00000000000E+00  0.00000000000E+00  0.10398953949E+03  0.10398953952E+03  0.25500000000E-02 0.  1.
         -2   -1    0    0    0  501 -0.00000000000E+00 -0.00000000000E+00 -0.85905869013E+03  0.85905869013E+03  0.25500000000E-02 0. -1.
    5000001    1    1    2    0    0  0.11623242730E+03  0.13252150302E+03 -0.61319691489E+03  0.66629301538E+03  0.19200000000E+03 0.  0.
   -5000001    1    1    2    0    0 -0.11623242730E+03 -0.13252150302E+03 -0.14187223575E+03  0.29675521427E+03  0.19200000000E+03 0.  0.
<mgrwt>
<rscale>  0 0.59777293E+03</rscale>
<asrwt>0</asrwt>
<pdfrwt beam="1">  1        2 0.14855649E-01 0.59777293E+03</pdfrwt>
<pdfrwt beam="2">  1       -2 0.12272267E+00 0.59777293E+03</pdfrwt>
<totfact> 0.20645497E+02</totfact>
</mgrwt>
</event>
<event>
 4    1  0.5847263E-005  0.5107036E+03  0.7818608E-02  0.1011022E+00
         -2   -1    0    0    0  501 -0.00000000000E+00  0.00000000000E+00  0.17266012275E+03  0.17266012277E+03  0.25500000000E-02 0. -1.
          2   -1    0    0  501    0  0.00000000000E+00 -0.00000000000E+00 -0.37764675268E+03  0.37764675269E+03  0.25500000000E-02 0.  1.
    5000001    1    1    2    0    0 -0.13961446366E+03  0.66647563815E+02 -0.30964686529E+02  0.24850937213E+03  0.19200000000E+03 0.  0.
   -5000001    1    1    2    0    0  0.13961446366E+03 -0.66647563815E+02 -0.17402194340E+03  0.30179750332E+03  0.19200000000E+03 0.  0.
<mgrwt>
<rscale>  0 0.51070357E+03</rscale>
<asrwt>0</asrwt>
<pdfrwt beam="1">  1        2 0.53949536E-01 0.51070357E+03</pdfrwt>
<pdfrwt beam="2">  1       -2 0.24665732E-01 0.51070357E+03</pdfrwt>
<totfact> 0.13523128E+03</totfact>
</mgrwt>
</event>
<event>
 4    1  0.5847263E-005  0.7828044E+03  0.7818608E-02  0.9585246E-01
          2   -1    0    0  501    0  0.00000000000E+00  0.00000000000E+00  0.49004901639E+03  0.49004901639E+03  0.25500000000E-02 0.  1.
         -2   -1    0    0    0  501 -0.00000000000E+00 -0.00000000000E+00 -0.31261300047E+03  0.31261300048E+03  0.25500000000E-02 0. -1.
    5000001    1    1    2    0    0  0.32818109780E+01 -0.22951314022E+03  0.34739652381E+03  0.45851433628E+03  0.19200000000E+03 0.  0.
   -5000001    1    1    2    0    0 -0.32818109780E+01  0.22951314022E+03 -0.16996050789E+03  0.34414768060E+03  0.19200000000E+03 0.  0.
<mgrwt>
<rscale>  0 0.78280443E+03</rscale>
<asrwt>0</asrwt>
<pdfrwt beam="1">  1        2 0.70007002E-01 0.78280443E+03</pdfrwt>
<pdfrwt beam="2">  1       -2 0.44659000E-01 0.78280443E+03</pdfrwt>
<totfact> 0.32868858E+02</totfact>
</mgrwt>
</event>
<event>
 4    1  0.5847263E-005  0.8155790E+03  0.7818608E-02  0.9537737E-01
          2   -1    0    0  501    0  0.00000000000E+00  0.00000000000E+00  0.41788778423E+04  0.41788778423E+04  0.25500000000E-02 0.  1.
         -2   -1    0    0    0  501 -0.00000000000E+00 -0.00000000000E+00 -0.39793527715E+02  0.39793527797E+02  0.25500000000E-02 0. -1.
    5000001    1    1    2    0    0  0.88590771527E+02  0.20608865206E+03  0.61469191674E+03  0.68193182197E+03  0.19200000000E+03 0.  0.
   -5000001    1    1    2    0    0 -0.88590771527E+02 -0.20608865206E+03  0.35243923979E+04  0.35367395482E+04  0.19200000000E+03 0.  0.
<mgrwt>
<rscale>  0 0.81557904E+03</rscale>
<asrwt>0</asrwt>
<pdfrwt beam="1">  1        2 0.59698234E+00 0.81557904E+03</pdfrwt>
<pdfrwt beam="2">  1       -2 0.56847917E-02 0.81557904E+03</pdfrwt>
<totfact> 0.78066930E+01</totfact>
</mgrwt>
</event>
<event>
 4    1  0.5847263E-005  0.5925743E+03  0.7818608E-02  0.9920933E-01
          2   -1    0    0  501    0  0.00000000000E+00  0.00000000000E+00  0.39247077442E+04  0.39247077442E+04  0.25500000000E-02 0.  1.
         -2   -1    0    0    0  501 -0.00000000000E+00 -0.00000000000E+00 -0.22367544169E+02  0.22367544315E+02  0.25500000000E-02 0. -1.
    5000001    1    1    2    0    0 -0.21205823790E+03  0.13079674250E+02  0.24576741357E+04  0.24743010996E+04  0.19200000000E+03 0.  0.
   -5000001    1    1    2    0    0  0.21205823790E+03 -0.13079674250E+02  0.14446660644E+04  0.14727741890E+04  0.19200000000E+03 0.  0.
<mgrwt>
<rscale>  0 0.59257430E+03</rscale>
<asrwt>0</asrwt>
<pdfrwt beam="1">  1        2 0.56067241E+00 0.59257430E+03</pdfrwt>
<pdfrwt beam="2">  1       -2 0.31953642E-02 0.59257430E+03</pdfrwt>
<totfact> 0.29196699E+02</totfact>
</mgrwt>
</event>
<event>
 4    1  0.5847263E-005  0.4587434E+03  0.7818608E-02  0.1025146E+00
          2   -1    0    0  501    0  0.00000000000E+00  0.00000000000E+00  0.42447849580E+02  0.42447849657E+02  0.25500000000E-02 0.  1.
         -2   -1    0    0    0  501 -0.00000000000E+00 -0.00000000000E+00 -0.12394357008E+04  0.12394357008E+04  0.25500000000E-02 0. -1.
    5000001    1    1    2    0    0 -0.53144970281E+02 -0.11346386840E+03 -0.57894496069E+03  0.62268748567E+03  0.19200000000E+03 0.  0.
   -5000001    1    1    2    0    0  0.53144970281E+02  0.11346386840E+03 -0.61804289049E+03  0.65919606475E+03  0.19200000000E+03 0.  0.
<mgrwt>
<rscale>  0 0.45874342E+03</rscale>
<asrwt>0</asrwt>
<pdfrwt beam="1">  1        2 0.60639793E-02 0.45874342E+03</pdfrwt>
<pdfrwt beam="2">  1       -2 0.17706222E+00 0.45874342E+03</pdfrwt>
<totfact> 0.24795990E+02</totfact>
</mgrwt>
</event>
<event>
 4    1  0.5847263E-005  0.7743044E+03  0.7818608E-02  0.9597974E-01
         -2   -1    0    0    0  501 -0.00000000000E+00  0.00000000000E+00  0.11683574113E+03  0.11683574116E+03  0.25500000000E-02 0. -1.
          2   -1    0    0  501    0  0.00000000000E+00 -0.00000000000E+00 -0.12828849186E+04  0.12828849186E+04  0.25500000000E-02 0.  1.
    5000001    1    1    2    0    0 -0.18493038129E+03  0.24695197903E+03 -0.82446291411E+03  0.90099257634E+03  0.19200000000E+03 0.  0.
   -5000001    1    1    2    0    0  0.18493038129E+03 -0.24695197903E+03 -0.34158626333E+03  0.49872808339E+03  0.19200000000E+03 0.  0.
<mgrwt>
<rscale>  0 0.77430436E+03</rscale>
<asrwt>0</asrwt>
<pdfrwt beam="1">  1        2 0.18326927E+00 0.77430436E+03</pdfrwt>
<pdfrwt beam="2">  1       -2 0.16690821E-01 0.77430436E+03</pdfrwt>
<totfact> 0.56346026E+02</totfact>
</mgrwt>
</event>
<event>
 4    1  0.5847263E-005  0.5448153E+03  0.7818608E-02  0.1002701E+00
         -2   -1    0    0    0  501 -0.00000000000E+00  0.00000000000E+00  0.23606214020E+03  0.23606214022E+03  0.25500000000E-02 0. -1.
          2   -1    0    0  501    0  0.00000000000E+00 -0.00000000000E+00 -0.31434910475E+03  0.31434910476E+03  0.25500000000E-02 0.  1.
    5000001    1    1    2    0    0  0.16757298736E+03 -0.89375477802E+02 -0.30944833075E+01  0.27007824413E+03  0.19200000000E+03 0.  0.
   -5000001    1    1    2    0    0 -0.16757298736E+03  0.89375477802E+02 -0.75192481236E+02  0.28033300084E+03  0.19200000000E+03 0.  0.
<mgrwt>
<rscale>  0 0.54481528E+03</rscale>
<asrwt>0</asrwt>
<pdfrwt beam="1">  1        2 0.44907015E-01 0.54481528E+03</pdfrwt>
<pdfrwt beam="2">  1       -2 0.33723163E-01 0.54481528E+03</pdfrwt>
<totfact> 0.93329027E+02</totfact>
</mgrwt>
</event>
<event>
 4    1  0.5847263E-005  0.5321737E+03  0.7818608E-02  0.1005706E+00
          2   -1    0    0  501    0  0.00000000000E+00  0.00000000000E+00  0.83765982138E+03  0.83765982138E+03  0.25500000000E-02 0.  1.
         -2   -1    0    0    0  501 -0.00000000000E+00 -0.00000000000E+00 -0.84523812298E+02  0.84523812337E+02  0.25500000000E-02 0. -1.
    5000001    1    1    2    0    0  0.17444225897E+03  0.45408206451E+02  0.44246678875E+03  0.51491054181E+03  0.19200000000E+03 0.  0.
   -5000001    1    1    2    0    0 -0.17444225897E+03 -0.45408206451E+02  0.31066922034E+03  0.40727309191E+03  0.19200000000E+03 0.  0.
<mgrwt>
<rscale>  0 0.53217366E+03</rscale>
<asrwt>0</asrwt>
<pdfrwt beam="1">  1        2 0.11966568E+00 0.53217366E+03</pdfrwt>
<pdfrwt beam="2">  1       -2 0.12074831E-01 0.53217366E+03</pdfrwt>
<totfact> 0.18043335E+03</totfact>
</mgrwt>
</event>
<event>
 4    1  0.5847263E-005  0.5257168E+03  0.7818608E-02  0.1007276E+00
         -2   -1    0    0    0  501 -0.00000000000E+00  0.00000000000E+00  0.30521456315E+02  0.30521456422E+02  0.25500000000E-02 0. -1.
          2   -1    0    0  501    0  0.00000000000E+00 -0.00000000000E+00 -0.22638018630E+04  0.22638018630E+04  0.25500000000E-02 0.  1.
    5000001    1    1    2    0    0 -0.12103974486E+03  0.42741766468E+02 -0.16643936704E+04  0.16803415631E+04  0.19200000000E+03 0.  0.
   -5000001    1    1    2    0    0  0.12103974486E+03 -0.42741766468E+02 -0.56888673622E+03  0.61398175631E+03  0.19200000000E+03 0.  0.
<mgrwt>
<rscale>  0 0.52571677E+03</rscale>
<asrwt>0</asrwt>
<pdfrwt beam="1">  1        2 0.32340016E+00 0.52571677E+03</pdfrwt>
<pdfrwt beam="2">  1       -2 0.43602095E-02 0.52571677E+03</pdfrwt>
<totfact> 0.15539925E+03</totfact>
</mgrwt>
</event>
<event>
 4    1  0.5847263E-005  0.5543012E+03  0.7818608E-02  0.1000503E+00
          2   -1    0    0  501    0  0.00000000000E+00  0.00000000000E+00  0.30590082887E+04  0.30590082887E+04  0.25500000000E-02 0.  1.
         -2   -1    0    0    0  501 -0.00000000000E+00 -0.00000000000E+00 -0.25110243957E+02  0.25110244087E+02  0.25500000000E-02 0. -1.
    5000001    1    1    2    0    0 -0.13845711875E+03  0.26744845801E+02  0.72884984970E+03  0.76679316893E+03  0.19200000000E+03 0.  0.
   -5000001    1    1    2    0    0  0.13845711875E+03 -0.26744845801E+02  0.23050481950E+04  0.23173253639E+04  0.19200000000E+03 0.  0.
<mgrwt>
<rscale>  0 0.55430116E+03</rscale>
<asrwt>0</asrwt>
<pdfrwt beam="1">  1        2 0.43700114E+00 0.55430116E+03</pdfrwt>
<pdfrwt beam="2">  1       -2 0.35871781E-02 0.55430116E+03</pdfrwt>
<totfact> 0.80497238E+02</totfact>
</mgrwt>
</event>
<event>
 4    1  0.5847263E-005  0.4856601E+03  0.7818608E-02  0.1017591E+00
          2   -1    0    0  501    0  0.00000000000E+00  0.00000000000E+00  0.72428804154E+02  0.72428804199E+02  0.25500000000E-02 0.  1.
         -2   -1    0    0    0  501 -0.00000000000E+00 -0.00000000000E+00 -0.81412976088E+03  0.81412976089E+03  0.25500000000E-02 0. -1.
    5000001    1    1    2    0    0 -0.13926530225E+03  0.15236442183E+02 -0.28002578881E+03  0.36729472632E+03  0.19200000000E+03 0.  0.
   -5000001    1    1    2    0    0  0.13926530225E+03 -0.15236442183E+02 -0.46167516792E+03  0.51926383877E+03  0.19200000000E+03 0.  0.
<mgrwt>
<rscale>  0 0.48566015E+03</rscale>
<asrwt>0</asrwt>
<pdfrwt beam="1">  1        2 0.10346972E-01 0.48566015E+03</pdfrwt>
<pdfrwt beam="2">  1       -2 0.11630425E+00 0.48566015E+03</pdfrwt>
<totfact> 0.36932888E+02</totfact>
</mgrwt>
</event>
<event>
 4    1  0.5847263E-005  0.5014720E+03  0.7818608E-02  0.1013395E+00
          2   -1    0    0  501    0  0.00000000000E+00  0.00000000000E+00  0.63484858428E+03  0.63484858429E+03  0.25500000000E-02 0.  1.
         -2   -1    0    0    0  501 -0.00000000000E+00 -0.00000000000E+00 -0.99029204924E+02  0.99029204957E+02  0.25500000000E-02 0. -1.
    5000001    1    1    2    0    0  0.60320182288E+02  0.10090455494E+03  0.42944864209E+03  0.48488183075E+03  0.19200000000E+03 0.  0.
   -5000001    1    1    2    0    0 -0.60320182288E+02 -0.10090455494E+03  0.10637073727E+03  0.24899595850E+03  0.19200000000E+03 0.  0.
<mgrwt>
<rscale>  0 0.50147204E+03</rscale>
<asrwt>0</asrwt>
<pdfrwt beam="1">  1        2 0.90692652E-01 0.50147204E+03</pdfrwt>
<pdfrwt beam="2">  1       -2 0.14147030E-01 0.50147204E+03</pdfrwt>
<totfact> 0.19550534E+03</totfact>
</mgrwt>
</event>
<event>
 4    1  0.5847263E-005  0.7460184E+03  0.7818608E-02  0.9641618E-01
          2   -1    0    0  501    0  0.00000000000E+00  0.00000000000E+00  0.51837069740E+03  0.51837069741E+03  0.25500000000E-02 0.  1.
         -2   -1    0    0    0  501 -0.00000000000E+00 -0.00000000000E+00 -0.26840997674E+03  0.26840997675E+03  0.25500000000E-02 0. -1.
    5000001    1    1    2    0    0 -0.11464912102E+03  0.20760840058E+03  0.35123979060E+03  0.46527310200E+03  0.19200000000E+03 0.  0.
   -5000001    1    1    2    0    0  0.11464912102E+03 -0.20760840058E+03 -0.10127906994E+03  0.32150757215E+03  0.19200000000E+03 0.  0.
<mgrwt>
<rscale>  0 0.74601841E+03</rscale>
<asrwt>0</asrwt>
<pdfrwt beam="1">  1        2 0.74052955E-01 0.74601841E+03</pdfrwt>
<pdfrwt beam="2">  1       -2 0.38344283E-01 0.74601841E+03</pdfrwt>
<totfact> 0.41604916E+02</totfact>
</mgrwt>
</event>
<event>
 4    1  0.5847263E-005  0.6815018E+03  0.7818608E-02  0.9749400E-01
         -2   -1    0    0    0  501 -0.00000000000E+00  0.00000000000E+00  0.43730673273E+02  0.43730673347E+02  0.25500000000E-02 0. -1.
          2   -1    0    0  501    0  0.00000000000E+00 -0.00000000000E+00 -0.26551426933E+04  0.26551426933E+04  0.25500000000E-02 0.  1.
    5000001    1    1    2    0    0  0.20461857909E+03  0.17220862561E+03 -0.16537205440E+04  0.16861732448E+04  0.19200000000E+03 0.  0.
   -5000001    1    1    2    0    0 -0.20461857909E+03 -0.17220862561E+03 -0.95769147596E+03  0.10127001218E+04  0.19200000000E+03 0.  0.
<mgrwt>
<rscale>  0 0.68150181E+03</rscale>
<asrwt>0</asrwt>
<pdfrwt beam="1">  1        2 0.37930600E+00 0.68150181E+03</pdfrwt>
<pdfrwt beam="2">  1       -2 0.62472407E-02 0.68150181E+03</pdfrwt>
<totfact> 0.55385683E+02</totfact>
</mgrwt>
</event>
<event>
 4    1  0.5847263E-005  0.4008279E+03  0.7818608E-02  0.1043493E+00
          2   -1    0    0  501    0  0.00000000000E+00  0.00000000000E+00  0.27500497881E+04  0.27500497881E+04  0.25500000000E-02 0.  1.
         -2   -1    0    0    0  501 -0.00000000000E+00 -0.00000000000E+00 -0.14605463430E+02  0.14605463652E+02  0.25500000000E-02 0. -1.
    5000001    1    1    2    0    0 -0.47627093274E+02  0.30227763530E+02  0.12922616723E+04  0.13076644399E+04  0.19200000000E+03 0.  0.
   -5000001    1    1    2    0    0  0.47627093274E+02 -0.30227763530E+02  0.14431826523E+04  0.14569908118E+04  0.19200000000E+03 0.  0.
<mgrwt>
<rscale>  0 0.40082790E+03</rscale>
<asrwt>0</asrwt>
<pdfrwt beam="1">  1        2 0.39286499E+00 0.40082790E+03</pdfrwt>
<pdfrwt beam="2">  1       -2 0.20864909E-02 0.40082790E+03</pdfrwt>
<totfact> 0.26962953E+03</totfact>
</mgrwt>
</event>
<event>
 4    1  0.5847263E-005  0.7621128E+03  0.7818608E-02  0.9616537E-01
         -2   -1    0    0    0  501 -0.00000000000E+00  0.00000000000E+00  0.22172286689E+03  0.22172286691E+03  0.25500000000E-02 0. -1.
          2   -1    0    0  501    0  0.00000000000E+00 -0.00000000000E+00 -0.65488947759E+03  0.65488947760E+03  0.25500000000E-02 0.  1.
    5000001    1    1    2    0    0  0.57880842795E+02 -0.32359852235E+03 -0.19755120600E+03  0.42890170741E+03  0.19200000000E+03 0.  0.
   -5000001    1    1    2    0    0 -0.57880842795E+02  0.32359852235E+03 -0.23561540470E+03  0.44771063709E+03  0.19200000000E+03 0.  0.
<mgrwt>
<rscale>  0 0.76211278E+03</rscale>
<asrwt>0</asrwt>
<pdfrwt beam="1">  1        2 0.93555639E-01 0.76211278E+03</pdfrwt>
<pdfrwt beam="2">  1       -2 0.31674695E-01 0.76211278E+03</pdfrwt>
<totfact> 0.45402079E+02</totfact>
</mgrwt>
</event>
<event>
 4    1  0.5847263E-005  0.5316294E+03  0.7818608E-02  0.1005838E+00
          2   -1    0    0  501    0  0.00000000000E+00  0.00000000000E+00  0.10911455132E+03  0.10911455135E+03  0.25500000000E-02 0.  1.
         -2   -1    0    0    0  501 -0.00000000000E+00 -0.00000000000E+00 -0.64755288911E+03  0.64755288911E+03  0.25500000000E-02 0. -1.
    5000001    1    1    2    0    0  0.92673023250E+02 -0.13683577692E+03 -0.38380244995E+03  0.45987024221E+03  0.19200000000E+03 0.  0.
   -5000001    1    1    2    0    0 -0.92673023250E+02  0.13683577692E+03 -0.15463588783E+03  0.29679719825E+03  0.19200000000E+03 0.  0.
<mgrwt>
<rscale>  0 0.53162936E+03</rscale>
<asrwt>0</asrwt>
<pdfrwt beam="1">  1        2 0.15587793E-01 0.53162936E+03</pdfrwt>
<pdfrwt beam="2">  1       -2 0.92507554E-01 0.53162936E+03</pdfrwt>
<totfact> 0.38350310E+02</totfact>
</mgrwt>
</event>
<event>
 4    1  0.5847263E-005  0.6807562E+03  0.7818608E-02  0.9750720E-01
         -2   -1    0    0    0  501 -0.00000000000E+00  0.00000000000E+00  0.45376982546E+02  0.45376982617E+02  0.25500000000E-02 0. -1.
          2   -1    0    0  501    0  0.00000000000E+00 -0.00000000000E+00 -0.25532164654E+04  0.25532164654E+04  0.25500000000E-02 0.  1.
    5000001    1    1    2    0    0 -0.19680780188E+02 -0.25562456488E+03 -0.81432614434E+03  0.87505561002E+03  0.19200000000E+03 0.  0.
   -5000001    1    1    2    0    0  0.19680780188E+02  0.25562456488E+03 -0.16935133385E+04  0.17235378380E+04  0.19200000000E+03 0.  0.
<mgrwt>
<rscale>  0 0.68075622E+03</rscale>
<asrwt>0</asrwt>
<pdfrwt beam="1">  1        2 0.36474512E+00 0.68075622E+03</pdfrwt>
<pdfrwt beam="2">  1       -2 0.64824277E-02 0.68075622E+03</pdfrwt>
<totfact> 0.59041246E+02</totfact>
</mgrwt>
</event>
<event>
 4    1  0.5847263E-005  0.1072006E+04  0.7818608E-02  0.9232915E-01
          2   -1    0    0  501    0  0.00000000000E+00  0.00000000000E+00  0.27960707947E+04  0.27960707947E+04  0.25500000000E-02 0.  1.
         -2   -1    0    0    0  501 -0.00000000000E+00 -0.00000000000E+00 -0.10275105707E+03  0.10275105710E+03  0.25500000000E-02 0. -1.
    5000001    1    1    2    0    0 -0.43441059074E+03 -0.14461952534E+02  0.20173309667E+04  0.20725370777E+04  0.19200000000E+03 0.  0.
   -5000001    1    1    2    0    0  0.43441059074E+03  0.14461952534E+02  0.67598877096E+03  0.82628477409E+03  0.19200000000E+03 0.  0.
<mgrwt>
<rscale>  0 0.10720060E+04</rscale>
<asrwt>0</asrwt>
<pdfrwt beam="1">  1        2 0.39943873E+00 0.10720060E+04</pdfrwt>
<pdfrwt beam="2">  1       -2 0.14678721E-01 0.10720060E+04</pdfrwt>
<totfact> 0.11216387E+02</totfact>
</mgrwt>
</event>
<event>
 4    1  0.5847263E-005  0.9102555E+03  0.7818608E-02  0.9412852E-01
          2   -1    0    0  501    0  0.00000000000E+00  0.00000000000E+00  0.10384125504E+04  0.10384125504E+04  0.25500000000E-02 0.  1.
         -2   -1    0    0    0  501 -0.00000000000E+00 -0.00000000000E+00 -0.19947878690E+03  0.19947878692E+03  0.25500000000E-02 0. -1.
    5000001    1    1    2    0    0  0.81199135410E+02 -0.39143215237E+03  0.55858562103E+03  0.71322810203E+03  0.19200000000E+03 0.  0.
   -5000001    1    1    2    0    0 -0.81199135410E+02  0.39143215237E+03  0.28034814250E+03  0.52466323533E+03  0.19200000000E+03 0.  0.
<mgrwt>
<rscale>  0 0.91025552E+03</rscale>
<asrwt>0</asrwt>
<pdfrwt beam="1">  1        2 0.14834465E+00 0.91025552E+03</pdfrwt>
<pdfrwt beam="2">  1       -2 0.28496969E-01 0.91025552E+03</pdfrwt>
<totfact> 0.29984180E+02</totfact>
</mgrwt>
</event>
<event>
 4    1  0.5847263E-005  0.5608998E+03  0.7818608E-02  0.9990021E-01
         -2   -1    0    0    0  501 -0.00000000000E+00  0.00000000000E+00  0.10307027753E+03  0.10307027756E+03  0.25500000000E-02 0. -1.
          2   -1    0    0  501    0  0.00000000000E+00 -0.00000000000E+00 -0.76309240154E+03  0.76309240154E+03  0.25500000000E-02 0.  1.
    5000001    1    1    2    0    0  0.20286497207E+03 -0.25099699341E+02 -0.33308165859E+03  0.43542115600E+03  0.19200000000E+03 0.  0.
   -5000001    1    1    2    0    0 -0.20286497207E+03  0.25099699341E+02 -0.32694046542E+03  0.43074152311E+03  0.19200000000E+03 0.  0.
<mgrwt>
<rscale>  0 0.56089980E+03</rscale>
<asrwt>0</asrwt>
<pdfrwt beam="1">  1        2 0.10901320E+00 0.56089980E+03</pdfrwt>
<pdfrwt beam="2">  1       -2 0.14724326E-01 0.56089980E+03</pdfrwt>
<totfact> 0.14614358E+03</totfact>
</mgrwt>
</event>
<event>
 4    1  0.5847263E-005  0.6722264E+03  0.7818608E-02  0.9765944E-01
         -2   -1    0    0    0  501 -0.00000000000E+00  0.00000000000E+00  0.89059451538E+02  0.89059451575E+02  0.25500000000E-02 0. -1.
          2   -1    0    0  501    0  0.00000000000E+00 -0.00000000000E+00 -0.12685020692E+04  0.12685020692E+04  0.25500000000E-02 0.  1.
    5000001    1    1    2    0    0 -0.75642584112E+02 -0.24709501334E+03 -0.78479241660E+03  0.84825755717E+03  0.19200000000E+03 0.  0.
   -5000001    1    1    2    0    0  0.75642584112E+02  0.24709501334E+03 -0.39465020110E+03  0.50930396364E+03  0.19200000000E+03 0.  0.
<mgrwt>
<rscale>  0 0.67222645E+03</rscale>
<asrwt>0</asrwt>
<pdfrwt beam="1">  1        2 0.18121457E+00 0.67222645E+03</pdfrwt>
<pdfrwt beam="2">  1       -2 0.12722780E-01 0.67222645E+03</pdfrwt>
<totfact> 0.91035896E+02</totfact>
</mgrwt>
</event>
<event>
 4    1  0.5847263E-005  0.6876508E+03  0.7818608E-02  0.9738587E-01
         -2   -1    0    0    0  501 -0.00000000000E+00  0.00000000000E+00  0.12300418092E+04  0.12300418092E+04  0.25500000000E-02 0. -1.
          2   -1    0    0  501    0  0.00000000000E+00 -0.00000000000E+00 -0.96107225996E+02  0.96107226030E+02  0.25500000000E-02 0.  1.
    5000001    1    1    2    0    0  0.35812107796E+02 -0.25384356176E+03  0.80809293231E+03  0.86925096960E+03  0.19200000000E+03 0.  0.
   -5000001    1    1    2    0    0 -0.35812107796E+02  0.25384356176E+03  0.32584165088E+03  0.45689806561E+03  0.19200000000E+03 0.  0.
<mgrwt>
<rscale>  0 0.68765080E+03</rscale>
<asrwt>0</asrwt>
<pdfrwt beam="1">  1        2 0.13729604E-01 0.68765080E+03</pdfrwt>
<pdfrwt beam="2">  1       -2 0.17572025E+00 0.68765080E+03</pdfrwt>
<totfact> 0.88263664E+01</totfact>
</mgrwt>
</event>
<event>
 4    1  0.5847263E-005  0.1010809E+04  0.7818608E-02  0.9296769E-01
         -2   -1    0    0    0  501 -0.00000000000E+00  0.00000000000E+00  0.19662540656E+03  0.19662540657E+03  0.25500000000E-02 0. -1.
          2   -1    0    0  501    0  0.00000000000E+00 -0.00000000000E+00 -0.12990874528E+04  0.12990874528E+04  0.25500000000E-02 0.  1.
    5000001    1    1    2    0    0 -0.15752421346E+03 -0.43621745052E+03 -0.46406494613E+03  0.68360794041E+03  0.19200000000E+03 0.  0.
   -5000001    1    1    2    0    0  0.15752421346E+03  0.43621745052E+03 -0.63839710007E+03  0.81210491893E+03  0.19200000000E+03 0.  0.
<mgrwt>
<rscale>  0 0.10108088E+04</rscale>
<asrwt>0</asrwt>
<pdfrwt beam="1">  1        2 0.18558392E+00 0.10108088E+04</pdfrwt>
<pdfrwt beam="2">  1       -2 0.28089344E-01 0.10108088E+04</pdfrwt>
<totfact> 0.21673505E+02</totfact>
</mgrwt>
</event>
<event>
 4    1  0.5847263E-005  0.1024100E+04  0.7818608E-02  0.9282500E-01
         -2   -1    0    0    0  501 -0.00000000000E+00  0.00000000000E+00  0.31517048857E+03  0.31517048858E+03  0.25500000000E-02 0. -1.
          2   -1    0    0  501    0  0.00000000000E+00 -0.00000000000E+00 -0.83191610575E+03  0.83191610575E+03  0.25500000000E-02 0.  1.
    5000001    1    1    2    0    0 -0.27693887415E+03  0.38497555574E+03 -0.28160187816E+03  0.58400765090E+03  0.19200000000E+03 0.  0.
   -5000001    1    1    2    0    0  0.27693887415E+03 -0.38497555574E+03 -0.23514373902E+03  0.56307894343E+03  0.19200000000E+03 0.  0.
<mgrwt>
<rscale>  0 0.10241004E+04</rscale>
<asrwt>0</asrwt>
<pdfrwt beam="1">  1        2 0.11884516E+00 0.10241004E+04</pdfrwt>
<pdfrwt beam="2">  1       -2 0.45024356E-01 0.10241004E+04</pdfrwt>
<totfact> 0.16835015E+02</totfact>
</mgrwt>
</event>
<event>
 4    1  0.5847263E-005  0.6556785E+03  0.7818608E-02  0.9796182E-01
          2   -1    0    0  501    0  0.00000000000E+00  0.00000000000E+00  0.14632666979E+04  0.14632666979E+04  0.25500000000E-02 0.  1.
         -2   -1    0    0    0  501 -0.00000000000E+00 -0.00000000000E+00 -0.73451126646E+02  0.73451126691E+02  0.25500000000E-02 0. -1.
    5000001    1    1    2    0    0 -0.26144732276E+03 -0.18541168726E+02  0.79749975898E+03  0.86114362512E+03  0.19200000000E+03 0.  0.
   -5000001    1    1    2    0    0  0.26144732276E+03  0.18541168726E+02  0.59231581223E+03  0.67557419943E+03  0.19200000000E+03 0.  0.
<mgrwt>
<rscale>  0 0.65567854E+03</rscale>
<asrwt>0</asrwt>
<pdfrwt beam="1">  1        2 0.20903811E+00 0.65567854E+03</pdfrwt>
<pdfrwt beam="2">  1       -2 0.10493017E-01 0.65567854E+03</pdfrwt>
<totfact> 0.98262869E+02</totfact>
</mgrwt>
</event>
<event>
 4    1  0.5847263E-005  0.4486741E+03  0.7818608E-02  0.1028118E+00
         -2   -1    0    0    0  501 -0.00000000000E+00  0.00000000000E+00  0.18463556497E+02  0.18463556673E+02  0.25500000000E-02 0. -1.
          2   -1    0    0  501    0  0.00000000000E+00 -0.00000000000E+00 -0.27257540532E+04  0.27257540532E+04  0.25500000000E-02 0.  1.
    5000001    1    1    2    0    0 -0.17446559440E+02 -0.11175907198E+03 -0.15118007237E+04  0.15281360872E+04  0.19200000000E+03 0.  0.
   -5000001    1    1    2    0    0  0.17446559440E+02  0.11175907198E+03 -0.11954897729E+04  0.12160815227E+04  0.19200000000E+03 0.  0.
<mgrwt>
<rscale>  0 0.44867411E+03</rscale>
<asrwt>0</asrwt>
<pdfrwt beam="1">  1        2 0.38939318E+00 0.44867411E+03</pdfrwt>
<pdfrwt beam="2">  1       -2 0.26376527E-02 0.44867411E+03</pdfrwt>
<totfact> 0.19483754E+03</totfact>
</mgrwt>
</event>
<event>
 4    1  0.5847263E-005  0.8543558E+03  0.7818608E-02  0.9484509E-01
         -2   -1    0    0    0  501 -0.00000000000E+00  0.00000000000E+00  0.11625673727E+03  0.11625673730E+03  0.25500000000E-02 0. -1.
          2   -1    0    0  501    0  0.00000000000E+00 -0.00000000000E+00 -0.15696377636E+04  0.15696377636E+04  0.25500000000E-02 0.  1.
    5000001    1    1    2    0    0  0.13949607354E+03  0.23848870854E+03 -0.12460864166E+04  0.12907096405E+04  0.19200000000E+03 0.  0.
   -5000001    1    1    2    0    0 -0.13949607354E+03 -0.23848870854E+03 -0.20729460980E+03  0.39518486039E+03  0.19200000000E+03 0.  0.
<mgrwt>
<rscale>  0 0.85435582E+03</rscale>
<asrwt>0</asrwt>
<pdfrwt beam="1">  1        2 0.22423395E+00 0.85435582E+03</pdfrwt>
<pdfrwt beam="2">  1       -2 0.16608106E-01 0.85435582E+03</pdfrwt>
<totfact> 0.39764242E+02</totfact>
</mgrwt>
</event>
<event>
 4    1  0.5847263E-005  0.7153738E+03  0.7818608E-02  0.9691296E-01
         -2   -1    0    0    0  501 -0.00000000000E+00  0.00000000000E+00  0.54347105994E+02  0.54347106054E+02  0.25500000000E-02 0. -1.
          2   -1    0    0  501    0  0.00000000000E+00 -0.00000000000E+00 -0.23541257873E+04  0.23541257873E+04  0.25500000000E-02 0.  1.
    5000001    1    1    2    0    0 -0.18832881668E+03 -0.22721423542E+03 -0.93744148128E+03  0.10013763442E+04  0.19200000000E+03 0.  0.
   -5000001    1    1    2    0    0  0.18832881668E+03  0.22721423542E+03 -0.13623372000E+04  0.14070965491E+04  0.19200000000E+03 0.  0.
<mgrwt>
<rscale>  0 0.71537381E+03</rscale>
<asrwt>0</asrwt>
<pdfrwt beam="1">  1        2 0.33630362E+00 0.71537381E+03</pdfrwt>
<pdfrwt beam="2">  1       -2 0.77638738E-02 0.71537381E+03</pdfrwt>
<totfact> 0.55975633E+02</totfact>
</mgrwt>
</event>
<event>
 4    1  0.5847263E-005  0.4232756E+03  0.7818608E-02  0.1036005E+00
          2   -1    0    0  501    0  0.00000000000E+00  0.00000000000E+00  0.15176696146E+04  0.15176696146E+04  0.25500000000E-02 0.  1.
         -2   -1    0    0    0  501 -0.00000000000E+00 -0.00000000000E+00 -0.29512725234E+02  0.29512725344E+02  0.25500000000E-02 0. -1.
    5000001    1    1    2    0    0 -0.73338233870E+02 -0.90095263723E+01  0.92562743998E+03  0.94821401896E+03  0.19200000000E+03 0.  0.
   -5000001    1    1    2    0    0  0.73338233870E+02  0.90095263723E+01  0.56252944936E+03  0.59896832095E+03  0.19200000000E+03 0.  0.
<mgrwt>
<rscale>  0 0.42327564E+03</rscale>
<asrwt>0</asrwt>
<pdfrwt beam="1">  1        2 0.21681004E+00 0.42327564E+03</pdfrwt>
<pdfrwt beam="2">  1       -2 0.42161018E-02 0.42327564E+03</pdfrwt>
<totfact> 0.38869302E+03</totfact>
</mgrwt>
</event>
<event>
 4    1  0.5847263E-005  0.4138124E+03  0.7818608E-02  0.1039099E+00
         -2   -1    0    0    0  501 -0.00000000000E+00  0.00000000000E+00  0.28171500669E+02  0.28171500784E+02  0.25500000000E-02 0. -1.
          2   -1    0    0  501    0  0.00000000000E+00 -0.00000000000E+00 -0.15196268859E+04  0.15196268859E+04  0.25500000000E-02 0.  1.
    5000001    1    1    2    0    0  0.37962863190E+02 -0.49293810085E+02 -0.91611279068E+03  0.93808192816E+03  0.19200000000E+03 0.  0.
   -5000001    1    1    2    0    0 -0.37962863190E+02  0.49293810085E+02 -0.57534259459E+03  0.60971645856E+03  0.19200000000E+03 0.  0.
<mgrwt>
<rscale>  0 0.41381237E+03</rscale>
<asrwt>0</asrwt>
<pdfrwt beam="1">  1        2 0.21708950E+00 0.41381237E+03</pdfrwt>
<pdfrwt beam="2">  1       -2 0.40245011E-02 0.41381237E+03</pdfrwt>
<totfact> 0.41628080E+03</totfact>
</mgrwt>
</event>
<event>
 4    1  0.5847263E-005  0.6244181E+03  0.7818608E-02  0.9856002E-01
          2   -1    0    0  501    0  0.00000000000E+00  0.00000000000E+00  0.12398775136E+04  0.12398775136E+04  0.25500000000E-02 0.  1.
         -2   -1    0    0    0  501 -0.00000000000E+00 -0.00000000000E+00 -0.78616236160E+02  0.78616236201E+02  0.25500000000E-02 0. -1.
    5000001    1    1    2    0    0 -0.24375391645E+03 -0.30677756079E+02  0.61424399063E+03  0.68885178124E+03  0.19200000000E+03 0.  0.
   -5000001    1    1    2    0    0  0.24375391645E+03  0.30677756079E+02  0.54701728684E+03  0.62964196859E+03  0.19200000000E+03 0.  0.
<mgrwt>
<rscale>  0 0.62441814E+03</rscale>
<asrwt>0</asrwt>
<pdfrwt beam="1">  1        2 0.17712534E+00 0.62441814E+03</pdfrwt>
<pdfrwt beam="2">  1       -2 0.11230892E-01 0.62441814E+03</pdfrwt>
<totfact> 0.11614711E+03</totfact>
</mgrwt>
</event>
<event>
 4    1  0.5847263E-005  0.7953999E+03  0.7818608E-02  0.9566700E-01
         -2   -1    0    0    0  501 -0.00000000000E+00  0.00000000000E+00  0.14240381665E+03  0.14240381667E+03  0.25500000000E-02 0. -1.
          2   -1    0    0  501    0  0.00000000000E+00 -0.00000000000E+00 -0.11106811742E+04  0.11106811742E+04  0.25500000000E-02 0.  1.
    5000001    1    1    2    0    0  0.14599027346E+03 -0.26347163519E+03 -0.20868521208E+03  0.41369551634E+03  0.19200000000E+03 0.  0.
   -5000001    1    1    2    0    0 -0.14599027346E+03  0.26347163519E+03 -0.75959214550E+03  0.83938947456E+03  0.19200000000E+03 0.  0.
<mgrwt>
<rscale>  0 0.79539987E+03</rscale>
<asrwt>0</asrwt>
<pdfrwt beam="1">  1        2 0.15866873E+00 0.79539987E+03</pdfrwt>
<pdfrwt beam="2">  1       -2 0.20343403E-01 0.79539987E+03</pdfrwt>
<totfact> 0.50025670E+02</totfact>
</mgrwt>
</event>
<event>
 4    1  0.5847263E-005  0.6815938E+03  0.7818608E-02  0.9749237E-01
         -2   -1    0    0    0  501 -0.00000000000E+00  0.00000000000E+00  0.60957968122E+02  0.60957968176E+02  0.25500000000E-02 0. -1.
          2   -1    0    0  501    0  0.00000000000E+00 -0.00000000000E+00 -0.19052888660E+04  0.19052888660E+04  0.25500000000E-02 0.  1.
    5000001    1    1    2    0    0 -0.12638287331E+03  0.19381464209E+03 -0.45932450378E+03  0.54898064258E+03  0.19200000000E+03 0.  0.
   -5000001    1    1    2    0    0  0.12638287331E+03 -0.19381464209E+03 -0.13850063941E+04  0.14172661916E+04  0.19200000000E+03 0.  0.
<mgrwt>
<rscale>  0 0.68159383E+03</rscale>
<asrwt>0</asrwt>
<pdfrwt beam="1">  1        2 0.27218409E+00 0.68159383E+03</pdfrwt>
<pdfrwt beam="2">  1       -2 0.87082823E-02 0.68159383E+03</pdfrwt>
<totfact> 0.78754806E+02</totfact>
</mgrwt>
</event>
<event>
 4    1  0.5847263E-005  0.4110123E+03  0.7818608E-02  0.1040032E+00
          2   -1    0    0  501    0  0.00000000000E+00  0.00000000000E+00  0.62449282831E+03  0.62449282832E+03  0.25500000000E-02 0.  1.
         -2   -1    0    0    0  501 -0.00000000000E+00 -0.00000000000E+00 -0.67627313716E+02  0.67627313764E+02  0.25500000000E-02 0. -1.
    5000001    1    1    2    0    0 -0.62382789263E+02  0.12030880410E+02  0.21696506136E+03  0.29660443748E+03  0.19200000000E+03 0.  0.
   -5000001    1    1    2    0    0  0.62382789263E+02 -0.12030880410E+02  0.33990045323E+03  0.39551570460E+03  0.19200000000E+03 0.  0.
<mgrwt>
<rscale>  0 0.41101227E+03</rscale>
<asrwt>0</asrwt>
<pdfrwt beam="1">  1        2 0.89213261E-01 0.41101227E+03</pdfrwt>
<pdfrwt beam="2">  1       -2 0.96610448E-02 0.41101227E+03</pdfrwt>
<totfact> 0.37084805E+03</totfact>
</mgrwt>
</event>
<event>
 4    1  0.5847263E-005  0.7072419E+03  0.7818608E-02  0.9704927E-01
          2   -1    0    0  501    0  0.00000000000E+00  0.00000000000E+00  0.37701645986E+03  0.37701645987E+03  0.25500000000E-02 0.  1.
         -2   -1    0    0    0  501 -0.00000000000E+00 -0.00000000000E+00 -0.33167720985E+03  0.33167720986E+03  0.25500000000E-02 0. -1.
    5000001    1    1    2    0    0  0.18244722675E+03  0.15600290140E+03  0.19784229509E+03  0.36555364794E+03  0.19200000000E+03 0.  0.
   -5000001    1    1    2    0    0 -0.18244722675E+03 -0.15600290140E+03 -0.15250304507E+03  0.34314002179E+03  0.19200000000E+03 0.  0.
<mgrwt>
<rscale>  0 0.70724188E+03</rscale>
<asrwt>0</asrwt>
<pdfrwt beam="1">  1        2 0.53859495E-01 0.70724188E+03</pdfrwt>
<pdfrwt beam="2">  1       -2 0.47382458E-01 0.70724188E+03</pdfrwt>
<totfact> 0.39313124E+02</totfact>
</mgrwt>
</event>
<event>
 4    1  0.5847263E-005  0.6146954E+03  0.7818608E-02  0.9875378E-01
         -2   -1    0    0    0  501 -0.00000000000E+00  0.00000000000E+00  0.32690482394E+02  0.32690482494E+02  0.25500000000E-02 0. -1.
          2   -1    0    0  501    0  0.00000000000E+00 -0.00000000000E+00 -0.28896057007E+04  0.28896057007E+04  0.25500000000E-02 0.  1.
    5000001    1    1    2    0    0 -0.17959325902E+03 -0.15840379584E+03 -0.15040909188E+04  0.15350892460E+04  0.19200000000E+03 0.  0.
   -5000001    1    1    2    0    0  0.17959325902E+03  0.15840379584E+03 -0.13528242996E+04  0.13872069372E+04  0.19200000000E+03 0.  0.
<mgrwt>
<rscale>  0 0.61469539E+03</rscale>
<asrwt>0</asrwt>
<pdfrwt beam="1">  1        2 0.41280065E+00 0.61469539E+03</pdfrwt>
<pdfrwt beam="2">  1       -2 0.46700707E-02 0.61469539E+03</pdfrwt>
<totfact> 0.65914402E+02</totfact>
</mgrwt>
</event>
<event>
 4    1  0.5847263E-005  0.6129926E+03  0.7818608E-02  0.9878811E-01
         -2   -1    0    0    0  501 -0.00000000000E+00  0.00000000000E+00  0.21810908867E+03  0.21810908868E+03  0.25500000000E-02 0. -1.
          2   -1    0    0  501    0  0.00000000000E+00 -0.00000000000E+00 -0.43070187924E+03  0.43070187924E+03  0.25500000000E-02 0.  1.
    5000001    1    1    2    0    0 -0.10873515526E+03 -0.20802583088E+03 -0.59223963751E+02  0.30898148518E+03  0.19200000000E+03 0.  0.
   -5000001    1    1    2    0    0  0.10873515526E+03  0.20802583088E+03 -0.15336882682E+03  0.33982948274E+03  0.19200000000E+03 0.  0.
<mgrwt>
<rscale>  0 0.61299264E+03</rscale>
<asrwt>0</asrwt>
<pdfrwt beam="1">  1        2 0.61528839E-01 0.61299264E+03</pdfrwt>
<pdfrwt beam="2">  1       -2 0.31158442E-01 0.61299264E+03</pdfrwt>
<totfact> 0.76301818E+02</totfact>
</mgrwt>
</event>
<event>
 4    1  0.5847263E-005  0.7835079E+03  0.7818608E-02  0.9584200E-01
         -2   -1    0    0    0  501 -0.00000000000E+00  0.00000000000E+00  0.17329441273E+03  0.17329441275E+03  0.25500000000E-02 0. -1.
          2   -1    0    0  501    0  0.00000000000E+00 -0.00000000000E+00 -0.88560938058E+03  0.88560938058E+03  0.25500000000E-02 0.  1.
    5000001    1    1    2    0    0  0.29065470984E+03 -0.14091817762E+03 -0.50585646587E+03  0.63015304268E+03  0.19200000000E+03 0.  0.
   -5000001    1    1    2    0    0 -0.29065470984E+03  0.14091817762E+03 -0.20645850198E+03  0.42875075065E+03  0.19200000000E+03 0.  0.
<mgrwt>
<rscale>  0 0.78350790E+03</rscale>
<asrwt>0</asrwt>
<pdfrwt beam="1">  1        2 0.12651562E+00 0.78350790E+03</pdfrwt>
<pdfrwt beam="2">  1       -2 0.24756345E-01 0.78350790E+03</pdfrwt>
<totfact> 0.48619897E+02</totfact>
</mgrwt>
</event>
<event>
 4    1  0.5847263E-005  0.6656544E+03  0.7818608E-02  0.9777840E-01
          2   -1    0    0  501    0  0.00000000000E+00  0.00000000000E+00  0.17018672849E+03  0.17018672851E+03  0.25500000000E-02 0.  1.
         -2   -1    0    0    0  501 -0.00000000000E+00 -0.00000000000E+00 -0.65089654608E+03  0.65089654609E+03  0.25500000000E-02 0. -1.
    5000001    1    1    2    0    0 -0.24579243674E+03 -0.62813904142E+02 -0.36090018362E+03  0.48111583953E+03  0.19200000000E+03 0.  0.
   -5000001    1    1    2    0    0  0.24579243674E+03  0.62813904142E+02 -0.11980963397E+03  0.33996743506E+03  0.19200000000E+03 0.  0.
<mgrwt>
<rscale>  0 0.66565443E+03</rscale>
<asrwt>0</asrwt>
<pdfrwt beam="1">  1        2 0.24312390E-01 0.66565443E+03</pdfrwt>
<pdfrwt beam="2">  1       -2 0.92985220E-01 0.66565443E+03</pdfrwt>
<totfact> 0.22406470E+02</totfact>
</mgrwt>
</event>
<event>
 4    1  0.5847263E-005  0.6021957E+03  0.7818608E-02  0.9900861E-01
          2   -1    0    0  501    0  0.00000000000E+00  0.00000000000E+00  0.98440971988E+03  0.98440971988E+03  0.25500000000E-02 0.  1.
         -2   -1    0    0    0  501 -0.00000000000E+00 -0.00000000000E+00 -0.92095714409E+02  0.92095714444E+02  0.25500000000E-02 0. -1.
    5000001    1    1    2    0    0 -0.10896811996E+03  0.45694248737E+02  0.80294069285E+03  0.83399027079E+03  0.19200000000E+03 0.  0.
   -5000001    1    1    2    0    0  0.10896811996E+03 -0.45694248737E+02  0.89373312615E+02  0.24251516353E+03  0.19200000000E+03 0.  0.
<mgrwt>
<rscale>  0 0.60219570E+03</rscale>
<asrwt>0</asrwt>
<pdfrwt beam="1">  1        2 0.14062997E+00 0.60219570E+03</pdfrwt>
<pdfrwt beam="2">  1       -2 0.13156530E-01 0.60219570E+03</pdfrwt>
<totfact> 0.12599445E+03</totfact>
</mgrwt>
</event>
<event>
 4    1  0.5847263E-005  0.4979182E+03  0.7818608E-02  0.1014324E+00
         -2   -1    0    0    0  501 -0.00000000000E+00  0.00000000000E+00  0.55289641266E+02  0.55289641324E+02  0.25500000000E-02 0. -1.
          2   -1    0    0  501    0  0.00000000000E+00 -0.00000000000E+00 -0.11210172090E+04  0.11210172090E+04  0.25500000000E-02 0.  1.
    5000001    1    1    2    0    0 -0.40874844738E+02  0.13919192509E+03 -0.38211996020E+03  0.45158034604E+03  0.19200000000E+03 0.  0.
   -5000001    1    1    2    0    0  0.40874844738E+02 -0.13919192509E+03 -0.68360760754E+03  0.72472650430E+03  0.19200000000E+03 0.  0.
<mgrwt>
<rscale>  0 0.49791822E+03</rscale>
<asrwt>0</asrwt>
<pdfrwt beam="1">  1        2 0.16014530E+00 0.49791822E+03</pdfrwt>
<pdfrwt beam="2">  1       -2 0.78985209E-02 0.49791822E+03</pdfrwt>
<totfact> 0.23947378E+03</totfact>
</mgrwt>
</event>
<event>
 4    1  0.5847263E-005  0.4542069E+03  0.7818608E-02  0.1026475E+00
          2   -1    0    0  501    0  0.00000000000E+00  0.00000000000E+00  0.14295196787E+03  0.14295196789E+03  0.25500000000E-02 0.  1.
         -2   -1    0    0    0  501 -0.00000000000E+00 -0.00000000000E+00 -0.36079243172E+03  0.36079243173E+03  0.25500000000E-02 0. -1.
    5000001    1    1    2    0    0 -0.76330823482E+02  0.92377916869E+02 -0.88114896851E+02  0.24287508968E+03  0.19200000000E+03 0.  0.
   -5000001    1    1    2    0    0  0.76330823482E+02 -0.92377916869E+02 -0.12972556700E+03  0.26086930995E+03  0.19200000000E+03 0.  0.
<mgrwt>
<rscale>  0 0.45420695E+03</rscale>
<asrwt>0</asrwt>
<pdfrwt beam="1">  1        2 0.20421710E-01 0.45420695E+03</pdfrwt>
<pdfrwt beam="2">  1       -2 0.51541776E-01 0.45420695E+03</pdfrwt>
<totfact> 0.98738626E+02</totfact>
</mgrwt>
</event>
<event>
 4    1  0.5847263E-005  0.5014095E+03  0.7818608E-02  0.1013412E+00
          2   -1    0    0  501    0  0.00000000000E+00  0.00000000000E+00  0.16593016012E+04  0.16593016012E+04  0.25500000000E-02 0.  1.
         -2   -1    0    0    0  501 -0.00000000000E+00 -0.00000000000E+00 -0.37879119687E+02  0.37879119773E+02  0.25500000000E-02 0. -1.
    5000001    1    1    2    0    0  0.11815189297E+03  0.79096738442E+02  0.55353802095E+03  0.60289676105E+03  0.19200000000E+03 0.  0.
   -5000001    1    1    2    0    0 -0.11815189297E+03 -0.79096738442E+02  0.10678844606E+04  0.10942839599E+04  0.19200000000E+03 0.  0.
<mgrwt>
<rscale>  0 0.50140955E+03</rscale>
<asrwt>0</asrwt>
<pdfrwt beam="1">  1        2 0.23704311E+00 0.50140955E+03</pdfrwt>
<pdfrwt beam="2">  1       -2 0.54113022E-02 0.50140955E+03</pdfrwt>
<totfact> 0.22395371E+03</totfact>
</mgrwt>
</event>
<event>
 4    1  0.5847263E-005  0.6293664E+03  0.7818608E-02  0.9846286E-01
         -2   -1    0    0    0  501 -0.00000000000E+00  0.00000000000E+00  0.49756247662E+03  0.49756247662E+03  0.25500000000E-02 0. -1.
          2   -1    0    0  501    0  0.00000000000E+00 -0.00000000000E+00 -0.19902128236E+03  0.19902128238E+03  0.25500000000E-02 0.  1.
    5000001    1    1    2    0    0 -0.20456029873E+02 -0.21703496937E+03  0.28318396339E+03  0.40568434060E+03  0.19200000000E+03 0.  0.
   -5000001    1    1    2    0    0  0.20456029873E+02  0.21703496937E+03  0.15357230864E+02  0.29089941840E+03  0.19200000000E+03 0.  0.
<mgrwt>
<rscale>  0 0.62936642E+03</rscale>
<asrwt>0</asrwt>
<pdfrwt beam="1">  1        2 0.28431611E-01 0.62936642E+03</pdfrwt>
<pdfrwt beam="2">  1       -2 0.71080355E-01 0.62936642E+03</pdfrwt>
<totfact> 0.34332156E+02</totfact>
</mgrwt>
</event>
<event>
 4    1  0.5847263E-005  0.1250505E+04  0.7818608E-02  0.9069763E-01
          2   -1    0    0  501    0  0.00000000000E+00  0.00000000000E+00  0.14070565024E+04  0.14070565024E+04  0.25500000000E-02 0.  1.
         -2   -1    0    0    0  501 -0.00000000000E+00 -0.00000000000E+00 -0.27784279581E+03  0.27784279582E+03  0.25500000000E-02 0. -1.
    5000001    1    1    2    0    0 -0.15895847149E+03 -0.56448398859E+03  0.70046174337E+03  0.93349912853E+03  0.19200000000E+03 0.  0.
   -5000001    1    1    2    0    0  0.15895847149E+03  0.56448398859E+03  0.42875196318E+03  0.75140016966E+03  0.19200000000E+03 0.  0.
<mgrwt>
<rscale>  0 0.12505047E+04</rscale>
<asrwt>0</asrwt>
<pdfrwt beam="1">  1        2 0.20100807E+00 0.12505047E+04</pdfrwt>
<pdfrwt beam="2">  1       -2 0.39691828E-01 0.12505047E+04</pdfrwt>
<totfact> 0.96806364E+01</totfact>
</mgrwt>
</event>
<event>
 4    1  0.5847263E-005  0.5016794E+03  0.7818608E-02  0.1013341E+00
         -2   -1    0    0    0  501 -0.00000000000E+00  0.00000000000E+00  0.39771607812E+02  0.39771607894E+02  0.25500000000E-02 0. -1.
          2   -1    0    0  501    0  0.00000000000E+00 -0.00000000000E+00 -0.15820472983E+04  0.15820472983E+04  0.25500000000E-02 0.  1.
    5000001    1    1    2    0    0 -0.76082737813E+02 -0.11877566404E+03 -0.10248713469E+04  0.10521984219E+04  0.19200000000E+03 0.  0.
   -5000001    1    1    2    0    0  0.76082737813E+02  0.11877566404E+03 -0.51740434359E+03  0.56962048429E+03  0.19200000000E+03 0.  0.
<mgrwt>
<rscale>  0 0.50167944E+03</rscale>
<asrwt>0</asrwt>
<pdfrwt beam="1">  1        2 0.22600672E+00 0.50167944E+03</pdfrwt>
<pdfrwt beam="2">  1       -2 0.56816593E-02 0.50167944E+03</pdfrwt>
<totfact> 0.22731335E+03</totfact>
</mgrwt>
</event>
<event>
 4    1  0.5847263E-005  0.5406015E+03  0.7818608E-02  0.1003693E+00
          2   -1    0    0  501    0  0.00000000000E+00  0.00000000000E+00  0.27897440752E+04  0.27897440752E+04  0.25500000000E-02 0.  1.
         -2   -1    0    0    0  501 -0.00000000000E+00 -0.00000000000E+00 -0.26189677296E+02  0.26189677420E+02  0.25500000000E-02 0. -1.
    5000001    1    1    2    0    0 -0.17065311257E+03  0.75430170004E+02  0.15757201886E+04  0.15983023206E+04  0.19200000000E+03 0.  0.
   -5000001    1    1    2    0    0  0.17065311257E+03 -0.75430170004E+02  0.11878342093E+04  0.12176314320E+04  0.19200000000E+03 0.  0.
<mgrwt>
<rscale>  0 0.54060151E+03</rscale>
<asrwt>0</asrwt>
<pdfrwt beam="1">  1        2 0.39853500E+00 0.54060151E+03</pdfrwt>
<pdfrwt beam="2">  1       -2 0.37413812E-02 0.54060151E+03</pdfrwt>
<totfact> 0.10542807E+03</totfact>
</mgrwt>
</event>
<event>
 4    1  0.5847263E-005  0.6989119E+03  0.7818608E-02  0.9719095E-01
         -2   -1    0    0    0  501 -0.00000000000E+00  0.00000000000E+00  0.31649322679E+03  0.31649322680E+03  0.25500000000E-02 0. -1.
          2   -1    0    0  501    0  0.00000000000E+00 -0.00000000000E+00 -0.38585171248E+03  0.38585171249E+03  0.25500000000E-02 0.  1.
    5000001    1    1    2    0    0 -0.19406838790E+03 -0.12560325516E+03  0.14456939020E+03  0.33347117637E+03  0.19200000000E+03 0.  0.
   -5000001    1    1    2    0    0  0.19406838790E+03  0.12560325516E+03 -0.21392787589E+03  0.36887376292E+03  0.19200000000E+03 0.  0.
<mgrwt>
<rscale>  0 0.69891188E+03</rscale>
<asrwt>0</asrwt>
<pdfrwt beam="1">  1        2 0.55121673E-01 0.69891188E+03</pdfrwt>
<pdfrwt beam="2">  1       -2 0.45213318E-01 0.69891188E+03</pdfrwt>
<totfact> 0.42086151E+02</totfact>
</mgrwt>
</event>
<event>
 4    1  0.5847263E-005  0.6369922E+03  0.7818608E-02  0.9831498E-01
         -2   -1    0    0    0  501 -0.00000000000E+00  0.00000000000E+00  0.82654490974E+02  0.82654491014E+02  0.25500000000E-02 0. -1.
          2   -1    0    0  501    0  0.00000000000E+00 -0.00000000000E+00 -0.12272747772E+04  0.12272747772E+04  0.25500000000E-02 0.  1.
    5000001    1    1    2    0    0  0.68500736767E+02  0.21519081888E+03 -0.81192014997E+03  0.86433660653E+03  0.19200000000E+03 0.  0.
   -5000001    1    1    2    0    0 -0.68500736767E+02 -0.21519081888E+03 -0.33270013621E+03  0.44559266164E+03  0.19200000000E+03 0.  0.
<mgrwt>
<rscale>  0 0.63699222E+03</rscale>
<asrwt>0</asrwt>
<pdfrwt beam="1">  1        2 0.17532496E+00 0.63699222E+03</pdfrwt>
<pdfrwt beam="2">  1       -2 0.11807785E-01 0.63699222E+03</pdfrwt>
<totfact> 0.10867251E+03</totfact>
</mgrwt>
</event>
<event>
 4    1  0.5847263E-005  0.6349510E+03  0.7818608E-02  0.9835435E-01
         -2   -1    0    0    0  501 -0.00000000000E+00  0.00000000000E+00  0.50464429128E+03  0.50464429129E+03  0.25500000000E-02 0. -1.
          2   -1    0    0  501    0  0.00000000000E+00 -0.00000000000E+00 -0.19972621584E+03  0.19972621586E+03  0.25500000000E-02 0.  1.
    5000001    1    1    2    0    0  0.13438542738E+03  0.21406756425E+03  0.15967646625E+03  0.35530963825E+03  0.19200000000E+03 0.  0.
   -5000001    1    1    2    0    0 -0.13438542738E+03 -0.21406756425E+03  0.14524160919E+03  0.34906086890E+03  0.19200000000E+03 0.  0.
<mgrwt>
<rscale>  0 0.63495100E+03</rscale>
<asrwt>0</asrwt>
<pdfrwt beam="1">  1        2 0.28532317E-01 0.63495100E+03</pdfrwt>
<pdfrwt beam="2">  1       -2 0.72092042E-01 0.63495100E+03</pdfrwt>
<totfact> 0.33150647E+02</totfact>
</mgrwt>
</event>
<event>
 4    1  0.5847263E-005  0.4306619E+03  0.7818608E-02  0.1033651E+00
         -2   -1    0    0    0  501 -0.00000000000E+00  0.00000000000E+00  0.24058960969E+02  0.24058961104E+02  0.25500000000E-02 0. -1.
          2   -1    0    0  501    0  0.00000000000E+00 -0.00000000000E+00 -0.19272411136E+04  0.19272411136E+04  0.25500000000E-02 0.  1.
    5000001    1    1    2    0    0 -0.63293403982E+02 -0.67902356759E+02 -0.81667622718E+03  0.84406210973E+03  0.19200000000E+03 0.  0.
   -5000001    1    1    2    0    0  0.63293403982E+02  0.67902356759E+02 -0.10865059254E+04  0.11072379650E+04  0.19200000000E+03 0.  0.
<mgrwt>
<rscale>  0 0.43066190E+03</rscale>
<asrwt>0</asrwt>
<pdfrwt beam="1">  1        2 0.27532006E+00 0.43066190E+03</pdfrwt>
<pdfrwt beam="2">  1       -2 0.34369957E-02 0.43066190E+03</pdfrwt>
<totfact> 0.33015294E+03</totfact>
</mgrwt>
</event>
<event>
 4    1  0.5847263E-005  0.6013486E+03  0.7818608E-02  0.9902612E-01
         -2   -1    0    0    0  501 -0.00000000000E+00  0.00000000000E+00  0.42478143013E+02  0.42478143089E+02  0.25500000000E-02 0. -1.
          2   -1    0    0  501    0  0.00000000000E+00 -0.00000000000E+00 -0.21282720533E+04  0.21282720533E+04  0.25500000000E-02 0.  1.
    5000001    1    1    2    0    0 -0.16312819981E+03  0.16310639239E+03 -0.11081275985E+04  0.11480528208E+04  0.19200000000E+03 0.  0.
   -5000001    1    1    2    0    0  0.16312819981E+03 -0.16310639239E+03 -0.97766631177E+03  0.10226973756E+04  0.19200000000E+03 0.  0.
<mgrwt>
<rscale>  0 0.60134863E+03</rscale>
<asrwt>0</asrwt>
<pdfrwt beam="1">  1        2 0.30403880E+00 0.60134863E+03</pdfrwt>
<pdfrwt beam="2">  1       -2 0.60683075E-02 0.60134863E+03</pdfrwt>
<totfact> 0.10836937E+03</totfact>
</mgrwt>
</event>
<event>
 4    1  0.5847263E-005  0.6761821E+03  0.7818608E-02  0.9758854E-01
          2   -1    0    0  501    0  0.00000000000E+00  0.00000000000E+00  0.70029173398E+03  0.70029173398E+03  0.25500000000E-02 0.  1.
         -2   -1    0    0    0  501 -0.00000000000E+00 -0.00000000000E+00 -0.16322560778E+03  0.16322560780E+03  0.25500000000E-02 0. -1.
    5000001    1    1    2    0    0 -0.60548794459E+02  0.15900580627E+03 -0.12686087132E+02  0.25685392686E+03  0.19200000000E+03 0.  0.
   -5000001    1    1    2    0    0  0.60548794459E+02 -0.15900580627E+03  0.54975221333E+03  0.60666341492E+03  0.19200000000E+03 0.  0.
<mgrwt>
<rscale>  0 0.67618206E+03</rscale>
<asrwt>0</asrwt>
<pdfrwt beam="1">  1        2 0.10004168E+00 0.67618206E+03</pdfrwt>
<pdfrwt beam="2">  1       -2 0.23317944E-01 0.67618206E+03</pdfrwt>
<totfact> 0.73350843E+02</totfact>
</mgrwt>
</event>
<event>
 4    1  0.5847263E-005  0.4816821E+03  0.7818608E-02  0.1018674E+00
          2   -1    0    0  501    0  0.00000000000E+00  0.00000000000E+00  0.12123662617E+04  0.12123662617E+04  0.25500000000E-02 0.  1.
         -2   -1    0    0    0  501 -0.00000000000E+00 -0.00000000000E+00 -0.47843966480E+02  0.47843966548E+02  0.25500000000E-02 0. -1.
    5000001    1    1    2    0    0  0.27520131426E+02  0.25481555407E+02  0.21473585302E+03  0.29048606485E+03  0.19200000000E+03 0.  0.
   -5000001    1    1    2    0    0 -0.27520131426E+02 -0.25481555407E+02  0.94978644224E+03  0.96972416344E+03  0.19200000000E+03 0.  0.
<mgrwt>
<rscale>  0 0.48168210E+03</rscale>
<asrwt>0</asrwt>
<pdfrwt beam="1">  1        2 0.17319518E+00 0.48168210E+03</pdfrwt>
<pdfrwt beam="2">  1       -2 0.68348523E-02 0.48168210E+03</pdfrwt>
<totfact> 0.26729045E+03</totfact>
</mgrwt>
</event>
<event>
 4    1  0.5847263E-005  0.1979203E+04  0.7818608E-02  0.8616406E-01
         -2   -1    0    0    0  501 -0.00000000000E+00  0.00000000000E+00  0.39986867170E+03  0.39986867171E+03  0.25500000000E-02 0. -1.
          2   -1    0    0  501    0  0.00000000000E+00 -0.00000000000E+00 -0.24490827302E+04  0.24490827302E+04  0.25500000000E-02 0.  1.
    5000001    1    1    2    0    0 -0.23901677902E+03  0.93166242626E+03 -0.83514891384E+03  0.12882009181E+04  0.19200000000E+03 0.  0.
   -5000001    1    1    2    0    0  0.23901677902E+03 -0.93166242626E+03 -0.12140651446E+04  0.15607504838E+04  0.19200000000E+03 0.  0.
<mgrwt>
<rscale>  0 0.19792033E+04</rscale>
<asrwt>0</asrwt>
<pdfrwt beam="1">  1        2 0.34986895E+00 0.19792033E+04</pdfrwt>
<pdfrwt beam="2">  1       -2 0.57124097E-01 0.19792033E+04</pdfrwt>
<totfact> 0.12579786E+01</totfact>
</mgrwt>
</event>
<event>
 4    1  0.5847263E-005  0.5683439E+03  0.7818608E-02  0.9973350E-01
          2   -1    0    0  501    0  0.00000000000E+00  0.00000000000E+00  0.27947793093E+03  0.27947793094E+03  0.25500000000E-02 0.  1.
         -2   -1    0    0    0  501 -0.00000000000E+00 -0.00000000000E+00 -0.28894480064E+03  0.28894480065E+03  0.25500000000E-02 0. -1.
    5000001    1    1    2    0    0 -0.16011613562E+03  0.12097790890E+03  0.55415274417E+02  0.28320961136E+03  0.19200000000E+03 0.  0.
   -5000001    1    1    2    0    0  0.16011613562E+03 -0.12097790890E+03 -0.64882144126E+02  0.28521312023E+03  0.19200000000E+03 0.  0.
<mgrwt>
<rscale>  0 0.56834389E+03</rscale>
<asrwt>0</asrwt>
<pdfrwt beam="1">  1        2 0.39925419E-01 0.56834389E+03</pdfrwt>
<pdfrwt beam="2">  1       -2 0.41277829E-01 0.56834389E+03</pdfrwt>
<totfact> 0.72134493E+02</totfact>
</mgrwt>
</event>
<event>
 4    1  0.5847263E-005  0.1263559E+04  0.7818608E-02  0.9058973E-01
          2   -1    0    0  501    0  0.00000000000E+00  0.00000000000E+00  0.24223637718E+04  0.24223637718E+04  0.25500000000E-02 0. -1.
         -2   -1    0    0    0  501 -0.00000000000E+00 -0.00000000000E+00 -0.16477502333E+03  0.16477502335E+03  0.25500000000E-02 0.  1.
    5000001    1    1    2    0    0  0.45575649266E+03  0.30651815058E+03  0.62470247133E+03  0.85368878107E+03  0.19200000000E+03 0.  0.
   -5000001    1    1    2    0    0 -0.45575649266E+03 -0.30651815058E+03  0.16328862772E+04  0.17334500141E+04  0.19200000000E+03 0.  0.
<mgrwt>
<rscale>  0 0.12635585E+04</rscale>
<asrwt>0</asrwt>
<pdfrwt beam="1">  1        2 0.34605197E+00 0.12635585E+04</pdfrwt>
<pdfrwt beam="2">  1       -2 0.23539289E-01 0.12635585E+04</pdfrwt>
<totfact> 0.76375746E+01</totfact>
</mgrwt>
</event>
<event>
 4    1  0.5847263E-005  0.5702576E+03  0.7818608E-02  0.9969109E-01
          2   -1    0    0  501    0  0.00000000000E+00  0.00000000000E+00  0.60875805352E+03  0.60875805353E+03  0.25500000000E-02 0.  1.
         -2   -1    0    0    0  501 -0.00000000000E+00 -0.00000000000E+00 -0.13354804005E+03  0.13354804007E+03  0.25500000000E-02 0. -1.
    5000001    1    1    2    0    0 -0.14242724801E+03  0.12889119115E+03  0.35060591064E+03  0.44349404134E+03  0.19200000000E+03 0.  0.
   -5000001    1    1    2    0    0  0.14242724801E+03 -0.12889119115E+03  0.12460410284E+03  0.29881205226E+03  0.19200000000E+03 0.  0.
<mgrwt>
<rscale>  0 0.57025764E+03</rscale>
<asrwt>0</asrwt>
<pdfrwt beam="1">  1        2 0.86965438E-01 0.57025764E+03</pdfrwt>
<pdfrwt beam="2">  1       -2 0.19078291E-01 0.57025764E+03</pdfrwt>
<totfact> 0.12368115E+03</totfact>
</mgrwt>
</event>
