<event>
 6    2  0.1655576E+001  0.9342475E+02  0.7546771E-02  0.1294764E+00
         -1   -1    0    0    0  501 -0.00000000000E+00  0.00000000000E+00  0.18221906038E+02  0.18221906038E+02  0.00000000000E+00 0.  1.
          2   -1    0    0  502    0  0.00000000000E+00 -0.00000000000E+00 -0.27278158649E+03  0.27278158649E+03  0.00000000000E+00 0. -1.
         24    2    1    2    0    0 -0.29416062922E+02  0.30946363666E+02 -0.20690491054E+03  0.22701943766E+03  0.83097538396E+02 0.  0.
        -13    1    3    3    0    0 -0.30349650083E+02  0.46056300024E+02 -0.69236000526E+02  0.88520663129E+02  0.00000000000E+00 0.  1.
         14    1    3    3    0    0  0.93358716140E+00 -0.15109936357E+02 -0.13766891002E+03  0.13849877453E+03  0.00000000000E+00 0. -1.
         21    1    1    2  502  501  0.29416062922E+02 -0.30946363666E+02 -0.47654769909E+02  0.63984054866E+02  0.00000000000E+00 0.  1.
<mgrwt>
<rscale>  1 0.93424745E+02</rscale>
<asrwt>0</asrwt>
<pdfrwt beam="1">  1        2 0.41966395E-01 0.93424745E+02</pdfrwt>
<pdfrwt beam="2">  1       -1 0.28033704E-02 0.93424745E+02</pdfrwt>
<totfact> 0.50488299E+04</totfact>
</mgrwt>
</event>
<event>
 6    2  0.1655576E+001  0.1106276E+03  0.7546771E-02  0.1259412E+00
          2   -1    0    0  502    0  0.00000000000E+00  0.00000000000E+00  0.83783177056E+02  0.83783177056E+02  0.00000000000E+00 0. -1.
         -1   -1    0    0    0  501 -0.00000000000E+00 -0.00000000000E+00 -0.64467089626E+03  0.64467089626E+03  0.00000000000E+00 0.  1.
         24    2    1    2    0    0 -0.53200960771E+02  0.51268569090E+02  0.44010452060E+02  0.11906043534E+03  0.82338684530E+02 0.  0.
        -13    1    3    3    0    0 -0.29332417887E+02  0.81759642553E+01 -0.21368596688E+02  0.37200188911E+02  0.00000000000E+00 0.  1.
         14    1    3    3    0    0 -0.23868542884E+02  0.43092604834E+02  0.65379048748E+02  0.81860246432E+02  0.00000000000E+00 0. -1.
         21    1    1    2  502  501  0.53200960771E+02 -0.51268569090E+02 -0.60489817126E+03  0.60939363797E+03  0.00000000000E+00 0.  1.
<mgrwt>
<rscale>  1 0.11062761E+03</rscale>
<asrwt>0</asrwt>
<pdfrwt beam="1">  1        2 0.12889720E-01 0.11062761E+03</pdfrwt>
<pdfrwt beam="2">  1       -1 0.99180135E-01 0.11062761E+03</pdfrwt>
<totfact> 0.54608447E+02</totfact>
</mgrwt>
</event>
<event>
 6    2  0.1655576E+001  0.8293429E+02  0.7546771E-02  0.1320925E+00
          2   -1    0    0  502    0  0.00000000000E+00  0.00000000000E+00  0.35033346005E+04  0.35033346005E+04  0.00000000000E+00 0. -1.
         -1   -1    0    0    0  501 -0.00000000000E+00 -0.00000000000E+00 -0.76854837516E+00  0.76854837516E+00  0.00000000000E+00 0.  1.
         24    2    1    2    0    0  0.17811311709E+02  0.94472230750E+01  0.26438965795E+04  0.26451970096E+04  0.80446278423E+02 0.  0.
        -13    1    3    3    0    0  0.12859570991E+02  0.44548883282E+02  0.12791580231E+04  0.12799981326E+04  0.00000000000E+00 0.  1.
         14    1    3    3    0    0  0.49517407182E+01 -0.35101660207E+02  0.13647385564E+04  0.13651988770E+04  0.00000000000E+00 0. -1.
         21    1    1    2  502  501 -0.17811311709E+02 -0.94472230750E+01  0.85866947255E+03  0.85890613918E+03  0.00000000000E+00 0. -1.
<mgrwt>
<rscale>  1 0.82934291E+02</rscale>
<asrwt>0</asrwt>
<pdfrwt beam="1">  1        2 0.53896177E+00 0.82934291E+02</pdfrwt>
<pdfrwt beam="2">  1       -1 0.11824102E-03 0.82934291E+02</pdfrwt>
<totfact> 0.43797955E+04</totfact>
</mgrwt>
</event>
<event>
 6    2  0.1655576E+001  0.8498282E+02  0.7546771E-02  0.1315477E+00
         -1   -1    0    0    0  501 -0.00000000000E+00  0.00000000000E+00  0.35204034689E+01  0.35204034689E+01  0.00000000000E+00 0.  1.
          2   -1    0    0  502    0  0.00000000000E+00 -0.00000000000E+00 -0.11382140042E+04  0.11382140042E+04  0.00000000000E+00 0. -1.
         24    2    1    2    0    0  0.29080515930E+02 -0.17688069559E+02 -0.96010996446E+03  0.96386369545E+03  0.77868705785E+02 0.  0.
        -11    1    3    3    0    0  0.33380104561E+02  0.25084538550E+02 -0.50928462322E+03  0.51099343725E+03  0.00000000000E+00 0.  1.
         12    1    3    3    0    0 -0.42995886311E+01 -0.42772608109E+02 -0.45082534123E+03  0.45287025820E+03  0.00000000000E+00 0. -1.
         21    1    1    2  502  501 -0.29080515930E+02  0.17688069559E+02 -0.17458363628E+03  0.17787071222E+03  0.00000000000E+00 0. -1.
<mgrwt>
<rscale>  1 0.84982819E+02</rscale>
<asrwt>0</asrwt>
<pdfrwt beam="1">  1        2 0.17510963E+00 0.84982819E+02</pdfrwt>
<pdfrwt beam="2">  1       -1 0.54160120E-03 0.84982819E+02</pdfrwt>
<totfact> 0.99175397E+04</totfact>
</mgrwt>
</event>
<event>
 6    2  0.1655576E+001  0.8491313E+02  0.7546771E-02  0.1315660E+00
         -1   -1    0    0    0  501 -0.00000000000E+00  0.00000000000E+00  0.43387776705E+01  0.43387776705E+01  0.00000000000E+00 0.  1.
          2   -1    0    0  502    0  0.00000000000E+00 -0.00000000000E+00 -0.70449069625E+03  0.70449069625E+03  0.00000000000E+00 0. -1.
         24    2    1    2    0    0  0.11616017711E+01 -0.24602893487E+02 -0.57961502708E+03  0.58580185954E+03  0.81262459614E+02 0.  0.
        -13    1    3    3    0    0 -0.16625972816E+02 -0.33285281046E+01 -0.23407701799E+02  0.28903677533E+02  0.00000000000E+00 0.  1.
         14    1    3    3    0    0  0.17787574587E+02 -0.21274365382E+02 -0.55620732528E+03  0.55689818201E+03  0.00000000000E+00 0. -1.
         21    1    1    2  502  501 -0.11616017711E+01  0.24602893487E+02 -0.12053689150E+03  0.12302761437E+03  0.00000000000E+00 0.  1.
<mgrwt>
<rscale>  1 0.84913126E+02</rscale>
<asrwt>0</asrwt>
<pdfrwt beam="1">  1        2 0.10838328E+00 0.84913126E+02</pdfrwt>
<pdfrwt beam="2">  1       -1 0.66750364E-03 0.84913126E+02</pdfrwt>
<totfact> 0.13716562E+05</totfact>
</mgrwt>
</event>
<event>
 6    2  0.1655576E+001  0.8265711E+02  0.7546771E-02  0.1321676E+00
         -1   -1    0    0    0  501 -0.00000000000E+00  0.00000000000E+00  0.25579367202E+03  0.25579367202E+03  0.00000000000E+00 0.  1.
          2   -1    0    0  502    0  0.00000000000E+00 -0.00000000000E+00 -0.10944811616E+02  0.10944811616E+02  0.00000000000E+00 0. -1.
         24    2    1    2    0    0 -0.20223226315E+02 -0.60403171832E+01  0.21354579852E+03  0.22898472889E+03  0.79917042513E+02 0.  0.
        -11    1    3    3    0    0 -0.10235108362E+02  0.48546898353E+01  0.21390020794E+03  0.21419996361E+03  0.00000000000E+00 0.  1.
         12    1    3    3    0    0 -0.99881179534E+01 -0.10895007018E+02 -0.35440941691E+00  0.14784765274E+02  0.00000000000E+00 0. -1.
         21    1    1    2  502  501  0.20223226315E+02  0.60403171832E+01  0.31303061883E+02  0.37753754747E+02  0.00000000000E+00 0.  1.
<mgrwt>
<rscale>  1 0.82657111E+02</rscale>
<asrwt>0</asrwt>
<pdfrwt beam="1">  1        2 0.16838174E-02 0.82657111E+02</pdfrwt>
<pdfrwt beam="2">  1       -1 0.39352868E-01 0.82657111E+02</pdfrwt>
<totfact> 0.43180259E+04</totfact>
</mgrwt>
</event>
<event>
 6    2  0.1655576E+001  0.7207098E+02  0.7546771E-02  0.1353189E+00
          2   -1    0    0  502    0  0.00000000000E+00  0.00000000000E+00  0.68872598306E+01  0.68872598306E+01  0.00000000000E+00 0. -1.
         -1   -1    0    0    0  501 -0.00000000000E+00 -0.00000000000E+00 -0.32301582992E+03  0.32301582992E+03  0.00000000000E+00 0.  1.
         24    2    1    2    0    0  0.14040864616E+02 -0.17005813964E+02 -0.25099564628E+03  0.26113797249E+03  0.68614011963E+02 0.  0.
        -13    1    3    3    0    0 -0.13803808274E+01  0.25864021354E+02 -0.10787899682E+03  0.11094472050E+03  0.00000000000E+00 0.  1.
         14    1    3    3    0    0  0.15421245443E+02 -0.42869835318E+02 -0.14311664945E+03  0.15019325199E+03  0.00000000000E+00 0. -1.
         21    1    1    2  502  501 -0.14040864616E+02  0.17005813964E+02 -0.65132923813E+02  0.68765117263E+02  0.00000000000E+00 0.  1.
<mgrwt>
<rscale>  1 0.72070980E+02</rscale>
<asrwt>0</asrwt>
<pdfrwt beam="1">  1        2 0.10595783E-02 0.72070980E+02</pdfrwt>
<pdfrwt beam="2">  1       -1 0.49694747E-01 0.72070980E+02</pdfrwt>
<totfact> 0.52553633E+04</totfact>
</mgrwt>
</event>
<event>
 6    2  0.1655576E+001  0.8367853E+02  0.7546771E-02  0.1318925E+00
         -3   -1    0    0    0  501 -0.00000000000E+00  0.00000000000E+00  0.47201141520E+02  0.47201141520E+02  0.00000000000E+00 0.  1.
          4   -1    0    0  502    0  0.00000000000E+00 -0.00000000000E+00 -0.76880568260E+02  0.76880568260E+02  0.00000000000E+00 0. -1.
         24    2    1    2    0    0 -0.20907573209E+02  0.42061258663E+01 -0.47561178199E+02  0.96250519587E+02  0.80915256515E+02 0.  0.
        -13    1    3    3    0    0  0.11624640373E+02  0.13075094058E+02  0.16377780144E+02  0.23965016814E+02  0.00000000000E+00 0.  1.
         14    1    3    3    0    0 -0.32532213582E+02 -0.88689681921E+01 -0.63938958343E+02  0.72285502774E+02  0.00000000000E+00 0. -1.
         21    1    1    2  502  501  0.20907573209E+02 -0.42061258663E+01  0.17881751459E+02  0.27831190192E+02  0.00000000000E+00 0.  1.
<mgrwt>
<rscale>  1 0.83678533E+02</rscale>
<asrwt>0</asrwt>
<pdfrwt beam="1">  1        4 0.11827780E-01 0.83678533E+02</pdfrwt>
<pdfrwt beam="2">  1       -3 0.72617141E-02 0.83678533E+02</pdfrwt>
<totfact> 0.11988975E+04</totfact>
</mgrwt>
</event>
<event>
 6    2  0.1655576E+001  0.9191905E+02  0.7546771E-02  0.1298270E+00
          2   -1    0    0  502    0  0.00000000000E+00  0.00000000000E+00  0.18483779611E+04  0.18483779611E+04  0.00000000000E+00 0. -1.
         -1   -1    0    0    0  501 -0.00000000000E+00 -0.00000000000E+00 -0.37352726082E+01  0.37352726082E+01  0.00000000000E+00 0.  1.
         24    2    1    2    0    0  0.30559042103E+02  0.30579741549E+02  0.62685734216E+03  0.63356076238E+03  0.81118040879E+02 0.  0.
        -11    1    3    3    0    0  0.54684097346E+02  0.63408027252E+01  0.30864491784E+03  0.31351593515E+03  0.00000000000E+00 0.  1.
         12    1    3    3    0    0 -0.24125055244E+02  0.24238938824E+02  0.31821242432E+03  0.32004482723E+03  0.00000000000E+00 0. -1.
         21    1    1    2  502  501 -0.30559042103E+02 -0.30579741549E+02  0.12177853463E+04  0.12185524713E+04  0.00000000000E+00 0. -1.
<mgrwt>
<rscale>  1 0.91919052E+02</rscale>
<asrwt>0</asrwt>
<pdfrwt beam="1">  1        2 0.28436511E+00 0.91919052E+02</pdfrwt>
<pdfrwt beam="2">  1       -1 0.57465880E-03 0.91919052E+02</pdfrwt>
<totfact> 0.39585638E+04</totfact>
</mgrwt>
</event>
<event>
 6    2  0.1655576E+001  0.8731515E+02  0.7546771E-02  0.1309487E+00
          2   -1    0    0  502    0  0.00000000000E+00  0.00000000000E+00  0.54958107339E+02  0.54958107339E+02  0.00000000000E+00 0. -1.
         -1   -1    0    0    0  501 -0.00000000000E+00 -0.00000000000E+00 -0.68069526893E+02  0.68069526893E+02  0.00000000000E+00 0.  1.
         24    2    1    2    0    0 -0.30110161026E+01  0.29293781146E+02  0.66428487203E+01  0.87567474237E+02  0.82199411636E+02 0.  0.
        -11    1    3    3    0    0 -0.20272151927E+02 -0.23276786423E+02 -0.42967600242E+01  0.31164580482E+02  0.00000000000E+00 0.  1.
         12    1    3    3    0    0  0.17261135824E+02  0.52570567569E+02  0.10939608744E+02  0.56402893755E+02  0.00000000000E+00 0. -1.
         21    1    1    2  502  501  0.30110161026E+01 -0.29293781146E+02 -0.19754268275E+02  0.35460159995E+02  0.00000000000E+00 0.  1.
<mgrwt>
<rscale>  1 0.87315148E+02</rscale>
<asrwt>0</asrwt>
<pdfrwt beam="1">  1        2 0.84550935E-02 0.87315148E+02</pdfrwt>
<pdfrwt beam="2">  1       -1 0.10472235E-01 0.87315148E+02</pdfrwt>
<totfact> 0.44027231E+04</totfact>
</mgrwt>
</event>
<event>
 6    2  0.1655576E+001  0.8361769E+02  0.7546771E-02  0.1319088E+00
          2   -1    0    0  502    0  0.00000000000E+00  0.00000000000E+00  0.16512534982E+04  0.16512534982E+04  0.00000000000E+00 0. -1.
         -1   -1    0    0    0  501 -0.00000000000E+00 -0.00000000000E+00 -0.42246302916E+01  0.42246302916E+01  0.00000000000E+00 0.  1.
         24    2    1    2    0    0  0.19994453480E+02 -0.25195952393E+01  0.16178897263E+04  0.16200490994E+04  0.81152889103E+02 0.  0.
        -11    1    3    3    0    0  0.33363131022E+02 -0.15831394674E+02  0.33646320641E+03  0.33848370838E+03  0.00000000000E+00 0.  1.
         12    1    3    3    0    0 -0.13368677543E+02  0.13311799435E+02  0.12814265199E+04  0.12815653910E+04  0.00000000000E+00 0. -1.
         21    1    1    2  502  501 -0.19994453480E+02  0.25195952393E+01  0.29139141618E+02  0.35429029119E+02  0.00000000000E+00 0.  1.
<mgrwt>
<rscale>  1 0.83617689E+02</rscale>
<asrwt>0</asrwt>
<pdfrwt beam="1">  1        2 0.25403848E+00 0.83617689E+02</pdfrwt>
<pdfrwt beam="2">  1       -1 0.64994444E-03 0.83617689E+02</pdfrwt>
<totfact> 0.41489741E+04</totfact>
</mgrwt>
</event>
<event>
 6    2  0.1655576E+001  0.8383743E+02  0.7546771E-02  0.1318501E+00
         -1   -1    0    0    0  501 -0.00000000000E+00  0.00000000000E+00  0.42651287044E+01  0.42651287044E+01  0.00000000000E+00 0.  1.
          2   -1    0    0  502    0  0.00000000000E+00 -0.00000000000E+00 -0.84536061180E+03  0.84536061180E+03  0.00000000000E+00 0. -1.
         24    2    1    2    0    0 -0.19682657715E+02  0.43904264301E+01 -0.79373743410E+03  0.79815276057E+03  0.81375868966E+02 0.  0.
        -11    1    3    3    0    0 -0.40554491895E+02  0.10214251905E+02 -0.21612894646E+03  0.22013795505E+03  0.00000000000E+00 0.  1.
         12    1    3    3    0    0  0.20871834180E+02 -0.58238254754E+01 -0.57760848764E+03  0.57801480552E+03  0.00000000000E+00 0. -1.
         21    1    1    2  502  501  0.19682657715E+02 -0.43904264301E+01 -0.47358048996E+02  0.51472979938E+02  0.00000000000E+00 0.  1.
<mgrwt>
<rscale>  1 0.83837431E+02</rscale>
<asrwt>0</asrwt>
<pdfrwt beam="1">  1        2 0.13005531E+00 0.83837431E+02</pdfrwt>
<pdfrwt beam="2">  1       -1 0.65617448E-03 0.83837431E+02</pdfrwt>
<totfact> 0.11263468E+05</totfact>
</mgrwt>
</event>
<event>
 6    2  0.1655576E+001  0.9257731E+02  0.7546771E-02  0.1296728E+00
          2   -1    0    0  502    0  0.00000000000E+00  0.00000000000E+00  0.14324637528E+04  0.14324637528E+04  0.00000000000E+00 0. -1.
         -1   -1    0    0    0  501 -0.00000000000E+00 -0.00000000000E+00 -0.12926963660E+02  0.12926963660E+02  0.00000000000E+00 0.  1.
         24    2    1    2    0    0  0.12772225575E+02 -0.39122363767E+02  0.13937576054E+04  0.13968288445E+04  0.82926890535E+02 0.  0.
        -13    1    3    3    0    0 -0.31745639674E+02 -0.11963058016E+02  0.31721268488E+03  0.31902161031E+03  0.00000000000E+00 0.  1.
         14    1    3    3    0    0  0.44517865250E+02 -0.27159305751E+02  0.10765449205E+04  0.10778072342E+04  0.00000000000E+00 0. -1.
         21    1    1    2  502  501 -0.12772225575E+02  0.39122363767E+02  0.25779183752E+02  0.48561871956E+02  0.00000000000E+00 0.  1.
<mgrwt>
<rscale>  1 0.92577310E+02</rscale>
<asrwt>0</asrwt>
<pdfrwt beam="1">  1        2 0.22037891E+00 0.92577310E+02</pdfrwt>
<pdfrwt beam="2">  1       -1 0.19887648E-02 0.92577310E+02</pdfrwt>
<totfact> 0.11126758E+04</totfact>
</mgrwt>
</event>
<event>
 6    2  0.1655576E+001  0.8372298E+02  0.7546771E-02  0.1318806E+00
         -1   -1    0    0    0  501 -0.00000000000E+00  0.00000000000E+00  0.37964811360E+01  0.37964811360E+01  0.00000000000E+00 0.  1.
          2   -1    0    0  502    0  0.00000000000E+00 -0.00000000000E+00 -0.17042163807E+04  0.17042163807E+04  0.00000000000E+00 0. -1.
         24    2    1    2    0    0  0.16741093129E+02 -0.14737417379E+02 -0.16577730672E+04  0.16598858634E+04  0.80697468523E+02 0.  0.
        -11    1    3    3    0    0 -0.96519478206E+01 -0.13791496068E+02 -0.73914106137E+02  0.75806731539E+02  0.00000000000E+00 0.  1.
         12    1    3    3    0    0  0.26393040949E+02 -0.94592131048E+00 -0.15838589611E+04  0.15840791319E+04  0.00000000000E+00 0. -1.
         21    1    1    2  502  501 -0.16741093129E+02  0.14737417379E+02 -0.42646832354E+02  0.48126998452E+02  0.00000000000E+00 0.  1.
<mgrwt>
<rscale>  1 0.83722978E+02</rscale>
<asrwt>0</asrwt>
<pdfrwt beam="1">  1        2 0.26218756E+00 0.83722978E+02</pdfrwt>
<pdfrwt beam="2">  1       -1 0.58407308E-03 0.83722978E+02</pdfrwt>
<totfact> 0.45327149E+04</totfact>
</mgrwt>
</event>
<event>
 6    2  0.1655576E+001  0.8471935E+02  0.7546771E-02  0.1316168E+00
          2   -1    0    0  502    0  0.00000000000E+00  0.00000000000E+00  0.13465097342E+03  0.13465097342E+03  0.00000000000E+00 0. -1.
         -1   -1    0    0    0  501 -0.00000000000E+00 -0.00000000000E+00 -0.27461576306E+03  0.27461576306E+03  0.00000000000E+00 0.  1.
         24    2    1    2    0    0  0.20196784949E+02 -0.15232333596E+02  0.12065178416E+03  0.14742530994E+03  0.80854405463E+02 0.  0.
        -11    1    3    3    0    0  0.10778882890E+02 -0.27957053633E+02  0.46182363785E+01  0.30316814995E+02  0.00000000000E+00 0.  1.
         12    1    3    3    0    0  0.94179020591E+01  0.12724720037E+02  0.11603354778E+03  0.11710849495E+03  0.00000000000E+00 0. -1.
         21    1    1    2  502  501 -0.20196784949E+02  0.15232333596E+02 -0.26061657380E+03  0.26184142654E+03  0.00000000000E+00 0.  1.
<mgrwt>
<rscale>  1 0.84719354E+02</rscale>
<asrwt>0</asrwt>
<pdfrwt beam="1">  1        2 0.20715535E-01 0.84719354E+02</pdfrwt>
<pdfrwt beam="2">  1       -1 0.42248578E-01 0.84719354E+02</pdfrwt>
<totfact> 0.16375497E+03</totfact>
</mgrwt>
</event>
<event>
 6    2  0.1655576E+001  0.1078751E+03  0.7546771E-02  0.1264556E+00
          2   -1    0    0  502    0  0.00000000000E+00  0.00000000000E+00  0.89305517977E+03  0.89305517977E+03  0.00000000000E+00 0. -1.
         -1   -1    0    0    0  501 -0.00000000000E+00 -0.00000000000E+00 -0.95541509486E+01  0.95541509486E+01  0.00000000000E+00 0.  1.
         24    2    1    2    0    0  0.69900667767E+02 -0.13684022878E+02  0.41825071280E+03  0.43193830718E+03  0.81016582373E+02 0.  0.
        -13    1    3    3    0    0  0.13225908148E+02  0.30924688833E+02  0.17573873377E+03  0.17892837554E+03  0.00000000000E+00 0.  1.
         14    1    3    3    0    0  0.56674759620E+02 -0.44608711712E+02  0.24251197903E+03  0.25300993164E+03  0.00000000000E+00 0. -1.
         21    1    1    2  502  501 -0.69900667767E+02  0.13684022878E+02  0.46525031602E+03  0.47067102353E+03  0.00000000000E+00 0. -1.
<mgrwt>
<rscale>  1 0.10787512E+03</rscale>
<asrwt>0</asrwt>
<pdfrwt beam="1">  1        2 0.13739304E+00 0.10787512E+03</pdfrwt>
<pdfrwt beam="2">  1       -1 0.14698701E-02 0.10787512E+03</pdfrwt>
<totfact> 0.34659768E+04</totfact>
</mgrwt>
</event>
<event>
 6    2  0.1655576E+001  0.7307205E+02  0.7546771E-02  0.1349947E+00
         -1   -1    0    0    0  501 -0.00000000000E+00  0.00000000000E+00  0.60246619919E+02  0.60246619919E+02  0.00000000000E+00 0.  1.
          2   -1    0    0  502    0  0.00000000000E+00 -0.00000000000E+00 -0.63019808161E+02  0.63019808161E+02  0.00000000000E+00 0. -1.
         24    2    1    2    0    0 -0.30510843996E+02 -0.59390413215E+01 -0.32756950623E+02  0.80078353109E+02  0.66131240797E+02 0.  0.
        -11    1    3    3    0    0  0.67305336277E+01  0.10690155877E+02  0.13445915566E+02  0.18449177787E+02  0.00000000000E+00 0.  1.
         12    1    3    3    0    0 -0.37241377624E+02 -0.16629197199E+02 -0.46202866189E+02  0.61629175322E+02  0.00000000000E+00 0. -1.
         21    1    1    2  502  501  0.30510843996E+02  0.59390413215E+01  0.29983762382E+02  0.43188074971E+02  0.00000000000E+00 0.  1.
<mgrwt>
<rscale>  1 0.73072052E+02</rscale>
<asrwt>0</asrwt>
<pdfrwt beam="1">  1        2 0.96953551E-02 0.73072052E+02</pdfrwt>
<pdfrwt beam="2">  1       -1 0.92687108E-02 0.73072052E+02</pdfrwt>
<totfact> 0.43662586E+04</totfact>
</mgrwt>
</event>
<event>
 6    2  0.1655576E+001  0.8466457E+02  0.7546771E-02  0.1316312E+00
         -1   -1    0    0    0  501 -0.00000000000E+00  0.00000000000E+00  0.26566732580E+02  0.26566732580E+02  0.00000000000E+00 0.  1.
          2   -1    0    0  502    0  0.00000000000E+00 -0.00000000000E+00 -0.11841684084E+03  0.11841684084E+03  0.00000000000E+00 0. -1.
         24    2    1    2    0    0 -0.60476301020E+01  0.23526131711E+02 -0.84469801805E+02  0.11959614294E+03  0.81105100240E+02 0.  0.
        -13    1    3    3    0    0 -0.28172131511E+02 -0.16785109484E+02 -0.14470478004E+02  0.35844157515E+02  0.00000000000E+00 0.  1.
         14    1    3    3    0    0  0.22124501409E+02  0.40311241195E+02 -0.69999323800E+02  0.83751985420E+02  0.00000000000E+00 0. -1.
         21    1    1    2  502  501  0.60476301020E+01 -0.23526131711E+02 -0.73803064516E+01  0.25387430482E+02  0.00000000000E+00 0. -1.
<mgrwt>
<rscale>  1 0.84664573E+02</rscale>
<asrwt>0</asrwt>
<pdfrwt beam="1">  1        2 0.18217975E-01 0.84664573E+02</pdfrwt>
<pdfrwt beam="2">  1       -1 0.40871897E-02 0.84664573E+02</pdfrwt>
<totfact> 0.71168550E+04</totfact>
</mgrwt>
</event>
<event>
 6    2  0.1655576E+001  0.8522983E+02  0.7546771E-02  0.1314833E+00
         -1   -1    0    0    0  501 -0.00000000000E+00  0.00000000000E+00  0.78364611662E+02  0.78364611662E+02  0.00000000000E+00 0.  1.
          2   -1    0    0  502    0  0.00000000000E+00 -0.00000000000E+00 -0.41750840827E+02  0.41750840827E+02  0.00000000000E+00 0. -1.
         24    2    1    2    0    0  0.28325968713E+01 -0.27502769909E+02  0.18964653736E+02  0.87314274277E+02  0.80620707287E+02 0.  0.
        -13    1    3    3    0    0  0.34734885162E+02 -0.20969233250E+02  0.32562937786E+02  0.52024666337E+02  0.00000000000E+00 0.  1.
         14    1    3    3    0    0 -0.31902288290E+02 -0.65335366593E+01 -0.13598284050E+02  0.35289607940E+02  0.00000000000E+00 0. -1.
         21    1    1    2  502  501 -0.28325968713E+01  0.27502769909E+02  0.17649117100E+02  0.32801178212E+02  0.00000000000E+00 0. -1.
<mgrwt>
<rscale>  1 0.85229833E+02</rscale>
<asrwt>0</asrwt>
<pdfrwt beam="1">  1        2 0.64232063E-02 0.85229833E+02</pdfrwt>
<pdfrwt beam="2">  1       -1 0.12056094E-01 0.85229833E+02</pdfrwt>
<totfact> 0.49921375E+04</totfact>
</mgrwt>
</event>
<event>
 6    2  0.1655576E+001  0.7525216E+02  0.7546771E-02  0.1343092E+00
         -1   -1    0    0    0  501 -0.00000000000E+00  0.00000000000E+00  0.10029106819E+02  0.10029106819E+02  0.00000000000E+00 0.  1.
          2   -1    0    0  502    0  0.00000000000E+00 -0.00000000000E+00 -0.24152440760E+03  0.24152440760E+03  0.00000000000E+00 0. -1.
         24    2    1    2    0    0  0.16471226667E+02 -0.13827345918E+02 -0.19723052059E+03  0.21109894775E+03  0.72113734370E+02 0.  0.
        -11    1    3    3    0    0 -0.19377105036E+02  0.17018904782E+02 -0.47135495858E+02  0.53729603473E+02  0.00000000000E+00 0.  1.
         12    1    3    3    0    0  0.35848331703E+02 -0.30846250700E+02 -0.15009502473E+03  0.15736934427E+03  0.00000000000E+00 0. -1.
         21    1    1    2  502  501 -0.16471226667E+02  0.13827345918E+02 -0.34264780196E+02  0.40454566676E+02  0.00000000000E+00 0.  1.
<mgrwt>
<rscale>  1 0.75252159E+02</rscale>
<asrwt>0</asrwt>
<pdfrwt beam="1">  1        2 0.37157606E-01 0.75252159E+02</pdfrwt>
<pdfrwt beam="2">  1       -1 0.15429393E-02 0.75252159E+02</pdfrwt>
<totfact> 0.13005392E+05</totfact>
</mgrwt>
</event>
<event>
 6    2  0.1655576E+001  0.1098209E+03  0.7546771E-02  0.1260902E+00
          2   -1    0    0  502    0  0.00000000000E+00  0.00000000000E+00  0.30481999745E+02  0.30481999745E+02  0.00000000000E+00 0. -1.
         -1   -1    0    0    0  501 -0.00000000000E+00 -0.00000000000E+00 -0.34455376579E+03  0.34455376579E+03  0.00000000000E+00 0.  1.
         24    2    1    2    0    0  0.29967922805E+02 -0.68006897590E+02 -0.10035919874E+03  0.14877026675E+03  0.80855482063E+02 0.  0.
        -11    1    3    3    0    0 -0.25298176185E+02 -0.18468790677E+02 -0.12412777677E+02  0.33692298779E+02  0.00000000000E+00 0.  1.
         12    1    3    3    0    0  0.55266098991E+02 -0.49538106913E+02 -0.87946421063E+02  0.11507796797E+03  0.00000000000E+00 0. -1.
         21    1    1    2  502  501 -0.29967922805E+02  0.68006897590E+02 -0.21371256731E+03  0.22626549879E+03  0.00000000000E+00 0.  1.
<mgrwt>
<rscale>  1 0.10982087E+03</rscale>
<asrwt>0</asrwt>
<pdfrwt beam="1">  1        2 0.46895381E-02 0.10982087E+03</pdfrwt>
<pdfrwt beam="2">  1       -1 0.53008275E-01 0.10982087E+03</pdfrwt>
<totfact> 0.67118026E+03</totfact>
</mgrwt>
</event>
<event>
 6    2  0.1655576E+001  0.8310413E+02  0.7546771E-02  0.1320466E+00
          2   -1    0    0  502    0  0.00000000000E+00  0.00000000000E+00  0.28007095392E+02  0.28007095392E+02  0.00000000000E+00 0. -1.
         -1   -1    0    0    0  501 -0.00000000000E+00 -0.00000000000E+00 -0.11180291022E+03  0.11180291022E+03  0.00000000000E+00 0.  1.
         24    2    1    2    0    0 -0.18339500621E+02  0.96197095711E+01 -0.41886762338E+02  0.93063403854E+02  0.80482421574E+02 0.  0.
        -13    1    3    3    0    0  0.66435074250E+01 -0.28584577268E+02  0.24236192034E+01  0.29446361041E+02  0.00000000000E+00 0.  1.
         14    1    3    3    0    0 -0.24983008046E+02  0.38204286839E+02 -0.44310381542E+02  0.63617042813E+02  0.00000000000E+00 0. -1.
         21    1    1    2  502  501  0.18339500621E+02 -0.96197095711E+01 -0.41909052486E+02  0.46746601754E+02  0.00000000000E+00 0.  1.
<mgrwt>
<rscale>  1 0.83104129E+02</rscale>
<asrwt>0</asrwt>
<pdfrwt beam="1">  1        2 0.43087839E-02 0.83104129E+02</pdfrwt>
<pdfrwt beam="2">  1       -1 0.17200448E-01 0.83104129E+02</pdfrwt>
<totfact> 0.47949406E+04</totfact>
</mgrwt>
</event>
<event>
 6    2  0.1655576E+001  0.1010316E+03  0.7546771E-02  0.1278141E+00
          2   -1    0    0  502    0  0.00000000000E+00  0.00000000000E+00  0.22145961827E+04  0.22145961827E+04  0.00000000000E+00 0. -1.
         -1   -1    0    0    0  501 -0.00000000000E+00 -0.00000000000E+00 -0.45590577330E+01  0.45590577330E+01  0.00000000000E+00 0.  1.
         24    2    1    2    0    0 -0.43997746674E+02  0.41832225924E+02  0.63832193641E+03  0.64626796832E+03  0.80756767732E+02 0.  0.
        -13    1    3    3    0    0 -0.48453766396E+02 -0.96089919199E+01  0.31117015090E+03  0.31506660091E+03  0.00000000000E+00 0.  1.
         14    1    3    3    0    0  0.44560197213E+01  0.51441217844E+02  0.32715178552E+03  0.33120136741E+03  0.00000000000E+00 0. -1.
         21    1    1    2  502  501  0.43997746674E+02 -0.41832225924E+02  0.15717151885E+04  0.15728872721E+04  0.00000000000E+00 0. -1.
<mgrwt>
<rscale>  1 0.10103164E+03</rscale>
<asrwt>0</asrwt>
<pdfrwt beam="1">  1        2 0.34070625E+00 0.10103164E+03</pdfrwt>
<pdfrwt beam="2">  1       -1 0.70139527E-03 0.10103164E+03</pdfrwt>
<totfact> 0.19661369E+04</totfact>
</mgrwt>
</event>
<event>
 6    2  0.1655576E+001  0.8308569E+02  0.7546771E-02  0.1320516E+00
          2   -1    0    0  502    0  0.00000000000E+00  0.00000000000E+00  0.14373728489E+04  0.14373728489E+04  0.00000000000E+00 0. -1.
         -1   -1    0    0    0  501 -0.00000000000E+00 -0.00000000000E+00 -0.21581136897E+01  0.21581136897E+01  0.00000000000E+00 0.  1.
         24    2    1    2    0    0 -0.21142597278E+02 -0.78312090041E+01  0.12792112106E+04  0.12819066086E+04  0.79968086157E+02 0.  0.
        -13    1    3    3    0    0 -0.60498717192E+01 -0.39369171850E+02  0.95196725455E+03  0.95280018177E+03  0.00000000000E+00 0.  1.
         14    1    3    3    0    0 -0.15092725558E+02  0.31537962846E+02  0.32724395601E+03  0.32910642688E+03  0.00000000000E+00 0. -1.
         21    1    1    2  502  501  0.21142597278E+02  0.78312090041E+01  0.15600352465E+03  0.15762435395E+03  0.00000000000E+00 0.  1.
<mgrwt>
<rscale>  1 0.83085691E+02</rscale>
<asrwt>0</asrwt>
<pdfrwt beam="1">  1        2 0.22113352E+00 0.83085691E+02</pdfrwt>
<pdfrwt beam="2">  1       -1 0.33201864E-03 0.83085691E+02</pdfrwt>
<totfact> 0.13576210E+05</totfact>
</mgrwt>
</event>
<event>
 6    2  0.1655576E+001  0.8119147E+02  0.7546771E-02  0.1325704E+00
         -1   -1    0    0    0  501 -0.00000000000E+00  0.00000000000E+00  0.33715483565E+02  0.33715483565E+02  0.00000000000E+00 0.  1.
          2   -1    0    0  502    0  0.00000000000E+00 -0.00000000000E+00 -0.11017199918E+03  0.11017199918E+03  0.00000000000E+00 0. -1.
         24    2    1    2    0    0  0.15843199407E+01  0.28530623348E+02 -0.81307400394E+02  0.11490408023E+03  0.75997024654E+02 0.  0.
        -11    1    3    3    0    0  0.57769873145E+01  0.28612797574E+02  0.40270627848E+01  0.29466642193E+02  0.00000000000E+00 0.  1.
         12    1    3    3    0    0 -0.41926673738E+01 -0.82174225449E-01 -0.85334463178E+02  0.85437438037E+02  0.00000000000E+00 0. -1.
         21    1    1    2  502  501 -0.15843199407E+01 -0.28530623348E+02  0.48508847775E+01  0.28983402517E+02  0.00000000000E+00 0.  1.
<mgrwt>
<rscale>  1 0.81191467E+02</rscale>
<asrwt>0</asrwt>
<pdfrwt beam="1">  1        2 0.16949538E-01 0.81191467E+02</pdfrwt>
<pdfrwt beam="2">  1       -1 0.51869975E-02 0.81191467E+02</pdfrwt>
<totfact> 0.54261230E+04</totfact>
</mgrwt>
</event>
<event>
 6    2  0.1655576E+001  0.8510861E+02  0.7546771E-02  0.1315149E+00
         -3   -1    0    0    0  501 -0.00000000000E+00  0.00000000000E+00  0.94467459415E+02  0.94467459415E+02  0.00000000000E+00 0.  1.
          4   -1    0    0  502    0  0.00000000000E+00 -0.00000000000E+00 -0.39724153368E+02  0.39724153368E+02  0.00000000000E+00 0. -1.
         24    2    1    2    0    0 -0.59512009418E+01 -0.30972214696E+02  0.57220575169E+02  0.10255568798E+03  0.79049225415E+02 0.  0.
        -11    1    3    3    0    0 -0.29734102135E+02  0.88948251734E+01  0.44800911750E+02  0.54500976490E+02  0.00000000000E+00 0.  1.
         12    1    3    3    0    0  0.23782901193E+02 -0.39867039869E+02  0.12419663418E+02  0.48054711491E+02  0.00000000000E+00 0. -1.
         21    1    1    2  502  501  0.59512009418E+01  0.30972214696E+02 -0.24772691219E+01  0.31635924802E+02  0.00000000000E+00 0.  1.
<mgrwt>
<rscale>  1 0.85108607E+02</rscale>
<asrwt>0</asrwt>
<pdfrwt beam="1">  1        4 0.61114083E-02 0.85108607E+02</pdfrwt>
<pdfrwt beam="2">  1       -3 0.14533455E-01 0.85108607E+02</pdfrwt>
<totfact> 0.11468771E+04</totfact>
</mgrwt>
</event>
<event>
 6    2  0.1655576E+001  0.8003994E+02  0.7546771E-02  0.1328938E+00
         -1   -1    0    0    0  501 -0.00000000000E+00  0.00000000000E+00  0.28620577462E+01  0.28620577462E+01  0.00000000000E+00 0.  1.
          2   -1    0    0  502    0  0.00000000000E+00 -0.00000000000E+00 -0.94770355665E+03  0.94770355665E+03  0.00000000000E+00 0. -1.
         24    2    1    2    0    0  0.23540797343E+02 -0.47377849098E+01 -0.70799928227E+03  0.71250921073E+03  0.76352969413E+02 0.  0.
        -11    1    3    3    0    0  0.33516826522E+02  0.58577754531E+01 -0.13163594370E+03  0.13596217440E+03  0.00000000000E+00 0.  1.
         12    1    3    3    0    0 -0.99760291793E+01 -0.10595560363E+02 -0.57636333857E+03  0.57654703634E+03  0.00000000000E+00 0. -1.
         21    1    1    2  502  501 -0.23540797343E+02  0.47377849098E+01 -0.23684221663E+03  0.23805640366E+03  0.00000000000E+00 0. -1.
<mgrwt>
<rscale>  1 0.80039938E+02</rscale>
<asrwt>0</asrwt>
<pdfrwt beam="1">  1        2 0.14580035E+00 0.80039938E+02</pdfrwt>
<pdfrwt beam="2">  1       -1 0.44031716E-03 0.80039938E+02</pdfrwt>
<totfact> 0.16879739E+05</totfact>
</mgrwt>
</event>
<event>
 6    2  0.1655576E+001  0.8826349E+02  0.7546771E-02  0.1307112E+00
         -1   -1    0    0    0  501 -0.00000000000E+00  0.00000000000E+00  0.10376641914E+02  0.10376641914E+02  0.00000000000E+00 0.  1.
          2   -1    0    0  502    0  0.00000000000E+00 -0.00000000000E+00 -0.34330076958E+03  0.34330076958E+03  0.00000000000E+00 0. -1.
         24    2    1    2    0    0 -0.10599224490E+02 -0.25241787452E+02 -0.28644136102E+03  0.29973170741E+03  0.83910379172E+02 0.  0.
        -11    1    3    3    0    0  0.11846342224E+02  0.26222450942E+02 -0.61645629307E+02  0.68030407688E+02  0.00000000000E+00 0.  1.
         12    1    3    3    0    0 -0.22445566714E+02 -0.51464238394E+02 -0.22479573171E+03  0.23170129972E+03  0.00000000000E+00 0. -1.
         21    1    1    2  502  501  0.10599224490E+02  0.25241787452E+02 -0.46482766648E+02  0.53945704081E+02  0.00000000000E+00 0.  1.
<mgrwt>
<rscale>  1 0.88263487E+02</rscale>
<asrwt>0</asrwt>
<pdfrwt beam="1">  1        2 0.52815498E-01 0.88263487E+02</pdfrwt>
<pdfrwt beam="2">  1       -1 0.15964066E-02 0.88263487E+02</pdfrwt>
<totfact> 0.88062258E+04</totfact>
</mgrwt>
</event>
<event>
 6    2  0.1655576E+001  0.9476144E+02  0.7546771E-02  0.1291714E+00
         -1   -1    0    0    0  501 -0.00000000000E+00  0.00000000000E+00  0.46221027236E+01  0.46221027236E+01  0.00000000000E+00 0.  1.
          2   -1    0    0  502    0  0.00000000000E+00 -0.00000000000E+00 -0.20346675987E+04  0.20346675987E+04  0.00000000000E+00 0. -1.
         24    2    1    2    0    0 -0.50121077588E+02 -0.36573956006E+01 -0.18482044645E+04  0.18506321818E+04  0.80338228522E+02 0.  0.
        -13    1    3    3    0    0 -0.49296291276E+02  0.88864830715E+01 -0.52864383657E+03  0.53101167582E+03  0.00000000000E+00 0.  1.
         14    1    3    3    0    0 -0.82478631185E+00 -0.12543878672E+02 -0.13195606279E+04  0.13196205060E+04  0.00000000000E+00 0. -1.
         21    1    1    2  502  501  0.50121077588E+02  0.36573956006E+01 -0.18184103149E+03  0.18865751958E+03  0.00000000000E+00 0.  1.
<mgrwt>
<rscale>  1 0.94761437E+02</rscale>
<asrwt>0</asrwt>
<pdfrwt beam="1">  1        2 0.31302581E+00 0.94761437E+02</pdfrwt>
<pdfrwt beam="2">  1       -1 0.71109268E-03 0.94761437E+02</pdfrwt>
<totfact> 0.23713857E+04</totfact>
</mgrwt>
</event>
<event>
 6    2  0.1655576E+001  0.9032527E+02  0.7546771E-02  0.1302066E+00
         -1   -1    0    0    0  501 -0.00000000000E+00  0.00000000000E+00  0.19729115298E+02  0.19729115298E+02  0.00000000000E+00 0.  1.
          2   -1    0    0  502    0  0.00000000000E+00 -0.00000000000E+00 -0.21453503954E+03  0.21453503954E+03  0.00000000000E+00 0. -1.
         24    2    1    2    0    0 -0.28239354954E+02 -0.28022138765E+02 -0.13402298959E+03  0.16161935754E+03  0.81092253416E+02 0.  0.
        -11    1    3    3    0    0 -0.55351093267E+02 -0.12250982398E+02 -0.68049608923E+02  0.88569630066E+02  0.00000000000E+00 0.  1.
         12    1    3    3    0    0  0.27111738313E+02 -0.15771156368E+02 -0.65973380662E+02  0.73049727471E+02  0.00000000000E+00 0. -1.
         21    1    1    2  502  501  0.28239354954E+02  0.28022138765E+02 -0.60782934652E+02  0.72644797296E+02  0.00000000000E+00 0.  1.
<mgrwt>
<rscale>  1 0.90325273E+02</rscale>
<asrwt>0</asrwt>
<pdfrwt beam="1">  1        2 0.33005389E-01 0.90325273E+02</pdfrwt>
<pdfrwt beam="2">  1       -1 0.30352486E-02 0.90325273E+02</pdfrwt>
<totfact> 0.57741762E+04</totfact>
</mgrwt>
</event>
<event>
 6    2  0.1655576E+001  0.9028630E+02  0.7546771E-02  0.1302160E+00
         -1   -1    0    0    0  501 -0.00000000000E+00  0.00000000000E+00  0.23420096794E+01  0.23420096794E+01  0.00000000000E+00 0.  1.
          2   -1    0    0  502    0  0.00000000000E+00 -0.00000000000E+00 -0.15865919333E+04  0.15865919333E+04  0.00000000000E+00 0. -1.
         24    2    1    2    0    0 -0.17011563953E+02  0.18372040017E+02 -0.14108075970E+04  0.14136936341E+04  0.86744973478E+02 0.  0.
        -11    1    3    3    0    0 -0.39526233839E+02  0.34986310762E+00 -0.31020604302E+03  0.31271430202E+03  0.00000000000E+00 0.  1.
         12    1    3    3    0    0  0.22514669886E+02  0.18022176910E+02 -0.11006015539E+04  0.11009793321E+04  0.00000000000E+00 0. -1.
         21    1    1    2  502  501  0.17011563953E+02 -0.18372040017E+02 -0.17344232670E+03  0.17524030887E+03  0.00000000000E+00 0.  1.
<mgrwt>
<rscale>  1 0.90286298E+02</rscale>
<asrwt>0</asrwt>
<pdfrwt beam="1">  1        2 0.24409102E+00 0.90286298E+02</pdfrwt>
<pdfrwt beam="2">  1       -1 0.36030925E-03 0.90286298E+02</pdfrwt>
<totfact> 0.10274488E+05</totfact>
</mgrwt>
</event>
<event>
 6    2  0.1655576E+001  0.9560491E+02  0.7546771E-02  0.1289819E+00
          2   -1    0    0  502    0  0.00000000000E+00  0.00000000000E+00  0.56404222390E+03  0.56404222390E+03  0.00000000000E+00 0. -1.
         -1   -1    0    0    0  501 -0.00000000000E+00 -0.00000000000E+00 -0.14564465323E+02  0.14564465323E+02  0.00000000000E+00 0.  1.
         24    2    1    2    0    0  0.15636026996E+02  0.22819719436E+02  0.54141726930E+03  0.54979355988E+03  0.91515430683E+02 0.  0.
        -11    1    3    3    0    0  0.58329147600E+01  0.37428603151E+02  0.85249530464E+02  0.93286685399E+02  0.00000000000E+00 0.  1.
         12    1    3    3    0    0  0.98031122364E+01 -0.14608883715E+02  0.45616773883E+03  0.45650687448E+03  0.00000000000E+00 0. -1.
         21    1    1    2  502  501 -0.15636026996E+02 -0.22819719436E+02  0.80604892822E+01  0.28813129348E+02  0.00000000000E+00 0.  1.
<mgrwt>
<rscale>  1 0.95604911E+02</rscale>
<asrwt>0</asrwt>
<pdfrwt beam="1">  1        2 0.86775710E-01 0.95604911E+02</pdfrwt>
<pdfrwt beam="2">  1       -1 0.22406874E-02 0.95604911E+02</pdfrwt>
<totfact> 0.32295621E+04</totfact>
</mgrwt>
</event>
<event>
 6    2  0.1655576E+001  0.9692807E+02  0.7546771E-02  0.1286892E+00
          2   -1    0    0  502    0  0.00000000000E+00  0.00000000000E+00  0.11368291243E+04  0.11368291243E+04  0.00000000000E+00 0. -1.
         -1   -1    0    0    0  501 -0.00000000000E+00 -0.00000000000E+00 -0.50928684880E+01  0.50928684880E+01  0.00000000000E+00 0.  1.
         24    2    1    2    0    0 -0.14096692325E+02  0.53282192826E+02  0.74448991110E+03  0.75077312049E+03  0.79732941213E+02 0.  0.
        -13    1    3    3    0    0 -0.42742186888E+02  0.26447343906E+02  0.26824488817E+03  0.27291331328E+03  0.00000000000E+00 0.  1.
         14    1    3    3    0    0  0.28645494564E+02  0.26834848919E+02  0.47624502293E+03  0.47785980720E+03  0.00000000000E+00 0. -1.
         21    1    1    2  502  501  0.14096692325E+02 -0.53282192826E+02  0.38724634471E+03  0.39114887230E+03  0.00000000000E+00 0.  1.
<mgrwt>
<rscale>  1 0.96928070E+02</rscale>
<asrwt>0</asrwt>
<pdfrwt beam="1">  1        2 0.17489659E+00 0.96928070E+02</pdfrwt>
<pdfrwt beam="2">  1       -1 0.78351914E-03 0.96928070E+02</pdfrwt>
<totfact> 0.60109270E+04</totfact>
</mgrwt>
</event>
<event>
 6    2  0.1655576E+001  0.8841797E+02  0.7546771E-02  0.1306729E+00
         -1   -1    0    0    0  501 -0.00000000000E+00  0.00000000000E+00  0.48673376835E+03  0.48673376835E+03  0.00000000000E+00 0.  1.
          2   -1    0    0  502    0  0.00000000000E+00 -0.00000000000E+00 -0.17828831578E+02  0.17828831578E+02  0.00000000000E+00 0. -1.
         24    2    1    2    0    0 -0.33833784819E+02 -0.17836390048E+02  0.99201281376E+02  0.13288578518E+03  0.79717475325E+02 0.  0.
        -13    1    3    3    0    0 -0.14214147379E+02 -0.49118081445E+02  0.51632788769E+02  0.72667549750E+02  0.00000000000E+00 0.  1.
         14    1    3    3    0    0 -0.19619637441E+02  0.31281691397E+02  0.47568492606E+02  0.60218235434E+02  0.00000000000E+00 0. -1.
         21    1    1    2  502  501  0.33833784819E+02  0.17836390048E+02  0.36970365540E+03  0.37167681475E+03  0.00000000000E+00 0.  1.
<mgrwt>
<rscale>  1 0.88417971E+02</rscale>
<asrwt>0</asrwt>
<pdfrwt beam="1">  1        2 0.27428975E-02 0.88417971E+02</pdfrwt>
<pdfrwt beam="2">  1       -1 0.74882108E-01 0.88417971E+02</pdfrwt>
<totfact> 0.69139309E+03</totfact>
</mgrwt>
</event>
<event>
 6    2  0.1655576E+001  0.8230047E+02  0.7546771E-02  0.1322647E+00
         -1   -1    0    0    0  501 -0.00000000000E+00  0.00000000000E+00  0.17228688949E+02  0.17228688949E+02  0.00000000000E+00 0.  1.
          2   -1    0    0  502    0  0.00000000000E+00 -0.00000000000E+00 -0.68811420478E+03  0.68811420478E+03  0.00000000000E+00 0. -1.
         24    2    1    2    0    0  0.47460844630E+01 -0.28614985836E+02 -0.67130782191E+03  0.67633391107E+03  0.77019638919E+02 0.  0.
        -11    1    3    3    0    0  0.10524450065E+02  0.20517701876E+02 -0.39207801584E+03  0.39275553547E+03  0.00000000000E+00 0.  1.
         12    1    3    3    0    0 -0.57783656015E+01 -0.49132687712E+02 -0.27922980607E+03  0.28357837560E+03  0.00000000000E+00 0. -1.
         21    1    1    2  502  501 -0.47460844630E+01  0.28614985836E+02  0.42230608131E+00  0.29008982653E+02  0.00000000000E+00 0.  1.
<mgrwt>
<rscale>  1 0.82300471E+02</rscale>
<asrwt>0</asrwt>
<pdfrwt beam="1">  1        2 0.10586372E+00 0.82300471E+02</pdfrwt>
<pdfrwt beam="2">  1       -1 0.26505675E-02 0.82300471E+02</pdfrwt>
<totfact> 0.19976979E+04</totfact>
</mgrwt>
</event>
<event>
 6    2  0.1655576E+001  0.8741496E+02  0.7546771E-02  0.1309235E+00
          2   -1    0    0  502    0  0.00000000000E+00  0.00000000000E+00  0.29992854794E+03  0.29992854794E+03  0.00000000000E+00 0. -1.
         -1   -1    0    0    0  501 -0.00000000000E+00 -0.00000000000E+00 -0.12404510364E+02  0.12404510364E+02  0.00000000000E+00 0.  1.
         24    2    1    2    0    0 -0.28059605048E+02 -0.92880331557E+01  0.24817187781E+03  0.26311719223E+03  0.82266438568E+02 0.  0.
        -13    1    3    3    0    0  0.51398184587E+01  0.21595561863E+02  0.18165541594E+02  0.28684018675E+02  0.00000000000E+00 0.  1.
         14    1    3    3    0    0 -0.33199423507E+02 -0.30883595018E+02  0.23000633622E+03  0.23443317355E+03  0.00000000000E+00 0. -1.
         21    1    1    2  502  501  0.28059605048E+02  0.92880331557E+01  0.39352159766E+02  0.49215866076E+02  0.00000000000E+00 0. -1.
<mgrwt>
<rscale>  1 0.87414964E+02</rscale>
<asrwt>0</asrwt>
<pdfrwt beam="1">  1        2 0.46142848E-01 0.87414964E+02</pdfrwt>
<pdfrwt beam="2">  1       -1 0.19083864E-02 0.87414964E+02</pdfrwt>
<totfact> 0.78558875E+04</totfact>
</mgrwt>
</event>
<event>
 6    2  0.1655576E+001  0.8827501E+02  0.7546771E-02  0.1307084E+00
          2   -1    0    0  502    0  0.00000000000E+00  0.00000000000E+00  0.13378862538E+04  0.13378862538E+04  0.00000000000E+00 0. -1.
         -1   -1    0    0    0  501 -0.00000000000E+00 -0.00000000000E+00 -0.24228070925E+01  0.24228070925E+01  0.00000000000E+00 0.  1.
         24    2    1    2    0    0  0.31355977565E+01 -0.25253033810E+02  0.10639216153E+04  0.10675774824E+04  0.84527686504E+02 0.  0.
        -13    1    3    3    0    0  0.32591422767E+02 -0.35037597102E+02  0.38739541845E+03  0.39033965246E+03  0.00000000000E+00 0.  1.
         14    1    3    3    0    0 -0.29455825010E+02  0.97845632925E+01  0.67652619687E+03  0.67723782998E+03  0.00000000000E+00 0. -1.
         21    1    1    2  502  501 -0.31355977565E+01  0.25253033810E+02  0.27154183135E+03  0.27273157842E+03  0.00000000000E+00 0. -1.
<mgrwt>
<rscale>  1 0.88275010E+02</rscale>
<asrwt>0</asrwt>
<pdfrwt beam="1">  1        2 0.20582806E+00 0.88275010E+02</pdfrwt>
<pdfrwt beam="2">  1       -1 0.37274062E-03 0.88275010E+02</pdfrwt>
<totfact> 0.13116597E+05</totfact>
</mgrwt>
</event>
<event>
 6    2  0.1655576E+001  0.1130743E+03  0.7546771E-02  0.1254980E+00
          2   -1    0    0  502    0  0.00000000000E+00  0.00000000000E+00  0.21545415113E+03  0.21545415113E+03  0.00000000000E+00 0. -1.
         -1   -1    0    0    0  501 -0.00000000000E+00 -0.00000000000E+00 -0.24790568369E+02  0.24790568369E+02  0.00000000000E+00 0.  1.
         24    2    1    2    0    0 -0.22509345509E+02  0.22467578183E+02  0.16110340343E+03  0.19682505913E+03  0.10850960602E+03 0.  0.
        -13    1    3    3    0    0 -0.22127063426E+02 -0.34008273857E+02  0.20827145946E+02  0.45606355203E+02  0.00000000000E+00 0.  1.
         14    1    3    3    0    0 -0.38228208306E+00  0.56475852040E+02  0.14027625748E+03  0.15121870392E+03  0.00000000000E+00 0. -1.
         21    1    1    2  502  501  0.22509345509E+02 -0.22467578183E+02  0.29560179330E+02  0.43419660371E+02  0.00000000000E+00 0.  1.
<mgrwt>
<rscale>  1 0.11307430E+03</rscale>
<asrwt>0</asrwt>
<pdfrwt beam="1">  1        2 0.33146791E-01 0.11307430E+03</pdfrwt>
<pdfrwt beam="2">  1       -1 0.38139337E-02 0.11307430E+03</pdfrwt>
<totfact> 0.42476665E+04</totfact>
</mgrwt>
</event>
<event>
 6    2  0.1655576E+001  0.8255593E+02  0.7546771E-02  0.1321951E+00
          2   -1    0    0  502    0  0.00000000000E+00  0.00000000000E+00  0.74596909324E+03  0.74596909324E+03  0.00000000000E+00 0. -1.
         -1   -1    0    0    0  501 -0.00000000000E+00 -0.00000000000E+00 -0.39727144571E+01  0.39727144571E+01  0.00000000000E+00 0.  1.
         24    2    1    2    0    0 -0.11492866425E+02 -0.20826221411E+02  0.49889415310E+03  0.50567861029E+03  0.79054812806E+02 0.  0.
        -13    1    3    3    0    0 -0.17287330187E+02 -0.15038952881E+02  0.49666209074E+03  0.49719036019E+03  0.00000000000E+00 0.  1.
         14    1    3    3    0    0  0.57944637627E+01 -0.57872685297E+01  0.22320623612E+01  0.84882500975E+01  0.00000000000E+00 0. -1.
         21    1    1    2  502  501  0.11492866425E+02  0.20826221411E+02  0.24310222569E+03  0.24426319742E+03  0.00000000000E+00 0. -1.
<mgrwt>
<rscale>  1 0.82555926E+02</rscale>
<asrwt>0</asrwt>
<pdfrwt beam="1">  1        2 0.11476436E+00 0.82555926E+02</pdfrwt>
<pdfrwt beam="2">  1       -1 0.61118743E-03 0.82555926E+02</pdfrwt>
<totfact> 0.14446856E+05</totfact>
</mgrwt>
</event>
<event>
 6    2  0.1655576E+001  0.8153314E+02  0.7546771E-02  0.1324756E+00
         -1   -1    0    0    0  501 -0.00000000000E+00  0.00000000000E+00  0.53251693977E+01  0.53251693977E+01  0.00000000000E+00 0.  1.
          2   -1    0    0  502    0  0.00000000000E+00 -0.00000000000E+00 -0.79690190279E+03  0.79690190279E+03  0.00000000000E+00 0. -1.
         24    2    1    2    0    0 -0.20164231109E+02 -0.21610002699E+01 -0.76209399880E+03  0.76644302857E+03  0.78970797787E+02 0.  0.
        -13    1    3    3    0    0 -0.43322298210E+02  0.21487983290E+02 -0.43613850607E+03  0.43881129364E+03  0.00000000000E+00 0.  1.
         14    1    3    3    0    0  0.23158067101E+02 -0.23648983560E+02 -0.32595549273E+03  0.32763173493E+03  0.00000000000E+00 0. -1.
         21    1    1    2  502  501  0.20164231109E+02  0.21610002699E+01 -0.29482734596E+02  0.35784043618E+02  0.00000000000E+00 0. -1.
<mgrwt>
<rscale>  1 0.81533141E+02</rscale>
<asrwt>0</asrwt>
<pdfrwt beam="1">  1        2 0.12260022E+00 0.81533141E+02</pdfrwt>
<pdfrwt beam="2">  1       -1 0.81925733E-03 0.81533141E+02</pdfrwt>
<totfact> 0.88390175E+04</totfact>
</mgrwt>
</event>
<event>
 6    2  0.1655576E+001  0.8777108E+02  0.7546771E-02  0.1308341E+00
          2   -1    0    0  502    0  0.00000000000E+00  0.00000000000E+00  0.81133997744E+02  0.81133997744E+02  0.00000000000E+00 0. -1.
         -1   -1    0    0    0  501 -0.00000000000E+00 -0.00000000000E+00 -0.52598007509E+02  0.52598007509E+02  0.00000000000E+00 0.  1.
         24    2    1    2    0    0 -0.25571790461E+02  0.64479146394E+01  0.48844246285E+02  0.10044661305E+03  0.83715408418E+02 0.  0.
        -13    1    3    3    0    0  0.27210136290E+02 -0.12938212167E+02  0.87099827875E+01  0.31363237256E+02  0.00000000000E+00 0.  1.
         14    1    3    3    0    0 -0.52781926751E+02  0.19386126807E+02  0.40134263498E+02  0.69083375790E+02  0.00000000000E+00 0. -1.
         21    1    1    2  502  501  0.25571790461E+02 -0.64479146394E+01 -0.20308256051E+02  0.33285392207E+02  0.00000000000E+00 0. -1.
<mgrwt>
<rscale>  1 0.87771075E+02</rscale>
<asrwt>0</asrwt>
<pdfrwt beam="1">  1        2 0.12482154E-01 0.87771075E+02</pdfrwt>
<pdfrwt beam="2">  1       -1 0.80920011E-02 0.87771075E+02</pdfrwt>
<totfact> 0.40554919E+04</totfact>
</mgrwt>
</event>
<event>
 6    2  0.1655576E+001  0.9267047E+02  0.7546771E-02  0.1296511E+00
          2   -1    0    0  502    0  0.00000000000E+00  0.00000000000E+00  0.28062464070E+04  0.28062464070E+04  0.00000000000E+00 0. -1.
         -1   -1    0    0    0  501 -0.00000000000E+00 -0.00000000000E+00 -0.22618455606E+01  0.22618455606E+01  0.00000000000E+00 0.  1.
         24    2    1    2    0    0 -0.20626733603E+02 -0.40481106778E+02  0.24311652566E+04  0.24329308089E+04  0.80769014632E+02 0.  0.
        -13    1    3    3    0    0  0.21445062713E+02 -0.41262617625E+02  0.16279931205E+04  0.16286571446E+04  0.00000000000E+00 0.  1.
         14    1    3    3    0    0 -0.42071796316E+02  0.78151084714E+00  0.80317213611E+03  0.80427366427E+03  0.00000000000E+00 0. -1.
         21    1    1    2  502  501  0.20626733603E+02  0.40481106778E+02  0.37281930481E+03  0.37557744366E+03  0.00000000000E+00 0.  1.
<mgrwt>
<rscale>  1 0.92670469E+02</rscale>
<asrwt>0</asrwt>
<pdfrwt beam="1">  1        2 0.43172743E+00 0.92670469E+02</pdfrwt>
<pdfrwt beam="2">  1       -1 0.34797849E-03 0.92670469E+02</pdfrwt>
<totfact> 0.25446168E+04</totfact>
</mgrwt>
</event>
<event>
 6    2  0.1655576E+001  0.8339436E+02  0.7546771E-02  0.1319686E+00
         -1   -1    0    0    0  501 -0.00000000000E+00  0.00000000000E+00  0.30889702434E+01  0.30889702434E+01  0.00000000000E+00 0.  1.
          2   -1    0    0  502    0  0.00000000000E+00 -0.00000000000E+00 -0.10427430448E+04  0.10427430448E+04  0.00000000000E+00 0. -1.
         24    2    1    2    0    0  0.12354017117E+02 -0.17447158575E+02 -0.95046862048E+03  0.95412012759E+03  0.80607656426E+02 0.  0.
        -13    1    3    3    0    0 -0.19144051183E+02 -0.39590961236E+02 -0.43576700770E+03  0.43798039214E+03  0.00000000000E+00 0.  1.
         14    1    3    3    0    0  0.31498068300E+02  0.22143802661E+02 -0.51470161278E+03  0.51613973544E+03  0.00000000000E+00 0. -1.
         21    1    1    2  502  501 -0.12354017117E+02  0.17447158575E+02 -0.89185454053E+02  0.91711887430E+02  0.00000000000E+00 0.  1.
<mgrwt>
<rscale>  1 0.83394360E+02</rscale>
<asrwt>0</asrwt>
<pdfrwt beam="1">  1        2 0.16042198E+00 0.83394360E+02</pdfrwt>
<pdfrwt beam="2">  1       -1 0.47522627E-03 0.83394360E+02</pdfrwt>
<totfact> 0.13434107E+05</totfact>
</mgrwt>
</event>
<event>
 6    2  0.1655576E+001  0.1030887E+03  0.7546771E-02  0.1273932E+00
          2   -1    0    0  502    0  0.00000000000E+00  0.00000000000E+00  0.68607423209E+03  0.68607423209E+03  0.00000000000E+00 0. -1.
         -1   -1    0    0    0  501 -0.00000000000E+00 -0.00000000000E+00 -0.14277053476E+02  0.14277053476E+02  0.00000000000E+00 0.  1.
         24    2    1    2    0    0  0.94439977001E+00  0.62095223991E+02  0.58268591500E+03  0.59173486859E+03  0.82283476081E+02 0.  0.
        -13    1    3    3    0    0  0.48383042649E+01  0.43504375383E+02  0.10615594526E+03  0.11482649773E+03  0.00000000000E+00 0.  1.
         14    1    3    3    0    0 -0.38939044949E+01  0.18590848608E+02  0.47652996973E+03  0.47690837086E+03  0.00000000000E+00 0. -1.
         21    1    1    2  502  501 -0.94439977001E+00 -0.62095223991E+02  0.89111263620E+02  0.10861641698E+03  0.00000000000E+00 0.  1.
<mgrwt>
<rscale>  1 0.10308870E+03</rscale>
<asrwt>0</asrwt>
<pdfrwt beam="1">  1        2 0.10554986E+00 0.10308870E+03</pdfrwt>
<pdfrwt beam="2">  1       -1 0.21964703E-02 0.10308870E+03</pdfrwt>
<totfact> 0.26818357E+04</totfact>
</mgrwt>
</event>
<event>
 6    2  0.1655576E+001  0.9021158E+02  0.7546771E-02  0.1302340E+00
          2   -1    0    0  502    0  0.00000000000E+00  0.00000000000E+00  0.18605263559E+03  0.18605263559E+03  0.00000000000E+00 0. -1.
         -1   -1    0    0    0  501 -0.00000000000E+00 -0.00000000000E+00 -0.32245586375E+02  0.32245586375E+02  0.00000000000E+00 0.  1.
         24    2    1    2    0    0  0.43961369351E+02  0.13530603555E+02  0.14603190012E+03  0.17164919013E+03  0.77604441826E+02 0.  0.
        -11    1    3    3    0    0  0.24673238970E+02  0.10700559810E+02  0.27351095827E+01  0.27032416206E+02  0.00000000000E+00 0.  1.
         12    1    3    3    0    0  0.19288130381E+02  0.28300437449E+01  0.14329679054E+03  0.14461677392E+03  0.00000000000E+00 0. -1.
         21    1    1    2  502  501 -0.43961369351E+02 -0.13530603555E+02  0.77751490951E+01  0.46649031836E+02  0.00000000000E+00 0.  1.
<mgrwt>
<rscale>  1 0.90211577E+02</rscale>
<asrwt>0</asrwt>
<pdfrwt beam="1">  1        2 0.28623482E-01 0.90211577E+02</pdfrwt>
<pdfrwt beam="2">  1       -1 0.49608595E-02 0.90211577E+02</pdfrwt>
<totfact> 0.32948618E+04</totfact>
</mgrwt>
</event>
<event>
 6    2  0.1655576E+001  0.8368414E+02  0.7546771E-02  0.1318910E+00
          2   -1    0    0  502    0  0.00000000000E+00  0.00000000000E+00  0.46787609578E+02  0.46787609578E+02  0.00000000000E+00 0. -1.
         -1   -1    0    0    0  501 -0.00000000000E+00 -0.00000000000E+00 -0.65892163003E+02  0.65892163003E+02  0.00000000000E+00 0.  1.
         24    2    1    2    0    0 -0.22896346683E+02  0.13874425948E+02 -0.19411337132E+02  0.85905970030E+02  0.79286148164E+02 0.  0.
        -13    1    3    3    0    0 -0.37953620120E+02 -0.12608067800E+01 -0.40763693791E+02  0.55711270363E+02  0.00000000000E+00 0.  1.
         14    1    3    3    0    0  0.15057273437E+02  0.15135232727E+02  0.21352356659E+02  0.30194699667E+02  0.00000000000E+00 0. -1.
         21    1    1    2  502  501  0.22896346683E+02 -0.13874425948E+02  0.30678370679E+00  0.26773802551E+02  0.00000000000E+00 0.  1.
<mgrwt>
<rscale>  1 0.83684142E+02</rscale>
<asrwt>0</asrwt>
<pdfrwt beam="1">  1        2 0.71980938E-02 0.83684142E+02</pdfrwt>
<pdfrwt beam="2">  1       -1 0.10137256E-01 0.83684142E+02</pdfrwt>
<totfact> 0.56120909E+04</totfact>
</mgrwt>
</event>
<event>
 6    2  0.1655576E+001  0.8878007E+02  0.7546771E-02  0.1305833E+00
         -1   -1    0    0    0  501 -0.00000000000E+00  0.00000000000E+00  0.22522292611E+02  0.22522292611E+02  0.00000000000E+00 0.  1.
          2   -1    0    0  502    0  0.00000000000E+00 -0.00000000000E+00 -0.29309507140E+03  0.29309507140E+03  0.00000000000E+00 0. -1.
         24    2    1    2    0    0  0.36363300397E+02 -0.10120538874E+02 -0.26237998130E+03  0.27699306009E+03  0.80356616565E+02 0.  0.
        -11    1    3    3    0    0  0.21028059487E+02 -0.25446395417E+01 -0.89634648016E+01  0.22999960379E+02  0.00000000000E+00 0.  1.
         12    1    3    3    0    0  0.15335240910E+02 -0.75758993320E+01 -0.25341651650E+03  0.25399309971E+03  0.00000000000E+00 0. -1.
         21    1    1    2  502  501 -0.36363300397E+02  0.10120538874E+02 -0.81927974859E+01  0.38624303922E+02  0.00000000000E+00 0.  1.
<mgrwt>
<rscale>  1 0.88780070E+02</rscale>
<asrwt>0</asrwt>
<pdfrwt beam="1">  1        2 0.45091549E-01 0.88780070E+02</pdfrwt>
<pdfrwt beam="2">  1       -1 0.34649682E-02 0.88780070E+02</pdfrwt>
<totfact> 0.34286930E+04</totfact>
</mgrwt>
</event>
<event>
 6    2  0.1655576E+001  0.8296590E+02  0.7546771E-02  0.1320839E+00
          2   -1    0    0  502    0  0.00000000000E+00  0.00000000000E+00  0.21585462911E+03  0.21585462911E+03  0.00000000000E+00 0. -1.
         -1   -1    0    0    0  501 -0.00000000000E+00 -0.00000000000E+00 -0.12983132375E+02  0.12983132375E+02  0.00000000000E+00 0.  1.
         24    2    1    2    0    0 -0.63909769311E+01 -0.21984675321E+02  0.15733898118E+03  0.17787325905E+03  0.79744408915E+02 0.  0.
        -13    1    3    3    0    0 -0.21103621740E+02 -0.48259124549E+02  0.94363388276E+02  0.10806828859E+03  0.00000000000E+00 0.  1.
         14    1    3    3    0    0  0.14712644809E+02  0.26274449228E+02  0.62975592900E+02  0.69804970457E+02  0.00000000000E+00 0. -1.
         21    1    1    2  502  501  0.63909769311E+01  0.21984675321E+02  0.45532515555E+02  0.50964502429E+02  0.00000000000E+00 0.  1.
<mgrwt>
<rscale>  1 0.82965904E+02</rscale>
<asrwt>0</asrwt>
<pdfrwt beam="1">  1        2 0.33208402E-01 0.82965904E+02</pdfrwt>
<pdfrwt beam="2">  1       -1 0.19974051E-02 0.82965904E+02</pdfrwt>
<totfact> 0.10312399E+05</totfact>
</mgrwt>
</event>
<event>
 6    2  0.1655576E+001  0.9221967E+02  0.7546771E-02  0.1297564E+00
          2   -1    0    0  502    0  0.00000000000E+00  0.00000000000E+00  0.17117213963E+04  0.17117213963E+04  0.00000000000E+00 0. -1.
         -1   -1    0    0    0  501 -0.00000000000E+00 -0.00000000000E+00 -0.25198927019E+01  0.25198927019E+01  0.00000000000E+00 0.  1.
         24    2    1    2    0    0  0.47147252415E+01 -0.33753720567E+02  0.14294046576E+04  0.14323763971E+04  0.85690870938E+02 0.  0.
        -11    1    3    3    0    0  0.77847008453E+01  0.62990449971E+01  0.19695975583E+02  0.22095497036E+02  0.00000000000E+00 0.  1.
         12    1    3    3    0    0 -0.30699756038E+01 -0.40052765564E+02  0.14097086820E+04  0.14102809000E+04  0.00000000000E+00 0. -1.
         21    1    1    2  502  501 -0.47147252415E+01  0.33753720567E+02  0.27979684596E+03  0.28186489192E+03  0.00000000000E+00 0.  1.
<mgrwt>
<rscale>  1 0.92219671E+02</rscale>
<asrwt>0</asrwt>
<pdfrwt beam="1">  1        2 0.26334082E+00 0.92219671E+02</pdfrwt>
<pdfrwt beam="2">  1       -1 0.38767717E-03 0.92219671E+02</pdfrwt>
<totfact> 0.80411453E+04</totfact>
</mgrwt>
</event>
<event>
 6    2  0.1655576E+001  0.8522276E+02  0.7546771E-02  0.1314851E+00
          4   -1    0    0  502    0  0.00000000000E+00  0.00000000000E+00  0.25257153467E+02  0.25257153467E+02  0.00000000000E+00 0. -1.
         -3   -1    0    0    0  501 -0.00000000000E+00 -0.00000000000E+00 -0.15973439849E+03  0.15973439849E+03  0.00000000000E+00 0.  1.
         24    2    1    2    0    0 -0.24378675228E+02 -0.20587156005E+02 -0.12575585514E+03  0.15191265476E+03  0.79023849418E+02 0.  0.
        -11    1    3    3    0    0 -0.52108274233E+02 -0.15457990054E+02 -0.63615406304E+02  0.83672824855E+02  0.00000000000E+00 0.  1.
         12    1    3    3    0    0  0.27729599005E+02 -0.51291659507E+01 -0.62140448834E+02  0.68239829906E+02  0.00000000000E+00 0. -1.
         21    1    1    2  502  501  0.24378675228E+02  0.20587156005E+02 -0.87213898859E+01  0.33078897197E+02  0.00000000000E+00 0. -1.
<mgrwt>
<rscale>  1 0.85222764E+02</rscale>
<asrwt>0</asrwt>
<pdfrwt beam="1">  1        4 0.38857159E-02 0.85222764E+02</pdfrwt>
<pdfrwt beam="2">  1       -3 0.24574523E-01 0.85222764E+02</pdfrwt>
<totfact> 0.94859247E+03</totfact>
</mgrwt>
</event>
<event>
 6    2  0.1655576E+001  0.8277114E+02  0.7546771E-02  0.1321366E+00
          2   -1    0    0  502    0  0.00000000000E+00  0.00000000000E+00  0.11700507805E+02  0.11700507805E+02  0.00000000000E+00 0. -1.
         -1   -1    0    0    0  501 -0.00000000000E+00 -0.00000000000E+00 -0.56985582681E+03  0.56985582681E+03  0.00000000000E+00 0.  1.
         24    2    1    2    0    0  0.52241395307E+01 -0.27416323891E+02 -0.14122933121E+03  0.16369723665E+03  0.77923775863E+02 0.  0.
        -11    1    3    3    0    0  0.27614204094E+02 -0.88669668577E+01 -0.12888789177E+03  0.13211077175E+03  0.00000000000E+00 0.  1.
         12    1    3    3    0    0 -0.22390064563E+02 -0.18549357033E+02 -0.12341439444E+02  0.31586464903E+02  0.00000000000E+00 0. -1.
         21    1    1    2  502  501 -0.52241395307E+01  0.27416323891E+02 -0.41692598780E+03  0.41785909796E+03  0.00000000000E+00 0.  1.
<mgrwt>
<rscale>  1 0.82771138E+02</rscale>
<asrwt>0</asrwt>
<pdfrwt beam="1">  1        2 0.18000779E-02 0.82771138E+02</pdfrwt>
<pdfrwt beam="2">  1       -1 0.87670137E-01 0.82771138E+02</pdfrwt>
<totfact> 0.87729921E+03</totfact>
</mgrwt>
</event>
<event>
 6    2  0.1655576E+001  0.8331648E+02  0.7546771E-02  0.1319895E+00
         -1   -1    0    0    0  501 -0.00000000000E+00  0.00000000000E+00  0.25540899603E+02  0.25540899603E+02  0.00000000000E+00 0.  1.
          2   -1    0    0  502    0  0.00000000000E+00 -0.00000000000E+00 -0.40453618496E+03  0.40453618496E+03  0.00000000000E+00 0. -1.
         24    2    1    2    0    0 -0.15068203317E+02 -0.19802891742E+02 -0.44117665952E+02  0.94276213136E+02  0.79513713545E+02 0.  0.
        -13    1    3    3    0    0 -0.37901703744E+02 -0.35398615565E+02 -0.41648910899E+02  0.66514907424E+02  0.00000000000E+00 0.  1.
         14    1    3    3    0    0  0.22833500427E+02  0.15595723823E+02 -0.24687550532E+01  0.27761305712E+02  0.00000000000E+00 0. -1.
         21    1    1    2  502  501  0.15068203317E+02  0.19802891742E+02 -0.33487761940E+03  0.33580087142E+03  0.00000000000E+00 0. -1.
<mgrwt>
<rscale>  1 0.83316480E+02</rscale>
<asrwt>0</asrwt>
<pdfrwt beam="1">  1        2 0.62236334E-01 0.83316480E+02</pdfrwt>
<pdfrwt beam="2">  1       -1 0.39293693E-02 0.83316480E+02</pdfrwt>
<totfact> 0.20264648E+04</totfact>
</mgrwt>
</event>
<event>
 6    2  0.1655576E+001  0.9105564E+02  0.7546771E-02  0.1300315E+00
         -1   -1    0    0    0  501 -0.00000000000E+00  0.00000000000E+00  0.20430696021E+02  0.20430696021E+02  0.00000000000E+00 0.  1.
          2   -1    0    0  502    0  0.00000000000E+00 -0.00000000000E+00 -0.21664866121E+03  0.21664866121E+03  0.00000000000E+00 0. -1.
         24    2    1    2    0    0  0.76977991280E+01  0.41231168694E+02 -0.13765025340E+03  0.16504157376E+03  0.80819944473E+02 0.  0.
        -11    1    3    3    0    0  0.34051837484E+02  0.88529412650E+01 -0.20603999387E+02  0.40772870831E+02  0.00000000000E+00 0.  1.
         12    1    3    3    0    0 -0.26354038355E+02  0.32378227429E+02 -0.11704625402E+03  0.12426870293E+03  0.00000000000E+00 0. -1.
         21    1    1    2  502  501 -0.76977991280E+01 -0.41231168694E+02 -0.58567711784E+02  0.72037783468E+02  0.00000000000E+00 0. -1.
<mgrwt>
<rscale>  1 0.91055636E+02</rscale>
<asrwt>0</asrwt>
<pdfrwt beam="1">  1        2 0.33330565E-01 0.91055636E+02</pdfrwt>
<pdfrwt beam="2">  1       -1 0.31431839E-02 0.91055636E+02</pdfrwt>
<totfact> 0.54397504E+04</totfact>
</mgrwt>
</event>
<event>
 6    2  0.1655576E+001  0.9459802E+02  0.7546771E-02  0.1292084E+00
         -1   -1    0    0    0  501 -0.00000000000E+00  0.00000000000E+00  0.16816456687E+02  0.16816456687E+02  0.00000000000E+00 0.  1.
          2   -1    0    0  502    0  0.00000000000E+00 -0.00000000000E+00 -0.47319982748E+03  0.47319982748E+03  0.00000000000E+00 0. -1.
         24    2    1    2    0    0 -0.26752799047E+02  0.42402212416E+02 -0.41306310970E+03  0.42375690826E+03  0.80219229786E+02 0.  0.
        -11    1    3    3    0    0 -0.34445314480E+02 -0.13744768811E+02 -0.13658674514E+03  0.14153210699E+03  0.00000000000E+00 0.  1.
         12    1    3    3    0    0  0.76925154323E+01  0.56146981227E+02 -0.27647636456E+03  0.28222480127E+03  0.00000000000E+00 0. -1.
         21    1    1    2  502  501  0.26752799047E+02 -0.42402212416E+02 -0.43320261095E+02  0.66259375910E+02  0.00000000000E+00 0.  1.
<mgrwt>
<rscale>  1 0.94598016E+02</rscale>
<asrwt>0</asrwt>
<pdfrwt beam="1">  1        2 0.72799984E-01 0.94598016E+02</pdfrwt>
<pdfrwt beam="2">  1       -1 0.25871468E-02 0.94598016E+02</pdfrwt>
<totfact> 0.31778237E+04</totfact>
</mgrwt>
</event>
<event>
 6    2  0.1655576E+001  0.8810366E+02  0.7546771E-02  0.1307510E+00
          2   -1    0    0  502    0  0.00000000000E+00  0.00000000000E+00  0.35422342621E+03  0.35422342621E+03  0.00000000000E+00 0. -1.
         -1   -1    0    0    0  501 -0.00000000000E+00 -0.00000000000E+00 -0.12571091095E+02  0.12571091095E+02  0.00000000000E+00 0.  1.
         24    2    1    2    0    0 -0.34451000973E+02 -0.69500335767E+01  0.29800804369E+03  0.31075882682E+03  0.80790345362E+02 0.  0.
        -13    1    3    3    0    0 -0.33380707672E+02  0.20933968171E+01  0.38126130833E+02  0.50717411282E+02  0.00000000000E+00 0.  1.
         14    1    3    3    0    0 -0.10702933017E+01 -0.90434303938E+01  0.25988191286E+03  0.26004141554E+03  0.00000000000E+00 0. -1.
         21    1    1    2  502  501  0.34451000973E+02  0.69500335767E+01  0.43644291421E+02  0.56035690487E+02  0.00000000000E+00 0.  1.
<mgrwt>
<rscale>  1 0.88103657E+02</rscale>
<asrwt>0</asrwt>
<pdfrwt beam="1">  1        2 0.54495904E-01 0.88103657E+02</pdfrwt>
<pdfrwt beam="2">  1       -1 0.19340143E-02 0.88103657E+02</pdfrwt>
<totfact> 0.64859398E+04</totfact>
</mgrwt>
</event>
<event>
 6    2  0.1655576E+001  0.9421663E+02  0.7546771E-02  0.1292950E+00
          2   -1    0    0  502    0  0.00000000000E+00  0.00000000000E+00  0.54311561432E+01  0.54311561432E+01  0.00000000000E+00 0. -1.
         -1   -1    0    0    0  501 -0.00000000000E+00 -0.00000000000E+00 -0.64694936194E+03  0.64694936194E+03  0.00000000000E+00 0.  1.
         24    2    1    2    0    0  0.23021554311E+02  0.23432005933E+01 -0.54810749856E+03  0.55614620622E+03  0.91330663917E+02 0.  0.
        -11    1    3    3    0    0 -0.33693061316E+02 -0.10453995268E+02 -0.24316250565E+03  0.24570818577E+03  0.00000000000E+00 0.  1.
         12    1    3    3    0    0  0.56714615628E+02  0.12797195861E+02 -0.30494499291E+03  0.31043802046E+03  0.00000000000E+00 0. -1.
         21    1    1    2  502  501 -0.23021554311E+02 -0.23432005933E+01 -0.93410707241E+02  0.96234311860E+02  0.00000000000E+00 0. -1.
<mgrwt>
<rscale>  1 0.94216627E+02</rscale>
<asrwt>0</asrwt>
<pdfrwt beam="1">  1        2 0.83556238E-03 0.94216627E+02</pdfrwt>
<pdfrwt beam="2">  1       -1 0.99530684E-01 0.94216627E+02</pdfrwt>
<totfact> 0.19346096E+04</totfact>
</mgrwt>
</event>
<event>
 6    2  0.1655576E+001  0.8842395E+02  0.7546771E-02  0.1306714E+00
          2   -1    0    0  502    0  0.00000000000E+00  0.00000000000E+00  0.41285705247E+03  0.41285705247E+03  0.00000000000E+00 0. -1.
         -1   -1    0    0    0  501 -0.00000000000E+00 -0.00000000000E+00 -0.17581829699E+02  0.17581829699E+02  0.00000000000E+00 0.  1.
         24    2    1    2    0    0 -0.51658879323E+01 -0.34877035416E+02  0.38304765007E+03  0.39312122507E+03  0.81090698473E+02 0.  0.
        -13    1    3    3    0    0 -0.13716981748E+01  0.49001108045E+01 -0.23872711702E+01  0.56206499108E+01  0.00000000000E+00 0.  1.
         14    1    3    3    0    0 -0.37941897574E+01 -0.39777146220E+02  0.38543492124E+03  0.38750057516E+03  0.00000000000E+00 0. -1.
         21    1    1    2  502  501  0.51658879323E+01  0.34877035416E+02  0.12227572708E+02  0.37317657106E+02  0.00000000000E+00 0.  1.
<mgrwt>
<rscale>  1 0.88423953E+02</rscale>
<asrwt>0</asrwt>
<pdfrwt beam="1">  1        2 0.63516462E-01 0.88423953E+02</pdfrwt>
<pdfrwt beam="2">  1       -1 0.27048972E-02 0.88423953E+02</pdfrwt>
<totfact> 0.34202242E+04</totfact>
</mgrwt>
</event>
<event>
 6    2  0.1655576E+001  0.8464527E+02  0.7546771E-02  0.1316363E+00
         -1   -1    0    0    0  501 -0.00000000000E+00  0.00000000000E+00  0.28143813910E+01  0.28143813910E+01  0.00000000000E+00 0.  1.
          2   -1    0    0  502    0  0.00000000000E+00 -0.00000000000E+00 -0.13604239462E+04  0.13604239462E+04  0.00000000000E+00 0. -1.
         24    2    1    2    0    0  0.25871566024E+02 -0.54495905885E+01 -0.12305124209E+04  0.12334203013E+04  0.80410109121E+02 0.  0.
        -13    1    3    3    0    0  0.52655729991E+01  0.13030773720E+02 -0.36883431195E+02  0.39470429684E+02  0.00000000000E+00 0.  1.
         14    1    3    3    0    0  0.20605993024E+02 -0.18480364309E+02 -0.11936289897E+04  0.11939498716E+04  0.00000000000E+00 0. -1.
         21    1    1    2  502  501 -0.25871566024E+02  0.54495905885E+01 -0.12709714392E+03  0.12981802632E+03  0.00000000000E+00 0.  1.
<mgrwt>
<rscale>  1 0.84645269E+02</rscale>
<asrwt>0</asrwt>
<pdfrwt beam="1">  1        2 0.20929605E+00 0.84645269E+02</pdfrwt>
<pdfrwt beam="2">  1       -1 0.43298163E-03 0.84645269E+02</pdfrwt>
<totfact> 0.10305874E+05</totfact>
</mgrwt>
</event>
<event>
 6    2  0.1655576E+001  0.8900206E+02  0.7546771E-02  0.1305286E+00
         -1   -1    0    0    0  501 -0.00000000000E+00  0.00000000000E+00  0.19225712372E+02  0.19225712372E+02  0.00000000000E+00 0.  1.
          2   -1    0    0  502    0  0.00000000000E+00 -0.00000000000E+00 -0.24326766934E+03  0.24326766934E+03  0.00000000000E+00 0. -1.
         24    2    1    2    0    0 -0.33587046879E+02  0.15008568287E+01 -0.20584950540E+03  0.22426632868E+03  0.82407675721E+02 0.  0.
        -11    1    3    3    0    0 -0.44979989464E+02 -0.37918909983E+01 -0.47899232995E+02  0.65817280489E+02  0.00000000000E+00 0.  1.
         12    1    3    3    0    0  0.11392942585E+02  0.52927478270E+01 -0.15795027240E+03  0.15844904819E+03  0.00000000000E+00 0. -1.
         21    1    1    2  502  501  0.33587046879E+02 -0.15008568287E+01 -0.18192451569E+02  0.38227053030E+02  0.00000000000E+00 0. -1.
<mgrwt>
<rscale>  1 0.89002063E+02</rscale>
<asrwt>0</asrwt>
<pdfrwt beam="1">  1        2 0.37425795E-01 0.89002063E+02</pdfrwt>
<pdfrwt beam="2">  1       -1 0.29578019E-02 0.89002063E+02</pdfrwt>
<totfact> 0.52372894E+04</totfact>
</mgrwt>
</event>
<event>
 6    2  0.1655576E+001  0.1123247E+03  0.7546771E-02  0.1256324E+00
          2   -1    0    0  502    0  0.00000000000E+00  0.00000000000E+00  0.51248225968E+03  0.51248225968E+03  0.00000000000E+00 0. -1.
         -1   -1    0    0    0  501 -0.00000000000E+00 -0.00000000000E+00 -0.11629232920E+02  0.11629232920E+02  0.00000000000E+00 0.  1.
         24    2    1    2    0    0 -0.39773712309E+02  0.54289513847E+01  0.40256861645E+03  0.41794536328E+03  0.10490669204E+03 0.  0.
        -11    1    3    3    0    0 -0.57420161191E+02  0.24871406060E+02  0.37377866373E+03  0.37898041006E+03  0.00000000000E+00 0.  1.
         12    1    3    3    0    0  0.17646448883E+02 -0.19442454675E+02  0.28789952719E+02  0.38964953221E+02  0.00000000000E+00 0. -1.
         21    1    1    2  502  501  0.39773712309E+02 -0.54289513847E+01  0.98284410318E+02  0.10616612932E+03  0.00000000000E+00 0. -1.
<mgrwt>
<rscale>  1 0.11232469E+03</rscale>
<asrwt>0</asrwt>
<pdfrwt beam="1">  1        2 0.78843407E-01 0.11232469E+03</pdfrwt>
<pdfrwt beam="2">  1       -1 0.17891132E-02 0.11232469E+03</pdfrwt>
<totfact> 0.50439568E+04</totfact>
</mgrwt>
</event>
<event>
 6    2  0.1655576E+001  0.8944372E+02  0.7546771E-02  0.1304204E+00
         -1   -1    0    0    0  501 -0.00000000000E+00  0.00000000000E+00  0.77638360250E+01  0.77638360250E+01  0.00000000000E+00 0.  1.
          2   -1    0    0  502    0  0.00000000000E+00 -0.00000000000E+00 -0.47990146275E+03  0.47990146275E+03  0.00000000000E+00 0. -1.
         24    2    1    2    0    0 -0.13457506553E+02 -0.29569789269E+02 -0.35669124142E+03  0.36773471552E+03  0.83334880887E+02 0.  0.
        -13    1    3    3    0    0  0.21704880118E+02 -0.37416890892E+01 -0.25554822446E+02  0.33736493718E+02  0.00000000000E+00 0.  1.
         14    1    3    3    0    0 -0.35162386671E+02 -0.25828100180E+02 -0.33113641897E+03  0.33399822180E+03  0.00000000000E+00 0. -1.
         21    1    1    2  502  501  0.13457506553E+02  0.29569789269E+02 -0.11544638531E+03  0.11993058326E+03  0.00000000000E+00 0. -1.
<mgrwt>
<rscale>  1 0.89443721E+02</rscale>
<asrwt>0</asrwt>
<pdfrwt beam="1">  1        2 0.73830970E-01 0.89443721E+02</pdfrwt>
<pdfrwt beam="2">  1       -1 0.11944367E-02 0.89443721E+02</pdfrwt>
<totfact> 0.93439739E+04</totfact>
</mgrwt>
</event>
<event>
 6    2  0.1655576E+001  0.8415037E+02  0.7546771E-02  0.1317669E+00
         -1   -1    0    0    0  501 -0.00000000000E+00  0.00000000000E+00  0.14458239050E+01  0.14458239050E+01  0.00000000000E+00 0.  1.
          2   -1    0    0  502    0  0.00000000000E+00 -0.00000000000E+00 -0.20152551103E+04  0.20152551103E+04  0.00000000000E+00 0. -1.
         24    2    1    2    0    0 -0.17228158186E+02  0.15503169281E+02 -0.16620745465E+04  0.16642034379E+04  0.80895776861E+02 0.  0.
        -11    1    3    3    0    0 -0.48147675584E+02  0.34245723376E+00 -0.11215403884E+04  0.11225734536E+04  0.00000000000E+00 0.  1.
         12    1    3    3    0    0  0.30919517399E+02  0.15160712047E+02 -0.54053415817E+03  0.54162998430E+03  0.00000000000E+00 0. -1.
         21    1    1    2  502  501  0.17228158186E+02 -0.15503169281E+02 -0.35173473982E+03  0.35249749629E+03  0.00000000000E+00 0. -1.
<mgrwt>
<rscale>  1 0.84150368E+02</rscale>
<asrwt>0</asrwt>
<pdfrwt beam="1">  1        2 0.31003984E+00 0.84150368E+02</pdfrwt>
<pdfrwt beam="2">  1       -1 0.22243402E-03 0.84150368E+02</pdfrwt>
<totfact> 0.12141701E+05</totfact>
</mgrwt>
</event>
<event>
 6    2  0.1655576E+001  0.8604336E+02  0.7546771E-02  0.1312726E+00
          2   -1    0    0  502    0  0.00000000000E+00  0.00000000000E+00  0.11167068725E+04  0.11167068725E+04  0.00000000000E+00 0. -1.
         -1   -1    0    0    0  501 -0.00000000000E+00 -0.00000000000E+00 -0.30818109435E+01  0.30818109435E+01  0.00000000000E+00 0.  1.
         24    2    1    2    0    0 -0.16489424378E+02  0.23492111233E+02  0.92488993263E+03  0.92888365654E+03  0.81115223600E+02 0.  0.
        -11    1    3    3    0    0 -0.29387142257E+02 -0.90603334495E+01  0.14582603248E+03  0.14903330339E+03  0.00000000000E+00 0.  1.
         12    1    3    3    0    0  0.12897717879E+02  0.32552444683E+02  0.77906390015E+03  0.77985035315E+03  0.00000000000E+00 0. -1.
         21    1    1    2  502  501  0.16489424378E+02 -0.23492111233E+02  0.18873512897E+03  0.19090502695E+03  0.00000000000E+00 0.  1.
<mgrwt>
<rscale>  1 0.86043361E+02</rscale>
<asrwt>0</asrwt>
<pdfrwt beam="1">  1        2 0.17180073E+00 0.86043361E+02</pdfrwt>
<pdfrwt beam="2">  1       -1 0.47412565E-03 0.86043361E+02</pdfrwt>
<totfact> 0.12295426E+05</totfact>
</mgrwt>
</event>
<event>
 6    2  0.1655576E+001  0.8431224E+02  0.7546771E-02  0.1317241E+00
          4   -1    0    0  502    0  0.00000000000E+00  0.00000000000E+00  0.26887378859E+02  0.26887378859E+02  0.00000000000E+00 0. -1.
         -3   -1    0    0    0  501 -0.00000000000E+00 -0.00000000000E+00 -0.10383673527E+03  0.10383673527E+03  0.00000000000E+00 0.  1.
         24    2    1    2    0    0 -0.31128090765E+01 -0.20571844449E+02 -0.56109408796E+02  0.10127596001E+03  0.81704736439E+02 0.  0.
        -11    1    3    3    0    0 -0.48168784120E+01 -0.15958163821E+02 -0.77528073004E+02  0.79299857590E+02  0.00000000000E+00 0.  1.
         12    1    3    3    0    0  0.17040693355E+01 -0.46136806276E+01  0.21418664208E+02  0.21976102422E+02  0.00000000000E+00 0. -1.
         21    1    1    2  502  501  0.31128090765E+01  0.20571844449E+02 -0.20839947618E+02  0.29448154121E+02  0.00000000000E+00 0.  1.
<mgrwt>
<rscale>  1 0.84312243E+02</rscale>
<asrwt>0</asrwt>
<pdfrwt beam="1">  1        4 0.41365198E-02 0.84312243E+02</pdfrwt>
<pdfrwt beam="2">  1       -3 0.15974882E-01 0.84312243E+02</pdfrwt>
<totfact> 0.18138376E+04</totfact>
</mgrwt>
</event>
<event>
 6    2  0.1655576E+001  0.8564031E+02  0.7546771E-02  0.1313766E+00
          2   -1    0    0  502    0  0.00000000000E+00  0.00000000000E+00  0.65990066330E+02  0.65990066330E+02  0.00000000000E+00 0. -1.
         -1   -1    0    0    0  501 -0.00000000000E+00 -0.00000000000E+00 -0.51109730025E+02  0.51109730025E+02  0.00000000000E+00 0.  1.
         24    2    1    2    0    0 -0.25063964106E+02 -0.55593853591E+00  0.26248532080E+02  0.89572587279E+02  0.81888653616E+02 0.  0.
        -13    1    3    3    0    0  0.50589714729E+01  0.37035981977E+02  0.94540773744E+01  0.38556928461E+02  0.00000000000E+00 0.  1.
         14    1    3    3    0    0 -0.30122935579E+02 -0.37591920513E+02  0.16794454706E+02  0.51015658817E+02  0.00000000000E+00 0. -1.
         21    1    1    2  502  501  0.25063964106E+02  0.55593853591E+00 -0.11368195775E+02  0.27527209076E+02  0.00000000000E+00 0.  1.
<mgrwt>
<rscale>  1 0.85640312E+02</rscale>
<asrwt>0</asrwt>
<pdfrwt beam="1">  1        2 0.10152318E-01 0.85640312E+02</pdfrwt>
<pdfrwt beam="2">  1       -1 0.78630354E-02 0.85640312E+02</pdfrwt>
<totfact> 0.53988407E+04</totfact>
</mgrwt>
</event>
<event>
 6    2  0.1655576E+001  0.8179083E+02  0.7546771E-02  0.1324045E+00
          2   -1    0    0  502    0  0.00000000000E+00  0.00000000000E+00  0.45644157911E+03  0.45644157911E+03  0.00000000000E+00 0. -1.
         -1   -1    0    0    0  501 -0.00000000000E+00 -0.00000000000E+00 -0.65398097382E+01  0.65398097382E+01  0.00000000000E+00 0.  1.
         24    2    1    2    0    0 -0.15304140580E+02  0.17834727884E+02  0.39293879239E+03  0.40136097839E+03  0.78341854568E+02 0.  0.
        -11    1    3    3    0    0  0.20729665409E+02  0.35912974663E+02  0.20236759842E+03  0.20657227710E+03  0.00000000000E+00 0.  1.
         12    1    3    3    0    0 -0.36033805990E+02 -0.18078246779E+02  0.19057119396E+03  0.19478870129E+03  0.00000000000E+00 0. -1.
         21    1    1    2  502  501  0.15304140580E+02 -0.17834727884E+02  0.56962976986E+02  0.61620410455E+02  0.00000000000E+00 0.  1.
<mgrwt>
<rscale>  1 0.81790833E+02</rscale>
<asrwt>0</asrwt>
<pdfrwt beam="1">  1        2 0.70221756E-01 0.81790833E+02</pdfrwt>
<pdfrwt beam="2">  1       -1 0.10061249E-02 0.81790833E+02</pdfrwt>
<totfact> 0.12388044E+05</totfact>
</mgrwt>
</event>
<event>
 6    2  0.1655576E+001  0.7695743E+02  0.7546771E-02  0.1337914E+00
          2   -1    0    0  502    0  0.00000000000E+00  0.00000000000E+00  0.83788539568E+03  0.83788539568E+03  0.00000000000E+00 0. -1.
         -1   -1    0    0    0  501 -0.00000000000E+00 -0.00000000000E+00 -0.57548578286E+01  0.57548578286E+01  0.00000000000E+00 0.  1.
         24    2    1    2    0    0  0.38832146967E+01 -0.36378672078E+02  0.74736089802E+03  0.75131269005E+03  0.67704942140E+02 0.  0.
        -13    1    3    3    0    0  0.35360680565E+00  0.17988349197E+02  0.95572439506E+02  0.97251205328E+02  0.00000000000E+00 0.  1.
         14    1    3    3    0    0  0.35296078910E+01 -0.54367021275E+02  0.65178845852E+03  0.65406148472E+03  0.00000000000E+00 0. -1.
         21    1    1    2  502  501 -0.38832146967E+01  0.36378672078E+02  0.84769639830E+02  0.92327563465E+02  0.00000000000E+00 0.  1.
<mgrwt>
<rscale>  1 0.76957432E+02</rscale>
<asrwt>0</asrwt>
<pdfrwt beam="1">  1        2 0.12890535E+00 0.76957432E+02</pdfrwt>
<pdfrwt beam="2">  1       -1 0.88536341E-03 0.76957432E+02</pdfrwt>
<totfact> 0.73983619E+04</totfact>
</mgrwt>
</event>
<event>
 6    2  0.1655576E+001  0.9050539E+02  0.7546771E-02  0.1301632E+00
          2   -1    0    0  502    0  0.00000000000E+00  0.00000000000E+00  0.23383583849E+04  0.23383583849E+04  0.00000000000E+00 0. -1.
         -1   -1    0    0    0  501 -0.00000000000E+00 -0.00000000000E+00 -0.23358025066E+01  0.23358025066E+01  0.00000000000E+00 0.  1.
         24    2    1    2    0    0 -0.47100661631E+02  0.20387996040E+02  0.17828554221E+04  0.17851511648E+04  0.74545841382E+02 0.  0.
        -13    1    3    3    0    0 -0.12005891686E+02  0.44236790922E+02  0.72705634905E+03  0.72849980768E+03  0.00000000000E+00 0.  1.
         14    1    3    3    0    0 -0.35094769945E+02 -0.23848794882E+02  0.10557990730E+04  0.10566513571E+04  0.00000000000E+00 0. -1.
         21    1    1    2  502  501  0.47100661631E+02 -0.20387996040E+02  0.55316716032E+03  0.55554302260E+03  0.00000000000E+00 0. -1.
<mgrwt>
<rscale>  1 0.90505388E+02</rscale>
<asrwt>0</asrwt>
<pdfrwt beam="1">  1        2 0.35974557E+00 0.90505388E+02</pdfrwt>
<pdfrwt beam="2">  1       -1 0.35935610E-03 0.90505388E+02</pdfrwt>
<totfact> 0.43048521E+04</totfact>
</mgrwt>
</event>
<event>
 6    2  0.1655576E+001  0.8548739E+02  0.7546771E-02  0.1314163E+00
         -3   -1    0    0    0  501 -0.00000000000E+00  0.00000000000E+00  0.25698077691E+02  0.25698077691E+02  0.00000000000E+00 0.  1.
          4   -1    0    0  502    0  0.00000000000E+00 -0.00000000000E+00 -0.16265405452E+03  0.16265405452E+03  0.00000000000E+00 0. -1.
         24    2    1    2    0    0  0.82680898161E+01  0.30341191237E+02 -0.13087607257E+03  0.15632223320E+03  0.79493050180E+02 0.  0.
        -13    1    3    3    0    0 -0.72786121742E+01  0.87618880956E+00  0.95267537021E+01  0.12021020677E+02  0.00000000000E+00 0.  1.
         14    1    3    3    0    0  0.15546701990E+02  0.29465002427E+02 -0.14040282627E+03  0.14430121253E+03  0.00000000000E+00 0. -1.
         21    1    1    2  502  501 -0.82680898161E+01 -0.30341191237E+02 -0.60799042606E+01  0.32029899012E+02  0.00000000000E+00 0.  1.
<mgrwt>
<rscale>  1 0.85487392E+02</rscale>
<asrwt>0</asrwt>
<pdfrwt beam="1">  1        4 0.25023700E-01 0.85487392E+02</pdfrwt>
<pdfrwt beam="2">  1       -3 0.39535505E-02 0.85487392E+02</pdfrwt>
<totfact> 0.84214019E+03</totfact>
</mgrwt>
</event>
<event>
 6    2  0.1655576E+001  0.8162619E+02  0.7546771E-02  0.1324499E+00
         -1   -1    0    0    0  501 -0.00000000000E+00  0.00000000000E+00  0.22893099067E+01  0.22893099067E+01  0.00000000000E+00 0.  1.
          2   -1    0    0  502    0  0.00000000000E+00 -0.00000000000E+00 -0.14299294734E+04  0.14299294734E+04  0.00000000000E+00 0. -1.
         24    2    1    2    0    0  0.22021620997E+02  0.10246057913E+02 -0.12794684075E+04  0.12820695150E+04  0.77928826810E+02 0.  0.
        -13    1    3    3    0    0  0.11866675558E+02  0.44316659585E+02 -0.76456389297E+03  0.76593911686E+03  0.00000000000E+00 0.  1.
         14    1    3    3    0    0  0.10154945439E+02 -0.34070601672E+02 -0.51490451454E+03  0.51613039816E+03  0.00000000000E+00 0. -1.
         21    1    1    2  502  501 -0.22021620997E+02 -0.10246057913E+02 -0.14817175597E+03  0.15014926827E+03  0.00000000000E+00 0. -1.
<mgrwt>
<rscale>  1 0.81626194E+02</rscale>
<asrwt>0</asrwt>
<pdfrwt beam="1">  1        2 0.21998882E+00 0.81626194E+02</pdfrwt>
<pdfrwt beam="2">  1       -1 0.35220205E-03 0.81626194E+02</pdfrwt>
<totfact> 0.12589051E+05</totfact>
</mgrwt>
</event>
<event>
 6    2  0.1655576E+001  0.9512711E+02  0.7546771E-02  0.1290890E+00
          2   -1    0    0  502    0  0.00000000000E+00  0.00000000000E+00  0.13467211383E+03  0.13467211383E+03  0.00000000000E+00 0. -1.
         -1   -1    0    0    0  501 -0.00000000000E+00 -0.00000000000E+00 -0.53854872491E+02  0.53854872491E+02  0.00000000000E+00 0.  1.
         24    2    1    2    0    0 -0.13995339728E+02 -0.50104546377E+02  0.95170547247E+02  0.13456077011E+03  0.79641902835E+02 0.  0.
        -11    1    3    3    0    0 -0.11476931740E+02 -0.69093899201E+02  0.51694439374E+02  0.87051719863E+02  0.00000000000E+00 0.  1.
         12    1    3    3    0    0 -0.25184079877E+01  0.18989352823E+02  0.43476107874E+02  0.47509050246E+02  0.00000000000E+00 0. -1.
         21    1    1    2  502  501  0.13995339728E+02  0.50104546377E+02 -0.14353305908E+02  0.53966216212E+02  0.00000000000E+00 0.  1.
<mgrwt>
<rscale>  1 0.95127114E+02</rscale>
<asrwt>0</asrwt>
<pdfrwt beam="1">  1        2 0.20718787E-01 0.95127114E+02</pdfrwt>
<pdfrwt beam="2">  1       -1 0.82853650E-02 0.95127114E+02</pdfrwt>
<totfact> 0.22105936E+04</totfact>
</mgrwt>
</event>
<event>
 6    2  0.1655576E+001  0.8070181E+02  0.7546771E-02  0.1327072E+00
         -3   -1    0    0    0  501 -0.00000000000E+00  0.00000000000E+00  0.71188096635E+02  0.71188096635E+02  0.00000000000E+00 0.  1.
          4   -1    0    0  502    0  0.00000000000E+00 -0.00000000000E+00 -0.37342096720E+02  0.37342096720E+02  0.00000000000E+00 0. -1.
         24    2    1    2    0    0 -0.21044194339E+02 -0.54112480287E+01  0.21406641551E+02  0.83492674366E+02  0.77721571328E+02 0.  0.
        -13    1    3    3    0    0  0.16085998160E+01 -0.24150996094E+02  0.41387800728E+02  0.47945888821E+02  0.00000000000E+00 0.  1.
         14    1    3    3    0    0 -0.22652794155E+02  0.18739748065E+02 -0.19981159177E+02  0.35546785546E+02  0.00000000000E+00 0. -1.
         21    1    1    2  502  501  0.21044194339E+02  0.54112480287E+01  0.12439358364E+02  0.25037518988E+02  0.00000000000E+00 0. -1.
<mgrwt>
<rscale>  1 0.80701811E+02</rscale>
<asrwt>0</asrwt>
<pdfrwt beam="1">  1        4 0.57449380E-02 0.80701811E+02</pdfrwt>
<pdfrwt beam="2">  1       -3 0.10952015E-01 0.80701811E+02</pdfrwt>
<totfact> 0.19974550E+04</totfact>
</mgrwt>
</event>
<event>
 6    2  0.1655576E+001  0.7932326E+02  0.7546771E-02  0.1330983E+00
          2   -1    0    0  502    0  0.00000000000E+00  0.00000000000E+00  0.36041307804E+03  0.36041307804E+03  0.00000000000E+00 0. -1.
         -1   -1    0    0    0  501 -0.00000000000E+00 -0.00000000000E+00 -0.75109226611E+01  0.75109226611E+01  0.00000000000E+00 0.  1.
         24    2    1    2    0    0 -0.21081833932E+02 -0.12479318882E+02  0.27974315305E+03  0.29077209377E+03  0.75445355815E+02 0.  0.
        -13    1    3    3    0    0  0.28297832907E+02 -0.86445824980E+01  0.11494126143E+03  0.11868862512E+03  0.00000000000E+00 0.  1.
         14    1    3    3    0    0 -0.49379666839E+02 -0.38347363844E+01  0.16480189162E+03  0.17208346864E+03  0.00000000000E+00 0. -1.
         21    1    1    2  502  501  0.21081833932E+02  0.12479318882E+02  0.73159002331E+02  0.77151906935E+02  0.00000000000E+00 0. -1.
<mgrwt>
<rscale>  1 0.79323255E+02</rscale>
<asrwt>0</asrwt>
<pdfrwt beam="1">  1        2 0.55448152E-01 0.79323255E+02</pdfrwt>
<pdfrwt beam="2">  1       -1 0.11555268E-02 0.79323255E+02</pdfrwt>
<totfact> 0.13002096E+05</totfact>
</mgrwt>
</event>
<event>
 6    2  0.1655576E+001  0.9518043E+02  0.7546771E-02  0.1290770E+00
         -1   -1    0    0    0  501 -0.00000000000E+00  0.00000000000E+00  0.22888986868E+02  0.22888986868E+02  0.00000000000E+00 0.  1.
          2   -1    0    0  502    0  0.00000000000E+00 -0.00000000000E+00 -0.34496277297E+03  0.34496277297E+03  0.00000000000E+00 0. -1.
         24    2    1    2    0    0 -0.46475757645E+02  0.51988320952E+01 -0.89594064196E+02  0.13071499550E+03  0.82899275059E+02 0.  0.
        -13    1    3    3    0    0 -0.54802877591E+02 -0.23019024182E+02 -0.35767198869E+02  0.69372353150E+02  0.00000000000E+00 0.  1.
         14    1    3    3    0    0  0.83271199460E+01  0.28217856278E+02 -0.53826865327E+02  0.61342642349E+02  0.00000000000E+00 0. -1.
         21    1    1    2  502  501  0.46475757645E+02 -0.51988320952E+01 -0.23247972191E+03  0.23713676434E+03  0.00000000000E+00 0. -1.
<mgrwt>
<rscale>  1 0.95180427E+02</rscale>
<asrwt>0</asrwt>
<pdfrwt beam="1">  1        2 0.53071192E-01 0.95180427E+02</pdfrwt>
<pdfrwt beam="2">  1       -1 0.35213828E-02 0.95180427E+02</pdfrwt>
<totfact> 0.28474961E+04</totfact>
</mgrwt>
</event>
<event>
 6    2  0.1655576E+001  0.8522860E+02  0.7546771E-02  0.1314836E+00
          2   -1    0    0  502    0  0.00000000000E+00  0.00000000000E+00  0.49652091138E+03  0.49652091138E+03  0.00000000000E+00 0. -1.
         -1   -1    0    0    0  501 -0.00000000000E+00 -0.00000000000E+00 -0.76718651472E+01  0.76718651472E+01  0.00000000000E+00 0.  1.
         24    2    1    2    0    0 -0.27605864133E+02  0.57074618322E+01  0.43643475567E+03  0.44467877220E+03  0.80431683060E+02 0.  0.
        -13    1    3    3    0    0  0.13334427346E+02 -0.23240679085E+02  0.72247646529E+02  0.77056203812E+02  0.00000000000E+00 0.  1.
         14    1    3    3    0    0 -0.40940291479E+02  0.28948140917E+02  0.36418710914E+03  0.36762256839E+03  0.00000000000E+00 0. -1.
         21    1    1    2  502  501  0.27605864133E+02 -0.57074618322E+01  0.52414290572E+02  0.59514004329E+02  0.00000000000E+00 0. -1.
<mgrwt>
<rscale>  1 0.85228601E+02</rscale>
<asrwt>0</asrwt>
<pdfrwt beam="1">  1        2 0.76387807E-01 0.85228601E+02</pdfrwt>
<pdfrwt beam="2">  1       -1 0.11802873E-02 0.85228601E+02</pdfrwt>
<totfact> 0.90974098E+04</totfact>
</mgrwt>
</event>
<event>
 6    2  0.1655576E+001  0.8293501E+02  0.7546771E-02  0.1320923E+00
         -1   -1    0    0    0  501 -0.00000000000E+00  0.00000000000E+00  0.69340516711E+03  0.69340516711E+03  0.00000000000E+00 0.  1.
          2   -1    0    0  502    0  0.00000000000E+00 -0.00000000000E+00 -0.38784030415E+01  0.38784030415E+01  0.00000000000E+00 0. -1.
         24    2    1    2    0    0  0.20214669089E+02  0.27994127407E+01  0.57547332894E+03  0.58141875400E+03  0.80384983793E+02 0.  0.
        -13    1    3    3    0    0  0.27902039506E+02  0.74867097642E+01  0.57030681838E+03  0.57103803877E+03  0.00000000000E+00 0.  1.
         14    1    3    3    0    0 -0.76873704175E+01 -0.46872970235E+01  0.51665105678E+01  0.10380715234E+02  0.00000000000E+00 0. -1.
         21    1    1    2  502  501 -0.20214669089E+02 -0.27994127407E+01  0.11405343512E+03  0.11586481615E+03  0.00000000000E+00 0. -1.
<mgrwt>
<rscale>  1 0.82935006E+02</rscale>
<asrwt>0</asrwt>
<pdfrwt beam="1">  1        2 0.59667794E-03 0.82935006E+02</pdfrwt>
<pdfrwt beam="2">  1       -1 0.10667762E+00 0.82935006E+02</pdfrwt>
<totfact> 0.25936079E+04</totfact>
</mgrwt>
</event>
<event>
 6    2  0.1655576E+001  0.8514108E+02  0.7546771E-02  0.1315064E+00
          2   -1    0    0  502    0  0.00000000000E+00  0.00000000000E+00  0.26440314067E+04  0.26440314067E+04  0.00000000000E+00 0. -1.
         -1   -1    0    0    0  501 -0.00000000000E+00 -0.00000000000E+00 -0.10949141194E+01  0.10949141194E+01  0.00000000000E+00 0.  1.
         24    2    1    2    0    0  0.13598210667E+02  0.16542508731E+02  0.22452304520E+04  0.22468441838E+04  0.82404113407E+02 0.  0.
        -13    1    3    3    0    0  0.81010354035E+01  0.46209856824E+02  0.85484276188E+03  0.85612915216E+03  0.00000000000E+00 0.  1.
         14    1    3    3    0    0  0.54971752632E+01 -0.29667348094E+02  0.13903876901E+04  0.13907150317E+04  0.00000000000E+00 0. -1.
         21    1    1    2  502  501 -0.13598210667E+02 -0.16542508731E+02  0.39770604062E+03  0.39828213702E+03  0.00000000000E+00 0. -1.
<mgrwt>
<rscale>  1 0.85141082E+02</rscale>
<asrwt>0</asrwt>
<pdfrwt beam="1">  1        2 0.40676895E+00 0.85141082E+02</pdfrwt>
<pdfrwt beam="2">  1       -1 0.16845044E-03 0.85141082E+02</pdfrwt>
<totfact> 0.84740375E+04</totfact>
</mgrwt>
</event>
<event>
 6    2  0.1655576E+001  0.8355258E+02  0.7546771E-02  0.1319262E+00
          4   -1    0    0  502    0  0.00000000000E+00  0.00000000000E+00  0.30612573203E+02  0.30612573203E+02  0.00000000000E+00 0. -1.
         -3   -1    0    0    0  501 -0.00000000000E+00 -0.00000000000E+00 -0.13028240377E+03  0.13028240377E+03  0.00000000000E+00 0.  1.
         24    2    1    2    0    0  0.19773428983E+02  0.13562215034E+02 -0.32633245384E+02  0.89699289439E+02  0.80038188705E+02 0.  0.
        -11    1    3    3    0    0 -0.14660193554E+02  0.12308110162E+02 -0.48220708544E+02  0.51881090806E+02  0.00000000000E+00 0.  1.
         12    1    3    3    0    0  0.34433622537E+02  0.12541048721E+01  0.15587463160E+02  0.37818198633E+02  0.00000000000E+00 0. -1.
         21    1    1    2  502  501 -0.19773428983E+02 -0.13562215034E+02 -0.67036585185E+02  0.71195687535E+02  0.00000000000E+00 0.  1.
<mgrwt>
<rscale>  1 0.83552581E+02</rscale>
<asrwt>0</asrwt>
<pdfrwt beam="1">  1        4 0.47096267E-02 0.83552581E+02</pdfrwt>
<pdfrwt beam="2">  1       -3 0.20043447E-01 0.83552581E+02</pdfrwt>
<totfact> 0.99749999E+03</totfact>
</mgrwt>
</event>
<event>
 6    2  0.1655576E+001  0.8384759E+02  0.7546771E-02  0.1318474E+00
         -1   -1    0    0    0  501 -0.00000000000E+00  0.00000000000E+00  0.14491743970E+02  0.14491743970E+02  0.00000000000E+00 0.  1.
          2   -1    0    0  502    0  0.00000000000E+00 -0.00000000000E+00 -0.19627334393E+03  0.19627334393E+03  0.00000000000E+00 0. -1.
         24    2    1    2    0    0 -0.21266347372E+02 -0.40088520313E+01 -0.15599186299E+03  0.17709850271E+03  0.81006727615E+02 0.  0.
        -13    1    3    3    0    0 -0.58169512855E+01  0.22763610405E+02 -0.14063401017E+03  0.14258311154E+03  0.00000000000E+00 0.  1.
         14    1    3    3    0    0 -0.15449396087E+02 -0.26772462436E+02 -0.15357852820E+02  0.34515391169E+02  0.00000000000E+00 0. -1.
         21    1    1    2  502  501  0.21266347372E+02  0.40088520313E+01 -0.25789736974E+02  0.33666585190E+02  0.00000000000E+00 0.  1.
<mgrwt>
<rscale>  1 0.83847590E+02</rscale>
<asrwt>0</asrwt>
<pdfrwt beam="1">  1        2 0.30195900E-01 0.83847590E+02</pdfrwt>
<pdfrwt beam="2">  1       -1 0.22294990E-02 0.83847590E+02</pdfrwt>
<totfact> 0.97697708E+04</totfact>
</mgrwt>
</event>
<event>
 6    2  0.1655576E+001  0.8491151E+02  0.7546771E-02  0.1315664E+00
          2   -1    0    0  502    0  0.00000000000E+00  0.00000000000E+00  0.33191550570E+03  0.33191550570E+03  0.00000000000E+00 0. -1.
         -1   -1    0    0    0  501 -0.00000000000E+00 -0.00000000000E+00 -0.10111320374E+02  0.10111320374E+02  0.00000000000E+00 0.  1.
         24    2    1    2    0    0  0.23196565687E+02 -0.14430211652E+02  0.20150341246E+03  0.21866318629E+03  0.80396841597E+02 0.  0.
        -13    1    3    3    0    0 -0.55436638342E+01  0.21198801429E+02  0.14828320532E+02  0.26457522192E+02  0.00000000000E+00 0.  1.
         14    1    3    3    0    0  0.28740229521E+02 -0.35629013081E+02  0.18667509193E+03  0.19220566410E+03  0.00000000000E+00 0. -1.
         21    1    1    2  502  501 -0.23196565687E+02  0.14430211652E+02  0.12030077286E+03  0.12336363978E+03  0.00000000000E+00 0. -1.
<mgrwt>
<rscale>  1 0.84911506E+02</rscale>
<asrwt>0</asrwt>
<pdfrwt beam="1">  1        2 0.51063916E-01 0.84911506E+02</pdfrwt>
<pdfrwt beam="2">  1       -1 0.15555880E-02 0.84911506E+02</pdfrwt>
<totfact> 0.94089212E+04</totfact>
</mgrwt>
</event>
<event>
 6    2  0.1655576E+001  0.9841253E+02  0.7546771E-02  0.1283670E+00
         -1   -1    0    0    0  501 -0.00000000000E+00  0.00000000000E+00  0.15820863308E+02  0.15820863308E+02  0.00000000000E+00 0.  1.
          2   -1    0    0  502    0  0.00000000000E+00 -0.00000000000E+00 -0.76488394640E+03  0.76488394640E+03  0.00000000000E+00 0. -1.
         24    2    1    2    0    0 -0.26135155936E+02  0.51804824994E+02 -0.69323063686E+03  0.70018122111E+03  0.79487359019E+02 0.  0.
        -11    1    3    3    0    0 -0.13566651049E+02 -0.20721254568E+02 -0.18311801402E+03  0.18478536595E+03  0.00000000000E+00 0.  1.
         12    1    3    3    0    0 -0.12568504887E+02  0.72526079563E+02 -0.51011262284E+03  0.51539585516E+03  0.00000000000E+00 0. -1.
         21    1    1    2  502  501  0.26135155936E+02 -0.51804824994E+02 -0.55832446233E+02  0.80523588599E+02  0.00000000000E+00 0.  1.
<mgrwt>
<rscale>  1 0.98412532E+02</rscale>
<asrwt>0</asrwt>
<pdfrwt beam="1">  1        2 0.11767444E+00 0.98412532E+02</pdfrwt>
<pdfrwt beam="2">  1       -1 0.24339793E-02 0.98412532E+02</pdfrwt>
<totfact> 0.20257415E+04</totfact>
</mgrwt>
</event>
<event>
 6    2  0.1655576E+001  0.8618553E+02  0.7546771E-02  0.1312361E+00
         -1   -1    0    0    0  501 -0.00000000000E+00  0.00000000000E+00  0.10305036760E+02  0.10305036760E+02  0.00000000000E+00 0.  1.
          2   -1    0    0  502    0  0.00000000000E+00 -0.00000000000E+00 -0.63722677589E+03  0.63722677589E+03  0.00000000000E+00 0. -1.
         24    2    1    2    0    0 -0.13888533342E+02  0.27608846239E+02 -0.60113373865E+03  0.60728059257E+03  0.80453754556E+02 0.  0.
        -13    1    3    3    0    0 -0.25625298142E+01 -0.27390561030E+02 -0.13482720680E+03  0.13760517826E+03  0.00000000000E+00 0.  1.
         14    1    3    3    0    0 -0.11326003527E+02  0.54999407269E+02 -0.46630653185E+03  0.46967541431E+03  0.00000000000E+00 0. -1.
         21    1    1    2  502  501  0.13888533342E+02 -0.27608846239E+02 -0.25788000483E+02  0.40251220080E+02  0.00000000000E+00 0.  1.
<mgrwt>
<rscale>  1 0.86185535E+02</rscale>
<asrwt>0</asrwt>
<pdfrwt beam="1">  1        2 0.98034948E-01 0.86185535E+02</pdfrwt>
<pdfrwt beam="2">  1       -1 0.15853893E-02 0.86185535E+02</pdfrwt>
<totfact> 0.45588517E+04</totfact>
</mgrwt>
</event>
<event>
 6    2  0.1655576E+001  0.9273440E+02  0.7546771E-02  0.1296362E+00
         -1   -1    0    0    0  501 -0.00000000000E+00  0.00000000000E+00  0.11521378646E+03  0.11521378646E+03  0.00000000000E+00 0.  1.
          2   -1    0    0  502    0  0.00000000000E+00 -0.00000000000E+00 -0.80249853156E+02  0.80249853156E+02  0.00000000000E+00 0. -1.
         24    2    1    2    0    0  0.44180274196E+02  0.29199593898E+02 -0.42192310812E+02  0.10188159584E+03  0.76125919152E+02 0.  0.
        -13    1    3    3    0    0  0.35393875300E+02  0.15023596232E+02  0.15776550678E+02  0.41561212732E+02  0.00000000000E+00 0.  1.
         14    1    3    3    0    0  0.87863988961E+01  0.14175997666E+02 -0.57968861490E+02  0.60320383104E+02  0.00000000000E+00 0. -1.
         21    1    1    2  502  501 -0.44180274196E+02 -0.29199593898E+02  0.77156244114E+02  0.93582043778E+02  0.00000000000E+00 0.  1.
<mgrwt>
<rscale>  1 0.92734397E+02</rscale>
<asrwt>0</asrwt>
<pdfrwt beam="1">  1        2 0.12346131E-01 0.92734397E+02</pdfrwt>
<pdfrwt beam="2">  1       -1 0.17725198E-01 0.92734397E+02</pdfrwt>
<totfact> 0.12477523E+04</totfact>
</mgrwt>
</event>
<event>
 6    2  0.1655576E+001  0.8489053E+02  0.7546771E-02  0.1315719E+00
         -1   -1    0    0    0  501 -0.00000000000E+00  0.00000000000E+00  0.17681714357E+02  0.17681714357E+02  0.00000000000E+00 0.  1.
          2   -1    0    0  502    0  0.00000000000E+00 -0.00000000000E+00 -0.17424162261E+03  0.17424162261E+03  0.00000000000E+00 0. -1.
         24    2    1    2    0    0 -0.21277276058E+02  0.14466209696E+02 -0.12666615804E+03  0.15248186132E+03  0.80897519986E+02 0.  0.
        -11    1    3    3    0    0  0.17187828940E+02 -0.91687032337E+01 -0.16340951221E+01  0.19548832434E+02  0.00000000000E+00 0.  1.
         12    1    3    3    0    0 -0.38465104998E+02  0.23634912929E+02 -0.12503206292E+03  0.13293302889E+03  0.00000000000E+00 0. -1.
         21    1    1    2  502  501  0.21277276058E+02 -0.14466209696E+02 -0.29893750215E+02  0.39441475649E+02  0.00000000000E+00 0. -1.
<mgrwt>
<rscale>  1 0.84890532E+02</rscale>
<asrwt>0</asrwt>
<pdfrwt beam="1">  1        2 0.26806404E-01 0.84890532E+02</pdfrwt>
<pdfrwt beam="2">  1       -1 0.27202637E-02 0.84890532E+02</pdfrwt>
<totfact> 0.83665739E+04</totfact>
</mgrwt>
</event>
<event>
 6    2  0.1655576E+001  0.8455134E+02  0.7546771E-02  0.1316610E+00
          2   -1    0    0  502    0  0.00000000000E+00  0.00000000000E+00  0.33810642938E+02  0.33810642938E+02  0.00000000000E+00 0. -1.
         -1   -1    0    0    0  501 -0.00000000000E+00 -0.00000000000E+00 -0.16407210029E+03  0.16407210029E+03  0.00000000000E+00 0.  1.
         24    2    1    2    0    0  0.27754073628E+02 -0.24979772341E+02 -0.28079564646E+02  0.89092041299E+02  0.75859424219E+02 0.  0.
        -11    1    3    3    0    0 -0.13871951069E+02  0.48719247792E+01 -0.34466938553E+02  0.37471809814E+02  0.00000000000E+00 0.  1.
         12    1    3    3    0    0  0.41626024697E+02 -0.29851697121E+02  0.63873739069E+01  0.51620231484E+02  0.00000000000E+00 0. -1.
         21    1    1    2  502  501 -0.27754073628E+02  0.24979772341E+02 -0.10218189270E+03  0.10879070193E+03  0.00000000000E+00 0.  1.
<mgrwt>
<rscale>  1 0.84551345E+02</rscale>
<asrwt>0</asrwt>
<pdfrwt beam="1">  1        2 0.52016374E-02 0.84551345E+02</pdfrwt>
<pdfrwt beam="2">  1       -1 0.25241861E-01 0.84551345E+02</pdfrwt>
<totfact> 0.20465247E+04</totfact>
</mgrwt>
</event>
<event>
 6    2  0.1655576E+001  0.8512823E+02  0.7546771E-02  0.1315098E+00
         -1   -1    0    0    0  501 -0.00000000000E+00  0.00000000000E+00  0.13040895931E+01  0.13040895931E+01  0.00000000000E+00 0.  1.
          2   -1    0    0  502    0  0.00000000000E+00 -0.00000000000E+00 -0.27406928849E+04  0.27406928849E+04  0.00000000000E+00 0. -1.
         24    2    1    2    0    0 -0.30208862491E+02 -0.33974389799E+01 -0.22896414562E+04  0.22912234316E+04  0.79515391382E+02 0.  0.
        -13    1    3    3    0    0  0.42082669224E+01 -0.33233640701E+02 -0.57344617589E+03  0.57442379915E+03  0.00000000000E+00 0.  1.
         14    1    3    3    0    0 -0.34417129413E+02  0.29836201721E+02 -0.17161952803E+04  0.17167996324E+04  0.00000000000E+00 0. -1.
         21    1    1    2  502  501  0.30208862491E+02  0.33974389799E+01 -0.44974733915E+03  0.45077354296E+03  0.00000000000E+00 0.  1.
<mgrwt>
<rscale>  1 0.85128229E+02</rscale>
<asrwt>0</asrwt>
<pdfrwt beam="1">  1        2 0.42164115E+00 0.85128229E+02</pdfrwt>
<pdfrwt beam="2">  1       -1 0.20063103E-03 0.85128229E+02</pdfrwt>
<totfact> 0.59048060E+04</totfact>
</mgrwt>
</event>
<event>
 6    2  0.1655576E+001  0.1615820E+03  0.7546771E-02  0.1186922E+00
          4   -1    0    0  502    0  0.00000000000E+00  0.00000000000E+00  0.32962019734E+03  0.32962019734E+03  0.00000000000E+00 0. -1.
         -3   -1    0    0    0  501 -0.00000000000E+00 -0.00000000000E+00 -0.92137695097E+02  0.92137695097E+02  0.00000000000E+00 0.  1.
         24    2    1    2    0    0 -0.60050249573E+01  0.14363029116E+03  0.22562153847E+03  0.27751364359E+03  0.73776845246E+02 0.  0.
        -13    1    3    3    0    0  0.20616046814E+02  0.61309385011E+02  0.50061328010E+02  0.81792411866E+02  0.00000000000E+00 0.  1.
         14    1    3    3    0    0 -0.26621071772E+02  0.82320906150E+02  0.17556021046E+03  0.19572123173E+03  0.00000000000E+00 0. -1.
         21    1    1    2  502  501  0.60050249573E+01 -0.14363029116E+03  0.11860963777E+02  0.14424424885E+03  0.00000000000E+00 0.  1.
<mgrwt>
<rscale>  1 0.16158200E+03</rscale>
<asrwt>0</asrwt>
<pdfrwt beam="1">  1        4 0.50710799E-01 0.16158200E+03</pdfrwt>
<pdfrwt beam="2">  1       -3 0.14175030E-01 0.16158200E+03</pdfrwt>
<totfact> 0.31131137E+02</totfact>
</mgrwt>
</event>
<event>
 6    2  0.1655576E+001  0.8394466E+02  0.7546771E-02  0.1318216E+00
          2   -1    0    0  502    0  0.00000000000E+00  0.00000000000E+00  0.33651543199E+03  0.33651543199E+03  0.00000000000E+00 0. -1.
         -1   -1    0    0    0  501 -0.00000000000E+00 -0.00000000000E+00 -0.11940451194E+02  0.11940451194E+02  0.00000000000E+00 0.  1.
         24    2    1    2    0    0 -0.22732528100E+02  0.15519394015E+01  0.31056018470E+03  0.32170535311E+03  0.80793128111E+02 0.  0.
        -11    1    3    3    0    0  0.13802592547E+02 -0.22554047618E+02  0.21473000063E+03  0.21635195815E+03  0.00000000000E+00 0.  1.
         12    1    3    3    0    0 -0.36535120647E+02  0.24105987020E+02  0.95830184065E+02  0.10535339496E+03  0.00000000000E+00 0. -1.
         21    1    1    2  502  501  0.22732528100E+02 -0.15519394015E+01  0.14014796104E+02  0.26750530080E+02  0.00000000000E+00 0. -1.
<mgrwt>
<rscale>  1 0.83944660E+02</rscale>
<asrwt>0</asrwt>
<pdfrwt beam="1">  1        2 0.51771598E-01 0.83944660E+02</pdfrwt>
<pdfrwt beam="2">  1       -1 0.18369927E-02 0.83944660E+02</pdfrwt>
<totfact> 0.73128747E+04</totfact>
</mgrwt>
</event>
<event>
 6    2  0.1655576E+001  0.8718643E+02  0.7546771E-02  0.1309812E+00
          2   -1    0    0  502    0  0.00000000000E+00  0.00000000000E+00  0.36206301380E+01  0.36206301380E+01  0.00000000000E+00 0. -1.
         -1   -1    0    0    0  501 -0.00000000000E+00 -0.00000000000E+00 -0.19242088496E+04  0.19242088496E+04  0.00000000000E+00 0.  1.
         24    2    1    2    0    0 -0.10801084652E+02 -0.31428709143E+02 -0.18159258204E+04  0.18180176181E+04  0.80604262795E+02 0.  0.
        -11    1    3    3    0    0 -0.42951934347E+02 -0.11561126617E+02 -0.67376680696E+03  0.67523346961E+03  0.00000000000E+00 0.  1.
         12    1    3    3    0    0  0.32150849695E+02 -0.19867582525E+02 -0.11421590135E+04  0.11427841485E+04  0.00000000000E+00 0. -1.
         21    1    1    2  502  501  0.10801084652E+02  0.31428709143E+02 -0.10466239901E+03  0.10981186163E+03  0.00000000000E+00 0. -1.
<mgrwt>
<rscale>  1 0.87186435E+02</rscale>
<asrwt>0</asrwt>
<pdfrwt beam="1">  1        2 0.55701817E-03 0.87186435E+02</pdfrwt>
<pdfrwt beam="2">  1       -1 0.29603311E+00 0.87186435E+02</pdfrwt>
<totfact> 0.14697821E+03</totfact>
</mgrwt>
</event>
<event>
 6    2  0.1655576E+001  0.8609067E+02  0.7546771E-02  0.1312605E+00
         -3   -1    0    0    0  501 -0.00000000000E+00  0.00000000000E+00  0.15853240495E+03  0.15853240495E+03  0.00000000000E+00 0.  1.
          4   -1    0    0  502    0  0.00000000000E+00 -0.00000000000E+00 -0.31981940581E+02  0.31981940581E+02  0.00000000000E+00 0. -1.
         24    2    1    2    0    0 -0.15907220363E+02  0.25150567058E+02  0.32755195261E+02  0.92111382212E+02  0.80783743621E+02 0.  0.
        -11    1    3    3    0    0  0.25106888388E+01  0.30823028337E+01  0.55385383045E+02  0.55527874120E+02  0.00000000000E+00 0.  1.
         12    1    3    3    0    0 -0.18417909202E+02  0.22068264224E+02 -0.22630187784E+02  0.36583508093E+02  0.00000000000E+00 0. -1.
         21    1    1    2  502  501  0.15907220363E+02 -0.25150567058E+02  0.93795269105E+02  0.98402963317E+02  0.00000000000E+00 0.  1.
<mgrwt>
<rscale>  1 0.86090673E+02</rscale>
<asrwt>0</asrwt>
<pdfrwt beam="1">  1        4 0.49202986E-02 0.86090673E+02</pdfrwt>
<pdfrwt beam="2">  1       -3 0.24389600E-01 0.86090673E+02</pdfrwt>
<totfact> 0.66399193E+03</totfact>
</mgrwt>
</event>
<event>
 6    2  0.1655576E+001  0.8439625E+02  0.7546771E-02  0.1317019E+00
         -1   -1    0    0    0  501 -0.00000000000E+00  0.00000000000E+00  0.66817149905E+01  0.66817149905E+01  0.00000000000E+00 0.  1.
          2   -1    0    0  502    0  0.00000000000E+00 -0.00000000000E+00 -0.55530488182E+03  0.55530488182E+03  0.00000000000E+00 0. -1.
         24    2    1    2    0    0  0.13392370664E+02  0.19937223621E+02 -0.50661985701E+03  0.51360140782E+03  0.80906601227E+02 0.  0.
        -11    1    3    3    0    0  0.34276904823E+01 -0.29527881567E+02 -0.11653516914E+03  0.12026674726E+03  0.00000000000E+00 0.  1.
         12    1    3    3    0    0  0.99646801814E+01  0.49465105189E+02 -0.39008468787E+03  0.39333466056E+03  0.00000000000E+00 0. -1.
         21    1    1    2  502  501 -0.13392370664E+02 -0.19937223621E+02 -0.42003309824E+02  0.48385188993E+02  0.00000000000E+00 0.  1.
<mgrwt>
<rscale>  1 0.84396248E+02</rscale>
<asrwt>0</asrwt>
<pdfrwt beam="1">  1        2 0.85431503E-01 0.84396248E+02</pdfrwt>
<pdfrwt beam="2">  1       -1 0.10279564E-02 0.84396248E+02</pdfrwt>
<totfact> 0.97748041E+04</totfact>
</mgrwt>
</event>
<event>
 6    2  0.1655576E+001  0.8733112E+02  0.7546771E-02  0.1309447E+00
          4   -1    0    0  502    0  0.00000000000E+00  0.00000000000E+00  0.40479455122E+02  0.40479455122E+02  0.00000000000E+00 0. -1.
         -3   -1    0    0    0  501 -0.00000000000E+00 -0.00000000000E+00 -0.84528193592E+02  0.84528193592E+02  0.00000000000E+00 0.  1.
         24    2    1    2    0    0  0.25374039109E+02  0.32087341226E+01 -0.19342858162E+02  0.89447581825E+02  0.83502011335E+02 0.  0.
        -11    1    3    3    0    0  0.45039984877E+02  0.17430837077E+02 -0.35806157615E+02  0.60120838667E+02  0.00000000000E+00 0.  1.
         12    1    3    3    0    0 -0.19665945768E+02 -0.14222102954E+02  0.16463299453E+02  0.29326743158E+02  0.00000000000E+00 0. -1.
         21    1    1    2  502  501 -0.25374039109E+02 -0.32087341226E+01 -0.24705880309E+02  0.35560066890E+02  0.00000000000E+00 0.  1.
<mgrwt>
<rscale>  1 0.87331115E+02</rscale>
<asrwt>0</asrwt>
<pdfrwt beam="1">  1        4 0.62276085E-02 0.87331115E+02</pdfrwt>
<pdfrwt beam="2">  1       -3 0.13004337E-01 0.87331115E+02</pdfrwt>
<totfact> 0.13506575E+04</totfact>
</mgrwt>
</event>
<event>
 6    2  0.1655576E+001  0.8807114E+02  0.7546771E-02  0.1307591E+00
         -1   -1    0    0    0  501 -0.00000000000E+00  0.00000000000E+00  0.77579853730E+01  0.77579853730E+01  0.00000000000E+00 0.  1.
          2   -1    0    0  502    0  0.00000000000E+00 -0.00000000000E+00 -0.67712688102E+03  0.67712688102E+03  0.00000000000E+00 0. -1.
         24    2    1    2    0    0  0.15755090426E+02 -0.30764088340E+02 -0.60888699626E+03  0.61522345556E+03  0.81005395205E+02 0.  0.
        -13    1    3    3    0    0 -0.71264605544E+01  0.19579077227E+02 -0.59155842284E+02  0.62717943058E+02  0.00000000000E+00 0.  1.
         14    1    3    3    0    0  0.22881550981E+02 -0.50343165567E+02 -0.54973115398E+03  0.55250551250E+03  0.00000000000E+00 0. -1.
         21    1    1    2  502  501 -0.15755090426E+02  0.30764088340E+02 -0.60481899391E+02  0.69661410836E+02  0.00000000000E+00 0.  1.
<mgrwt>
<rscale>  1 0.88071142E+02</rscale>
<asrwt>0</asrwt>
<pdfrwt beam="1">  1        2 0.10417337E+00 0.88071142E+02</pdfrwt>
<pdfrwt beam="2">  1       -1 0.11935361E-02 0.88071142E+02</pdfrwt>
<totfact> 0.63739502E+04</totfact>
</mgrwt>
</event>
<event>
 6    2  0.1655576E+001  0.9127919E+02  0.7546771E-02  0.1299783E+00
          2   -1    0    0  502    0  0.00000000000E+00  0.00000000000E+00  0.68479309835E+03  0.68479309835E+03  0.00000000000E+00 0. -1.
         -1   -1    0    0    0  501 -0.00000000000E+00 -0.00000000000E+00 -0.65450959688E+01  0.65450959688E+01  0.00000000000E+00 0.  1.
         24    2    1    2    0    0 -0.50409440869E+00 -0.36206142001E+02  0.56822669691E+03  0.57551148545E+03  0.83789927641E+02 0.  0.
        -11    1    3    3    0    0  0.58835711026E+01  0.39568127605E+01  0.13993086915E+01  0.72270907670E+01  0.00000000000E+00 0.  1.
         12    1    3    3    0    0 -0.63876655113E+01 -0.40162954761E+02  0.56682738821E+03  0.56828439468E+03  0.00000000000E+00 0. -1.
         21    1    1    2  502  501  0.50409440869E+00  0.36206142001E+02  0.11002130547E+03  0.11582670887E+03  0.00000000000E+00 0.  1.
<mgrwt>
<rscale>  1 0.91279192E+02</rscale>
<asrwt>0</asrwt>
<pdfrwt beam="1">  1        2 0.10535273E+00 0.91279192E+02</pdfrwt>
<pdfrwt beam="2">  1       -1 0.10069384E-02 0.91279192E+02</pdfrwt>
<totfact> 0.80356451E+04</totfact>
</mgrwt>
</event>
<event>
 6    2  0.1655576E+001  0.8255666E+02  0.7546771E-02  0.1321949E+00
         -1   -1    0    0    0  501 -0.00000000000E+00  0.00000000000E+00  0.12331088610E+03  0.12331088610E+03  0.00000000000E+00 0.  1.
          2   -1    0    0  502    0  0.00000000000E+00 -0.00000000000E+00 -0.22226686295E+02  0.22226686295E+02  0.00000000000E+00 0. -1.
         24    2    1    2    0    0 -0.83370932071E+01  0.19646547237E+02  0.72551283371E+02  0.10990582725E+03  0.79750286547E+02 0.  0.
        -13    1    3    3    0    0  0.63897108477E+01  0.19919850568E+02  0.86876183149E+02  0.89359387027E+02  0.00000000000E+00 0.  1.
         14    1    3    3    0    0 -0.14726804055E+02 -0.27330333045E+00 -0.14324899778E+02  0.20546440228E+02  0.00000000000E+00 0. -1.
         21    1    1    2  502  501  0.83370932071E+01 -0.19646547237E+02  0.28532916436E+02  0.35631745142E+02  0.00000000000E+00 0. -1.
<mgrwt>
<rscale>  1 0.82556660E+02</rscale>
<asrwt>0</asrwt>
<pdfrwt beam="1">  1        2 0.34194903E-02 0.82556660E+02</pdfrwt>
<pdfrwt beam="2">  1       -1 0.18970905E-01 0.82556660E+02</pdfrwt>
<totfact> 0.55566353E+04</totfact>
</mgrwt>
</event>
<event>
 6    2  0.1655576E+001  0.8495934E+02  0.7546771E-02  0.1315539E+00
          2   -1    0    0  502    0  0.00000000000E+00  0.00000000000E+00  0.48570529624E+03  0.48570529624E+03  0.00000000000E+00 0. -1.
         -1   -1    0    0    0  501 -0.00000000000E+00 -0.00000000000E+00 -0.61885862973E+01  0.61885862973E+01  0.00000000000E+00 0.  1.
         24    2    1    2    0    0  0.16422190500E+02  0.15324452705E+02  0.41418191081E+03  0.42280579985E+03  0.81936328656E+02 0.  0.
        -13    1    3    3    0    0  0.64085604417E+01  0.13338119042E+02  0.86401271856E+01  0.17135543887E+02  0.00000000000E+00 0.  1.
         14    1    3    3    0    0  0.10013630059E+02  0.19863336628E+01  0.40554178363E+03  0.40567025597E+03  0.00000000000E+00 0. -1.
         21    1    1    2  502  501 -0.16422190500E+02 -0.15324452705E+02  0.65334799126E+02  0.69088082679E+02  0.00000000000E+00 0. -1.
<mgrwt>
<rscale>  1 0.84959338E+02</rscale>
<asrwt>0</asrwt>
<pdfrwt beam="1">  1        2 0.74723862E-01 0.84959338E+02</pdfrwt>
<pdfrwt beam="2">  1       -1 0.95209058E-03 0.84959338E+02</pdfrwt>
<totfact> 0.12602994E+05</totfact>
</mgrwt>
</event>
<event>
 6    2  0.1655576E+001  0.7822492E+02  0.7546771E-02  0.1334166E+00
         -1   -1    0    0    0  501 -0.00000000000E+00  0.00000000000E+00  0.75620654393E+01  0.75620654393E+01  0.00000000000E+00 0.  1.
          2   -1    0    0  502    0  0.00000000000E+00 -0.00000000000E+00 -0.53379257224E+03  0.53379257224E+03  0.00000000000E+00 0. -1.
         24    2    1    2    0    0  0.99910868927E+01 -0.17930480879E+02 -0.20419767331E+03  0.21866830421E+03  0.75483862640E+02 0.  0.
        -13    1    3    3    0    0 -0.19198360954E+02  0.33296864211E+01 -0.11519552910E+02  0.22635458339E+02  0.00000000000E+00 0.  1.
         14    1    3    3    0    0  0.29189447847E+02 -0.21260167300E+02 -0.19267812040E+03  0.19603284587E+03  0.00000000000E+00 0. -1.
         21    1    1    2  502  501 -0.99910868927E+01  0.17930480879E+02 -0.32203283349E+03  0.32268633347E+03  0.00000000000E+00 0. -1.
<mgrwt>
<rscale>  1 0.78224916E+02</rscale>
<asrwt>0</asrwt>
<pdfrwt beam="1">  1        2 0.82121958E-01 0.78224916E+02</pdfrwt>
<pdfrwt beam="2">  1       -1 0.11633944E-02 0.78224916E+02</pdfrwt>
<totfact> 0.84797959E+04</totfact>
</mgrwt>
</event>
<event>
 6    2  0.1655576E+001  0.8424226E+02  0.7546771E-02  0.1317426E+00
         -1   -1    0    0    0  501 -0.00000000000E+00  0.00000000000E+00  0.34179997975E+02  0.34179997975E+02  0.00000000000E+00 0.  1.
          2   -1    0    0  502    0  0.00000000000E+00 -0.00000000000E+00 -0.12857028182E+03  0.12857028182E+03  0.00000000000E+00 0. -1.
         24    2    1    2    0    0  0.16506085888E+02  0.14101690901E+02 -0.10811915570E+03  0.13706389274E+03  0.81396869137E+02 0.  0.
        -13    1    3    3    0    0 -0.10628459314E+00  0.32763730390E+02 -0.77990641661E+01  0.33679351647E+02  0.00000000000E+00 0.  1.
         14    1    3    3    0    0  0.16612370481E+02 -0.18662039489E+02 -0.10032009154E+03  0.10338454109E+03  0.00000000000E+00 0. -1.
         21    1    1    2  502  501 -0.16506085888E+02 -0.14101690901E+02  0.13728871857E+02  0.25686387057E+02  0.00000000000E+00 0.  1.
<mgrwt>
<rscale>  1 0.84242263E+02</rscale>
<asrwt>0</asrwt>
<pdfrwt beam="1">  1        2 0.19780044E-01 0.84242263E+02</pdfrwt>
<pdfrwt beam="2">  1       -1 0.52584612E-02 0.84242263E+02</pdfrwt>
<totfact> 0.44930526E+04</totfact>
</mgrwt>
</event>
<event>
 6    2  0.1655576E+001  0.8469453E+02  0.7546771E-02  0.1316233E+00
         -1   -1    0    0    0  501 -0.00000000000E+00  0.00000000000E+00  0.24434159619E+01  0.24434159619E+01  0.00000000000E+00 0.  1.
          2   -1    0    0  502    0  0.00000000000E+00 -0.00000000000E+00 -0.17139679853E+04  0.17139679853E+04  0.00000000000E+00 0. -1.
         24    2    1    2    0    0 -0.35675496737E+02  0.26663205415E+02 -0.11657068851E+04  0.11687795797E+04  0.72038158630E+02 0.  0.
        -13    1    3    3    0    0 -0.13986041424E+02  0.20234451807E+02 -0.10542984279E+03  0.10826123103E+03  0.00000000000E+00 0.  1.
         14    1    3    3    0    0 -0.21689455312E+02  0.64287536075E+01 -0.10602770423E+04  0.10605183487E+04  0.00000000000E+00 0. -1.
         21    1    1    2  502  501  0.35675496737E+02 -0.26663205415E+02 -0.54581768416E+03  0.54763182152E+03  0.00000000000E+00 0.  1.
<mgrwt>
<rscale>  1 0.84694533E+02</rscale>
<asrwt>0</asrwt>
<pdfrwt beam="1">  1        2 0.26368763E+00 0.84694533E+02</pdfrwt>
<pdfrwt beam="2">  1       -1 0.37590980E-03 0.84694533E+02</pdfrwt>
<totfact> 0.82974378E+04</totfact>
</mgrwt>
</event>
<event>
 6    2  0.1655576E+001  0.9862623E+02  0.7546771E-02  0.1283212E+00
         -1   -1    0    0    0  501 -0.00000000000E+00  0.00000000000E+00  0.47488617837E+02  0.47488617837E+02  0.00000000000E+00 0.  1.
          2   -1    0    0  502    0  0.00000000000E+00 -0.00000000000E+00 -0.12852440884E+03  0.12852440884E+03  0.00000000000E+00 0. -1.
         24    2    1    2    0    0 -0.78410514646E+01 -0.54894263025E+02 -0.65610098526E+02  0.11845597507E+03  0.81561454134E+02 0.  0.
        -13    1    3    3    0    0 -0.13219827772E+02  0.31035084234E+00  0.15386544958E+02  0.20288073584E+02  0.00000000000E+00 0.  1.
         14    1    3    3    0    0  0.53787763078E+01 -0.55204613868E+02 -0.80996643484E+02  0.98167901488E+02  0.00000000000E+00 0. -1.
         21    1    1    2  502  501  0.78410514646E+01  0.54894263025E+02 -0.15425692477E+02  0.57557051606E+02  0.00000000000E+00 0. -1.
<mgrwt>
<rscale>  1 0.98626229E+02</rscale>
<asrwt>0</asrwt>
<pdfrwt beam="1">  1        2 0.19772986E-01 0.98626229E+02</pdfrwt>
<pdfrwt beam="2">  1       -1 0.73059412E-02 0.98626229E+02</pdfrwt>
<totfact> 0.28216416E+04</totfact>
</mgrwt>
</event>
<event>
 6    2  0.1655576E+001  0.9054953E+02  0.7546771E-02  0.1301526E+00
          2   -1    0    0  502    0  0.00000000000E+00  0.00000000000E+00  0.19186694451E+04  0.19186694451E+04  0.00000000000E+00 0. -1.
         -1   -1    0    0    0  501 -0.00000000000E+00 -0.00000000000E+00 -0.26683035296E+01  0.26683035296E+01  0.00000000000E+00 0.  1.
         24    2    1    2    0    0 -0.33594911781E+02 -0.29839570111E+02  0.15402772362E+04  0.15429365448E+04  0.78614239676E+02 0.  0.
        -11    1    3    3    0    0 -0.29519445217E+02  0.22843215214E+02  0.70863290609E+03  0.70961525190E+03  0.00000000000E+00 0.  1.
         12    1    3    3    0    0 -0.40754665647E+01 -0.52682785325E+02  0.83164433015E+03  0.83332129288E+03  0.00000000000E+00 0. -1.
         21    1    1    2  502  501  0.33594911781E+02  0.29839570111E+02  0.37572390529E+03  0.37840120382E+03  0.00000000000E+00 0.  1.
<mgrwt>
<rscale>  1 0.90549526E+02</rscale>
<asrwt>0</asrwt>
<pdfrwt beam="1">  1        2 0.29517881E+00 0.90549526E+02</pdfrwt>
<pdfrwt beam="2">  1       -1 0.41050977E-03 0.90549526E+02</pdfrwt>
<totfact> 0.58350049E+04</totfact>
</mgrwt>
</event>
<event>
 6    2  0.1655576E+001  0.8583432E+02  0.7546771E-02  0.1313265E+00
          2   -1    0    0  502    0  0.00000000000E+00  0.00000000000E+00  0.74607302285E+03  0.74607302285E+03  0.00000000000E+00 0. -1.
         -1   -1    0    0    0  501 -0.00000000000E+00 -0.00000000000E+00 -0.24680212914E+02  0.24680212914E+02  0.00000000000E+00 0.  1.
         24    2    1    2    0    0  0.10465467887E+02  0.17744267815E+02  0.73880825853E+03  0.74377763738E+03  0.83325542003E+02 0.  0.
        -11    1    3    3    0    0  0.20527883739E+02 -0.25000655254E+02  0.49429463738E+03  0.49535201152E+03  0.00000000000E+00 0.  1.
         12    1    3    3    0    0 -0.10062415852E+02  0.42744923069E+02  0.24451362115E+03  0.24842562587E+03  0.00000000000E+00 0. -1.
         21    1    1    2  502  501 -0.10465467887E+02 -0.17744267815E+02 -0.17415448589E+02  0.26975598380E+02  0.00000000000E+00 0.  1.
<mgrwt>
<rscale>  1 0.85834323E+02</rscale>
<asrwt>0</asrwt>
<pdfrwt beam="1">  1        2 0.11478045E+00 0.85834323E+02</pdfrwt>
<pdfrwt beam="2">  1       -1 0.37969564E-02 0.85834323E+02</pdfrwt>
<totfact> 0.10871340E+04</totfact>
</mgrwt>
</event>
<event>
 6    2  0.1655576E+001  0.8295244E+02  0.7546771E-02  0.1320876E+00
          4   -1    0    0  502    0  0.00000000000E+00  0.00000000000E+00  0.78474158476E+03  0.78474158476E+03  0.00000000000E+00 0. -1.
         -3   -1    0    0    0  501 -0.00000000000E+00 -0.00000000000E+00 -0.44326825098E+01  0.44326825098E+01  0.00000000000E+00 0.  1.
         24    2    1    2    0    0  0.30521727332E+02 -0.10803183436E+02  0.62853871103E+03  0.63398897301E+03  0.76372914194E+02 0.  0.
        -11    1    3    3    0    0  0.12695164660E+02 -0.42624822107E+02  0.41275723463E+03  0.41514645296E+03  0.00000000000E+00 0.  1.
         12    1    3    3    0    0  0.17826562672E+02  0.31821638671E+02  0.21578147640E+03  0.21884252005E+03  0.00000000000E+00 0. -1.
         21    1    1    2  502  501 -0.30521727332E+02  0.10803183436E+02  0.15177019122E+03  0.15518529426E+03  0.00000000000E+00 0. -1.
<mgrwt>
<rscale>  1 0.82952436E+02</rscale>
<asrwt>0</asrwt>
<pdfrwt beam="1">  1        4 0.12072936E+00 0.82952436E+02</pdfrwt>
<pdfrwt beam="2">  1       -3 0.68195178E-03 0.82952436E+02</pdfrwt>
<totfact> 0.45307893E+03</totfact>
</mgrwt>
</event>
<event>
 6    2  0.1655576E+001  0.6125462E+02  0.7546771E-02  0.1392641E+00
          2   -1    0    0  502    0  0.00000000000E+00  0.00000000000E+00  0.22807409011E+04  0.22807409011E+04  0.00000000000E+00 0. -1.
         -1   -1    0    0    0  501 -0.00000000000E+00 -0.00000000000E+00 -0.22487810304E+01  0.22487810304E+01  0.00000000000E+00 0.  1.
         24    2    1    2    0    0 -0.31041687042E+02 -0.66385262524E+01  0.21411838149E+04  0.21420598165E+04  0.52387706590E+02 0.  0.
        -13    1    3    3    0    0 -0.43221308773E+02  0.60769962226E+00  0.12171175590E+04  0.12178848892E+04  0.00000000000E+00 0.  1.
         14    1    3    3    0    0  0.12179621731E+02 -0.72462258746E+01  0.92406625588E+03  0.92417492729E+03  0.00000000000E+00 0. -1.
         21    1    1    2  502  501  0.31041687042E+02  0.66385262524E+01  0.13730830518E+03  0.14092986567E+03  0.00000000000E+00 0.  1.
<mgrwt>
<rscale>  1 0.61254618E+02</rscale>
<asrwt>0</asrwt>
<pdfrwt beam="1">  1        2 0.35088137E+00 0.61254618E+02</pdfrwt>
<pdfrwt beam="2">  1       -1 0.34596814E-03 0.61254618E+02</pdfrwt>
<totfact> 0.47015679E+04</totfact>
</mgrwt>
</event>
<event>
 6    2  0.1655576E+001  0.6905673E+02  0.7546771E-02  0.1363330E+00
         -1   -1    0    0    0  501 -0.00000000000E+00  0.00000000000E+00  0.19222040389E+02  0.19222040389E+02  0.00000000000E+00 0.  1.
          2   -1    0    0  502    0  0.00000000000E+00 -0.00000000000E+00 -0.11876616636E+03  0.11876616636E+03  0.00000000000E+00 0. -1.
         24    2    1    2    0    0  0.13703339744E+02 -0.18303588201E+02 -0.89422376299E+02  0.11298315371E+03  0.65161559045E+02 0.  0.
        -13    1    3    3    0    0  0.16221535974E+02  0.64468707950E+01  0.26080190045E+01  0.17649423093E+02  0.00000000000E+00 0.  1.
         14    1    3    3    0    0 -0.25181962304E+01 -0.24750458996E+02 -0.92030395304E+02  0.95333730612E+02  0.00000000000E+00 0. -1.
         21    1    1    2  502  501 -0.13703339744E+02  0.18303588201E+02 -0.10121749668E+02  0.25005053039E+02  0.00000000000E+00 0.  1.
<mgrwt>
<rscale>  1 0.69056728E+02</rscale>
<asrwt>0</asrwt>
<pdfrwt beam="1">  1        2 0.18271718E-01 0.69056728E+02</pdfrwt>
<pdfrwt beam="2">  1       -1 0.29572369E-02 0.69056728E+02</pdfrwt>
<totfact> 0.10939467E+05</totfact>
</mgrwt>
</event>
<event>
 6    2  0.1655576E+001  0.8592650E+02  0.7546771E-02  0.1313027E+00
         -1   -1    0    0    0  501 -0.00000000000E+00  0.00000000000E+00  0.31255466063E+01  0.31255466063E+01  0.00000000000E+00 0.  1.
          2   -1    0    0  502    0  0.00000000000E+00 -0.00000000000E+00 -0.98802068315E+03  0.98802068315E+03  0.00000000000E+00 0. -1.
         24    2    1    2    0    0  0.13342308722E+00  0.24138634152E+02 -0.82074620738E+03  0.82523190727E+03  0.82466189360E+02 0.  0.
        -11    1    3    3    0    0 -0.35003469002E+02  0.25487512802E+02 -0.27840658544E+03  0.28175358554E+03  0.00000000000E+00 0.  1.
         12    1    3    3    0    0  0.35136892089E+02 -0.13488786506E+01 -0.54233962194E+03  0.54347832173E+03  0.00000000000E+00 0. -1.
         21    1    1    2  502  501 -0.13342308722E+00 -0.24138634152E+02 -0.16414892916E+03  0.16591432248E+03  0.00000000000E+00 0.  1.
<mgrwt>
<rscale>  1 0.85926503E+02</rscale>
<asrwt>0</asrwt>
<pdfrwt beam="1">  1        2 0.15200325E+00 0.85926503E+02</pdfrwt>
<pdfrwt beam="2">  1       -1 0.48085311E-03 0.85926503E+02</pdfrwt>
<totfact> 0.14277500E+05</totfact>
</mgrwt>
</event>
<event>
 6    2  0.1655576E+001  0.9051984E+02  0.7546771E-02  0.1301598E+00
          2   -1    0    0  502    0  0.00000000000E+00  0.00000000000E+00  0.13724423834E+04  0.13724423834E+04  0.00000000000E+00 0. -1.
         -1   -1    0    0    0  501 -0.00000000000E+00 -0.00000000000E+00 -0.37118310171E+01  0.37118310171E+01  0.00000000000E+00 0.  1.
         24    2    1    2    0    0  0.43753004127E+02  0.24814526422E+02  0.98273869592E+03  0.98689877213E+03  0.75257929078E+02 0.  0.
        -13    1    3    3    0    0  0.50460513971E+02  0.16948238808E+02  0.96423443276E+03  0.96570261861E+03  0.00000000000E+00 0.  1.
         14    1    3    3    0    0 -0.67075098448E+01  0.78662876139E+01  0.18504263161E+02  0.21196153525E+02  0.00000000000E+00 0. -1.
         21    1    1    2  502  501 -0.43753004127E+02 -0.24814526422E+02  0.38599185648E+03  0.38925544230E+03  0.00000000000E+00 0. -1.
<mgrwt>
<rscale>  1 0.90519843E+02</rscale>
<asrwt>0</asrwt>
<pdfrwt beam="1">  1        2 0.21114458E+00 0.90519843E+02</pdfrwt>
<pdfrwt beam="2">  1       -1 0.57105202E-03 0.90519843E+02</pdfrwt>
<totfact> 0.69541484E+04</totfact>
</mgrwt>
</event>
<event>
 6    2  0.1655576E+001  0.9282284E+02  0.7546771E-02  0.1296156E+00
          2   -1    0    0  502    0  0.00000000000E+00  0.00000000000E+00  0.79811818860E+03  0.79811818860E+03  0.00000000000E+00 0. -1.
         -1   -1    0    0    0  501 -0.00000000000E+00 -0.00000000000E+00 -0.65169267131E+01  0.65169267131E+01  0.00000000000E+00 0.  1.
         24    2    1    2    0    0 -0.41961640355E+02 -0.20591665358E+02  0.61442554152E+03  0.62139747772E+03  0.80195282280E+02 0.  0.
        -11    1    3    3    0    0 -0.72921221854E+01 -0.21968029258E+02  0.42284046675E+02  0.48204874843E+02  0.00000000000E+00 0.  1.
         12    1    3    3    0    0 -0.34669518170E+02  0.13763639004E+01  0.57214149485E+03  0.57319260288E+03  0.00000000000E+00 0. -1.
         21    1    1    2  502  501  0.41961640355E+02  0.20591665358E+02  0.17717572037E+03  0.18323763759E+03  0.00000000000E+00 0.  1.
<mgrwt>
<rscale>  1 0.92822838E+02</rscale>
<asrwt>0</asrwt>
<pdfrwt beam="1">  1        2 0.12278734E+00 0.92822838E+02</pdfrwt>
<pdfrwt beam="2">  1       -1 0.10026047E-02 0.92822838E+02</pdfrwt>
<totfact> 0.67533426E+04</totfact>
</mgrwt>
</event>
<event>
 6    2  0.1655576E+001  0.8440020E+02  0.7546771E-02  0.1317009E+00
          2   -1    0    0  502    0  0.00000000000E+00  0.00000000000E+00  0.11426236591E+03  0.11426236591E+03  0.00000000000E+00 0. -1.
         -1   -1    0    0    0  501 -0.00000000000E+00 -0.00000000000E+00 -0.25330709227E+02  0.25330709227E+02  0.00000000000E+00 0.  1.
         24    2    1    2    0    0  0.38676855081E+01 -0.20868147943E+02  0.80869054996E+02  0.11688968033E+03  0.81688155332E+02 0.  0.
        -11    1    3    3    0    0 -0.76447944435E+01 -0.26161791786E+02 -0.69768140099E+01  0.28134643507E+02  0.00000000000E+00 0.  1.
         12    1    3    3    0    0  0.11512479952E+02  0.52936438430E+01  0.87845869006E+02  0.88755036821E+02  0.00000000000E+00 0. -1.
         21    1    1    2  502  501 -0.38676855081E+01  0.20868147943E+02  0.80626016834E+01  0.22703394805E+02  0.00000000000E+00 0.  1.
<mgrwt>
<rscale>  1 0.84400197E+02</rscale>
<asrwt>0</asrwt>
<pdfrwt beam="1">  1        2 0.17578825E-01 0.84400197E+02</pdfrwt>
<pdfrwt beam="2">  1       -1 0.38970323E-02 0.84400197E+02</pdfrwt>
<totfact> 0.79357333E+04</totfact>
</mgrwt>
</event>
<event>
 6    2  0.1655576E+001  0.9852893E+02  0.7546771E-02  0.1283420E+00
          2   -1    0    0  502    0  0.00000000000E+00  0.00000000000E+00  0.21141932223E+04  0.21141932223E+04  0.00000000000E+00 0. -1.
         -1   -1    0    0    0  501 -0.00000000000E+00 -0.00000000000E+00 -0.35273793206E+01  0.35273793206E+01  0.00000000000E+00 0.  1.
         24    2    1    2    0    0  0.33989638624E+02 -0.43980208524E+02  0.17524843169E+04  0.17552518997E+04  0.81353524854E+02 0.  0.
        -13    1    3    3    0    0  0.17725300157E+02  0.18299810763E+02  0.22985386736E+03  0.23126147470E+03  0.00000000000E+00 0.  1.
         14    1    3    3    0    0  0.16264338468E+02 -0.62280019287E+02  0.15226304496E+04  0.15239904250E+04  0.00000000000E+00 0. -1.
         21    1    1    2  502  501 -0.33989638624E+02  0.43980208524E+02  0.35818152602E+03  0.36246870190E+03  0.00000000000E+00 0.  1.
<mgrwt>
<rscale>  1 0.98528931E+02</rscale>
<asrwt>0</asrwt>
<pdfrwt beam="1">  1        2 0.32525948E+00 0.98528931E+02</pdfrwt>
<pdfrwt beam="2">  1       -1 0.54267543E-03 0.98528931E+02</pdfrwt>
<totfact> 0.31677926E+04</totfact>
</mgrwt>
</event>
<event>
 6    2  0.1655576E+001  0.8304501E+02  0.7546771E-02  0.1320626E+00
          2   -1    0    0  502    0  0.00000000000E+00  0.00000000000E+00  0.42223447891E+03  0.42223447891E+03  0.00000000000E+00 0. -1.
         -1   -1    0    0    0  501 -0.00000000000E+00 -0.00000000000E+00 -0.64827355157E+01  0.64827355157E+01  0.00000000000E+00 0.  1.
         24    2    1    2    0    0  0.20284841055E+02 -0.73703781029E+01  0.32759113707E+03  0.33795329121E+03  0.80191500191E+02 0.  0.
        -13    1    3    3    0    0  0.33950155331E+02 -0.23246596706E+02  0.84749259735E+02  0.94209629715E+02  0.00000000000E+00 0.  1.
         14    1    3    3    0    0 -0.13665314276E+02  0.15876218603E+02  0.24284187733E+03  0.24374366149E+03  0.00000000000E+00 0. -1.
         21    1    1    2  502  501 -0.20284841055E+02  0.73703781029E+01  0.88160606331E+02  0.90763923222E+02  0.00000000000E+00 0.  1.
<mgrwt>
<rscale>  1 0.83045012E+02</rscale>
<asrwt>0</asrwt>
<pdfrwt beam="1">  1        2 0.64959129E-01 0.83045012E+02</pdfrwt>
<pdfrwt beam="2">  1       -1 0.99734426E-03 0.83045012E+02</pdfrwt>
<totfact> 0.13651877E+05</totfact>
</mgrwt>
</event>
<event>
 6    2  0.1655576E+001  0.7354475E+02  0.7546771E-02  0.1348438E+00
          2   -1    0    0  502    0  0.00000000000E+00  0.00000000000E+00  0.45725024852E+03  0.45725024852E+03  0.00000000000E+00 0. -1.
         -1   -1    0    0    0  501 -0.00000000000E+00 -0.00000000000E+00 -0.54113025736E+01  0.54113025736E+01  0.00000000000E+00 0.  1.
         24    2    1    2    0    0 -0.15917785971E+02 -0.14653582970E+02  0.39612056151E+03  0.40288997116E+03  0.70290299492E+02 0.  0.
        -11    1    3    3    0    0 -0.59220702330E-01 -0.39312831091E+02  0.15145411151E+03  0.15647316092E+03  0.00000000000E+00 0.  1.
         12    1    3    3    0    0 -0.15858565268E+02  0.24659248122E+02  0.24466645000E+03  0.24641681024E+03  0.00000000000E+00 0. -1.
         21    1    1    2  502  501  0.15917785971E+02  0.14653582970E+02  0.55718384433E+02  0.59771579935E+02  0.00000000000E+00 0.  1.
<mgrwt>
<rscale>  1 0.73544746E+02</rscale>
<asrwt>0</asrwt>
<pdfrwt beam="1">  1        2 0.70346162E-01 0.73544746E+02</pdfrwt>
<pdfrwt beam="2">  1       -1 0.83250845E-03 0.73544746E+02</pdfrwt>
<totfact> 0.15852258E+05</totfact>
</mgrwt>
</event>
<event>
 6    2  0.1655576E+001  0.9251131E+02  0.7546771E-02  0.1296882E+00
         -1   -1    0    0    0  501 -0.00000000000E+00  0.00000000000E+00  0.31660795845E+02  0.31660795845E+02  0.00000000000E+00 0.  1.
          2   -1    0    0  502    0  0.00000000000E+00 -0.00000000000E+00 -0.33224133259E+03  0.33224133259E+03  0.00000000000E+00 0. -1.
         24    2    1    2    0    0  0.47883608299E-01 -0.44866277041E+02 -0.30509210947E+03  0.31880956367E+03  0.80903383854E+02 0.  0.
        -13    1    3    3    0    0  0.21104479765E+02 -0.46943213272E+01 -0.17930291640E+02  0.28087916925E+02  0.00000000000E+00 0.  1.
         14    1    3    3    0    0 -0.21056596157E+02 -0.40171955713E+02 -0.28716181783E+03  0.29072164675E+03  0.00000000000E+00 0. -1.
         21    1    1    2  502  501 -0.47883608299E-01  0.44866277041E+02  0.45115727269E+01  0.45092564762E+02  0.00000000000E+00 0.  1.
<mgrwt>
<rscale>  1 0.92511311E+02</rscale>
<asrwt>0</asrwt>
<pdfrwt beam="1">  1        2 0.51114048E-01 0.92511311E+02</pdfrwt>
<pdfrwt beam="2">  1       -1 0.48708920E-02 0.92511311E+02</pdfrwt>
<totfact> 0.18416938E+04</totfact>
</mgrwt>
</event>
<event>
 6    2  0.1655576E+001  0.8250987E+02  0.7546771E-02  0.1322076E+00
          2   -1    0    0  502    0  0.00000000000E+00  0.00000000000E+00  0.11938142237E+04  0.11938142237E+04  0.00000000000E+00 0. -1.
         -1   -1    0    0    0  501 -0.00000000000E+00 -0.00000000000E+00 -0.10717426696E+02  0.10717426696E+02  0.00000000000E+00 0.  1.
         24    2    1    2    0    0  0.91008933632E+01  0.22985192631E+02  0.11758900346E+04  0.11787812569E+04  0.78719330094E+02 0.  0.
        -11    1    3    3    0    0 -0.13223093728E+02 -0.12979267197E+02  0.81781656622E+02  0.83854343623E+02  0.00000000000E+00 0.  1.
         12    1    3    3    0    0  0.22323987091E+02  0.35964459828E+02  0.10941083779E+04  0.10949269133E+04  0.00000000000E+00 0. -1.
         21    1    1    2  502  501 -0.91008933632E+01 -0.22985192631E+02  0.72067624616E+01  0.25750393502E+02  0.00000000000E+00 0.  1.
<mgrwt>
<rscale>  1 0.82509868E+02</rscale>
<asrwt>0</asrwt>
<pdfrwt beam="1">  1        2 0.18366362E+00 0.82509868E+02</pdfrwt>
<pdfrwt beam="2">  1       -1 0.16488358E-02 0.82509868E+02</pdfrwt>
<totfact> 0.19255686E+04</totfact>
</mgrwt>
</event>
<event>
 6    2  0.1655576E+001  0.8677028E+02  0.7546771E-02  0.1310867E+00
         -1   -1    0    0    0  501 -0.00000000000E+00  0.00000000000E+00  0.11364803757E+01  0.11364803757E+01  0.00000000000E+00 0.  1.
          2   -1    0    0  502    0  0.00000000000E+00 -0.00000000000E+00 -0.30045620600E+04  0.30045620600E+04  0.00000000000E+00 0. -1.
         24    2    1    2    0    0 -0.47458179245E+01 -0.29131209951E+02 -0.23645519355E+04  0.23661434737E+04  0.81596152941E+02 0.  0.
        -13    1    3    3    0    0  0.92772748305E+01 -0.16696329948E+02 -0.11978654950E+03  0.12129984626E+03  0.00000000000E+00 0.  1.
         14    1    3    3    0    0 -0.14023092755E+02 -0.12434880004E+02 -0.22447653860E+04  0.22448436274E+04  0.00000000000E+00 0. -1.
         21    1    1    2  502  501  0.47458179245E+01  0.29131209951E+02 -0.63887364414E+03  0.63955506671E+03  0.00000000000E+00 0. -1.
<mgrwt>
<rscale>  1 0.86770285E+02</rscale>
<asrwt>0</asrwt>
<pdfrwt beam="1">  1        2 0.46223934E+00 0.86770285E+02</pdfrwt>
<pdfrwt beam="2">  1       -1 0.17484350E-03 0.86770285E+02</pdfrwt>
<totfact> 0.51039545E+04</totfact>
</mgrwt>
</event>
<event>
 6    2  0.4781541E+001  0.1370749E+03  0.7546771E-02  0.1217320E+00
          2   -1    0    0  502    0  0.00000000000E+00  0.00000000000E+00  0.83776912712E+03  0.83776912712E+03  0.00000000000E+00 0. -1.
         -1   -1    0    0    0  501 -0.00000000000E+00 -0.00000000000E+00 -0.48462229129E+02  0.48462229129E+02  0.00000000000E+00 0.  1.
         24    2    1    2    0    0 -0.10920994829E+03 -0.18308833191E+02  0.61829149332E+02  0.15037410041E+03  0.80792946399E+02 0.  0.
        -13    1    3    3    0    0 -0.91337314054E+02 -0.21801525517E+02  0.80942863713E+02  0.12397402405E+03  0.00000000000E+00 0.  1.
         14    1    3    3    0    0 -0.17872634237E+02  0.34926923258E+01 -0.19113714380E+02  0.26400076357E+02  0.00000000000E+00 0. -1.
         21    1    1    2  502  501  0.10920994829E+03  0.18308833191E+02  0.72747774866E+03  0.73585725584E+03  0.00000000000E+00 0. -1.
<mgrwt>
<rscale>  1 0.13707489E+03</rscale>
<asrwt>0</asrwt>
<pdfrwt beam="1">  1        2 0.12888755E+00 0.13707489E+03</pdfrwt>
<pdfrwt beam="2">  1       -1 0.74557282E-02 0.13707489E+03</pdfrwt>
<totfact> 0.35742985E+03</totfact>
</mgrwt>
</event>
<event>
 6    2  0.1655576E+001  0.9191776E+02  0.7546771E-02  0.1298273E+00
         -1   -1    0    0    0  501 -0.00000000000E+00  0.00000000000E+00  0.87659096732E+03  0.87659096732E+03  0.00000000000E+00 0.  1.
          2   -1    0    0  502    0  0.00000000000E+00 -0.00000000000E+00 -0.11846239460E+02  0.11846239460E+02  0.00000000000E+00 0. -1.
         24    2    1    2    0    0 -0.36534967618E+02  0.32834392714E+02  0.18168151882E+03  0.20361003972E+03  0.77691523277E+02 0.  0.
        -13    1    3    3    0    0 -0.57167010984E+02  0.39950899564E+02  0.13044929001E+03  0.14792281361E+03  0.00000000000E+00 0.  1.
         14    1    3    3    0    0  0.20632043366E+02 -0.71165068494E+01  0.51232228813E+02  0.55687226114E+02  0.00000000000E+00 0. -1.
         21    1    1    2  502  501  0.36534967618E+02 -0.32834392714E+02  0.68306320904E+03  0.68482716706E+03  0.00000000000E+00 0.  1.
<mgrwt>
<rscale>  1 0.91917757E+02</rscale>
<asrwt>0</asrwt>
<pdfrwt beam="1">  1        2 0.18224991E-02 0.91917757E+02</pdfrwt>
<pdfrwt beam="2">  1       -1 0.13486010E+00 0.91917757E+02</pdfrwt>
<totfact> 0.33097238E+03</totfact>
</mgrwt>
</event>
<event>
 6    2  0.1655576E+001  0.8393695E+02  0.7546771E-02  0.1318236E+00
          2   -1    0    0  502    0  0.00000000000E+00  0.00000000000E+00  0.16344574086E+04  0.16344574086E+04  0.00000000000E+00 0. -1.
         -1   -1    0    0    0  501 -0.00000000000E+00 -0.00000000000E+00 -0.22169921228E+01  0.22169921228E+01  0.00000000000E+00 0.  1.
         24    2    1    2    0    0 -0.13559967621E+02  0.16151580341E+02  0.15289928893E+04  0.15312950947E+04  0.81244478304E+02 0.  0.
        -13    1    3    3    0    0 -0.12978673347E+01  0.21631298001E+02  0.10375178536E+03  0.10599070939E+03  0.00000000000E+00 0.  1.
         14    1    3    3    0    0 -0.12262100287E+02 -0.54797176597E+01  0.14252411039E+04  0.14253043853E+04  0.00000000000E+00 0. -1.
         21    1    1    2  502  501  0.13559967621E+02 -0.16151580341E+02  0.10324752716E+03  0.10537930601E+03  0.00000000000E+00 0. -1.
<mgrwt>
<rscale>  1 0.83936950E+02</rscale>
<asrwt>0</asrwt>
<pdfrwt beam="1">  1        2 0.25145402E+00 0.83936950E+02</pdfrwt>
<pdfrwt beam="2">  1       -1 0.34107702E-03 0.83936950E+02</pdfrwt>
<totfact> 0.10402396E+05</totfact>
</mgrwt>
</event>
<event>
 6    2  0.1655576E+001  0.8857770E+02  0.7546771E-02  0.1306333E+00
          2   -1    0    0  502    0  0.00000000000E+00  0.00000000000E+00  0.96150829283E+03  0.96150829283E+03  0.00000000000E+00 0. -1.
         -1   -1    0    0    0  501 -0.00000000000E+00 -0.00000000000E+00 -0.41709209652E+01  0.41709209652E+01  0.00000000000E+00 0.  1.
         24    2    1    2    0    0  0.31353566036E+02 -0.21470616353E+02  0.68512378507E+03  0.69082603425E+03  0.80012344428E+02 0.  0.
        -13    1    3    3    0    0  0.34811166114E-01  0.19706803893E+02  0.52275880531E+02  0.55867047682E+02  0.00000000000E+00 0.  1.
         14    1    3    3    0    0  0.31318754870E+02 -0.41177420246E+02  0.63284790454E+03  0.63495898656E+03  0.00000000000E+00 0. -1.
         21    1    1    2  502  501 -0.31353566036E+02  0.21470616353E+02  0.27221358680E+03  0.27485317955E+03  0.00000000000E+00 0.  1.
<mgrwt>
<rscale>  1 0.88577699E+02</rscale>
<asrwt>0</asrwt>
<pdfrwt beam="1">  1        2 0.14792418E+00 0.88577699E+02</pdfrwt>
<pdfrwt beam="2">  1       -1 0.64168091E-03 0.88577699E+02</pdfrwt>
<totfact> 0.99283807E+04</totfact>
</mgrwt>
</event>
<event>
 6    2  0.1655576E+001  0.8253956E+02  0.7546771E-02  0.1321995E+00
         -1   -1    0    0    0  501 -0.00000000000E+00  0.00000000000E+00  0.17024401711E+01  0.17024401711E+01  0.00000000000E+00 0.  1.
          2   -1    0    0  502    0  0.00000000000E+00 -0.00000000000E+00 -0.17221377105E+04  0.17221377105E+04  0.00000000000E+00 0. -1.
         24    2    1    2    0    0 -0.59806118397E+01  0.22674239092E+02 -0.11714210542E+04  0.11743253662E+04  0.79138427142E+02 0.  0.
        -13    1    3    3    0    0  0.34948478961E+02 -0.22024942171E+00 -0.57677491701E+03  0.57783280417E+03  0.00000000000E+00 0.  1.
         14    1    3    3    0    0 -0.40929090801E+02  0.22894488514E+02 -0.59464613717E+03  0.59649256201E+03  0.00000000000E+00 0. -1.
         21    1    1    2  502  501  0.59806118397E+01 -0.22674239092E+02 -0.54901421618E+03  0.54951478452E+03  0.00000000000E+00 0.  1.
<mgrwt>
<rscale>  1 0.82539563E+02</rscale>
<asrwt>0</asrwt>
<pdfrwt beam="1">  1        2 0.26494592E+00 0.82539563E+02</pdfrwt>
<pdfrwt beam="2">  1       -1 0.26191224E-03 0.82539563E+02</pdfrwt>
<totfact> 0.13535777E+05</totfact>
</mgrwt>
</event>
<event>
 6    2  0.1655576E+001  0.8342708E+02  0.7546771E-02  0.1319598E+00
         -1   -1    0    0    0  501 -0.00000000000E+00  0.00000000000E+00  0.39212148807E+01  0.39212148807E+01  0.00000000000E+00 0.  1.
          2   -1    0    0  502    0  0.00000000000E+00 -0.00000000000E+00 -0.78467596110E+03  0.78467596110E+03  0.00000000000E+00 0. -1.
         24    2    1    2    0    0 -0.19218989118E+02 -0.17006206856E+02 -0.65146260805E+03  0.65678277007E+03  0.79381967433E+02 0.  0.
        -11    1    3    3    0    0 -0.17785098783E+02 -0.31246821187E+02 -0.12352217518E+03  0.12864836312E+03  0.00000000000E+00 0.  1.
         12    1    3    3    0    0 -0.14338903348E+01  0.14240614330E+02 -0.52794043287E+03  0.52813440695E+03  0.00000000000E+00 0. -1.
         21    1    1    2  502  501  0.19218989118E+02  0.17006206856E+02 -0.12929213817E+03  0.13181440591E+03  0.00000000000E+00 0. -1.
<mgrwt>
<rscale>  1 0.83427078E+02</rscale>
<asrwt>0</asrwt>
<pdfrwt beam="1">  1        2 0.12071940E+00 0.83427078E+02</pdfrwt>
<pdfrwt beam="2">  1       -1 0.60326373E-03 0.83427078E+02</pdfrwt>
<totfact> 0.13870537E+05</totfact>
</mgrwt>
</event>
<event>
 6    2  0.1655576E+001  0.9813795E+02  0.7546771E-02  0.1284261E+00
         -1   -1    0    0    0  501 -0.00000000000E+00  0.00000000000E+00  0.13093228817E+03  0.13093228817E+03  0.00000000000E+00 0.  1.
          2   -1    0    0  502    0  0.00000000000E+00 -0.00000000000E+00 -0.45949620188E+02  0.45949620188E+02  0.00000000000E+00 0. -1.
         24    2    1    2    0    0 -0.52219804838E+02 -0.21285478155E+02  0.46396129875E+02  0.10855255507E+03  0.80318595278E+02 0.  0.
        -13    1    3    3    0    0 -0.42176518916E+02 -0.38589487013E+01  0.67316582801E+02  0.79531582110E+02  0.00000000000E+00 0.  1.
         14    1    3    3    0    0 -0.10043285922E+02 -0.17426529453E+02 -0.20920452926E+02  0.29020972960E+02  0.00000000000E+00 0. -1.
         21    1    1    2  502  501  0.52219804838E+02  0.21285478155E+02  0.38586538105E+02  0.68329353286E+02  0.00000000000E+00 0. -1.
<mgrwt>
<rscale>  1 0.98137945E+02</rscale>
<asrwt>0</asrwt>
<pdfrwt beam="1">  1        2 0.70691724E-02 0.98137945E+02</pdfrwt>
<pdfrwt beam="2">  1       -1 0.20143429E-01 0.98137945E+02</pdfrwt>
<totfact> 0.20262539E+04</totfact>
</mgrwt>
</event>
<event>
 6    2  0.1655576E+001  0.8436374E+02  0.7546771E-02  0.1317105E+00
          2   -1    0    0  502    0  0.00000000000E+00  0.00000000000E+00  0.29740544748E+03  0.29740544748E+03  0.00000000000E+00 0. -1.
         -1   -1    0    0    0  501 -0.00000000000E+00 -0.00000000000E+00 -0.10197953262E+02  0.10197953262E+02  0.00000000000E+00 0.  1.
         24    2    1    2    0    0  0.23823243280E+02 -0.34180871669E+01  0.24360649849E+03  0.25780102060E+03  0.80857961084E+02 0.  0.
        -13    1    3    3    0    0  0.16567051300E+02 -0.37574796976E+01  0.32021846716E+01  0.17286984385E+02  0.00000000000E+00 0.  1.
         14    1    3    3    0    0  0.72561919803E+01  0.33939253069E+00  0.24040431382E+03  0.24051403621E+03  0.00000000000E+00 0. -1.
         21    1    1    2  502  501 -0.23823243280E+02  0.34180871669E+01  0.43600995725E+02  0.49802380149E+02  0.00000000000E+00 0.  1.
<mgrwt>
<rscale>  1 0.84363737E+02</rscale>
<asrwt>0</asrwt>
<pdfrwt beam="1">  1        2 0.45754678E-01 0.84363737E+02</pdfrwt>
<pdfrwt beam="2">  1       -1 0.15689161E-02 0.84363737E+02</pdfrwt>
<totfact> 0.10412334E+05</totfact>
</mgrwt>
</event>
<event>
 6    2  0.1655576E+001  0.8247147E+02  0.7546771E-02  0.1322181E+00
         -1   -1    0    0    0  501 -0.00000000000E+00  0.00000000000E+00  0.10250558642E+03  0.10250558642E+03  0.00000000000E+00 0.  1.
          2   -1    0    0  502    0  0.00000000000E+00 -0.00000000000E+00 -0.26519844091E+02  0.26519844091E+02  0.00000000000E+00 0. -1.
         24    2    1    2    0    0  0.11338569169E+02 -0.17980342175E+02  0.54827532277E+02  0.99033336417E+02  0.79684926873E+02 0.  0.
        -11    1    3    3    0    0  0.19485823355E+02 -0.44954562380E+02  0.50784816369E+02  0.70567043045E+02  0.00000000000E+00 0.  1.
         12    1    3    3    0    0 -0.81472541857E+01  0.26974220205E+02  0.40427159087E+01  0.28466293372E+02  0.00000000000E+00 0. -1.
         21    1    1    2  502  501 -0.11338569169E+02  0.17980342175E+02  0.21158210050E+02  0.29992094092E+02  0.00000000000E+00 0. -1.
<mgrwt>
<rscale>  1 0.82471470E+02</rscale>
<asrwt>0</asrwt>
<pdfrwt beam="1">  1        2 0.40799761E-02 0.82471470E+02</pdfrwt>
<pdfrwt beam="2">  1       -1 0.15770090E-01 0.82471470E+02</pdfrwt>
<totfact> 0.58862524E+04</totfact>
</mgrwt>
</event>
<event>
 6    2  0.1655576E+001  0.8623511E+02  0.7546771E-02  0.1312234E+00
          2   -1    0    0  502    0  0.00000000000E+00  0.00000000000E+00  0.38201027850E+01  0.38201027850E+01  0.00000000000E+00 0. -1.
         -1   -1    0    0    0  501 -0.00000000000E+00 -0.00000000000E+00 -0.94009317983E+03  0.94009317983E+03  0.00000000000E+00 0.  1.
         24    2    1    2    0    0  0.29879232368E+02 -0.98796447887E+01 -0.59907028488E+03  0.60524515753E+03  0.80287723678E+02 0.  0.
        -11    1    3    3    0    0  0.10780906724E+02  0.30519463946E+02 -0.39578900309E+03  0.39711031288E+03  0.00000000000E+00 0.  1.
         12    1    3    3    0    0  0.19098325644E+02 -0.40399108734E+02 -0.20328128179E+03  0.20813484464E+03  0.00000000000E+00 0. -1.
         21    1    1    2  502  501 -0.29879232368E+02  0.98796447887E+01 -0.33720279217E+03  0.33866812509E+03  0.00000000000E+00 0.  1.
<mgrwt>
<rscale>  1 0.86235112E+02</rscale>
<asrwt>0</asrwt>
<pdfrwt beam="1">  1        2 0.58770816E-03 0.86235112E+02</pdfrwt>
<pdfrwt beam="2">  1       -1 0.14462971E+00 0.86235112E+02</pdfrwt>
<totfact> 0.12978692E+04</totfact>
</mgrwt>
</event>
<event>
 6    2  0.1655576E+001  0.8555196E+02  0.7546771E-02  0.1313995E+00
          2   -1    0    0  502    0  0.00000000000E+00  0.00000000000E+00  0.52314612555E+03  0.52314612555E+03  0.00000000000E+00 0. -1.
         -1   -1    0    0    0  501 -0.00000000000E+00 -0.00000000000E+00 -0.65146411884E+01  0.65146411884E+01  0.00000000000E+00 0.  1.
         24    2    1    2    0    0  0.23535127316E+02  0.17155020859E+02  0.33734009813E+03  0.34801936690E+03  0.80442159174E+02 0.  0.
        -11    1    3    3    0    0 -0.64084342905E+01 -0.14246703185E+02  0.11741163638E+02  0.19542044552E+02  0.00000000000E+00 0.  1.
         12    1    3    3    0    0  0.29943561606E+02  0.31401724043E+02  0.32559893450E+03  0.32847732235E+03  0.00000000000E+00 0. -1.
         21    1    1    2  502  501 -0.23535127316E+02 -0.17155020859E+02  0.17929138623E+03  0.18164139984E+03  0.00000000000E+00 0.  1.
<mgrwt>
<rscale>  1 0.85551960E+02</rscale>
<asrwt>0</asrwt>
<pdfrwt beam="1">  1        2 0.80483986E-01 0.85551960E+02</pdfrwt>
<pdfrwt beam="2">  1       -1 0.10022529E-02 0.85551960E+02</pdfrwt>
<totfact> 0.10832601E+05</totfact>
</mgrwt>
</event>
<event>
 6    2  0.1655576E+001  0.8509115E+02  0.7546771E-02  0.1315194E+00
          2   -1    0    0  502    0  0.00000000000E+00  0.00000000000E+00  0.48842370942E+03  0.48842370942E+03  0.00000000000E+00 0. -1.
         -1   -1    0    0    0  501 -0.00000000000E+00 -0.00000000000E+00 -0.11967343430E+02  0.11967343430E+02  0.00000000000E+00 0.  1.
         24    2    1    2    0    0  0.15556569816E+02  0.14618761710E+02  0.14408592961E+03  0.16733576910E+03  0.82369833364E+02 0.  0.
        -11    1    3    3    0    0 -0.14064951585E+02 -0.77946216280E+01 -0.23597169814E+01  0.16252607596E+02  0.00000000000E+00 0.  1.
         12    1    3    3    0    0  0.29621521402E+02  0.22413383338E+02  0.14644564660E+03  0.15108316150E+03  0.00000000000E+00 0. -1.
         21    1    1    2  502  501 -0.15556569816E+02 -0.14618761710E+02  0.33237043637E+03  0.33305528375E+03  0.00000000000E+00 0.  1.
<mgrwt>
<rscale>  1 0.85091154E+02</rscale>
<asrwt>0</asrwt>
<pdfrwt beam="1">  1        2 0.75142094E-01 0.85091154E+02</pdfrwt>
<pdfrwt beam="2">  1       -1 0.18411301E-02 0.85091154E+02</pdfrwt>
<totfact> 0.49319361E+04</totfact>
</mgrwt>
</event>
<event>
 6    2  0.1655576E+001  0.8383470E+02  0.7546771E-02  0.1318508E+00
         -1   -1    0    0    0  501 -0.00000000000E+00  0.00000000000E+00  0.27083359804E+02  0.27083359804E+02  0.00000000000E+00 0.  1.
          2   -1    0    0  502    0  0.00000000000E+00 -0.00000000000E+00 -0.10522862658E+04  0.10522862658E+04  0.00000000000E+00 0. -1.
         24    2    1    2    0    0 -0.22190356285E+02  0.13955040430E+02 -0.10438431152E+04  0.10472042332E+04  0.79631036245E+02 0.  0.
        -11    1    3    3    0    0  0.94013228406E+01 -0.12303867045E+02 -0.46400164493E+02  0.48915695645E+02  0.00000000000E+00 0.  1.
         12    1    3    3    0    0 -0.31591679125E+02  0.26258907474E+02 -0.99744295067E+03  0.99828853757E+03  0.00000000000E+00 0. -1.
         21    1    1    2  502  501  0.22190356285E+02 -0.13955040430E+02  0.18640209208E+02  0.32165392345E+02  0.00000000000E+00 0.  1.
<mgrwt>
<rscale>  1 0.83834700E+02</rscale>
<asrwt>0</asrwt>
<pdfrwt beam="1">  1        2 0.16189021E+00 0.83834700E+02</pdfrwt>
<pdfrwt beam="2">  1       -1 0.41666703E-02 0.83834700E+02</pdfrwt>
<totfact> 0.61202587E+03</totfact>
</mgrwt>
</event>
<event>
 6    2  0.1655576E+001  0.8482527E+02  0.7546771E-02  0.1315890E+00
         -1   -1    0    0    0  501 -0.00000000000E+00  0.00000000000E+00  0.13508638063E+02  0.13508638063E+02  0.00000000000E+00 0.  1.
          2   -1    0    0  502    0  0.00000000000E+00 -0.00000000000E+00 -0.30529776790E+03  0.30529776790E+03  0.00000000000E+00 0. -1.
         24    2    1    2    0    0 -0.15506513530E+02  0.13342710190E+02 -0.28483895030E+03  0.29720120120E+03  0.82321604163E+02 0.  0.
        -11    1    3    3    0    0  0.20218455630E+02  0.20361996431E+02 -0.37613677852E+02  0.47309466370E+02  0.00000000000E+00 0.  1.
         12    1    3    3    0    0 -0.35724969160E+02 -0.70192862413E+01 -0.24722527245E+03  0.24989173483E+03  0.00000000000E+00 0. -1.
         21    1    1    2  502  501  0.15506513530E+02 -0.13342710190E+02 -0.69501795359E+01  0.21605204758E+02  0.00000000000E+00 0.  1.
<mgrwt>
<rscale>  1 0.84825270E+02</rscale>
<asrwt>0</asrwt>
<pdfrwt beam="1">  1        2 0.46968883E-01 0.84825270E+02</pdfrwt>
<pdfrwt beam="2">  1       -1 0.20782522E-02 0.84825270E+02</pdfrwt>
<totfact> 0.68003909E+04</totfact>
</mgrwt>
</event>
<event>
 6    2  0.1655576E+001  0.8530501E+02  0.7546771E-02  0.1314637E+00
          2   -1    0    0  502    0  0.00000000000E+00  0.00000000000E+00  0.19784309179E+02  0.19784309179E+02  0.00000000000E+00 0. -1.
         -1   -1    0    0    0  501 -0.00000000000E+00 -0.00000000000E+00 -0.24424008241E+03  0.24424008241E+03  0.00000000000E+00 0.  1.
         24    2    1    2    0    0 -0.16548620334E+02 -0.13093375295E+02 -0.76535129114E+02  0.11460615218E+03  0.82653800988E+02 0.  0.
        -11    1    3    3    0    0 -0.29705871792E+02 -0.43199409564E+02 -0.48314877206E+02  0.71294846693E+02  0.00000000000E+00 0.  1.
         12    1    3    3    0    0  0.13157251458E+02  0.30106034269E+02 -0.28220251907E+02  0.43311305488E+02  0.00000000000E+00 0. -1.
         21    1    1    2  502  501  0.16548620334E+02  0.13093375295E+02 -0.14792064412E+03  0.14941823941E+03  0.00000000000E+00 0.  1.
<mgrwt>
<rscale>  1 0.85305006E+02</rscale>
<asrwt>0</asrwt>
<pdfrwt beam="1">  1        2 0.30437400E-02 0.85305006E+02</pdfrwt>
<pdfrwt beam="2">  1       -1 0.37575396E-01 0.85305006E+02</pdfrwt>
<totfact> 0.21251102E+04</totfact>
</mgrwt>
</event>
<event>
 6    2  0.1655576E+001  0.8388667E+02  0.7546771E-02  0.1318370E+00
          2   -1    0    0  502    0  0.00000000000E+00  0.00000000000E+00  0.84793992470E+03  0.84793992470E+03  0.00000000000E+00 0. -1.
         -1   -1    0    0    0  501 -0.00000000000E+00 -0.00000000000E+00 -0.54287810019E+01  0.54287810019E+01  0.00000000000E+00 0.  1.
         24    2    1    2    0    0  0.18986684249E+02 -0.75761595550E+01  0.81386335775E+03  0.81817512657E+03  0.81357730276E+02 0.  0.
        -11    1    3    3    0    0  0.45475218176E+02 -0.71595504514E+00  0.28515677978E+03  0.28876096882E+03  0.00000000000E+00 0.  1.
         12    1    3    3    0    0 -0.26488533927E+02 -0.68602045098E+01  0.52870657797E+03  0.52941415775E+03  0.00000000000E+00 0. -1.
         21    1    1    2  502  501 -0.18986684249E+02  0.75761595550E+01  0.28647785941E+02  0.35193579125E+02  0.00000000000E+00 0. -1.
<mgrwt>
<rscale>  1 0.83886665E+02</rscale>
<asrwt>0</asrwt>
<pdfrwt beam="1">  1        2 0.13045219E+00 0.83886665E+02</pdfrwt>
<pdfrwt beam="2">  1       -1 0.83519775E-03 0.83886665E+02</pdfrwt>
<totfact> 0.80015495E+04</totfact>
</mgrwt>
</event>
<event>
 6    2  0.1655576E+001  0.8477839E+02  0.7546771E-02  0.1316013E+00
          2   -1    0    0  502    0  0.00000000000E+00  0.00000000000E+00  0.70403502156E+03  0.70403502156E+03  0.00000000000E+00 0. -1.
         -1   -1    0    0    0  501 -0.00000000000E+00 -0.00000000000E+00 -0.44833820951E+01  0.44833820951E+01  0.00000000000E+00 0.  1.
         24    2    1    2    0    0  0.24525714035E+01  0.24357362291E+02  0.60208361532E+03  0.60802307075E+03  0.81166979292E+02 0.  0.
        -11    1    3    3    0    0  0.12113145432E+02  0.45762811790E+02  0.21145408815E+03  0.21668824295E+03  0.00000000000E+00 0.  1.
         12    1    3    3    0    0 -0.96605740288E+01 -0.21405449499E+02  0.39062952717E+03  0.39133482781E+03  0.00000000000E+00 0. -1.
         21    1    1    2  502  501 -0.24525714035E+01 -0.24357362291E+02  0.97468024139E+02  0.10049533290E+03  0.00000000000E+00 0. -1.
<mgrwt>
<rscale>  1 0.84778386E+02</rscale>
<asrwt>0</asrwt>
<pdfrwt beam="1">  1        2 0.10831299E+00 0.84778386E+02</pdfrwt>
<pdfrwt beam="2">  1       -1 0.68975165E-03 0.84778386E+02</pdfrwt>
<totfact> 0.13107545E+05</totfact>
</mgrwt>
</event>
<event>
 6    2  0.1655576E+001  0.8636492E+02  0.7546771E-02  0.1311901E+00
          2   -1    0    0  502    0  0.00000000000E+00  0.00000000000E+00  0.47249590656E+03  0.47249590656E+03  0.00000000000E+00 0. -1.
         -1   -1    0    0    0  501 -0.00000000000E+00 -0.00000000000E+00 -0.70512378949E+01  0.70512378949E+01  0.00000000000E+00 0.  1.
         24    2    1    2    0    0  0.10487094539E+02 -0.27011257588E+02  0.35701007613E+03  0.36730789978E+03  0.81359151849E+02 0.  0.
        -11    1    3    3    0    0  0.18405546426E+02  0.23764443483E+02  0.77735566776E+02  0.83344653430E+02  0.00000000000E+00 0.  1.
         12    1    3    3    0    0 -0.79184518861E+01 -0.50775701071E+02  0.27927450936E+03  0.28396324635E+03  0.00000000000E+00 0. -1.
         21    1    1    2  502  501 -0.10487094539E+02  0.27011257588E+02  0.10843459253E+03  0.11223924468E+03  0.00000000000E+00 0. -1.
<mgrwt>
<rscale>  1 0.86364916E+02</rscale>
<asrwt>0</asrwt>
<pdfrwt beam="1">  1        2 0.72691653E-01 0.86364916E+02</pdfrwt>
<pdfrwt beam="2">  1       -1 0.10848062E-02 0.86364916E+02</pdfrwt>
<totfact> 0.10828262E+05</totfact>
</mgrwt>
</event>
<event>
 6    2  0.1655576E+001  0.1427342E+03  0.7546771E-02  0.1209697E+00
         -1   -1    0    0    0  501 -0.00000000000E+00  0.00000000000E+00  0.51852916734E+01  0.51852916734E+01  0.00000000000E+00 0.  1.
          2   -1    0    0  502    0  0.00000000000E+00 -0.00000000000E+00 -0.40442796187E+04  0.40442796187E+04  0.00000000000E+00 0. -1.
         24    2    1    2    0    0 -0.11441490163E+03  0.28969427646E+02 -0.12967131582E+04  0.13045451533E+04  0.80268580303E+02 0.  0.
        -13    1    3    3    0    0 -0.12179001697E+03  0.41099421426E+02 -0.11684806211E+04  0.11755292139E+04  0.00000000000E+00 0.  1.
         14    1    3    3    0    0  0.73751153449E+01 -0.12129993780E+02 -0.12823253707E+03  0.12901593948E+03  0.00000000000E+00 0. -1.
         21    1    1    2  502  501  0.11441490163E+03 -0.28969427646E+02 -0.27423811688E+04  0.27449197570E+04  0.00000000000E+00 0. -1.
<mgrwt>
<rscale>  1 0.14273417E+03</rscale>
<asrwt>0</asrwt>
<pdfrwt beam="1">  1        2 0.62219604E+00 0.14273417E+03</pdfrwt>
<pdfrwt beam="2">  1       -1 0.79773824E-03 0.14273417E+03</pdfrwt>
<totfact> 0.12755022E+03</totfact>
</mgrwt>
</event>
<event>
 6    2  0.1655576E+001  0.8448646E+02  0.7546771E-02  0.1316781E+00
         -1   -1    0    0    0  501 -0.00000000000E+00  0.00000000000E+00  0.41051086368E+01  0.41051086368E+01  0.00000000000E+00 0.  1.
          2   -1    0    0  502    0  0.00000000000E+00 -0.00000000000E+00 -0.10948212085E+04  0.10948212085E+04  0.00000000000E+00 0. -1.
         24    2    1    2    0    0 -0.27591411480E+02 -0.25008444316E+01 -0.10111767310E+04  0.10147001252E+04  0.79814926787E+02 0.  0.
        -11    1    3    3    0    0 -0.35420301646E+02 -0.25914042493E+02 -0.31025233987E+03  0.31334110768E+03  0.00000000000E+00 0.  1.
         12    1    3    3    0    0  0.78288901665E+01  0.23413198062E+02 -0.70092439110E+03  0.70135901749E+03  0.00000000000E+00 0. -1.
         21    1    1    2  502  501  0.27591411480E+02  0.25008444316E+01 -0.79539368857E+02  0.84226191939E+02  0.00000000000E+00 0.  1.
<mgrwt>
<rscale>  1 0.84486465E+02</rscale>
<asrwt>0</asrwt>
<pdfrwt beam="1">  1        2 0.16843413E+00 0.84486465E+02</pdfrwt>
<pdfrwt beam="2">  1       -1 0.63155482E-03 0.84486465E+02</pdfrwt>
<totfact> 0.84506972E+04</totfact>
</mgrwt>
</event>
<event>
 6    2  0.1655576E+001  0.8391711E+02  0.7546771E-02  0.1318289E+00
         -1   -1    0    0    0  501 -0.00000000000E+00  0.00000000000E+00  0.36279468467E+03  0.36279468467E+03  0.00000000000E+00 0.  1.
          2   -1    0    0  502    0  0.00000000000E+00 -0.00000000000E+00 -0.21822602994E+02  0.21822602994E+02  0.00000000000E+00 0. -1.
         24    2    1    2    0    0  0.80445516218E+01  0.23082639844E+02  0.61405827782E+02  0.10398440757E+03  0.80278006073E+02 0.  0.
        -13    1    3    3    0    0  0.33842540629E+02  0.39647450596E+02  0.46678581999E+02  0.69972336765E+02  0.00000000000E+00 0.  1.
         14    1    3    3    0    0 -0.25797989007E+02 -0.16564810752E+02  0.14727245783E+02  0.34012070804E+02  0.00000000000E+00 0. -1.
         21    1    1    2  502  501 -0.80445516218E+01 -0.23082639844E+02  0.27956625390E+03  0.28063288010E+03  0.00000000000E+00 0.  1.
<mgrwt>
<rscale>  1 0.83917110E+02</rscale>
<asrwt>0</asrwt>
<pdfrwt beam="1">  1        2 0.33573238E-02 0.83917110E+02</pdfrwt>
<pdfrwt beam="2">  1       -1 0.55814562E-01 0.83917110E+02</pdfrwt>
<totfact> 0.92334335E+03</totfact>
</mgrwt>
</event>
<event>
 6    2  0.1655576E+001  0.1009710E+03  0.7546771E-02  0.1278267E+00
          2   -1    0    0  502    0  0.00000000000E+00  0.00000000000E+00  0.12836669307E+04  0.12836669307E+04  0.00000000000E+00 0. -1.
         -1   -1    0    0    0  501 -0.00000000000E+00 -0.00000000000E+00 -0.50848854696E+01  0.50848854696E+01  0.00000000000E+00 0.  1.
         24    2    1    2    0    0  0.57926805112E+02 -0.13254678284E+02  0.87784711877E+03  0.88363494102E+03  0.81632982368E+02 0.  0.
        -13    1    3    3    0    0 -0.88936817686E+01  0.18667819055E+02  0.91447578827E+02  0.93756304945E+02  0.00000000000E+00 0.  1.
         14    1    3    3    0    0  0.66820486881E+02 -0.31922497339E+02  0.78639953994E+03  0.78987863607E+03  0.00000000000E+00 0. -1.
         21    1    1    2  502  501 -0.57926805112E+02  0.13254678284E+02  0.40073492651E+03  0.40511687520E+03  0.00000000000E+00 0. -1.
<mgrwt>
<rscale>  1 0.10097101E+03</rscale>
<asrwt>0</asrwt>
<pdfrwt beam="1">  1        2 0.19748696E+00 0.10097101E+03</pdfrwt>
<pdfrwt beam="2">  1       -1 0.78229109E-03 0.10097101E+03</pdfrwt>
<totfact> 0.50334309E+04</totfact>
</mgrwt>
</event>
<event>
 6    2  0.1655576E+001  0.1163664E+03  0.7546771E-02  0.1249215E+00
         -1   -1    0    0    0  501 -0.00000000000E+00  0.00000000000E+00  0.61445637928E+02  0.61445637928E+02  0.00000000000E+00 0.  1.
          2   -1    0    0  502    0  0.00000000000E+00 -0.00000000000E+00 -0.12353150103E+04  0.12353150103E+04  0.00000000000E+00 0. -1.
         24    2    1    2    0    0 -0.47020144982E+02  0.54835434341E+02 -0.12102848921E+04  0.12158662171E+04  0.91232225420E+02 0.  0.
        -11    1    3    3    0    0 -0.14386570556E+02  0.19747471221E+02 -0.62859879299E+02  0.67441088792E+02  0.00000000000E+00 0.  1.
         12    1    3    3    0    0 -0.32633574426E+02  0.35087963120E+02 -0.11474250128E+04  0.11484251283E+04  0.00000000000E+00 0. -1.
         21    1    1    2  502  501  0.47020144982E+02 -0.54835434341E+02  0.36415519798E+02  0.80894431054E+02  0.00000000000E+00 0.  1.
<mgrwt>
<rscale>  1 0.11636639E+03</rscale>
<asrwt>0</asrwt>
<pdfrwt beam="1">  1        2 0.19004844E+00 0.11636639E+03</pdfrwt>
<pdfrwt beam="2">  1       -1 0.94531763E-02 0.11636639E+03</pdfrwt>
<totfact> 0.14513479E+03</totfact>
</mgrwt>
</event>
<event>
 6    2  0.1655576E+001  0.8491102E+02  0.7546771E-02  0.1315665E+00
          2   -1    0    0  502    0  0.00000000000E+00  0.00000000000E+00  0.85826334072E+03  0.85826334072E+03  0.00000000000E+00 0. -1.
         -1   -1    0    0    0  501 -0.00000000000E+00 -0.00000000000E+00 -0.75839726162E+01  0.75839726162E+01  0.00000000000E+00 0.  1.
         24    2    1    2    0    0  0.26638090442E+02  0.62773950083E+01  0.82136908663E+03  0.82574636384E+03  0.80379645262E+02 0.  0.
        -13    1    3    3    0    0 -0.26178817744E+02  0.27851919310E+01  0.43122773177E+03  0.43203060591E+03  0.00000000000E+00 0.  1.
         14    1    3    3    0    0  0.52816908186E+02  0.34922030773E+01  0.39014135486E+03  0.39371575793E+03  0.00000000000E+00 0. -1.
         21    1    1    2  502  501 -0.26638090442E+02 -0.62773950083E+01  0.29310281475E+02  0.40100949498E+02  0.00000000000E+00 0.  1.
<mgrwt>
<rscale>  1 0.84911018E+02</rscale>
<asrwt>0</asrwt>
<pdfrwt beam="1">  1        2 0.13204044E+00 0.84911018E+02</pdfrwt>
<pdfrwt beam="2">  1       -1 0.11667657E-02 0.84911018E+02</pdfrwt>
<totfact> 0.49308322E+04</totfact>
</mgrwt>
</event>
<event>
 6    2  0.1655576E+001  0.8265105E+02  0.7546771E-02  0.1321692E+00
          2   -1    0    0  502    0  0.00000000000E+00  0.00000000000E+00  0.21712856304E+04  0.21712856304E+04  0.00000000000E+00 0. -1.
         -1   -1    0    0    0  501 -0.00000000000E+00 -0.00000000000E+00 -0.15309101905E+01  0.15309101905E+01  0.00000000000E+00 0.  1.
         24    2    1    2    0    0 -0.11076872937E+02 -0.17825222393E+02  0.20087722306E+04  0.20104718529E+04  0.79942236131E+02 0.  0.
        -11    1    3    3    0    0  0.17553114510E+02  0.75354030965E+01  0.13877480316E+03  0.14008333277E+03  0.00000000000E+00 0.  1.
         12    1    3    3    0    0 -0.28629987447E+02 -0.25360625489E+02  0.18699974275E+04  0.18703885201E+04  0.00000000000E+00 0. -1.
         21    1    1    2  502  501  0.11076872937E+02  0.17825222393E+02  0.16098248956E+03  0.16234468766E+03  0.00000000000E+00 0.  1.
<mgrwt>
<rscale>  1 0.82651054E+02</rscale>
<asrwt>0</asrwt>
<pdfrwt beam="1">  1        2 0.33404148E+00 0.82651054E+02</pdfrwt>
<pdfrwt beam="2">  1       -1 0.23552638E-03 0.82651054E+02</pdfrwt>
<totfact> 0.93454581E+04</totfact>
</mgrwt>
</event>
<event>
 6    2  0.1655576E+001  0.8560930E+02  0.7546771E-02  0.1313847E+00
         -1   -1    0    0    0  501 -0.00000000000E+00  0.00000000000E+00  0.34891875210E+01  0.34891875210E+01  0.00000000000E+00 0.  1.
          2   -1    0    0  502    0  0.00000000000E+00 -0.00000000000E+00 -0.12080010532E+04  0.12080010532E+04  0.00000000000E+00 0. -1.
         24    2    1    2    0    0  0.74645288129E+01 -0.28250743566E+02 -0.10882683877E+04  0.10916304482E+04  0.80468179777E+02 0.  0.
        -13    1    3    3    0    0  0.35930187220E+02 -0.40212655236E+02 -0.76122813049E+03  0.76313583499E+03  0.00000000000E+00 0.  1.
         14    1    3    3    0    0 -0.28465658407E+02  0.11961911670E+02 -0.32704025722E+03  0.32849461317E+03  0.00000000000E+00 0. -1.
         21    1    1    2  502  501 -0.74645288129E+01  0.28250743566E+02 -0.11624347793E+03  0.11985979253E+03  0.00000000000E+00 0.  1.
<mgrwt>
<rscale>  1 0.85609297E+02</rscale>
<asrwt>0</asrwt>
<pdfrwt beam="1">  1        2 0.18584623E+00 0.85609297E+02</pdfrwt>
<pdfrwt beam="2">  1       -1 0.53679832E-03 0.85609297E+02</pdfrwt>
<totfact> 0.92069964E+04</totfact>
</mgrwt>
</event>
<event>
 6    2  0.1655576E+001  0.8658424E+02  0.7546771E-02  0.1311341E+00
         -1   -1    0    0    0  501 -0.00000000000E+00  0.00000000000E+00  0.51682216563E+01  0.51682216563E+01  0.00000000000E+00 0.  1.
          2   -1    0    0  502    0  0.00000000000E+00 -0.00000000000E+00 -0.60693821643E+03  0.60693821643E+03  0.00000000000E+00 0. -1.
         24    2    1    2    0    0 -0.55994825065E+01  0.19521581038E+02 -0.54452182879E+03  0.55136272368E+03  0.84168787043E+02 0.  0.
        -11    1    3    3    0    0  0.36618891624E+02 -0.31611661844E+01 -0.18090333848E+03  0.18459944222E+03  0.00000000000E+00 0.  1.
         12    1    3    3    0    0 -0.42218374131E+02  0.22682747222E+02 -0.36361849031E+03  0.36676328146E+03  0.00000000000E+00 0. -1.
         21    1    1    2  502  501  0.55994825065E+01 -0.19521581038E+02 -0.57248165989E+02  0.60743714404E+02  0.00000000000E+00 0. -1.
<mgrwt>
<rscale>  1 0.86584242E+02</rscale>
<asrwt>0</asrwt>
<pdfrwt beam="1">  1        2 0.93375058E-01 0.86584242E+02</pdfrwt>
<pdfrwt beam="2">  1       -1 0.79511147E-03 0.86584242E+02</pdfrwt>
<totfact> 0.12759595E+05</totfact>
</mgrwt>
</event>
<event>
 6    2  0.1655576E+001  0.1434087E+03  0.7546771E-02  0.1208815E+00
          2   -1    0    0  502    0  0.00000000000E+00  0.00000000000E+00  0.14448638319E+03  0.14448638319E+03  0.00000000000E+00 0. -1.
         -1   -1    0    0    0  501 -0.00000000000E+00 -0.00000000000E+00 -0.12597420943E+03  0.12597420943E+03  0.00000000000E+00 0.  1.
         24    2    1    2    0    0  0.11824417035E+03 -0.83167152035E+01  0.42391577351E+02  0.14954294506E+03  0.80716757941E+02 0.  0.
        -11    1    3    3    0    0  0.10993304889E+02  0.26525143490E+02 -0.95934334798E+00  0.28729015459E+02  0.00000000000E+00 0.  1.
         12    1    3    3    0    0  0.10725086546E+03 -0.34841858694E+02  0.43350920699E+02  0.12081392960E+03  0.00000000000E+00 0. -1.
         21    1    1    2  502  501 -0.11824417035E+03  0.83167152035E+01 -0.23879403590E+02  0.12091764755E+03  0.00000000000E+00 0.  1.
<mgrwt>
<rscale>  1 0.14340867E+03</rscale>
<asrwt>0</asrwt>
<pdfrwt beam="1">  1        2 0.22228674E-01 0.14340867E+03</pdfrwt>
<pdfrwt beam="2">  1       -1 0.19380648E-01 0.14340867E+03</pdfrwt>
<totfact> 0.56937471E+03</totfact>
</mgrwt>
</event>
<event>
 6    2  0.1655576E+001  0.9179760E+02  0.7546771E-02  0.1298556E+00
         -1   -1    0    0    0  501 -0.00000000000E+00  0.00000000000E+00  0.63047152567E+01  0.63047152567E+01  0.00000000000E+00 0.  1.
          2   -1    0    0  502    0  0.00000000000E+00 -0.00000000000E+00 -0.77653186057E+03  0.77653186057E+03  0.00000000000E+00 0. -1.
         24    2    1    2    0    0  0.21919728745E+02  0.42684920385E+02 -0.52323508278E+03  0.53122664778E+03  0.78258050863E+02 0.  0.
        -11    1    3    3    0    0  0.12173257424E+02 -0.10073159814E+02 -0.21769403569E+02  0.26899138958E+02  0.00000000000E+00 0.  1.
         12    1    3    3    0    0  0.97464713207E+01  0.52758080198E+02 -0.50146567921E+03  0.50432750883E+03  0.00000000000E+00 0. -1.
         21    1    1    2  502  501 -0.21919728745E+02 -0.42684920385E+02 -0.24699206253E+03  0.25160992805E+03  0.00000000000E+00 0.  1.
<mgrwt>
<rscale>  1 0.91797601E+02</rscale>
<asrwt>0</asrwt>
<pdfrwt beam="1">  1        2 0.11946637E+00 0.91797601E+02</pdfrwt>
<pdfrwt beam="2">  1       -1 0.96995677E-03 0.91797601E+02</pdfrwt>
<totfact> 0.73059253E+04</totfact>
</mgrwt>
</event>
<event>
 6    2  0.1655576E+001  0.8511919E+02  0.7546771E-02  0.1315121E+00
          2   -1    0    0  502    0  0.00000000000E+00  0.00000000000E+00  0.38036249849E+04  0.38036249849E+04  0.00000000000E+00 0. -1.
         -1   -1    0    0    0  501 -0.00000000000E+00 -0.00000000000E+00 -0.94233239495E+00  0.94233239495E+00  0.00000000000E+00 0.  1.
         24    2    1    2    0    0 -0.86189603913E+01  0.23896795160E+02  0.34109103750E+04  0.34119722833E+04  0.81239968103E+02 0.  0.
        -11    1    3    3    0    0  0.17635319103E+02 -0.79328692932E+00  0.27655649734E+04  0.27656213146E+04  0.00000000000E+00 0.  1.
         12    1    3    3    0    0 -0.26254279495E+02  0.24690082089E+02  0.64534540166E+03  0.64635096874E+03  0.00000000000E+00 0. -1.
         21    1    1    2  502  501  0.86189603913E+01 -0.23896795160E+02  0.39177227748E+03  0.39259503397E+03  0.00000000000E+00 0.  1.
<mgrwt>
<rscale>  1 0.85119185E+02</rscale>
<asrwt>0</asrwt>
<pdfrwt beam="1">  1        2 0.58516078E+00 0.85119185E+02</pdfrwt>
<pdfrwt beam="2">  1       -1 0.14497726E-03 0.85119185E+02</pdfrwt>
<totfact> 0.20937255E+04</totfact>
</mgrwt>
</event>
<event>
 6    2  0.1655576E+001  0.8457639E+02  0.7546771E-02  0.1316544E+00
          2   -1    0    0  502    0  0.00000000000E+00  0.00000000000E+00  0.29114289926E+03  0.29114289926E+03  0.00000000000E+00 0. -1.
         -1   -1    0    0    0  501 -0.00000000000E+00 -0.00000000000E+00 -0.98232570798E+01  0.98232570798E+01  0.00000000000E+00 0.  1.
         24    2    1    2    0    0 -0.20277670221E+02  0.94593561257E+01  0.22369789602E+03  0.23915249314E+03  0.81562877353E+02 0.  0.
        -13    1    3    3    0    0 -0.28020874979E+02  0.24114718295E+02  0.39092205741E+02  0.53804178488E+02  0.00000000000E+00 0.  1.
         14    1    3    3    0    0  0.77432047578E+01 -0.14655362169E+02  0.18460569028E+03  0.18534831465E+03  0.00000000000E+00 0. -1.
         21    1    1    2  502  501  0.20277670221E+02 -0.94593561257E+01  0.57621746158E+02  0.61813663200E+02  0.00000000000E+00 0.  1.
<mgrwt>
<rscale>  1 0.84576393E+02</rscale>
<asrwt>0</asrwt>
<pdfrwt beam="1">  1        2 0.44791209E-01 0.84576393E+02</pdfrwt>
<pdfrwt beam="2">  1       -1 0.15112705E-02 0.84576393E+02</pdfrwt>
<totfact> 0.11230138E+05</totfact>
</mgrwt>
</event>
<event>
 6    2  0.1655576E+001  0.8949622E+02  0.7546771E-02  0.1304076E+00
          2   -1    0    0  502    0  0.00000000000E+00  0.00000000000E+00  0.29018237165E+03  0.29018237165E+03  0.00000000000E+00 0. -1.
         -1   -1    0    0    0  501 -0.00000000000E+00 -0.00000000000E+00 -0.17313770045E+02  0.17313770045E+02  0.00000000000E+00 0.  1.
         24    2    1    2    0    0 -0.26740876851E+02  0.14451247026E+02  0.25911139685E+03  0.27413188361E+03  0.84176366011E+02 0.  0.
        -13    1    3    3    0    0  0.96833983162E+01  0.27547537936E+02  0.30339019515E+02  0.42108088942E+02  0.00000000000E+00 0.  1.
         14    1    3    3    0    0 -0.36424275167E+02 -0.13096290910E+02  0.22877237734E+03  0.23202379466E+03  0.00000000000E+00 0. -1.
         21    1    1    2  502  501  0.26740876851E+02 -0.14451247026E+02  0.13757204755E+02  0.33364258092E+02  0.00000000000E+00 0.  1.
<mgrwt>
<rscale>  1 0.89496221E+02</rscale>
<asrwt>0</asrwt>
<pdfrwt beam="1">  1        2 0.44643438E-01 0.89496221E+02</pdfrwt>
<pdfrwt beam="2">  1       -1 0.26636571E-02 0.89496221E+02</pdfrwt>
<totfact> 0.50651138E+04</totfact>
</mgrwt>
</event>
<event>
 6    2  0.1655576E+001  0.8379797E+02  0.7546771E-02  0.1318606E+00
          2   -1    0    0  502    0  0.00000000000E+00  0.00000000000E+00  0.33753761961E+03  0.33753761961E+03  0.00000000000E+00 0. -1.
         -1   -1    0    0    0  501 -0.00000000000E+00 -0.00000000000E+00 -0.82990940606E+01  0.82990940606E+01  0.00000000000E+00 0.  1.
         24    2    1    2    0    0 -0.20424971125E+02  0.75538786933E+01  0.27098040955E+03  0.28364146780E+03  0.80918844335E+02 0.  0.
        -11    1    3    3    0    0 -0.25800910952E+02  0.34529003889E+02  0.81703103699E+02  0.92376058963E+02  0.00000000000E+00 0.  1.
         12    1    3    3    0    0  0.53759398265E+01 -0.26975125196E+02  0.18927730585E+03  0.19126540884E+03  0.00000000000E+00 0. -1.
         21    1    1    2  502  501  0.20424971125E+02 -0.75538786933E+01  0.58258116001E+02  0.62195245870E+02  0.00000000000E+00 0. -1.
<mgrwt>
<rscale>  1 0.83797971E+02</rscale>
<asrwt>0</asrwt>
<pdfrwt beam="1">  1        2 0.51928854E-01 0.83797971E+02</pdfrwt>
<pdfrwt beam="2">  1       -1 0.12767840E-02 0.83797971E+02</pdfrwt>
<totfact> 0.12201238E+05</totfact>
</mgrwt>
</event>
<event>
 6    2  0.1655576E+001  0.9569934E+02  0.7546771E-02  0.1289609E+00
         -1   -1    0    0    0  501 -0.00000000000E+00  0.00000000000E+00  0.14823110252E+02  0.14823110252E+02  0.00000000000E+00 0.  1.
          2   -1    0    0  502    0  0.00000000000E+00 -0.00000000000E+00 -0.38241703805E+03  0.38241703805E+03  0.00000000000E+00 0. -1.
         24    2    1    2    0    0 -0.48541170665E+02 -0.87819989881E+01 -0.18747021144E+03  0.21048383127E+03  0.82006062542E+02 0.  0.
        -13    1    3    3    0    0 -0.47463677452E+01 -0.40843208364E+02 -0.72571339349E+02  0.83410400858E+02  0.00000000000E+00 0.  1.
         14    1    3    3    0    0 -0.43794802920E+02  0.32061209376E+02 -0.11489887209E+03  0.12707343041E+03  0.00000000000E+00 0. -1.
         21    1    1    2  502  501  0.48541170665E+02  0.87819989881E+01 -0.18012371635E+03  0.18675631703E+03  0.00000000000E+00 0. -1.
<mgrwt>
<rscale>  1 0.95699337E+02</rscale>
<asrwt>0</asrwt>
<pdfrwt beam="1">  1        2 0.58833379E-01 0.95699337E+02</pdfrwt>
<pdfrwt beam="2">  1       -1 0.22804789E-02 0.95699337E+02</pdfrwt>
<totfact> 0.47808270E+04</totfact>
</mgrwt>
</event>
<event>
 6    2  0.1655576E+001  0.1078015E+03  0.7546771E-02  0.1264696E+00
         -1   -1    0    0    0  501 -0.00000000000E+00  0.00000000000E+00  0.90972096926E+01  0.90972096926E+01  0.00000000000E+00 0.  1.
          2   -1    0    0  502    0  0.00000000000E+00 -0.00000000000E+00 -0.98472023397E+03  0.98472023397E+03  0.00000000000E+00 0. -1.
         24    2    1    2    0    0 -0.65499081172E+02  0.36346398821E+02 -0.69758718095E+03  0.70586758602E+03  0.77524084169E+02 0.  0.
        -13    1    3    3    0    0 -0.35974089939E+02  0.11869317464E+02 -0.98178443015E+02  0.10523318163E+03  0.00000000000E+00 0.  1.
         14    1    3    3    0    0 -0.29524991233E+02  0.24477081357E+02 -0.59940873793E+03  0.60063440439E+03  0.00000000000E+00 0. -1.
         21    1    1    2  502  501  0.65499081172E+02 -0.36346398821E+02 -0.27803584333E+03  0.28794985764E+03  0.00000000000E+00 0.  1.
<mgrwt>
<rscale>  1 0.10780155E+03</rscale>
<asrwt>0</asrwt>
<pdfrwt beam="1">  1        2 0.15149534E+00 0.10780155E+03</pdfrwt>
<pdfrwt beam="2">  1       -1 0.13995715E-02 0.10780155E+03</pdfrwt>
<totfact> 0.32671802E+04</totfact>
</mgrwt>
</event>
<event>
 6    2  0.1655576E+001  0.9183741E+02  0.7546771E-02  0.1298462E+00
         -1   -1    0    0    0  501 -0.00000000000E+00  0.00000000000E+00  0.33837955453E+01  0.33837955453E+01  0.00000000000E+00 0.  1.
          2   -1    0    0  502    0  0.00000000000E+00 -0.00000000000E+00 -0.14724305254E+04  0.14724305254E+04  0.00000000000E+00 0. -1.
         24    2    1    2    0    0 -0.42067531932E+02  0.25378971946E+02 -0.99427493747E+03  0.99850726642E+03  0.77590852190E+02 0.  0.
        -13    1    3    3    0    0 -0.20969580204E+02  0.12521527724E+02 -0.74514978758E+02  0.78415521486E+02  0.00000000000E+00 0.  1.
         14    1    3    3    0    0 -0.21097951727E+02  0.12857444222E+02 -0.91975995872E+03  0.92009174493E+03  0.00000000000E+00 0. -1.
         21    1    1    2  502  501  0.42067531932E+02 -0.25378971946E+02 -0.47477179241E+03  0.47730705456E+03  0.00000000000E+00 0. -1.
<mgrwt>
<rscale>  1 0.91837410E+02</rscale>
<asrwt>0</asrwt>
<pdfrwt beam="1">  1        2 0.22652825E+00 0.91837410E+02</pdfrwt>
<pdfrwt beam="2">  1       -1 0.52058283E-03 0.91837410E+02</pdfrwt>
<totfact> 0.70390881E+04</totfact>
</mgrwt>
</event>
<event>
 6    2  0.1655576E+001  0.1045020E+03  0.7546771E-02  0.1271104E+00
         -3   -1    0    0    0  501 -0.00000000000E+00  0.00000000000E+00  0.37326111552E+02  0.37326111552E+02  0.00000000000E+00 0.  1.
          4   -1    0    0  502    0  0.00000000000E+00 -0.00000000000E+00 -0.14782384604E+03  0.14782384604E+03  0.00000000000E+00 0. -1.
         24    2    1    2    0    0  0.34050651795E+02 -0.22222342781E+02 -0.96228093712E+02  0.14205817120E+03  0.96267328719E+02 0.  0.
        -11    1    3    3    0    0  0.18736185443E+02  0.72149704827E+01  0.15590590180E+02  0.25419814047E+02  0.00000000000E+00 0.  1.
         12    1    3    3    0    0  0.15314466352E+02 -0.29437313264E+02 -0.11181868389E+03  0.11663835715E+03  0.00000000000E+00 0. -1.
         21    1    1    2  502  501 -0.34050651795E+02  0.22222342781E+02 -0.14269640772E+02  0.43091786388E+02  0.00000000000E+00 0. -1.
<mgrwt>
<rscale>  1 0.10450205E+03</rscale>
<asrwt>0</asrwt>
<pdfrwt beam="1">  1        4 0.22742130E-01 0.10450205E+03</pdfrwt>
<pdfrwt beam="2">  1       -3 0.57424788E-02 0.10450205E+03</pdfrwt>
<totfact> 0.58886017E+03</totfact>
</mgrwt>
</event>
<event>
 6    2  0.1655576E+001  0.9747018E+02  0.7546771E-02  0.1285708E+00
          2   -1    0    0  502    0  0.00000000000E+00  0.00000000000E+00  0.10361828921E+04  0.10361828921E+04  0.00000000000E+00 0. -1.
         -1   -1    0    0    0  501 -0.00000000000E+00 -0.00000000000E+00 -0.49880999725E+01  0.49880999725E+01  0.00000000000E+00 0.  1.
         24    2    1    2    0    0 -0.17258176444E+02 -0.38986713914E+02  0.81537173433E+03  0.82117689944E+03  0.87650593351E+02 0.  0.
        -13    1    3    3    0    0  0.31211466440E+02 -0.66772018109E+01  0.15567298892E+03  0.15891135938E+03  0.00000000000E+00 0.  1.
         14    1    3    3    0    0 -0.48469642884E+02 -0.32309512103E+02  0.65969874541E+03  0.66226554006E+03  0.00000000000E+00 0. -1.
         21    1    1    2  502  501  0.17258176444E+02  0.38986713914E+02  0.21582305782E+03  0.21999409266E+03  0.00000000000E+00 0.  1.
<mgrwt>
<rscale>  1 0.97470175E+02</rscale>
<asrwt>0</asrwt>
<pdfrwt beam="1">  1        2 0.15941258E+00 0.97470175E+02</pdfrwt>
<pdfrwt beam="2">  1       -1 0.76740082E-03 0.97470175E+02</pdfrwt>
<totfact> 0.70625615E+04</totfact>
</mgrwt>
</event>
<event>
 6    2  0.1655576E+001  0.8337645E+02  0.7546771E-02  0.1319734E+00
         -1   -1    0    0    0  501 -0.00000000000E+00  0.00000000000E+00  0.22343627026E+02  0.22343627026E+02  0.00000000000E+00 0.  1.
          2   -1    0    0  502    0  0.00000000000E+00 -0.00000000000E+00 -0.12299922816E+03  0.12299922816E+03  0.00000000000E+00 0. -1.
         24    2    1    2    0    0 -0.97383945613E+01 -0.18165067509E+02 -0.72767340120E+02  0.11066489232E+03  0.80788777670E+02 0.  0.
        -11    1    3    3    0    0 -0.36073829505E+02  0.12983016351E+02 -0.17939377641E+02  0.42328491100E+02  0.00000000000E+00 0.  1.
         12    1    3    3    0    0  0.26335434943E+02 -0.31148083860E+02 -0.54827962478E+02  0.68336401217E+02  0.00000000000E+00 0. -1.
         21    1    1    2  502  501  0.97383945613E+01  0.18165067509E+02 -0.27888261014E+02  0.34677962867E+02  0.00000000000E+00 0. -1.
<mgrwt>
<rscale>  1 0.83376451E+02</rscale>
<asrwt>0</asrwt>
<pdfrwt beam="1">  1        2 0.18922958E-01 0.83376451E+02</pdfrwt>
<pdfrwt beam="2">  1       -1 0.34374811E-02 0.83376451E+02</pdfrwt>
<totfact> 0.87391506E+04</totfact>
</mgrwt>
</event>
<event>
 6    2  0.1655576E+001  0.8955969E+02  0.7546771E-02  0.1303921E+00
          2   -1    0    0  502    0  0.00000000000E+00  0.00000000000E+00  0.93023966276E+02  0.93023966276E+02  0.00000000000E+00 0. -1.
         -1   -1    0    0    0  501 -0.00000000000E+00 -0.00000000000E+00 -0.38171185481E+02  0.38171185481E+02  0.00000000000E+00 0.  1.
         24    2    1    2    0    0  0.99337250499E+01 -0.22739278429E+02  0.57203982568E+02  0.10626962615E+03  0.86053379620E+02 0.  0.
        -11    1    3    3    0    0  0.38575690104E+01  0.11231005503E+02 -0.19119429795E+02  0.22507085972E+02  0.00000000000E+00 0.  1.
         12    1    3    3    0    0  0.60761560395E+01 -0.33970283932E+02  0.76323412363E+02  0.83762540180E+02  0.00000000000E+00 0. -1.
         21    1    1    2  502  501 -0.99337250499E+01  0.22739278429E+02 -0.23512017736E+01  0.24925525604E+02  0.00000000000E+00 0.  1.
<mgrwt>
<rscale>  1 0.89559689E+02</rscale>
<asrwt>0</asrwt>
<pdfrwt beam="1">  1        2 0.14311379E-01 0.89559689E+02</pdfrwt>
<pdfrwt beam="2">  1       -1 0.58724901E-02 0.89559689E+02</pdfrwt>
<totfact> 0.55708015E+04</totfact>
</mgrwt>
</event>
<event>
 6    2  0.1655576E+001  0.9947912E+02  0.7546771E-02  0.1281395E+00
         -1   -1    0    0    0  501 -0.00000000000E+00  0.00000000000E+00  0.27515793931E+01  0.27515793931E+01  0.00000000000E+00 0.  1.
          2   -1    0    0  502    0  0.00000000000E+00 -0.00000000000E+00 -0.14075644240E+04  0.14075644240E+04  0.00000000000E+00 0. -1.
         24    2    1    2    0    0 -0.15839657758E+02  0.17238933253E+02 -0.12148125028E+04  0.12188787932E+04  0.96685158441E+02 0.  0.
        -13    1    3    3    0    0  0.11226766464E+01 -0.25704230620E+02 -0.10500084837E+03  0.10810710445E+03  0.00000000000E+00 0.  1.
         14    1    3    3    0    0 -0.16962334404E+02  0.42943163873E+02 -0.11098116545E+04  0.11107716887E+04  0.00000000000E+00 0. -1.
         21    1    1    2  502  501  0.15839657758E+02 -0.17238933253E+02 -0.19000034179E+03  0.19143721023E+03  0.00000000000E+00 0. -1.
<mgrwt>
<rscale>  1 0.99479121E+02</rscale>
<asrwt>0</asrwt>
<pdfrwt beam="1">  1        2 0.21654798E+00 0.99479121E+02</pdfrwt>
<pdfrwt beam="2">  1       -1 0.42332068E-03 0.99479121E+02</pdfrwt>
<totfact> 0.10247289E+05</totfact>
</mgrwt>
</event>
<event>
 6    2  0.1655576E+001  0.9083066E+02  0.7546771E-02  0.1300853E+00
         -1   -1    0    0    0  501 -0.00000000000E+00  0.00000000000E+00  0.15275947239E+02  0.15275947239E+02  0.00000000000E+00 0.  1.
          2   -1    0    0  502    0  0.00000000000E+00 -0.00000000000E+00 -0.39471226072E+03  0.39471226072E+03  0.00000000000E+00 0. -1.
         24    2    1    2    0    0  0.28209979241E+02 -0.30958653363E+02 -0.34185376651E+03  0.35371486628E+03  0.80597566984E+02 0.  0.
        -13    1    3    3    0    0  0.80379551053E+01 -0.12405842936E+02 -0.47902650829E+01  0.15538992915E+02  0.00000000000E+00 0.  1.
         14    1    3    3    0    0  0.20172024136E+02 -0.18552810427E+02 -0.33706350143E+03  0.33817587337E+03  0.00000000000E+00 0. -1.
         21    1    1    2  502  501 -0.28209979241E+02  0.30958653363E+02 -0.37582546973E+02  0.56273341680E+02  0.00000000000E+00 0.  1.
<mgrwt>
<rscale>  1 0.90830661E+02</rscale>
<asrwt>0</asrwt>
<pdfrwt beam="1">  1        2 0.60724955E-01 0.90830661E+02</pdfrwt>
<pdfrwt beam="2">  1       -1 0.23501460E-02 0.90830661E+02</pdfrwt>
<totfact> 0.44010136E+04</totfact>
</mgrwt>
</event>
<event>
 6    2  0.1655576E+001  0.8377650E+02  0.7546771E-02  0.1318663E+00
         -1   -1    0    0    0  501 -0.00000000000E+00  0.00000000000E+00  0.85783915783E+01  0.85783915783E+01  0.00000000000E+00 0.  1.
          2   -1    0    0  502    0  0.00000000000E+00 -0.00000000000E+00 -0.47316550813E+03  0.47316550813E+03  0.00000000000E+00 0. -1.
         24    2    1    2    0    0  0.12780173247E+02  0.15981101895E+02 -0.44693600372E+03  0.45472001712E+03  0.81238993724E+02 0.  0.
        -11    1    3    3    0    0  0.37134765554E+02  0.14963967232E+02 -0.11276987250E+03  0.11966601553E+03  0.00000000000E+00 0.  1.
         12    1    3    3    0    0 -0.24354592306E+02  0.10171346627E+01 -0.33416613122E+03  0.33505400159E+03  0.00000000000E+00 0. -1.
         21    1    1    2  502  501 -0.12780173247E+02 -0.15981101895E+02 -0.17651112831E+02  0.27023882589E+02  0.00000000000E+00 0. -1.
<mgrwt>
<rscale>  1 0.83776504E+02</rscale>
<asrwt>0</asrwt>
<pdfrwt beam="1">  1        2 0.72794698E-01 0.83776504E+02</pdfrwt>
<pdfrwt beam="2">  1       -1 0.13197525E-02 0.83776504E+02</pdfrwt>
<totfact> 0.81619750E+04</totfact>
</mgrwt>
</event>
<event>
 6    2  0.1655576E+001  0.8434613E+02  0.7546771E-02  0.1317151E+00
          2   -1    0    0  502    0  0.00000000000E+00  0.00000000000E+00  0.19023500260E+02  0.19023500260E+02  0.00000000000E+00 0. -1.
         -1   -1    0    0    0  501 -0.00000000000E+00 -0.00000000000E+00 -0.15371949112E+03  0.15371949112E+03  0.00000000000E+00 0.  1.
         24    2    1    2    0    0 -0.65887540442E+01  0.19309015299E+02 -0.88571640717E+02  0.12230783075E+03  0.81841433098E+02 0.  0.
        -13    1    3    3    0    0  0.81492109278E+01  0.21987890438E+02 -0.10047479030E+03  0.10317490223E+03  0.00000000000E+00 0.  1.
         14    1    3    3    0    0 -0.14737964972E+02 -0.26788751387E+01  0.11903149585E+02  0.19132928515E+02  0.00000000000E+00 0. -1.
         21    1    1    2  502  501  0.65887540442E+01 -0.19309015299E+02 -0.46124350141E+02  0.50435160628E+02  0.00000000000E+00 0. -1.
<mgrwt>
<rscale>  1 0.84346132E+02</rscale>
<asrwt>0</asrwt>
<pdfrwt beam="1">  1        2 0.29266924E-02 0.84346132E+02</pdfrwt>
<pdfrwt beam="2">  1       -1 0.23649152E-01 0.84346132E+02</pdfrwt>
<totfact> 0.48184547E+04</totfact>
</mgrwt>
</event>
<event>
 6    2  0.1655576E+001  0.9915706E+02  0.7546771E-02  0.1282079E+00
         -1   -1    0    0    0  501 -0.00000000000E+00  0.00000000000E+00  0.27374673217E+01  0.27374673217E+01  0.00000000000E+00 0.  1.
          2   -1    0    0  502    0  0.00000000000E+00 -0.00000000000E+00 -0.22462102191E+04  0.22462102191E+04  0.00000000000E+00 0. -1.
         24    2    1    2    0    0 -0.47210469037E+02  0.31763670673E+02 -0.15297871937E+04  0.15329973844E+04  0.81205685731E+02 0.  0.
        -11    1    3    3    0    0 -0.33240452412E+02  0.24338999826E+02 -0.27125826496E+03  0.27436902321E+03  0.00000000000E+00 0.  1.
         12    1    3    3    0    0 -0.13970016625E+02  0.74246708473E+01 -0.12585289287E+04  0.12586283612E+04  0.00000000000E+00 0. -1.
         21    1    1    2  502  501  0.47210469037E+02 -0.31763670673E+02 -0.71368555814E+03  0.71595030209E+03  0.00000000000E+00 0.  1.
<mgrwt>
<rscale>  1 0.99157060E+02</rscale>
<asrwt>0</asrwt>
<pdfrwt beam="1">  1        2 0.34556983E+00 0.99157060E+02</pdfrwt>
<pdfrwt beam="2">  1       -1 0.42115000E-03 0.99157060E+02</pdfrwt>
<totfact> 0.38718788E+04</totfact>
</mgrwt>
</event>
<event>
 6    2  0.1655576E+001  0.8369977E+02  0.7546771E-02  0.1318868E+00
         -1   -1    0    0    0  501 -0.00000000000E+00  0.00000000000E+00  0.86668530170E+01  0.86668530170E+01  0.00000000000E+00 0.  1.
          2   -1    0    0  502    0  0.00000000000E+00 -0.00000000000E+00 -0.34196789967E+03  0.34196789967E+03  0.00000000000E+00 0. -1.
         24    2    1    2    0    0 -0.47294016682E+01  0.22628182292E+02 -0.28585070817E+03  0.29785278137E+03  0.80444080792E+02 0.  0.
        -11    1    3    3    0    0 -0.38576840764E+02 -0.62367274346E+01 -0.14223841226E+03  0.14750876359E+03  0.00000000000E+00 0.  1.
         12    1    3    3    0    0  0.33847439095E+02  0.28864909727E+02 -0.14361229590E+03  0.15034401778E+03  0.00000000000E+00 0. -1.
         21    1    1    2  502  501  0.47294016682E+01 -0.22628182292E+02 -0.47450338484E+02  0.52781971318E+02  0.00000000000E+00 0.  1.
<mgrwt>
<rscale>  1 0.83699773E+02</rscale>
<asrwt>0</asrwt>
<pdfrwt beam="1">  1        2 0.52610445E-01 0.83699773E+02</pdfrwt>
<pdfrwt beam="2">  1       -1 0.13333620E-02 0.83699773E+02</pdfrwt>
<totfact> 0.11319197E+05</totfact>
</mgrwt>
</event>
<event>
 6    2  0.1655576E+001  0.9585047E+02  0.7546771E-02  0.1289272E+00
          2   -1    0    0  502    0  0.00000000000E+00  0.00000000000E+00  0.12831080608E+03  0.12831080608E+03  0.00000000000E+00 0. -1.
         -1   -1    0    0    0  501 -0.00000000000E+00 -0.00000000000E+00 -0.44277347242E+02  0.44277347242E+02  0.00000000000E+00 0.  1.
         24    2    1    2    0    0  0.32998048193E+02  0.40352004824E+02  0.69742487497E+02  0.11853829357E+03  0.80437286141E+02 0.  0.
        -11    1    3    3    0    0 -0.24029768650E+02  0.88873205619E+01  0.38854554973E+01  0.25913529528E+02  0.00000000000E+00 0.  1.
         12    1    3    3    0    0  0.57027816843E+02  0.31464684263E+02  0.65857032000E+02  0.92624764040E+02  0.00000000000E+00 0. -1.
         21    1    1    2  502  501 -0.32998048193E+02 -0.40352004824E+02  0.14290971345E+02  0.54049859758E+02  0.00000000000E+00 0.  1.
<mgrwt>
<rscale>  1 0.95850469E+02</rscale>
<asrwt>0</asrwt>
<pdfrwt beam="1">  1        2 0.19740124E-01 0.95850469E+02</pdfrwt>
<pdfrwt beam="2">  1       -1 0.68118996E-02 0.95850469E+02</pdfrwt>
<totfact> 0.31265716E+04</totfact>
</mgrwt>
</event>
<event>
 6    2  0.1655576E+001  0.7742708E+02  0.7546771E-02  0.1336516E+00
         -1   -1    0    0    0  501 -0.00000000000E+00  0.00000000000E+00  0.21604969437E+01  0.21604969437E+01  0.00000000000E+00 0.  1.
          2   -1    0    0  502    0  0.00000000000E+00 -0.00000000000E+00 -0.12534884400E+04  0.12534884400E+04  0.00000000000E+00 0. -1.
         24    2    1    2    0    0 -0.37540053165E+01  0.22526338056E+02 -0.10852067390E+04  0.10879653573E+04  0.73982590800E+02 0.  0.
        -13    1    3    3    0    0 -0.24727642384E+02  0.29538590466E+02 -0.30207250211E+03  0.30451893399E+03  0.00000000000E+00 0.  1.
         14    1    3    3    0    0  0.20973637068E+02 -0.70122524102E+01 -0.78313423689E+03  0.78344642327E+03  0.00000000000E+00 0. -1.
         21    1    1    2  502  501  0.37540053165E+01 -0.22526338056E+02 -0.16612120409E+03  0.16768357973E+03  0.00000000000E+00 0. -1.
<mgrwt>
<rscale>  1 0.77427077E+02</rscale>
<asrwt>0</asrwt>
<pdfrwt beam="1">  1        2 0.19284465E+00 0.77427077E+02</pdfrwt>
<pdfrwt beam="2">  1       -1 0.33238368E-03 0.77427077E+02</pdfrwt>
<totfact> 0.16738365E+05</totfact>
</mgrwt>
</event>
<event>
 6    2  0.1655576E+001  0.9355457E+02  0.7546771E-02  0.1294465E+00
         -3   -1    0    0    0  501 -0.00000000000E+00  0.00000000000E+00  0.28499537337E+02  0.28499537337E+02  0.00000000000E+00 0.  1.
          4   -1    0    0  502    0  0.00000000000E+00 -0.00000000000E+00 -0.17351513203E+03  0.17351513203E+03  0.00000000000E+00 0. -1.
         24    2    1    2    0    0 -0.60897046312E+01  0.46510803316E+02 -0.91699530732E+02  0.13100099460E+03  0.80945150084E+02 0.  0.
        -13    1    3    3    0    0 -0.17632067491E+01  0.69647032917E+02 -0.63464418596E+02  0.94241978544E+02  0.00000000000E+00 0.  1.
         14    1    3    3    0    0 -0.43264978820E+01 -0.23136229601E+02 -0.28235112136E+02  0.36759016056E+02  0.00000000000E+00 0. -1.
         21    1    1    2  502  501  0.60897046312E+01 -0.46510803316E+02 -0.53316063962E+02  0.71013674767E+02  0.00000000000E+00 0.  1.
<mgrwt>
<rscale>  1 0.93554565E+02</rscale>
<asrwt>0</asrwt>
<pdfrwt beam="1">  1        4 0.26694636E-01 0.93554565E+02</pdfrwt>
<pdfrwt beam="2">  1       -3 0.43845441E-02 0.93554565E+02</pdfrwt>
<totfact> 0.65248628E+03</totfact>
</mgrwt>
</event>
<event>
 6    2  0.1655576E+001  0.8780948E+02  0.7546771E-02  0.1308245E+00
         -1   -1    0    0    0  501 -0.00000000000E+00  0.00000000000E+00  0.13220800616E+03  0.13220800616E+03  0.00000000000E+00 0.  1.
          2   -1    0    0  502    0  0.00000000000E+00 -0.00000000000E+00 -0.75189977821E+03  0.75189977821E+03  0.00000000000E+00 0. -1.
         24    2    1    2    0    0  0.32097170800E+02 -0.19251145598E+02 -0.74662536314E+03  0.75177120013E+03  0.79433428033E+02 0.  0.
        -13    1    3    3    0    0  0.91898233732E+01  0.20801689300E+02 -0.51996705330E+03  0.52046411947E+03  0.00000000000E+00 0.  1.
         14    1    3    3    0    0  0.22907347427E+02 -0.40052834898E+02 -0.22665830983E+03  0.23130708067E+03  0.00000000000E+00 0. -1.
         21    1    1    2  502  501 -0.32097170800E+02  0.19251145598E+02  0.12693359109E+03  0.13233658423E+03  0.00000000000E+00 0.  1.
<mgrwt>
<rscale>  1 0.87809478E+02</rscale>
<asrwt>0</asrwt>
<pdfrwt beam="1">  1        2 0.11567689E+00 0.87809478E+02</pdfrwt>
<pdfrwt beam="2">  1       -1 0.20339693E-01 0.87809478E+02</pdfrwt>
<totfact> 0.86339603E+02</totfact>
</mgrwt>
</event>
<event>
 6    2  0.1655576E+001  0.8128607E+02  0.7546771E-02  0.1325441E+00
         -1   -1    0    0    0  501 -0.00000000000E+00  0.00000000000E+00  0.41442260443E+01  0.41442260443E+01  0.00000000000E+00 0.  1.
          2   -1    0    0  502    0  0.00000000000E+00 -0.00000000000E+00 -0.72031982723E+03  0.72031982723E+03  0.00000000000E+00 0. -1.
         24    2    1    2    0    0  0.16005145149E+02  0.22277295127E+02 -0.50189988188E+03  0.50843968790E+03  0.76517855798E+02 0.  0.
        -11    1    3    3    0    0  0.35839030226E+02  0.20914642888E+02 -0.14065521454E+03  0.14664838135E+03  0.00000000000E+00 0.  1.
         12    1    3    3    0    0 -0.19833885078E+02  0.13626522385E+01 -0.36124466734E+03  0.36179130655E+03  0.00000000000E+00 0. -1.
         21    1    1    2  502  501 -0.16005145149E+02 -0.22277295127E+02 -0.21427571931E+03  0.21602436537E+03  0.00000000000E+00 0. -1.
<mgrwt>
<rscale>  1 0.81286068E+02</rscale>
<asrwt>0</asrwt>
<pdfrwt beam="1">  1        2 0.11081844E+00 0.81286068E+02</pdfrwt>
<pdfrwt beam="2">  1       -1 0.63757324E-03 0.81286068E+02</pdfrwt>
<totfact> 0.14157649E+05</totfact>
</mgrwt>
</event>
<event>
 6    2  0.1655576E+001  0.8953592E+02  0.7546771E-02  0.1303979E+00
          2   -1    0    0  502    0  0.00000000000E+00  0.00000000000E+00  0.16951371960E+03  0.16951371960E+03  0.00000000000E+00 0. -1.
         -1   -1    0    0    0  501 -0.00000000000E+00 -0.00000000000E+00 -0.35715460451E+02  0.35715460451E+02  0.00000000000E+00 0.  1.
         24    2    1    2    0    0 -0.23113037206E+02 -0.29942889946E+02  0.14070596003E+03  0.16677784095E+03  0.81153508227E+02 0.  0.
        -11    1    3    3    0    0 -0.23967747421E+02  0.24920833545E+02  0.58053653109E+02  0.67570167236E+02  0.00000000000E+00 0.  1.
         12    1    3    3    0    0  0.85471021532E+00 -0.54863723490E+02  0.82652306923E+02  0.99207673718E+02  0.00000000000E+00 0. -1.
         21    1    1    2  502  501  0.23113037206E+02  0.29942889946E+02 -0.69077008805E+01  0.38451339101E+02  0.00000000000E+00 0.  1.
<mgrwt>
<rscale>  1 0.89535920E+02</rscale>
<asrwt>0</asrwt>
<pdfrwt beam="1">  1        2 0.26079033E-01 0.89535920E+02</pdfrwt>
<pdfrwt beam="2">  1       -1 0.54946863E-02 0.89535920E+02</pdfrwt>
<totfact> 0.31333707E+04</totfact>
</mgrwt>
</event>
<event>
 6    2  0.1655576E+001  0.8785452E+02  0.7546771E-02  0.1308132E+00
         -1   -1    0    0    0  501 -0.00000000000E+00  0.00000000000E+00  0.43346217935E+02  0.43346217935E+02  0.00000000000E+00 0.  1.
          2   -1    0    0  502    0  0.00000000000E+00 -0.00000000000E+00 -0.11649861901E+03  0.11649861901E+03  0.00000000000E+00 0. -1.
         24    2    1    2    0    0  0.92767675923E+01 -0.31697941034E+02 -0.87355630720E+02  0.12389279090E+03  0.81410070230E+02 0.  0.
        -13    1    3    3    0    0  0.24185724327E+02 -0.25991271255E+02 -0.42239687687E+00  0.35505969383E+02  0.00000000000E+00 0.  1.
         14    1    3    3    0    0 -0.14908956735E+02 -0.57066697789E+01 -0.86933233844E+02  0.88386821514E+02  0.00000000000E+00 0. -1.
         21    1    1    2  502  501 -0.92767675923E+01  0.31697941034E+02  0.14203229644E+02  0.35952046048E+02  0.00000000000E+00 0. -1.
<mgrwt>
<rscale>  1 0.87854524E+02</rscale>
<asrwt>0</asrwt>
<pdfrwt beam="1">  1        2 0.17922864E-01 0.87854524E+02</pdfrwt>
<pdfrwt beam="2">  1       -1 0.66686489E-02 0.87854524E+02</pdfrwt>
<totfact> 0.35587938E+04</totfact>
</mgrwt>
</event>
<event>
 6    2  0.1655576E+001  0.8573404E+02  0.7546771E-02  0.1313524E+00
         -1   -1    0    0    0  501 -0.00000000000E+00  0.00000000000E+00  0.53083458179E+02  0.53083458179E+02  0.00000000000E+00 0.  1.
          2   -1    0    0  502    0  0.00000000000E+00 -0.00000000000E+00 -0.10120667515E+03  0.10120667515E+03  0.00000000000E+00 0. -1.
         24    2    1    2    0    0 -0.31210868154E+02  0.65680021713E+01 -0.73972961150E+02  0.11323570339E+03  0.79580579267E+02 0.  0.
        -13    1    3    3    0    0 -0.30889765379E+02  0.19322522559E+02  0.17190698996E+01  0.36475919242E+02  0.00000000000E+00 0.  1.
         14    1    3    3    0    0 -0.32110277474E+00 -0.12754520388E+02 -0.75692031050E+02  0.76759784144E+02  0.00000000000E+00 0. -1.
         21    1    1    2  502  501  0.31210868154E+02 -0.65680021713E+01  0.25849744182E+02  0.41054429940E+02  0.00000000000E+00 0. -1.
<mgrwt>
<rscale>  1 0.85734040E+02</rscale>
<asrwt>0</asrwt>
<pdfrwt beam="1">  1        2 0.15570258E-01 0.85734040E+02</pdfrwt>
<pdfrwt beam="2">  1       -1 0.81666859E-02 0.85734040E+02</pdfrwt>
<totfact> 0.30827922E+04</totfact>
</mgrwt>
</event>
<event>
 6    2  0.1655576E+001  0.9012971E+02  0.7546771E-02  0.1302538E+00
          4   -1    0    0  502    0  0.00000000000E+00  0.00000000000E+00  0.19247410921E+03  0.19247410921E+03  0.00000000000E+00 0. -1.
         -3   -1    0    0    0  501 -0.00000000000E+00 -0.00000000000E+00 -0.34819088075E+02  0.34819088075E+02  0.00000000000E+00 0.  1.
         24    2    1    2    0    0 -0.29416969813E+02  0.24359638017E+02  0.16536237410E+03  0.18832970967E+03  0.81637091456E+02 0.  0.
        -13    1    3    3    0    0  0.67829827629E+01  0.46867707538E+02  0.81646798453E+02  0.94386389711E+02  0.00000000000E+00 0.  1.
         14    1    3    3    0    0 -0.36199952576E+02 -0.22508069522E+02  0.83715575644E+02  0.93943319962E+02  0.00000000000E+00 0. -1.
         21    1    1    2  502  501  0.29416969813E+02 -0.24359638017E+02 -0.77073529604E+01  0.38963487613E+02  0.00000000000E+00 0.  1.
<mgrwt>
<rscale>  1 0.90129711E+02</rscale>
<asrwt>0</asrwt>
<pdfrwt beam="1">  1        4 0.29611401E-01 0.90129711E+02</pdfrwt>
<pdfrwt beam="2">  1       -3 0.53567829E-02 0.90129711E+02</pdfrwt>
<totfact> 0.38962650E+03</totfact>
</mgrwt>
</event>
<event>
 6    2  0.1655576E+001  0.9258408E+02  0.7546771E-02  0.1296712E+00
          2   -1    0    0  502    0  0.00000000000E+00  0.00000000000E+00  0.23191972345E+04  0.23191972345E+04  0.00000000000E+00 0. -1.
         -1   -1    0    0    0  501 -0.00000000000E+00 -0.00000000000E+00 -0.42439139715E+01  0.42439139715E+01  0.00000000000E+00 0.  1.
         24    2    1    2    0    0 -0.11763278121E+02  0.41621206536E+02  0.21747080355E+04  0.21766779395E+04  0.81860325759E+02 0.  0.
        -13    1    3    3    0    0  0.26340934507E+02  0.11102447589E+02  0.30598154157E+03  0.30731386717E+03  0.00000000000E+00 0.  1.
         14    1    3    3    0    0 -0.38104212627E+02  0.30518758946E+02  0.18687264940E+04  0.18693640723E+04  0.00000000000E+00 0. -1.
         21    1    1    2  502  501  0.11763278121E+02 -0.41621206536E+02  0.14024528503E+03  0.14676320901E+03  0.00000000000E+00 0.  1.
<mgrwt>
<rscale>  1 0.92584083E+02</rscale>
<asrwt>0</asrwt>
<pdfrwt beam="1">  1        2 0.35679856E+00 0.92584083E+02</pdfrwt>
<pdfrwt beam="2">  1       -1 0.65291169E-03 0.92584083E+02</pdfrwt>
<totfact> 0.19130582E+04</totfact>
</mgrwt>
</event>
<event>
 6    2  0.1668660E+001  0.9044867E+02  0.7546771E-02  0.1301769E+00
         -1   -1    0    0    0  501 -0.00000000000E+00  0.00000000000E+00  0.13888253885E+02  0.13888253885E+02  0.00000000000E+00 0.  1.
          2   -1    0    0  502    0  0.00000000000E+00 -0.00000000000E+00 -0.81177034574E+03  0.81177034574E+03  0.00000000000E+00 0. -1.
         24    2    1    2    0    0  0.30423011301E+02  0.32880292549E+02 -0.14272310246E+03  0.16896995602E+03  0.78576642883E+02 0.  0.
        -13    1    3    3    0    0  0.53718681114E+02  0.36608030687E+02 -0.11848181162E+03  0.13514356920E+03  0.00000000000E+00 0.  1.
         14    1    3    3    0    0 -0.23295669814E+02 -0.37277381381E+01 -0.24241290842E+02  0.33826386822E+02  0.00000000000E+00 0. -1.
         21    1    1    2  502  501 -0.30423011301E+02 -0.32880292549E+02 -0.65515898939E+03  0.65668864360E+03  0.00000000000E+00 0. -1.
<mgrwt>
<rscale>  1 0.90448671E+02</rscale>
<asrwt>0</asrwt>
<pdfrwt beam="1">  1        2 0.12488774E+00 0.90448671E+02</pdfrwt>
<pdfrwt beam="2">  1       -1 0.21366545E-02 0.90448671E+02</pdfrwt>
<totfact> 0.22536797E+04</totfact>
</mgrwt>
</event>
<event>
 6    2  0.1655576E+001  0.1006888E+03  0.7546771E-02  0.1278854E+00
         -3   -1    0    0    0  501 -0.00000000000E+00  0.00000000000E+00  0.16001449613E+02  0.16001449613E+02  0.00000000000E+00 0.  1.
          4   -1    0    0  502    0  0.00000000000E+00 -0.00000000000E+00 -0.33805939100E+03  0.33805939100E+03  0.00000000000E+00 0. -1.
         24    2    1    2    0    0  0.23414719587E+02  0.84448049836E+01 -0.31087260443E+03  0.32677209591E+03  0.97563633888E+02 0.  0.
        -13    1    3    3    0    0  0.47808958095E+02  0.27339515220E+02 -0.10468214490E+03  0.11828565859E+03  0.00000000000E+00 0.  1.
         14    1    3    3    0    0 -0.24394238508E+02 -0.18894710237E+02 -0.20619045953E+03  0.20848643732E+03  0.00000000000E+00 0. -1.
         21    1    1    2  502  501 -0.23414719587E+02 -0.84448049836E+01 -0.11185336959E+02  0.27288744703E+02  0.00000000000E+00 0.  1.
<mgrwt>
<rscale>  1 0.10068876E+03</rscale>
<asrwt>0</asrwt>
<pdfrwt beam="1">  1        4 0.52009137E-01 0.10068876E+03</pdfrwt>
<pdfrwt beam="2">  1       -3 0.24617615E-02 0.10068876E+03</pdfrwt>
<totfact> 0.44446761E+03</totfact>
</mgrwt>
</event>
<event>
 6    2  0.1655576E+001  0.8294275E+02  0.7546771E-02  0.1320902E+00
          2   -1    0    0  502    0  0.00000000000E+00  0.00000000000E+00  0.30646478312E+03  0.30646478312E+03  0.00000000000E+00 0. -1.
         -1   -1    0    0    0  501 -0.00000000000E+00 -0.00000000000E+00 -0.11311330034E+02  0.11311330034E+02  0.00000000000E+00 0.  1.
         24    2    1    2    0    0 -0.11410689583E+02  0.17130970873E+02  0.28050948595E+03  0.29251508045E+03  0.80348158555E+02 0.  0.
        -13    1    3    3    0    0 -0.46054671872E+02  0.61450349629E+01  0.16564046535E+03  0.17203359561E+03  0.00000000000E+00 0.  1.
         14    1    3    3    0    0  0.34643982289E+02  0.10985935910E+02  0.11486902060E+03  0.12048148484E+03  0.00000000000E+00 0. -1.
         21    1    1    2  502  501  0.11410689583E+02 -0.17130970873E+02  0.14643967136E+02  0.25261032704E+02  0.00000000000E+00 0. -1.
<mgrwt>
<rscale>  1 0.82942755E+02</rscale>
<asrwt>0</asrwt>
<pdfrwt beam="1">  1        2 0.47148422E-01 0.82942755E+02</pdfrwt>
<pdfrwt beam="2">  1       -1 0.17402049E-02 0.82942755E+02</pdfrwt>
<totfact> 0.86902444E+04</totfact>
</mgrwt>
</event>
<event>
 6    2  0.1655576E+001  0.8123751E+02  0.7546771E-02  0.1325576E+00
          2   -1    0    0  502    0  0.00000000000E+00  0.00000000000E+00  0.23700362482E+03  0.23700362482E+03  0.00000000000E+00 0. -1.
         -1   -1    0    0    0  501 -0.00000000000E+00 -0.00000000000E+00 -0.60677421090E+02  0.60677421090E+02  0.00000000000E+00 0.  1.
         24    2    1    2    0    0 -0.25950488273E+02  0.12162701045E+02  0.22609697816E+03  0.24024857143E+03  0.76014297370E+02 0.  0.
        -13    1    3    3    0    0  0.12918520569E+02  0.19569672283E+01  0.27978186846E+01  0.13362098780E+02  0.00000000000E+00 0.  1.
         14    1    3    3    0    0 -0.38869008841E+02  0.10205733817E+02  0.22329915947E+03  0.22688647265E+03  0.00000000000E+00 0. -1.
         21    1    1    2  502  501  0.25950488273E+02 -0.12162701045E+02 -0.49770774424E+02  0.57432474481E+02  0.00000000000E+00 0.  1.
<mgrwt>
<rscale>  1 0.81237507E+02</rscale>
<asrwt>0</asrwt>
<pdfrwt beam="1">  1        2 0.36462096E-01 0.81237507E+02</pdfrwt>
<pdfrwt beam="2">  1       -1 0.93349880E-02 0.81237507E+02</pdfrwt>
<totfact> 0.98915583E+03</totfact>
</mgrwt>
</event>
<event>
 6    2  0.1655576E+001  0.1455027E+03  0.7546771E-02  0.1206111E+00
         -1   -1    0    0    0  501 -0.00000000000E+00  0.00000000000E+00  0.64638166458E+02  0.64638166458E+02  0.00000000000E+00 0.  1.
          2   -1    0    0  502    0  0.00000000000E+00 -0.00000000000E+00 -0.40217612782E+03  0.40217612782E+03  0.00000000000E+00 0. -1.
         24    2    1    2    0    0  0.74300415171E+02 -0.93349963355E+02 -0.31277414619E+03  0.34496186757E+03  0.83284189379E+02 0.  0.
        -11    1    3    3    0    0  0.36736471648E+02 -0.31218726661E+02 -0.39855915438E+02  0.62551348817E+02  0.00000000000E+00 0.  1.
         12    1    3    3    0    0  0.37563943524E+02 -0.62131236693E+02 -0.27291823075E+03  0.28241051875E+03  0.00000000000E+00 0. -1.
         21    1    1    2  502  501 -0.74300415171E+02  0.93349963355E+02 -0.24763815174E+02  0.12185242671E+03  0.00000000000E+00 0.  1.
<mgrwt>
<rscale>  1 0.14550266E+03</rscale>
<asrwt>0</asrwt>
<pdfrwt beam="1">  1        2 0.61873251E-01 0.14550266E+03</pdfrwt>
<pdfrwt beam="2">  1       -1 0.99443332E-02 0.14550266E+03</pdfrwt>
<totfact> 0.53610846E+03</totfact>
</mgrwt>
</event>
<event>
 6    2  0.1655576E+001  0.8200835E+02  0.7546771E-02  0.1323447E+00
          2   -1    0    0  502    0  0.00000000000E+00  0.00000000000E+00  0.24828430826E+03  0.24828430826E+03  0.00000000000E+00 0. -1.
         -1   -1    0    0    0  501 -0.00000000000E+00 -0.00000000000E+00 -0.20796322775E+02  0.20796322775E+02  0.00000000000E+00 0.  1.
         24    2    1    2    0    0 -0.74118700025E+00 -0.23123603967E+02  0.23150305407E+03  0.24559933647E+03  0.78677313193E+02 0.  0.
        -13    1    3    3    0    0 -0.32232829325E+02  0.11863427879E+02  0.11243438235E+03  0.11756354257E+03  0.00000000000E+00 0.  1.
         14    1    3    3    0    0  0.31491642325E+02 -0.34987031847E+02  0.11906867172E+03  0.12803579390E+03  0.00000000000E+00 0. -1.
         21    1    1    2  502  501  0.74118700025E+00  0.23123603967E+02 -0.40150685886E+01  0.23481294564E+02  0.00000000000E+00 0.  1.
<mgrwt>
<rscale>  1 0.82008353E+02</rscale>
<asrwt>0</asrwt>
<pdfrwt beam="1">  1        2 0.38197584E-01 0.82008353E+02</pdfrwt>
<pdfrwt beam="2">  1       -1 0.31994344E-02 0.82008353E+02</pdfrwt>
<totfact> 0.45287215E+04</totfact>
</mgrwt>
</event>
<event>
 6    2  0.1655576E+001  0.1155529E+03  0.7546771E-02  0.1250619E+00
         -1   -1    0    0    0  501 -0.00000000000E+00  0.00000000000E+00  0.16655398185E+03  0.16655398185E+03  0.00000000000E+00 0.  1.
          2   -1    0    0  502    0  0.00000000000E+00 -0.00000000000E+00 -0.91654943306E+02  0.91654943306E+02  0.00000000000E+00 0. -1.
         24    2    1    2    0    0  0.72599195973E+02  0.38346989457E+02  0.11827364820E+03  0.16535155271E+03  0.81310179363E+02 0.  0.
        -11    1    3    3    0    0  0.67102445918E+02  0.47920721154E+02  0.50516186672E+02  0.96700666389E+02  0.00000000000E+00 0.  1.
         12    1    3    3    0    0  0.54967500553E+01 -0.95737316972E+01  0.67757461527E+02  0.68650886319E+02  0.00000000000E+00 0. -1.
         21    1    1    2  502  501 -0.72599195973E+02 -0.38346989457E+02 -0.43374609651E+02  0.92857372452E+02  0.00000000000E+00 0. -1.
<mgrwt>
<rscale>  1 0.11555293E+03</rscale>
<asrwt>0</asrwt>
<pdfrwt beam="1">  1        2 0.14100761E-01 0.11555293E+03</pdfrwt>
<pdfrwt beam="2">  1       -1 0.25623690E-01 0.11555293E+03</pdfrwt>
<totfact> 0.60143849E+03</totfact>
</mgrwt>
</event>
<event>
 6    2  0.1655576E+001  0.8997077E+02  0.7546771E-02  0.1302922E+00
         -1   -1    0    0    0  501 -0.00000000000E+00  0.00000000000E+00  0.14915351595E+02  0.14915351595E+02  0.00000000000E+00 0.  1.
          2   -1    0    0  502    0  0.00000000000E+00 -0.00000000000E+00 -0.26372849094E+03  0.26372849094E+03  0.00000000000E+00 0. -1.
         24    2    1    2    0    0  0.18112342207E+02  0.24615005708E+02 -0.21500363942E+03  0.23306931312E+03  0.84621417549E+02 0.  0.
        -13    1    3    3    0    0  0.15454052454E+02 -0.30160406290E+02 -0.10157796624E+03  0.10708202964E+03  0.00000000000E+00 0.  1.
         14    1    3    3    0    0  0.26582897523E+01  0.54775411998E+02 -0.11342567317E+03  0.12598728348E+03  0.00000000000E+00 0. -1.
         21    1    1    2  502  501 -0.18112342207E+02 -0.24615005708E+02 -0.33809499928E+02  0.45574529417E+02  0.00000000000E+00 0.  1.
<mgrwt>
<rscale>  1 0.89970772E+02</rscale>
<asrwt>0</asrwt>
<pdfrwt beam="1">  1        2 0.40573612E-01 0.89970772E+02</pdfrwt>
<pdfrwt beam="2">  1       -1 0.22946696E-02 0.89970772E+02</pdfrwt>
<totfact> 0.69358532E+04</totfact>
</mgrwt>
</event>
<event>
 6    2  0.1655576E+001  0.8229898E+02  0.7546771E-02  0.1322651E+00
         -1   -1    0    0    0  501 -0.00000000000E+00  0.00000000000E+00  0.53378377447E+03  0.53378377447E+03  0.00000000000E+00 0.  1.
          2   -1    0    0  502    0  0.00000000000E+00 -0.00000000000E+00 -0.50935809678E+01  0.50935809678E+01  0.00000000000E+00 0. -1.
         24    2    1    2    0    0  0.17430342262E+02 -0.11816421859E+02  0.38916055291E+03  0.39776759227E+03  0.79559266360E+02 0.  0.
        -13    1    3    3    0    0 -0.17022757514E+02  0.70780529166E+01  0.29710497700E+03  0.29767640227E+03  0.00000000000E+00 0.  1.
         14    1    3    3    0    0  0.34453099775E+02 -0.18894474776E+02  0.92055575909E+02  0.10009119001E+03  0.00000000000E+00 0. -1.
         21    1    1    2  502  501 -0.17430342262E+02  0.11816421859E+02  0.13952964059E+03  0.14110976317E+03  0.00000000000E+00 0.  1.
<mgrwt>
<rscale>  1 0.82298976E+02</rscale>
<asrwt>0</asrwt>
<pdfrwt beam="1">  1        2 0.78362826E-03 0.82298976E+02</pdfrwt>
<pdfrwt beam="2">  1       -1 0.82120536E-01 0.82298976E+02</pdfrwt>
<totfact> 0.31089738E+04</totfact>
</mgrwt>
</event>
<event>
 6    2  0.1655576E+001  0.8648132E+02  0.7546771E-02  0.1311604E+00
         -1   -1    0    0    0  501 -0.00000000000E+00  0.00000000000E+00  0.97283885398E+01  0.97283885398E+01  0.00000000000E+00 0.  1.
          2   -1    0    0  502    0  0.00000000000E+00 -0.00000000000E+00 -0.34108292220E+03  0.34108292220E+03  0.00000000000E+00 0. -1.
         24    2    1    2    0    0  0.21334618344E+02  0.13444294066E+02 -0.28747852737E+03  0.30020480018E+03  0.82723052232E+02 0.  0.
        -13    1    3    3    0    0 -0.80047125918E+01  0.36843672103E+02 -0.69960888406E+02  0.79473627729E+02  0.00000000000E+00 0.  1.
         14    1    3    3    0    0  0.29339330936E+02 -0.23399378037E+02 -0.21751763896E+03  0.22073117245E+03  0.00000000000E+00 0. -1.
         21    1    1    2  502  501 -0.21334618344E+02 -0.13444294066E+02 -0.43876006286E+02  0.50606510554E+02  0.00000000000E+00 0. -1.
<mgrwt>
<rscale>  1 0.86481318E+02</rscale>
<asrwt>0</asrwt>
<pdfrwt beam="1">  1        2 0.52474291E-01 0.86481318E+02</pdfrwt>
<pdfrwt beam="2">  1       -1 0.14966753E-02 0.86481318E+02</pdfrwt>
<totfact> 0.96861478E+04</totfact>
</mgrwt>
</event>
<event>
 6    2  0.1655576E+001  0.8620061E+02  0.7546771E-02  0.1312322E+00
         -1   -1    0    0    0  501 -0.00000000000E+00  0.00000000000E+00  0.12086090089E+03  0.12086090089E+03  0.00000000000E+00 0.  1.
          2   -1    0    0  502    0  0.00000000000E+00 -0.00000000000E+00 -0.26559231140E+02  0.26559231140E+02  0.00000000000E+00 0. -1.
         24    2    1    2    0    0 -0.18530103052E+02 -0.17356756450E+02  0.61264517066E+02  0.10575389665E+03  0.82376719350E+02 0.  0.
        -13    1    3    3    0    0 -0.42956084223E+02 -0.35266995851E+02  0.44025308262E+02  0.70902848573E+02  0.00000000000E+00 0.  1.
         14    1    3    3    0    0  0.24425981171E+02  0.17910239402E+02  0.17239208804E+02  0.34851048073E+02  0.00000000000E+00 0. -1.
         21    1    1    2  502  501  0.18530103052E+02  0.17356756450E+02  0.33037152683E+02  0.41666235382E+02  0.00000000000E+00 0.  1.
<mgrwt>
<rscale>  1 0.86200613E+02</rscale>
<asrwt>0</asrwt>
<pdfrwt beam="1">  1        2 0.40860356E-02 0.86200613E+02</pdfrwt>
<pdfrwt beam="2">  1       -1 0.18593984E-01 0.86200613E+02</pdfrwt>
<totfact> 0.45706657E+04</totfact>
</mgrwt>
</event>
<event>
 6    2  0.1655576E+001  0.8303399E+02  0.7546771E-02  0.1320655E+00
          2   -1    0    0  502    0  0.00000000000E+00  0.00000000000E+00  0.11512506823E+04  0.11512506823E+04  0.00000000000E+00 0. -1.
         -1   -1    0    0    0  501 -0.00000000000E+00 -0.00000000000E+00 -0.26895958336E+01  0.26895958336E+01  0.00000000000E+00 0.  1.
         24    2    1    2    0    0  0.22512364313E+02  0.60913925954E+01  0.10121202292E+04  0.10155205573E+04  0.79691480952E+02 0.  0.
        -13    1    3    3    0    0 -0.12852958736E+02  0.34901607051E+02  0.49210681114E+03  0.49351031833E+03  0.00000000000E+00 0.  1.
         14    1    3    3    0    0  0.35365323050E+02 -0.28810214456E+02  0.52001341811E+03  0.52201023893E+03  0.00000000000E+00 0. -1.
         21    1    1    2  502  501 -0.22512364313E+02 -0.60913925954E+01  0.13644085724E+03  0.13841972091E+03  0.00000000000E+00 0. -1.
<mgrwt>
<rscale>  1 0.83033992E+02</rscale>
<asrwt>0</asrwt>
<pdfrwt beam="1">  1        2 0.17711510E+00 0.83033992E+02</pdfrwt>
<pdfrwt beam="2">  1       -1 0.41378489E-03 0.83033992E+02</pdfrwt>
<totfact> 0.14156796E+05</totfact>
</mgrwt>
</event>
<event>
 6    2  0.1655576E+001  0.8831018E+02  0.7546771E-02  0.1306996E+00
         -1   -1    0    0    0  501 -0.00000000000E+00  0.00000000000E+00  0.42815329950E+03  0.42815329950E+03  0.00000000000E+00 0.  1.
          2   -1    0    0  502    0  0.00000000000E+00 -0.00000000000E+00 -0.77371774105E+01  0.77371774105E+01  0.00000000000E+00 0. -1.
         24    2    1    2    0    0  0.68942788505E+01 -0.25182616124E+02  0.34319768167E+03  0.35437739344E+03  0.84362272631E+02 0.  0.
        -11    1    3    3    0    0  0.97538607075E+01 -0.61253525423E+01  0.33177679173E+03  0.33197665170E+03  0.00000000000E+00 0.  1.
         12    1    3    3    0    0 -0.28595818570E+01 -0.19057263582E+02  0.11420889940E+02  0.22400741743E+02  0.00000000000E+00 0. -1.
         21    1    1    2  502  501 -0.68942788505E+01  0.25182616124E+02  0.77218440426E+02  0.81513083475E+02  0.00000000000E+00 0. -1.
<mgrwt>
<rscale>  1 0.88310182E+02</rscale>
<asrwt>0</asrwt>
<pdfrwt beam="1">  1        2 0.11903353E-02 0.88310182E+02</pdfrwt>
<pdfrwt beam="2">  1       -1 0.65869720E-01 0.88310182E+02</pdfrwt>
<totfact> 0.27411655E+04</totfact>
</mgrwt>
</event>
<event>
 6    2  0.1655576E+001  0.8717815E+02  0.7546771E-02  0.1309833E+00
          2   -1    0    0  502    0  0.00000000000E+00  0.00000000000E+00  0.25948938961E+03  0.25948938961E+03  0.00000000000E+00 0. -1.
         -1   -1    0    0    0  501 -0.00000000000E+00 -0.00000000000E+00 -0.13564525324E+02  0.13564525324E+02  0.00000000000E+00 0.  1.
         24    2    1    2    0    0 -0.14348211339E+02  0.19252012099E+02  0.22465570789E+03  0.24097762848E+03  0.83806438922E+02 0.  0.
        -13    1    3    3    0    0 -0.49033500897E+02  0.38594639773E+01  0.13066691596E+03  0.13961741510E+03  0.00000000000E+00 0.  1.
         14    1    3    3    0    0  0.34685289559E+02  0.15392548122E+02  0.93988791929E+02  0.10136021339E+03  0.00000000000E+00 0. -1.
         21    1    1    2  502  501  0.14348211339E+02 -0.19252012099E+02  0.21269156396E+02  0.32076286448E+02  0.00000000000E+00 0.  1.
<mgrwt>
<rscale>  1 0.87178153E+02</rscale>
<asrwt>0</asrwt>
<pdfrwt beam="1">  1        2 0.39921441E-01 0.87178153E+02</pdfrwt>
<pdfrwt beam="2">  1       -1 0.20868502E-02 0.87178153E+02</pdfrwt>
<totfact> 0.80423042E+04</totfact>
</mgrwt>
</event>
<event>
 6    2  0.1655576E+001  0.8345315E+02  0.7546771E-02  0.1319528E+00
          2   -1    0    0  502    0  0.00000000000E+00  0.00000000000E+00  0.48510957025E+03  0.48510957025E+03  0.00000000000E+00 0. -1.
         -1   -1    0    0    0  501 -0.00000000000E+00 -0.00000000000E+00 -0.77386085416E+01  0.77386085416E+01  0.00000000000E+00 0.  1.
         24    2    1    2    0    0  0.16216582037E+01  0.20994938282E+02  0.45307576677E+03  0.46069738244E+03  0.80752774236E+02 0.  0.
        -13    1    3    3    0    0 -0.15710694449E+02  0.12103513540E+02  0.23800659683E+02  0.30980515836E+02  0.00000000000E+00 0.  1.
         14    1    3    3    0    0  0.17332352653E+02  0.88914247414E+01  0.42927510709E+03  0.42971686661E+03  0.00000000000E+00 0. -1.
         21    1    1    2  502  501 -0.16216582037E+01 -0.20994938282E+02  0.24295194939E+02  0.32150796350E+02  0.00000000000E+00 0. -1.
<mgrwt>
<rscale>  1 0.83453147E+02</rscale>
<asrwt>0</asrwt>
<pdfrwt beam="1">  1        2 0.74632218E-01 0.83453147E+02</pdfrwt>
<pdfrwt beam="2">  1       -1 0.11905555E-02 0.83453147E+02</pdfrwt>
<totfact> 0.91861129E+04</totfact>
</mgrwt>
</event>
<event>
 6    2  0.1655576E+001  0.9648885E+02  0.7546771E-02  0.1287858E+00
          2   -1    0    0  502    0  0.00000000000E+00  0.00000000000E+00  0.15900696367E+03  0.15900696367E+03  0.00000000000E+00 0. -1.
         -1   -1    0    0    0  501 -0.00000000000E+00 -0.00000000000E+00 -0.66268404715E+02  0.66268404715E+02  0.00000000000E+00 0.  1.
         24    2    1    2    0    0  0.40882407265E+02 -0.34101178321E+02 -0.21842537195E+02  0.98930249044E+02  0.80472580163E+02 0.  0.
        -11    1    3    3    0    0  0.26926937117E+02 -0.57467989613E+02 -0.30441929731E+02  0.70387078775E+02  0.00000000000E+00 0.  1.
         12    1    3    3    0    0  0.13955470148E+02  0.23366811292E+02  0.85993925358E+01  0.28543170269E+02  0.00000000000E+00 0. -1.
         21    1    1    2  502  501 -0.40882407265E+02  0.34101178321E+02  0.11458109615E+03  0.12634511935E+03  0.00000000000E+00 0. -1.
<mgrwt>
<rscale>  1 0.96488848E+02</rscale>
<asrwt>0</asrwt>
<pdfrwt beam="1">  1        2 0.24462610E-01 0.96488848E+02</pdfrwt>
<pdfrwt beam="2">  1       -1 0.10195139E-01 0.96488848E+02</pdfrwt>
<totfact> 0.13487415E+04</totfact>
</mgrwt>
</event>
<event>
 6    2  0.1655576E+001  0.8724212E+02  0.7546771E-02  0.1309671E+00
          2   -1    0    0  502    0  0.00000000000E+00  0.00000000000E+00  0.28694439401E+04  0.28694439401E+04  0.00000000000E+00 0. -1.
         -1   -1    0    0    0  501 -0.00000000000E+00 -0.00000000000E+00 -0.11982340866E+01  0.11982340866E+01  0.00000000000E+00 0.  1.
         24    2    1    2    0    0 -0.27113160301E+02 -0.53796064922E+01  0.23963877844E+04  0.23979753128E+04  0.82747351218E+02 0.  0.
        -13    1    3    3    0    0  0.16619891979E+02 -0.15724287403E+02  0.23296221091E+03  0.23408303172E+03  0.00000000000E+00 0.  1.
         14    1    3    3    0    0 -0.43733052280E+02  0.10344680911E+02  0.21634255735E+04  0.21638922811E+04  0.00000000000E+00 0. -1.
         21    1    1    2  502  501  0.27113160301E+02  0.53796064922E+01  0.47185792162E+03  0.47266686136E+03  0.00000000000E+00 0.  1.
<mgrwt>
<rscale>  1 0.87242121E+02</rscale>
<asrwt>0</asrwt>
<pdfrwt beam="1">  1        2 0.44144741E+00 0.87242121E+02</pdfrwt>
<pdfrwt beam="2">  1       -1 0.18434600E-03 0.87242121E+02</pdfrwt>
<totfact> 0.56520478E+04</totfact>
</mgrwt>
</event>
<event>
 6    2  0.1655576E+001  0.1032816E+03  0.7546771E-02  0.1273543E+00
         -1   -1    0    0    0  501 -0.00000000000E+00  0.00000000000E+00  0.25140814142E+02  0.25140814142E+02  0.00000000000E+00 0.  1.
          2   -1    0    0  502    0  0.00000000000E+00 -0.00000000000E+00 -0.42591615370E+03  0.42591615370E+03  0.00000000000E+00 0. -1.
         24    2    1    2    0    0 -0.62832058135E+02  0.11761044902E+02 -0.10069922482E+03  0.14424780184E+03  0.81122775778E+02 0.  0.
        -13    1    3    3    0    0 -0.58286386807E+02 -0.25745905040E+02 -0.75684712350E+02  0.98935990402E+02  0.00000000000E+00 0.  1.
         14    1    3    3    0    0 -0.45456713276E+01  0.37506949942E+02 -0.25014512474E+02  0.45311811442E+02  0.00000000000E+00 0. -1.
         21    1    1    2  502  501  0.62832058135E+02 -0.11761044902E+02 -0.30007611474E+03  0.30680916600E+03  0.00000000000E+00 0. -1.
<mgrwt>
<rscale>  1 0.10328163E+03</rscale>
<asrwt>0</asrwt>
<pdfrwt beam="1">  1        2 0.65525557E-01 0.10328163E+03</pdfrwt>
<pdfrwt beam="2">  1       -1 0.38678178E-02 0.10328163E+03</pdfrwt>
<totfact> 0.20062350E+04</totfact>
</mgrwt>
</event>
<event>
 6    2  0.1655576E+001  0.8286496E+02  0.7546771E-02  0.1321112E+00
          2   -1    0    0  502    0  0.00000000000E+00  0.00000000000E+00  0.19762129087E+04  0.19762129087E+04  0.00000000000E+00 0. -1.
         -1   -1    0    0    0  501 -0.00000000000E+00 -0.00000000000E+00 -0.39733892297E+01  0.39733892297E+01  0.00000000000E+00 0.  1.
         24    2    1    2    0    0  0.54256387650E+01 -0.22720251993E+02  0.19311044481E+04  0.19328815254E+04  0.79504429951E+02 0.  0.
        -11    1    3    3    0    0  0.70914926565E+01 -0.12416901162E+02  0.57612299234E+02  0.59360304291E+02  0.00000000000E+00 0.  1.
         12    1    3    3    0    0 -0.16658538915E+01 -0.10303350831E+02  0.18734921488E+04  0.18735212211E+04  0.00000000000E+00 0. -1.
         21    1    1    2  502  501 -0.54256387650E+01  0.22720251993E+02  0.41135071358E+02  0.47304772510E+02  0.00000000000E+00 0.  1.
<mgrwt>
<rscale>  1 0.82864961E+02</rscale>
<asrwt>0</asrwt>
<pdfrwt beam="1">  1        2 0.30403197E+00 0.82864961E+02</pdfrwt>
<pdfrwt beam="2">  1       -1 0.61129223E-03 0.82864961E+02</pdfrwt>
<totfact> 0.31079538E+04</totfact>
</mgrwt>
</event>
<event>
 6    2  0.1655576E+001  0.8625215E+02  0.7546771E-02  0.1312190E+00
          2   -1    0    0  502    0  0.00000000000E+00  0.00000000000E+00  0.19963928757E+04  0.19963928757E+04  0.00000000000E+00 0. -1.
         -1   -1    0    0    0  501 -0.00000000000E+00 -0.00000000000E+00 -0.25814643153E+01  0.25814643153E+01  0.00000000000E+00 0.  1.
         24    2    1    2    0    0 -0.18590210077E+01 -0.27129902509E+02  0.18793023521E+04  0.18812806179E+04  0.81853192169E+02 0.  0.
        -13    1    3    3    0    0 -0.20056937249E+02  0.27531883361E+00  0.11957300118E+03  0.12124380044E+03  0.00000000000E+00 0.  1.
         14    1    3    3    0    0  0.18197916241E+02 -0.27405221343E+02  0.17597293509E+04  0.17600368175E+04  0.00000000000E+00 0. -1.
         21    1    1    2  502  501  0.18590210077E+01  0.27129902509E+02  0.11450905923E+03  0.11769372207E+03  0.00000000000E+00 0.  1.
<mgrwt>
<rscale>  1 0.86252146E+02</rscale>
<asrwt>0</asrwt>
<pdfrwt beam="1">  1        2 0.30713613E+00 0.86252146E+02</pdfrwt>
<pdfrwt beam="2">  1       -1 0.39714995E-03 0.86252146E+02</pdfrwt>
<totfact> 0.55620244E+04</totfact>
</mgrwt>
</event>
<event>
 6    2  0.1655576E+001  0.8577969E+02  0.7546771E-02  0.1313406E+00
          2   -1    0    0  502    0  0.00000000000E+00  0.00000000000E+00  0.69407726723E+03  0.69407726723E+03  0.00000000000E+00 0. -1.
         -1   -1    0    0    0  501 -0.00000000000E+00 -0.00000000000E+00 -0.56148923974E+01  0.56148923974E+01  0.00000000000E+00 0.  1.
         24    2    1    2    0    0 -0.19392534401E+02 -0.19621774753E+02  0.36022425940E+03  0.37029673637E+03  0.81222358233E+02 0.  0.
        -11    1    3    3    0    0  0.19392137568E+02  0.57940938770E+01  0.26390420687E+02  0.33257793483E+02  0.00000000000E+00 0.  1.
         12    1    3    3    0    0 -0.38784671969E+02 -0.25415868630E+02  0.33383383871E+03  0.33703894289E+03  0.00000000000E+00 0. -1.
         21    1    1    2  502  501  0.19392534401E+02  0.19621774753E+02  0.32823811544E+03  0.32939542326E+03  0.00000000000E+00 0. -1.
<mgrwt>
<rscale>  1 0.85779694E+02</rscale>
<asrwt>0</asrwt>
<pdfrwt beam="1">  1        2 0.10678105E+00 0.85779694E+02</pdfrwt>
<pdfrwt beam="2">  1       -1 0.86383015E-03 0.85779694E+02</pdfrwt>
<totfact> 0.97340904E+04</totfact>
</mgrwt>
</event>
<event>
 6    2  0.1655576E+001  0.8427123E+02  0.7546771E-02  0.1317349E+00
         -1   -1    0    0    0  501 -0.00000000000E+00  0.00000000000E+00  0.79126135908E+02  0.79126135908E+02  0.00000000000E+00 0.  1.
          2   -1    0    0  502    0  0.00000000000E+00 -0.00000000000E+00 -0.39322137503E+02  0.39322137503E+02  0.00000000000E+00 0. -1.
         24    2    1    2    0    0 -0.26136565654E+02  0.45666872377E+01  0.24242099647E+02  0.87688764483E+02  0.79985406948E+02 0.  0.
        -13    1    3    3    0    0 -0.47056684097E+02  0.25653251459E+02  0.91475968444E+01  0.54370022592E+02  0.00000000000E+00 0.  1.
         14    1    3    3    0    0  0.20920118443E+02 -0.21086564222E+02  0.15094502802E+02  0.33318741891E+02  0.00000000000E+00 0. -1.
         21    1    1    2  502  501  0.26136565654E+02 -0.45666872377E+01  0.15561898759E+02  0.30759508928E+02  0.00000000000E+00 0. -1.
<mgrwt>
<rscale>  1 0.84271229E+02</rscale>
<asrwt>0</asrwt>
<pdfrwt beam="1">  1        2 0.60495596E-02 0.84271229E+02</pdfrwt>
<pdfrwt beam="2">  1       -1 0.12173252E-01 0.84271229E+02</pdfrwt>
<totfact> 0.52979092E+04</totfact>
</mgrwt>
</event>
<event>
 6    2  0.1655576E+001  0.1068462E+03  0.7546771E-02  0.1266524E+00
          2   -1    0    0  502    0  0.00000000000E+00  0.00000000000E+00  0.50820528719E+03  0.50820528719E+03  0.00000000000E+00 0. -1.
         -1   -1    0    0    0  501 -0.00000000000E+00 -0.00000000000E+00 -0.18002735101E+02  0.18002735101E+02  0.00000000000E+00 0.  1.
         24    2    1    2    0    0 -0.30968458155E+02  0.61587206992E+02  0.39148563321E+03  0.40580428672E+03  0.81633869486E+02 0.  0.
        -11    1    3    3    0    0  0.27488581344E+02  0.28690395139E+02  0.15067412384E+03  0.15582507010E+03  0.00000000000E+00 0.  1.
         12    1    3    3    0    0 -0.58457039499E+02  0.32896811853E+02  0.24081150937E+03  0.24997921662E+03  0.00000000000E+00 0. -1.
         21    1    1    2  502  501  0.30968458155E+02 -0.61587206992E+02  0.98716918878E+02  0.12040373557E+03  0.00000000000E+00 0.  1.
<mgrwt>
<rscale>  1 0.10684624E+03</rscale>
<asrwt>0</asrwt>
<pdfrwt beam="1">  1        2 0.78185418E-01 0.10684624E+03</pdfrwt>
<pdfrwt beam="2">  1       -1 0.27696519E-02 0.10684624E+03</pdfrwt>
<totfact> 0.27011083E+04</totfact>
</mgrwt>
</event>
<event>
 6    2  0.1655576E+001  0.8381966E+02  0.7546771E-02  0.1318548E+00
          2   -1    0    0  502    0  0.00000000000E+00  0.00000000000E+00  0.22312281346E+03  0.22312281346E+03  0.00000000000E+00 0. -1.
         -1   -1    0    0    0  501 -0.00000000000E+00 -0.00000000000E+00 -0.13024950028E+02  0.13024950028E+02  0.00000000000E+00 0.  1.
         24    2    1    2    0    0  0.19045767282E+02 -0.12643334666E+02  0.17792674999E+03  0.19668162987E+03  0.80642048605E+02 0.  0.
        -11    1    3    3    0    0  0.26269171429E+02  0.74292476628E+01  0.12744971477E+02  0.30128016635E+02  0.00000000000E+00 0.  1.
         12    1    3    3    0    0 -0.72234041470E+01 -0.20072582329E+02  0.16518177851E+03  0.16655361323E+03  0.00000000000E+00 0. -1.
         21    1    1    2  502  501 -0.19045767282E+02  0.12643334666E+02  0.32171113448E+02  0.39466133625E+02  0.00000000000E+00 0. -1.
<mgrwt>
<rscale>  1 0.83819659E+02</rscale>
<asrwt>0</asrwt>
<pdfrwt beam="1">  1        2 0.34326584E-01 0.83819659E+02</pdfrwt>
<pdfrwt beam="2">  1       -1 0.20038386E-02 0.83819659E+02</pdfrwt>
<totfact> 0.99282212E+04</totfact>
</mgrwt>
</event>
<event>
 6    2  0.1655576E+001  0.8638453E+02  0.7546771E-02  0.1311851E+00
          2   -1    0    0  502    0  0.00000000000E+00  0.00000000000E+00  0.15539555417E+04  0.15539555417E+04  0.00000000000E+00 0. -1.
         -1   -1    0    0    0  501 -0.00000000000E+00 -0.00000000000E+00 -0.94613970728E+01  0.94613970728E+01  0.00000000000E+00 0.  1.
         24    2    1    2    0    0  0.22023144384E+02 -0.15831853628E+02  0.15304266924E+04  0.15328627297E+04  0.82015979708E+02 0.  0.
        -13    1    3    3    0    0 -0.27908051814E+01  0.31063149150E+02  0.41225900977E+03  0.41343705563E+03  0.00000000000E+00 0.  1.
         14    1    3    3    0    0  0.24813949565E+02 -0.46895002778E+02  0.11181676826E+04  0.11194256741E+04  0.00000000000E+00 0. -1.
         21    1    1    2  502  501 -0.22023144384E+02  0.15831853628E+02  0.14067452233E+02  0.30554209042E+02  0.00000000000E+00 0.  1.
<mgrwt>
<rscale>  1 0.86384532E+02</rscale>
<asrwt>0</asrwt>
<pdfrwt beam="1">  1        2 0.23906988E+00 0.86384532E+02</pdfrwt>
<pdfrwt beam="2">  1       -1 0.14556008E-02 0.86384532E+02</pdfrwt>
<totfact> 0.14969057E+04</totfact>
</mgrwt>
</event>
<event>
 6    2  0.1655576E+001  0.8635141E+02  0.7546771E-02  0.1311936E+00
          2   -1    0    0  502    0  0.00000000000E+00  0.00000000000E+00  0.10834951898E+03  0.10834951898E+03  0.00000000000E+00 0. -1.
         -1   -1    0    0    0  501 -0.00000000000E+00 -0.00000000000E+00 -0.34410285247E+02  0.34410285247E+02  0.00000000000E+00 0.  1.
         24    2    1    2    0    0 -0.93067924222E+01 -0.33701141204E+02  0.59852168020E+02  0.10506592244E+03  0.78956840984E+02 0.  0.
        -11    1    3    3    0    0 -0.23846679007E+02 -0.11525108570E+02 -0.11553065283E+02  0.28895770359E+02  0.00000000000E+00 0.  1.
         12    1    3    3    0    0  0.14539886585E+02 -0.22176032634E+02  0.71405233303E+02  0.76170152083E+02  0.00000000000E+00 0. -1.
         21    1    1    2  502  501  0.93067924222E+01  0.33701141204E+02  0.14087065713E+02  0.37693881786E+02  0.00000000000E+00 0.  1.
<mgrwt>
<rscale>  1 0.86351410E+02</rscale>
<asrwt>0</asrwt>
<pdfrwt beam="1">  1        2 0.16669157E-01 0.86351410E+02</pdfrwt>
<pdfrwt beam="2">  1       -1 0.52938901E-02 0.86351410E+02</pdfrwt>
<totfact> 0.54145037E+04</totfact>
</mgrwt>
</event>
<event>
 6    2  0.1655576E+001  0.8276429E+02  0.7546771E-02  0.1321385E+00
         -1   -1    0    0    0  501 -0.00000000000E+00  0.00000000000E+00  0.18435878448E+03  0.18435878448E+03  0.00000000000E+00 0.  1.
          2   -1    0    0  502    0  0.00000000000E+00 -0.00000000000E+00 -0.14693039632E+02  0.14693039632E+02  0.00000000000E+00 0. -1.
         24    2    1    2    0    0 -0.19285858676E+02 -0.91015233972E+01  0.13438287827E+03  0.15782485785E+03  0.79969654939E+02 0.  0.
        -13    1    3    3    0    0 -0.10407554442E+02  0.26651830139E+01  0.14118324465E+03  0.14159141555E+03  0.00000000000E+00 0.  1.
         14    1    3    3    0    0 -0.88783042343E+01 -0.11766706411E+02 -0.68003663798E+01  0.16233442295E+02  0.00000000000E+00 0. -1.
         21    1    1    2  502  501  0.19285858676E+02  0.91015233972E+01  0.35282866579E+02  0.41226966261E+02  0.00000000000E+00 0. -1.
<mgrwt>
<rscale>  1 0.82764291E+02</rscale>
<asrwt>0</asrwt>
<pdfrwt beam="1">  1        2 0.22604678E-02 0.82764291E+02</pdfrwt>
<pdfrwt beam="2">  1       -1 0.28362888E-01 0.82764291E+02</pdfrwt>
<totfact> 0.50428518E+04</totfact>
</mgrwt>
</event>
<event>
 6    2  0.1655576E+001  0.8957000E+02  0.7546771E-02  0.1303896E+00
          2   -1    0    0  502    0  0.00000000000E+00  0.00000000000E+00  0.14293671084E+03  0.14293671084E+03  0.00000000000E+00 0. -1.
         -1   -1    0    0    0  501 -0.00000000000E+00 -0.00000000000E+00 -0.57557397953E+02  0.57557397953E+02  0.00000000000E+00 0.  1.
         24    2    1    2    0    0  0.22224524464E+02  0.11986078247E+02 -0.20298692926E+02  0.91841283371E+02  0.85937121417E+02 0.  0.
        -11    1    3    3    0    0  0.33691345594E+02 -0.30508653938E+02 -0.12516881315E+02  0.47144003340E+02  0.00000000000E+00 0.  1.
         12    1    3    3    0    0 -0.11466821130E+02  0.42494732184E+02 -0.77818116115E+01  0.44697280032E+02  0.00000000000E+00 0. -1.
         21    1    1    2  502  501 -0.22224524464E+02 -0.11986078247E+02  0.10567800582E+03  0.10865282542E+03  0.00000000000E+00 0. -1.
<mgrwt>
<rscale>  1 0.89569997E+02</rscale>
<asrwt>0</asrwt>
<pdfrwt beam="1">  1        2 0.21990263E-01 0.89569997E+02</pdfrwt>
<pdfrwt beam="2">  1       -1 0.88549844E-02 0.89569997E+02</pdfrwt>
<totfact> 0.18610881E+04</totfact>
</mgrwt>
</event>
<event>
 6    2  0.1655576E+001  0.8385485E+02  0.7546771E-02  0.1318455E+00
          4   -1    0    0  502    0  0.00000000000E+00  0.00000000000E+00  0.10929228257E+02  0.10929228257E+02  0.00000000000E+00 0. -1.
         -3   -1    0    0    0  501 -0.00000000000E+00 -0.00000000000E+00 -0.31493748956E+03  0.31493748956E+03  0.00000000000E+00 0.  1.
         24    2    1    2    0    0  0.21644977146E+02  0.28899034718E+01 -0.16429569864E+03  0.18445788943E+03  0.80961594637E+02 0.  0.
        -11    1    3    3    0    0  0.50717800512E+01  0.35828604060E+02 -0.12682849171E+03  0.13188964376E+03  0.00000000000E+00 0.  1.
         12    1    3    3    0    0  0.16573197095E+02 -0.32938700588E+02 -0.37467206927E+02  0.52568245674E+02  0.00000000000E+00 0. -1.
         21    1    1    2  502  501 -0.21644977146E+02 -0.28899034718E+01 -0.13971256266E+03  0.14140882838E+03  0.00000000000E+00 0.  1.
<mgrwt>
<rscale>  1 0.83854853E+02</rscale>
<asrwt>0</asrwt>
<pdfrwt beam="1">  1        4 0.16814198E-02 0.83854853E+02</pdfrwt>
<pdfrwt beam="2">  1       -3 0.48451921E-01 0.83854853E+02</pdfrwt>
<totfact> 0.96598054E+03</totfact>
</mgrwt>
</event>
<event>
 6    2  0.1655576E+001  0.9169996E+02  0.7546771E-02  0.1298786E+00
         -1   -1    0    0    0  501 -0.00000000000E+00  0.00000000000E+00  0.20473505318E+02  0.20473505318E+02  0.00000000000E+00 0.  1.
          2   -1    0    0  502    0  0.00000000000E+00 -0.00000000000E+00 -0.45733205002E+03  0.45733205002E+03  0.00000000000E+00 0. -1.
         24    2    1    2    0    0  0.30552781904E+02  0.11022840721E+02 -0.43576273826E+03  0.44530668934E+03  0.85754929976E+02 0.  0.
        -11    1    3    3    0    0  0.19173995377E+01  0.28314536512E+02 -0.45581598729E+02  0.53694241233E+02  0.00000000000E+00 0.  1.
         12    1    3    3    0    0  0.28635382367E+02 -0.17291695791E+02 -0.39018113953E+03  0.39161244811E+03  0.00000000000E+00 0. -1.
         21    1    1    2  502  501 -0.30552781904E+02 -0.11022840721E+02 -0.10958064458E+01  0.32498866002E+02  0.00000000000E+00 0.  1.
<mgrwt>
<rscale>  1 0.91699965E+02</rscale>
<asrwt>0</asrwt>
<pdfrwt beam="1">  1        2 0.70358774E-01 0.91699965E+02</pdfrwt>
<pdfrwt beam="2">  1       -1 0.31497702E-02 0.91699965E+02</pdfrwt>
<totfact> 0.24747806E+04</totfact>
</mgrwt>
</event>
<event>
 6    2  0.1655576E+001  0.1039048E+03  0.7546771E-02  0.1272293E+00
         -3   -1    0    0    0  501 -0.00000000000E+00  0.00000000000E+00  0.33260521551E+03  0.33260521551E+03  0.00000000000E+00 0.  1.
          4   -1    0    0  502    0  0.00000000000E+00 -0.00000000000E+00 -0.13467312406E+03  0.13467312406E+03  0.00000000000E+00 0. -1.
         24    2    1    2    0    0 -0.48942124318E+02 -0.51943723205E+02 -0.10992301307E+03  0.15125896154E+03  0.75516373908E+02 0.  0.
        -11    1    3    3    0    0 -0.34827596422E+02 -0.21562617031E+02 -0.51790551567E+01  0.41288382604E+02  0.00000000000E+00 0.  1.
         12    1    3    3    0    0 -0.14114527896E+02 -0.30381106174E+02 -0.10474395792E+03  0.10997057893E+03  0.00000000000E+00 0. -1.
         21    1    1    2  502  501  0.48942124318E+02  0.51943723205E+02  0.30785510452E+03  0.31601937803E+03  0.00000000000E+00 0.  1.
<mgrwt>
<rscale>  1 0.10390479E+03</rscale>
<asrwt>0</asrwt>
<pdfrwt beam="1">  1        4 0.20718942E-01 0.10390479E+03</pdfrwt>
<pdfrwt beam="2">  1       -3 0.51170033E-01 0.10390479E+03</pdfrwt>
<totfact> 0.15349501E+02</totfact>
</mgrwt>
</event>
<event>
 6    2  0.2140240E+001  0.1248683E+03  0.7546771E-02  0.1235275E+00
         -1   -1    0    0    0  501 -0.00000000000E+00  0.00000000000E+00  0.83216145836E+02  0.83216145836E+02  0.00000000000E+00 0.  1.
          2   -1    0    0  502    0  0.00000000000E+00 -0.00000000000E+00 -0.30524171190E+03  0.30524171190E+03  0.00000000000E+00 0. -1.
         24    2    1    2    0    0 -0.63546283980E+02 -0.70399740468E+02  0.21873019973E+02  0.12676954325E+03  0.81227054783E+02 0.  0.
        -11    1    3    3    0    0 -0.80412955772E+02 -0.68089668748E+02  0.96443643196E+01  0.10580860177E+03  0.00000000000E+00 0.  1.
         12    1    3    3    0    0  0.16866671792E+02 -0.23100717199E+01  0.12228655653E+02  0.20960941481E+02  0.00000000000E+00 0. -1.
         21    1    1    2  502  501  0.63546283980E+02  0.70399740468E+02 -0.24389858603E+03  0.26168831448E+03  0.00000000000E+00 0. -1.
<mgrwt>
<rscale>  1 0.12486828E+03</rscale>
<asrwt>0</asrwt>
<pdfrwt beam="1">  1        2 0.46960263E-01 0.12486828E+03</pdfrwt>
<pdfrwt beam="2">  1       -1 0.12802484E-01 0.12486828E+03</pdfrwt>
<totfact> 0.48340986E+03</totfact>
</mgrwt>
</event>
<event>
 6    2  0.1655576E+001  0.8275510E+02  0.7546771E-02  0.1321410E+00
          4   -1    0    0  502    0  0.00000000000E+00  0.00000000000E+00  0.40372857572E+01  0.40372857572E+01  0.00000000000E+00 0. -1.
         -3   -1    0    0    0  501 -0.00000000000E+00 -0.00000000000E+00 -0.14395175957E+04  0.14395175957E+04  0.00000000000E+00 0.  1.
         24    2    1    2    0    0 -0.19658549725E+02 -0.79863443073E+01 -0.43226814178E+03  0.44011833906E+03  0.79988534830E+02 0.  0.
        -11    1    3    3    0    0 -0.71570164864E+01 -0.38017758755E+02 -0.11819087939E+03  0.12436099403E+03  0.00000000000E+00 0.  1.
         12    1    3    3    0    0 -0.12501533239E+02  0.30031414447E+02 -0.31407726239E+03  0.31575734503E+03  0.00000000000E+00 0. -1.
         21    1    1    2  502  501  0.19658549725E+02  0.79863443073E+01 -0.10032121682E+04  0.10034365424E+04  0.00000000000E+00 0. -1.
<mgrwt>
<rscale>  1 0.82755096E+02</rscale>
<asrwt>0</asrwt>
<pdfrwt beam="1">  1        4 0.62112017E-03 0.82755096E+02</pdfrwt>
<pdfrwt beam="2">  1       -3 0.22146450E+00 0.82755096E+02</pdfrwt>
<totfact> 0.12972352E+03</totfact>
</mgrwt>
</event>
<event>
 6    2  0.1655576E+001  0.8590927E+02  0.7546771E-02  0.1313072E+00
          2   -1    0    0  502    0  0.00000000000E+00  0.00000000000E+00  0.91551887827E+02  0.91551887827E+02  0.00000000000E+00 0. -1.
         -1   -1    0    0    0  501 -0.00000000000E+00 -0.00000000000E+00 -0.37454254404E+02  0.37454254404E+02  0.00000000000E+00 0.  1.
         24    2    1    2    0    0 -0.10707769820E+02  0.28148264627E+02  0.47534541662E+02  0.98183174992E+02  0.80457579285E+02 0.  0.
        -11    1    3    3    0    0 -0.36221292712E+01 -0.11856036680E+02 -0.17533427412E+02  0.21473390580E+02  0.00000000000E+00 0.  1.
         12    1    3    3    0    0 -0.70856405489E+01  0.40004301307E+02  0.65067969074E+02  0.76709784411E+02  0.00000000000E+00 0. -1.
         21    1    1    2  502  501  0.10707769820E+02 -0.28148264627E+02  0.65630917606E+01  0.30822967240E+02  0.00000000000E+00 0.  1.
<mgrwt>
<rscale>  1 0.85909273E+02</rscale>
<asrwt>0</asrwt>
<pdfrwt beam="1">  1        2 0.14084906E-01 0.85909273E+02</pdfrwt>
<pdfrwt beam="2">  1       -1 0.57621931E-02 0.85909273E+02</pdfrwt>
<totfact> 0.58009293E+04</totfact>
</mgrwt>
</event>
<event>
 6    2  0.1655576E+001  0.8638632E+02  0.7546771E-02  0.1311846E+00
         -1   -1    0    0    0  501 -0.00000000000E+00  0.00000000000E+00  0.32405419892E+01  0.32405419892E+01  0.00000000000E+00 0.  1.
          2   -1    0    0  502    0  0.00000000000E+00 -0.00000000000E+00 -0.10203040781E+04  0.10203040781E+04  0.00000000000E+00 0. -1.
         24    2    1    2    0    0  0.58089063213E+01  0.19408917216E+02 -0.93638061046E+03  0.94035697707E+03  0.83977063597E+02 0.  0.
        -13    1    3    3    0    0  0.32558139290E+02  0.60065226418E+00 -0.15958767940E+03  0.16287608981E+03  0.00000000000E+00 0.  1.
         14    1    3    3    0    0 -0.26749232969E+02  0.18808264952E+02 -0.77679293107E+03  0.77748088726E+03  0.00000000000E+00 0. -1.
         21    1    1    2  502  501 -0.58089063213E+01 -0.19408917216E+02 -0.80682925633E+02  0.83187643006E+02  0.00000000000E+00 0.  1.
<mgrwt>
<rscale>  1 0.86386322E+02</rscale>
<asrwt>0</asrwt>
<pdfrwt beam="1">  1        2 0.15697003E+00 0.86386322E+02</pdfrwt>
<pdfrwt beam="2">  1       -1 0.49854436E-03 0.86386322E+02</pdfrwt>
<totfact> 0.13008385E+05</totfact>
</mgrwt>
</event>
<event>
 6    2  0.1655576E+001  0.8365256E+02  0.7546771E-02  0.1318994E+00
          2   -1    0    0  502    0  0.00000000000E+00  0.00000000000E+00  0.84410164348E+03  0.84410164348E+03  0.00000000000E+00 0. -1.
         -1   -1    0    0    0  501 -0.00000000000E+00 -0.00000000000E+00 -0.69319936969E+01  0.69319936969E+01  0.00000000000E+00 0.  1.
         24    2    1    2    0    0  0.17486676276E+02 -0.16212512600E+02  0.81223721770E+03  0.81653355629E+03  0.80181801604E+02 0.  0.
        -11    1    3    3    0    0  0.13019889114E+02 -0.41781056821E+02  0.25772016082E+03  0.26140936386E+03  0.00000000000E+00 0.  1.
         12    1    3    3    0    0  0.44667871613E+01  0.25568544221E+02  0.55451705689E+03  0.55512419243E+03  0.00000000000E+00 0. -1.
         21    1    1    2  502  501 -0.17486676276E+02  0.16212512600E+02  0.24932432079E+02  0.34500080889E+02  0.00000000000E+00 0.  1.
<mgrwt>
<rscale>  1 0.83652560E+02</rscale>
<asrwt>0</asrwt>
<pdfrwt beam="1">  1        2 0.12986171E+00 0.83652560E+02</pdfrwt>
<pdfrwt beam="2">  1       -1 0.10664612E-02 0.83652560E+02</pdfrwt>
<totfact> 0.57042069E+04</totfact>
</mgrwt>
</event>
<event>
 6    2  0.1655576E+001  0.8656166E+02  0.7546771E-02  0.1311398E+00
          4   -1    0    0  502    0  0.00000000000E+00  0.00000000000E+00  0.90747859443E+01  0.90747859443E+01  0.00000000000E+00 0. -1.
         -3   -1    0    0    0  501 -0.00000000000E+00 -0.00000000000E+00 -0.66339464512E+03  0.66339464512E+03  0.00000000000E+00 0.  1.
         24    2    1    2    0    0  0.31199282604E+02  0.82668093958E+01 -0.61736612282E+03  0.62340504476E+03  0.80319268275E+02 0.  0.
        -11    1    3    3    0    0  0.53903651168E+02  0.18745239822E+02 -0.32510424103E+03  0.33007537800E+03  0.00000000000E+00 0.  1.
         12    1    3    3    0    0 -0.22704368564E+02 -0.10478430426E+02 -0.29226188178E+03  0.29332966675E+03  0.00000000000E+00 0. -1.
         21    1    1    2  502  501 -0.31199282604E+02 -0.82668093958E+01 -0.36953736357E+02  0.49064386303E+02  0.00000000000E+00 0. -1.
<mgrwt>
<rscale>  1 0.86561656E+02</rscale>
<asrwt>0</asrwt>
<pdfrwt beam="1">  1        4 0.13961209E-02 0.86561656E+02</pdfrwt>
<pdfrwt beam="2">  1       -3 0.10206071E+00 0.86561656E+02</pdfrwt>
<totfact> 0.26975006E+03</totfact>
</mgrwt>
</event>
<event>
 6    2  0.1655576E+001  0.8431905E+02  0.7546771E-02  0.1317223E+00
         -1   -1    0    0    0  501 -0.00000000000E+00  0.00000000000E+00  0.74737890697E+01  0.74737890697E+01  0.00000000000E+00 0.  1.
          2   -1    0    0  502    0  0.00000000000E+00 -0.00000000000E+00 -0.49147948339E+03  0.49147948339E+03  0.00000000000E+00 0. -1.
         24    2    1    2    0    0 -0.49960960415E+01  0.28623464973E+02 -0.42375181623E+03  0.43205937478E+03  0.79154518810E+02 0.  0.
        -11    1    3    3    0    0 -0.93948343264E+01  0.14305984285E+02 -0.14213950338E+02  0.22247707356E+02  0.00000000000E+00 0.  1.
         12    1    3    3    0    0  0.43987382849E+01  0.14317480689E+02 -0.40953786590E+03  0.40981166742E+03  0.00000000000E+00 0. -1.
         21    1    1    2  502  501  0.49960960415E+01 -0.28623464973E+02 -0.60253878082E+02  0.66893897679E+02  0.00000000000E+00 0.  1.
<mgrwt>
<rscale>  1 0.84319046E+02</rscale>
<asrwt>0</asrwt>
<pdfrwt beam="1">  1        2 0.75612254E-01 0.84319046E+02</pdfrwt>
<pdfrwt beam="2">  1       -1 0.11498133E-02 0.84319046E+02</pdfrwt>
<totfact> 0.95287164E+04</totfact>
</mgrwt>
</event>
<event>
 6    2  0.1655576E+001  0.9977742E+02  0.7546771E-02  0.1280765E+00
          2   -1    0    0  502    0  0.00000000000E+00  0.00000000000E+00  0.20879212110E+02  0.20879212110E+02  0.00000000000E+00 0. -1.
         -1   -1    0    0    0  501 -0.00000000000E+00 -0.00000000000E+00 -0.34460396793E+03  0.34460396793E+03  0.00000000000E+00 0.  1.
         24    2    1    2    0    0  0.59157797202E+02  0.97596135217E+01 -0.13780405005E+03  0.17013373966E+03  0.79753608896E+02 0.  0.
        -11    1    3    3    0    0  0.15177881709E+02 -0.31200607301E+02 -0.26567756236E+02  0.43700018999E+02  0.00000000000E+00 0.  1.
         12    1    3    3    0    0  0.43979915493E+02  0.40960220822E+02 -0.11123629382E+03  0.12643372066E+03  0.00000000000E+00 0. -1.
         21    1    1    2  502  501 -0.59157797202E+02 -0.97596135217E+01 -0.18592070577E+03  0.19534944039E+03  0.00000000000E+00 0.  1.
<mgrwt>
<rscale>  1 0.99777418E+02</rscale>
<asrwt>0</asrwt>
<pdfrwt beam="1">  1        2 0.32121866E-02 0.99777418E+02</pdfrwt>
<pdfrwt beam="2">  1       -1 0.53015993E-01 0.99777418E+02</pdfrwt>
<totfact> 0.10945336E+04</totfact>
</mgrwt>
</event>
<event>
 6    2  0.1655576E+001  0.9105374E+02  0.7546771E-02  0.1300320E+00
         -1   -1    0    0    0  501 -0.00000000000E+00  0.00000000000E+00  0.12482683948E+02  0.12482683948E+02  0.00000000000E+00 0.  1.
          2   -1    0    0  502    0  0.00000000000E+00 -0.00000000000E+00 -0.40461522726E+03  0.40461522726E+03  0.00000000000E+00 0. -1.
         24    2    1    2    0    0 -0.39347434362E+02 -0.89653438096E+01 -0.33497338656E+03  0.34712815216E+03  0.81622217194E+02 0.  0.
        -13    1    3    3    0    0 -0.39782307811E+02 -0.40692590068E+01 -0.59967691823E+02  0.72078533186E+02  0.00000000000E+00 0.  1.
         14    1    3    3    0    0  0.43487344968E+00 -0.48960848028E+01 -0.27500569474E+03  0.27504961898E+03  0.00000000000E+00 0. -1.
         21    1    1    2  502  501  0.39347434362E+02  0.89653438096E+01 -0.57159156756E+02  0.69969759050E+02  0.00000000000E+00 0.  1.
<mgrwt>
<rscale>  1 0.91053744E+02</rscale>
<asrwt>0</asrwt>
<pdfrwt beam="1">  1        2 0.62248486E-01 0.91053744E+02</pdfrwt>
<pdfrwt beam="2">  1       -1 0.19204132E-02 0.91053744E+02</pdfrwt>
<totfact> 0.57234419E+04</totfact>
</mgrwt>
</event>
<event>
 6    2  0.1655576E+001  0.9160002E+02  0.7546771E-02  0.1299023E+00
          2   -1    0    0  502    0  0.00000000000E+00  0.00000000000E+00  0.34718064535E+03  0.34718064535E+03  0.00000000000E+00 0. -1.
         -1   -1    0    0    0  501 -0.00000000000E+00 -0.00000000000E+00 -0.13069968903E+02  0.13069968903E+02  0.00000000000E+00 0.  1.
         24    2    1    2    0    0  0.68141988861E+01 -0.42501250126E+02  0.22144050137E+03  0.23963818570E+03  0.80856507661E+02 0.  0.
        -11    1    3    3    0    0  0.24781742344E+02 -0.15838719337E+02  0.19809946080E+02  0.35460312287E+02  0.00000000000E+00 0.  1.
         12    1    3    3    0    0 -0.17967543457E+02 -0.26662530789E+02  0.20163055529E+03  0.20417787341E+03  0.00000000000E+00 0. -1.
         21    1    1    2  502  501 -0.68141988861E+01  0.42501250126E+02  0.11267017507E+03  0.12061242855E+03  0.00000000000E+00 0.  1.
<mgrwt>
<rscale>  1 0.91600024E+02</rscale>
<asrwt>0</asrwt>
<pdfrwt beam="1">  1        2 0.53412400E-01 0.91600024E+02</pdfrwt>
<pdfrwt beam="2">  1       -1 0.20107647E-02 0.91600024E+02</pdfrwt>
<totfact> 0.62996458E+04</totfact>
</mgrwt>
</event>
<event>
 6    2  0.1655576E+001  0.7530579E+02  0.7546771E-02  0.1342927E+00
          2   -1    0    0  502    0  0.00000000000E+00  0.00000000000E+00  0.14180226294E+03  0.14180226294E+03  0.00000000000E+00 0. -1.
         -1   -1    0    0    0  501 -0.00000000000E+00 -0.00000000000E+00 -0.23356420709E+02  0.23356420709E+02  0.00000000000E+00 0.  1.
         24    2    1    2    0    0  0.16775020120E+02 -0.35966983064E+02  0.74140714343E+02  0.10567785037E+03  0.63999510655E+02 0.  0.
        -13    1    3    3    0    0  0.59501957721E+01 -0.40539783302E+02  0.12371907557E+02  0.42801202746E+02  0.00000000000E+00 0.  1.
         14    1    3    3    0    0  0.10824824348E+02  0.45728002385E+01  0.61768806786E+02  0.62876647620E+02  0.00000000000E+00 0. -1.
         21    1    1    2  502  501 -0.16775020120E+02  0.35966983064E+02  0.44305127884E+02  0.59480833279E+02  0.00000000000E+00 0. -1.
<mgrwt>
<rscale>  1 0.75305794E+02</rscale>
<asrwt>0</asrwt>
<pdfrwt beam="1">  1        2 0.21815732E-01 0.75305794E+02</pdfrwt>
<pdfrwt beam="2">  1       -1 0.35932956E-02 0.75305794E+02</pdfrwt>
<totfact> 0.68937661E+04</totfact>
</mgrwt>
</event>
<event>
 6    2  0.1655576E+001  0.8492880E+02  0.7546771E-02  0.1315619E+00
          2   -1    0    0  502    0  0.00000000000E+00  0.00000000000E+00  0.98255297414E+03  0.98255297414E+03  0.00000000000E+00 0. -1.
         -1   -1    0    0    0  501 -0.00000000000E+00 -0.00000000000E+00 -0.31142243820E+01  0.31142243820E+01  0.00000000000E+00 0.  1.
         24    2    1    2    0    0 -0.19880196016E+02  0.15950875384E+02  0.77825192942E+03  0.78287225456E+03  0.81013879635E+02 0.  0.
        -11    1    3    3    0    0 -0.51305020699E+02  0.55700418661E+01  0.44578538319E+03  0.44876256348E+03  0.00000000000E+00 0.  1.
         12    1    3    3    0    0  0.31424824683E+02  0.10380833518E+02  0.33246654623E+03  0.33410969108E+03  0.00000000000E+00 0. -1.
         21    1    1    2  502  501  0.19880196016E+02 -0.15950875384E+02  0.20118682033E+03  0.20279494396E+03  0.00000000000E+00 0. -1.
<mgrwt>
<rscale>  1 0.84928801E+02</rscale>
<asrwt>0</asrwt>
<pdfrwt beam="1">  1        2 0.15116175E+00 0.84928801E+02</pdfrwt>
<pdfrwt beam="2">  1       -1 0.47911223E-03 0.84928801E+02</pdfrwt>
<totfact> 0.14432697E+05</totfact>
</mgrwt>
</event>
<event>
 6    2  0.1655576E+001  0.8511620E+02  0.7546771E-02  0.1315129E+00
          2   -1    0    0  502    0  0.00000000000E+00  0.00000000000E+00  0.22855373729E+03  0.22855373729E+03  0.00000000000E+00 0. -1.
         -1   -1    0    0    0  501 -0.00000000000E+00 -0.00000000000E+00 -0.15062795884E+02  0.15062795884E+02  0.00000000000E+00 0.  1.
         24    2    1    2    0    0 -0.25888136859E+02 -0.12808358410E+02  0.18179629690E+03  0.20073529992E+03  0.80065706716E+02 0.  0.
        -11    1    3    3    0    0  0.16769627612E+02 -0.32708874959E+02  0.97313718019E+02  0.10402427902E+03  0.00000000000E+00 0.  1.
         12    1    3    3    0    0 -0.42657764471E+02  0.19900516549E+02  0.84482578880E+02  0.96711020897E+02  0.00000000000E+00 0. -1.
         21    1    1    2  502  501  0.25888136859E+02  0.12808358410E+02  0.31694644509E+02  0.42881233258E+02  0.00000000000E+00 0.  1.
<mgrwt>
<rscale>  1 0.85116197E+02</rscale>
<asrwt>0</asrwt>
<pdfrwt beam="1">  1        2 0.35162111E-01 0.85116197E+02</pdfrwt>
<pdfrwt beam="2">  1       -1 0.23173534E-02 0.85116197E+02</pdfrwt>
<totfact> 0.78855778E+04</totfact>
</mgrwt>
</event>
<event>
 6    2  0.1655576E+001  0.8451608E+02  0.7546771E-02  0.1316703E+00
          2   -1    0    0  502    0  0.00000000000E+00  0.00000000000E+00  0.80635405098E+01  0.80635405098E+01  0.00000000000E+00 0. -1.
         -1   -1    0    0    0  501 -0.00000000000E+00 -0.00000000000E+00 -0.34158532795E+03  0.34158532795E+03  0.00000000000E+00 0.  1.
         24    2    1    2    0    0 -0.20382194203E+02 -0.15222833909E+01 -0.26669371013E+03  0.27976508562E+03  0.82007419913E+02 0.  0.
        -13    1    3    3    0    0 -0.11132892256E+02 -0.98061391788E+01 -0.26693420187E+03  0.26734616096E+03  0.00000000000E+00 0.  1.
         14    1    3    3    0    0 -0.92493019471E+01  0.82838557879E+01  0.24049174013E+00  0.12418924652E+02  0.00000000000E+00 0. -1.
         21    1    1    2  502  501  0.20382194203E+02  0.15222833909E+01 -0.66828077310E+02  0.69883782841E+02  0.00000000000E+00 0.  1.
<mgrwt>
<rscale>  1 0.84516082E+02</rscale>
<asrwt>0</asrwt>
<pdfrwt beam="1">  1        2 0.12405448E-02 0.84516082E+02</pdfrwt>
<pdfrwt beam="2">  1       -1 0.52551586E-01 0.84516082E+02</pdfrwt>
<totfact> 0.39283461E+04</totfact>
</mgrwt>
</event>
<event>
 6    2  0.1655576E+001  0.7871889E+02  0.7546771E-02  0.1332727E+00
         -1   -1    0    0    0  501 -0.00000000000E+00  0.00000000000E+00  0.68607574656E+00  0.68607574656E+00  0.00000000000E+00 0.  1.
          2   -1    0    0  502    0  0.00000000000E+00 -0.00000000000E+00 -0.44659017460E+04  0.44659017460E+04  0.00000000000E+00 0. -1.
         24    2    1    2    0    0  0.30859652436E+02 -0.21049606350E+01 -0.29096193136E+04  0.29106839771E+04  0.72387259663E+02 0.  0.
        -13    1    3    3    0    0  0.36464480648E+02  0.77149318069E+01 -0.66985467303E+03  0.67089079701E+03  0.00000000000E+00 0.  1.
         14    1    3    3    0    0 -0.56048282117E+01 -0.98198924419E+01 -0.22397646406E+04  0.22397931801E+04  0.00000000000E+00 0. -1.
         21    1    1    2  502  501 -0.30859652436E+02  0.21049606350E+01 -0.15555963567E+04  0.15559038447E+04  0.00000000000E+00 0. -1.
<mgrwt>
<rscale>  1 0.78718895E+02</rscale>
<asrwt>0</asrwt>
<pdfrwt beam="1">  1        2 0.68706042E+00 0.78718895E+02</pdfrwt>
<pdfrwt beam="2">  1       -1 0.10555033E-03 0.78718895E+02</pdfrwt>
<totfact> 0.98908920E+03</totfact>
</mgrwt>
</event>
<event>
 6    2  0.1655576E+001  0.1100817E+03  0.7546771E-02  0.1260419E+00
         -1   -1    0    0    0  501 -0.00000000000E+00  0.00000000000E+00  0.52368652292E+01  0.52368652292E+01  0.00000000000E+00 0.  1.
          2   -1    0    0  502    0  0.00000000000E+00 -0.00000000000E+00 -0.19441897162E+04  0.19441897162E+04  0.00000000000E+00 0. -1.
         24    2    1    2    0    0  0.68687939274E+02 -0.31651767574E+02 -0.14976287232E+04  0.15016689984E+04  0.79988254507E+02 0.  0.
        -11    1    3    3    0    0  0.63486974634E+01  0.20643066295E+02 -0.14550098721E+03  0.14709513733E+03  0.00000000000E+00 0.  1.
         12    1    3    3    0    0  0.62339241811E+02 -0.52294833869E+02 -0.13521277360E+04  0.13545738611E+04  0.00000000000E+00 0. -1.
         21    1    1    2  502  501 -0.68687939274E+02  0.31651767574E+02 -0.44132412773E+03  0.44775758297E+03  0.00000000000E+00 0.  1.
<mgrwt>
<rscale>  1 0.11008173E+03</rscale>
<asrwt>0</asrwt>
<pdfrwt beam="1">  1        2 0.29910632E+00 0.11008173E+03</pdfrwt>
<pdfrwt beam="2">  1       -1 0.80567100E-03 0.11008173E+03</pdfrwt>
<totfact> 0.22291551E+04</totfact>
</mgrwt>
</event>
<event>
 6    2  0.1655576E+001  0.1049854E+03  0.7546771E-02  0.1270148E+00
         -1   -1    0    0    0  501 -0.00000000000E+00  0.00000000000E+00  0.78729783655E+03  0.78729783655E+03  0.00000000000E+00 0.  1.
          2   -1    0    0  502    0  0.00000000000E+00 -0.00000000000E+00 -0.10263211657E+02  0.10263211657E+02  0.00000000000E+00 0. -1.
         24    2    1    2    0    0  0.68429769296E+02  0.18975083529E+02  0.38048455023E+03  0.39470294808E+03  0.77325527092E+02 0.  0.
        -13    1    3    3    0    0  0.37707170534E+01  0.29808703877E+01  0.23100169034E+03  0.23105169300E+03  0.00000000000E+00 0.  1.
         14    1    3    3    0    0  0.64659052243E+02  0.15994213142E+02  0.14948285989E+03  0.16365125509E+03  0.00000000000E+00 0. -1.
         21    1    1    2  502  501 -0.68429769296E+02 -0.18975083529E+02  0.39655007467E+03  0.40285810013E+03  0.00000000000E+00 0.  1.
<mgrwt>
<rscale>  1 0.10498535E+03</rscale>
<asrwt>0</asrwt>
<pdfrwt beam="1">  1        2 0.15789563E-02 0.10498535E+03</pdfrwt>
<pdfrwt beam="2">  1       -1 0.12112270E+00 0.10498535E+03</pdfrwt>
<totfact> 0.52542296E+03</totfact>
</mgrwt>
</event>
<event>
 6    2  0.1655576E+001  0.8287919E+02  0.7546771E-02  0.1321074E+00
         -1   -1    0    0    0  501 -0.00000000000E+00  0.00000000000E+00  0.86153594725E+01  0.86153594725E+01  0.00000000000E+00 0.  1.
          2   -1    0    0  502    0  0.00000000000E+00 -0.00000000000E+00 -0.37473955831E+03  0.37473955831E+03  0.00000000000E+00 0. -1.
         24    2    1    2    0    0  0.23716591459E+02  0.88569292151E+01 -0.32188872261E+03  0.33238728823E+03  0.78917917646E+02 0.  0.
        -13    1    3    3    0    0  0.50807827376E+02  0.18062591450E+02 -0.22428654579E+03  0.23067758268E+03  0.00000000000E+00 0.  1.
         14    1    3    3    0    0 -0.27091235917E+02 -0.92056622352E+01 -0.97602176824E+02  0.10170970554E+03  0.00000000000E+00 0. -1.
         21    1    1    2  502  501 -0.23716591459E+02 -0.88569292151E+01 -0.44235476233E+02  0.50967629561E+02  0.00000000000E+00 0. -1.
<mgrwt>
<rscale>  1 0.82879187E+02</rscale>
<asrwt>0</asrwt>
<pdfrwt beam="1">  1        2 0.57652243E-01 0.82879187E+02</pdfrwt>
<pdfrwt beam="2">  1       -1 0.13254398E-02 0.82879187E+02</pdfrwt>
<totfact> 0.10358457E+05</totfact>
</mgrwt>
</event>
<event>
 6    2  0.1655576E+001  0.1410572E+03  0.7546771E-02  0.1211913E+00
         -1   -1    0    0    0  501 -0.00000000000E+00  0.00000000000E+00  0.11169364709E+03  0.11169364709E+03  0.00000000000E+00 0.  1.
          2   -1    0    0  502    0  0.00000000000E+00 -0.00000000000E+00 -0.24826375588E+03  0.24826375588E+03  0.00000000000E+00 0. -1.
         24    2    1    2    0    0 -0.37763839925E+02  0.10950291590E+03 -0.18648857552E+03  0.23382711510E+03  0.80499284200E+02 0.  0.
        -11    1    3    3    0    0 -0.35135987410E+02  0.61168198083E+02 -0.43519380862E+02  0.82885599344E+02  0.00000000000E+00 0.  1.
         12    1    3    3    0    0 -0.26278525154E+01  0.48334717817E+02 -0.14296919466E+03  0.15094151575E+03  0.00000000000E+00 0. -1.
         21    1    1    2  502  501  0.37763839925E+02 -0.10950291590E+03  0.49918466738E+02  0.12613028787E+03  0.00000000000E+00 0.  1.
<mgrwt>
<rscale>  1 0.14105719E+03</rscale>
<asrwt>0</asrwt>
<pdfrwt beam="1">  1        2 0.38194424E-01 0.14105719E+03</pdfrwt>
<pdfrwt beam="2">  1       -1 0.17183638E-01 0.14105719E+03</pdfrwt>
<totfact> 0.38208950E+03</totfact>
</mgrwt>
</event>
<event>
 6    2  0.1655576E+001  0.1261766E+03  0.7546771E-02  0.1233242E+00
         -1   -1    0    0    0  501 -0.00000000000E+00  0.00000000000E+00  0.19242163889E+03  0.19242163889E+03  0.00000000000E+00 0.  1.
          2   -1    0    0  502    0  0.00000000000E+00 -0.00000000000E+00 -0.72511672856E+02  0.72511672856E+02  0.00000000000E+00 0. -1.
         24    2    1    2    0    0 -0.65721348283E+02 -0.73519007852E+02  0.26140597779E+02  0.12885600078E+03  0.78715931996E+02 0.  0.
        -13    1    3    3    0    0 -0.53118524612E+02 -0.57579534922E+02  0.53435511645E+02  0.94827919958E+02  0.00000000000E+00 0.  1.
         14    1    3    3    0    0 -0.12602823671E+02 -0.15939472930E+02 -0.27294913865E+02  0.34028080826E+02  0.00000000000E+00 0. -1.
         21    1    1    2  502  501  0.65721348283E+02  0.73519007852E+02  0.93769368250E+02  0.13607731096E+03  0.00000000000E+00 0.  1.
<mgrwt>
<rscale>  1 0.12617661E+03</rscale>
<asrwt>0</asrwt>
<pdfrwt beam="1">  1        2 0.11155642E-01 0.12617661E+03</pdfrwt>
<pdfrwt beam="2">  1       -1 0.29603329E-01 0.12617661E+03</pdfrwt>
<totfact> 0.62985123E+03</totfact>
</mgrwt>
</event>
<event>
 6    2  0.1655576E+001  0.9771378E+02  0.7546771E-02  0.1285178E+00
         -1   -1    0    0    0  501 -0.00000000000E+00  0.00000000000E+00  0.59064485158E+01  0.59064485158E+01  0.00000000000E+00 0.  1.
          2   -1    0    0  502    0  0.00000000000E+00 -0.00000000000E+00 -0.11731379105E+04  0.11731379105E+04  0.00000000000E+00 0. -1.
         24    2    1    2    0    0 -0.33405975157E+02 -0.44328041358E+02 -0.94283318936E+03  0.94788311836E+03  0.80417962415E+02 0.  0.
        -13    1    3    3    0    0  0.12885321382E+02 -0.12013273186E+01 -0.27791828988E+02  0.30657143588E+02  0.00000000000E+00 0.  1.
         14    1    3    3    0    0 -0.46291296539E+02 -0.43126714039E+02 -0.91504136038E+03  0.91722597477E+03  0.00000000000E+00 0. -1.
         21    1    1    2  502  501  0.33405975157E+02  0.44328041358E+02 -0.22439827264E+03  0.23116124068E+03  0.00000000000E+00 0.  1.
<mgrwt>
<rscale>  1 0.97713782E+02</rscale>
<asrwt>0</asrwt>
<pdfrwt beam="1">  1        2 0.18048275E+00 0.97713782E+02</pdfrwt>
<pdfrwt beam="2">  1       -1 0.90868443E-03 0.97713782E+02</pdfrwt>
<totfact> 0.46611063E+04</totfact>
</mgrwt>
</event>
<event>
 6    2  0.1655576E+001  0.8508351E+02  0.7546771E-02  0.1315214E+00
          2   -1    0    0  502    0  0.00000000000E+00  0.00000000000E+00  0.59954452527E+03  0.59954452527E+03  0.00000000000E+00 0. -1.
         -1   -1    0    0    0  501 -0.00000000000E+00 -0.00000000000E+00 -0.53013374387E+01  0.53013374387E+01  0.00000000000E+00 0.  1.
         24    2    1    2    0    0  0.52983880267E+01 -0.21920362138E+02  0.52938650589E+03  0.53618026445E+03  0.82040405741E+02 0.  0.
        -11    1    3    3    0    0 -0.35498692220E+02 -0.20055841734E+01  0.15360152050E+03  0.15766295259E+03  0.00000000000E+00 0.  1.
         12    1    3    3    0    0  0.40797080246E+02 -0.19914777965E+02  0.37578498538E+03  0.37851731186E+03  0.00000000000E+00 0. -1.
         21    1    1    2  502  501 -0.52983880267E+01  0.21920362138E+02  0.64856681945E+02  0.68665598264E+02  0.00000000000E+00 0.  1.
<mgrwt>
<rscale>  1 0.85083508E+02</rscale>
<asrwt>0</asrwt>
<pdfrwt beam="1">  1        2 0.92237566E-01 0.85083508E+02</pdfrwt>
<pdfrwt beam="2">  1       -1 0.81559085E-03 0.85083508E+02</pdfrwt>
<totfact> 0.12449003E+05</totfact>
</mgrwt>
</event>
<event>
 6    2  0.1655576E+001  0.8926239E+02  0.7546771E-02  0.1304648E+00
          2   -1    0    0  502    0  0.00000000000E+00  0.00000000000E+00  0.25295304428E+04  0.25295304428E+04  0.00000000000E+00 0. -1.
         -1   -1    0    0    0  501 -0.00000000000E+00 -0.00000000000E+00 -0.19672296168E+01  0.19672296168E+01  0.00000000000E+00 0.  1.
         24    2    1    2    0    0  0.38222932454E+02  0.99940041893E+01  0.21545034653E+04  0.21563517699E+04  0.80043118833E+02 0.  0.
        -13    1    3    3    0    0  0.42633640401E+01 -0.20580561114E+02  0.16624824389E+03  0.16757152015E+03  0.00000000000E+00 0.  1.
         14    1    3    3    0    0  0.33959568413E+02  0.30574565303E+02  0.19882552214E+04  0.19887802497E+04  0.00000000000E+00 0. -1.
         21    1    1    2  502  501 -0.38222932454E+02 -0.99940041893E+01  0.37305974788E+03  0.37514590252E+03  0.00000000000E+00 0.  1.
<mgrwt>
<rscale>  1 0.89262386E+02</rscale>
<asrwt>0</asrwt>
<pdfrwt beam="1">  1        2 0.38915593E+00 0.89262386E+02</pdfrwt>
<pdfrwt beam="2">  1       -1 0.30265273E-03 0.89262386E+02</pdfrwt>
<totfact> 0.43436434E+04</totfact>
</mgrwt>
</event>
<event>
 6    2  0.1655576E+001  0.8333395E+02  0.7546771E-02  0.1319848E+00
         -1   -1    0    0    0  501 -0.00000000000E+00  0.00000000000E+00  0.14092654734E+01  0.14092654734E+01  0.00000000000E+00 0.  1.
          2   -1    0    0  502    0  0.00000000000E+00 -0.00000000000E+00 -0.22789723880E+04  0.22789723880E+04  0.00000000000E+00 0. -1.
         24    2    1    2    0    0 -0.20144142516E+02  0.25325029612E+01 -0.21015275089E+04  0.21031791216E+04  0.80822934150E+02 0.  0.
        -11    1    3    3    0    0 -0.41346760519E+02  0.27408986346E+02 -0.14237069728E+04  0.14245709359E+04  0.00000000000E+00 0.  1.
         12    1    3    3    0    0  0.21202618003E+02 -0.24876483384E+02 -0.67782053608E+03  0.67860818561E+03  0.00000000000E+00 0. -1.
         21    1    1    2  502  501  0.20144142516E+02 -0.25325029612E+01 -0.17603561362E+03  0.17720253190E+03  0.00000000000E+00 0.  1.
<mgrwt>
<rscale>  1 0.83333947E+02</rscale>
<asrwt>0</asrwt>
<pdfrwt beam="1">  1        2 0.35061017E+00 0.83333947E+02</pdfrwt>
<pdfrwt beam="2">  1       -1 0.21681067E-03 0.83333947E+02</pdfrwt>
<totfact> 0.92477384E+04</totfact>
</mgrwt>
</event>
<event>
 6    2  0.1655576E+001  0.9762295E+02  0.7546771E-02  0.1285375E+00
          2   -1    0    0  502    0  0.00000000000E+00  0.00000000000E+00  0.11404919664E+04  0.11404919664E+04  0.00000000000E+00 0. -1.
         -1   -1    0    0    0  501 -0.00000000000E+00 -0.00000000000E+00 -0.53695501189E+01  0.53695501189E+01  0.00000000000E+00 0.  1.
         24    2    1    2    0    0 -0.14933390078E+02  0.51350999820E+02  0.57884330192E+03  0.58701772404E+03  0.81671958674E+02 0.  0.
        -11    1    3    3    0    0 -0.34277050810E+02  0.50671089337E+02  0.24178786480E+03  0.24940699082E+03  0.00000000000E+00 0.  1.
         12    1    3    3    0    0  0.19343660732E+02  0.67991048294E+00  0.33705543712E+03  0.33761073322E+03  0.00000000000E+00 0. -1.
         21    1    1    2  502  501  0.14933390078E+02 -0.51350999820E+02  0.55627911438E+03  0.55884379250E+03  0.00000000000E+00 0. -1.
<mgrwt>
<rscale>  1 0.97622949E+02</rscale>
<asrwt>0</asrwt>
<pdfrwt beam="1">  1        2 0.17546011E+00 0.97622949E+02</pdfrwt>
<pdfrwt beam="2">  1       -1 0.82608554E-03 0.97622949E+02</pdfrwt>
<totfact> 0.55572942E+04</totfact>
</mgrwt>
</event>
<event>
 6    2  0.1655576E+001  0.1126818E+03  0.7546771E-02  0.1255683E+00
         -1   -1    0    0    0  501 -0.00000000000E+00  0.00000000000E+00  0.12036510008E+02  0.12036510008E+02  0.00000000000E+00 0.  1.
          2   -1    0    0  502    0  0.00000000000E+00 -0.00000000000E+00 -0.60402756424E+03  0.60402756424E+03  0.00000000000E+00 0. -1.
         24    2    1    2    0    0  0.23181765833E+02 -0.51452744699E+02 -0.43022908205E+03  0.44474065247E+03  0.97531562668E+02 0.  0.
        -13    1    3    3    0    0  0.12908574924E+02  0.25374771324E+02 -0.59048246709E+02  0.65553075944E+02  0.00000000000E+00 0.  1.
         14    1    3    3    0    0  0.10273190909E+02 -0.76827516022E+02 -0.37118083534E+03  0.37918757653E+03  0.00000000000E+00 0. -1.
         21    1    1    2  502  501 -0.23181765833E+02  0.51452744699E+02 -0.16176197218E+03  0.17132342178E+03  0.00000000000E+00 0.  1.
<mgrwt>
<rscale>  1 0.11268179E+03</rscale>
<asrwt>0</asrwt>
<pdfrwt beam="1">  1        2 0.92927317E-01 0.11268179E+03</pdfrwt>
<pdfrwt beam="2">  1       -1 0.18517708E-02 0.11268179E+03</pdfrwt>
<totfact> 0.40011189E+04</totfact>
</mgrwt>
</event>
<event>
 6    2  0.1655576E+001  0.9454973E+02  0.7546771E-02  0.1292193E+00
         -1   -1    0    0    0  501 -0.00000000000E+00  0.00000000000E+00  0.19532208419E+02  0.19532208419E+02  0.00000000000E+00 0.  1.
          2   -1    0    0  502    0  0.00000000000E+00 -0.00000000000E+00 -0.33080340646E+03  0.33080340646E+03  0.00000000000E+00 0. -1.
         24    2    1    2    0    0 -0.37196883928E+02  0.29727173950E+02 -0.11759257547E+03  0.15088957735E+03  0.81684378569E+02 0.  0.
        -11    1    3    3    0    0 -0.59130753805E+02  0.81297745224E+01 -0.55120031988E+02  0.81245044192E+02  0.00000000000E+00 0.  1.
         12    1    3    3    0    0  0.21933869877E+02  0.21597399428E+02 -0.62472543480E+02  0.69644533157E+02  0.00000000000E+00 0. -1.
         21    1    1    2  502  501  0.37196883928E+02 -0.29727173950E+02 -0.19367862257E+03  0.19944603753E+03  0.00000000000E+00 0. -1.
<mgrwt>
<rscale>  1 0.94549726E+02</rscale>
<asrwt>0</asrwt>
<pdfrwt beam="1">  1        2 0.50892829E-01 0.94549726E+02</pdfrwt>
<pdfrwt beam="2">  1       -1 0.30049553E-02 0.94549726E+02</pdfrwt>
<totfact> 0.37389794E+04</totfact>
</mgrwt>
</event>
<event>
 6    2  0.1655576E+001  0.9424804E+02  0.7546771E-02  0.1292879E+00
         -1   -1    0    0    0  501 -0.00000000000E+00  0.00000000000E+00  0.88961396731E+01  0.88961396731E+01  0.00000000000E+00 0.  1.
          2   -1    0    0  502    0  0.00000000000E+00 -0.00000000000E+00 -0.13977979517E+04  0.13977979517E+04  0.00000000000E+00 0. -1.
         24    2    1    2    0    0 -0.36930031143E+02 -0.33750496896E+02 -0.13092229143E+04  0.13126108836E+04  0.79873457586E+02 0.  0.
        -11    1    3    3    0    0  0.80381086600E+01  0.14650160409E+02 -0.86195163796E+02  0.87800026496E+02  0.00000000000E+00 0.  1.
         12    1    3    3    0    0 -0.44968139803E+02 -0.48400657305E+02 -0.12230277505E+04  0.12248108571E+04  0.00000000000E+00 0. -1.
         21    1    1    2  502  501  0.36930031143E+02  0.33750496896E+02 -0.79678897821E+02  0.94083207848E+02  0.00000000000E+00 0.  1.
<mgrwt>
<rscale>  1 0.94248037E+02</rscale>
<asrwt>0</asrwt>
<pdfrwt beam="1">  1        2 0.21504597E+00 0.94248037E+02</pdfrwt>
<pdfrwt beam="2">  1       -1 0.13686360E-02 0.94248037E+02</pdfrwt>
<totfact> 0.19757390E+04</totfact>
</mgrwt>
</event>
<event>
 6    2  0.1655576E+001  0.8389934E+02  0.7546771E-02  0.1318336E+00
         -1   -1    0    0    0  501 -0.00000000000E+00  0.00000000000E+00  0.17762543040E+01  0.17762543040E+01  0.00000000000E+00 0.  1.
          2   -1    0    0  502    0  0.00000000000E+00 -0.00000000000E+00 -0.24069509130E+04  0.24069509130E+04  0.00000000000E+00 0. -1.
         24    2    1    2    0    0  0.85134764237E+01 -0.19568904664E+02 -0.22933639085E+04  0.22948980622E+04  0.81139865314E+02 0.  0.
        -13    1    3    3    0    0 -0.16435666951E+02  0.26331442316E+02 -0.72466287843E+03  0.72532734912E+03  0.00000000000E+00 0.  1.
         14    1    3    3    0    0  0.24949143375E+02 -0.45900346980E+02 -0.15687010301E+04  0.15695707131E+04  0.00000000000E+00 0. -1.
         21    1    1    2  502  501 -0.85134764237E+01  0.19568904664E+02 -0.11181075018E+03  0.11382910510E+03  0.00000000000E+00 0.  1.
<mgrwt>
<rscale>  1 0.83899339E+02</rscale>
<asrwt>0</asrwt>
<pdfrwt beam="1">  1        2 0.37030000E+00 0.83899339E+02</pdfrwt>
<pdfrwt beam="2">  1       -1 0.27326999E-03 0.83899339E+02</pdfrwt>
<totfact> 0.57727233E+04</totfact>
</mgrwt>
</event>
<event>
 6    2  0.1655576E+001  0.1128362E+03  0.7546771E-02  0.1255406E+00
         -1   -1    0    0    0  501 -0.00000000000E+00  0.00000000000E+00  0.87040304164E+01  0.87040304164E+01  0.00000000000E+00 0.  1.
          2   -1    0    0  502    0  0.00000000000E+00 -0.00000000000E+00 -0.16622848019E+04  0.16622848019E+04  0.00000000000E+00 0. -1.
         24    2    1    2    0    0  0.63429573617E+02  0.48352910333E+02 -0.14137062082E+04  0.14182021222E+04  0.79816673038E+02 0.  0.
        -11    1    3    3    0    0  0.10320891071E+02  0.34289761877E+02 -0.19516145150E+03  0.19841950689E+03  0.00000000000E+00 0.  1.
         12    1    3    3    0    0  0.53108682546E+02  0.14063148457E+02 -0.12185447567E+04  0.12197826153E+04  0.00000000000E+00 0. -1.
         21    1    1    2  502  501 -0.63429573617E+02 -0.48352910333E+02 -0.23987456321E+03  0.25278671014E+03  0.00000000000E+00 0.  1.
<mgrwt>
<rscale>  1 0.11283624E+03</rscale>
<asrwt>0</asrwt>
<pdfrwt beam="1">  1        2 0.25573612E+00 0.11283624E+03</pdfrwt>
<pdfrwt beam="2">  1       -1 0.13390816E-02 0.11283624E+03</pdfrwt>
<totfact> 0.15080562E+04</totfact>
</mgrwt>
</event>
<event>
 6    2  0.1655576E+001  0.8333670E+02  0.7546771E-02  0.1319840E+00
         -3   -1    0    0    0  501 -0.00000000000E+00  0.00000000000E+00  0.43075288236E+02  0.43075288236E+02  0.00000000000E+00 0.  1.
          4   -1    0    0  502    0  0.00000000000E+00 -0.00000000000E+00 -0.71625339893E+02  0.71625339893E+02  0.00000000000E+00 0. -1.
         24    2    1    2    0    0 -0.40467404967E+01 -0.21376729094E+02 -0.37232463029E+02  0.91275749844E+02  0.80446662771E+02 0.  0.
        -11    1    3    3    0    0 -0.15922940368E+01 -0.33855359531E+02  0.15328624288E+02  0.37197950102E+02  0.00000000000E+00 0.  1.
         12    1    3    3    0    0 -0.24544464599E+01  0.12478630437E+02 -0.52561087317E+02  0.54077799742E+02  0.00000000000E+00 0. -1.
         21    1    1    2  502  501  0.40467404967E+01  0.21376729094E+02  0.86824113726E+01  0.23424878284E+02  0.00000000000E+00 0.  1.
<mgrwt>
<rscale>  1 0.83336704E+02</rscale>
<asrwt>0</asrwt>
<pdfrwt beam="1">  1        4 0.11019283E-01 0.83336704E+02</pdfrwt>
<pdfrwt beam="2">  1       -3 0.66269675E-02 0.83336704E+02</pdfrwt>
<totfact> 0.15608823E+04</totfact>
</mgrwt>
</event>
<event>
 6    2  0.1655576E+001  0.8364885E+02  0.7546771E-02  0.1319004E+00
         -1   -1    0    0    0  501 -0.00000000000E+00  0.00000000000E+00  0.11603140864E+03  0.11603140864E+03  0.00000000000E+00 0.  1.
          2   -1    0    0  502    0  0.00000000000E+00 -0.00000000000E+00 -0.27671068304E+02  0.27671068304E+02  0.00000000000E+00 0. -1.
         24    2    1    2    0    0  0.97106737519E+01 -0.23369410293E+02  0.49105421639E+02  0.96997282757E+02  0.79728940202E+02 0.  0.
        -13    1    3    3    0    0 -0.34086148323E+02 -0.50777085625E+00  0.17171138756E+02  0.38170294011E+02  0.00000000000E+00 0.  1.
         14    1    3    3    0    0  0.43796822075E+02 -0.22861639437E+02  0.31934282883E+02  0.58826988745E+02  0.00000000000E+00 0. -1.
         21    1    1    2  502  501 -0.97106737519E+01  0.23369410293E+02  0.39254918696E+02  0.46705194186E+02  0.00000000000E+00 0.  1.
<mgrwt>
<rscale>  1 0.83648852E+02</rscale>
<asrwt>0</asrwt>
<pdfrwt beam="1">  1        2 0.42570875E-02 0.83648852E+02</pdfrwt>
<pdfrwt beam="2">  1       -1 0.17850986E-01 0.83648852E+02</pdfrwt>
<totfact> 0.46000091E+04</totfact>
</mgrwt>
</event>
<event>
 6    2  0.1655576E+001  0.8836582E+02  0.7546771E-02  0.1306858E+00
          2   -1    0    0  502    0  0.00000000000E+00  0.00000000000E+00  0.20864326177E+03  0.20864326177E+03  0.00000000000E+00 0. -1.
         -1   -1    0    0    0  501 -0.00000000000E+00 -0.00000000000E+00 -0.24190854868E+02  0.24190854868E+02  0.00000000000E+00 0.  1.
         24    2    1    2    0    0  0.92935790038E+01 -0.43541957228E+02  0.15803932834E+03  0.18106614035E+03  0.76329844935E+02 0.  0.
        -11    1    3    3    0    0  0.90926604968E+01 -0.21680273842E+02  0.21018841614E+01  0.23603573157E+02  0.00000000000E+00 0.  1.
         12    1    3    3    0    0  0.20091850703E+00 -0.21861683386E+02  0.15593744418E+03  0.15746256719E+03  0.00000000000E+00 0. -1.
         21    1    1    2  502  501 -0.92935790038E+01  0.43541957228E+02  0.26413078558E+02  0.51767976287E+02  0.00000000000E+00 0.  1.
<mgrwt>
<rscale>  1 0.88365818E+02</rscale>
<asrwt>0</asrwt>
<pdfrwt beam="1">  1        2 0.32098962E-01 0.88365818E+02</pdfrwt>
<pdfrwt beam="2">  1       -1 0.37216701E-02 0.88365818E+02</pdfrwt>
<totfact> 0.44174681E+04</totfact>
</mgrwt>
</event>
<event>
 6    2  0.1655576E+001  0.8516196E+02  0.7546771E-02  0.1315010E+00
          4   -1    0    0  502    0  0.00000000000E+00  0.00000000000E+00  0.10237705193E+02  0.10237705193E+02  0.00000000000E+00 0. -1.
         -3   -1    0    0    0  501 -0.00000000000E+00 -0.00000000000E+00 -0.29149798025E+03  0.29149798025E+03  0.00000000000E+00 0.  1.
         24    2    1    2    0    0  0.19831336290E+02  0.50788222834E+01 -0.19008288098E+03  0.20828840873E+03  0.82664885131E+02 0.  0.
        -11    1    3    3    0    0 -0.16448604316E+02  0.30543185319E+02 -0.12366445231E+03  0.12843807659E+03  0.00000000000E+00 0.  1.
         12    1    3    3    0    0  0.36279940607E+02 -0.25464363036E+02 -0.66418428671E+02  0.79850332137E+02  0.00000000000E+00 0. -1.
         21    1    1    2  502  501 -0.19831336290E+02 -0.50788222834E+01 -0.91177394077E+02  0.93447276715E+02  0.00000000000E+00 0.  1.
<mgrwt>
<rscale>  1 0.85161961E+02</rscale>
<asrwt>0</asrwt>
<pdfrwt beam="1">  1        4 0.15750317E-02 0.85161961E+02</pdfrwt>
<pdfrwt beam="2">  1       -3 0.44845841E-01 0.85161961E+02</pdfrwt>
<totfact> 0.12455385E+04</totfact>
</mgrwt>
</event>
<event>
 6    2  0.1655576E+001  0.8857886E+02  0.7546771E-02  0.1306330E+00
         -1   -1    0    0    0  501 -0.00000000000E+00  0.00000000000E+00  0.22548305010E+02  0.22548305010E+02  0.00000000000E+00 0.  1.
          2   -1    0    0  502    0  0.00000000000E+00 -0.00000000000E+00 -0.17588194546E+03  0.17588194546E+03  0.00000000000E+00 0. -1.
         24    2    1    2    0    0  0.27526347574E+02  0.25271224419E+02 -0.10717217810E+03  0.13903988761E+03  0.80311144889E+02 0.  0.
        -13    1    3    3    0    0 -0.20427689260E+02  0.31788157793E+02 -0.31390707341E+02  0.49123863567E+02  0.00000000000E+00 0.  1.
         14    1    3    3    0    0  0.47954036833E+02 -0.65169333738E+01 -0.75781470763E+02  0.89916024046E+02  0.00000000000E+00 0. -1.
         21    1    1    2  502  501 -0.27526347574E+02 -0.25271224419E+02 -0.46161462342E+02  0.59390362854E+02  0.00000000000E+00 0.  1.
<mgrwt>
<rscale>  1 0.88578861E+02</rscale>
<asrwt>0</asrwt>
<pdfrwt beam="1">  1        2 0.27058761E-01 0.88578861E+02</pdfrwt>
<pdfrwt beam="2">  1       -1 0.34689700E-02 0.88578861E+02</pdfrwt>
<totfact> 0.58731048E+04</totfact>
</mgrwt>
</event>
<event>
 6    2  0.1655576E+001  0.1038721E+03  0.7546771E-02  0.1272358E+00
         -1   -1    0    0    0  501 -0.00000000000E+00  0.00000000000E+00  0.14439405123E+03  0.14439405123E+03  0.00000000000E+00 0.  1.
          2   -1    0    0  502    0  0.00000000000E+00 -0.00000000000E+00 -0.96248333726E+03  0.96248333726E+03  0.00000000000E+00 0. -1.
         24    2    1    2    0    0 -0.25430523183E+02  0.52386291022E+02 -0.95367520106E+03  0.95931528174E+03  0.86013869057E+02 0.  0.
        -13    1    3    3    0    0  0.12700284755E+02 -0.36943091441E+01 -0.26060035283E+02  0.29224486169E+02  0.00000000000E+00 0.  1.
         14    1    3    3    0    0 -0.38130807938E+02  0.56080600166E+02 -0.92761516578E+03  0.93009079557E+03  0.00000000000E+00 0. -1.
         21    1    1    2  502  501  0.25430523183E+02 -0.52386291022E+02  0.13558591502E+03  0.14756210675E+03  0.00000000000E+00 0.  1.
<mgrwt>
<rscale>  1 0.10387214E+03</rscale>
<asrwt>0</asrwt>
<pdfrwt beam="1">  1        2 0.14807436E+00 0.10387214E+03</pdfrwt>
<pdfrwt beam="2">  1       -1 0.22214469E-01 0.10387214E+03</pdfrwt>
<totfact> 0.54901116E+02</totfact>
</mgrwt>
</event>
<event>
 6    2  0.1655576E+001  0.9655549E+02  0.7546771E-02  0.1287711E+00
         -1   -1    0    0    0  501 -0.00000000000E+00  0.00000000000E+00  0.20172112731E+02  0.20172112731E+02  0.00000000000E+00 0.  1.
          2   -1    0    0  502    0  0.00000000000E+00 -0.00000000000E+00 -0.48380211713E+03  0.48380211713E+03  0.00000000000E+00 0. -1.
         24    2    1    2    0    0  0.32266308850E+02 -0.42718789982E+02 -0.43010163003E+03  0.44080650399E+03  0.80355162258E+02 0.  0.
        -13    1    3    3    0    0  0.11371426393E+02  0.20642081873E+02 -0.55288223936E+02  0.60101519018E+02  0.00000000000E+00 0.  1.
         14    1    3    3    0    0  0.20894882457E+02 -0.63360871855E+02 -0.37481340609E+03  0.38070498497E+03  0.00000000000E+00 0. -1.
         21    1    1    2  502  501 -0.32266308850E+02  0.42718789982E+02 -0.33528374379E+02  0.63167725880E+02  0.00000000000E+00 0.  1.
<mgrwt>
<rscale>  1 0.96555486E+02</rscale>
<asrwt>0</asrwt>
<pdfrwt beam="1">  1        2 0.74431094E-01 0.96555486E+02</pdfrwt>
<pdfrwt beam="2">  1       -1 0.31034020E-02 0.96555486E+02</pdfrwt>
<totfact> 0.23928004E+04</totfact>
</mgrwt>
</event>
<event>
 6    2  0.1655576E+001  0.8370781E+02  0.7546771E-02  0.1318847E+00
         -1   -1    0    0    0  501 -0.00000000000E+00  0.00000000000E+00  0.28152899536E+02  0.28152899536E+02  0.00000000000E+00 0.  1.
          2   -1    0    0  502    0  0.00000000000E+00 -0.00000000000E+00 -0.10297870624E+03  0.10297870624E+03  0.00000000000E+00 0. -1.
         24    2    1    2    0    0  0.21316196814E+02 -0.10942428149E+02 -0.59189910534E+02  0.10252045009E+03  0.80205237971E+02 0.  0.
        -13    1    3    3    0    0  0.17754817941E+02  0.30522743107E+01  0.17122235738E+02  0.24853991536E+02  0.00000000000E+00 0.  1.
         14    1    3    3    0    0  0.35613788728E+01 -0.13994702460E+02 -0.76312146271E+02  0.77666458558E+02  0.00000000000E+00 0. -1.
         21    1    1    2  502  501 -0.21316196814E+02  0.10942428149E+02 -0.15635896171E+02  0.28611155682E+02  0.00000000000E+00 0.  1.
<mgrwt>
<rscale>  1 0.83707808E+02</rscale>
<asrwt>0</asrwt>
<pdfrwt beam="1">  1        2 0.15842878E-01 0.83707808E+02</pdfrwt>
<pdfrwt beam="2">  1       -1 0.43312154E-02 0.83707808E+02</pdfrwt>
<totfact> 0.76548541E+04</totfact>
</mgrwt>
</event>
<event>
 6    2  0.1655576E+001  0.8428995E+02  0.7546771E-02  0.1317300E+00
          2   -1    0    0  502    0  0.00000000000E+00  0.00000000000E+00  0.81198386160E+02  0.81198386160E+02  0.00000000000E+00 0. -1.
         -1   -1    0    0    0  501 -0.00000000000E+00 -0.00000000000E+00 -0.17211224953E+03  0.17211224953E+03  0.00000000000E+00 0.  1.
         24    2    1    2    0    0 -0.24735604837E+02  0.16719561879E+01  0.58019301199E+02  0.10232807679E+03  0.80561469720E+02 0.  0.
        -11    1    3    3    0    0 -0.24681912287E+02  0.20801541151E+02 -0.82804961522E+01  0.33323678142E+02  0.00000000000E+00 0.  1.
         12    1    3    3    0    0 -0.53692550472E-01 -0.19129584963E+02  0.66299797351E+02  0.69004398646E+02  0.00000000000E+00 0. -1.
         21    1    1    2  502  501  0.24735604837E+02 -0.16719561879E+01 -0.14893316456E+03  0.15098255890E+03  0.00000000000E+00 0.  1.
<mgrwt>
<rscale>  1 0.84289952E+02</rscale>
<asrwt>0</asrwt>
<pdfrwt beam="1">  1        2 0.12492060E-01 0.84289952E+02</pdfrwt>
<pdfrwt beam="2">  1       -1 0.26478807E-01 0.84289952E+02</pdfrwt>
<totfact> 0.64178388E+03</totfact>
</mgrwt>
</event>
<event>
 6    2  0.1655576E+001  0.8386117E+02  0.7546771E-02  0.1318438E+00
         -1   -1    0    0    0  501 -0.00000000000E+00  0.00000000000E+00  0.20782513529E+01  0.20782513529E+01  0.00000000000E+00 0.  1.
          2   -1    0    0  502    0  0.00000000000E+00 -0.00000000000E+00 -0.15516313112E+04  0.15516313112E+04  0.00000000000E+00 0. -1.
         24    2    1    2    0    0  0.23512005823E+02  0.12905032686E+02 -0.13045895165E+04  0.13072821049E+04  0.79456535927E+02 0.  0.
        -13    1    3    3    0    0 -0.16935512476E+02  0.17352491822E+02 -0.95881114262E+03  0.95911768192E+03  0.00000000000E+00 0.  1.
         14    1    3    3    0    0  0.40447518299E+02 -0.44474591363E+01 -0.34577837385E+03  0.34816442302E+03  0.00000000000E+00 0. -1.
         21    1    1    2  502  501 -0.23512005823E+02 -0.12905032686E+02 -0.24496354337E+03  0.24642745762E+03  0.00000000000E+00 0.  1.
<mgrwt>
<rscale>  1 0.83861167E+02</rscale>
<asrwt>0</asrwt>
<pdfrwt beam="1">  1        2 0.23871249E+00 0.83861167E+02</pdfrwt>
<pdfrwt beam="2">  1       -1 0.31973101E-03 0.83861167E+02</pdfrwt>
<totfact> 0.12527027E+05</totfact>
</mgrwt>
</event>
<event>
 6    2  0.1655576E+001  0.8636717E+02  0.7546771E-02  0.1311895E+00
         -1   -1    0    0    0  501 -0.00000000000E+00  0.00000000000E+00  0.21640678205E+02  0.21640678205E+02  0.00000000000E+00 0.  1.
          2   -1    0    0  502    0  0.00000000000E+00 -0.00000000000E+00 -0.63979211948E+03  0.63979211948E+03  0.00000000000E+00 0. -1.
         24    2    1    2    0    0  0.99029080618E+01 -0.22270553717E+02 -0.62889440092E+03  0.63479717619E+03  0.82856757326E+02 0.  0.
        -11    1    3    3    0    0 -0.15858300019E+02  0.15796202894E+02 -0.59835987750E+02  0.63885453237E+02  0.00000000000E+00 0.  1.
         12    1    3    3    0    0  0.25761208080E+02 -0.38066756611E+02 -0.56905841317E+03  0.57091172295E+03  0.00000000000E+00 0. -1.
         21    1    1    2  502  501 -0.99029080618E+01  0.22270553717E+02  0.10742959641E+02  0.26635621502E+02  0.00000000000E+00 0.  1.
<mgrwt>
<rscale>  1 0.86367166E+02</rscale>
<asrwt>0</asrwt>
<pdfrwt beam="1">  1        2 0.98429546E-01 0.86367166E+02</pdfrwt>
<pdfrwt beam="2">  1       -1 0.33293355E-02 0.86367166E+02</pdfrwt>
<totfact> 0.15717689E+04</totfact>
</mgrwt>
</event>
<event>
 6    2  0.1655576E+001  0.1273995E+03  0.7546771E-02  0.1231366E+00
         -1   -1    0    0    0  501 -0.00000000000E+00  0.00000000000E+00  0.29222206955E+02  0.29222206955E+02  0.00000000000E+00 0.  1.
          2   -1    0    0  502    0  0.00000000000E+00 -0.00000000000E+00 -0.99703352358E+03  0.99703352358E+03  0.00000000000E+00 0. -1.
         24    2    1    2    0    0  0.87899457201E+02 -0.45362696178E+02 -0.89350088100E+03  0.90253778671E+03  0.80290368747E+02 0.  0.
        -11    1    3    3    0    0  0.21753713066E+02 -0.15579721497E+01 -0.41778816403E+02  0.47128768384E+02  0.00000000000E+00 0.  1.
         12    1    3    3    0    0  0.66145744135E+02 -0.43804724029E+02 -0.85172206460E+03  0.85540901833E+03  0.00000000000E+00 0. -1.
         21    1    1    2  502  501 -0.87899457201E+02  0.45362696178E+02 -0.74310435623E+02  0.12371794382E+03  0.00000000000E+00 0.  1.
<mgrwt>
<rscale>  1 0.12739950E+03</rscale>
<asrwt>0</asrwt>
<pdfrwt beam="1">  1        2 0.15338976E+00 0.12739950E+03</pdfrwt>
<pdfrwt beam="2">  1       -1 0.44957246E-02 0.12739950E+03</pdfrwt>
<totfact> 0.60147334E+03</totfact>
</mgrwt>
</event>
<event>
 6    2  0.1655576E+001  0.8507098E+02  0.7546771E-02  0.1315247E+00
         -1   -1    0    0    0  501 -0.00000000000E+00  0.00000000000E+00  0.16427208888E+01  0.16427208888E+01  0.00000000000E+00 0.  1.
          2   -1    0    0  502    0  0.00000000000E+00 -0.00000000000E+00 -0.18921312903E+04  0.18921312903E+04  0.00000000000E+00 0. -1.
         24    2    1    2    0    0 -0.23891470151E+02 -0.62383596316E+01 -0.15891774356E+04  0.15914527933E+04  0.81408548345E+02 0.  0.
        -11    1    3    3    0    0 -0.18785776107E+02 -0.35236072371E+02 -0.41744228181E+03  0.41934776120E+03  0.00000000000E+00 0.  1.
         12    1    3    3    0    0 -0.51056940435E+01  0.28997712740E+02 -0.11717351538E+04  0.11721050321E+04  0.00000000000E+00 0. -1.
         21    1    1    2  502  501  0.23891470151E+02  0.62383596316E+01 -0.30131113379E+03  0.30232121795E+03  0.00000000000E+00 0. -1.
<mgrwt>
<rscale>  1 0.85070978E+02</rscale>
<asrwt>0</asrwt>
<pdfrwt beam="1">  1        2 0.29109813E+00 0.85070978E+02</pdfrwt>
<pdfrwt beam="2">  1       -1 0.25272541E-03 0.85070978E+02</pdfrwt>
<totfact> 0.11738442E+05</totfact>
</mgrwt>
</event>
<event>
 6    2  0.1655576E+001  0.7868411E+02  0.7546771E-02  0.1332828E+00
          2   -1    0    0  502    0  0.00000000000E+00  0.00000000000E+00  0.16058879220E+03  0.16058879220E+03  0.00000000000E+00 0. -1.
         -1   -1    0    0    0  501 -0.00000000000E+00 -0.00000000000E+00 -0.32722672429E+02  0.32722672429E+02  0.00000000000E+00 0.  1.
         24    2    1    2    0    0  0.17801899781E+02 -0.18319072225E+02  0.14328975960E+03  0.16347214982E+03  0.74422392571E+02 0.  0.
        -11    1    3    3    0    0  0.61204345217E+01  0.27219510004E+02  0.79330024280E+02  0.84092890281E+02  0.00000000000E+00 0.  1.
         12    1    3    3    0    0  0.11681465259E+02 -0.45538582229E+02  0.63959735325E+02  0.79379259538E+02  0.00000000000E+00 0. -1.
         21    1    1    2  502  501 -0.17801899781E+02  0.18319072225E+02 -0.15423639829E+02  0.29839314814E+02  0.00000000000E+00 0.  1.
<mgrwt>
<rscale>  1 0.78684106E+02</rscale>
<asrwt>0</asrwt>
<pdfrwt beam="1">  1        2 0.24705968E-01 0.78684106E+02</pdfrwt>
<pdfrwt beam="2">  1       -1 0.50342574E-02 0.78684106E+02</pdfrwt>
<totfact> 0.37154679E+04</totfact>
</mgrwt>
</event>
<event>
 6    2  0.1655576E+001  0.8980109E+02  0.7546771E-02  0.1303334E+00
         -1   -1    0    0    0  501 -0.00000000000E+00  0.00000000000E+00  0.69308950067E+01  0.69308950067E+01  0.00000000000E+00 0.  1.
          2   -1    0    0  502    0  0.00000000000E+00 -0.00000000000E+00 -0.55098599349E+03  0.55098599349E+03  0.00000000000E+00 0. -1.
         24    2    1    2    0    0 -0.77006509315E+01  0.31848684890E+02 -0.42833697377E+03  0.43764917404E+03  0.83609794183E+02 0.  0.
        -13    1    3    3    0    0 -0.19364942944E+02 -0.11389760536E+02 -0.33841803325E+02  0.40620134325E+02  0.00000000000E+00 0.  1.
         14    1    3    3    0    0  0.11664292012E+02  0.43238445426E+02 -0.39449517045E+03  0.39702903972E+03  0.00000000000E+00 0. -1.
         21    1    1    2  502  501  0.77006509315E+01 -0.31848684890E+02 -0.11571812471E+03  0.12026771445E+03  0.00000000000E+00 0.  1.
<mgrwt>
<rscale>  1 0.89801094E+02</rscale>
<asrwt>0</asrwt>
<pdfrwt beam="1">  1        2 0.84767066E-01 0.89801094E+02</pdfrwt>
<pdfrwt beam="2">  1       -1 0.10662917E-02 0.89801094E+02</pdfrwt>
<totfact> 0.94468516E+04</totfact>
</mgrwt>
</event>
<event>
 6    2  0.1655576E+001  0.7148992E+02  0.7546771E-02  0.1355099E+00
         -1   -1    0    0    0  501 -0.00000000000E+00  0.00000000000E+00  0.26890651500E+02  0.26890651500E+02  0.00000000000E+00 0.  1.
          2   -1    0    0  502    0  0.00000000000E+00 -0.00000000000E+00 -0.27877455574E+03  0.27877455574E+03  0.00000000000E+00 0. -1.
         24    2    1    2    0    0  0.24411450295E+02 -0.38269687302E+00 -0.26736398049E+03  0.27675676344E+03  0.67191834949E+02 0.  0.
        -11    1    3    3    0    0  0.27118950329E+02 -0.22464580319E+02 -0.72213684959E+02  0.80342461570E+02  0.00000000000E+00 0.  1.
         12    1    3    3    0    0 -0.27075000343E+01  0.22081883446E+02 -0.19515029553E+03  0.19641430187E+03  0.00000000000E+00 0. -1.
         21    1    1    2  502  501 -0.24411450295E+02  0.38269687302E+00  0.15480076248E+02  0.28908443802E+02  0.00000000000E+00 0.  1.
<mgrwt>
<rscale>  1 0.71489916E+02</rscale>
<asrwt>0</asrwt>
<pdfrwt beam="1">  1        2 0.42888391E-01 0.71489916E+02</pdfrwt>
<pdfrwt beam="2">  1       -1 0.41370235E-02 0.71489916E+02</pdfrwt>
<totfact> 0.27236449E+04</totfact>
</mgrwt>
</event>
<event>
 6    2  0.1655576E+001  0.8144038E+02  0.7546771E-02  0.1325013E+00
          2   -1    0    0  502    0  0.00000000000E+00  0.00000000000E+00  0.60967835603E+02  0.60967835603E+02  0.00000000000E+00 0. -1.
         -1   -1    0    0    0  501 -0.00000000000E+00 -0.00000000000E+00 -0.43406280989E+02  0.43406280989E+02  0.00000000000E+00 0.  1.
         24    2    1    2    0    0  0.20316685463E+02  0.75569632379E-01  0.20141663562E+02  0.83894117052E+02  0.78865473091E+02 0.  0.
        -13    1    3    3    0    0  0.48887072340E+02  0.11338209367E+02  0.77563585631E+01  0.50780527093E+02  0.00000000000E+00 0.  1.
         14    1    3    3    0    0 -0.28570386877E+02 -0.11262639734E+02  0.12385304999E+02  0.33113589959E+02  0.00000000000E+00 0. -1.
         21    1    1    2  502  501 -0.20316685463E+02 -0.75569632379E-01 -0.25801089485E+01  0.20479999540E+02  0.00000000000E+00 0. -1.
<mgrwt>
<rscale>  1 0.81440385E+02</rscale>
<asrwt>0</asrwt>
<pdfrwt beam="1">  1        2 0.93796670E-02 0.81440385E+02</pdfrwt>
<pdfrwt beam="2">  1       -1 0.66778894E-02 0.81440385E+02</pdfrwt>
<totfact> 0.75137513E+04</totfact>
</mgrwt>
</event>
<event>
 6    2  0.1655576E+001  0.8448370E+02  0.7546771E-02  0.1316788E+00
          2   -1    0    0  502    0  0.00000000000E+00  0.00000000000E+00  0.50919189317E+02  0.50919189317E+02  0.00000000000E+00 0. -1.
         -1   -1    0    0    0  501 -0.00000000000E+00 -0.00000000000E+00 -0.14617895754E+03  0.14617895754E+03  0.00000000000E+00 0.  1.
         24    2    1    2    0    0  0.16426887671E+02  0.15290642233E+02  0.13931343197E+02  0.85624628963E+02  0.81448440030E+02 0.  0.
        -13    1    3    3    0    0  0.14539088612E+01 -0.20396823953E+02 -0.23934557306E+02  0.31480268610E+02  0.00000000000E+00 0.  1.
         14    1    3    3    0    0  0.14972978809E+02  0.35687466186E+02  0.37865900502E+02  0.54144360353E+02  0.00000000000E+00 0. -1.
         21    1    1    2  502  501 -0.16426887671E+02 -0.15290642233E+02 -0.10919111142E+03  0.11147351790E+03  0.00000000000E+00 0.  1.
<mgrwt>
<rscale>  1 0.84483695E+02</rscale>
<asrwt>0</asrwt>
<pdfrwt beam="1">  1        2 0.78337217E-02 0.84483695E+02</pdfrwt>
<pdfrwt beam="2">  1       -1 0.22489070E-01 0.84483695E+02</pdfrwt>
<totfact> 0.14704737E+04</totfact>
</mgrwt>
</event>
<event>
 6    2  0.1655576E+001  0.1072874E+03  0.7546771E-02  0.1265677E+00
          2   -1    0    0  502    0  0.00000000000E+00  0.00000000000E+00  0.38211203941E+03  0.38211203941E+03  0.00000000000E+00 0. -1.
         -1   -1    0    0    0  501 -0.00000000000E+00 -0.00000000000E+00 -0.25926423349E+02  0.25926423349E+02  0.00000000000E+00 0.  1.
         24    2    1    2    0    0  0.65071140345E+02 -0.25048255434E+02  0.29963296945E+03  0.31826168266E+03  0.81540872340E+02 0.  0.
        -13    1    3    3    0    0 -0.18482529338E+02 -0.84846664137E+01  0.83703084732E+02  0.86138260074E+02  0.00000000000E+00 0.  1.
         14    1    3    3    0    0  0.83553669683E+02 -0.16563589020E+02  0.21592988472E+03  0.23212342259E+03  0.00000000000E+00 0. -1.
         21    1    1    2  502  501 -0.65071140345E+02  0.25048255434E+02  0.56552646610E+02  0.89776780097E+02  0.00000000000E+00 0.  1.
<mgrwt>
<rscale>  1 0.10728738E+03</rscale>
<asrwt>0</asrwt>
<pdfrwt beam="1">  1        2 0.58786464E-01 0.10728738E+03</pdfrwt>
<pdfrwt beam="2">  1       -1 0.39886808E-02 0.10728738E+03</pdfrwt>
<totfact> 0.21600881E+04</totfact>
</mgrwt>
</event>
<event>
 6    2  0.1655576E+001  0.9625082E+02  0.7546771E-02  0.1288384E+00
         -1   -1    0    0    0  501 -0.00000000000E+00  0.00000000000E+00  0.10205915012E+02  0.10205915012E+02  0.00000000000E+00 0.  1.
          2   -1    0    0  502    0  0.00000000000E+00 -0.00000000000E+00 -0.19289202566E+04  0.19289202566E+04  0.00000000000E+00 0. -1.
         24    2    1    2    0    0 -0.32359098041E+02  0.34207948919E+02 -0.18658509366E+04  0.18683318598E+04  0.83945969270E+02 0.  0.
        -11    1    3    3    0    0 -0.23166447529E+02  0.28143297502E+01 -0.12418129909E+03  0.12635505446E+03  0.00000000000E+00 0.  1.
         12    1    3    3    0    0 -0.91926505116E+01  0.31393619169E+02 -0.17416696375E+04  0.17419768054E+04  0.00000000000E+00 0. -1.
         21    1    1    2  502  501  0.32359098041E+02 -0.34207948919E+02 -0.52863404931E+02  0.70794311750E+02  0.00000000000E+00 0.  1.
<mgrwt>
<rscale>  1 0.96250822E+02</rscale>
<asrwt>0</asrwt>
<pdfrwt beam="1">  1        2 0.29675687E+00 0.96250822E+02</pdfrwt>
<pdfrwt beam="2">  1       -1 0.15701412E-02 0.96250822E+02</pdfrwt>
<totfact> 0.87542556E+03</totfact>
</mgrwt>
</event>
<event>
 6    2  0.1655576E+001  0.8329155E+02  0.7546771E-02  0.1319962E+00
         -1   -1    0    0    0  501 -0.00000000000E+00  0.00000000000E+00  0.11436918048E+02  0.11436918048E+02  0.00000000000E+00 0.  1.
          2   -1    0    0  502    0  0.00000000000E+00 -0.00000000000E+00 -0.29025607666E+03  0.29025607666E+03  0.00000000000E+00 0. -1.
         24    2    1    2    0    0 -0.17922321039E+02 -0.12131055328E+02 -0.25999198796E+03  0.27300790364E+03  0.80430774907E+02 0.  0.
        -11    1    3    3    0    0  0.44877378068E+01 -0.30277249756E+02 -0.36374955454E+02  0.47539341894E+02  0.00000000000E+00 0.  1.
         12    1    3    3    0    0 -0.22410058846E+02  0.18146194427E+02 -0.22361703250E+03  0.22546856174E+03  0.00000000000E+00 0. -1.
         21    1    1    2  502  501  0.17922321039E+02  0.12131055328E+02 -0.18827170655E+02  0.28685091070E+02  0.00000000000E+00 0. -1.
<mgrwt>
<rscale>  1 0.83291546E+02</rscale>
<asrwt>0</asrwt>
<pdfrwt beam="1">  1        2 0.44654780E-01 0.83291546E+02</pdfrwt>
<pdfrwt beam="2">  1       -1 0.17595259E-02 0.83291546E+02</pdfrwt>
<totfact> 0.90588408E+04</totfact>
</mgrwt>
</event>
<event>
 6    2  0.1655576E+001  0.1127082E+03  0.7546771E-02  0.1255635E+00
         -1   -1    0    0    0  501 -0.00000000000E+00  0.00000000000E+00  0.14514284283E+02  0.14514284283E+02  0.00000000000E+00 0.  1.
          2   -1    0    0  502    0  0.00000000000E+00 -0.00000000000E+00 -0.64428477300E+03  0.64428477300E+03  0.00000000000E+00 0. -1.
         24    2    1    2    0    0 -0.23587833037E+02  0.74261580503E+02 -0.31598563745E+03  0.33548481217E+03  0.81436895314E+02 0.  0.
        -11    1    3    3    0    0 -0.32446047131E+02  0.44159332270E+02 -0.77341618796E+02  0.94786700538E+02  0.00000000000E+00 0.  1.
         12    1    3    3    0    0  0.88582140945E+01  0.30102248233E+02 -0.23864401865E+03  0.24069811163E+03  0.00000000000E+00 0. -1.
         21    1    1    2  502  501  0.23587833037E+02 -0.74261580503E+02 -0.31378485127E+03  0.32331424511E+03  0.00000000000E+00 0.  1.
<mgrwt>
<rscale>  1 0.11270819E+03</rscale>
<asrwt>0</asrwt>
<pdfrwt beam="1">  1        2 0.99120744E-01 0.11270819E+03</pdfrwt>
<pdfrwt beam="2">  1       -1 0.22329666E-02 0.11270819E+03</pdfrwt>
<totfact> 0.28412376E+04</totfact>
</mgrwt>
</event>
<event>
 6    2  0.1655576E+001  0.8481636E+02  0.7546771E-02  0.1315913E+00
         -1   -1    0    0    0  501 -0.00000000000E+00  0.00000000000E+00  0.78682722373E+01  0.78682722373E+01  0.00000000000E+00 0.  1.
          2   -1    0    0  502    0  0.00000000000E+00 -0.00000000000E+00 -0.52580730579E+03  0.52580730579E+03  0.00000000000E+00 0. -1.
         24    2    1    2    0    0  0.20422127977E+02  0.24747795169E+02 -0.45701500251E+03  0.46481881195E+03  0.78513048223E+02 0.  0.
        -11    1    3    3    0    0  0.37429495802E+02 -0.15197672600E+02 -0.18484479048E+03  0.18920764513E+03  0.00000000000E+00 0.  1.
         12    1    3    3    0    0 -0.17007367826E+02  0.39945467769E+02 -0.27217021203E+03  0.27561116681E+03  0.00000000000E+00 0. -1.
         21    1    1    2  502  501 -0.20422127977E+02 -0.24747795169E+02 -0.60924031036E+02  0.68856766077E+02  0.00000000000E+00 0.  1.
<mgrwt>
<rscale>  1 0.84816363E+02</rscale>
<asrwt>0</asrwt>
<pdfrwt beam="1">  1        2 0.80893412E-01 0.84816363E+02</pdfrwt>
<pdfrwt beam="2">  1       -1 0.12105037E-02 0.84816363E+02</pdfrwt>
<totfact> 0.82452194E+04</totfact>
</mgrwt>
</event>
<event>
 6    2  0.1655576E+001  0.8548318E+02  0.7546771E-02  0.1314174E+00
         -3   -1    0    0    0  501 -0.00000000000E+00  0.00000000000E+00  0.12420640284E+03  0.12420640284E+03  0.00000000000E+00 0.  1.
          4   -1    0    0  502    0  0.00000000000E+00 -0.00000000000E+00 -0.53043925054E+02  0.53043925054E+02  0.00000000000E+00 0. -1.
         24    2    1    2    0    0  0.11089571141E+02  0.23186507006E+02 -0.15482234054E+02  0.86873899633E+02  0.81527799988E+02 0.  0.
        -13    1    3    3    0    0 -0.88968397360E+01 -0.22925121377E+02  0.14308767350E+02  0.28450936197E+02  0.00000000000E+00 0.  1.
         14    1    3    3    0    0  0.19986410877E+02  0.46111628383E+02 -0.29791001404E+02  0.58422963435E+02  0.00000000000E+00 0. -1.
         21    1    1    2  502  501 -0.11089571141E+02 -0.23186507006E+02  0.86644711836E+02  0.90376428257E+02  0.00000000000E+00 0. -1.
<mgrwt>
<rscale>  1 0.85483185E+02</rscale>
<asrwt>0</asrwt>
<pdfrwt beam="1">  1        4 0.81606039E-02 0.85483185E+02</pdfrwt>
<pdfrwt beam="2">  1       -3 0.19108677E-01 0.85483185E+02</pdfrwt>
<totfact> 0.44949101E+03</totfact>
</mgrwt>
</event>
<event>
 6    2  0.1655576E+001  0.1109971E+03  0.7546771E-02  0.1258734E+00
         -1   -1    0    0    0  501 -0.00000000000E+00  0.00000000000E+00  0.21793596352E+02  0.21793596352E+02  0.00000000000E+00 0.  1.
          2   -1    0    0  502    0  0.00000000000E+00 -0.00000000000E+00 -0.40419774527E+03  0.40419774527E+03  0.00000000000E+00 0. -1.
         24    2    1    2    0    0 -0.47620527271E+01  0.74648347192E+02 -0.19792231498E+03  0.22692200712E+03  0.82007936598E+02 0.  0.
        -11    1    3    3    0    0  0.21683262388E+02  0.53336396814E+02 -0.17902334049E+03  0.18805395910E+03  0.00000000000E+00 0.  1.
         12    1    3    3    0    0 -0.26445315115E+02  0.21311950379E+02 -0.18898974492E+02  0.38868048026E+02  0.00000000000E+00 0. -1.
         21    1    1    2  502  501  0.47620527271E+01 -0.74648347192E+02 -0.18448183394E+03  0.19906933450E+03  0.00000000000E+00 0. -1.
<mgrwt>
<rscale>  1 0.11099709E+03</rscale>
<asrwt>0</asrwt>
<pdfrwt beam="1">  1        2 0.62184264E-01 0.11099709E+03</pdfrwt>
<pdfrwt beam="2">  1       -1 0.33528612E-02 0.11099709E+03</pdfrwt>
<totfact> 0.26296347E+04</totfact>
</mgrwt>
</event>
<event>
 6    2  0.1655576E+001  0.9275646E+02  0.7546771E-02  0.1296311E+00
         -1   -1    0    0    0  501 -0.00000000000E+00  0.00000000000E+00  0.26261808067E+02  0.26261808067E+02  0.00000000000E+00 0.  1.
          2   -1    0    0  502    0  0.00000000000E+00 -0.00000000000E+00 -0.43730292734E+03  0.43730292734E+03  0.00000000000E+00 0. -1.
         24    2    1    2    0    0  0.36366862841E+02  0.24491475244E+02 -0.40930690857E+03  0.41968548565E+03  0.81739711214E+02 0.  0.
        -13    1    3    3    0    0 -0.17845653546E+02 -0.16835838291E+02 -0.11475725339E+03  0.11735050067E+03  0.00000000000E+00 0.  1.
         14    1    3    3    0    0  0.54212516387E+02  0.41327313536E+02 -0.29454965518E+03  0.30233498498E+03  0.00000000000E+00 0. -1.
         21    1    1    2  502  501 -0.36366862841E+02 -0.24491475244E+02 -0.17342107033E+01  0.43879249758E+02  0.00000000000E+00 0.  1.
<mgrwt>
<rscale>  1 0.92756463E+02</rscale>
<asrwt>0</asrwt>
<pdfrwt beam="1">  1        2 0.67277367E-01 0.92756463E+02</pdfrwt>
<pdfrwt beam="2">  1       -1 0.40402786E-02 0.92756463E+02</pdfrwt>
<totfact> 0.18120657E+04</totfact>
</mgrwt>
</event>
<event>
 6    2  0.1655576E+001  0.8587065E+02  0.7546771E-02  0.1313171E+00
         -1   -1    0    0    0  501 -0.00000000000E+00  0.00000000000E+00  0.47006051642E+02  0.47006051642E+02  0.00000000000E+00 0.  1.
          2   -1    0    0  502    0  0.00000000000E+00 -0.00000000000E+00 -0.11796145814E+03  0.11796145814E+03  0.00000000000E+00 0. -1.
         24    2    1    2    0    0 -0.28959001393E+02  0.69703423811E+01 -0.93992661143E+02  0.12731217104E+03  0.80539177491E+02 0.  0.
        -11    1    3    3    0    0  0.19167674394E+02 -0.53356702250E+01  0.12054663156E+01  0.19932944274E+02  0.00000000000E+00 0.  1.
         12    1    3    3    0    0 -0.48126675787E+02  0.12306012606E+02 -0.95198127459E+02  0.10737922676E+03  0.00000000000E+00 0. -1.
         21    1    1    2  502  501  0.28959001393E+02 -0.69703423811E+01  0.23037254643E+02  0.37655338746E+02  0.00000000000E+00 0.  1.
<mgrwt>
<rscale>  1 0.85870650E+02</rscale>
<asrwt>0</asrwt>
<pdfrwt beam="1">  1        2 0.18147917E-01 0.85870650E+02</pdfrwt>
<pdfrwt beam="2">  1       -1 0.72317003E-02 0.85870650E+02</pdfrwt>
<totfact> 0.31031381E+04</totfact>
</mgrwt>
</event>
<event>
 6    2  0.1655576E+001  0.1572381E+03  0.7546771E-02  0.1191851E+00
         -1   -1    0    0    0  501 -0.00000000000E+00  0.00000000000E+00  0.14816890102E+03  0.14816890102E+03  0.00000000000E+00 0.  1.
          2   -1    0    0  502    0  0.00000000000E+00 -0.00000000000E+00 -0.13865750121E+04  0.13865750121E+04  0.00000000000E+00 0. -1.
         24    2    1    2    0    0  0.12910710307E+03 -0.32336910644E+02 -0.13511783100E+04  0.13602965322E+04  0.83722819183E+02 0.  0.
        -11    1    3    3    0    0  0.23334513702E+02  0.78062901470E+01 -0.71271743776E+02  0.75399596527E+02  0.00000000000E+00 0.  1.
         12    1    3    3    0    0  0.10577258937E+03 -0.40143200791E+02 -0.12799065662E+04  0.12848969357E+04  0.00000000000E+00 0. -1.
         21    1    1    2  502  501 -0.12910710307E+03  0.32336910644E+02  0.11277219888E+03  0.17444738088E+03  0.00000000000E+00 0.  1.
<mgrwt>
<rscale>  1 0.15723813E+03</rscale>
<asrwt>0</asrwt>
<pdfrwt beam="1">  1        2 0.21331923E+00 0.15723813E+03</pdfrwt>
<pdfrwt beam="2">  1       -1 0.22795216E-01 0.15723813E+03</pdfrwt>
<totfact> 0.30069132E+02</totfact>
</mgrwt>
</event>
<event>
 6    2  0.1655576E+001  0.8392927E+02  0.7546771E-02  0.1318257E+00
         -1   -1    0    0    0  501 -0.00000000000E+00  0.00000000000E+00  0.17822767192E+02  0.17822767192E+02  0.00000000000E+00 0.  1.
          2   -1    0    0  502    0  0.00000000000E+00 -0.00000000000E+00 -0.17234234754E+03  0.17234234754E+03  0.00000000000E+00 0. -1.
         24    2    1    2    0    0  0.18493659918E+02  0.15268948918E+02 -0.13621331500E+03  0.15999434064E+03  0.80429879998E+02 0.  0.
        -13    1    3    3    0    0 -0.21652293095E+02 -0.44577535844E+01 -0.68923848418E+01  0.23155956731E+02  0.00000000000E+00 0.  1.
         14    1    3    3    0    0  0.40145953014E+02  0.19726702502E+02 -0.12932093016E+03  0.13683838391E+03  0.00000000000E+00 0. -1.
         21    1    1    2  502  501 -0.18493659918E+02 -0.15268948918E+02 -0.18306265352E+02  0.30170774093E+02  0.00000000000E+00 0. -1.
<mgrwt>
<rscale>  1 0.83929267E+02</rscale>
<asrwt>0</asrwt>
<pdfrwt beam="1">  1        2 0.26514206E-01 0.83929267E+02</pdfrwt>
<pdfrwt beam="2">  1       -1 0.27419643E-02 0.83929267E+02</pdfrwt>
<totfact> 0.83558222E+04</totfact>
</mgrwt>
</event>
<event>
 6    2  0.1655576E+001  0.8663381E+02  0.7546771E-02  0.1311214E+00
         -1   -1    0    0    0  501 -0.00000000000E+00  0.00000000000E+00  0.35598209856E+01  0.35598209856E+01  0.00000000000E+00 0.  1.
          2   -1    0    0  502    0  0.00000000000E+00 -0.00000000000E+00 -0.97114484209E+03  0.97114484209E+03  0.00000000000E+00 0. -1.
         24    2    1    2    0    0 -0.28223889279E+02  0.64996811038E+01 -0.63906988803E+03  0.64491529630E+03  0.81649150838E+02 0.  0.
        -13    1    3    3    0    0 -0.36608779427E+02 -0.28504450148E+02 -0.25707882757E+03  0.26123213814E+03  0.00000000000E+00 0.  1.
         14    1    3    3    0    0  0.83848901485E+01  0.35004131252E+02 -0.38199106046E+03  0.38368315816E+03  0.00000000000E+00 0. -1.
         21    1    1    2  502  501  0.28223889279E+02 -0.64996811038E+01 -0.32851513308E+03  0.32978936678E+03  0.00000000000E+00 0. -1.
<mgrwt>
<rscale>  1 0.86633813E+02</rscale>
<asrwt>0</asrwt>
<pdfrwt beam="1">  1        2 0.14940688E+00 0.86633813E+02</pdfrwt>
<pdfrwt beam="2">  1       -1 0.54766485E-03 0.86633813E+02</pdfrwt>
<totfact> 0.12194726E+05</totfact>
</mgrwt>
</event>
<event>
 6    2  0.1655576E+001  0.8853716E+02  0.7546771E-02  0.1306433E+00
         -1   -1    0    0    0  501 -0.00000000000E+00  0.00000000000E+00  0.54770934631E+02  0.54770934631E+02  0.00000000000E+00 0.  1.
          2   -1    0    0  502    0  0.00000000000E+00 -0.00000000000E+00 -0.28477555284E+03  0.28477555284E+03  0.00000000000E+00 0. -1.
         24    2    1    2    0    0 -0.17551618107E+02 -0.26726388972E+02 -0.27241034359E+03  0.28643712190E+03  0.82561918226E+02 0.  0.
        -13    1    3    3    0    0  0.21193115501E+01 -0.51584185795E+02 -0.11789623522E+03  0.12870486387E+03  0.00000000000E+00 0.  1.
         14    1    3    3    0    0 -0.19670929657E+02  0.24857796823E+02 -0.15451410837E+03  0.15773225803E+03  0.00000000000E+00 0. -1.
         21    1    1    2  502  501  0.17551618107E+02  0.26726388972E+02  0.42405725385E+02  0.53109365569E+02  0.00000000000E+00 0.  1.
<mgrwt>
<rscale>  1 0.88537165E+02</rscale>
<asrwt>0</asrwt>
<pdfrwt beam="1">  1        2 0.43811624E-01 0.88537165E+02</pdfrwt>
<pdfrwt beam="2">  1       -1 0.84262976E-02 0.88537165E+02</pdfrwt>
<totfact> 0.95861724E+03</totfact>
</mgrwt>
</event>
<event>
 6    2  0.1655576E+001  0.8231894E+02  0.7546771E-02  0.1322597E+00
          2   -1    0    0  502    0  0.00000000000E+00  0.00000000000E+00  0.46217996631E+02  0.46217996631E+02  0.00000000000E+00 0. -1.
         -1   -1    0    0    0  501 -0.00000000000E+00 -0.00000000000E+00 -0.66850901987E+02  0.66850901987E+02  0.00000000000E+00 0.  1.
         24    2    1    2    0    0 -0.20343558445E+02 -0.19496555410E+01  0.23001223607E+01  0.82351065244E+02  0.79741744757E+02 0.  0.
        -13    1    3    3    0    0  0.15305724040E+02  0.12219248933E+02 -0.27509289152E+02  0.33768864692E+02  0.00000000000E+00 0.  1.
         14    1    3    3    0    0 -0.35649282485E+02 -0.14168904474E+02  0.29809411513E+02  0.48582200552E+02  0.00000000000E+00 0. -1.
         21    1    1    2  502  501  0.20343558445E+02  0.19496555410E+01 -0.22933027717E+02  0.30717833374E+02  0.00000000000E+00 0.  1.
<mgrwt>
<rscale>  1 0.82318937E+02</rscale>
<asrwt>0</asrwt>
<pdfrwt beam="1">  1        2 0.71104610E-02 0.82318937E+02</pdfrwt>
<pdfrwt beam="2">  1       -1 0.10284754E-01 0.82318937E+02</pdfrwt>
<totfact> 0.55624586E+04</totfact>
</mgrwt>
</event>
<event>
 6    2  0.1655576E+001  0.8530875E+02  0.7546771E-02  0.1314627E+00
          2   -1    0    0  502    0  0.00000000000E+00  0.00000000000E+00  0.15243501504E+03  0.15243501504E+03  0.00000000000E+00 0. -1.
         -1   -1    0    0    0  501 -0.00000000000E+00 -0.00000000000E+00 -0.25650766692E+02  0.25650766692E+02  0.00000000000E+00 0.  1.
         24    2    1    2    0    0  0.44723329412E+01  0.27840584660E+02  0.12292314721E+03  0.14962514193E+03  0.80513868742E+02 0.  0.
        -11    1    3    3    0    0  0.50767412687E+01 -0.28449772655E+02  0.38058849261E+02  0.47787434260E+02  0.00000000000E+00 0.  1.
         12    1    3    3    0    0 -0.60440832747E+00  0.56290357315E+02  0.84864297950E+02  0.10183770767E+03  0.00000000000E+00 0. -1.
         21    1    1    2  502  501 -0.44723329412E+01 -0.27840584660E+02  0.38611011339E+01  0.28460639805E+02  0.00000000000E+00 0.  1.
<mgrwt>
<rscale>  1 0.85308751E+02</rscale>
<asrwt>0</asrwt>
<pdfrwt beam="1">  1        2 0.23451540E-01 0.85308751E+02</pdfrwt>
<pdfrwt beam="2">  1       -1 0.39462719E-02 0.85308751E+02</pdfrwt>
<totfact> 0.56636980E+04</totfact>
</mgrwt>
</event>
<event>
 6    2  0.1655576E+001  0.8699347E+02  0.7546771E-02  0.1310300E+00
          2   -1    0    0  502    0  0.00000000000E+00  0.00000000000E+00  0.25485089571E+03  0.25485089571E+03  0.00000000000E+00 0. -1.
         -1   -1    0    0    0  501 -0.00000000000E+00 -0.00000000000E+00 -0.27061594683E+02  0.27061594683E+02  0.00000000000E+00 0.  1.
         24    2    1    2    0    0 -0.28351213306E+02  0.15017913435E+02  0.23363117994E+03  0.24930180857E+03  0.80861205126E+02 0.  0.
        -13    1    3    3    0    0  0.19827434424E+02  0.23191672448E+02  0.44473992512E+02  0.53934375279E+02  0.00000000000E+00 0.  1.
         14    1    3    3    0    0 -0.48178647731E+02 -0.81737590131E+01  0.18915718743E+03  0.19536743329E+03  0.00000000000E+00 0. -1.
         21    1    1    2  502  501  0.28351213306E+02 -0.15017913435E+02 -0.58418789146E+01  0.32610681826E+02  0.00000000000E+00 0.  1.
<mgrwt>
<rscale>  1 0.86993468E+02</rscale>
<asrwt>0</asrwt>
<pdfrwt beam="1">  1        2 0.39207828E-01 0.86993468E+02</pdfrwt>
<pdfrwt beam="2">  1       -1 0.41633224E-02 0.86993468E+02</pdfrwt>
<totfact> 0.30340362E+04</totfact>
</mgrwt>
</event>
<event>
 6    2  0.1655576E+001  0.8232954E+02  0.7546771E-02  0.1322568E+00
         -1   -1    0    0    0  501 -0.00000000000E+00  0.00000000000E+00  0.13566787223E+03  0.13566787223E+03  0.00000000000E+00 0.  1.
          2   -1    0    0  502    0  0.00000000000E+00 -0.00000000000E+00 -0.19630507890E+02  0.19630507890E+02  0.00000000000E+00 0. -1.
         24    2    1    2    0    0 -0.20408001179E+02 -0.11042653130E+01  0.86891620118E+02  0.11970090380E+03  0.79752409431E+02 0.  0.
        -11    1    3    3    0    0  0.71656780006E+01  0.32305211639E+02  0.60549913550E+02  0.69001925126E+02  0.00000000000E+00 0.  1.
         12    1    3    3    0    0 -0.27573679180E+02 -0.33409476952E+02  0.26341706568E+02  0.50698978675E+02  0.00000000000E+00 0. -1.
         21    1    1    2  502  501  0.20408001179E+02  0.11042653130E+01  0.29145744224E+02  0.35597476321E+02  0.00000000000E+00 0. -1.
<mgrwt>
<rscale>  1 0.82329537E+02</rscale>
<asrwt>0</asrwt>
<pdfrwt beam="1">  1        2 0.30200782E-02 0.82329537E+02</pdfrwt>
<pdfrwt beam="2">  1       -1 0.20871980E-01 0.82329537E+02</pdfrwt>
<totfact> 0.56251346E+04</totfact>
</mgrwt>
</event>
<event>
 6    2  0.1655576E+001  0.8303397E+02  0.7546771E-02  0.1320655E+00
         -1   -1    0    0    0  501 -0.00000000000E+00  0.00000000000E+00  0.33479911259E+02  0.33479911259E+02  0.00000000000E+00 0.  1.
          2   -1    0    0  502    0  0.00000000000E+00 -0.00000000000E+00 -0.87372364217E+02  0.87372364217E+02  0.00000000000E+00 0. -1.
         24    2    1    2    0    0  0.10722168469E+02  0.18325198317E+02 -0.28581017693E+02  0.87815227406E+02  0.80273668173E+02 0.  0.
        -11    1    3    3    0    0  0.44340782115E+02  0.21427879034E+02 -0.15884459241E+02  0.51745289678E+02  0.00000000000E+00 0.  1.
         12    1    3    3    0    0 -0.33618613647E+02 -0.31026807173E+01 -0.12696558451E+02  0.36069937727E+02  0.00000000000E+00 0. -1.
         21    1    1    2  502  501 -0.10722168469E+02 -0.18325198317E+02 -0.25311435265E+02  0.33037048071E+02  0.00000000000E+00 0.  1.
<mgrwt>
<rscale>  1 0.83033966E+02</rscale>
<asrwt>0</asrwt>
<pdfrwt beam="1">  1        2 0.13441902E-01 0.83033966E+02</pdfrwt>
<pdfrwt beam="2">  1       -1 0.51507556E-02 0.83033966E+02</pdfrwt>
<totfact> 0.71835290E+04</totfact>
</mgrwt>
</event>
<event>
 6    2  0.1655576E+001  0.8174754E+02  0.7546771E-02  0.1324164E+00
          2   -1    0    0  502    0  0.00000000000E+00  0.00000000000E+00  0.19280552835E+04  0.19280552835E+04  0.00000000000E+00 0. -1.
         -1   -1    0    0    0  501 -0.00000000000E+00 -0.00000000000E+00 -0.17930170436E+01  0.17930170436E+01  0.00000000000E+00 0.  1.
         24    2    1    2    0    0  0.19764705630E+02  0.59507305501E+01  0.18043598302E+04  0.18062106899E+04  0.79098703824E+02 0.  0.
        -11    1    3    3    0    0  0.48886363834E+02  0.11738336117E+02  0.94299113103E+03  0.94433041797E+03  0.00000000000E+00 0.  1.
         12    1    3    3    0    0 -0.29121658205E+02 -0.57876055670E+01  0.86136869915E+03  0.86188027198E+03  0.00000000000E+00 0. -1.
         21    1    1    2  502  501 -0.19764705630E+02 -0.59507305501E+01  0.12190243627E+03  0.12363761059E+03  0.00000000000E+00 0.  1.
<mgrwt>
<rscale>  1 0.81747537E+02</rscale>
<asrwt>0</asrwt>
<pdfrwt beam="1">  1        2 0.29662223E+00 0.81747537E+02</pdfrwt>
<pdfrwt beam="2">  1       -1 0.27585032E-03 0.81747537E+02</pdfrwt>
<totfact> 0.99324652E+04</totfact>
</mgrwt>
</event>
<event>
 6    2  0.1655576E+001  0.8506334E+02  0.7546771E-02  0.1315267E+00
          2   -1    0    0  502    0  0.00000000000E+00  0.00000000000E+00  0.23928057070E+04  0.23928057070E+04  0.00000000000E+00 0. -1.
         -1   -1    0    0    0  501 -0.00000000000E+00 -0.00000000000E+00 -0.52753130826E+01  0.52753130826E+01  0.00000000000E+00 0.  1.
         24    2    1    2    0    0  0.24592119928E+02 -0.13240803942E+02  0.23487492569E+04  0.23502890978E+04  0.80347246252E+02 0.  0.
        -11    1    3    3    0    0 -0.17505147650E+02 -0.12120606874E+02  0.20054351207E+03  0.20167062141E+03  0.00000000000E+00 0.  1.
         12    1    3    3    0    0  0.42097267578E+02 -0.11201970684E+01  0.21482057448E+04  0.21486184763E+04  0.00000000000E+00 0. -1.
         21    1    1    2  502  501 -0.24592119928E+02  0.13240803942E+02  0.38781137021E+02  0.47791922332E+02  0.00000000000E+00 0.  1.
<mgrwt>
<rscale>  1 0.85063337E+02</rscale>
<asrwt>0</asrwt>
<pdfrwt beam="1">  1        2 0.36812309E+00 0.85063337E+02</pdfrwt>
<pdfrwt beam="2">  1       -1 0.81158854E-03 0.85063337E+02</pdfrwt>
<totfact> 0.12867116E+04</totfact>
</mgrwt>
</event>
<event>
 6    2  0.1655576E+001  0.9336547E+02  0.7546771E-02  0.1294900E+00
          2   -1    0    0  502    0  0.00000000000E+00  0.00000000000E+00  0.54182241478E+03  0.54182241478E+03  0.00000000000E+00 0. -1.
         -1   -1    0    0    0  501 -0.00000000000E+00 -0.00000000000E+00 -0.92654523621E+01  0.92654523621E+01  0.00000000000E+00 0.  1.
         24    2    1    2    0    0  0.21829882538E+02 -0.41443924602E+02  0.31500545775E+03  0.32855067959E+03  0.80764893314E+02 0.  0.
        -11    1    3    3    0    0  0.25068857736E+02 -0.38423252817E+02  0.71173959498E+02  0.84678961354E+02  0.00000000000E+00 0.  1.
         12    1    3    3    0    0 -0.32389751984E+01 -0.30206717845E+01  0.24383149825E+03  0.24387171824E+03  0.00000000000E+00 0. -1.
         21    1    1    2  502  501 -0.21829882538E+02  0.41443924602E+02  0.21755150467E+03  0.22253718755E+03  0.00000000000E+00 0. -1.
<mgrwt>
<rscale>  1 0.93365468E+02</rscale>
<asrwt>0</asrwt>
<pdfrwt beam="1">  1        2 0.83357270E-01 0.93365468E+02</pdfrwt>
<pdfrwt beam="2">  1       -1 0.14254546E-02 0.93365468E+02</pdfrwt>
<totfact> 0.64141984E+04</totfact>
</mgrwt>
</event>
<event>
 6    2  0.1655576E+001  0.7719594E+02  0.7546771E-02  0.1337203E+00
         -1   -1    0    0    0  501 -0.00000000000E+00  0.00000000000E+00  0.65430414765E+01  0.65430414765E+01  0.00000000000E+00 0.  1.
          2   -1    0    0  502    0  0.00000000000E+00 -0.00000000000E+00 -0.38610918869E+03  0.38610918869E+03  0.00000000000E+00 0. -1.
         24    2    1    2    0    0 -0.20539246121E+02  0.19709722729E+01 -0.33103767863E+03  0.33991934075E+03  0.74387285083E+02 0.  0.
        -11    1    3    3    0    0  0.62265456496E+01  0.20388236908E+02 -0.28236460036E+02  0.35380047347E+02  0.00000000000E+00 0.  1.
         12    1    3    3    0    0 -0.26765791770E+02 -0.18417264635E+02 -0.30280121859E+03  0.30453929340E+03  0.00000000000E+00 0. -1.
         21    1    1    2  502  501  0.20539246121E+02 -0.19709722729E+01 -0.48528468588E+02  0.52732889418E+02  0.00000000000E+00 0.  1.
<mgrwt>
<rscale>  1 0.77195943E+02</rscale>
<asrwt>0</asrwt>
<pdfrwt beam="1">  1        2 0.59401404E-01 0.77195943E+02</pdfrwt>
<pdfrwt beam="2">  1       -1 0.10066219E-02 0.77195943E+02</pdfrwt>
<totfact> 0.14626315E+05</totfact>
</mgrwt>
</event>
<event>
 6    2  0.1655576E+001  0.9127648E+02  0.7546771E-02  0.1299790E+00
          2   -1    0    0  502    0  0.00000000000E+00  0.00000000000E+00  0.10419574124E+04  0.10419574124E+04  0.00000000000E+00 0. -1.
         -1   -1    0    0    0  501 -0.00000000000E+00 -0.00000000000E+00 -0.82321960260E+01  0.82321960260E+01  0.00000000000E+00 0.  1.
         24    2    1    2    0    0 -0.24790201272E+02 -0.35863032766E+02  0.96152415884E+03  0.96584683217E+03  0.80191545529E+02 0.  0.
        -13    1    3    3    0    0 -0.29653528932E+02  0.18349900191E+02  0.47754118853E+03  0.47881273726E+03  0.00000000000E+00 0.  1.
         14    1    3    3    0    0  0.48633276608E+01 -0.54212932957E+02  0.48398297031E+03  0.48703409491E+03  0.00000000000E+00 0. -1.
         21    1    1    2  502  501  0.24790201272E+02  0.35863032766E+02  0.72201057539E+02  0.84342776265E+02  0.00000000000E+00 0.  1.
<mgrwt>
<rscale>  1 0.91276477E+02</rscale>
<asrwt>0</asrwt>
<pdfrwt beam="1">  1        2 0.16030104E+00 0.91276477E+02</pdfrwt>
<pdfrwt beam="2">  1       -1 0.12664925E-02 0.91276477E+02</pdfrwt>
<totfact> 0.34309086E+04</totfact>
</mgrwt>
</event>
<event>
 6    2  0.1655576E+001  0.8547689E+02  0.7546771E-02  0.1314190E+00
          2   -1    0    0  502    0  0.00000000000E+00  0.00000000000E+00  0.16201176912E+03  0.16201176912E+03  0.00000000000E+00 0. -1.
         -1   -1    0    0    0  501 -0.00000000000E+00 -0.00000000000E+00 -0.23221463207E+02  0.23221463207E+02  0.00000000000E+00 0.  1.
         24    2    1    2    0    0  0.24045574595E+02 -0.60141395892E+01  0.13553034648E+03  0.16023349496E+03  0.81804269808E+02 0.  0.
        -13    1    3    3    0    0  0.28529059164E+02  0.32090980757E+02  0.46528690222E+02  0.63313957991E+02  0.00000000000E+00 0.  1.
         14    1    3    3    0    0 -0.44834845684E+01 -0.38105120346E+02  0.89001656257E+02  0.96919536972E+02  0.00000000000E+00 0. -1.
         21    1    1    2  502  501 -0.24045574595E+02  0.60141395892E+01  0.32599594313E+01  0.24999737361E+02  0.00000000000E+00 0. -1.
<mgrwt>
<rscale>  1 0.85476886E+02</rscale>
<asrwt>0</asrwt>
<pdfrwt beam="1">  1        2 0.24924887E-01 0.85476886E+02</pdfrwt>
<pdfrwt beam="2">  1       -1 0.35725329E-02 0.85476886E+02</pdfrwt>
<totfact> 0.61217104E+04</totfact>
</mgrwt>
</event>
<event>
 6    2  0.1655576E+001  0.9415563E+02  0.7546771E-02  0.1293089E+00
          2   -1    0    0  502    0  0.00000000000E+00  0.00000000000E+00  0.59815483449E+03  0.59815483449E+03  0.00000000000E+00 0. -1.
         -1   -1    0    0    0  501 -0.00000000000E+00 -0.00000000000E+00 -0.16370695368E+02  0.16370695368E+02  0.00000000000E+00 0.  1.
         24    2    1    2    0    0 -0.39936816761E+02 -0.53739446608E+02  0.14667618231E+03  0.17429625830E+03  0.66199741284E+02 0.  0.
        -11    1    3    3    0    0 -0.16741369067E+02 -0.64747279478E+02  0.11928639479E+03  0.13675425997E+03  0.00000000000E+00 0.  1.
         12    1    3    3    0    0 -0.23195447694E+02  0.11007832871E+02  0.27389787516E+02  0.37541998327E+02  0.00000000000E+00 0. -1.
         21    1    1    2  502  501  0.39936816761E+02  0.53739446608E+02  0.43510795681E+03  0.44022927156E+03  0.00000000000E+00 0. -1.
<mgrwt>
<rscale>  1 0.94155633E+02</rscale>
<asrwt>0</asrwt>
<pdfrwt beam="1">  1        2 0.92023804E-01 0.94155633E+02</pdfrwt>
<pdfrwt beam="2">  1       -1 0.25185690E-02 0.94155633E+02</pdfrwt>
<totfact> 0.25543237E+04</totfact>
</mgrwt>
</event>
<event>
 6    2  0.1655576E+001  0.8231053E+02  0.7546771E-02  0.1322619E+00
          2   -1    0    0  502    0  0.00000000000E+00  0.00000000000E+00  0.16211617393E+03  0.16211617393E+03  0.00000000000E+00 0. -1.
         -1   -1    0    0    0  501 -0.00000000000E+00 -0.00000000000E+00 -0.27877642770E+02  0.27877642770E+02  0.00000000000E+00 0.  1.
         24    2    1    2    0    0  0.20888819750E+02  0.67982538360E+01  0.14407128605E+03  0.16592636743E+03  0.79325058440E+02 0.  0.
        -11    1    3    3    0    0  0.34552490362E+02  0.34471078993E+02  0.66890163028E+02  0.82803525209E+02  0.00000000000E+00 0.  1.
         12    1    3    3    0    0 -0.13663670612E+02 -0.27672825157E+02  0.77181123025E+02  0.83122842217E+02  0.00000000000E+00 0. -1.
         21    1    1    2  502  501 -0.20888819750E+02 -0.67982538360E+01 -0.98327548925E+01  0.24067449274E+02  0.00000000000E+00 0.  1.
<mgrwt>
<rscale>  1 0.82310534E+02</rscale>
<asrwt>0</asrwt>
<pdfrwt beam="1">  1        2 0.24940949E-01 0.82310534E+02</pdfrwt>
<pdfrwt beam="2">  1       -1 0.42888682E-02 0.82310534E+02</pdfrwt>
<totfact> 0.46705368E+04</totfact>
</mgrwt>
</event>
<event>
 6    2  0.1655576E+001  0.1064036E+03  0.7546771E-02  0.1267378E+00
          2   -1    0    0  502    0  0.00000000000E+00  0.00000000000E+00  0.13093241024E+03  0.13093241024E+03  0.00000000000E+00 0. -1.
         -1   -1    0    0    0  501 -0.00000000000E+00 -0.00000000000E+00 -0.59303958206E+02  0.59303958206E+02  0.00000000000E+00 0.  1.
         24    2    1    2    0    0  0.68649130029E+02  0.32626673118E+01  0.53816667288E+02  0.11923913098E+03  0.81230466124E+02 0.  0.
        -13    1    3    3    0    0  0.10199153253E+02 -0.13408112795E+02 -0.18334421518E+02  0.24898819815E+02  0.00000000000E+00 0.  1.
         14    1    3    3    0    0  0.58449976776E+02  0.16670780107E+02  0.72151088806E+02  0.94340311163E+02  0.00000000000E+00 0. -1.
         21    1    1    2  502  501 -0.68649130029E+02 -0.32626673118E+01  0.17811784742E+02  0.70997237463E+02  0.00000000000E+00 0.  1.
<mgrwt>
<rscale>  1 0.10640365E+03</rscale>
<asrwt>0</asrwt>
<pdfrwt beam="1">  1        2 0.20143448E-01 0.10640365E+03</pdfrwt>
<pdfrwt beam="2">  1       -1 0.91236859E-02 0.10640365E+03</pdfrwt>
<totfact> 0.19973316E+04</totfact>
</mgrwt>
</event>
<event>
 6    2  0.1655576E+001  0.7817616E+02  0.7546771E-02  0.1334308E+00
          2   -1    0    0  502    0  0.00000000000E+00  0.00000000000E+00  0.29088770373E+03  0.29088770373E+03  0.00000000000E+00 0. -1.
         -1   -1    0    0    0  501 -0.00000000000E+00 -0.00000000000E+00 -0.14519131469E+02  0.14519131469E+02  0.00000000000E+00 0.  1.
         24    2    1    2    0    0 -0.30955353657E+02  0.41451323701E+02  0.17102428291E+03  0.18804472268E+03  0.58609438019E+02 0.  0.
        -11    1    3    3    0    0 -0.25972900433E+02  0.47895184775E+02  0.80799858213E+02  0.97453359967E+02  0.00000000000E+00 0.  1.
         12    1    3    3    0    0 -0.49824532236E+01 -0.64438610736E+01  0.90224424700E+02  0.90591362712E+02  0.00000000000E+00 0. -1.
         21    1    1    2  502  501  0.30955353657E+02 -0.41451323701E+02  0.10534428935E+03  0.11736211252E+03  0.00000000000E+00 0.  1.
<mgrwt>
<rscale>  1 0.78176162E+02</rscale>
<asrwt>0</asrwt>
<pdfrwt beam="1">  1        2 0.44751950E-01 0.78176162E+02</pdfrwt>
<pdfrwt beam="2">  1       -1 0.22337127E-02 0.78176162E+02</pdfrwt>
<totfact> 0.63785108E+04</totfact>
</mgrwt>
</event>
<event>
 6    2  0.1655576E+001  0.9073091E+02  0.7546771E-02  0.1301091E+00
         -1   -1    0    0    0  501 -0.00000000000E+00  0.00000000000E+00  0.43281791514E+01  0.43281791514E+01  0.00000000000E+00 0.  1.
          2   -1    0    0  502    0  0.00000000000E+00 -0.00000000000E+00 -0.98998952387E+03  0.98998952387E+03  0.00000000000E+00 0. -1.
         24    2    1    2    0    0  0.37345170004E+02 -0.92978884620E+01 -0.76020446240E+03  0.76559971458E+03  0.82164383144E+02 0.  0.
        -13    1    3    3    0    0 -0.32587814872E+01  0.44466302754E+01 -0.15383806278E+01  0.57235297276E+01  0.00000000000E+00 0.  1.
         14    1    3    3    0    0  0.40603951491E+02 -0.13744518737E+02 -0.75866608178E+03  0.75987618486E+03  0.00000000000E+00 0. -1.
         21    1    1    2  502  501 -0.37345170004E+02  0.92978884620E+01 -0.22545688232E+03  0.22871798844E+03  0.00000000000E+00 0. -1.
<mgrwt>
<rscale>  1 0.90730912E+02</rscale>
<asrwt>0</asrwt>
<pdfrwt beam="1">  1        2 0.15230586E+00 0.90730912E+02</pdfrwt>
<pdfrwt beam="2">  1       -1 0.66587466E-03 0.90730912E+02</pdfrwt>
<totfact> 0.90948927E+04</totfact>
</mgrwt>
</event>
<event>
 6    2  0.1655576E+001  0.9245607E+02  0.7546771E-02  0.1297011E+00
          2   -1    0    0  502    0  0.00000000000E+00  0.00000000000E+00  0.78627750442E+02  0.78627750442E+02  0.00000000000E+00 0. -1.
         -1   -1    0    0    0  501 -0.00000000000E+00 -0.00000000000E+00 -0.61998721583E+02  0.61998721583E+02  0.00000000000E+00 0.  1.
         24    2    1    2    0    0 -0.67708591273E-01  0.45439509996E+02  0.21510756381E+02  0.94925433561E+02  0.80519386756E+02 0.  0.
        -11    1    3    3    0    0  0.33139194189E+02  0.44043289807E+02 -0.39482029367E+00  0.55119628551E+02  0.00000000000E+00 0.  1.
         12    1    3    3    0    0 -0.33206902780E+02  0.13962201886E+01  0.21905576675E+02  0.39805805010E+02  0.00000000000E+00 0. -1.
         21    1    1    2  502  501  0.67708591273E-01 -0.45439509996E+02 -0.48817275223E+01  0.45701038464E+02  0.00000000000E+00 0. -1.
<mgrwt>
<rscale>  1 0.92456072E+02</rscale>
<asrwt>0</asrwt>
<pdfrwt beam="1">  1        2 0.12096577E-01 0.92456072E+02</pdfrwt>
<pdfrwt beam="2">  1       -1 0.95382649E-02 0.92456072E+02</pdfrwt>
<totfact> 0.33116378E+04</totfact>
</mgrwt>
</event>
<event>
 6    2  0.1655576E+001  0.8853332E+02  0.7546771E-02  0.1306443E+00
         -1   -1    0    0    0  501 -0.00000000000E+00  0.00000000000E+00  0.89337237189E+02  0.89337237189E+02  0.00000000000E+00 0.  1.
          2   -1    0    0  502    0  0.00000000000E+00 -0.00000000000E+00 -0.48016227407E+02  0.48016227407E+02  0.00000000000E+00 0. -1.
         24    2    1    2    0    0  0.16509308756E+02  0.28414662407E+02  0.54440531517E+01  0.88700547598E+02  0.82208266702E+02 0.  0.
        -13    1    3    3    0    0  0.18847225541E+02  0.11355727694E+02  0.42489565569E+02  0.47849071509E+02  0.00000000000E+00 0.  1.
         14    1    3    3    0    0 -0.23379167852E+01  0.17058934713E+02 -0.37045512417E+02  0.40851476089E+02  0.00000000000E+00 0. -1.
         21    1    1    2  502  501 -0.16509308756E+02 -0.28414662407E+02  0.35876956631E+02  0.48652916998E+02  0.00000000000E+00 0.  1.
<mgrwt>
<rscale>  1 0.88533324E+02</rscale>
<asrwt>0</asrwt>
<pdfrwt beam="1">  1        2 0.73871119E-02 0.88533324E+02</pdfrwt>
<pdfrwt beam="2">  1       -1 0.13744190E-01 0.88533324E+02</pdfrwt>
<totfact> 0.34447917E+04</totfact>
</mgrwt>
</event>
<event>
 6    2  0.1655576E+001  0.8517991E+02  0.7546771E-02  0.1314963E+00
         -1   -1    0    0    0  501 -0.00000000000E+00  0.00000000000E+00  0.16321807395E+01  0.16321807395E+01  0.00000000000E+00 0.  1.
          2   -1    0    0  502    0  0.00000000000E+00 -0.00000000000E+00 -0.26716270645E+04  0.26716270645E+04  0.00000000000E+00 0. -1.
         24    2    1    2    0    0 -0.18561813946E+02 -0.15146781853E+02 -0.11794535394E+04  0.11825253773E+04  0.81741362163E+02 0.  0.
        -11    1    3    3    0    0 -0.10297613674E+02 -0.24933328880E+02 -0.11510624159E+04  0.11513784768E+04  0.00000000000E+00 0.  1.
         12    1    3    3    0    0 -0.82642002724E+01  0.97865470277E+01 -0.28391123575E+02  0.31146900436E+02  0.00000000000E+00 0. -1.
         21    1    1    2  502  501  0.18561813946E+02  0.15146781853E+02 -0.14905413444E+04  0.14907338680E+04  0.00000000000E+00 0. -1.
<mgrwt>
<rscale>  1 0.85179905E+02</rscale>
<asrwt>0</asrwt>
<pdfrwt beam="1">  1        2 0.41101927E+00 0.85179905E+02</pdfrwt>
<pdfrwt beam="2">  1       -1 0.25110490E-03 0.85179905E+02</pdfrwt>
<totfact> 0.47155917E+04</totfact>
</mgrwt>
</event>
<event>
 6    2  0.1655576E+001  0.9002000E+02  0.7546771E-02  0.1302803E+00
         -1   -1    0    0    0  501 -0.00000000000E+00  0.00000000000E+00  0.38281238712E+01  0.38281238712E+01  0.00000000000E+00 0.  1.
          2   -1    0    0  502    0  0.00000000000E+00 -0.00000000000E+00 -0.94221542456E+03  0.94221542456E+03  0.00000000000E+00 0. -1.
         24    2    1    2    0    0  0.21756818267E+02  0.20433851758E+02 -0.67749899308E+03  0.68345335348E+03  0.84927612216E+02 0.  0.
        -11    1    3    3    0    0  0.47333231840E+02  0.36535903297E+02 -0.44732528534E+03  0.45130390865E+03  0.00000000000E+00 0.  1.
         12    1    3    3    0    0 -0.25576413573E+02 -0.16102051538E+02 -0.23017370775E+03  0.23214944483E+03  0.00000000000E+00 0. -1.
         21    1    1    2  502  501 -0.21756818267E+02 -0.20433851758E+02 -0.26088830761E+03  0.26259019495E+03  0.00000000000E+00 0. -1.
<mgrwt>
<rscale>  1 0.90020002E+02</rscale>
<asrwt>0</asrwt>
<pdfrwt beam="1">  1        2 0.14495622E+00 0.90020002E+02</pdfrwt>
<pdfrwt beam="2">  1       -1 0.58894213E-03 0.90020002E+02</pdfrwt>
<totfact> 0.11523758E+05</totfact>
</mgrwt>
</event>
<event>
 6    2  0.1655576E+001  0.8361550E+02  0.7546771E-02  0.1319093E+00
          2   -1    0    0  502    0  0.00000000000E+00  0.00000000000E+00  0.77011444135E+01  0.77011444135E+01  0.00000000000E+00 0. -1.
         -1   -1    0    0    0  501 -0.00000000000E+00 -0.00000000000E+00 -0.45090400163E+03  0.45090400163E+03  0.00000000000E+00 0.  1.
         24    2    1    2    0    0  0.17447188899E+02 -0.12662338243E+02 -0.23776277350E+03  0.25203707686E+03  0.80788690036E+02 0.  0.
        -13    1    3    3    0    0 -0.20168814846E+02 -0.34226897753E+02 -0.12789389011E+03  0.13392202489E+03  0.00000000000E+00 0.  1.
         14    1    3    3    0    0  0.37616003745E+02  0.21564559511E+02 -0.10986888339E+03  0.11811505197E+03  0.00000000000E+00 0. -1.
         21    1    1    2  502  501 -0.17447188899E+02  0.12662338243E+02 -0.20544008371E+03  0.20656806918E+03  0.00000000000E+00 0.  1.
<mgrwt>
<rscale>  1 0.83615499E+02</rscale>
<asrwt>0</asrwt>
<pdfrwt beam="1">  1        2 0.11847912E-02 0.83615499E+02</pdfrwt>
<pdfrwt beam="2">  1       -1 0.69369863E-01 0.83615499E+02</pdfrwt>
<totfact> 0.24778923E+04</totfact>
</mgrwt>
</event>
<event>
 6    2  0.1655576E+001  0.8441641E+02  0.7546771E-02  0.1316966E+00
         -1   -1    0    0    0  501 -0.00000000000E+00  0.00000000000E+00  0.91251603866E+01  0.91251603866E+01  0.00000000000E+00 0.  1.
          2   -1    0    0  502    0  0.00000000000E+00 -0.00000000000E+00 -0.51940467357E+03  0.51940467357E+03  0.00000000000E+00 0. -1.
         24    2    1    2    0    0 -0.18456696924E+02 -0.16162440779E+02 -0.48844949993E+03  0.49569047294E+03  0.80772871870E+02 0.  0.
        -13    1    3    3    0    0 -0.30531250865E+01 -0.75791168668E+01 -0.13617670920E+01  0.82836583034E+01  0.00000000000E+00 0.  1.
         14    1    3    3    0    0 -0.15403571838E+02 -0.85833239126E+01 -0.48708773284E+03  0.48740681464E+03  0.00000000000E+00 0. -1.
         21    1    1    2  502  501  0.18456696924E+02  0.16162440779E+02 -0.21830013258E+02  0.32839361019E+02  0.00000000000E+00 0.  1.
<mgrwt>
<rscale>  1 0.84416414E+02</rscale>
<asrwt>0</asrwt>
<pdfrwt beam="1">  1        2 0.79908419E-01 0.84416414E+02</pdfrwt>
<pdfrwt beam="2">  1       -1 0.14038707E-02 0.84416414E+02</pdfrwt>
<totfact> 0.67724472E+04</totfact>
</mgrwt>
</event>
<event>
 6    2  0.1655576E+001  0.8553637E+02  0.7546771E-02  0.1314036E+00
         -1   -1    0    0    0  501 -0.00000000000E+00  0.00000000000E+00  0.33623705004E+01  0.33623705004E+01  0.00000000000E+00 0.  1.
          2   -1    0    0  502    0  0.00000000000E+00 -0.00000000000E+00 -0.95372712324E+03  0.95372712324E+03  0.00000000000E+00 0. -1.
         24    2    1    2    0    0 -0.88864254804E+01 -0.22704378564E+02 -0.62711668988E+03  0.63292322852E+03  0.81987883931E+02 0.  0.
        -13    1    3    3    0    0  0.83031844717E+01 -0.51317005753E+02 -0.36199636923E+03  0.36570992506E+03  0.00000000000E+00 0.  1.
         14    1    3    3    0    0 -0.17189609952E+02  0.28612627188E+02 -0.26512032065E+03  0.26721330346E+03  0.00000000000E+00 0. -1.
         21    1    1    2  502  501  0.88864254804E+01  0.22704378564E+02 -0.32324806286E+03  0.32416626522E+03  0.00000000000E+00 0. -1.
<mgrwt>
<rscale>  1 0.85536369E+02</rscale>
<asrwt>0</asrwt>
<pdfrwt beam="1">  1        2 0.14672717E+00 0.85536369E+02</pdfrwt>
<pdfrwt beam="2">  1       -1 0.51728804E-03 0.85536369E+02</pdfrwt>
<totfact> 0.13502553E+05</totfact>
</mgrwt>
</event>
<event>
 6    2  0.1655576E+001  0.8318837E+02  0.7546771E-02  0.1320239E+00
         -1   -1    0    0    0  501 -0.00000000000E+00  0.00000000000E+00  0.91548869601E+02  0.91548869601E+02  0.00000000000E+00 0.  1.
          2   -1    0    0  502    0  0.00000000000E+00 -0.00000000000E+00 -0.36953547978E+02  0.36953547978E+02  0.00000000000E+00 0. -1.
         24    2    1    2    0    0  0.51458501951E+01  0.31507597197E+02  0.30888515792E+02  0.88737846689E+02  0.76818595222E+02 0.  0.
        -13    1    3    3    0    0  0.28753593474E+02  0.34533170695E+02  0.42857214304E+02  0.62097100044E+02  0.00000000000E+00 0.  1.
         14    1    3    3    0    0 -0.23607743279E+02 -0.30255734984E+01 -0.11968698512E+02  0.26640746645E+02  0.00000000000E+00 0. -1.
         21    1    1    2  502  501 -0.51458501951E+01 -0.31507597197E+02  0.23706805831E+02  0.39764570890E+02  0.00000000000E+00 0. -1.
<mgrwt>
<rscale>  1 0.83188371E+02</rscale>
<asrwt>0</asrwt>
<pdfrwt beam="1">  1        2 0.56851613E-02 0.83188371E+02</pdfrwt>
<pdfrwt beam="2">  1       -1 0.14084441E-01 0.83188371E+02</pdfrwt>
<totfact> 0.45769575E+04</totfact>
</mgrwt>
</event>
<event>
 6    2  0.1655576E+001  0.9162873E+02  0.7546771E-02  0.1298955E+00
         -1   -1    0    0    0  501 -0.00000000000E+00  0.00000000000E+00  0.85350729578E+01  0.85350729578E+01  0.00000000000E+00 0.  1.
          2   -1    0    0  502    0  0.00000000000E+00 -0.00000000000E+00 -0.53423278676E+03  0.53423278676E+03  0.00000000000E+00 0. -1.
         24    2    1    2    0    0 -0.12527869634E+02 -0.41469892053E+02 -0.36663309395E+03  0.37790957890E+03  0.80741097237E+02 0.  0.
        -11    1    3    3    0    0  0.22659283198E+02 -0.25854890577E+02 -0.62341648901E+02  0.71192693933E+02  0.00000000000E+00 0.  1.
         12    1    3    3    0    0 -0.35187152832E+02 -0.15615001476E+02 -0.30429144505E+03  0.30671688497E+03  0.00000000000E+00 0. -1.
         21    1    1    2  502  501  0.12527869634E+02  0.41469892053E+02 -0.15906461986E+03  0.16485828082E+03  0.00000000000E+00 0. -1.
<mgrwt>
<rscale>  1 0.91628730E+02</rscale>
<asrwt>0</asrwt>
<pdfrwt beam="1">  1        2 0.82189659E-01 0.91628730E+02</pdfrwt>
<pdfrwt beam="2">  1       -1 0.13130882E-02 0.91628730E+02</pdfrwt>
<totfact> 0.73004013E+04</totfact>
</mgrwt>
</event>
<event>
 6    2  0.1655576E+001  0.9822988E+02  0.7546771E-02  0.1284063E+00
          2   -1    0    0  502    0  0.00000000000E+00  0.00000000000E+00  0.28123209972E+04  0.28123209972E+04  0.00000000000E+00 0. -1.
         -1   -1    0    0    0  501 -0.00000000000E+00 -0.00000000000E+00 -0.11424413490E+02  0.11424413490E+02  0.00000000000E+00 0.  1.
         24    2    1    2    0    0 -0.58643722204E+02  0.30789012061E+02  0.27073107167E+04  0.27090921773E+04  0.72540051251E+02 0.  0.
        -11    1    3    3    0    0 -0.15801031784E+02  0.37603751969E+02  0.62496570650E+03  0.62629533694E+03  0.00000000000E+00 0.  1.
         12    1    3    3    0    0 -0.42842690420E+02 -0.68147399079E+01  0.20823450102E+04  0.20827968404E+04  0.00000000000E+00 0. -1.
         21    1    1    2  502  501  0.58643722204E+02 -0.30789012061E+02  0.93585866992E+02  0.11465323335E+03  0.00000000000E+00 0.  1.
<mgrwt>
<rscale>  1 0.98229876E+02</rscale>
<asrwt>0</asrwt>
<pdfrwt beam="1">  1        2 0.43266422E+00 0.98229876E+02</pdfrwt>
<pdfrwt beam="2">  1       -1 0.17576043E-02 0.98229876E+02</pdfrwt>
<totfact> 0.25816567E+03</totfact>
</mgrwt>
</event>
<event>
 6    2  0.1655576E+001  0.9193940E+02  0.7546771E-02  0.1298222E+00
         -1   -1    0    0    0  501 -0.00000000000E+00  0.00000000000E+00  0.30979831504E+01  0.30979831504E+01  0.00000000000E+00 0.  1.
          2   -1    0    0  502    0  0.00000000000E+00 -0.00000000000E+00 -0.17950598775E+04  0.17950598775E+04  0.00000000000E+00 0. -1.
         24    2    1    2    0    0 -0.23555599467E+02 -0.36693392175E+02 -0.15147527840E+04  0.15175403948E+04  0.80941842280E+02 0.  0.
        -13    1    3    3    0    0 -0.36053600094E+02 -0.33280017622E+02 -0.44293191206E+03  0.44564122383E+03  0.00000000000E+00 0.  1.
         14    1    3    3    0    0  0.12498000627E+02 -0.34133745526E+01 -0.10718208720E+04  0.10718991710E+04  0.00000000000E+00 0. -1.
         21    1    1    2  502  501  0.23555599467E+02  0.36693392175E+02 -0.27720911036E+03  0.28061746589E+03  0.00000000000E+00 0.  1.
<mgrwt>
<rscale>  1 0.91939399E+02</rscale>
<asrwt>0</asrwt>
<pdfrwt beam="1">  1        2 0.27616344E+00 0.91939399E+02</pdfrwt>
<pdfrwt beam="2">  1       -1 0.47661214E-03 0.91939399E+02</pdfrwt>
<totfact> 0.54704817E+04</totfact>
</mgrwt>
</event>
<event>
 6    2  0.1655576E+001  0.8785453E+02  0.7546771E-02  0.1308132E+00
         -1   -1    0    0    0  501 -0.00000000000E+00  0.00000000000E+00  0.56582268383E+01  0.56582268383E+01  0.00000000000E+00 0.  1.
          2   -1    0    0  502    0  0.00000000000E+00 -0.00000000000E+00 -0.72682301662E+03  0.72682301662E+03  0.00000000000E+00 0. -1.
         24    2    1    2    0    0 -0.27349734661E+02  0.19869644207E+02 -0.60987364973E+03  0.61616904031E+03  0.81090115649E+02 0.  0.
        -11    1    3    3    0    0 -0.76290521185E+01  0.75313970062E+01 -0.69045070334E+01  0.12751336968E+02  0.00000000000E+00 0.  1.
         12    1    3    3    0    0 -0.19720682543E+02  0.12338247200E+02 -0.60296914270E+03  0.60341770335E+03  0.00000000000E+00 0. -1.
         21    1    1    2  502  501  0.27349734661E+02 -0.19869644207E+02 -0.11129114005E+03  0.11631220315E+03  0.00000000000E+00 0.  1.
<mgrwt>
<rscale>  1 0.87854525E+02</rscale>
<asrwt>0</asrwt>
<pdfrwt beam="1">  1        2 0.11181892E+00 0.87854525E+02</pdfrwt>
<pdfrwt beam="2">  1       -1 0.87049649E-03 0.87854525E+02</pdfrwt>
<totfact> 0.91542666E+04</totfact>
</mgrwt>
</event>
<event>
 6    2  0.1655576E+001  0.7250671E+02  0.7546771E-02  0.1351771E+00
         -3   -1    0    0    0  501 -0.00000000000E+00  0.00000000000E+00  0.10790975357E+03  0.10790975357E+03  0.00000000000E+00 0.  1.
          4   -1    0    0  502    0  0.00000000000E+00 -0.00000000000E+00 -0.49530159195E+02  0.49530159195E+02  0.00000000000E+00 0. -1.
         24    2    1    2    0    0 -0.19980678795E+02 -0.43604788372E+02 -0.10750850129E+02  0.73299414482E+02  0.54374794628E+02 0.  0.
        -11    1    3    3    0    0 -0.30736925730E+02 -0.18015530879E+02  0.11805160223E+02  0.37532382872E+02  0.00000000000E+00 0.  1.
         12    1    3    3    0    0  0.10756246935E+02 -0.25589257494E+02 -0.22556010352E+02  0.35767031610E+02  0.00000000000E+00 0. -1.
         21    1    1    2  502  501  0.19980678795E+02  0.43604788372E+02  0.69130444506E+02  0.84140498285E+02  0.00000000000E+00 0.  1.
<mgrwt>
<rscale>  1 0.72506713E+02</rscale>
<asrwt>0</asrwt>
<pdfrwt beam="1">  1        4 0.76200245E-02 0.72506713E+02</pdfrwt>
<pdfrwt beam="2">  1       -3 0.16601500E-01 0.72506713E+02</pdfrwt>
<totfact> 0.61237511E+03</totfact>
</mgrwt>
</event>
<event>
 6    2  0.1655576E+001  0.8350667E+02  0.7546771E-02  0.1319385E+00
          2   -1    0    0  502    0  0.00000000000E+00  0.00000000000E+00  0.19189541410E+03  0.19189541410E+03  0.00000000000E+00 0. -1.
         -1   -1    0    0    0  501 -0.00000000000E+00 -0.00000000000E+00 -0.18721441707E+02  0.18721441707E+02  0.00000000000E+00 0.  1.
         24    2    1    2    0    0 -0.19648143958E+02 -0.12891659175E+02  0.16637067738E+03  0.18615199815E+03  0.80131889320E+02 0.  0.
        -11    1    3    3    0    0 -0.12741546914E+02 -0.28767913574E+02  0.16963344929E+02  0.35744858936E+02  0.00000000000E+00 0.  1.
         12    1    3    3    0    0 -0.69065970436E+01  0.15876254399E+02  0.14940733245E+03  0.15040713922E+03  0.00000000000E+00 0. -1.
         21    1    1    2  502  501  0.19648143958E+02  0.12891659175E+02  0.68032950150E+01  0.24464857660E+02  0.00000000000E+00 0.  1.
<mgrwt>
<rscale>  1 0.83506671E+02</rscale>
<asrwt>0</asrwt>
<pdfrwt beam="1">  1        2 0.29522370E-01 0.83506671E+02</pdfrwt>
<pdfrwt beam="2">  1       -1 0.28802219E-02 0.83506671E+02</pdfrwt>
<totfact> 0.69330626E+04</totfact>
</mgrwt>
</event>
<event>
 6    2  0.1655576E+001  0.8311818E+02  0.7546771E-02  0.1320428E+00
          2   -1    0    0  502    0  0.00000000000E+00  0.00000000000E+00  0.80467184286E+03  0.80467184286E+03  0.00000000000E+00 0. -1.
         -1   -1    0    0    0  501 -0.00000000000E+00 -0.00000000000E+00 -0.33415873885E+01  0.33415873885E+01  0.00000000000E+00 0.  1.
         24    2    1    2    0    0  0.27634935468E+01 -0.20387447102E+02  0.63645975293E+03  0.64186419762E+03  0.80531647111E+02 0.  0.
        -11    1    3    3    0    0  0.46041800500E+01 -0.12821256013E+02  0.14647942745E+02  0.20003632329E+02  0.00000000000E+00 0.  1.
         12    1    3    3    0    0 -0.18406865033E+01 -0.75661910884E+01  0.62181181019E+03  0.62186056529E+03  0.00000000000E+00 0. -1.
         21    1    1    2  502  501 -0.27634935468E+01  0.20387447102E+02  0.16487050254E+03  0.16614923263E+03  0.00000000000E+00 0. -1.
<mgrwt>
<rscale>  1 0.83118175E+02</rscale>
<asrwt>0</asrwt>
<pdfrwt beam="1">  1        2 0.12379551E+00 0.83118175E+02</pdfrwt>
<pdfrwt beam="2">  1       -1 0.51409101E-03 0.83118175E+02</pdfrwt>
<totfact> 0.16812916E+05</totfact>
</mgrwt>
</event>
<event>
 6    2  0.1655576E+001  0.7979542E+02  0.7546771E-02  0.1329633E+00
          2   -1    0    0  502    0  0.00000000000E+00  0.00000000000E+00  0.65474768464E+02  0.65474768464E+02  0.00000000000E+00 0. -1.
         -1   -1    0    0    0  501 -0.00000000000E+00 -0.00000000000E+00 -0.58636028610E+02  0.58636028610E+02  0.00000000000E+00 0.  1.
         24    2    1    2    0    0 -0.15653043750E+02  0.25692055415E+02  0.30918389773E+02  0.85576020181E+02  0.73906758242E+02 0.  0.
        -13    1    3    3    0    0 -0.25952154246E+02 -0.18381391758E+02  0.19992100141E+01  0.31865133197E+02  0.00000000000E+00 0.  1.
         14    1    3    3    0    0  0.10299110496E+02  0.44073447173E+02  0.28919179758E+02  0.53710886984E+02  0.00000000000E+00 0. -1.
         21    1    1    2  502  501  0.15653043750E+02 -0.25692055415E+02 -0.24079649918E+02  0.38534776893E+02  0.00000000000E+00 0.  1.
<mgrwt>
<rscale>  1 0.79795416E+02</rscale>
<asrwt>0</asrwt>
<pdfrwt beam="1">  1        2 0.10073041E-01 0.79795416E+02</pdfrwt>
<pdfrwt beam="2">  1       -1 0.90209275E-02 0.79795416E+02</pdfrwt>
<totfact> 0.43961248E+04</totfact>
</mgrwt>
</event>
<event>
 6    2  0.1655576E+001  0.8751965E+02  0.7546771E-02  0.1308972E+00
         -1   -1    0    0    0  501 -0.00000000000E+00  0.00000000000E+00  0.64072542724E+02  0.64072542724E+02  0.00000000000E+00 0.  1.
          2   -1    0    0  502    0  0.00000000000E+00 -0.00000000000E+00 -0.75041587266E+02  0.75041587266E+02  0.00000000000E+00 0. -1.
         24    2    1    2    0    0  0.18760305959E+02 -0.28776423513E+02 -0.37989446221E+02  0.95409053204E+02  0.80496321527E+02 0.  0.
        -13    1    3    3    0    0  0.34141226981E+00  0.19064151500E+02  0.13021756866E+02  0.23089490826E+02  0.00000000000E+00 0.  1.
         14    1    3    3    0    0  0.18418893690E+02 -0.47840575012E+02 -0.51011203087E+02  0.72319562378E+02  0.00000000000E+00 0. -1.
         21    1    1    2  502  501 -0.18760305959E+02  0.28776423513E+02  0.27020401680E+02  0.43705076785E+02  0.00000000000E+00 0. -1.
<mgrwt>
<rscale>  1 0.87519652E+02</rscale>
<asrwt>0</asrwt>
<pdfrwt beam="1">  1        2 0.11544860E-01 0.87519652E+02</pdfrwt>
<pdfrwt beam="2">  1       -1 0.98573142E-02 0.87519652E+02</pdfrwt>
<totfact> 0.33083384E+04</totfact>
</mgrwt>
</event>
<event>
 6    2  0.1655576E+001  0.8480449E+02  0.7546771E-02  0.1315945E+00
         -1   -1    0    0    0  501 -0.00000000000E+00  0.00000000000E+00  0.23542281012E+01  0.23542281012E+01  0.00000000000E+00 0.  1.
          2   -1    0    0  502    0  0.00000000000E+00 -0.00000000000E+00 -0.15700982116E+04  0.15700982116E+04  0.00000000000E+00 0. -1.
         24    2    1    2    0    0 -0.35891130219E+01 -0.27120533026E+02 -0.13930948022E+04  0.13956736469E+04  0.80270765447E+02 0.  0.
        -11    1    3    3    0    0  0.18130539157E+02 -0.15444509020E+02 -0.12003482627E+03  0.12237487008E+03  0.00000000000E+00 0.  1.
         12    1    3    3    0    0 -0.21719652179E+02 -0.11676024007E+02 -0.12730599759E+04  0.12732987769E+04  0.00000000000E+00 0. -1.
         21    1    1    2  502  501  0.35891130219E+01  0.27120533026E+02 -0.17464918130E+03  0.17677879277E+03  0.00000000000E+00 0.  1.
<mgrwt>
<rscale>  1 0.84804486E+02</rscale>
<asrwt>0</asrwt>
<pdfrwt beam="1">  1        2 0.24155341E+00 0.84804486E+02</pdfrwt>
<pdfrwt beam="2">  1       -1 0.36218918E-03 0.84804486E+02</pdfrwt>
<totfact> 0.10323180E+05</totfact>
</mgrwt>
</event>
<event>
 6    2  0.1655576E+001  0.8320292E+02  0.7546771E-02  0.1320200E+00
          2   -1    0    0  502    0  0.00000000000E+00  0.00000000000E+00  0.13221753907E+04  0.13221753907E+04  0.00000000000E+00 0. -1.
         -1   -1    0    0    0  501 -0.00000000000E+00 -0.00000000000E+00 -0.21125690141E+01  0.21125690141E+01  0.00000000000E+00 0.  1.
         24    2    1    2    0    0 -0.14569846333E+02 -0.14490966135E+02  0.11459862479E+04  0.11490027006E+04  0.80625412173E+02 0.  0.
        -11    1    3    3    0    0 -0.65517216288E+01  0.32770302011E+02  0.35668678227E+03  0.35824890564E+03  0.00000000000E+00 0.  1.
         12    1    3    3    0    0 -0.80181247037E+01 -0.47261268147E+02  0.78929946562E+03  0.79075379494E+03  0.00000000000E+00 0. -1.
         21    1    1    2  502  501  0.14569846333E+02  0.14490966135E+02  0.17407657378E+03  0.17528525911E+03  0.00000000000E+00 0.  1.
<mgrwt>
<rscale>  1 0.83202918E+02</rscale>
<asrwt>0</asrwt>
<pdfrwt beam="1">  1        2 0.20341094E+00 0.83202918E+02</pdfrwt>
<pdfrwt beam="2">  1       -1 0.32501167E-03 0.83202918E+02</pdfrwt>
<totfact> 0.16048101E+05</totfact>
</mgrwt>
</event>
<event>
 6    2  0.1655576E+001  0.8579370E+02  0.7546771E-02  0.1313370E+00
          4   -1    0    0  502    0  0.00000000000E+00  0.00000000000E+00  0.88610359187E+01  0.88610359187E+01  0.00000000000E+00 0. -1.
         -3   -1    0    0    0  501 -0.00000000000E+00 -0.00000000000E+00 -0.41291991212E+03  0.41291991212E+03  0.00000000000E+00 0.  1.
         24    2    1    2    0    0 -0.24169979573E+02  0.21581362039E+02 -0.24879700073E+03  0.26317390823E+03  0.79439381316E+02 0.  0.
        -11    1    3    3    0    0 -0.62412982993E+01  0.74524798614E+01 -0.23751036417E+03  0.23770920543E+03  0.00000000000E+00 0.  1.
         12    1    3    3    0    0 -0.17928681274E+02  0.14128882178E+02 -0.11286636558E+02  0.25464702798E+02  0.00000000000E+00 0. -1.
         21    1    1    2  502  501  0.24169979573E+02 -0.21581362039E+02 -0.15526187548E+03  0.15860703981E+03  0.00000000000E+00 0.  1.
<mgrwt>
<rscale>  1 0.85793697E+02</rscale>
<asrwt>0</asrwt>
<pdfrwt beam="1">  1        4 0.13632366E-02 0.85793697E+02</pdfrwt>
<pdfrwt beam="2">  1       -3 0.63526127E-01 0.85793697E+02</pdfrwt>
<totfact> 0.77406586E+03</totfact>
</mgrwt>
</event>
<event>
 6    2  0.1655576E+001  0.1073878E+03  0.7546771E-02  0.1265485E+00
          2   -1    0    0  502    0  0.00000000000E+00  0.00000000000E+00  0.26188190557E+04  0.26188190557E+04  0.00000000000E+00 0. -1.
         -1   -1    0    0    0  501 -0.00000000000E+00 -0.00000000000E+00 -0.40644853752E+01  0.40644853752E+01  0.00000000000E+00 0.  1.
         24    2    1    2    0    0  0.36929769279E+02  0.66387354991E+02  0.20787892358E+04  0.20815611523E+04  0.75901615155E+02 0.  0.
        -11    1    3    3    0    0  0.59663998111E+02  0.57821726295E+02  0.16192157815E+04  0.16213460123E+04  0.00000000000E+00 0.  1.
         12    1    3    3    0    0 -0.22734228831E+02  0.85656286958E+01  0.45957345436E+03  0.46021514002E+03  0.00000000000E+00 0. -1.
         21    1    1    2  502  501 -0.36929769279E+02 -0.66387354991E+02  0.53596533451E+03  0.54132238875E+03  0.00000000000E+00 0. -1.
<mgrwt>
<rscale>  1 0.10738782E+03</rscale>
<asrwt>0</asrwt>
<pdfrwt beam="1">  1        2 0.40289389E+00 0.10738782E+03</pdfrwt>
<pdfrwt beam="2">  1       -1 0.62530754E-03 0.10738782E+03</pdfrwt>
<totfact> 0.14236329E+04</totfact>
</mgrwt>
</event>
<event>
 6    2  0.1655576E+001  0.9034513E+02  0.7546771E-02  0.1302018E+00
          2   -1    0    0  502    0  0.00000000000E+00  0.00000000000E+00  0.13542897975E+04  0.13542897975E+04  0.00000000000E+00 0. -1.
         -1   -1    0    0    0  501 -0.00000000000E+00 -0.00000000000E+00 -0.31400764964E+01  0.31400764964E+01  0.00000000000E+00 0.  1.
         24    2    1    2    0    0 -0.20080686181E+02  0.86849553003E+01  0.68639264240E+03  0.69231286477E+03  0.87656036768E+02 0.  0.
        -13    1    3    3    0    0 -0.52995131179E+02  0.86719881545E+01  0.51469998233E+03  0.51749372858E+03  0.00000000000E+00 0.  1.
         14    1    3    3    0    0  0.32914444998E+02  0.12967145809E-01  0.17169266007E+03  0.17481913619E+03  0.00000000000E+00 0. -1.
         21    1    1    2  502  501  0.20080686181E+02 -0.86849553003E+01  0.66475707864E+03  0.66511700926E+03  0.00000000000E+00 0. -1.
<mgrwt>
<rscale>  1 0.90345134E+02</rscale>
<asrwt>0</asrwt>
<pdfrwt beam="1">  1        2 0.20835181E+00 0.90345134E+02</pdfrwt>
<pdfrwt beam="2">  1       -1 0.48308977E-03 0.90345134E+02</pdfrwt>
<totfact> 0.89802091E+04</totfact>
</mgrwt>
</event>
<event>
 6    2  0.1655576E+001  0.9230327E+02  0.7546771E-02  0.1297368E+00
         -1   -1    0    0    0  501 -0.00000000000E+00  0.00000000000E+00  0.15735912045E+02  0.15735912045E+02  0.00000000000E+00 0.  1.
          2   -1    0    0  502    0  0.00000000000E+00 -0.00000000000E+00 -0.63564583295E+03  0.63564583295E+03  0.00000000000E+00 0. -1.
         24    2    1    2    0    0  0.22251000476E+02  0.35640394142E+02 -0.59586541682E+03  0.60297221191E+03  0.82186061236E+02 0.  0.
        -13    1    3    3    0    0 -0.10894011041E+02  0.26136849910E+02 -0.63929320759E+02  0.69919757240E+02  0.00000000000E+00 0.  1.
         14    1    3    3    0    0  0.33145011517E+02  0.95035442323E+01 -0.53193609606E+03  0.53305245467E+03  0.00000000000E+00 0. -1.
         21    1    1    2  502  501 -0.22251000476E+02 -0.35640394142E+02 -0.24044504094E+02  0.48409533089E+02  0.00000000000E+00 0.  1.
<mgrwt>
<rscale>  1 0.92303269E+02</rscale>
<asrwt>0</asrwt>
<pdfrwt beam="1">  1        2 0.97791671E-01 0.92303269E+02</pdfrwt>
<pdfrwt beam="2">  1       -1 0.24209094E-02 0.92303269E+02</pdfrwt>
<totfact> 0.25193016E+04</totfact>
</mgrwt>
</event>
<event>
 6    2  0.1655576E+001  0.9148662E+02  0.7546771E-02  0.1299291E+00
          2   -1    0    0  502    0  0.00000000000E+00  0.00000000000E+00  0.15186775513E+03  0.15186775513E+03  0.00000000000E+00 0. -1.
         -1   -1    0    0    0  501 -0.00000000000E+00 -0.00000000000E+00 -0.32668382242E+02  0.32668382242E+02  0.00000000000E+00 0.  1.
         24    2    1    2    0    0  0.41838399445E+01  0.24110633747E+02  0.12902317777E+03  0.15816694476E+03  0.88153132878E+02 0.  0.
        -13    1    3    3    0    0 -0.33276892088E+02  0.24109291320E+02  0.26205090772E+02  0.48737216348E+02  0.00000000000E+00 0.  1.
         14    1    3    3    0    0  0.37460732033E+02  0.13424269788E-02  0.10281808700E+03  0.10942972841E+03  0.00000000000E+00 0. -1.
         21    1    1    2  502  501 -0.41838399445E+01 -0.24110633747E+02 -0.98238048862E+01  0.26369192608E+02  0.00000000000E+00 0.  1.
<mgrwt>
<rscale>  1 0.91486622E+02</rscale>
<asrwt>0</asrwt>
<pdfrwt beam="1">  1        2 0.23364270E-01 0.91486622E+02</pdfrwt>
<pdfrwt beam="2">  1       -1 0.50259050E-02 0.91486622E+02</pdfrwt>
<totfact> 0.40366470E+04</totfact>
</mgrwt>
</event>
<event>
 6    2  0.1655576E+001  0.8858620E+02  0.7546771E-02  0.1306312E+00
         -1   -1    0    0    0  501 -0.00000000000E+00  0.00000000000E+00  0.32698087636E+01  0.32698087636E+01  0.00000000000E+00 0.  1.
          2   -1    0    0  502    0  0.00000000000E+00 -0.00000000000E+00 -0.16850239906E+04  0.16850239906E+04  0.00000000000E+00 0. -1.
         24    2    1    2    0    0 -0.74887152542E+01 -0.39273248364E+02 -0.14781020122E+04  0.14807542246E+04  0.79050909671E+02 0.  0.
        -13    1    3    3    0    0  0.69772054488E+00 -0.33148430434E+01 -0.15218920021E+01  0.37136442516E+01  0.00000000000E+00 0.  1.
         14    1    3    3    0    0 -0.81864357991E+01 -0.35958405321E+02 -0.14765801202E+04  0.14770405804E+04  0.00000000000E+00 0. -1.
         21    1    1    2  502  501  0.74887152542E+01  0.39273248364E+02 -0.20365216957E+03  0.20753957470E+03  0.00000000000E+00 0.  1.
<mgrwt>
<rscale>  1 0.88586202E+02</rscale>
<asrwt>0</asrwt>
<pdfrwt beam="1">  1        2 0.25923485E+00 0.88586202E+02</pdfrwt>
<pdfrwt beam="2">  1       -1 0.50304674E-03 0.88586202E+02</pdfrwt>
<totfact> 0.57406734E+04</totfact>
</mgrwt>
</event>
<event>
 6    2  0.1655576E+001  0.9535210E+02  0.7546771E-02  0.1290385E+00
          2   -1    0    0  502    0  0.00000000000E+00  0.00000000000E+00  0.30829958247E+02  0.30829958247E+02  0.00000000000E+00 0. -1.
         -1   -1    0    0    0  501 -0.00000000000E+00 -0.00000000000E+00 -0.19219035286E+03  0.19219035286E+03  0.00000000000E+00 0.  1.
         24    2    1    2    0    0  0.50008383059E+02  0.62987956648E+01 -0.68648923184E+02  0.11749339446E+03  0.80941397839E+02 0.  0.
        -11    1    3    3    0    0 -0.20113941459E+02  0.14070106737E+02 -0.21559753116E+02  0.32670498910E+02  0.00000000000E+00 0.  1.
         12    1    3    3    0    0  0.70122324518E+02 -0.77713110726E+01 -0.47089170068E+02  0.84822895549E+02  0.00000000000E+00 0. -1.
         21    1    1    2  502  501 -0.50008383059E+02 -0.62987956648E+01 -0.92711471433E+02  0.10552691665E+03  0.00000000000E+00 0.  1.
<mgrwt>
<rscale>  1 0.95352101E+02</rscale>
<asrwt>0</asrwt>
<pdfrwt beam="1">  1        2 0.47430705E-02 0.95352101E+02</pdfrwt>
<pdfrwt beam="2">  1       -1 0.29567747E-01 0.95352101E+02</pdfrwt>
<totfact> 0.18026502E+04</totfact>
</mgrwt>
</event>
<event>
 6    2  0.1655576E+001  0.8362171E+02  0.7546771E-02  0.1319077E+00
          2   -1    0    0  502    0  0.00000000000E+00  0.00000000000E+00  0.20888123834E+04  0.20888123834E+04  0.00000000000E+00 0. -1.
         -1   -1    0    0    0  501 -0.00000000000E+00 -0.00000000000E+00 -0.37029576237E+01  0.37029576237E+01  0.00000000000E+00 0.  1.
         24    2    1    2    0    0  0.23485242145E+02 -0.18701482188E+02  0.20084040419E+04  0.20101441206E+04  0.78046704681E+02 0.  0.
        -11    1    3    3    0    0 -0.24575487193E+00 -0.28332696128E+02  0.25773259153E+03  0.25928534629E+03  0.00000000000E+00 0.  1.
         12    1    3    3    0    0  0.23730997017E+02  0.96312139393E+01  0.17506714504E+04  0.17508587743E+04  0.00000000000E+00 0. -1.
         21    1    1    2  502  501 -0.23485242145E+02  0.18701482188E+02  0.76705383841E+02  0.82371220367E+02  0.00000000000E+00 0.  1.
<mgrwt>
<rscale>  1 0.83621709E+02</rscale>
<asrwt>0</asrwt>
<pdfrwt beam="1">  1        2 0.32135481E+00 0.83621709E+02</pdfrwt>
<pdfrwt beam="2">  1       -1 0.56968746E-03 0.83621709E+02</pdfrwt>
<totfact> 0.30137743E+04</totfact>
</mgrwt>
</event>
<event>
 6    2  0.1655576E+001  0.8131182E+02  0.7546771E-02  0.1325369E+00
         -1   -1    0    0    0  501 -0.00000000000E+00  0.00000000000E+00  0.23309802830E+02  0.23309802830E+02  0.00000000000E+00 0.  1.
          2   -1    0    0  502    0  0.00000000000E+00 -0.00000000000E+00 -0.19861841941E+03  0.19861841941E+03  0.00000000000E+00 0. -1.
         24    2    1    2    0    0  0.23286646499E+02  0.16984373472E+01 -0.18053559082E+03  0.19800179639E+03  0.77887477973E+02 0.  0.
        -11    1    3    3    0    0  0.20545763984E+02 -0.21404225967E+02 -0.16981233145E+03  0.17238473604E+03  0.00000000000E+00 0.  1.
         12    1    3    3    0    0  0.27408825150E+01  0.23102663314E+02 -0.10723259366E+02  0.25617060342E+02  0.00000000000E+00 0. -1.
         21    1    1    2  502  501 -0.23286646499E+02 -0.16984373472E+01  0.52269742365E+01  0.23926425856E+02  0.00000000000E+00 0. -1.
<mgrwt>
<rscale>  1 0.81311818E+02</rscale>
<asrwt>0</asrwt>
<pdfrwt beam="1">  1        2 0.30556678E-01 0.81311818E+02</pdfrwt>
<pdfrwt beam="2">  1       -1 0.35861237E-02 0.81311818E+02</pdfrwt>
<totfact> 0.48569884E+04</totfact>
</mgrwt>
</event>
<event>
 6    2  0.1655576E+001  0.8107964E+02  0.7546771E-02  0.1326015E+00
         -1   -1    0    0    0  501 -0.00000000000E+00  0.00000000000E+00  0.22038099568E+02  0.22038099568E+02  0.00000000000E+00 0.  1.
          2   -1    0    0  502    0  0.00000000000E+00 -0.00000000000E+00 -0.13437143725E+03  0.13437143725E+03  0.00000000000E+00 0. -1.
         24    2    1    2    0    0 -0.17866126900E+02  0.20392162686E+02 -0.91231521529E+02  0.12205367219E+03  0.76412496261E+02 0.  0.
        -13    1    3    3    0    0 -0.39770461685E+02 -0.57755678555E+01 -0.24403487517E+02  0.47016773705E+02  0.00000000000E+00 0.  1.
         14    1    3    3    0    0  0.21904334785E+02  0.26167730542E+02 -0.66828034012E+02  0.75036898483E+02  0.00000000000E+00 0. -1.
         21    1    1    2  502  501  0.17866126900E+02 -0.20392162686E+02 -0.21101816153E+02  0.34355864629E+02  0.00000000000E+00 0.  1.
<mgrwt>
<rscale>  1 0.81079642E+02</rscale>
<asrwt>0</asrwt>
<pdfrwt beam="1">  1        2 0.20672529E-01 0.81079642E+02</pdfrwt>
<pdfrwt beam="2">  1       -1 0.33904769E-02 0.81079642E+02</pdfrwt>
<totfact> 0.80431514E+04</totfact>
</mgrwt>
</event>
<event>
 6    2  0.1655576E+001  0.1056298E+03  0.7546771E-02  0.1268884E+00
          2   -1    0    0  502    0  0.00000000000E+00  0.00000000000E+00  0.16371559769E+04  0.16371559769E+04  0.00000000000E+00 0. -1.
         -1   -1    0    0    0  501 -0.00000000000E+00 -0.00000000000E+00 -0.73863891930E+01  0.73863891930E+01  0.00000000000E+00 0.  1.
         24    2    1    2    0    0  0.26521971806E+01 -0.67796674552E+02  0.14232217102E+04  0.14271361819E+04  0.80958149843E+02 0.  0.
        -13    1    3    3    0    0 -0.37768916546E+02 -0.19148179631E+02  0.55298220270E+03  0.55460117233E+03  0.00000000000E+00 0.  1.
         14    1    3    3    0    0  0.40421113726E+02 -0.48648494921E+02  0.87023950751E+03  0.87253500956E+03  0.00000000000E+00 0. -1.
         21    1    1    2  502  501 -0.26521971806E+01  0.67796674552E+02  0.20654787752E+03  0.21740618422E+03  0.00000000000E+00 0.  1.
<mgrwt>
<rscale>  1 0.10562976E+03</rscale>
<asrwt>0</asrwt>
<pdfrwt beam="1">  1        2 0.25186986E+00 0.10562976E+03</pdfrwt>
<pdfrwt beam="2">  1       -1 0.11363689E-02 0.10562976E+03</pdfrwt>
<totfact> 0.19539127E+04</totfact>
</mgrwt>
</event>
<event>
 6    2  0.1655576E+001  0.8330652E+02  0.7546771E-02  0.1319922E+00
          2   -1    0    0  502    0  0.00000000000E+00  0.00000000000E+00  0.19667635723E+03  0.19667635723E+03  0.00000000000E+00 0. -1.
         -1   -1    0    0    0  501 -0.00000000000E+00 -0.00000000000E+00 -0.24293279635E+02  0.24293279635E+02  0.00000000000E+00 0.  1.
         24    2    1    2    0    0 -0.83550090363E+01  0.19407645182E+02  0.18013280996E+03  0.19846361058E+03  0.80582334480E+02 0.  0.
        -13    1    3    3    0    0 -0.40969393969E+02 -0.57338665792E+00  0.62193064770E+02  0.74476824046E+02  0.00000000000E+00 0.  1.
         14    1    3    3    0    0  0.32614384933E+02  0.19981031840E+02  0.11793974519E+03  0.12398678653E+03  0.00000000000E+00 0. -1.
         21    1    1    2  502  501  0.83550090363E+01 -0.19407645182E+02 -0.77497323683E+01  0.22506026288E+02  0.00000000000E+00 0.  1.
<mgrwt>
<rscale>  1 0.83306515E+02</rscale>
<asrwt>0</asrwt>
<pdfrwt beam="1">  1        2 0.30257900E-01 0.83306515E+02</pdfrwt>
<pdfrwt beam="2">  1       -1 0.37374278E-02 0.83306515E+02</pdfrwt>
<totfact> 0.46388324E+04</totfact>
</mgrwt>
</event>
<event>
 6    2  0.1655576E+001  0.8751335E+02  0.7546771E-02  0.1308988E+00
          2   -1    0    0  502    0  0.00000000000E+00  0.00000000000E+00  0.11430529557E+03  0.11430529557E+03  0.00000000000E+00 0. -1.
         -1   -1    0    0    0  501 -0.00000000000E+00 -0.00000000000E+00 -0.32477627990E+02  0.32477627990E+02  0.00000000000E+00 0.  1.
         24    2    1    2    0    0  0.25598975576E+02 -0.18110365176E+02  0.73640026804E+02  0.11437412323E+03  0.81702470216E+02 0.  0.
        -13    1    3    3    0    0 -0.29549981694E+02 -0.29180727914E+00  0.25494669547E+02  0.39029024391E+02  0.00000000000E+00 0.  1.
         14    1    3    3    0    0  0.55148957270E+02 -0.17818557896E+02  0.48145357257E+02  0.75345098838E+02  0.00000000000E+00 0. -1.
         21    1    1    2  502  501 -0.25598975576E+02  0.18110365176E+02  0.81876407743E+01  0.32408800329E+02  0.00000000000E+00 0.  1.
<mgrwt>
<rscale>  1 0.87513351E+02</rscale>
<asrwt>0</asrwt>
<pdfrwt beam="1">  1        2 0.17585430E-01 0.87513351E+02</pdfrwt>
<pdfrwt beam="2">  1       -1 0.49965582E-02 0.87513351E+02</pdfrwt>
<totfact> 0.55550677E+04</totfact>
</mgrwt>
</event>
<event>
 6    2  0.1655576E+001  0.8740733E+02  0.7546771E-02  0.1309255E+00
          2   -1    0    0  502    0  0.00000000000E+00  0.00000000000E+00  0.48286608631E+03  0.48286608631E+03  0.00000000000E+00 0. -1.
         -1   -1    0    0    0  501 -0.00000000000E+00 -0.00000000000E+00 -0.71199009363E+01  0.71199009363E+01  0.00000000000E+00 0.  1.
         24    2    1    2    0    0  0.29231490398E+02 -0.97939079388E-01  0.37725327305E+03  0.38724678635E+03  0.82374461382E+02 0.  0.
        -13    1    3    3    0    0  0.25000201402E+02 -0.23872832948E+02  0.61322081087E+02  0.70394032787E+02  0.00000000000E+00 0.  1.
         14    1    3    3    0    0  0.42312889956E+01  0.23774893869E+02  0.31593119196E+03  0.31685275356E+03  0.00000000000E+00 0. -1.
         21    1    1    2  502  501 -0.29231490398E+02  0.97939079388E-01  0.98492912320E+02  0.10273920089E+03  0.00000000000E+00 0.  1.
<mgrwt>
<rscale>  1 0.87407331E+02</rscale>
<asrwt>0</asrwt>
<pdfrwt beam="1">  1        2 0.74287064E-01 0.87407331E+02</pdfrwt>
<pdfrwt beam="2">  1       -1 0.10953698E-02 0.87407331E+02</pdfrwt>
<totfact> 0.10454332E+05</totfact>
</mgrwt>
</event>
<event>
 6    2  0.1655576E+001  0.8772657E+02  0.7546771E-02  0.1308452E+00
         -1   -1    0    0    0  501 -0.00000000000E+00  0.00000000000E+00  0.78486684700E+02  0.78486684700E+02  0.00000000000E+00 0.  1.
          2   -1    0    0  502    0  0.00000000000E+00 -0.00000000000E+00 -0.10336014642E+03  0.10336014642E+03  0.00000000000E+00 0. -1.
         24    2    1    2    0    0  0.30523023360E+02 -0.17204414285E+02 -0.78545058595E+02  0.11775090974E+03  0.80425765089E+02 0.  0.
        -11    1    3    3    0    0  0.16543113462E+02 -0.35649783982E+02 -0.37766118742E+01  0.39482204830E+02  0.00000000000E+00 0.  1.
         12    1    3    3    0    0  0.13979909898E+02  0.18445369697E+02 -0.74768446721E+02  0.78268704915E+02  0.00000000000E+00 0. -1.
         21    1    1    2  502  501 -0.30523023360E+02  0.17204414285E+02  0.53671596875E+02  0.64095921375E+02  0.00000000000E+00 0.  1.
<mgrwt>
<rscale>  1 0.87726567E+02</rscale>
<asrwt>0</asrwt>
<pdfrwt beam="1">  1        2 0.15901561E-01 0.87726567E+02</pdfrwt>
<pdfrwt beam="2">  1       -1 0.12074875E-01 0.87726567E+02</pdfrwt>
<totfact> 0.16732517E+04</totfact>
</mgrwt>
</event>
<event>
 6    2  0.1655576E+001  0.8215107E+02  0.7546771E-02  0.1323055E+00
          2   -1    0    0  502    0  0.00000000000E+00  0.00000000000E+00  0.17074716583E+03  0.17074716583E+03  0.00000000000E+00 0. -1.
         -1   -1    0    0    0  501 -0.00000000000E+00 -0.00000000000E+00 -0.17029308764E+02  0.17029308764E+02  0.00000000000E+00 0.  1.
         24    2    1    2    0    0  0.52309938021E+01 -0.19990704693E+02  0.14191986304E+03  0.16398184845E+03  0.79509795154E+02 0.  0.
        -13    1    3    3    0    0  0.35870899786E+02 -0.17488259405E+02  0.36187855380E+02  0.53871342525E+02  0.00000000000E+00 0.  1.
         14    1    3    3    0    0 -0.30639905984E+02 -0.25024452877E+01  0.10573200766E+03  0.11011050592E+03  0.00000000000E+00 0. -1.
         21    1    1    2  502  501 -0.52309938021E+01  0.19990704693E+02  0.11797994024E+02  0.23794626143E+02  0.00000000000E+00 0.  1.
<mgrwt>
<rscale>  1 0.82151075E+02</rscale>
<asrwt>0</asrwt>
<pdfrwt beam="1">  1        2 0.26268794E-01 0.82151075E+02</pdfrwt>
<pdfrwt beam="2">  1       -1 0.26198938E-02 0.82151075E+02</pdfrwt>
<totfact> 0.89796285E+04</totfact>
</mgrwt>
</event>
<event>
 6    2  0.1655576E+001  0.9370972E+02  0.7546771E-02  0.1294109E+00
          2   -1    0    0  502    0  0.00000000000E+00  0.00000000000E+00  0.15424447018E+04  0.15424447018E+04  0.00000000000E+00 0. -1.
         -1   -1    0    0    0  501 -0.00000000000E+00 -0.00000000000E+00 -0.81608210489E+01  0.81608210489E+01  0.00000000000E+00 0.  1.
         24    2    1    2    0    0  0.46003166876E+02  0.68566400590E+01  0.14597175359E+04  0.14627223921E+04  0.81352363441E+02 0.  0.
        -13    1    3    3    0    0 -0.19640611576E+02 -0.13907581601E+02  0.30055738964E+03  0.30151935082E+03  0.00000000000E+00 0.  1.
         14    1    3    3    0    0  0.65643778451E+02  0.20764221660E+02  0.11591601462E+04  0.11612030413E+04  0.00000000000E+00 0. -1.
         21    1    1    2  502  501 -0.46003166876E+02 -0.68566400590E+01  0.74566344862E+02  0.87883130700E+02  0.00000000000E+00 0.  1.
<mgrwt>
<rscale>  1 0.93709722E+02</rscale>
<asrwt>0</asrwt>
<pdfrwt beam="1">  1        2 0.23729895E+00 0.93709722E+02</pdfrwt>
<pdfrwt beam="2">  1       -1 0.12555122E-02 0.93709722E+02</pdfrwt>
<totfact> 0.18806534E+04</totfact>
</mgrwt>
</event>
<event>
 6    2  0.1655576E+001  0.8277681E+02  0.7546771E-02  0.1321351E+00
          2   -1    0    0  502    0  0.00000000000E+00  0.00000000000E+00  0.29009767322E+03  0.29009767322E+03  0.00000000000E+00 0. -1.
         -1   -1    0    0    0  501 -0.00000000000E+00 -0.00000000000E+00 -0.10543373592E+02  0.10543373592E+02  0.00000000000E+00 0.  1.
         24    2    1    2    0    0  0.25498077378E+02 -0.63408332080E+01  0.18856049832E+03  0.20592974869E+03  0.78496125719E+02 0.  0.
        -13    1    3    3    0    0  0.18139467917E+02 -0.25489312385E+02  0.22325980902E+02  0.38434291530E+02  0.00000000000E+00 0.  1.
         14    1    3    3    0    0  0.73586094613E+01  0.19148479177E+02  0.16623451742E+03  0.16749545716E+03  0.00000000000E+00 0. -1.
         21    1    1    2  502  501 -0.25498077378E+02  0.63408332080E+01  0.90993801311E+02  0.94711298126E+02  0.00000000000E+00 0.  1.
<mgrwt>
<rscale>  1 0.82776808E+02</rscale>
<asrwt>0</asrwt>
<pdfrwt beam="1">  1        2 0.44630405E-01 0.82776808E+02</pdfrwt>
<pdfrwt beam="2">  1       -1 0.16220577E-02 0.82776808E+02</pdfrwt>
<totfact> 0.10163057E+05</totfact>
</mgrwt>
</event>
<event>
 6    2  0.1655576E+001  0.8562576E+02  0.7546771E-02  0.1313804E+00
         -1   -1    0    0    0  501 -0.00000000000E+00  0.00000000000E+00  0.11508662002E+02  0.11508662002E+02  0.00000000000E+00 0.  1.
          2   -1    0    0  502    0  0.00000000000E+00 -0.00000000000E+00 -0.37266082265E+03  0.37266082265E+03  0.00000000000E+00 0. -1.
         24    2    1    2    0    0 -0.25665564603E+02 -0.17623581619E+02 -0.32669690647E+03  0.33773160813E+03  0.79765021146E+02 0.  0.
        -13    1    3    3    0    0 -0.23718720346E+02 -0.42713755016E+02 -0.12085540295E+03  0.13035747383E+03  0.00000000000E+00 0.  1.
         14    1    3    3    0    0 -0.19468442564E+01  0.25090173398E+02 -0.20584150352E+03  0.20737413429E+03  0.00000000000E+00 0. -1.
         21    1    1    2  502  501  0.25665564603E+02  0.17623581619E+02 -0.34455254183E+02  0.46437876526E+02  0.00000000000E+00 0.  1.
<mgrwt>
<rscale>  1 0.85625758E+02</rscale>
<asrwt>0</asrwt>
<pdfrwt beam="1">  1        2 0.57332432E-01 0.85625758E+02</pdfrwt>
<pdfrwt beam="2">  1       -1 0.17705635E-02 0.85625758E+02</pdfrwt>
<totfact> 0.69460153E+04</totfact>
</mgrwt>
</event>
<event>
 6    2  0.1655576E+001  0.7315093E+02  0.7546771E-02  0.1349695E+00
          4   -1    0    0  502    0  0.00000000000E+00  0.00000000000E+00  0.44003084994E+02  0.44003084994E+02  0.00000000000E+00 0. -1.
         -3   -1    0    0    0  501 -0.00000000000E+00 -0.00000000000E+00 -0.73816092489E+02  0.73816092489E+02  0.00000000000E+00 0.  1.
         24    2    1    2    0    0  0.20375245200E+02 -0.24521262868E+01  0.92103923613E+01  0.73728483718E+02  0.70213207045E+02 0.  0.
        -13    1    3    3    0    0  0.27470760281E+02 -0.22571266198E+02 -0.17431590838E+02  0.39597538905E+02  0.00000000000E+00 0.  1.
         14    1    3    3    0    0 -0.70955150807E+01  0.20119139912E+02  0.26641983199E+02  0.34130944813E+02  0.00000000000E+00 0. -1.
         21    1    1    2  502  501 -0.20375245200E+02  0.24521262868E+01 -0.39023399857E+02  0.44090693765E+02  0.00000000000E+00 0.  1.
<mgrwt>
<rscale>  1 0.73150926E+02</rscale>
<asrwt>0</asrwt>
<pdfrwt beam="1">  1        4 0.67697054E-02 0.73150926E+02</pdfrwt>
<pdfrwt beam="2">  1       -3 0.11356322E-01 0.73150926E+02</pdfrwt>
<totfact> 0.14032446E+04</totfact>
</mgrwt>
</event>
<event>
 6    2  0.1655576E+001  0.9652584E+02  0.7546771E-02  0.1287776E+00
          2   -1    0    0  502    0  0.00000000000E+00  0.00000000000E+00  0.52193810451E+03  0.52193810451E+03  0.00000000000E+00 0. -1.
         -1   -1    0    0    0  501 -0.00000000000E+00 -0.00000000000E+00 -0.12452344170E+02  0.12452344170E+02  0.00000000000E+00 0.  1.
         24    2    1    2    0    0 -0.30247729828E+02  0.32720372263E+02  0.44902915084E+03  0.45928685654E+03  0.85625290434E+02 0.  0.
        -11    1    3    3    0    0  0.14490730100E+02  0.27205486906E+02  0.58125978656E+02  0.65793230437E+02  0.00000000000E+00 0.  1.
         12    1    3    3    0    0 -0.44738459928E+02  0.55148853574E+01  0.39090317218E+03  0.39349362610E+03  0.00000000000E+00 0. -1.
         21    1    1    2  502  501  0.30247729828E+02 -0.32720372263E+02  0.60456609502E+02  0.75103592146E+02  0.00000000000E+00 0.  1.
<mgrwt>
<rscale>  1 0.96525843E+02</rscale>
<asrwt>0</asrwt>
<pdfrwt beam="1">  1        2 0.80298153E-01 0.96525843E+02</pdfrwt>
<pdfrwt beam="2">  1       -1 0.19157457E-02 0.96525843E+02</pdfrwt>
<totfact> 0.44047965E+04</totfact>
</mgrwt>
</event>
<event>
 6    2  0.1655576E+001  0.8290829E+02  0.7546771E-02  0.1320995E+00
          2   -1    0    0  502    0  0.00000000000E+00  0.00000000000E+00  0.40984429115E+03  0.40984429115E+03  0.00000000000E+00 0. -1.
         -1   -1    0    0    0  501 -0.00000000000E+00 -0.00000000000E+00 -0.68001075282E+01  0.68001075282E+01  0.00000000000E+00 0.  1.
         24    2    1    2    0    0  0.20199124966E+02 -0.66179079422E+01  0.34525474947E+03  0.35506989053E+03  0.80137280772E+02 0.  0.
        -11    1    3    3    0    0  0.14512151575E+02 -0.34223494274E+01  0.65218739186E+01  0.16274208378E+02  0.00000000000E+00 0.  1.
         12    1    3    3    0    0  0.56869733918E+01 -0.31955585148E+01  0.33873287556E+03  0.33879568215E+03  0.00000000000E+00 0. -1.
         21    1    1    2  502  501 -0.20199124966E+02  0.66179079422E+01  0.57789434146E+02  0.61574508149E+02  0.00000000000E+00 0.  1.
<mgrwt>
<rscale>  1 0.82908293E+02</rscale>
<asrwt>0</asrwt>
<pdfrwt beam="1">  1        2 0.63052948E-01 0.82908293E+02</pdfrwt>
<pdfrwt beam="2">  1       -1 0.10461707E-02 0.82908293E+02</pdfrwt>
<totfact> 0.13166795E+05</totfact>
</mgrwt>
</event>
<event>
 6    2  0.1655576E+001  0.8246601E+02  0.7546771E-02  0.1322195E+00
          2   -1    0    0  502    0  0.00000000000E+00  0.00000000000E+00  0.25286711073E+02  0.25286711073E+02  0.00000000000E+00 0. -1.
         -1   -1    0    0    0  501 -0.00000000000E+00 -0.00000000000E+00 -0.11467015803E+03  0.11467015803E+03  0.00000000000E+00 0.  1.
         24    2    1    2    0    0 -0.27632473770E+01 -0.20874465324E+02 -0.53338526972E+02  0.98212227587E+02  0.79732454807E+02 0.  0.
        -13    1    3    3    0    0 -0.12796863243E+02  0.99111321003E+01 -0.62499818102E+02  0.64561734109E+02  0.00000000000E+00 0.  1.
         14    1    3    3    0    0  0.10033615866E+02 -0.30785597425E+02  0.91612911308E+01  0.33650493478E+02  0.00000000000E+00 0. -1.
         21    1    1    2  502  501  0.27632473770E+01  0.20874465324E+02 -0.36044919989E+02  0.41744641520E+02  0.00000000000E+00 0. -1.
<mgrwt>
<rscale>  1 0.82466012E+02</rscale>
<asrwt>0</asrwt>
<pdfrwt beam="1">  1        2 0.38902633E-02 0.82466012E+02</pdfrwt>
<pdfrwt beam="2">  1       -1 0.17641563E-01 0.82466012E+02</pdfrwt>
<totfact> 0.52587333E+04</totfact>
</mgrwt>
</event>
<event>
 6    2  0.1655576E+001  0.8729017E+02  0.7546771E-02  0.1309550E+00
         -1   -1    0    0    0  501 -0.00000000000E+00  0.00000000000E+00  0.32346632902E+02  0.32346632902E+02  0.00000000000E+00 0.  1.
          2   -1    0    0  502    0  0.00000000000E+00 -0.00000000000E+00 -0.10235324920E+03  0.10235324920E+03  0.00000000000E+00 0. -1.
         24    2    1    2    0    0 -0.41869510937E+01 -0.27309008803E+02 -0.56166186854E+02  0.10379891111E+03  0.82802541506E+02 0.  0.
        -11    1    3    3    0    0  0.15258519773E+02 -0.17633386517E+02  0.16101732892E+02  0.28337687765E+02  0.00000000000E+00 0.  1.
         12    1    3    3    0    0 -0.19445470867E+02 -0.96756222858E+01 -0.72267919746E+02  0.75461223342E+02  0.00000000000E+00 0. -1.
         21    1    1    2  502  501  0.41869510937E+01  0.27309008803E+02 -0.13840429445E+02  0.30900970996E+02  0.00000000000E+00 0.  1.
<mgrwt>
<rscale>  1 0.87290168E+02</rscale>
<asrwt>0</asrwt>
<pdfrwt beam="1">  1        2 0.15746653E-01 0.87290168E+02</pdfrwt>
<pdfrwt beam="2">  1       -1 0.49764052E-02 0.87290168E+02</pdfrwt>
<totfact> 0.63358958E+04</totfact>
</mgrwt>
</event>
<event>
 6    2  0.2613041E+001  0.8067965E+02  0.7546771E-02  0.1327134E+00
          2   -1    0    0  502    0  0.00000000000E+00  0.00000000000E+00  0.14319658800E+04  0.14319658800E+04  0.00000000000E+00 0. -1.
         -1   -1    0    0    0  501 -0.00000000000E+00 -0.00000000000E+00 -0.71662273502E+01  0.71662273502E+01  0.00000000000E+00 0.  1.
         24    2    1    2    0    0 -0.29454507118E+00 -0.20588871527E+02  0.22283019052E+03  0.23698628579E+03  0.78007803844E+02 0.  0.
        -13    1    3    3    0    0  0.11854450082E+02 -0.39384931376E+02  0.20287170050E+03  0.20699910065E+03  0.00000000000E+00 0.  1.
         14    1    3    3    0    0 -0.12148995153E+02  0.18796059849E+02  0.19958490020E+02  0.29987185145E+02  0.00000000000E+00 0. -1.
         21    1    1    2  502  501  0.29454507118E+00  0.20588871527E+02  0.12019694621E+04  0.12021458215E+04  0.00000000000E+00 0. -1.
<mgrwt>
<rscale>  1 0.80679650E+02</rscale>
<asrwt>0</asrwt>
<pdfrwt beam="1">  1        2 0.22030222E+00 0.80679650E+02</pdfrwt>
<pdfrwt beam="2">  1       -1 0.11024977E-02 0.80679650E+02</pdfrwt>
<totfact> 0.25441302E+04</totfact>
</mgrwt>
</event>
<event>
 6    2  0.1655576E+001  0.9082539E+02  0.7546771E-02  0.1300865E+00
         -1   -1    0    0    0  501 -0.00000000000E+00  0.00000000000E+00  0.25978753405E+02  0.25978753405E+02  0.00000000000E+00 0.  1.
          2   -1    0    0  502    0  0.00000000000E+00 -0.00000000000E+00 -0.27375302982E+03  0.27375302982E+03  0.00000000000E+00 0. -1.
         24    2    1    2    0    0 -0.31044995077E+02 -0.29863104471E+02 -0.64334763956E+02  0.11130234959E+03  0.79960330438E+02 0.  0.
        -13    1    3    3    0    0 -0.31010404574E+02 -0.51395709758E+02 -0.66590510261E+02  0.89651883585E+02  0.00000000000E+00 0.  1.
         14    1    3    3    0    0 -0.34590502068E-01  0.21532605288E+02  0.22557463049E+01  0.21650466008E+02  0.00000000000E+00 0. -1.
         21    1    1    2  502  501  0.31044995077E+02  0.29863104471E+02 -0.18343951246E+03  0.18842943363E+03  0.00000000000E+00 0. -1.
<mgrwt>
<rscale>  1 0.90825388E+02</rscale>
<asrwt>0</asrwt>
<pdfrwt beam="1">  1        2 0.42115852E-01 0.90825388E+02</pdfrwt>
<pdfrwt beam="2">  1       -1 0.39967311E-02 0.90825388E+02</pdfrwt>
<totfact> 0.30024428E+04</totfact>
</mgrwt>
</event>
<event>
 6    2  0.1655576E+001  0.9249156E+02  0.7546771E-02  0.1296928E+00
          2   -1    0    0  502    0  0.00000000000E+00  0.00000000000E+00  0.12940196422E+02  0.12940196422E+02  0.00000000000E+00 0. -1.
         -1   -1    0    0    0  501 -0.00000000000E+00 -0.00000000000E+00 -0.41097525008E+03  0.41097525008E+03  0.00000000000E+00 0.  1.
         24    2    1    2    0    0 -0.10485416119E+02  0.43039010840E+02 -0.19128017194E+03  0.21246833369E+03  0.81193523359E+02 0.  0.
        -11    1    3    3    0    0  0.20346999153E+02  0.28257423748E+02 -0.16685051151E+03  0.17044522745E+03  0.00000000000E+00 0.  1.
         12    1    3    3    0    0 -0.30832415272E+02  0.14781587092E+02 -0.24429660436E+02  0.42023106233E+02  0.00000000000E+00 0. -1.
         21    1    1    2  502  501  0.10485416119E+02 -0.43039010840E+02 -0.20675488172E+03  0.21144711282E+03  0.00000000000E+00 0. -1.
<mgrwt>
<rscale>  1 0.92491560E+02</rscale>
<asrwt>0</asrwt>
<pdfrwt beam="1">  1        2 0.19907992E-02 0.92491560E+02</pdfrwt>
<pdfrwt beam="2">  1       -1 0.63226969E-01 0.92491560E+02</pdfrwt>
<totfact> 0.14833021E+04</totfact>
</mgrwt>
</event>
<event>
 6    2  0.1655576E+001  0.8245055E+02  0.7546771E-02  0.1322238E+00
         -1   -1    0    0    0  501 -0.00000000000E+00  0.00000000000E+00  0.10772133277E+02  0.10772133277E+02  0.00000000000E+00 0.  1.
          2   -1    0    0  502    0  0.00000000000E+00 -0.00000000000E+00 -0.65802649282E+03  0.65802649282E+03  0.00000000000E+00 0. -1.
         24    2    1    2    0    0  0.18878764419E+02  0.12922606167E+02 -0.63927343012E+03  0.64456854705E+03  0.79212952807E+02 0.  0.
        -11    1    3    3    0    0  0.19696066904E+02  0.44366348035E+02 -0.30755268322E+03  0.31135985748E+03  0.00000000000E+00 0.  1.
         12    1    3    3    0    0 -0.81730248488E+00 -0.31443741868E+02 -0.33172074689E+03  0.33320868957E+03  0.00000000000E+00 0. -1.
         21    1    1    2  502  501 -0.18878764419E+02 -0.12922606167E+02 -0.79809294229E+01  0.24230079046E+02  0.00000000000E+00 0. -1.
<mgrwt>
<rscale>  1 0.82450551E+02</rscale>
<asrwt>0</asrwt>
<pdfrwt beam="1">  1        2 0.10123483E+00 0.82450551E+02</pdfrwt>
<pdfrwt beam="2">  1       -1 0.16572514E-02 0.82450551E+02</pdfrwt>
<totfact> 0.41058529E+04</totfact>
</mgrwt>
</event>
<event>
 6    2  0.1655576E+001  0.7498319E+02  0.7546771E-02  0.1343923E+00
         -1   -1    0    0    0  501 -0.00000000000E+00  0.00000000000E+00  0.96256388881E+00  0.96256388881E+00  0.00000000000E+00 0.  1.
          2   -1    0    0  502    0  0.00000000000E+00 -0.00000000000E+00 -0.27361773573E+04  0.27361773573E+04  0.00000000000E+00 0. -1.
         24    2    1    2    0    0  0.20741529817E+02 -0.13475866649E+02 -0.23007923978E+04  0.23020139305E+04  0.70786072035E+02 0.  0.
        -11    1    3    3    0    0  0.16467603216E+02  0.26845064272E+02 -0.69998993082E+03  0.70069803958E+03  0.00000000000E+00 0.  1.
         12    1    3    3    0    0  0.42739266011E+01 -0.40320930921E+02 -0.16008024670E+04  0.16013158909E+04  0.00000000000E+00 0. -1.
         21    1    1    2  502  501 -0.20741529817E+02  0.13475866649E+02 -0.43442239554E+03  0.43512599070E+03  0.00000000000E+00 0.  1.
<mgrwt>
<rscale>  1 0.74983185E+02</rscale>
<asrwt>0</asrwt>
<pdfrwt beam="1">  1        2 0.42094867E+00 0.74983185E+02</pdfrwt>
<pdfrwt beam="2">  1       -1 0.14808735E-03 0.74983185E+02</pdfrwt>
<totfact> 0.89263065E+04</totfact>
</mgrwt>
</event>
<event>
 6    2  0.1655576E+001  0.8467423E+02  0.7546771E-02  0.1316287E+00
          2   -1    0    0  502    0  0.00000000000E+00  0.00000000000E+00  0.34110929995E+03  0.34110929995E+03  0.00000000000E+00 0. -1.
         -1   -1    0    0    0  501 -0.00000000000E+00 -0.00000000000E+00 -0.12794131239E+02  0.12794131239E+02  0.00000000000E+00 0.  1.
         24    2    1    2    0    0 -0.33313658823E+02  0.68004038892E+01  0.29254292228E+03  0.30455063014E+03  0.77547917965E+02 0.  0.
        -11    1    3    3    0    0 -0.20406379162E+02 -0.28929450988E+02  0.66489272096E+02  0.75326998804E+02  0.00000000000E+00 0.  1.
         12    1    3    3    0    0 -0.12907279661E+02  0.35729854877E+02  0.22605365019E+03  0.22922363133E+03  0.00000000000E+00 0. -1.
         21    1    1    2  502  501  0.33313658823E+02 -0.68004038892E+01  0.35772246426E+02  0.49352801051E+02  0.00000000000E+00 0. -1.
<mgrwt>
<rscale>  1 0.84674228E+02</rscale>
<asrwt>0</asrwt>
<pdfrwt beam="1">  1        2 0.52478347E-01 0.84674228E+02</pdfrwt>
<pdfrwt beam="2">  1       -1 0.19683281E-02 0.84674228E+02</pdfrwt>
<totfact> 0.65436883E+04</totfact>
</mgrwt>
</event>
<event>
 6    2  0.1655576E+001  0.8346989E+02  0.7546771E-02  0.1319483E+00
          2   -1    0    0  502    0  0.00000000000E+00  0.00000000000E+00  0.10860891793E+02  0.10860891793E+02  0.00000000000E+00 0. -1.
         -1   -1    0    0    0  501 -0.00000000000E+00 -0.00000000000E+00 -0.25099023923E+03  0.25099023923E+03  0.00000000000E+00 0.  1.
         24    2    1    2    0    0  0.14626224780E+01 -0.20601155061E+02 -0.19999257793E+03  0.21671237693E+03  0.80874447350E+02 0.  0.
        -13    1    3    3    0    0 -0.18102827197E+02 -0.46906691335E+02 -0.13130530448E+03  0.14060239339E+03  0.00000000000E+00 0.  1.
         14    1    3    3    0    0  0.19565449675E+02  0.26305536275E+02 -0.68687273455E+02  0.76109983539E+02  0.00000000000E+00 0. -1.
         21    1    1    2  502  501 -0.14626224780E+01  0.20601155061E+02 -0.40136769510E+02  0.45138754093E+02  0.00000000000E+00 0. -1.
<mgrwt>
<rscale>  1 0.83469893E+02</rscale>
<asrwt>0</asrwt>
<pdfrwt beam="1">  1        2 0.16709064E-02 0.83469893E+02</pdfrwt>
<pdfrwt beam="2">  1       -1 0.38613882E-01 0.83469893E+02</pdfrwt>
<totfact> 0.45144559E+04</totfact>
</mgrwt>
</event>
<event>
 6    2  0.1655576E+001  0.8281883E+02  0.7546771E-02  0.1321237E+00
         -1   -1    0    0    0  501 -0.00000000000E+00  0.00000000000E+00  0.80801307177E+01  0.80801307177E+01  0.00000000000E+00 0.  1.
          2   -1    0    0  502    0  0.00000000000E+00 -0.00000000000E+00 -0.94002043792E+03  0.94002043792E+03  0.00000000000E+00 0. -1.
         24    2    1    2    0    0 -0.56403745347E+01 -0.20657574309E+02 -0.91972787520E+03  0.92344914481E+03  0.80002558885E+02 0.  0.
        -13    1    3    3    0    0  0.36373281310E+02 -0.18270113910E+02 -0.43910238626E+03  0.44098494110E+03  0.00000000000E+00 0.  1.
         14    1    3    3    0    0 -0.42013655845E+02 -0.23874603993E+01 -0.48062548894E+03  0.48246420371E+03  0.00000000000E+00 0. -1.
         21    1    1    2  502  501  0.56403745347E+01  0.20657574309E+02 -0.12212431998E+02  0.24651423824E+02  0.00000000000E+00 0. -1.
<mgrwt>
<rscale>  1 0.82818830E+02</rscale>
<asrwt>0</asrwt>
<pdfrwt beam="1">  1        2 0.14461862E+00 0.82818830E+02</pdfrwt>
<pdfrwt beam="2">  1       -1 0.12430963E-02 0.82818830E+02</pdfrwt>
<totfact> 0.40031340E+04</totfact>
</mgrwt>
</event>
<event>
 6    2  0.1655576E+001  0.8539097E+02  0.7546771E-02  0.1314413E+00
          4   -1    0    0  502    0  0.00000000000E+00  0.00000000000E+00  0.36236244424E+03  0.36236244424E+03  0.00000000000E+00 0. -1.
         -3   -1    0    0    0  501 -0.00000000000E+00 -0.00000000000E+00 -0.91222250706E+01  0.91222250706E+01  0.00000000000E+00 0.  1.
         24    2    1    2    0    0 -0.16498684611E+02  0.19088681513E+02  0.30872282376E+03  0.32031453300E+03  0.81578390436E+02 0.  0.
        -11    1    3    3    0    0  0.28184502670E+02  0.25037561648E+02  0.10225453750E+03  0.10898273315E+03  0.00000000000E+00 0.  1.
         12    1    3    3    0    0 -0.44683187281E+02 -0.59488801354E+01  0.20646828626E+03  0.21133179986E+03  0.00000000000E+00 0. -1.
         21    1    1    2  502  501  0.16498684611E+02 -0.19088681513E+02  0.44517395410E+02  0.51170136309E+02  0.00000000000E+00 0.  1.
<mgrwt>
<rscale>  1 0.85390972E+02</rscale>
<asrwt>0</asrwt>
<pdfrwt beam="1">  1        4 0.55748057E-01 0.85390972E+02</pdfrwt>
<pdfrwt beam="2">  1       -3 0.14034195E-02 0.85390972E+02</pdfrwt>
<totfact> 0.86166394E+03</totfact>
</mgrwt>
</event>
<event>
 6    2  0.1655576E+001  0.9049790E+02  0.7546771E-02  0.1301650E+00
         -3   -1    0    0    0  501 -0.00000000000E+00  0.00000000000E+00  0.13194294666E+02  0.13194294666E+02  0.00000000000E+00 0.  1.
          4   -1    0    0  502    0  0.00000000000E+00 -0.00000000000E+00 -0.35028337823E+03  0.35028337823E+03  0.00000000000E+00 0. -1.
         24    2    1    2    0    0  0.23868822798E+02 -0.25922098613E+02 -0.29508588705E+03  0.30865117916E+03  0.83355826196E+02 0.  0.
        -11    1    3    3    0    0 -0.25278577179E+02 -0.15991527636E+02 -0.48215753111E+02  0.56740587487E+02  0.00000000000E+00 0.  1.
         12    1    3    3    0    0  0.49147399977E+02 -0.99305709772E+01 -0.24687013394E+03  0.25191059167E+03  0.00000000000E+00 0. -1.
         21    1    1    2  502  501 -0.23868822798E+02  0.25922098613E+02 -0.42003196515E+02  0.54826493739E+02  0.00000000000E+00 0.  1.
<mgrwt>
<rscale>  1 0.90497899E+02</rscale>
<asrwt>0</asrwt>
<pdfrwt beam="1">  1        4 0.53889745E-01 0.90497899E+02</pdfrwt>
<pdfrwt beam="2">  1       -3 0.20298917E-02 0.90497899E+02</pdfrwt>
<totfact> 0.53931874E+03</totfact>
</mgrwt>
</event>
<event>
 6    2  0.1655576E+001  0.8486422E+02  0.7546771E-02  0.1315788E+00
          2   -1    0    0  502    0  0.00000000000E+00  0.00000000000E+00  0.73184722604E+03  0.73184722604E+03  0.00000000000E+00 0. -1.
         -1   -1    0    0    0  501 -0.00000000000E+00 -0.00000000000E+00 -0.49431768581E+01  0.49431768581E+01  0.00000000000E+00 0.  1.
         24    2    1    2    0    0  0.12585408716E+02  0.21030225499E+02  0.66192576487E+03  0.66734373034E+03  0.81248220475E+02 0.  0.
        -13    1    3    3    0    0  0.82190654970E+01 -0.24110301128E+02  0.87551134746E+02  0.91181472096E+02  0.00000000000E+00 0.  1.
         14    1    3    3    0    0  0.43663432185E+01  0.45140526628E+02  0.57437463012E+03  0.57616225825E+03  0.00000000000E+00 0. -1.
         21    1    1    2  502  501 -0.12585408716E+02 -0.21030225499E+02  0.64978284314E+02  0.69446672558E+02  0.00000000000E+00 0.  1.
<mgrwt>
<rscale>  1 0.84864222E+02</rscale>
<asrwt>0</asrwt>
<pdfrwt beam="1">  1        2 0.11259179E+00 0.84864222E+02</pdfrwt>
<pdfrwt beam="2">  1       -1 0.76048933E-03 0.84864222E+02</pdfrwt>
<totfact> 0.10924804E+05</totfact>
</mgrwt>
</event>
<event>
 6    2  0.1655576E+001  0.8330638E+02  0.7546771E-02  0.1319922E+00
          2   -1    0    0  502    0  0.00000000000E+00  0.00000000000E+00  0.13657008141E+04  0.13657008141E+04  0.00000000000E+00 0. -1.
         -1   -1    0    0    0  501 -0.00000000000E+00 -0.00000000000E+00 -0.24946174049E+01  0.24946174049E+01  0.00000000000E+00 0.  1.
         24    2    1    2    0    0  0.15708179788E+02  0.14790792878E+02  0.12603747114E+04  0.12631248417E+04  0.80463893816E+02 0.  0.
        -11    1    3    3    0    0  0.81235108702E+01  0.13567014095E+01  0.11447690127E+02  0.14102541502E+02  0.00000000000E+00 0.  1.
         12    1    3    3    0    0  0.75846689178E+01  0.13434091469E+02  0.12489270213E+04  0.12490223002E+04  0.00000000000E+00 0. -1.
         21    1    1    2  502  501 -0.15708179788E+02 -0.14790792878E+02  0.10283148526E+03  0.10507058973E+03  0.00000000000E+00 0. -1.
<mgrwt>
<rscale>  1 0.83306378E+02</rscale>
<asrwt>0</asrwt>
<pdfrwt beam="1">  1        2 0.21010722E+00 0.83306378E+02</pdfrwt>
<pdfrwt beam="2">  1       -1 0.38378838E-03 0.83306378E+02</pdfrwt>
<totfact> 0.12089831E+05</totfact>
</mgrwt>
</event>
<event>
 6    2  0.1655576E+001  0.8336616E+02  0.7546771E-02  0.1319761E+00
          2   -1    0    0  502    0  0.00000000000E+00  0.00000000000E+00  0.31449724412E+04  0.31449724412E+04  0.00000000000E+00 0. -1.
         -1   -1    0    0    0  501 -0.00000000000E+00 -0.00000000000E+00 -0.89213489448E+00  0.89213489448E+00  0.00000000000E+00 0.  1.
         24    2    1    2    0    0  0.49976792913E+01  0.21691874630E+02  0.25746972920E+04  0.25760465954E+04  0.80339290849E+02 0.  0.
        -11    1    3    3    0    0  0.18742710261E+02  0.34792664252E+02  0.23991266310E+04  0.23994521062E+04  0.00000000000E+00 0.  1.
         12    1    3    3    0    0 -0.13745030970E+02 -0.13100789622E+02  0.17557066107E+03  0.17659448913E+03  0.00000000000E+00 0. -1.
         21    1    1    2  502  501 -0.49976792913E+01 -0.21691874630E+02  0.56938301427E+03  0.56981798073E+03  0.00000000000E+00 0. -1.
<mgrwt>
<rscale>  1 0.83366155E+02</rscale>
<asrwt>0</asrwt>
<pdfrwt beam="1">  1        2 0.48383304E+00 0.83366155E+02</pdfrwt>
<pdfrwt beam="2">  1       -1 0.13725404E-03 0.83366155E+02</pdfrwt>
<totfact> 0.58990298E+04</totfact>
</mgrwt>
</event>
<event>
 6    2  0.1655576E+001  0.8242813E+02  0.7546771E-02  0.1322299E+00
          2   -1    0    0  502    0  0.00000000000E+00  0.00000000000E+00  0.88418859046E+02  0.88418859046E+02  0.00000000000E+00 0. -1.
         -1   -1    0    0    0  501 -0.00000000000E+00 -0.00000000000E+00 -0.36351903092E+02  0.36351903092E+02  0.00000000000E+00 0.  1.
         24    2    1    2    0    0  0.29373085362E+02 -0.79152085028E+01  0.43314986326E+02  0.93115973532E+02  0.76609188855E+02 0.  0.
        -11    1    3    3    0    0  0.15218654750E+02 -0.30259962512E+02 -0.85162775572E+01  0.34925631950E+02  0.00000000000E+00 0.  1.
         12    1    3    3    0    0  0.14154430612E+02  0.22344754010E+02  0.51831263883E+02  0.58190341582E+02  0.00000000000E+00 0. -1.
         21    1    1    2  502  501 -0.29373085362E+02  0.79152085028E+01  0.87519696281E+01  0.31654788606E+02  0.00000000000E+00 0.  1.
<mgrwt>
<rscale>  1 0.82428129E+02</rscale>
<asrwt>0</asrwt>
<pdfrwt beam="1">  1        2 0.13602901E-01 0.82428129E+02</pdfrwt>
<pdfrwt beam="2">  1       -1 0.55926005E-02 0.82428129E+02</pdfrwt>
<totfact> 0.62738278E+04</totfact>
</mgrwt>
</event>
<event>
 6    2  0.1655576E+001  0.9001571E+02  0.7546771E-02  0.1302814E+00
         -1   -1    0    0    0  501 -0.00000000000E+00  0.00000000000E+00  0.85594554631E+01  0.85594554631E+01  0.00000000000E+00 0.  1.
          2   -1    0    0  502    0  0.00000000000E+00 -0.00000000000E+00 -0.51406075927E+03  0.51406075927E+03  0.00000000000E+00 0. -1.
         24    2    1    2    0    0 -0.39942472307E+02  0.51445766267E+00 -0.39481087988E+03  0.40494253754E+03  0.80666982564E+02 0.  0.
        -11    1    3    3    0    0 -0.16416863733E+02  0.18385866300E+02 -0.29514221988E+02  0.38453124632E+02  0.00000000000E+00 0.  1.
         12    1    3    3    0    0 -0.23525608575E+02 -0.17871408637E+02 -0.36529665789E+03  0.36648941290E+03  0.00000000000E+00 0. -1.
         21    1    1    2  502  501  0.39942472307E+02 -0.51445766267E+00 -0.11069042393E+03  0.11767767719E+03  0.00000000000E+00 0.  1.
<mgrwt>
<rscale>  1 0.90015709E+02</rscale>
<asrwt>0</asrwt>
<pdfrwt beam="1">  1        2 0.79086268E-01 0.90015709E+02</pdfrwt>
<pdfrwt beam="2">  1       -1 0.13168394E-02 0.90015709E+02</pdfrwt>
<totfact> 0.75641189E+04</totfact>
</mgrwt>
</event>
<event>
 6    2  0.1655576E+001  0.8120775E+02  0.7546771E-02  0.1325659E+00
         -3   -1    0    0    0  501 -0.00000000000E+00  0.00000000000E+00  0.16094777695E+04  0.16094777695E+04  0.00000000000E+00 0.  1.
          4   -1    0    0  502    0  0.00000000000E+00 -0.00000000000E+00 -0.20083438527E+01  0.20083438527E+01  0.00000000000E+00 0. -1.
         24    2    1    2    0    0 -0.72917365057E+01  0.18880583808E+02  0.88100482658E+03  0.88473962416E+03  0.78645102981E+02 0.  0.
        -11    1    3    3    0    0 -0.21408046757E+02 -0.89784302240E+00  0.79707673780E+03  0.79736468227E+03  0.00000000000E+00 0.  1.
         12    1    3    3    0    0  0.14116310251E+02  0.19778426831E+02  0.83928088785E+02  0.87374941889E+02  0.00000000000E+00 0. -1.
         21    1    1    2  502  501  0.72917365057E+01 -0.18880583808E+02  0.72646459901E+03  0.72674648915E+03  0.00000000000E+00 0. -1.
<mgrwt>
<rscale>  1 0.81207746E+02</rscale>
<asrwt>0</asrwt>
<pdfrwt beam="1">  1        4 0.30897726E-03 0.81207746E+02</pdfrwt>
<pdfrwt beam="2">  1       -3 0.24761093E+00 0.81207746E+02</pdfrwt>
<totfact> 0.25790615E+03</totfact>
</mgrwt>
</event>
<event>
 6    2  0.1655576E+001  0.9303385E+02  0.7546771E-02  0.1295667E+00
          2   -1    0    0  502    0  0.00000000000E+00  0.00000000000E+00  0.18986108377E+02  0.18986108377E+02  0.00000000000E+00 0. -1.
         -1   -1    0    0    0  501 -0.00000000000E+00 -0.00000000000E+00 -0.35510803172E+03  0.35510803172E+03  0.00000000000E+00 0.  1.
         24    2    1    2    0    0 -0.40015168244E+02  0.27386385995E+02 -0.11602004893E+03  0.14871432079E+03  0.79398171446E+02 0.  0.
        -11    1    3    3    0    0  0.19170027833E+02  0.22494216007E+02 -0.60885275553E+02  0.67679365394E+02  0.00000000000E+00 0.  1.
         12    1    3    3    0    0 -0.59185196077E+02  0.48921699884E+01 -0.55134773373E+02  0.81034955401E+02  0.00000000000E+00 0. -1.
         21    1    1    2  502  501  0.40015168244E+02 -0.27386385995E+02 -0.22010187441E+03  0.22537981930E+03  0.00000000000E+00 0.  1.
<mgrwt>
<rscale>  1 0.93033851E+02</rscale>
<asrwt>0</asrwt>
<pdfrwt beam="1">  1        2 0.29209400E-02 0.93033851E+02</pdfrwt>
<pdfrwt beam="2">  1       -1 0.54631999E-01 0.93033851E+02</pdfrwt>
<totfact> 0.11671159E+04</totfact>
</mgrwt>
</event>
<event>
 6    2  0.1655576E+001  0.8648147E+02  0.7546771E-02  0.1311603E+00
          4   -1    0    0  502    0  0.00000000000E+00  0.00000000000E+00  0.35789085316E+03  0.35789085316E+03  0.00000000000E+00 0. -1.
         -3   -1    0    0    0  501 -0.00000000000E+00 -0.00000000000E+00 -0.53911298850E+02  0.53911298850E+02  0.00000000000E+00 0.  1.
         24    2    1    2    0    0  0.24883342275E+01  0.34374895420E+02  0.34646501672E+03  0.35709529906E+03  0.79317208487E+02 0.  0.
        -11    1    3    3    0    0 -0.12050886535E+02  0.34604917611E+02  0.60297451655E+02  0.70558535028E+02  0.00000000000E+00 0.  1.
         12    1    3    3    0    0  0.14539220763E+02 -0.23002219154E+00  0.28616756506E+03  0.28653676404E+03  0.00000000000E+00 0. -1.
         21    1    1    2  502  501 -0.24883342275E+01 -0.34374895420E+02 -0.42485462413E+02  0.54706852942E+02  0.00000000000E+00 0.  1.
<mgrwt>
<rscale>  1 0.86481471E+02</rscale>
<asrwt>0</asrwt>
<pdfrwt beam="1">  1        4 0.55060130E-01 0.86481471E+02</pdfrwt>
<pdfrwt beam="2">  1       -3 0.82940462E-02 0.86481471E+02</pdfrwt>
<totfact> 0.57243227E+02</totfact>
</mgrwt>
</event>
<event>
 6    2  0.1655576E+001  0.9364252E+02  0.7546771E-02  0.1294263E+00
          2   -1    0    0  502    0  0.00000000000E+00  0.00000000000E+00  0.99839618022E+03  0.99839618022E+03  0.00000000000E+00 0. -1.
         -1   -1    0    0    0  501 -0.00000000000E+00 -0.00000000000E+00 -0.94861963166E+01  0.94861963166E+01  0.00000000000E+00 0.  1.
         24    2    1    2    0    0 -0.38539470931E+02 -0.30070036111E+02  0.91171829869E+03  0.91651468993E+03  0.79871288857E+02 0.  0.
        -13    1    3    3    0    0  0.50864677338E+01 -0.60592576953E+01  0.74199973944E+01  0.10846341280E+02  0.00000000000E+00 0.  1.
         14    1    3    3    0    0 -0.43625938664E+02 -0.24010778416E+02  0.90429830130E+03  0.90566834865E+03  0.00000000000E+00 0. -1.
         21    1    1    2  502  501  0.38539470931E+02  0.30070036111E+02  0.77191685211E+02  0.91367686613E+02  0.00000000000E+00 0.  1.
<mgrwt>
<rscale>  1 0.93642515E+02</rscale>
<asrwt>0</asrwt>
<pdfrwt beam="1">  1        2 0.15359933E+00 0.93642515E+02</pdfrwt>
<pdfrwt beam="2">  1       -1 0.14594156E-02 0.93642515E+02</pdfrwt>
<totfact> 0.29819644E+04</totfact>
</mgrwt>
</event>
<event>
 6    2  0.1655576E+001  0.8682300E+02  0.7546771E-02  0.1310733E+00
          2   -1    0    0  502    0  0.00000000000E+00  0.00000000000E+00  0.60137961931E+03  0.60137961931E+03  0.00000000000E+00 0. -1.
         -1   -1    0    0    0  501 -0.00000000000E+00 -0.00000000000E+00 -0.14042340039E+02  0.14042340039E+02  0.00000000000E+00 0.  1.
         24    2    1    2    0    0  0.19354095753E+00  0.20766183484E+02  0.58826161933E+03  0.59463431304E+03  0.84302797303E+02 0.  0.
        -13    1    3    3    0    0  0.47171365394E+00 -0.99141653088E+00 -0.28852641789E+01  0.30870973245E+01  0.00000000000E+00 0.  1.
         14    1    3    3    0    0 -0.27817269640E+00  0.21757600015E+02  0.59114688351E+03  0.59154721571E+03  0.00000000000E+00 0. -1.
         21    1    1    2  502  501 -0.19354095753E+00 -0.20766183484E+02 -0.92434005783E+00  0.20787646311E+02  0.00000000000E+00 0.  1.
<mgrwt>
<rscale>  1 0.86823001E+02</rscale>
<asrwt>0</asrwt>
<pdfrwt beam="1">  1        2 0.92519922E-01 0.86823001E+02</pdfrwt>
<pdfrwt beam="2">  1       -1 0.21603605E-02 0.86823001E+02</pdfrwt>
<totfact> 0.31355843E+04</totfact>
</mgrwt>
</event>
<event>
 6    2  0.1655576E+001  0.8294097E+02  0.7546771E-02  0.1320907E+00
         -1   -1    0    0    0  501 -0.00000000000E+00  0.00000000000E+00  0.16270199765E+03  0.16270199765E+03  0.00000000000E+00 0.  1.
          2   -1    0    0  502    0  0.00000000000E+00 -0.00000000000E+00 -0.25849894592E+02  0.25849894592E+02  0.00000000000E+00 0. -1.
         24    2    1    2    0    0  0.14624752960E+02 -0.14205665457E+02  0.44795881692E+02  0.94264924836E+02  0.80396024203E+02 0.  0.
        -11    1    3    3    0    0 -0.15936892804E+02 -0.10021802956E+02  0.57800383310E+02  0.60789023660E+02  0.00000000000E+00 0.  1.
         12    1    3    3    0    0  0.30561645764E+02 -0.41838625008E+01 -0.13004501618E+02  0.33475901177E+02  0.00000000000E+00 0. -1.
         21    1    1    2  502  501 -0.14624752960E+02  0.14205665457E+02  0.92056221362E+02  0.94286967401E+02  0.00000000000E+00 0. -1.
<mgrwt>
<rscale>  1 0.82940973E+02</rscale>
<asrwt>0</asrwt>
<pdfrwt beam="1">  1        2 0.39769069E-02 0.82940973E+02</pdfrwt>
<pdfrwt beam="2">  1       -1 0.25031076E-01 0.82940973E+02</pdfrwt>
<totfact> 0.29294249E+04</totfact>
</mgrwt>
</event>
<event>
 6    2  0.1655576E+001  0.9074598E+02  0.7546771E-02  0.1301055E+00
          2   -1    0    0  502    0  0.00000000000E+00  0.00000000000E+00  0.18452922442E+03  0.18452922442E+03  0.00000000000E+00 0. -1.
         -1   -1    0    0    0  501 -0.00000000000E+00 -0.00000000000E+00 -0.23706006457E+02  0.23706006457E+02  0.00000000000E+00 0.  1.
         24    2    1    2    0    0 -0.15340057931E+02 -0.36757407295E+02  0.12633621511E+03  0.15554958071E+03  0.81537773086E+02 0.  0.
        -13    1    3    3    0    0 -0.15107543345E+02  0.23896253792E+02  0.55558860680E+02  0.62338237152E+02  0.00000000000E+00 0.  1.
         14    1    3    3    0    0 -0.23251458599E+00 -0.60653661087E+02  0.70777354435E+02  0.93211343553E+02  0.00000000000E+00 0. -1.
         21    1    1    2  502  501  0.15340057931E+02  0.36757407295E+02  0.34487002846E+02  0.52685650168E+02  0.00000000000E+00 0.  1.
<mgrwt>
<rscale>  1 0.90745980E+02</rscale>
<asrwt>0</asrwt>
<pdfrwt beam="1">  1        2 0.28389110E-01 0.90745980E+02</pdfrwt>
<pdfrwt beam="2">  1       -1 0.36470780E-02 0.90745980E+02</pdfrwt>
<totfact> 0.52050696E+04</totfact>
</mgrwt>
</event>
<event>
 6    2  0.1655576E+001  0.8349268E+02  0.7546771E-02  0.1319422E+00
         -1   -1    0    0    0  501 -0.00000000000E+00  0.00000000000E+00  0.30567531167E+01  0.30567531167E+01  0.00000000000E+00 0.  1.
          2   -1    0    0  502    0  0.00000000000E+00 -0.00000000000E+00 -0.15026146555E+04  0.15026146555E+04  0.00000000000E+00 0. -1.
         24    2    1    2    0    0  0.28293437262E+01 -0.20396946429E+02 -0.58978492363E+03  0.59566541222E+03  0.80913451067E+02 0.  0.
        -11    1    3    3    0    0  0.14616641096E+02 -0.44856582521E+02 -0.22616914701E+03  0.23103731788E+03  0.00000000000E+00 0.  1.
         12    1    3    3    0    0 -0.11787297370E+02  0.24459636091E+02 -0.36361577662E+03  0.36462809435E+03  0.00000000000E+00 0. -1.
         21    1    1    2  502  501 -0.28293437262E+01  0.20396946429E+02 -0.90977297879E+03  0.91000599643E+03  0.00000000000E+00 0. -1.
<mgrwt>
<rscale>  1 0.83492677E+02</rscale>
<asrwt>0</asrwt>
<pdfrwt beam="1">  1        2 0.23117085E+00 0.83492677E+02</pdfrwt>
<pdfrwt beam="2">  1       -1 0.47027101E-03 0.83492677E+02</pdfrwt>
<totfact> 0.77493759E+04</totfact>
</mgrwt>
</event>
<event>
 6    2  0.1655576E+001  0.8281312E+02  0.7546771E-02  0.1321253E+00
          2   -1    0    0  502    0  0.00000000000E+00  0.00000000000E+00  0.11765293295E+04  0.11765293295E+04  0.00000000000E+00 0. -1.
         -1   -1    0    0    0  501 -0.00000000000E+00 -0.00000000000E+00 -0.23363028012E+01  0.23363028012E+01  0.00000000000E+00 0.  1.
         24    2    1    2    0    0  0.14271337948E+02  0.14850134206E+02  0.10092060584E+04  0.10125980851E+04  0.80211070853E+02 0.  0.
        -11    1    3    3    0    0  0.42717458128E+02 -0.51329704294E+01  0.37907565465E+03  0.38150947637E+03  0.00000000000E+00 0.  1.
         12    1    3    3    0    0 -0.28446120180E+02  0.19983104636E+02  0.63013040379E+03  0.63108860868E+03  0.00000000000E+00 0. -1.
         21    1    1    2  502  501 -0.14271337948E+02 -0.14850134206E+02  0.16498696824E+03  0.16626754723E+03  0.00000000000E+00 0. -1.
<mgrwt>
<rscale>  1 0.82813124E+02</rscale>
<asrwt>0</asrwt>
<pdfrwt beam="1">  1        2 0.18100404E+00 0.82813124E+02</pdfrwt>
<pdfrwt beam="2">  1       -1 0.35943214E-03 0.82813124E+02</pdfrwt>
<totfact> 0.16675572E+05</totfact>
</mgrwt>
</event>
<event>
 6    2  0.1655576E+001  0.9952743E+02  0.7546771E-02  0.1281293E+00
          2   -1    0    0  502    0  0.00000000000E+00  0.00000000000E+00  0.16680449523E+03  0.16680449523E+03  0.00000000000E+00 0. -1.
         -1   -1    0    0    0  501 -0.00000000000E+00 -0.00000000000E+00 -0.40199640586E+02  0.40199640586E+02  0.00000000000E+00 0.  1.
         24    2    1    2    0    0  0.38650651701E+02 -0.37646504394E+02  0.45124558010E+02  0.10927915994E+03  0.83633587104E+02 0.  0.
        -11    1    3    3    0    0  0.92706523935E+01 -0.55781935911E+02  0.48621192302E+02  0.74576066607E+02  0.00000000000E+00 0.  1.
         12    1    3    3    0    0  0.29379999308E+02  0.18135431517E+02 -0.34966342914E+01  0.34703093335E+02  0.00000000000E+00 0. -1.
         21    1    1    2  502  501 -0.38650651701E+02  0.37646504394E+02  0.81480296636E+02  0.97724975875E+02  0.00000000000E+00 0. -1.
<mgrwt>
<rscale>  1 0.99527429E+02</rscale>
<asrwt>0</asrwt>
<pdfrwt beam="1">  1        2 0.25662230E-01 0.99527429E+02</pdfrwt>
<pdfrwt beam="2">  1       -1 0.61845602E-02 0.99527429E+02</pdfrwt>
<totfact> 0.27118105E+04</totfact>
</mgrwt>
</event>
<event>
 6    2  0.1655576E+001  0.9103152E+02  0.7546771E-02  0.1300373E+00
         -1   -1    0    0    0  501 -0.00000000000E+00  0.00000000000E+00  0.60432810337E+01  0.60432810337E+01  0.00000000000E+00 0.  1.
          2   -1    0    0  502    0  0.00000000000E+00 -0.00000000000E+00 -0.88637460938E+03  0.88637460938E+03  0.00000000000E+00 0. -1.
         24    2    1    2    0    0  0.37290532751E+02 -0.33368304580E+02 -0.67324629851E+03  0.67937273753E+03  0.76044134969E+02 0.  0.
        -11    1    3    3    0    0  0.19442584910E+02 -0.12012218711E+01 -0.34907906251E+02  0.39975229340E+02  0.00000000000E+00 0.  1.
         12    1    3    3    0    0  0.17847947841E+02 -0.32167082709E+02 -0.63833839226E+03  0.63939750819E+03  0.00000000000E+00 0. -1.
         21    1    1    2  502  501 -0.37290532751E+02  0.33368304580E+02 -0.20708502984E+03  0.21304515288E+03  0.00000000000E+00 0. -1.
<mgrwt>
<rscale>  1 0.91031522E+02</rscale>
<asrwt>0</asrwt>
<pdfrwt beam="1">  1        2 0.13636526E+00 0.91031522E+02</pdfrwt>
<pdfrwt beam="2">  1       -1 0.92973599E-03 0.91031522E+02</pdfrwt>
<totfact> 0.65750934E+04</totfact>
</mgrwt>
</event>
<event>
 6    2  0.1655576E+001  0.8508797E+02  0.7546771E-02  0.1315203E+00
          2   -1    0    0  502    0  0.00000000000E+00  0.00000000000E+00  0.14741511198E+04  0.14741511198E+04  0.00000000000E+00 0. -1.
         -1   -1    0    0    0  501 -0.00000000000E+00 -0.00000000000E+00 -0.21187063038E+01  0.21187063038E+01  0.00000000000E+00 0.  1.
         24    2    1    2    0    0 -0.23498441225E+02 -0.11653168314E+02  0.10654143453E+04  0.10688066665E+04  0.80944363960E+02 0.  0.
        -11    1    3    3    0    0 -0.22998062130E+02 -0.40400707150E+02  0.38681221011E+03  0.38959570569E+03  0.00000000000E+00 0.  1.
         12    1    3    3    0    0 -0.50037909503E+00  0.28747538836E+02  0.67860213519E+03  0.67921096079E+03  0.00000000000E+00 0. -1.
         21    1    1    2  502  501  0.23498441225E+02  0.11653168314E+02  0.40661806823E+03  0.40746315966E+03  0.00000000000E+00 0. -1.
<mgrwt>
<rscale>  1 0.85087973E+02</rscale>
<asrwt>0</asrwt>
<pdfrwt beam="1">  1        2 0.22679166E+00 0.85087973E+02</pdfrwt>
<pdfrwt beam="2">  1       -1 0.32595599E-03 0.85087973E+02</pdfrwt>
<totfact> 0.13378173E+05</totfact>
</mgrwt>
</event>
<event>
 6    2  0.1655576E+001  0.8064718E+02  0.7546771E-02  0.1327225E+00
         -1   -1    0    0    0  501 -0.00000000000E+00  0.00000000000E+00  0.80326276215E+01  0.80326276215E+01  0.00000000000E+00 0.  1.
          2   -1    0    0  502    0  0.00000000000E+00 -0.00000000000E+00 -0.36860375844E+03  0.36860375844E+03  0.00000000000E+00 0. -1.
         24    2    1    2    0    0  0.24405900102E+02 -0.16301338736E+01 -0.31199126660E+03  0.32224605141E+03  0.76848304581E+02 0.  0.
        -13    1    3    3    0    0  0.19943286305E+02  0.16805412255E+02 -0.30556572520E+02  0.40172884809E+02  0.00000000000E+00 0.  1.
         14    1    3    3    0    0  0.44626137971E+01 -0.18435546129E+02 -0.28143469408E+03  0.28207316660E+03  0.00000000000E+00 0. -1.
         21    1    1    2  502  501 -0.24405900102E+02  0.16301338736E+01 -0.48579864218E+02  0.54390334653E+02  0.00000000000E+00 0.  1.
<mgrwt>
<rscale>  1 0.80647177E+02</rscale>
<asrwt>0</asrwt>
<pdfrwt beam="1">  1        2 0.56708252E-01 0.80647177E+02</pdfrwt>
<pdfrwt beam="2">  1       -1 0.12357893E-02 0.80647177E+02</pdfrwt>
<totfact> 0.11584485E+05</totfact>
</mgrwt>
</event>
<event>
 6    2  0.1655576E+001  0.7246284E+02  0.7546771E-02  0.1351913E+00
          2   -1    0    0  502    0  0.00000000000E+00  0.00000000000E+00  0.22571658966E+03  0.22571658966E+03  0.00000000000E+00 0. -1.
         -1   -1    0    0    0  501 -0.00000000000E+00 -0.00000000000E+00 -0.23323105734E+02  0.23323105734E+02  0.00000000000E+00 0.  1.
         24    2    1    2    0    0  0.69281718045E+01 -0.22730339857E+02  0.21151743835E+03  0.22358553151E+03  0.68455790562E+02 0.  0.
        -11    1    3    3    0    0  0.13216312583E+02  0.14049123360E+02  0.17601948312E+02  0.26112781734E+02  0.00000000000E+00 0.  1.
         12    1    3    3    0    0 -0.62881407783E+01 -0.36779463217E+02  0.19391549004E+03  0.19747274978E+03  0.00000000000E+00 0. -1.
         21    1    1    2  502  501 -0.69281718045E+01  0.22730339857E+02 -0.91239544232E+01  0.25454163881E+02  0.00000000000E+00 0.  1.
<mgrwt>
<rscale>  1 0.72462840E+02</rscale>
<asrwt>0</asrwt>
<pdfrwt beam="1">  1        2 0.34725628E-01 0.72462840E+02</pdfrwt>
<pdfrwt beam="2">  1       -1 0.35881703E-02 0.72462840E+02</pdfrwt>
<totfact> 0.41739471E+04</totfact>
</mgrwt>
</event>
<event>
 6    2  0.1655576E+001  0.8050019E+02  0.7546771E-02  0.1327638E+00
         -1   -1    0    0    0  501 -0.00000000000E+00  0.00000000000E+00  0.14141136783E+01  0.14141136783E+01  0.00000000000E+00 0.  1.
          2   -1    0    0  502    0  0.00000000000E+00 -0.00000000000E+00 -0.20902647393E+04  0.20902647393E+04  0.00000000000E+00 0. -1.
         24    2    1    2    0    0 -0.22377201871E+02 -0.87676210039E+01 -0.18119019654E+04  0.18136893375E+04  0.76828837290E+02 0.  0.
        -13    1    3    3    0    0 -0.69031273949E+01  0.33945811892E+02 -0.69245731249E+03  0.69332322976E+03  0.00000000000E+00 0.  1.
         14    1    3    3    0    0 -0.15474074476E+02 -0.42713432896E+02 -0.11194446529E+04  0.11203661077E+04  0.00000000000E+00 0. -1.
         21    1    1    2  502  501  0.22377201871E+02  0.87676210039E+01 -0.27694866017E+03  0.27798951547E+03  0.00000000000E+00 0. -1.
<mgrwt>
<rscale>  1 0.80500190E+02</rscale>
<asrwt>0</asrwt>
<pdfrwt beam="1">  1        2 0.32157978E+00 0.80500190E+02</pdfrwt>
<pdfrwt beam="2">  1       -1 0.21755555E-03 0.80500190E+02</pdfrwt>
<totfact> 0.11424655E+05</totfact>
</mgrwt>
</event>
<event>
 6    2  0.1655576E+001  0.1009857E+03  0.7546771E-02  0.1278237E+00
          2   -1    0    0  502    0  0.00000000000E+00  0.00000000000E+00  0.18918630231E+03  0.18918630231E+03  0.00000000000E+00 0. -1.
         -1   -1    0    0    0  501 -0.00000000000E+00 -0.00000000000E+00 -0.49481263196E+02  0.49481263196E+02  0.00000000000E+00 0.  1.
         24    2    1    2    0    0 -0.62040927022E+02  0.40251909602E+01  0.18809266367E+02  0.10272247859E+03  0.79579144999E+02 0.  0.
        -11    1    3    3    0    0 -0.25692768722E+02 -0.18432989047E+02  0.43190758245E+02  0.53528824455E+02  0.00000000000E+00 0.  1.
         12    1    3    3    0    0 -0.36348158301E+02  0.22458180007E+02 -0.24381491878E+02  0.49193654136E+02  0.00000000000E+00 0. -1.
         21    1    1    2  502  501  0.62040927022E+02 -0.40251909602E+01  0.12089577275E+03  0.13594508692E+03  0.00000000000E+00 0. -1.
<mgrwt>
<rscale>  1 0.10098574E+03</rscale>
<asrwt>0</asrwt>
<pdfrwt beam="1">  1        2 0.29105585E-01 0.10098574E+03</pdfrwt>
<pdfrwt beam="2">  1       -1 0.76125021E-02 0.10098574E+03</pdfrwt>
<totfact> 0.17404946E+04</totfact>
</mgrwt>
</event>
<event>
 6    2  0.1655576E+001  0.9437399E+02  0.7546771E-02  0.1292592E+00
         -1   -1    0    0    0  501 -0.00000000000E+00  0.00000000000E+00  0.43057653372E+02  0.43057653372E+02  0.00000000000E+00 0.  1.
          2   -1    0    0  502    0  0.00000000000E+00 -0.00000000000E+00 -0.21889485556E+03  0.21889485556E+03  0.00000000000E+00 0. -1.
         24    2    1    2    0    0 -0.25338571787E+02 -0.29902597544E+02 -0.19624887616E+03  0.21776150313E+03  0.85850115259E+02 0.  0.
        -11    1    3    3    0    0 -0.36095667554E+02 -0.54423611149E+02 -0.11544148581E+03  0.13263319084E+03  0.00000000000E+00 0.  1.
         12    1    3    3    0    0  0.10757095766E+02  0.24521013605E+02 -0.80807390346E+02  0.85128312282E+02  0.00000000000E+00 0. -1.
         21    1    1    2  502  501  0.25338571787E+02  0.29902597544E+02  0.20411673970E+02  0.44191005808E+02  0.00000000000E+00 0.  1.
<mgrwt>
<rscale>  1 0.94373995E+02</rscale>
<asrwt>0</asrwt>
<pdfrwt beam="1">  1        2 0.33676131E-01 0.94373995E+02</pdfrwt>
<pdfrwt beam="2">  1       -1 0.66242544E-02 0.94373995E+02</pdfrwt>
<totfact> 0.18191933E+04</totfact>
</mgrwt>
</event>
<event>
 6    2  0.1655576E+001  0.8721810E+02  0.7546771E-02  0.1309732E+00
          2   -1    0    0  502    0  0.00000000000E+00  0.00000000000E+00  0.32739922716E+03  0.32739922716E+03  0.00000000000E+00 0. -1.
         -1   -1    0    0    0  501 -0.00000000000E+00 -0.00000000000E+00 -0.22014272349E+02  0.22014272349E+02  0.00000000000E+00 0.  1.
         24    2    1    2    0    0  0.28113230901E+02 -0.18786744030E+02  0.30323912390E+03  0.31553282518E+03  0.80397151674E+02 0.  0.
        -11    1    3    3    0    0  0.30744505773E+02 -0.44513633626E+02  0.13700665204E+03  0.14730074988E+03  0.00000000000E+00 0.  1.
         12    1    3    3    0    0 -0.26312748715E+01  0.25726889596E+02  0.16623247186E+03  0.16823207529E+03  0.00000000000E+00 0. -1.
         21    1    1    2  502  501 -0.28113230901E+02  0.18786744030E+02  0.21458309107E+01  0.33880674333E+02  0.00000000000E+00 0.  1.
<mgrwt>
<rscale>  1 0.87218103E+02</rscale>
<asrwt>0</asrwt>
<pdfrwt beam="1">  1        2 0.50369108E-01 0.87218103E+02</pdfrwt>
<pdfrwt beam="2">  1       -1 0.33868114E-02 0.87218103E+02</pdfrwt>
<totfact> 0.31502863E+04</totfact>
</mgrwt>
</event>
<event>
 6    2  0.1655576E+001  0.9292567E+02  0.7546771E-02  0.1295918E+00
          2   -1    0    0  502    0  0.00000000000E+00  0.00000000000E+00  0.28083909254E+01  0.28083909254E+01  0.00000000000E+00 0. -1.
         -1   -1    0    0    0  501 -0.00000000000E+00 -0.00000000000E+00 -0.21559998368E+04  0.21559998368E+04  0.00000000000E+00 0.  1.
         24    2    1    2    0    0  0.26144561907E+02 -0.39551200948E+02 -0.91435466010E+03  0.91906453752E+03  0.79920861283E+02 0.  0.
        -11    1    3    3    0    0  0.48884640240E+02 -0.26674623563E+02 -0.79173535013E+03  0.79369144398E+03  0.00000000000E+00 0.  1.
         12    1    3    3    0    0 -0.22740078333E+02 -0.12876577385E+02 -0.12261930997E+03  0.12537309354E+03  0.00000000000E+00 0. -1.
         21    1    1    2  502  501 -0.26144561907E+02  0.39551200948E+02 -0.12388367858E+04  0.12397436902E+04  0.00000000000E+00 0.  1.
<mgrwt>
<rscale>  1 0.92925668E+02</rscale>
<asrwt>0</asrwt>
<pdfrwt beam="1">  1        2 0.43205853E-03 0.92925668E+02</pdfrwt>
<pdfrwt beam="2">  1       -1 0.33169352E+00 0.92925668E+02</pdfrwt>
<totfact> 0.12674730E+03</totfact>
</mgrwt>
</event>
<event>
 6    2  0.1655576E+001  0.8079848E+02  0.7546771E-02  0.1326801E+00
         -1   -1    0    0    0  501 -0.00000000000E+00  0.00000000000E+00  0.44332505272E+01  0.44332505272E+01  0.00000000000E+00 0.  1.
          2   -1    0    0  502    0  0.00000000000E+00 -0.00000000000E+00 -0.60428439021E+03  0.60428439021E+03  0.00000000000E+00 0. -1.
         24    2    1    2    0    0  0.59620502486E+01 -0.21121653306E+02 -0.49968211884E+03  0.50617251400E+03  0.77760682584E+02 0.  0.
        -13    1    3    3    0    0  0.43143617508E+01 -0.21466993012E+02 -0.33708638252E+02  0.40195992326E+02  0.00000000000E+00 0.  1.
         14    1    3    3    0    0  0.16476884978E+01  0.34533970539E+00 -0.46597348059E+03  0.46597652167E+03  0.00000000000E+00 0. -1.
         21    1    1    2  502  501 -0.59620502486E+01  0.21121653306E+02 -0.10016902084E+03  0.10254512674E+03  0.00000000000E+00 0.  1.
<mgrwt>
<rscale>  1 0.80798478E+02</rscale>
<asrwt>0</asrwt>
<pdfrwt beam="1">  1        2 0.92966810E-01 0.80798478E+02</pdfrwt>
<pdfrwt beam="2">  1       -1 0.68203868E-03 0.80798478E+02</pdfrwt>
<totfact> 0.15729267E+05</totfact>
</mgrwt>
</event>
<event>
 6    2  0.1655576E+001  0.8607177E+02  0.7546771E-02  0.1312653E+00
          2   -1    0    0  502    0  0.00000000000E+00  0.00000000000E+00  0.12610646227E+04  0.12610646227E+04  0.00000000000E+00 0. -1.
         -1   -1    0    0    0  501 -0.00000000000E+00 -0.00000000000E+00 -0.67479934448E+01  0.67479934448E+01  0.00000000000E+00 0.  1.
         24    2    1    2    0    0 -0.38780694216E+01 -0.25672432837E+02  0.12274011168E+04  0.12304153162E+04  0.82062389157E+02 0.  0.
        -13    1    3    3    0    0 -0.19753341780E+01  0.22264847531E+02  0.12582282517E+03  0.12779283514E+03  0.00000000000E+00 0.  1.
         14    1    3    3    0    0 -0.19027352435E+01 -0.47937280368E+02  0.11015782916E+04  0.11026224811E+04  0.00000000000E+00 0. -1.
         21    1    1    2  502  501  0.38780694216E+01  0.25672432837E+02  0.26915512533E+02  0.37397299971E+02  0.00000000000E+00 0.  1.
<mgrwt>
<rscale>  1 0.86071766E+02</rscale>
<asrwt>0</asrwt>
<pdfrwt beam="1">  1        2 0.19400975E+00 0.86071766E+02</pdfrwt>
<pdfrwt beam="2">  1       -1 0.10381538E-02 0.86071766E+02</pdfrwt>
<totfact> 0.34197526E+04</totfact>
</mgrwt>
</event>
<event>
 6    2  0.1655576E+001  0.8390234E+02  0.7546771E-02  0.1318328E+00
          2   -1    0    0  502    0  0.00000000000E+00  0.00000000000E+00  0.95516354193E+03  0.95516354193E+03  0.00000000000E+00 0. -1.
         -1   -1    0    0    0  501 -0.00000000000E+00 -0.00000000000E+00 -0.30121811096E+01  0.30121811096E+01  0.00000000000E+00 0.  1.
         24    2    1    2    0    0  0.23068539083E+02 -0.42530401529E+00  0.77489679485E+03  0.77942584322E+03  0.80667614494E+02 0.  0.
        -11    1    3    3    0    0  0.11024635848E+01  0.30952971490E+02  0.14048090883E+03  0.14385474485E+03  0.00000000000E+00 0.  1.
         12    1    3    3    0    0  0.21966075498E+02 -0.31378275505E+02  0.63441588602E+03  0.63557109837E+03  0.00000000000E+00 0. -1.
         21    1    1    2  502  501 -0.23068539083E+02  0.42530401529E+00  0.17725456597E+03  0.17874987982E+03  0.00000000000E+00 0.  1.
<mgrwt>
<rscale>  1 0.83902339E+02</rscale>
<asrwt>0</asrwt>
<pdfrwt beam="1">  1        2 0.14694800E+00 0.83902339E+02</pdfrwt>
<pdfrwt beam="2">  1       -1 0.46341324E-03 0.83902339E+02</pdfrwt>
<totfact> 0.15668212E+05</totfact>
</mgrwt>
</event>
<event>
 6    2  0.1655576E+001  0.8345685E+02  0.7546771E-02  0.1319518E+00
          2   -1    0    0  502    0  0.00000000000E+00  0.00000000000E+00  0.56444985454E+01  0.56444985454E+01  0.00000000000E+00 0. -1.
         -1   -1    0    0    0  501 -0.00000000000E+00 -0.00000000000E+00 -0.55472186444E+03  0.55472186444E+03  0.00000000000E+00 0.  1.
         24    2    1    2    0    0 -0.19987356203E+02 -0.86701442665E+01 -0.33730289553E+03  0.34747415527E+03  0.80562891178E+02 0.  0.
        -13    1    3    3    0    0 -0.44091462356E+02 -0.75794291727E+01 -0.29811781253E+03  0.30145602490E+03  0.00000000000E+00 0.  1.
         14    1    3    3    0    0  0.24104106153E+02 -0.10907150938E+01 -0.39185083000E+02  0.46018130368E+02  0.00000000000E+00 0. -1.
         21    1    1    2  502  501  0.19987356203E+02  0.86701442665E+01 -0.21177447036E+03  0.21289220772E+03  0.00000000000E+00 0. -1.
<mgrwt>
<rscale>  1 0.83456847E+02</rscale>
<asrwt>0</asrwt>
<pdfrwt beam="1">  1        2 0.86838456E-03 0.83456847E+02</pdfrwt>
<pdfrwt beam="2">  1       -1 0.85341809E-01 0.83456847E+02</pdfrwt>
<totfact> 0.25014231E+04</totfact>
</mgrwt>
</event>
<event>
 6    2  0.1655576E+001  0.1105543E+03  0.7546771E-02  0.1259547E+00
          2   -1    0    0  502    0  0.00000000000E+00  0.00000000000E+00  0.37960954171E+03  0.37960954171E+03  0.00000000000E+00 0. -1.
         -1   -1    0    0    0  501 -0.00000000000E+00 -0.00000000000E+00 -0.51407411018E+02  0.51407411018E+02  0.00000000000E+00 0.  1.
         24    2    1    2    0    0 -0.33034117138E+02 -0.67617220597E+02  0.33754082332E+03  0.35518455466E+03  0.80987153598E+02 0.  0.
        -13    1    3    3    0    0 -0.26580543218E+01 -0.18831668485E+02  0.79369955413E+01  0.20608078244E+02  0.00000000000E+00 0.  1.
         14    1    3    3    0    0 -0.30376062817E+02 -0.48785552113E+02  0.32960382778E+03  0.33457647642E+03  0.00000000000E+00 0. -1.
         21    1    1    2  502  501  0.33034117138E+02  0.67617220597E+02 -0.93386926259E+01  0.75832398065E+02  0.00000000000E+00 0.  1.
<mgrwt>
<rscale>  1 0.11055433E+03</rscale>
<asrwt>0</asrwt>
<pdfrwt beam="1">  1        2 0.58401466E-01 0.11055433E+03</pdfrwt>
<pdfrwt beam="2">  1       -1 0.79088327E-02 0.11055433E+03</pdfrwt>
<totfact> 0.79299247E+03</totfact>
</mgrwt>
</event>
<event>
 6    2  0.1655576E+001  0.8648006E+02  0.7546771E-02  0.1311607E+00
         -1   -1    0    0    0  501 -0.00000000000E+00  0.00000000000E+00  0.79132574643E+01  0.79132574643E+01  0.00000000000E+00 0.  1.
          2   -1    0    0  502    0  0.00000000000E+00 -0.00000000000E+00 -0.11591540787E+04  0.11591540787E+04  0.00000000000E+00 0. -1.
         24    2    1    2    0    0 -0.35770085458E+02  0.41152412684E+01 -0.11053946227E+04  0.11087723266E+04  0.78628022938E+02 0.  0.
        -11    1    3    3    0    0 -0.24185992822E+02  0.28761614015E+02 -0.23784897614E+03  0.24079935245E+03  0.00000000000E+00 0.  1.
         12    1    3    3    0    0 -0.11584092636E+02 -0.24646372747E+02 -0.86754564661E+03  0.86797297414E+03  0.00000000000E+00 0. -1.
         21    1    1    2  502  501  0.35770085458E+02 -0.41152412684E+01 -0.45846198451E+02  0.58295009535E+02  0.00000000000E+00 0.  1.
<mgrwt>
<rscale>  1 0.86480057E+02</rscale>
<asrwt>0</asrwt>
<pdfrwt beam="1">  1        2 0.17833129E+00 0.86480057E+02</pdfrwt>
<pdfrwt beam="2">  1       -1 0.12174250E-02 0.86480057E+02</pdfrwt>
<totfact> 0.31019745E+04</totfact>
</mgrwt>
</event>
<event>
 6    2  0.1655576E+001  0.8304760E+02  0.7546771E-02  0.1320619E+00
         -1   -1    0    0    0  501 -0.00000000000E+00  0.00000000000E+00  0.53215117177E+01  0.53215117177E+01  0.00000000000E+00 0.  1.
          2   -1    0    0  502    0  0.00000000000E+00 -0.00000000000E+00 -0.80095253728E+03  0.80095253728E+03  0.00000000000E+00 0. -1.
         24    2    1    2    0    0 -0.19546738284E+01  0.19946617953E+02 -0.76607585275E+03  0.77056415461E+03  0.80592902160E+02 0.  0.
        -13    1    3    3    0    0  0.14416397094E+02  0.41766275458E+02 -0.25796514631E+03  0.26172174343E+03  0.00000000000E+00 0.  1.
         14    1    3    3    0    0 -0.16371070923E+02 -0.21819657504E+02 -0.50811070644E+03  0.50884241118E+03  0.00000000000E+00 0. -1.
         21    1    1    2  502  501  0.19546738284E+01 -0.19946617953E+02 -0.29555172814E+02  0.35709894394E+02  0.00000000000E+00 0.  1.
<mgrwt>
<rscale>  1 0.83047602E+02</rscale>
<asrwt>0</asrwt>
<pdfrwt beam="1">  1        2 0.12322335E+00 0.83047602E+02</pdfrwt>
<pdfrwt beam="2">  1       -1 0.81869492E-03 0.83047602E+02</pdfrwt>
<totfact> 0.88152191E+04</totfact>
</mgrwt>
</event>
<event>
 6    2  0.1655576E+001  0.8216945E+02  0.7546771E-02  0.1323005E+00
         -1   -1    0    0    0  501 -0.00000000000E+00  0.00000000000E+00  0.12631116949E+03  0.12631116949E+03  0.00000000000E+00 0.  1.
          2   -1    0    0  502    0  0.00000000000E+00 -0.00000000000E+00 -0.25431207289E+02  0.25431207289E+02  0.00000000000E+00 0. -1.
         24    2    1    2    0    0 -0.11598050602E+02 -0.21473321169E+02  0.52370541794E+02  0.97439686533E+02  0.78461459099E+02 0.  0.
        -13    1    3    3    0    0 -0.54841371918E+01 -0.40889250291E+02  0.62354799703E+02  0.74767155865E+02  0.00000000000E+00 0.  1.
         14    1    3    3    0    0 -0.61139134104E+01  0.19415929123E+02 -0.99842579089E+01  0.22672530668E+02  0.00000000000E+00 0. -1.
         21    1    1    2  502  501  0.11598050602E+02  0.21473321169E+02  0.48509420406E+02  0.54302690245E+02  0.00000000000E+00 0.  1.
<mgrwt>
<rscale>  1 0.82169452E+02</rscale>
<asrwt>0</asrwt>
<pdfrwt beam="1">  1        2 0.39124935E-02 0.82169452E+02</pdfrwt>
<pdfrwt beam="2">  1       -1 0.19432487E-01 0.82169452E+02</pdfrwt>
<totfact> 0.44810139E+04</totfact>
</mgrwt>
</event>
<event>
 6    2  0.1655576E+001  0.8257723E+02  0.7546771E-02  0.1321893E+00
          2   -1    0    0  502    0  0.00000000000E+00  0.00000000000E+00  0.15070239156E+04  0.15070239156E+04  0.00000000000E+00 0. -1.
         -1   -1    0    0    0  501 -0.00000000000E+00 -0.00000000000E+00 -0.21560835957E+01  0.21560835957E+01  0.00000000000E+00 0.  1.
         24    2    1    2    0    0 -0.44236733794E+01  0.20499669881E+02  0.13873655670E+04  0.13898209291E+04  0.79869849741E+02 0.  0.
        -11    1    3    3    0    0  0.84954664706E+01  0.46430790969E+02  0.57324063709E+03  0.57518068406E+03  0.00000000000E+00 0.  1.
         12    1    3    3    0    0 -0.12919139850E+02 -0.25931121088E+02  0.81412492995E+03  0.81464024501E+03  0.00000000000E+00 0. -1.
         21    1    1    2  502  501  0.44236733794E+01 -0.20499669881E+02  0.11750226492E+03  0.11935907009E+03  0.00000000000E+00 0. -1.
<mgrwt>
<rscale>  1 0.82577226E+02</rscale>
<asrwt>0</asrwt>
<pdfrwt beam="1">  1        2 0.23184899E+00 0.82577226E+02</pdfrwt>
<pdfrwt beam="2">  1       -1 0.33170637E-03 0.82577226E+02</pdfrwt>
<totfact> 0.12515533E+05</totfact>
</mgrwt>
</event>
<event>
 6    2  0.1655576E+001  0.1001247E+03  0.7546771E-02  0.1280034E+00
          2   -1    0    0  502    0  0.00000000000E+00  0.00000000000E+00  0.96506550602E+03  0.96506550602E+03  0.00000000000E+00 0. -1.
         -1   -1    0    0    0  501 -0.00000000000E+00 -0.00000000000E+00 -0.58695695444E+01  0.58695695444E+01  0.00000000000E+00 0.  1.
         24    2    1    2    0    0 -0.46186462748E+02 -0.25871622891E+01  0.75211623345E+03  0.75875146132E+03  0.88797909220E+02 0.  0.
        -13    1    3    3    0    0 -0.22758383528E+02  0.20463386204E+02  0.77343617247E+02  0.83178899516E+02  0.00000000000E+00 0.  1.
         14    1    3    3    0    0 -0.23428079220E+02 -0.23050548493E+02  0.67477261620E+03  0.67557256180E+03  0.00000000000E+00 0. -1.
         21    1    1    2  502  501  0.46186462748E+02  0.25871622891E+01  0.20707970303E+03  0.21218361425E+03  0.00000000000E+00 0. -1.
<mgrwt>
<rscale>  1 0.10012468E+03</rscale>
<asrwt>0</asrwt>
<pdfrwt beam="1">  1        2 0.14847149E+00 0.10012468E+03</pdfrwt>
<pdfrwt beam="2">  1       -1 0.90301147E-03 0.10012468E+03</pdfrwt>
<totfact> 0.62013368E+04</totfact>
</mgrwt>
</event>
<event>
 6    2  0.1655576E+001  0.8623270E+02  0.7546771E-02  0.1312240E+00
          2   -1    0    0  502    0  0.00000000000E+00  0.00000000000E+00  0.17512669710E+02  0.17512669710E+02  0.00000000000E+00 0. -1.
         -1   -1    0    0    0  501 -0.00000000000E+00 -0.00000000000E+00 -0.35837190048E+03  0.35837190048E+03  0.00000000000E+00 0.  1.
         24    2    1    2    0    0 -0.26673495160E+02  0.14537208660E+02 -0.95577676744E+02  0.12872905938E+03  0.80704849030E+02 0.  0.
        -11    1    3    3    0    0 -0.14099363416E+02  0.36786655703E+02 -0.95353424184E+02  0.10317134093E+03  0.00000000000E+00 0.  1.
         12    1    3    3    0    0 -0.12574131744E+02 -0.22249447043E+02 -0.22425255981E+00  0.25557718444E+02  0.00000000000E+00 0. -1.
         21    1    1    2  502  501  0.26673495160E+02 -0.14537208660E+02 -0.24528155402E+03  0.24715551081E+03  0.00000000000E+00 0.  1.
<mgrwt>
<rscale>  1 0.86232699E+02</rscale>
<asrwt>0</asrwt>
<pdfrwt beam="1">  1        2 0.26942569E-02 0.86232699E+02</pdfrwt>
<pdfrwt beam="2">  1       -1 0.55134138E-01 0.86232699E+02</pdfrwt>
<totfact> 0.12676581E+04</totfact>
</mgrwt>
</event>
<event>
 6    2  0.1655576E+001  0.8918086E+02  0.7546771E-02  0.1304848E+00
         -1   -1    0    0    0  501 -0.00000000000E+00  0.00000000000E+00  0.48171308196E+02  0.48171308196E+02  0.00000000000E+00 0.  1.
          2   -1    0    0  502    0  0.00000000000E+00 -0.00000000000E+00 -0.13907643830E+03  0.13907643830E+03  0.00000000000E+00 0. -1.
         24    2    1    2    0    0 -0.37439715602E+02  0.26061883705E+01 -0.11280189616E+03  0.14379670640E+03  0.80899323062E+02 0.  0.
        -13    1    3    3    0    0 -0.49474461723E+02 -0.27244449048E+02 -0.64248710510E+02  0.85544603389E+02  0.00000000000E+00 0.  1.
         14    1    3    3    0    0  0.12034746121E+02  0.29850637418E+02 -0.48553185647E+02  0.58252103008E+02  0.00000000000E+00 0. -1.
         21    1    1    2  502  501  0.37439715602E+02 -0.26061883705E+01  0.21896766052E+02  0.43451040100E+02  0.00000000000E+00 0.  1.
<mgrwt>
<rscale>  1 0.89180856E+02</rscale>
<asrwt>0</asrwt>
<pdfrwt beam="1">  1        2 0.21396375E-01 0.89180856E+02</pdfrwt>
<pdfrwt beam="2">  1       -1 0.74109707E-02 0.89180856E+02</pdfrwt>
<totfact> 0.25008769E+04</totfact>
</mgrwt>
</event>
<event>
 6    2  0.1655576E+001  0.8106222E+02  0.7546771E-02  0.1326064E+00
          2   -1    0    0  502    0  0.00000000000E+00  0.00000000000E+00  0.31597378808E+02  0.31597378808E+02  0.00000000000E+00 0. -1.
         -1   -1    0    0    0  501 -0.00000000000E+00 -0.00000000000E+00 -0.17588187131E+03  0.17588187131E+03  0.00000000000E+00 0.  1.
         24    2    1    2    0    0 -0.56466247700E+01 -0.22141096289E+02 -0.23283684121E+02  0.84339865090E+02  0.77775127007E+02 0.  0.
        -11    1    3    3    0    0  0.30865082699E+01 -0.28242276029E+02 -0.48923796802E+02  0.56574646107E+02  0.00000000000E+00 0.  1.
         12    1    3    3    0    0 -0.87331330399E+01  0.61011797398E+01  0.25640112681E+02  0.27765218983E+02  0.00000000000E+00 0. -1.
         21    1    1    2  502  501  0.56466247700E+01  0.22141096289E+02 -0.12100080838E+03  0.12313938502E+03  0.00000000000E+00 0.  1.
<mgrwt>
<rscale>  1 0.81062216E+02</rscale>
<asrwt>0</asrwt>
<pdfrwt beam="1">  1        2 0.48611351E-02 0.81062216E+02</pdfrwt>
<pdfrwt beam="2">  1       -1 0.27058750E-01 0.81062216E+02</pdfrwt>
<totfact> 0.19835418E+04</totfact>
</mgrwt>
</event>
<event>
 6    2  0.1655576E+001  0.8234970E+02  0.7546771E-02  0.1322513E+00
         -1   -1    0    0    0  501 -0.00000000000E+00  0.00000000000E+00  0.18357656927E+01  0.18357656927E+01  0.00000000000E+00 0.  1.
          2   -1    0    0  502    0  0.00000000000E+00 -0.00000000000E+00 -0.19422250711E+04  0.19422250711E+04  0.00000000000E+00 0. -1.
         24    2    1    2    0    0  0.17518704878E+02  0.13913598544E+02 -0.18015091586E+04  0.18033903409E+04  0.79252632689E+02 0.  0.
        -11    1    3    3    0    0 -0.80899947308E+01  0.86104094749E+01 -0.40527839616E+02  0.42214842769E+02  0.00000000000E+00 0.  1.
         12    1    3    3    0    0  0.25608699609E+02  0.53031890689E+01 -0.17609813190E+04  0.17611754981E+04  0.00000000000E+00 0. -1.
         21    1    1    2  502  501 -0.17518704878E+02 -0.13913598544E+02 -0.13888014677E+03  0.14067049589E+03  0.00000000000E+00 0. -1.
<mgrwt>
<rscale>  1 0.82349700E+02</rscale>
<asrwt>0</asrwt>
<pdfrwt beam="1">  1        2 0.29880331E+00 0.82349700E+02</pdfrwt>
<pdfrwt beam="2">  1       -1 0.28242601E-03 0.82349700E+02</pdfrwt>
<totfact> 0.94654845E+04</totfact>
</mgrwt>
</event>
<event>
 6    2  0.1655576E+001  0.9227206E+02  0.7546771E-02  0.1297441E+00
         -1   -1    0    0    0  501 -0.00000000000E+00  0.00000000000E+00  0.11624675651E+03  0.11624675651E+03  0.00000000000E+00 0.  1.
          2   -1    0    0  502    0  0.00000000000E+00 -0.00000000000E+00 -0.40826096701E+02  0.40826096701E+02  0.00000000000E+00 0. -1.
         24    2    1    2    0    0  0.42232150528E+01  0.44711269685E+02  0.43749220425E+02  0.10211820596E+03  0.80605213961E+02 0.  0.
        -13    1    3    3    0    0  0.38990127875E+02  0.41883486624E+02  0.30144728133E+02  0.64677362019E+02  0.00000000000E+00 0.  1.
         14    1    3    3    0    0 -0.34766912822E+02  0.28277830618E+01  0.13604492292E+02  0.37440843938E+02  0.00000000000E+00 0. -1.
         21    1    1    2  502  501 -0.42232150528E+01 -0.44711269685E+02  0.31671439383E+02  0.54954647255E+02  0.00000000000E+00 0.  1.
<mgrwt>
<rscale>  1 0.92272063E+02</rscale>
<asrwt>0</asrwt>
<pdfrwt beam="1">  1        2 0.62809380E-02 0.92272063E+02</pdfrwt>
<pdfrwt beam="2">  1       -1 0.17884116E-01 0.92272063E+02</pdfrwt>
<totfact> 0.28197287E+04</totfact>
</mgrwt>
</event>
<event>
 6    2  0.1655576E+001  0.8377636E+02  0.7546771E-02  0.1318664E+00
         -1   -1    0    0    0  501 -0.00000000000E+00  0.00000000000E+00  0.20210077597E+03  0.20210077597E+03  0.00000000000E+00 0.  1.
          2   -1    0    0  502    0  0.00000000000E+00 -0.00000000000E+00 -0.21062084933E+02  0.21062084933E+02  0.00000000000E+00 0. -1.
         24    2    1    2    0    0  0.13895383910E+02 -0.18734195999E+02  0.68452970603E+02  0.10818635791E+03  0.80463824546E+02 0.  0.
        -13    1    3    3    0    0  0.12372100098E+01 -0.17893611223E+02  0.85261561951E+02  0.87127756528E+02  0.00000000000E+00 0.  1.
         14    1    3    3    0    0  0.12658173900E+02 -0.84058477610E+00 -0.16808591348E+02  0.21058601386E+02  0.00000000000E+00 0. -1.
         21    1    1    2  502  501 -0.13895383910E+02  0.18734195999E+02  0.11258572043E+03  0.11497650299E+03  0.00000000000E+00 0. -1.
<mgrwt>
<rscale>  1 0.83776362E+02</rscale>
<asrwt>0</asrwt>
<pdfrwt beam="1">  1        2 0.32403209E-02 0.83776362E+02</pdfrwt>
<pdfrwt beam="2">  1       -1 0.31092426E-01 0.83776362E+02</pdfrwt>
<totfact> 0.26876172E+04</totfact>
</mgrwt>
</event>
<event>
 6    2  0.1655576E+001  0.1062170E+03  0.7546771E-02  0.1267740E+00
         -1   -1    0    0    0  501 -0.00000000000E+00  0.00000000000E+00  0.70603098080E+03  0.70603098080E+03  0.00000000000E+00 0.  1.
          2   -1    0    0  502    0  0.00000000000E+00 -0.00000000000E+00 -0.14631761538E+02  0.14631761538E+02  0.00000000000E+00 0. -1.
         24    2    1    2    0    0  0.63910124421E+02  0.29280644420E+02  0.22284331489E+03  0.24686268360E+03  0.79625256172E+02 0.  0.
        -11    1    3    3    0    0  0.30385484173E+02 -0.11772469327E+02  0.16589728005E+03  0.16906737181E+03  0.00000000000E+00 0.  1.
         12    1    3    3    0    0  0.33524640248E+02  0.41053113747E+02  0.56946034839E+02  0.77795311787E+02  0.00000000000E+00 0. -1.
         21    1    1    2  502  501 -0.63910124421E+02 -0.29280644420E+02  0.46855590437E+03  0.47380005874E+03  0.00000000000E+00 0.  1.
<mgrwt>
<rscale>  1 0.10621696E+03</rscale>
<asrwt>0</asrwt>
<pdfrwt beam="1">  1        2 0.22510408E-02 0.10621696E+03</pdfrwt>
<pdfrwt beam="2">  1       -1 0.10862012E+00 0.10621696E+03</pdfrwt>
<totfact> 0.41735640E+03</totfact>
</mgrwt>
</event>
<event>
 6    2  0.1655576E+001  0.1107794E+03  0.7546771E-02  0.1259133E+00
          2   -1    0    0  502    0  0.00000000000E+00  0.00000000000E+00  0.95469817580E+03  0.95469817580E+03  0.00000000000E+00 0. -1.
         -1   -1    0    0    0  501 -0.00000000000E+00 -0.00000000000E+00 -0.83274250999E+01  0.83274250999E+01  0.00000000000E+00 0.  1.
         24    2    1    2    0    0 -0.18722974934E+02 -0.47795712620E+02  0.80573040276E+03  0.81331024629E+03  0.98168706135E+02 0.  0.
        -13    1    3    3    0    0  0.10329605148E+02  0.27843976716E+02  0.20505378353E+03  0.20719324778E+03  0.00000000000E+00 0.  1.
         14    1    3    3    0    0 -0.29052580082E+02 -0.75639689337E+02  0.60067661922E+03  0.60611699852E+03  0.00000000000E+00 0. -1.
         21    1    1    2  502  501  0.18722974934E+02  0.47795712620E+02  0.14064034794E+03  0.14971535460E+03  0.00000000000E+00 0.  1.
<mgrwt>
<rscale>  1 0.11077940E+03</rscale>
<asrwt>0</asrwt>
<pdfrwt beam="1">  1        2 0.14687656E+00 0.11077940E+03</pdfrwt>
<pdfrwt beam="2">  1       -1 0.12811431E-02 0.11077940E+03</pdfrwt>
<totfact> 0.38725369E+04</totfact>
</mgrwt>
</event>
<event>
 6    2  0.1655576E+001  0.8050937E+02  0.7546771E-02  0.1327612E+00
         -1   -1    0    0    0  501 -0.00000000000E+00  0.00000000000E+00  0.33255400051E+02  0.33255400051E+02  0.00000000000E+00 0.  1.
          2   -1    0    0  502    0  0.00000000000E+00 -0.00000000000E+00 -0.97878956348E+02  0.97878956348E+02  0.00000000000E+00 0. -1.
         24    2    1    2    0    0 -0.20036566620E+02 -0.12863543719E+02 -0.70044657274E+02  0.10671462883E+03  0.76907887982E+02 0.  0.
        -13    1    3    3    0    0  0.61913127362E+01  0.68741213054E+01  0.13833754225E+02  0.16642074783E+02  0.00000000000E+00 0.  1.
         14    1    3    3    0    0 -0.26227879357E+02 -0.19737665024E+02 -0.83878411500E+02  0.90072554043E+02  0.00000000000E+00 0. -1.
         21    1    1    2  502  501  0.20036566620E+02  0.12863543719E+02  0.54211009770E+01  0.24419727573E+02  0.00000000000E+00 0.  1.
<mgrwt>
<rscale>  1 0.80509366E+02</rscale>
<asrwt>0</asrwt>
<pdfrwt beam="1">  1        2 0.15058301E-01 0.80509366E+02</pdfrwt>
<pdfrwt beam="2">  1       -1 0.51162154E-02 0.80509366E+02</pdfrwt>
<totfact> 0.63302323E+04</totfact>
</mgrwt>
</event>
<event>
 6    2  0.1655576E+001  0.9508303E+02  0.7546771E-02  0.1290989E+00
         -1   -1    0    0    0  501 -0.00000000000E+00  0.00000000000E+00  0.26074794804E+01  0.26074794804E+01  0.00000000000E+00 0.  1.
          2   -1    0    0  502    0  0.00000000000E+00 -0.00000000000E+00 -0.35383478329E+04  0.35383478329E+04  0.00000000000E+00 0. -1.
         24    2    1    2    0    0 -0.51303075964E+02 -0.19824709386E+01 -0.31906708783E+04  0.31920873167E+04  0.80030291818E+02 0.  0.
        -13    1    3    3    0    0 -0.13392987285E+02 -0.34034119873E+02 -0.20630622990E+04  0.20633864744E+04  0.00000000000E+00 0.  1.
         14    1    3    3    0    0 -0.37910088678E+02  0.32051648935E+02 -0.11276085794E+04  0.11287008422E+04  0.00000000000E+00 0. -1.
         21    1    1    2  502  501  0.51303075964E+02  0.19824709386E+01 -0.34506947507E+03  0.34886799570E+03  0.00000000000E+00 0.  1.
<mgrwt>
<rscale>  1 0.95083034E+02</rscale>
<asrwt>0</asrwt>
<pdfrwt beam="1">  1        2 0.54435692E+00 0.95083034E+02</pdfrwt>
<pdfrwt beam="2">  1       -1 0.40115385E-03 0.95083034E+02</pdfrwt>
<totfact> 0.76845661E+03</totfact>
</mgrwt>
</event>
<event>
 6    2  0.1655576E+001  0.8922054E+02  0.7546771E-02  0.1304750E+00
         -1   -1    0    0    0  501 -0.00000000000E+00  0.00000000000E+00  0.81190762219E+01  0.81190762219E+01  0.00000000000E+00 0.  1.
          2   -1    0    0  502    0  0.00000000000E+00 -0.00000000000E+00 -0.69709477673E+03  0.69709477673E+03  0.00000000000E+00 0. -1.
         24    2    1    2    0    0  0.23431672379E+02  0.28618206090E+02 -0.62483530709E+03  0.63117308676E+03  0.81192730433E+02 0.  0.
        -13    1    3    3    0    0  0.14402733531E+02  0.47525825974E+02 -0.20933452719E+03  0.21514434025E+03  0.00000000000E+00 0.  1.
         14    1    3    3    0    0  0.90289388478E+01 -0.18907619884E+02 -0.41550077990E+03  0.41602874651E+03  0.00000000000E+00 0. -1.
         21    1    1    2  502  501 -0.23431672379E+02 -0.28618206090E+02 -0.64140393419E+02  0.74040766191E+02  0.00000000000E+00 0.  1.
<mgrwt>
<rscale>  1 0.89220538E+02</rscale>
<asrwt>0</asrwt>
<pdfrwt beam="1">  1        2 0.10724541E+00 0.89220538E+02</pdfrwt>
<pdfrwt beam="2">  1       -1 0.12490879E-02 0.89220538E+02</pdfrwt>
<totfact> 0.57884896E+04</totfact>
</mgrwt>
</event>
<event>
 6    2  0.1655576E+001  0.9684374E+02  0.7546771E-02  0.1287077E+00
         -1   -1    0    0    0  501 -0.00000000000E+00  0.00000000000E+00  0.16353639445E+04  0.16353639445E+04  0.00000000000E+00 0.  1.
          2   -1    0    0  502    0  0.00000000000E+00 -0.00000000000E+00 -0.68264780802E+01  0.68264780802E+01  0.00000000000E+00 0. -1.
         24    2    1    2    0    0 -0.53974047134E+02 -0.40536945504E+01  0.14945369660E+04  0.14976713431E+04  0.80306159101E+02 0.  0.
        -13    1    3    3    0    0 -0.10817542359E+02 -0.31211432945E+02  0.99293477700E+03  0.99348409355E+03  0.00000000000E+00 0.  1.
         14    1    3    3    0    0 -0.43156504775E+02  0.27157738394E+02  0.50160218898E+03  0.50418724959E+03  0.00000000000E+00 0. -1.
         21    1    1    2  502  501  0.53974047134E+02  0.40536945504E+01  0.13400050046E+03  0.14451907946E+03  0.00000000000E+00 0. -1.
<mgrwt>
<rscale>  1 0.96843737E+02</rscale>
<asrwt>0</asrwt>
<pdfrwt beam="1">  1        2 0.10502287E-02 0.96843737E+02</pdfrwt>
<pdfrwt beam="2">  1       -1 0.25159414E+00 0.96843737E+02</pdfrwt>
<totfact> 0.11520280E+03</totfact>
</mgrwt>
</event>
<event>
 6    2  0.1655576E+001  0.8756567E+02  0.7546771E-02  0.1308856E+00
         -3   -1    0    0    0  501 -0.00000000000E+00  0.00000000000E+00  0.52760456679E+01  0.52760456679E+01  0.00000000000E+00 0.  1.
          4   -1    0    0  502    0  0.00000000000E+00 -0.00000000000E+00 -0.16174527445E+04  0.16174527445E+04  0.00000000000E+00 0. -1.
         24    2    1    2    0    0 -0.32646146268E+02  0.16697556171E+02 -0.15327175976E+04  0.15352169166E+04  0.79518348421E+02 0.  0.
        -13    1    3    3    0    0  0.11986152076E+02 -0.24083585535E+02 -0.42471342151E+03  0.42556453957E+03  0.00000000000E+00 0.  1.
         14    1    3    3    0    0 -0.44632298345E+02  0.40781141706E+02 -0.11080041761E+04  0.11096523771E+04  0.00000000000E+00 0. -1.
         21    1    1    2  502  501  0.32646146268E+02 -0.16697556171E+02 -0.79459101191E+02  0.87511873539E+02  0.00000000000E+00 0.  1.
<mgrwt>
<rscale>  1 0.87565672E+02</rscale>
<asrwt>0</asrwt>
<pdfrwt beam="1">  1        4 0.24883924E+00 0.87565672E+02</pdfrwt>
<pdfrwt beam="2">  1       -3 0.81169818E-03 0.87565672E+02</pdfrwt>
<totfact> 0.50769336E+02</totfact>
</mgrwt>
</event>
<event>
 6    2  0.1655576E+001  0.8931901E+02  0.7546771E-02  0.1304509E+00
         -1   -1    0    0    0  501 -0.00000000000E+00  0.00000000000E+00  0.10590092966E+03  0.10590092966E+03  0.00000000000E+00 0.  1.
          2   -1    0    0  502    0  0.00000000000E+00 -0.00000000000E+00 -0.55049614618E+02  0.55049614618E+02  0.00000000000E+00 0. -1.
         24    2    1    2    0    0 -0.11406224868E+02  0.16898433146E+02 -0.16280956383E+02  0.90790720481E+02  0.86961062414E+02 0.  0.
        -11    1    3    3    0    0 -0.15569475559E+02  0.27166624105E+02  0.29902586489E+02  0.43296636280E+02  0.00000000000E+00 0.  1.
         12    1    3    3    0    0  0.41632506903E+01 -0.10268190959E+02 -0.46183542872E+02  0.47494084201E+02  0.00000000000E+00 0. -1.
         21    1    1    2  502  501  0.11406224868E+02 -0.16898433146E+02  0.67132271423E+02  0.70159823795E+02  0.00000000000E+00 0.  1.
<mgrwt>
<rscale>  1 0.89319009E+02</rscale>
<asrwt>0</asrwt>
<pdfrwt beam="1">  1        2 0.84691715E-02 0.89319009E+02</pdfrwt>
<pdfrwt beam="2">  1       -1 0.16292451E-01 0.89319009E+02</pdfrwt>
<totfact> 0.22365020E+04</totfact>
</mgrwt>
</event>
<event>
 6    2  0.1655576E+001  0.9721822E+02  0.7546771E-02  0.1286257E+00
          2   -1    0    0  502    0  0.00000000000E+00  0.00000000000E+00  0.30630584611E+02  0.30630584611E+02  0.00000000000E+00 0. -1.
         -1   -1    0    0    0  501 -0.00000000000E+00 -0.00000000000E+00 -0.38777556743E+03  0.38777556743E+03  0.00000000000E+00 0.  1.
         24    2    1    2    0    0 -0.37157824767E+02 -0.38270495334E+02 -0.55221698303E+02  0.11180705797E+03  0.81277595270E+02 0.  0.
        -11    1    3    3    0    0 -0.73376590968E+00 -0.32605414703E+02 -0.65815567048E+02  0.73452980513E+02  0.00000000000E+00 0.  1.
         12    1    3    3    0    0 -0.36424058858E+02 -0.56650806312E+01  0.10593868745E+02  0.38354077452E+02  0.00000000000E+00 0. -1.
         21    1    1    2  502  501  0.37157824767E+02  0.38270495334E+02 -0.30192328451E+03  0.30659909407E+03  0.00000000000E+00 0.  1.
<mgrwt>
<rscale>  1 0.97218220E+02</rscale>
<asrwt>0</asrwt>
<pdfrwt beam="1">  1        2 0.47123979E-02 0.97218220E+02</pdfrwt>
<pdfrwt beam="2">  1       -1 0.59657777E-01 0.97218220E+02</pdfrwt>
<totfact> 0.53030636E+03</totfact>
</mgrwt>
</event>
<event>
 6    2  0.1655576E+001  0.9684655E+02  0.7546771E-02  0.1287071E+00
         -1   -1    0    0    0  501 -0.00000000000E+00  0.00000000000E+00  0.99562316243E+02  0.99562316243E+02  0.00000000000E+00 0.  1.
          2   -1    0    0  502    0  0.00000000000E+00 -0.00000000000E+00 -0.85762679555E+02  0.85762679555E+02  0.00000000000E+00 0. -1.
         24    2    1    2    0    0  0.12098935659E+02  0.49042933334E+02 -0.45857511751E+02  0.10715486778E+03  0.82629660239E+02 0.  0.
        -13    1    3    3    0    0 -0.47747735986E+01  0.49668590900E+02  0.81594448710E+01  0.50560299895E+02  0.00000000000E+00 0.  1.
         14    1    3    3    0    0  0.16873709258E+02 -0.62565756605E+00 -0.54016956622E+02  0.56594567887E+02  0.00000000000E+00 0. -1.
         21    1    1    2  502  501 -0.12098935659E+02 -0.49042933334E+02  0.59657148439E+02  0.78170128016E+02  0.00000000000E+00 0.  1.
<mgrwt>
<rscale>  1 0.96846550E+02</rscale>
<asrwt>0</asrwt>
<pdfrwt beam="1">  1        2 0.13194258E-01 0.96846550E+02</pdfrwt>
<pdfrwt beam="2">  1       -1 0.15317279E-01 0.96846550E+02</pdfrwt>
<totfact> 0.14555675E+04</totfact>
</mgrwt>
</event>
<event>
 6    2  0.1655576E+001  0.9697195E+02  0.7546771E-02  0.1286796E+00
          2   -1    0    0  502    0  0.00000000000E+00  0.00000000000E+00  0.82316943215E+02  0.82316943215E+02  0.00000000000E+00 0. -1.
         -1   -1    0    0    0  501 -0.00000000000E+00 -0.00000000000E+00 -0.69032735743E+02  0.69032735743E+02  0.00000000000E+00 0.  1.
         24    2    1    2    0    0  0.83223149492E+01 -0.38631586351E+02  0.38650918313E+02  0.10439086286E+03  0.88554493803E+02 0.  0.
        -13    1    3    3    0    0 -0.15136807265E+02 -0.18345664581E+02 -0.24431630682E+02  0.34096787545E+02  0.00000000000E+00 0.  1.
         14    1    3    3    0    0  0.23459122214E+02 -0.20285921770E+02  0.63082548995E+02  0.70294075318E+02  0.00000000000E+00 0. -1.
         21    1    1    2  502  501 -0.83223149492E+01  0.38631586351E+02 -0.25366710841E+02  0.46958816095E+02  0.00000000000E+00 0. -1.
<mgrwt>
<rscale>  1 0.96971948E+02</rscale>
<asrwt>0</asrwt>
<pdfrwt beam="1">  1        2 0.12664145E-01 0.96971948E+02</pdfrwt>
<pdfrwt beam="2">  1       -1 0.10620421E-01 0.96971948E+02</pdfrwt>
<totfact> 0.26812327E+04</totfact>
</mgrwt>
</event>
<event>
 6    2  0.1655576E+001  0.8751965E+02  0.7546771E-02  0.1308972E+00
         -1   -1    0    0    0  501 -0.00000000000E+00  0.00000000000E+00  0.30050861897E+01  0.30050861897E+01  0.00000000000E+00 0.  1.
          2   -1    0    0  502    0  0.00000000000E+00 -0.00000000000E+00 -0.16313727559E+04  0.16313727559E+04  0.00000000000E+00 0. -1.
         24    2    1    2    0    0  0.16591940517E+02 -0.28408320544E+02 -0.14713517653E+04  0.14739524096E+04  0.81100944602E+02 0.  0.
        -11    1    3    3    0    0  0.15697871600E+02 -0.29415601692E+02 -0.21249492095E+03  0.21509484472E+03  0.00000000000E+00 0.  1.
         12    1    3    3    0    0  0.89406891641E+00  0.10072811480E+01 -0.12588568444E+04  0.12588575649E+04  0.00000000000E+00 0. -1.
         21    1    1    2  502  501 -0.16591940517E+02  0.28408320544E+02 -0.15701590442E+03  0.16042543255E+03  0.00000000000E+00 0.  1.
<mgrwt>
<rscale>  1 0.87519646E+02</rscale>
<asrwt>0</asrwt>
<pdfrwt beam="1">  1        2 0.25098004E+00 0.87519646E+02</pdfrwt>
<pdfrwt beam="2">  1       -1 0.46232165E-03 0.87519646E+02</pdfrwt>
<totfact> 0.68652430E+04</totfact>
</mgrwt>
</event>
<event>
 6    2  0.1655576E+001  0.8953100E+02  0.7546771E-02  0.1303991E+00
         -1   -1    0    0    0  501 -0.00000000000E+00  0.00000000000E+00  0.26499065677E+01  0.26499065677E+01  0.00000000000E+00 0.  1.
          2   -1    0    0  502    0  0.00000000000E+00 -0.00000000000E+00 -0.17623147890E+04  0.17623147890E+04  0.00000000000E+00 0. -1.
         24    2    1    2    0    0  0.38734888407E+02  0.30851260211E+01 -0.14672912629E+04  0.14700202212E+04  0.80659102813E+02 0.  0.
        -11    1    3    3    0    0 -0.83184438240E+01  0.16926526936E+02 -0.95069551764E+02  0.96922254897E+02  0.00000000000E+00 0.  1.
         12    1    3    3    0    0  0.47053332231E+02 -0.13841400915E+02 -0.13722217112E+04  0.13730979663E+04  0.00000000000E+00 0. -1.
         21    1    1    2  502  501 -0.38734888407E+02 -0.30851260211E+01 -0.29237361947E+03  0.29494447434E+03  0.00000000000E+00 0.  1.
<mgrwt>
<rscale>  1 0.89531003E+02</rscale>
<asrwt>0</asrwt>
<pdfrwt beam="1">  1        2 0.27112567E+00 0.89531003E+02</pdfrwt>
<pdfrwt beam="2">  1       -1 0.40767745E-03 0.89531003E+02</pdfrwt>
<totfact> 0.70488812E+04</totfact>
</mgrwt>
</event>
