<event>
 4    1  0.6165923E-005  0.6010547E+03  0.7818608E-02  0.9903220E-01
          2   -1    0    0  501    0  0.00000000000E+00  0.00000000000E+00  0.28620349504E+03  0.28620349505E+03  0.25500000000E-02 0.  1.
         -2   -1    0    0    0  501 -0.00000000000E+00 -0.00000000000E+00 -0.31556813005E+03  0.31556813006E+03  0.25500000000E-02 0. -1.
    5000001    1    1    2    0    0  0.18568254173E+03  0.73208480706E+02 -0.13785430682E+03  0.30689623305E+03  0.18800000000E+03 0.  0.
   -5000001    1    1    2    0    0 -0.18568254173E+03 -0.73208480706E+02  0.10848967182E+03  0.29487539206E+03  0.18800000000E+03 0.  0.
<mgrwt>
<rscale>  0 0.60105475E+03</rscale>
<asrwt>0</asrwt>
<pdfrwt beam="1">  1        2 0.40886213E-01 0.60105475E+03</pdfrwt>
<pdfrwt beam="2">  1       -2 0.45081162E-01 0.60105475E+03</pdfrwt>
<totfact> 0.59053279E+02</totfact>
</mgrwt>
</event>
<event>
 4    1  0.6165923E-005  0.5140552E+03  0.7818608E-02  0.1010174E+00
          2   -1    0    0  501    0  0.00000000000E+00  0.00000000000E+00  0.71062240067E+03  0.71062240067E+03  0.25500000000E-02 0.  1.
         -2   -1    0    0    0  501 -0.00000000000E+00 -0.00000000000E+00 -0.92965242011E+02  0.92965242046E+02  0.25500000000E-02 0. -1.
    5000001    1    1    2    0    0 -0.92275304429E+01  0.16427811557E+03  0.21442776931E+03  0.32923504496E+03  0.18800000000E+03 0.  0.
   -5000001    1    1    2    0    0  0.92275304429E+01 -0.16427811557E+03  0.40322938934E+03  0.47435259776E+03  0.18800000000E+03 0.  0.
<mgrwt>
<rscale>  0 0.51405519E+03</rscale>
<asrwt>0</asrwt>
<pdfrwt beam="1">  1        2 0.10151749E+00 0.51405519E+03</pdfrwt>
<pdfrwt beam="2">  1       -2 0.13280749E-01 0.51405519E+03</pdfrwt>
<totfact> 0.18961548E+03</totfact>
</mgrwt>
</event>
<event>
 4    1  0.6165923E-005  0.7903675E+03  0.7818608E-02  0.9574065E-01
          2   -1    0    0  501    0  0.00000000000E+00  0.00000000000E+00  0.33957454414E+04  0.33957454414E+04  0.25500000000E-02 0.  1.
         -2   -1    0    0    0  501 -0.00000000000E+00 -0.00000000000E+00 -0.45989955469E+02  0.45989955540E+02  0.25500000000E-02 0. -1.
    5000001    1    1    2    0    0 -0.21185258628E+03  0.22865965461E+03  0.10050694427E+04  0.10689599340E+04  0.18800000000E+03 0.  0.
   -5000001    1    1    2    0    0  0.21185258628E+03 -0.22865965461E+03  0.23446860433E+04  0.23727754630E+04  0.18800000000E+03 0.  0.
<mgrwt>
<rscale>  0 0.79036746E+03</rscale>
<asrwt>0</asrwt>
<pdfrwt beam="1">  1        2 0.48510653E+00 0.79036746E+03</pdfrwt>
<pdfrwt beam="2">  1       -2 0.65699931E-02 0.79036746E+03</pdfrwt>
<totfact> 0.19777629E+02</totfact>
</mgrwt>
</event>
<event>
 4    1  0.6165923E-005  0.4288541E+03  0.7818608E-02  0.1034223E+00
         -2   -1    0    0    0  501 -0.00000000000E+00  0.00000000000E+00  0.56204256458E+02  0.56204256516E+02  0.25500000000E-02 0. -1.
          2   -1    0    0  501    0  0.00000000000E+00 -0.00000000000E+00 -0.81806891993E+03  0.81806891993E+03  0.25500000000E-02 0.  1.
    5000001    1    1    2    0    0 -0.80000478525E+02  0.58568582012E+02 -0.43875892841E+03  0.48752820700E+03  0.18800000000E+03 0.  0.
   -5000001    1    1    2    0    0  0.80000478525E+02 -0.58568582012E+02 -0.32310573506E+03  0.38674496945E+03  0.18800000000E+03 0.  0.
<mgrwt>
<rscale>  0 0.42885408E+03</rscale>
<asrwt>0</asrwt>
<pdfrwt beam="1">  1        2 0.11686698E+00 0.42885408E+03</pdfrwt>
<pdfrwt beam="2">  1       -2 0.80291800E-02 0.42885408E+03</pdfrwt>
<totfact> 0.35856597E+03</totfact>
</mgrwt>
</event>
<event>
 4    1  0.6165923E-005  0.3916985E+03  0.7818608E-02  0.1046693E+00
          2   -1    0    0  501    0  0.00000000000E+00  0.00000000000E+00  0.26632456339E+03  0.26632456340E+03  0.25500000000E-02 0.  1.
         -2   -1    0    0    0  501 -0.00000000000E+00 -0.00000000000E+00 -0.14402327674E+03  0.14402327676E+03  0.25500000000E-02 0. -1.
    5000001    1    1    2    0    0 -0.96417242031E+01  0.40650071037E+02  0.98448332455E+02  0.21629023391E+03  0.18800000000E+03 0.  0.
   -5000001    1    1    2    0    0  0.96417242031E+01 -0.40650071037E+02  0.23852954196E+02  0.19405760625E+03  0.18800000000E+03 0.  0.
<mgrwt>
<rscale>  0 0.39169854E+03</rscale>
<asrwt>0</asrwt>
<pdfrwt beam="1">  1        2 0.38046366E-01 0.39169854E+03</pdfrwt>
<pdfrwt beam="2">  1       -2 0.20574754E-01 0.39169854E+03</pdfrwt>
<totfact> 0.27199108E+03</totfact>
</mgrwt>
</event>
<event>
 4    1  0.6165923E-005  0.8253299E+03  0.7818608E-02  0.9524060E-01
          2   -1    0    0  501    0  0.00000000000E+00  0.00000000000E+00  0.14531410668E+04  0.14531410668E+04  0.25500000000E-02 0.  1.
         -2   -1    0    0    0  501 -0.00000000000E+00 -0.00000000000E+00 -0.11718915687E+03  0.11718915690E+03  0.25500000000E-02 0. -1.
    5000001    1    1    2    0    0 -0.11875720629E+03 -0.28966141543E+03  0.10336716694E+04  0.10962792207E+04  0.18800000000E+03 0.  0.
   -5000001    1    1    2    0    0  0.11875720629E+03  0.28966141543E+03  0.30228024056E+03  0.47405100302E+03  0.18800000000E+03 0.  0.
<mgrwt>
<rscale>  0 0.82532994E+03</rscale>
<asrwt>0</asrwt>
<pdfrwt beam="1">  1        2 0.20759156E+00 0.82532994E+03</pdfrwt>
<pdfrwt beam="2">  1       -2 0.16741310E-01 0.82532994E+03</pdfrwt>
<totfact> 0.45241844E+02</totfact>
</mgrwt>
</event>
<event>
 4    1  0.6165923E-005  0.5162803E+03  0.7818608E-02  0.1009615E+00
         -2   -1    0    0    0  501 -0.00000000000E+00  0.00000000000E+00  0.31082001267E+02  0.31082001372E+02  0.25500000000E-02 0. -1.
          2   -1    0    0  501    0  0.00000000000E+00 -0.00000000000E+00 -0.21438886206E+04  0.21438886206E+04  0.25500000000E-02 0.  1.
    5000001    1    1    2    0    0 -0.90680985902E+02  0.15129215128E+03 -0.11129224101E+04  0.11423890087E+04  0.18800000000E+03 0.  0.
   -5000001    1    1    2    0    0  0.90680985902E+02 -0.15129215128E+03 -0.99988420922E+03  0.10325816133E+04  0.18800000000E+03 0.  0.
<mgrwt>
<rscale>  0 0.51628035E+03</rscale>
<asrwt>0</asrwt>
<pdfrwt beam="1">  1        2 0.30626971E+00 0.51628035E+03</pdfrwt>
<pdfrwt beam="2">  1       -2 0.44402873E-02 0.51628035E+03</pdfrwt>
<totfact> 0.17364037E+03</totfact>
</mgrwt>
</event>
<event>
 4    1  0.6165923E-005  0.7757054E+03  0.7818608E-02  0.9595864E-01
         -2   -1    0    0    0  501 -0.00000000000E+00  0.00000000000E+00  0.67669264481E+02  0.67669264529E+02  0.25500000000E-02 0. -1.
          2   -1    0    0  501    0  0.00000000000E+00 -0.00000000000E+00 -0.22230136693E+04  0.22230136693E+04  0.25500000000E-02 0.  1.
    5000001    1    1    2    0    0  0.24787730401E+03  0.17633346797E+03 -0.15211095999E+04  0.15625796187E+04  0.18800000000E+03 0.  0.
   -5000001    1    1    2    0    0 -0.24787730401E+03 -0.17633346797E+03 -0.63423480486E+03  0.72810331510E+03  0.18800000000E+03 0.  0.
<mgrwt>
<rscale>  0 0.77570536E+03</rscale>
<asrwt>0</asrwt>
<pdfrwt beam="1">  1        2 0.31757334E+00 0.77570536E+03</pdfrwt>
<pdfrwt beam="2">  1       -2 0.96670392E-02 0.77570536E+03</pdfrwt>
<totfact> 0.45668285E+02</totfact>
</mgrwt>
</event>
<event>
 4    1  0.6165923E-005  0.4099590E+03  0.7818608E-02  0.1040385E+00
          2   -1    0    0  501    0  0.00000000000E+00  0.00000000000E+00  0.46570883118E+03  0.46570883119E+03  0.25500000000E-02 0.  1.
         -2   -1    0    0    0  501 -0.00000000000E+00 -0.00000000000E+00 -0.90220748452E+02  0.90220748488E+02  0.25500000000E-02 0. -1.
    5000001    1    1    2    0    0  0.35788911104E+02  0.62447722770E+02  0.13536363601E+03  0.24258581614E+03  0.18800000000E+03 0.  0.
   -5000001    1    1    2    0    0 -0.35788911104E+02 -0.62447722770E+02  0.24012444672E+03  0.31334376354E+03  0.18800000000E+03 0.  0.
<mgrwt>
<rscale>  0 0.40995902E+03</rscale>
<asrwt>0</asrwt>
<pdfrwt beam="1">  1        2 0.66529834E-01 0.40995902E+03</pdfrwt>
<pdfrwt beam="2">  1       -2 0.12888678E-01 0.40995902E+03</pdfrwt>
<totfact> 0.32454527E+03</totfact>
</mgrwt>
</event>
<event>
 4    1  0.6165923E-005  0.7071224E+03  0.7818608E-02  0.9705129E-01
         -2   -1    0    0    0  501 -0.00000000000E+00  0.00000000000E+00  0.23023604403E+03  0.23023604404E+03  0.25500000000E-02 0. -1.
          2   -1    0    0  501    0  0.00000000000E+00 -0.00000000000E+00 -0.54294498725E+03  0.54294498726E+03  0.25500000000E-02 0.  1.
    5000001    1    1    2    0    0  0.24997462908E+03  0.35363109293E+02 -0.33240390266E+03  0.45779276882E+03  0.18800000000E+03 0.  0.
   -5000001    1    1    2    0    0 -0.24997462908E+03 -0.35363109293E+02  0.19694959432E+02  0.31538826248E+03  0.18800000000E+03 0.  0.
<mgrwt>
<rscale>  0 0.70712235E+03</rscale>
<asrwt>0</asrwt>
<pdfrwt beam="1">  1        2 0.77563569E-01 0.70712235E+03</pdfrwt>
<pdfrwt beam="2">  1       -2 0.32890864E-01 0.70712235E+03</pdfrwt>
<totfact> 0.52893390E+02</totfact>
</mgrwt>
</event>
<event>
 4    1  0.6165923E-005  0.6678696E+03  0.7818608E-02  0.9773814E-01
         -2   -1    0    0    0  501 -0.00000000000E+00  0.00000000000E+00  0.12916521784E+03  0.12916521787E+03  0.25500000000E-02 0. -1.
          2   -1    0    0  501    0  0.00000000000E+00 -0.00000000000E+00 -0.86333196032E+03  0.86333196032E+03  0.25500000000E-02 0.  1.
    5000001    1    1    2    0    0 -0.19497832401E+03 -0.18904059298E+03 -0.29404564757E+03  0.44222136479E+03  0.18800000000E+03 0.  0.
   -5000001    1    1    2    0    0  0.19497832401E+03  0.18904059298E+03 -0.44012109491E+03  0.55027581340E+03  0.18800000000E+03 0.  0.
<mgrwt>
<rscale>  0 0.66786963E+03</rscale>
<asrwt>0</asrwt>
<pdfrwt beam="1">  1        2 0.12333313E+00 0.66786963E+03</pdfrwt>
<pdfrwt beam="2">  1       -2 0.18452174E-01 0.66786963E+03</pdfrwt>
<totfact> 0.84765666E+02</totfact>
</mgrwt>
</event>
<event>
 4    1  0.6165923E-005  0.4053385E+03  0.7818608E-02  0.1041947E+00
         -2   -1    0    0    0  501 -0.00000000000E+00  0.00000000000E+00  0.10172796262E+03  0.10172796265E+03  0.25500000000E-02 0. -1.
          2   -1    0    0  501    0  0.00000000000E+00 -0.00000000000E+00 -0.40377125667E+03  0.40377125667E+03  0.25500000000E-02 0.  1.
    5000001    1    1    2    0    0 -0.41946161534E+02  0.49740402604E+02 -0.19927730195E+03  0.28158308044E+03  0.18800000000E+03 0.  0.
   -5000001    1    1    2    0    0  0.41946161534E+02 -0.49740402604E+02 -0.10276599210E+03  0.22391613888E+03  0.18800000000E+03 0.  0.
<mgrwt>
<rscale>  0 0.40533851E+03</rscale>
<asrwt>0</asrwt>
<pdfrwt beam="1">  1        2 0.57681607E-01 0.40533851E+03</pdfrwt>
<pdfrwt beam="2">  1       -2 0.14532566E-01 0.40533851E+03</pdfrwt>
<totfact> 0.31150891E+03</totfact>
</mgrwt>
</event>
<event>
 4    1  0.6165923E-005  0.6701645E+03  0.7818608E-02  0.9769661E-01
         -2   -1    0    0    0  501 -0.00000000000E+00  0.00000000000E+00  0.78434979748E+02  0.78434979790E+02  0.25500000000E-02 0. -1.
          2   -1    0    0  501    0  0.00000000000E+00 -0.00000000000E+00 -0.14315054781E+04  0.14315054781E+04  0.25500000000E-02 0.  1.
    5000001    1    1    2    0    0  0.44478341269E+02 -0.26840422969E+03 -0.79822189111E+03  0.86401466469E+03  0.18800000000E+03 0.  0.
   -5000001    1    1    2    0    0 -0.44478341269E+02  0.26840422969E+03 -0.55484860722E+03  0.64592579317E+03  0.18800000000E+03 0.  0.
<mgrwt>
<rscale>  0 0.67016447E+03</rscale>
<asrwt>0</asrwt>
<pdfrwt beam="1">  1        2 0.20450077E+00 0.67016447E+03</pdfrwt>
<pdfrwt beam="2">  1       -2 0.11204998E-01 0.67016447E+03</pdfrwt>
<totfact> 0.91682286E+02</totfact>
</mgrwt>
</event>
<event>
 4    1  0.6165923E-005  0.5532366E+03  0.7818608E-02  0.1000748E+00
          2   -1    0    0  501    0  0.00000000000E+00  0.00000000000E+00  0.63264385537E+03  0.63264385538E+03  0.25500000000E-02 0.  1.
         -2   -1    0    0    0  501 -0.00000000000E+00 -0.00000000000E+00 -0.12094905565E+03  0.12094905568E+03  0.25500000000E-02 0. -1.
    5000001    1    1    2    0    0 -0.13811523023E+03  0.12917960149E+03  0.35604198353E+03  0.44482927096E+03  0.18800000000E+03 0.  0.
   -5000001    1    1    2    0    0  0.13811523023E+03 -0.12917960149E+03  0.15565281618E+03  0.30876364010E+03  0.18800000000E+03 0.  0.
<mgrwt>
<rscale>  0 0.55323657E+03</rscale>
<asrwt>0</asrwt>
<pdfrwt beam="1">  1        2 0.90377693E-01 0.55323657E+03</pdfrwt>
<pdfrwt beam="2">  1       -2 0.17278437E-01 0.55323657E+03</pdfrwt>
<totfact> 0.14012124E+03</totfact>
</mgrwt>
</event>
<event>
 4    1  0.6165923E-005  0.5640025E+03  0.7818608E-02  0.9983039E-01
          2   -1    0    0  501    0  0.00000000000E+00  0.00000000000E+00  0.40180779793E+03  0.40180779794E+03  0.25500000000E-02 0.  1.
         -2   -1    0    0    0  501 -0.00000000000E+00 -0.00000000000E+00 -0.19791727918E+03  0.19791727920E+03  0.25500000000E-02 0. -1.
    5000001    1    1    2    0    0  0.12695601033E+03  0.64785070333E+02 -0.62324992334E+02  0.24401503758E+03  0.18800000000E+03 0.  0.
   -5000001    1    1    2    0    0 -0.12695601033E+03 -0.64785070333E+02  0.26621551108E+03  0.35571003955E+03  0.18800000000E+03 0.  0.
<mgrwt>
<rscale>  0 0.56400250E+03</rscale>
<asrwt>0</asrwt>
<pdfrwt beam="1">  1        2 0.57401115E-01 0.56400250E+03</pdfrwt>
<pdfrwt beam="2">  1       -2 0.28273897E-01 0.56400250E+03</pdfrwt>
<totfact> 0.98655551E+02</totfact>
</mgrwt>
</event>
<event>
 4    1  0.6165923E-005  0.5421298E+03  0.7818608E-02  0.1003332E+00
          2   -1    0    0  501    0  0.00000000000E+00  0.00000000000E+00  0.15339781426E+04  0.15339781426E+04  0.25500000000E-02 0.  1.
         -2   -1    0    0    0  501 -0.00000000000E+00 -0.00000000000E+00 -0.47899107571E+02  0.47899107638E+02  0.25500000000E-02 0. -1.
    5000001    1    1    2    0    0  0.90065939290E+02  0.15360348910E+03  0.50912925817E+03  0.57119393100E+03  0.18800000000E+03 0.  0.
   -5000001    1    1    2    0    0 -0.90065939290E+02 -0.15360348910E+03  0.97694977682E+03  0.10106833192E+04  0.18800000000E+03 0.  0.
<mgrwt>
<rscale>  0 0.54212982E+03</rscale>
<asrwt>0</asrwt>
<pdfrwt beam="1">  1        2 0.21913973E+00 0.54212982E+03</pdfrwt>
<pdfrwt beam="2">  1       -2 0.68427299E-02 0.54212982E+03</pdfrwt>
<totfact> 0.17969143E+03</totfact>
</mgrwt>
</event>
<event>
 4    1  0.6165923E-005  0.5037696E+03  0.7818608E-02  0.1012800E+00
          2   -1    0    0  501    0  0.00000000000E+00  0.00000000000E+00  0.44875757919E+03  0.44875757919E+03  0.25500000000E-02 0.  1.
         -2   -1    0    0    0  501 -0.00000000000E+00 -0.00000000000E+00 -0.14138134537E+03  0.14138134540E+03  0.25500000000E-02 0. -1.
    5000001    1    1    2    0    0  0.13344274104E+03 -0.99451334266E+02  0.13013018497E+03  0.28279921864E+03  0.18800000000E+03 0.  0.
   -5000001    1    1    2    0    0 -0.13344274104E+03  0.99451334266E+02  0.17724604884E+03  0.30733970595E+03  0.18800000000E+03 0.  0.
<mgrwt>
<rscale>  0 0.50376959E+03</rscale>
<asrwt>0</asrwt>
<pdfrwt beam="1">  1        2 0.64108227E-01 0.50376959E+03</pdfrwt>
<pdfrwt beam="2">  1       -2 0.20197335E-01 0.50376959E+03</pdfrwt>
<totfact> 0.15880884E+03</totfact>
</mgrwt>
</event>
<event>
 4    1  0.6165923E-005  0.6194400E+03  0.7818608E-02  0.9865875E-01
         -2   -1    0    0    0  501 -0.00000000000E+00  0.00000000000E+00  0.62321442368E+02  0.62321442421E+02  0.25500000000E-02 0. -1.
          2   -1    0    0  501    0  0.00000000000E+00 -0.00000000000E+00 -0.15392212645E+04  0.15392212646E+04  0.25500000000E-02 0.  1.
    5000001    1    1    2    0    0  0.60879058565E+02  0.23124007046E+03 -0.88930173886E+03  0.93988287180E+03  0.18800000000E+03 0.  0.
   -5000001    1    1    2    0    0 -0.60879058565E+02 -0.23124007046E+03 -0.58759808332E+03  0.66165983518E+03  0.18800000000E+03 0.  0.
<mgrwt>
<rscale>  0 0.61944004E+03</rscale>
<asrwt>0</asrwt>
<pdfrwt beam="1">  1        2 0.21988873E+00 0.61944004E+03</pdfrwt>
<pdfrwt beam="2">  1       -2 0.89030641E-02 0.61944004E+03</pdfrwt>
<totfact> 0.11718160E+03</totfact>
</mgrwt>
</event>
<event>
 4    1  0.6165923E-005  0.7327121E+03  0.7818608E-02  0.9662870E-01
          2   -1    0    0  501    0  0.00000000000E+00  0.00000000000E+00  0.25283362652E+04  0.25283362652E+04  0.25500000000E-02 0.  1.
         -2   -1    0    0    0  501 -0.00000000000E+00 -0.00000000000E+00 -0.53085010937E+02  0.53085010998E+02  0.25500000000E-02 0. -1.
    5000001    1    1    2    0    0  0.25510253774E+03  0.16215117803E+03  0.15427852327E+04  0.15833194824E+04  0.18800000000E+03 0.  0.
   -5000001    1    1    2    0    0 -0.25510253774E+03 -0.16215117803E+03  0.93246602159E+03  0.99810179376E+03  0.18800000000E+03 0.  0.
<mgrwt>
<rscale>  0 0.73271211E+03</rscale>
<asrwt>0</asrwt>
<pdfrwt beam="1">  1        2 0.36119092E+00 0.73271211E+03</pdfrwt>
<pdfrwt beam="2">  1       -2 0.75835726E-02 0.73271211E+03</pdfrwt>
<totfact> 0.47226165E+02</totfact>
</mgrwt>
</event>
<event>
 4    1  0.6165923E-005  0.6936277E+03  0.7818608E-02  0.9728192E-01
          2   -1    0    0  501    0  0.00000000000E+00  0.00000000000E+00  0.38569272526E+03  0.38569272526E+03  0.25500000000E-02 0.  1.
         -2   -1    0    0    0  501 -0.00000000000E+00 -0.00000000000E+00 -0.31185407153E+03  0.31185407154E+03  0.25500000000E-02 0. -1.
    5000001    1    1    2    0    0  0.27314364945E+03  0.55154953650E+02  0.12276159363E+03  0.35786021156E+03  0.18800000000E+03 0.  0.
   -5000001    1    1    2    0    0 -0.27314364945E+03 -0.55154953650E+02 -0.48922939904E+02  0.33968658525E+03  0.18800000000E+03 0.  0.
<mgrwt>
<rscale>  0 0.69362770E+03</rscale>
<asrwt>0</asrwt>
<pdfrwt beam="1">  1        2 0.55098961E-01 0.69362770E+03</pdfrwt>
<pdfrwt beam="2">  1       -2 0.44550582E-01 0.69362770E+03</pdfrwt>
<totfact> 0.43365937E+02</totfact>
</mgrwt>
</event>
<event>
 4    1  0.6165923E-005  0.8098414E+03  0.7818608E-02  0.9545880E-01
         -2   -1    0    0    0  501 -0.00000000000E+00  0.00000000000E+00  0.11056307350E+04  0.11056307350E+04  0.25500000000E-02 0. -1.
          2   -1    0    0  501    0  0.00000000000E+00 -0.00000000000E+00 -0.14829615518E+03  0.14829615520E+03  0.25500000000E-02 0.  1.
    5000001    1    1    2    0    0  0.19264073190E+03  0.30220644756E+03  0.49930169325E+03  0.64271717684E+03  0.18800000000E+03 0.  0.
   -5000001    1    1    2    0    0 -0.19264073190E+03 -0.30220644756E+03  0.45803288657E+03  0.61120971337E+03  0.18800000000E+03 0.  0.
<mgrwt>
<rscale>  0 0.80984143E+03</rscale>
<asrwt>0</asrwt>
<pdfrwt beam="1">  1        2 0.21185165E-01 0.80984143E+03</pdfrwt>
<pdfrwt beam="2">  1       -2 0.15794725E+00 0.80984143E+03</pdfrwt>
<totfact> 0.69906774E+01</totfact>
</mgrwt>
</event>
<event>
 4    1  0.6165923E-005  0.6105378E+03  0.7818608E-02  0.9883781E-01
          2   -1    0    0  501    0  0.00000000000E+00  0.00000000000E+00  0.55811670002E+03  0.55811670002E+03  0.25500000000E-02 0.  1.
         -2   -1    0    0    0  501 -0.00000000000E+00 -0.00000000000E+00 -0.16697063990E+03  0.16697063992E+03  0.25500000000E-02 0. -1.
    5000001    1    1    2    0    0  0.10485290105E+03  0.17573222775E+03  0.45494439860E+02  0.28158425166E+03  0.18800000000E+03 0.  0.
   -5000001    1    1    2    0    0 -0.10485290105E+03 -0.17573222775E+03  0.34565162026E+03  0.44350308828E+03  0.18800000000E+03 0.  0.
<mgrwt>
<rscale>  0 0.61053780E+03</rscale>
<asrwt>0</asrwt>
<pdfrwt beam="1">  1        2 0.79730957E-01 0.61053780E+03</pdfrwt>
<pdfrwt beam="2">  1       -2 0.23852949E-01 0.61053780E+03</pdfrwt>
<totfact> 0.92438051E+02</totfact>
</mgrwt>
</event>
<event>
 4    1  0.6165923E-005  0.4752344E+03  0.7818608E-02  0.1020453E+00
         -2   -1    0    0    0  501 -0.00000000000E+00  0.00000000000E+00  0.20145511571E+02  0.20145511733E+02  0.25500000000E-02 0. -1.
          2   -1    0    0  501    0  0.00000000000E+00 -0.00000000000E+00 -0.28027055849E+04  0.28027055849E+04  0.25500000000E-02 0.  1.
    5000001    1    1    2    0    0  0.86965514622E+02 -0.86053285693E+02 -0.18570907751E+04  0.18705876926E+04  0.18800000000E+03 0.  0.
   -5000001    1    1    2    0    0 -0.86965514622E+02  0.86053285693E+02 -0.92546929817E+03  0.95226340398E+03  0.18800000000E+03 0.  0.
<mgrwt>
<rscale>  0 0.47523442E+03</rscale>
<asrwt>0</asrwt>
<pdfrwt beam="1">  1        2 0.40038626E+00 0.47523442E+03</pdfrwt>
<pdfrwt beam="2">  1       -2 0.28779320E-02 0.47523442E+03</pdfrwt>
<totfact> 0.15542814E+03</totfact>
</mgrwt>
</event>
<event>
 4    1  0.6165923E-005  0.5746254E+03  0.7818608E-02  0.9959495E-01
          2   -1    0    0  501    0  0.00000000000E+00  0.00000000000E+00  0.10691957601E+03  0.10691957604E+03  0.25500000000E-02 0.  1.
         -2   -1    0    0    0  501 -0.00000000000E+00 -0.00000000000E+00 -0.77206237476E+03  0.77206237476E+03  0.25500000000E-02 0. -1.
    5000001    1    1    2    0    0 -0.15018097314E+03 -0.15470505615E+03 -0.37351955731E+03  0.47047724576E+03  0.18800000000E+03 0.  0.
   -5000001    1    1    2    0    0  0.15018097314E+03  0.15470505615E+03 -0.29162324144E+03  0.40850470504E+03  0.18800000000E+03 0.  0.
<mgrwt>
<rscale>  0 0.57462538E+03</rscale>
<asrwt>0</asrwt>
<pdfrwt beam="1">  1        2 0.15274226E-01 0.57462538E+03</pdfrwt>
<pdfrwt beam="2">  1       -2 0.11029462E+00 0.57462538E+03</pdfrwt>
<totfact> 0.25925539E+02</totfact>
</mgrwt>
</event>
<event>
 4    1  0.6165923E-005  0.5372129E+03  0.7818608E-02  0.1004498E+00
          2   -1    0    0  501    0  0.00000000000E+00  0.00000000000E+00  0.98200635293E+03  0.98200635294E+03  0.25500000000E-02 0.  1.
         -2   -1    0    0    0  501 -0.00000000000E+00 -0.00000000000E+00 -0.73471441214E+02  0.73471441259E+02  0.25500000000E-02 0. -1.
    5000001    1    1    2    0    0 -0.18312015247E+03  0.54386815964E+02  0.48911058806E+03  0.55773119273E+03  0.18800000000E+03 0.  0.
   -5000001    1    1    2    0    0  0.18312015247E+03 -0.54386815964E+02  0.41942432366E+03  0.49774660147E+03  0.18800000000E+03 0.  0.
<mgrwt>
<rscale>  0 0.53721289E+03</rscale>
<asrwt>0</asrwt>
<pdfrwt beam="1">  1        2 0.14028662E+00 0.53721289E+03</pdfrwt>
<pdfrwt beam="2">  1       -2 0.10495920E-01 0.53721289E+03</pdfrwt>
<totfact> 0.18336504E+03</totfact>
</mgrwt>
</event>
<event>
 4    1  0.6165923E-005  0.1165780E+04  0.7818608E-02  0.9143348E-01
          2   -1    0    0  501    0  0.00000000000E+00  0.00000000000E+00  0.53420905958E+03  0.53420905959E+03  0.25500000000E-02 0.  1.
         -2   -1    0    0    0  501 -0.00000000000E+00 -0.00000000000E+00 -0.63600737446E+03  0.63600737446E+03  0.25500000000E-02 0. -1.
    5000001    1    1    2    0    0  0.38063398568E+02  0.48002459221E+03 -0.32126489428E+03  0.60862760678E+03  0.18800000000E+03 0.  0.
   -5000001    1    1    2    0    0 -0.38063398568E+02 -0.48002459221E+03  0.21946657940E+03  0.56158882727E+03  0.18800000000E+03 0.  0.
<mgrwt>
<rscale>  0 0.11657803E+04</rscale>
<asrwt>0</asrwt>
<pdfrwt beam="1">  1        2 0.76315580E-01 0.11657803E+04</pdfrwt>
<pdfrwt beam="2">  1       -2 0.90858197E-01 0.11657803E+04</pdfrwt>
<totfact> 0.63671803E+01</totfact>
</mgrwt>
</event>
<event>
 4    1  0.6165923E-005  0.5022360E+03  0.7818608E-02  0.1013197E+00
         -2   -1    0    0    0  501 -0.00000000000E+00  0.00000000000E+00  0.10178638981E+03  0.10178638984E+03  0.25500000000E-02 0. -1.
          2   -1    0    0  501    0  0.00000000000E+00 -0.00000000000E+00 -0.61953516695E+03  0.61953516695E+03  0.25500000000E-02 0.  1.
    5000001    1    1    2    0    0 -0.11551365611E+02 -0.15056087981E+03 -0.15819303211E+03  0.28839391115E+03  0.18800000000E+03 0.  0.
   -5000001    1    1    2    0    0  0.11551365611E+02  0.15056087981E+03 -0.35955574503E+03  0.43292764564E+03  0.18800000000E+03 0.  0.
<mgrwt>
<rscale>  0 0.50223599E+03</rscale>
<asrwt>0</asrwt>
<pdfrwt beam="1">  1        2 0.88505021E-01 0.50223599E+03</pdfrwt>
<pdfrwt beam="2">  1       -2 0.14540913E-01 0.50223599E+03</pdfrwt>
<totfact> 0.19221240E+03</totfact>
</mgrwt>
</event>
<event>
 4    1  0.6165923E-005  0.5499985E+03  0.7818608E-02  0.1001494E+00
          2   -1    0    0  501    0  0.00000000000E+00  0.00000000000E+00  0.91849975684E+03  0.91849975684E+03  0.25500000000E-02 0.  1.
         -2   -1    0    0    0  501 -0.00000000000E+00 -0.00000000000E+00 -0.82334894874E+02  0.82334894914E+02  0.25500000000E-02 0. -1.
    5000001    1    1    2    0    0  0.11882025171E+03 -0.13944377408E+03  0.26893589426E+03  0.37581023612E+03  0.18800000000E+03 0.  0.
   -5000001    1    1    2    0    0 -0.11882025171E+03  0.13944377408E+03  0.56722896770E+03  0.62502441564E+03  0.18800000000E+03 0.  0.
<mgrwt>
<rscale>  0 0.54999848E+03</rscale>
<asrwt>0</asrwt>
<pdfrwt beam="1">  1        2 0.13121425E+00 0.54999848E+03</pdfrwt>
<pdfrwt beam="2">  1       -2 0.11762128E-01 0.54999848E+03</pdfrwt>
<totfact> 0.16679650E+03</totfact>
</mgrwt>
</event>
<event>
 4    1  0.6165923E-005  0.4452908E+03  0.7818608E-02  0.1029136E+00
          2   -1    0    0  501    0  0.00000000000E+00  0.00000000000E+00  0.18159355875E+04  0.18159355875E+04  0.25500000000E-02 0.  1.
         -2   -1    0    0    0  501 -0.00000000000E+00 -0.00000000000E+00 -0.27297761494E+02  0.27297761613E+02  0.25500000000E-02 0. -1.
    5000001    1    1    2    0    0  0.10388726439E+03  0.42680043517E+02  0.72808085435E+03  0.76030249262E+03  0.18800000000E+03 0.  0.
   -5000001    1    1    2    0    0 -0.10388726439E+03 -0.42680043517E+02  0.10605569717E+04  0.10829308565E+04  0.18800000000E+03 0.  0.
<mgrwt>
<rscale>  0 0.44529081E+03</rscale>
<asrwt>0</asrwt>
<pdfrwt beam="1">  1        2 0.25941943E+00 0.44529081E+03</pdfrwt>
<pdfrwt beam="2">  1       -2 0.38996792E-02 0.44529081E+03</pdfrwt>
<totfact> 0.30948753E+03</totfact>
</mgrwt>
</event>
<event>
 4    1  0.6165923E-005  0.6145786E+03  0.7818608E-02  0.9875613E-01
          2   -1    0    0  501    0  0.00000000000E+00  0.00000000000E+00  0.24306733334E+04  0.24306733334E+04  0.25500000000E-02 0.  1.
         -2   -1    0    0    0  501 -0.00000000000E+00 -0.00000000000E+00 -0.38847966856E+02  0.38847966940E+02  0.25500000000E-02 0. -1.
    5000001    1    1    2    0    0 -0.20402877847E+03  0.13189001327E+03  0.11647877879E+04  0.12046150044E+04  0.18800000000E+03 0.  0.
   -5000001    1    1    2    0    0  0.20402877847E+03 -0.13189001327E+03  0.12270375786E+04  0.12649062959E+04  0.18800000000E+03 0.  0.
<mgrwt>
<rscale>  0 0.61457861E+03</rscale>
<asrwt>0</asrwt>
<pdfrwt beam="1">  1        2 0.34723915E+00 0.61457861E+03</pdfrwt>
<pdfrwt beam="2">  1       -2 0.55497079E-02 0.61457861E+03</pdfrwt>
<totfact> 0.87528681E+02</totfact>
</mgrwt>
</event>
<event>
 4    1  0.6165923E-005  0.8499516E+03  0.7818608E-02  0.9490402E-01
         -2   -1    0    0    0  501 -0.00000000000E+00  0.00000000000E+00  0.12701911189E+03  0.12701911191E+03  0.25500000000E-02 0. -1.
          2   -1    0    0  501    0  0.00000000000E+00 -0.00000000000E+00 -0.14218680774E+04  0.14218680774E+04  0.25500000000E-02 0.  1.
    5000001    1    1    2    0    0  0.36700864295E+03  0.88264596961E+02 -0.74341162602E+03  0.85468756208E+03  0.18800000000E+03 0.  0.
   -5000001    1    1    2    0    0 -0.36700864295E+03 -0.88264596961E+02 -0.55143733951E+03  0.69419962726E+03  0.18800000000E+03 0.  0.
<mgrwt>
<rscale>  0 0.84995158E+03</rscale>
<asrwt>0</asrwt>
<pdfrwt beam="1">  1        2 0.20312400E+00 0.84995158E+03</pdfrwt>
<pdfrwt beam="2">  1       -2 0.18145588E-01 0.84995158E+03</pdfrwt>
<totfact> 0.40871772E+02</totfact>
</mgrwt>
</event>
<event>
 4    1  0.6165923E-005  0.6138338E+03  0.7818608E-02  0.9877114E-01
         -2   -1    0    0    0  501 -0.00000000000E+00  0.00000000000E+00  0.10334519573E+03  0.10334519576E+03  0.25500000000E-02 0. -1.
          2   -1    0    0  501    0  0.00000000000E+00 -0.00000000000E+00 -0.91148866647E+03  0.91148866647E+03  0.25500000000E-02 0.  1.
    5000001    1    1    2    0    0 -0.23204988156E+03 -0.19632899774E+02 -0.29168117367E+03  0.41791686417E+03  0.18800000000E+03 0.  0.
   -5000001    1    1    2    0    0  0.23204988156E+03  0.19632899774E+02 -0.51646229707E+03  0.59691699806E+03  0.18800000000E+03 0.  0.
<mgrwt>
<rscale>  0 0.61383377E+03</rscale>
<asrwt>0</asrwt>
<pdfrwt beam="1">  1        2 0.13021266E+00 0.61383377E+03</pdfrwt>
<pdfrwt beam="2">  1       -2 0.14763600E-01 0.61383377E+03</pdfrwt>
<totfact> 0.11543965E+03</totfact>
</mgrwt>
</event>
<event>
 4    1  0.6165923E-005  0.5006749E+03  0.7818608E-02  0.1013603E+00
         -2   -1    0    0    0  501 -0.00000000000E+00  0.00000000000E+00  0.42620385892E+03  0.42620385893E+03  0.25500000000E-02 0. -1.
          2   -1    0    0  501    0  0.00000000000E+00 -0.00000000000E+00 -0.14703960581E+03  0.14703960583E+03  0.25500000000E-02 0.  1.
    5000001    1    1    2    0    0  0.41424980980E+02 -0.14034971005E+03  0.51557222615E+02  0.24375442019E+03  0.18800000000E+03 0.  0.
   -5000001    1    1    2    0    0 -0.41424980980E+02  0.14034971005E+03  0.22760703049E+03  0.32948904457E+03  0.18800000000E+03 0.  0.
<mgrwt>
<rscale>  0 0.50067493E+03</rscale>
<asrwt>0</asrwt>
<pdfrwt beam="1">  1        2 0.21005658E-01 0.50067493E+03</pdfrwt>
<pdfrwt beam="2">  1       -2 0.60886266E-01 0.50067493E+03</pdfrwt>
<totfact> 0.67756191E+02</totfact>
</mgrwt>
</event>
<event>
 4    1  0.6165923E-005  0.6134559E+03  0.7818608E-02  0.9877876E-01
         -2   -1    0    0    0  501 -0.00000000000E+00  0.00000000000E+00  0.16031659932E+03  0.16031659934E+03  0.25500000000E-02 0. -1.
          2   -1    0    0  501    0  0.00000000000E+00 -0.00000000000E+00 -0.58685140355E+03  0.58685140355E+03  0.25500000000E-02 0.  1.
    5000001    1    1    2    0    0  0.39565177172E+02  0.16270138300E+03  0.14042703856E+00  0.25175615781E+03  0.18800000000E+03 0.  0.
   -5000001    1    1    2    0    0 -0.39565177172E+02 -0.16270138300E+03 -0.42667523126E+03  0.49541184508E+03  0.18800000000E+03 0.  0.
<mgrwt>
<rscale>  0 0.61345585E+03</rscale>
<asrwt>0</asrwt>
<pdfrwt beam="1">  1        2 0.83835914E-01 0.61345585E+03</pdfrwt>
<pdfrwt beam="2">  1       -2 0.22902372E-01 0.61345585E+03</pdfrwt>
<totfact> 0.93719673E+02</totfact>
</mgrwt>
</event>
<event>
 4    1  0.6165923E-005  0.9946331E+03  0.7818608E-02  0.9314451E-01
          2   -1    0    0  501    0  0.00000000000E+00  0.00000000000E+00  0.18889480978E+04  0.18889480978E+04  0.25500000000E-02 0.  1.
         -2   -1    0    0    0  501 -0.00000000000E+00 -0.00000000000E+00 -0.13093200403E+03  0.13093200405E+03  0.25500000000E-02 0. -1.
    5000001    1    1    2    0    0  0.26339507112E+03 -0.31144210003E+03  0.13126952364E+04  0.13874025836E+04  0.18800000000E+03 0.  0.
   -5000001    1    1    2    0    0 -0.26339507112E+03  0.31144210003E+03  0.44532085740E+03  0.63247751833E+03  0.18800000000E+03 0.  0.
<mgrwt>
<rscale>  0 0.99463312E+03</rscale>
<asrwt>0</asrwt>
<pdfrwt beam="1">  1        2 0.26984971E+00 0.99463312E+03</pdfrwt>
<pdfrwt beam="2">  1       -2 0.18704573E-01 0.99463312E+03</pdfrwt>
<totfact> 0.21984676E+02</totfact>
</mgrwt>
</event>
<event>
 4    1  0.6165923E-005  0.4366831E+03  0.7818608E-02  0.1031769E+00
          2   -1    0    0  501    0  0.00000000000E+00  0.00000000000E+00  0.14445324944E+04  0.14445324944E+04  0.25500000000E-02 0.  1.
         -2   -1    0    0    0  501 -0.00000000000E+00 -0.00000000000E+00 -0.33002391196E+02  0.33002391295E+02  0.25500000000E-02 0. -1.
    5000001    1    1    2    0    0  0.26010990821E+02 -0.10616508026E+03  0.63968366083E+03  0.67563805535E+03  0.18800000000E+03 0.  0.
   -5000001    1    1    2    0    0 -0.26010990821E+02  0.10616508026E+03  0.77184644242E+03  0.80189683038E+03  0.18800000000E+03 0.  0.
<mgrwt>
<rscale>  0 0.43668307E+03</rscale>
<asrwt>0</asrwt>
<pdfrwt beam="1">  1        2 0.20636178E+00 0.43668307E+03</pdfrwt>
<pdfrwt beam="2">  1       -2 0.47146275E-02 0.43668307E+03</pdfrwt>
<totfact> 0.35732465E+03</totfact>
</mgrwt>
</event>
<event>
 4    1  0.6165923E-005  0.6508049E+03  0.7818608E-02  0.9805270E-01
          2   -1    0    0  501    0  0.00000000000E+00  0.00000000000E+00  0.19236562685E+04  0.19236562685E+04  0.25500000000E-02 0.  1.
         -2   -1    0    0    0  501 -0.00000000000E+00 -0.00000000000E+00 -0.55044533068E+02  0.55044533127E+02  0.25500000000E-02 0. -1.
    5000001    1    1    2    0    0 -0.12624643479E+03 -0.40763352067E+02  0.23473234844E+03  0.32869908514E+03  0.18800000000E+03 0.  0.
   -5000001    1    1    2    0    0  0.12624643479E+03  0.40763352067E+02  0.16338793870E+04  0.16500017165E+04  0.18800000000E+03 0.  0.
<mgrwt>
<rscale>  0 0.65080492E+03</rscale>
<asrwt>0</asrwt>
<pdfrwt beam="1">  1        2 0.27480801E+00 0.65080492E+03</pdfrwt>
<pdfrwt beam="2">  1       -2 0.78635056E-02 0.65080492E+03</pdfrwt>
<totfact> 0.90931515E+02</totfact>
</mgrwt>
</event>
<event>
 4    1  0.6165923E-005  0.5690206E+03  0.7818608E-02  0.9971848E-01
         -2   -1    0    0    0  501 -0.00000000000E+00  0.00000000000E+00  0.11831211017E+03  0.11831211020E+03  0.25500000000E-02 0. -1.
          2   -1    0    0  501    0  0.00000000000E+00 -0.00000000000E+00 -0.68417446625E+03  0.68417446626E+03  0.25500000000E-02 0.  1.
    5000001    1    1    2    0    0 -0.14499054112E+03  0.62817914921E+02 -0.80349987072E+02  0.25839595173E+03  0.18800000000E+03 0.  0.
   -5000001    1    1    2    0    0  0.14499054112E+03 -0.62817914921E+02 -0.48551236901E+03  0.54409062472E+03  0.18800000000E+03 0.  0.
<mgrwt>
<rscale>  0 0.56902065E+03</rscale>
<asrwt>0</asrwt>
<pdfrwt beam="1">  1        2 0.97739207E-01 0.56902065E+03</pdfrwt>
<pdfrwt beam="2">  1       -2 0.16901730E-01 0.56902065E+03</pdfrwt>
<totfact> 0.13242231E+03</totfact>
</mgrwt>
</event>
<event>
 4    1  0.6165923E-005  0.6220656E+03  0.7818608E-02  0.9860656E-01
         -2   -1    0    0    0  501 -0.00000000000E+00  0.00000000000E+00  0.12227102923E+04  0.12227102923E+04  0.25500000000E-02 0. -1.
          2   -1    0    0  501    0  0.00000000000E+00 -0.00000000000E+00 -0.79120450550E+02  0.79120450591E+02  0.25500000000E-02 0.  1.
    5000001    1    1    2    0    0 -0.46314793912E+02 -0.23271551578E+03  0.72118622364E+03  0.78214777414E+03  0.18800000000E+03 0.  0.
   -5000001    1    1    2    0    0  0.46314793912E+02  0.23271551578E+03  0.42240361809E+03  0.51968296874E+03  0.18800000000E+03 0.  0.
<mgrwt>
<rscale>  0 0.62206556E+03</rscale>
<asrwt>0</asrwt>
<pdfrwt beam="1">  1        2 0.11302922E-01 0.62206556E+03</pdfrwt>
<pdfrwt beam="2">  1       -2 0.17467289E+00 0.62206556E+03</pdfrwt>
<totfact> 0.11462160E+02</totfact>
</mgrwt>
</event>
<event>
 4    1  0.6165923E-005  0.4708851E+03  0.7818608E-02  0.1021671E+00
          2   -1    0    0  501    0  0.00000000000E+00  0.00000000000E+00  0.14888708108E+04  0.14888708108E+04  0.25500000000E-02 0.  1.
         -2   -1    0    0    0  501 -0.00000000000E+00 -0.00000000000E+00 -0.37231694683E+02  0.37231694770E+02  0.25500000000E-02 0. -1.
    5000001    1    1    2    0    0  0.33740528008E+02 -0.10048136244E+03  0.42085818191E+03  0.47296991099E+03  0.18800000000E+03 0.  0.
   -5000001    1    1    2    0    0 -0.33740528008E+02  0.10048136244E+03  0.10307809342E+04  0.10531325946E+04  0.18800000000E+03 0.  0.
<mgrwt>
<rscale>  0 0.47088505E+03</rscale>
<asrwt>0</asrwt>
<pdfrwt beam="1">  1        2 0.21269585E+00 0.47088505E+03</pdfrwt>
<pdfrwt beam="2">  1       -2 0.53188130E-02 0.47088505E+03</pdfrwt>
<totfact> 0.28135418E+03</totfact>
</mgrwt>
</event>
<event>
 4    1  0.6165923E-005  0.5604114E+03  0.7818608E-02  0.9991124E-01
         -2   -1    0    0    0  501 -0.00000000000E+00  0.00000000000E+00  0.36688943985E+02  0.36688944074E+02  0.25500000000E-02 0. -1.
          2   -1    0    0  501    0  0.00000000000E+00 -0.00000000000E+00 -0.21400243874E+04  0.21400243874E+04  0.25500000000E-02 0.  1.
    5000001    1    1    2    0    0 -0.17355677976E+03 -0.68859587275E+02 -0.14056919744E+04  0.14304466175E+04  0.18800000000E+03 0.  0.
   -5000001    1    1    2    0    0  0.17355677976E+03  0.68859587275E+02 -0.69764346899E+03  0.74626671398E+03  0.18800000000E+03 0.  0.
<mgrwt>
<rscale>  0 0.56041140E+03</rscale>
<asrwt>0</asrwt>
<pdfrwt beam="1">  1        2 0.30571769E+00 0.56041140E+03</pdfrwt>
<pdfrwt beam="2">  1       -2 0.52412791E-02 0.56041140E+03</pdfrwt>
<totfact> 0.13467165E+03</totfact>
</mgrwt>
</event>
<event>
 4    1  0.6165923E-005  0.6769156E+03  0.7818608E-02  0.9757545E-01
          2   -1    0    0  501    0  0.00000000000E+00  0.00000000000E+00  0.72456734249E+03  0.72456734250E+03  0.25500000000E-02 0.  1.
         -2   -1    0    0    0  501 -0.00000000000E+00 -0.00000000000E+00 -0.15809943500E+03  0.15809943502E+03  0.25500000000E-02 0. -1.
    5000001    1    1    2    0    0 -0.60305633263E+02 -0.27300324543E+03  0.32532856897E+03  0.46834839511E+03  0.18800000000E+03 0.  0.
   -5000001    1    1    2    0    0  0.60305633263E+02  0.27300324543E+03  0.24113933852E+03  0.41431838241E+03  0.18800000000E+03 0.  0.
<mgrwt>
<rscale>  0 0.67691562E+03</rscale>
<asrwt>0</asrwt>
<pdfrwt beam="1">  1        2 0.10350962E+00 0.67691562E+03</pdfrwt>
<pdfrwt beam="2">  1       -2 0.22585633E-01 0.67691562E+03</pdfrwt>
<totfact> 0.74431435E+02</totfact>
</mgrwt>
</event>
<event>
 4    1  0.6165923E-005  0.6934158E+03  0.7818608E-02  0.9728559E-01
         -2   -1    0    0    0  501 -0.00000000000E+00  0.00000000000E+00  0.81489285639E+02  0.81489285679E+02  0.25500000000E-02 0. -1.
          2   -1    0    0  501    0  0.00000000000E+00 -0.00000000000E+00 -0.14751185647E+04  0.14751185647E+04  0.25500000000E-02 0.  1.
    5000001    1    1    2    0    0 -0.26289396013E+03  0.77912347137E+02 -0.47596533584E+03  0.58057778895E+03  0.18800000000E+03 0.  0.
   -5000001    1    1    2    0    0  0.26289396013E+03 -0.77912347137E+02 -0.91766394318E+03  0.97603006138E+03  0.18800000000E+03 0.  0.
<mgrwt>
<rscale>  0 0.69341577E+03</rscale>
<asrwt>0</asrwt>
<pdfrwt beam="1">  1        2 0.21073121E+00 0.69341577E+03</pdfrwt>
<pdfrwt beam="2">  1       -2 0.11641327E-01 0.69341577E+03</pdfrwt>
<totfact> 0.81577451E+02</totfact>
</mgrwt>
</event>
<event>
 4    1  0.6165923E-005  0.7242832E+03  0.7818608E-02  0.9676583E-01
          2   -1    0    0  501    0  0.00000000000E+00  0.00000000000E+00  0.68329618525E+03  0.68329618526E+03  0.25500000000E-02 0.  1.
         -2   -1    0    0    0  501 -0.00000000000E+00 -0.00000000000E+00 -0.19193218547E+03  0.19193218548E+03  0.25500000000E-02 0. -1.
    5000001    1    1    2    0    0 -0.20850504367E+03  0.16150322780E+03  0.49916877353E+02  0.32770923159E+03  0.18800000000E+03 0.  0.
   -5000001    1    1    2    0    0  0.20850504367E+03 -0.16150322780E+03  0.44144712243E+03  0.54751913915E+03  0.18800000000E+03 0.  0.
<mgrwt>
<rscale>  0 0.72428318E+03</rscale>
<asrwt>0</asrwt>
<pdfrwt beam="1">  1        2 0.97613741E-01 0.72428318E+03</pdfrwt>
<pdfrwt beam="2">  1       -2 0.27418884E-01 0.72428318E+03</pdfrwt>
<totfact> 0.56366126E+02</totfact>
</mgrwt>
</event>
<event>
 4    1  0.6165923E-005  0.5044660E+03  0.7818608E-02  0.1012620E+00
          2   -1    0    0  501    0  0.00000000000E+00  0.00000000000E+00  0.85313347389E+03  0.85313347389E+03  0.25500000000E-02 0.  1.
         -2   -1    0    0    0  501 -0.00000000000E+00 -0.00000000000E+00 -0.74573880693E+02  0.74573880737E+02  0.25500000000E-02 0. -1.
    5000001    1    1    2    0    0 -0.22343037728E+02  0.16639311610E+03  0.40687974772E+03  0.47862407955E+03  0.18800000000E+03 0.  0.
   -5000001    1    1    2    0    0  0.22343037728E+02 -0.16639311610E+03  0.37167984548E+03  0.44908327508E+03  0.18800000000E+03 0.  0.
<mgrwt>
<rscale>  0 0.50446595E+03</rscale>
<asrwt>0</asrwt>
<pdfrwt beam="1">  1        2 0.12187620E+00 0.50446595E+03</pdfrwt>
<pdfrwt beam="2">  1       -2 0.10653412E-01 0.50446595E+03</pdfrwt>
<totfact> 0.21619083E+03</totfact>
</mgrwt>
</event>
<event>
 4    1  0.6165923E-005  0.5381669E+03  0.7818608E-02  0.1004271E+00
          2   -1    0    0  501    0  0.00000000000E+00  0.00000000000E+00  0.14910651230E+04  0.14910651230E+04  0.25500000000E-02 0.  1.
         -2   -1    0    0    0  501 -0.00000000000E+00 -0.00000000000E+00 -0.48559858963E+02  0.48559859030E+02  0.25500000000E-02 0. -1.
    5000001    1    1    2    0    0 -0.37165816966E+02 -0.18880627064E+03  0.70486648372E+03  0.75445998280E+03  0.18800000000E+03 0.  0.
   -5000001    1    1    2    0    0  0.37165816966E+02  0.18880627064E+03  0.73763878030E+03  0.78516499921E+03  0.18800000000E+03 0.  0.
<mgrwt>
<rscale>  0 0.53816693E+03</rscale>
<asrwt>0</asrwt>
<pdfrwt beam="1">  1        2 0.21300930E+00 0.53816693E+03</pdfrwt>
<pdfrwt beam="2">  1       -2 0.69371229E-02 0.53816693E+03</pdfrwt>
<totfact> 0.18511522E+03</totfact>
</mgrwt>
</event>
<event>
 4    1  0.6165923E-005  0.4234907E+03  0.7818608E-02  0.1035936E+00
          2   -1    0    0  501    0  0.00000000000E+00  0.00000000000E+00  0.17795167623E+03  0.17795167625E+03  0.25500000000E-02 0.  1.
         -2   -1    0    0    0  501 -0.00000000000E+00 -0.00000000000E+00 -0.25195662219E+03  0.25195662220E+03  0.25500000000E-02 0. -1.
    5000001    1    1    2    0    0  0.56842257326E+02  0.77326361547E+02 -0.19964365276E+02  0.21202118830E+03  0.18800000000E+03 0.  0.
   -5000001    1    1    2    0    0 -0.56842257326E+02 -0.77326361547E+02 -0.54040580686E+02  0.21788711015E+03  0.18800000000E+03 0.  0.
<mgrwt>
<rscale>  0 0.42349075E+03</rscale>
<asrwt>0</asrwt>
<pdfrwt beam="1">  1        2 0.25421668E-01 0.42349075E+03</pdfrwt>
<pdfrwt beam="2">  1       -2 0.35993803E-01 0.42349075E+03</pdfrwt>
<totfact> 0.15509931E+03</totfact>
</mgrwt>
</event>
<event>
 4    1  0.6165923E-005  0.7654896E+03  0.7818608E-02  0.9611358E-01
          2   -1    0    0  501    0  0.00000000000E+00  0.00000000000E+00  0.17147886590E+04  0.17147886590E+04  0.25500000000E-02 0.  1.
         -2   -1    0    0    0  501 -0.00000000000E+00 -0.00000000000E+00 -0.85429521254E+02  0.85429521292E+02  0.25500000000E-02 0. -1.
    5000001    1    1    2    0    0 -0.22018933948E+03 -0.25031279544E+03  0.80734255837E+03  0.89346843667E+03  0.18800000000E+03 0.  0.
   -5000001    1    1    2    0    0  0.22018933948E+03  0.25031279544E+03  0.82201657934E+03  0.90674974358E+03  0.18800000000E+03 0.  0.
<mgrwt>
<rscale>  0 0.76548958E+03</rscale>
<asrwt>0</asrwt>
<pdfrwt beam="1">  1        2 0.24496980E+00 0.76548958E+03</pdfrwt>
<pdfrwt beam="2">  1       -2 0.12204218E-01 0.76548958E+03</pdfrwt>
<totfact> 0.56485864E+02</totfact>
</mgrwt>
</event>
<event>
 4    1  0.6165923E-005  0.1447470E+04  0.7818608E-02  0.8920157E-01
          2   -1    0    0  501    0  0.00000000000E+00  0.00000000000E+00  0.15218673973E+04  0.15218673973E+04  0.25500000000E-02 0.  1.
         -2   -1    0    0    0  501 -0.00000000000E+00 -0.00000000000E+00 -0.34417728368E+03  0.34417728369E+03  0.25500000000E-02 0. -1.
    5000001    1    1    2    0    0  0.67790879185E+03 -0.26796626558E+02  0.80521872042E+03  0.10695791588E+04  0.18800000000E+03 0.  0.
   -5000001    1    1    2    0    0 -0.67790879185E+03  0.26796626558E+02  0.37247139321E+03  0.79646552218E+03  0.18800000000E+03 0.  0.
<mgrwt>
<rscale>  0 0.14474698E+04</rscale>
<asrwt>0</asrwt>
<pdfrwt beam="1">  1        2 0.21740964E+00 0.14474698E+04</pdfrwt>
<pdfrwt beam="2">  1       -2 0.49168182E-01 0.14474698E+04</pdfrwt>
<totfact> 0.54110652E+01</totfact>
</mgrwt>
</event>
<event>
 4    1  0.6165923E-005  0.6253993E+03  0.7818608E-02  0.9854068E-01
          2   -1    0    0  501    0  0.00000000000E+00  0.00000000000E+00  0.30223048416E+03  0.30223048417E+03  0.25500000000E-02 0.  1.
         -2   -1    0    0    0  501 -0.00000000000E+00 -0.00000000000E+00 -0.32353141318E+03  0.32353141319E+03  0.25500000000E-02 0. -1.
    5000001    1    1    2    0    0 -0.21447118997E+03 -0.12334705520E+03  0.24365089147E+02  0.31168901957E+03  0.18800000000E+03 0.  0.
   -5000001    1    1    2    0    0  0.21447118997E+03  0.12334705520E+03 -0.45666018172E+02  0.31407287780E+03  0.18800000000E+03 0.  0.
<mgrwt>
<rscale>  0 0.62539925E+03</rscale>
<asrwt>0</asrwt>
<pdfrwt beam="1">  1        2 0.43175784E-01 0.62539925E+03</pdfrwt>
<pdfrwt beam="2">  1       -2 0.46218773E-01 0.62539925E+03</pdfrwt>
<totfact> 0.52889519E+02</totfact>
</mgrwt>
</event>
<event>
 4    1  0.6165923E-005  0.6941664E+03  0.7818608E-02  0.9727261E-01
          2   -1    0    0  501    0  0.00000000000E+00  0.00000000000E+00  0.16942838287E+04  0.16942838287E+04  0.25500000000E-02 0.  1.
         -2   -1    0    0    0  501 -0.00000000000E+00 -0.00000000000E+00 -0.71101863168E+02  0.71101863214E+02  0.25500000000E-02 0. -1.
    5000001    1    1    2    0    0  0.27476743738E+02  0.19041156251E+03  0.13694174787E+04  0.13955858145E+04  0.18800000000E+03 0.  0.
   -5000001    1    1    2    0    0 -0.27476743738E+02 -0.19041156251E+03  0.25376448685E+03  0.36979987747E+03  0.18800000000E+03 0.  0.
<mgrwt>
<rscale>  0 0.69416637E+03</rscale>
<asrwt>0</asrwt>
<pdfrwt beam="1">  1        2 0.24204053E+00 0.69416637E+03</pdfrwt>
<pdfrwt beam="2">  1       -2 0.10157410E-01 0.69416637E+03</pdfrwt>
<totfact> 0.78518908E+02</totfact>
</mgrwt>
</event>
<event>
 4    1  0.6165923E-005  0.4049546E+03  0.7818608E-02  0.1042077E+00
         -2   -1    0    0    0  501 -0.00000000000E+00  0.00000000000E+00  0.10521433398E+03  0.10521433401E+03  0.25500000000E-02 0. -1.
          2   -1    0    0  501    0  0.00000000000E+00 -0.00000000000E+00 -0.38965280212E+03  0.38965280212E+03  0.25500000000E-02 0.  1.
    5000001    1    1    2    0    0 -0.64396494205E+02 -0.37154900495E+02 -0.15591825031E+03  0.25530745362E+03  0.18800000000E+03 0.  0.
   -5000001    1    1    2    0    0  0.64396494205E+02  0.37154900495E+02 -0.12852021783E+03  0.23955968252E+03  0.18800000000E+03 0.  0.
<mgrwt>
<rscale>  0 0.40495462E+03</rscale>
<asrwt>0</asrwt>
<pdfrwt beam="1">  1        2 0.55664685E-01 0.40495462E+03</pdfrwt>
<pdfrwt beam="2">  1       -2 0.15030619E-01 0.40495462E+03</pdfrwt>
<totfact> 0.30623339E+03</totfact>
</mgrwt>
</event>
<event>
 4    1  0.6165923E-005  0.4975828E+03  0.7818608E-02  0.1014412E+00
         -2   -1    0    0    0  501 -0.00000000000E+00  0.00000000000E+00  0.24992546453E+03  0.24992546455E+03  0.25500000000E-02 0.  1.
          2   -1    0    0  501    0  0.00000000000E+00 -0.00000000000E+00 -0.24766252236E+03  0.24766252238E+03  0.25500000000E-02 0. -1.
    5000001    1    1    2    0    0  0.95667646006E+02  0.12521647123E+03 -0.40362424924E+02  0.24860528656E+03  0.18800000000E+03 0.  0.
   -5000001    1    1    2    0    0 -0.95667646006E+02 -0.12521647123E+03  0.42625367093E+02  0.24898270036E+03  0.18800000000E+03 0.  0.
<mgrwt>
<rscale>  0 0.49758284E+03</rscale>
<asrwt>0</asrwt>
<pdfrwt beam="1">  1        2 0.35380360E-01 0.49758284E+03</pdfrwt>
<pdfrwt beam="2">  1       -2 0.35703638E-01 0.49758284E+03</pdfrwt>
<totfact> 0.10899141E+03</totfact>
</mgrwt>
</event>
<event>
 4    1  0.6165923E-005  0.7711803E+03  0.7818608E-02  0.9602696E-01
          2   -1    0    0  501    0  0.00000000000E+00  0.00000000000E+00  0.37365190125E+03  0.37365190126E+03  0.25500000000E-02 0.  1.
         -2   -1    0    0    0  501 -0.00000000000E+00 -0.00000000000E+00 -0.39790981628E+03  0.39790981628E+03  0.25500000000E-02 0. -1.
    5000001    1    1    2    0    0  0.21632738670E+03 -0.28085437669E+02 -0.26867229752E+03  0.39384658624E+03  0.18800000000E+03 0.  0.
   -5000001    1    1    2    0    0 -0.21632738670E+03  0.28085437669E+02  0.24441438249E+03  0.37771513130E+03  0.18800000000E+03 0.  0.
<mgrwt>
<rscale>  0 0.77118029E+03</rscale>
<asrwt>0</asrwt>
<pdfrwt beam="1">  1        2 0.53378843E-01 0.77118029E+03</pdfrwt>
<pdfrwt beam="2">  1       -2 0.56844260E-01 0.77118029E+03</pdfrwt>
<totfact> 0.27294655E+02</totfact>
</mgrwt>
</event>
<event>
 4    1  0.6165923E-005  0.6415168E+03  0.7818608E-02  0.9822829E-01
          2   -1    0    0  501    0  0.00000000000E+00  0.00000000000E+00  0.12885786712E+03  0.12885786715E+03  0.25500000000E-02 0.  1.
         -2   -1    0    0    0  501 -0.00000000000E+00 -0.00000000000E+00 -0.79844511962E+03  0.79844511962E+03  0.25500000000E-02 0. -1.
    5000001    1    1    2    0    0  0.10769957634E+02 -0.25828195495E+03 -0.29610495284E+03  0.43571516308E+03  0.18800000000E+03 0.  0.
   -5000001    1    1    2    0    0 -0.10769957634E+02  0.25828195495E+03 -0.37348229966E+03  0.49158782369E+03  0.18800000000E+03 0.  0.
<mgrwt>
<rscale>  0 0.64151675E+03</rscale>
<asrwt>0</asrwt>
<pdfrwt beam="1">  1        2 0.18408267E-01 0.64151675E+03</pdfrwt>
<pdfrwt beam="2">  1       -2 0.11406359E+00 0.64151675E+03</pdfrwt>
<totfact> 0.19081843E+02</totfact>
</mgrwt>
</event>
<event>
 4    1  0.6165923E-005  0.7088078E+03  0.7818608E-02  0.9702287E-01
          2   -1    0    0  501    0  0.00000000000E+00  0.00000000000E+00  0.21739574114E+04  0.21739574114E+04  0.25500000000E-02 0.  1.
         -2   -1    0    0    0  501 -0.00000000000E+00 -0.00000000000E+00 -0.57775804817E+02  0.57775804873E+02  0.25500000000E-02 0. -1.
    5000001    1    1    2    0    0  0.56923508265E+01  0.29904274338E+03  0.11470999044E+04  0.12002671185E+04  0.18800000000E+03 0.  0.
   -5000001    1    1    2    0    0 -0.56923508265E+01 -0.29904274338E+03  0.96908170227E+03  0.10314660978E+04  0.18800000000E+03 0.  0.
<mgrwt>
<rscale>  0 0.70880784E+03</rscale>
<asrwt>0</asrwt>
<pdfrwt beam="1">  1        2 0.31056534E+00 0.70880784E+03</pdfrwt>
<pdfrwt beam="2">  1       -2 0.82536866E-02 0.70880784E+03</pdfrwt>
<totfact> 0.62697209E+02</totfact>
</mgrwt>
</event>
<event>
 4    1  0.6165923E-005  0.5018269E+03  0.7818608E-02  0.1013303E+00
         -2   -1    0    0    0  501 -0.00000000000E+00  0.00000000000E+00  0.40068384997E+02  0.40068385078E+02  0.25500000000E-02 0. -1.
          2   -1    0    0  501    0  0.00000000000E+00 -0.00000000000E+00 -0.15712526190E+04  0.15712526190E+04  0.25500000000E-02 0.  1.
    5000001    1    1    2    0    0  0.10186130567E+03  0.10119880967E+03 -0.49701277333E+03  0.55043857198E+03  0.18800000000E+03 0.  0.
   -5000001    1    1    2    0    0 -0.10186130567E+03 -0.10119880967E+03 -0.10341714607E+04  0.10608824321E+04  0.18800000000E+03 0.  0.
<mgrwt>
<rscale>  0 0.50182688E+03</rscale>
<asrwt>0</asrwt>
<pdfrwt beam="1">  1        2 0.22446462E+00 0.50182688E+03</pdfrwt>
<pdfrwt beam="2">  1       -2 0.57240560E-02 0.50182688E+03</pdfrwt>
<totfact> 0.22757781E+03</totfact>
</mgrwt>
</event>
<event>
 4    1  0.6165923E-005  0.5212138E+03  0.7818608E-02  0.1008385E+00
          2   -1    0    0  501    0  0.00000000000E+00  0.00000000000E+00  0.25235927575E+04  0.25235927575E+04  0.25500000000E-02 0.  1.
         -2   -1    0    0    0  501 -0.00000000000E+00 -0.00000000000E+00 -0.26912411420E+02  0.26912411540E+02  0.25500000000E-02 0. -1.
    5000001    1    1    2    0    0  0.15761077106E+03  0.63989549344E+02  0.95326605891E+03  0.98640559439E+03  0.18800000000E+03 0.  0.
   -5000001    1    1    2    0    0 -0.15761077106E+03 -0.63989549344E+02  0.15434142872E+04  0.15640995747E+04  0.18800000000E+03 0.  0.
<mgrwt>
<rscale>  0 0.52121384E+03</rscale>
<asrwt>0</asrwt>
<pdfrwt beam="1">  1        2 0.36051313E+00 0.52121384E+03</pdfrwt>
<pdfrwt beam="2">  1       -2 0.38446315E-02 0.52121384E+03</pdfrwt>
<totfact> 0.13920693E+03</totfact>
</mgrwt>
</event>
<event>
 4    1  0.6165923E-005  0.4940526E+03  0.7818608E-02  0.1015343E+00
         -2   -1    0    0    0  501 -0.00000000000E+00  0.00000000000E+00  0.21754062619E+03  0.21754062620E+03  0.25500000000E-02 0. -1.
          2   -1    0    0  501    0  0.00000000000E+00 -0.00000000000E+00 -0.28050848271E+03  0.28050848272E+03  0.25500000000E-02 0.  1.
    5000001    1    1    2    0    0 -0.11901901525E+03 -0.10636013492E+03 -0.17227867504E+02  0.24722217479E+03  0.18800000000E+03 0.  0.
   -5000001    1    1    2    0    0  0.11901901525E+03  0.10636013492E+03 -0.45739989015E+02  0.25082693413E+03  0.18800000000E+03 0.  0.
<mgrwt>
<rscale>  0 0.49405259E+03</rscale>
<asrwt>0</asrwt>
<pdfrwt beam="1">  1        2 0.40072640E-01 0.49405259E+03</pdfrwt>
<pdfrwt beam="2">  1       -2 0.31077233E-01 0.49405259E+03</pdfrwt>
<totfact> 0.12319330E+03</totfact>
</mgrwt>
</event>
<event>
 4    1  0.6165923E-005  0.6691806E+03  0.7818608E-02  0.9771439E-01
         -2   -1    0    0    0  501 -0.00000000000E+00  0.00000000000E+00  0.61974702174E+02  0.61974702227E+02  0.25500000000E-02 0. -1.
          2   -1    0    0  501    0  0.00000000000E+00 -0.00000000000E+00 -0.18063929663E+04  0.18063929663E+04  0.25500000000E-02 0.  1.
    5000001    1    1    2    0    0  0.42853180814E+02 -0.25981496568E+03 -0.11102109587E+04  0.11563963786E+04  0.18800000000E+03 0.  0.
   -5000001    1    1    2    0    0 -0.42853180814E+02  0.25981496568E+03 -0.63420730539E+03  0.71197128994E+03  0.18800000000E+03 0.  0.
<mgrwt>
<rscale>  0 0.66918059E+03</rscale>
<asrwt>0</asrwt>
<pdfrwt beam="1">  1        2 0.25805611E+00 0.66918059E+03</pdfrwt>
<pdfrwt beam="2">  1       -2 0.88535300E-02 0.66918059E+03</pdfrwt>
<totfact> 0.86108044E+02</totfact>
</mgrwt>
</event>
<event>
 4    1  0.6165923E-005  0.7570286E+03  0.7818608E-02  0.9624388E-01
          2   -1    0    0  501    0  0.00000000000E+00  0.00000000000E+00  0.15735766570E+04  0.15735766570E+04  0.25500000000E-02 0.  1.
         -2   -1    0    0    0  501 -0.00000000000E+00 -0.00000000000E+00 -0.91049315738E+02  0.91049315774E+02  0.25500000000E-02 0. -1.
    5000001    1    1    2    0    0  0.96677273609E+02 -0.24463043144E+03  0.11740524276E+04  0.12177576302E+04  0.18800000000E+03 0.  0.
   -5000001    1    1    2    0    0 -0.96677273609E+02  0.24463043144E+03  0.30847491368E+03  0.44686834257E+03  0.18800000000E+03 0.  0.
<mgrwt>
<rscale>  0 0.75702861E+03</rscale>
<asrwt>0</asrwt>
<pdfrwt beam="1">  1        2 0.22479667E+00 0.75702861E+03</pdfrwt>
<pdfrwt beam="2">  1       -2 0.13007045E-01 0.75702861E+03</pdfrwt>
<totfact> 0.60116398E+02</totfact>
</mgrwt>
</event>
<event>
 4    1  0.6165923E-005  0.8953969E+03  0.7818608E-02  0.9431354E-01
          2   -1    0    0  501    0  0.00000000000E+00  0.00000000000E+00  0.11152421787E+04  0.11152421787E+04  0.25500000000E-02 0.  1.
         -2   -1    0    0    0  501 -0.00000000000E+00 -0.00000000000E+00 -0.17972229384E+03  0.17972229386E+03  0.25500000000E-02 0. -1.
    5000001    1    1    2    0    0  0.36622412250E+03 -0.86002926623E+02  0.68981067763E+03  0.80789812617E+03  0.18800000000E+03 0.  0.
   -5000001    1    1    2    0    0 -0.36622412250E+03  0.86002926623E+02  0.24570920727E+03  0.48706634643E+03  0.18800000000E+03 0.  0.
<mgrwt>
<rscale>  0 0.89539686E+03</rscale>
<asrwt>0</asrwt>
<pdfrwt beam="1">  1        2 0.15932032E+00 0.89539686E+03</pdfrwt>
<pdfrwt beam="2">  1       -2 0.25674613E-01 0.89539686E+03</pdfrwt>
<totfact> 0.32681057E+02</totfact>
</mgrwt>
</event>
<event>
 4    1  0.6165923E-005  0.5653642E+03  0.7818608E-02  0.9979990E-01
          2   -1    0    0  501    0  0.00000000000E+00  0.00000000000E+00  0.47649191965E+03  0.47649191966E+03  0.25500000000E-02 0.  1.
         -2   -1    0    0    0  501 -0.00000000000E+00 -0.00000000000E+00 -0.16770309130E+03  0.16770309132E+03  0.25500000000E-02 0. -1.
    5000001    1    1    2    0    0  0.27430889847E+01 -0.16578701472E+03  0.55148152622E+01  0.25073346800E+03  0.18800000000E+03 0.  0.
   -5000001    1    1    2    0    0 -0.27430889847E+01  0.16578701472E+03  0.30327401309E+03  0.39346154298E+03  0.18800000000E+03 0.  0.
<mgrwt>
<rscale>  0 0.56536419E+03</rscale>
<asrwt>0</asrwt>
<pdfrwt beam="1">  1        2 0.68070274E-01 0.56536419E+03</pdfrwt>
<pdfrwt beam="2">  1       -2 0.23957585E-01 0.56536419E+03</pdfrwt>
<totfact> 0.10994367E+03</totfact>
</mgrwt>
</event>
<event>
 4    1  0.6165923E-005  0.7850224E+03  0.7818608E-02  0.9581953E-01
         -2   -1    0    0    0  501 -0.00000000000E+00  0.00000000000E+00  0.86439760570E+02  0.86439760608E+02  0.25500000000E-02 0. -1.
          2   -1    0    0  501    0  0.00000000000E+00 -0.00000000000E+00 -0.17823401757E+04  0.17823401757E+04  0.25500000000E-02 0.  1.
    5000001    1    1    2    0    0 -0.26613949930E+03  0.20584931122E+03 -0.67113358180E+03  0.77393052442E+03  0.18800000000E+03 0.  0.
   -5000001    1    1    2    0    0  0.26613949930E+03 -0.20584931122E+03 -0.10247668333E+04  0.10948494119E+04  0.18800000000E+03 0.  0.
<mgrwt>
<rscale>  0 0.78502244E+03</rscale>
<asrwt>0</asrwt>
<pdfrwt beam="1">  1        2 0.25462000E+00 0.78502244E+03</pdfrwt>
<pdfrwt beam="2">  1       -2 0.12348538E-01 0.78502244E+03</pdfrwt>
<totfact> 0.51105625E+02</totfact>
</mgrwt>
</event>
<event>
 4    1  0.6165923E-005  0.5276546E+03  0.7818608E-02  0.1006803E+00
         -2   -1    0    0    0  501 -0.00000000000E+00  0.00000000000E+00  0.66816433870E+02  0.66816433919E+02  0.25500000000E-02 0.  1.
          2   -1    0    0  501    0  0.00000000000E+00 -0.00000000000E+00 -0.10417325366E+04  0.10417325366E+04  0.25500000000E-02 0. -1.
    5000001    1    1    2    0    0 -0.17081906878E+03  0.70073849949E+02 -0.45995677581E+03  0.53008842122E+03  0.18800000000E+03 0.  0.
   -5000001    1    1    2    0    0  0.17081906878E+03 -0.70073849949E+02 -0.51495932688E+03  0.57846054926E+03  0.18800000000E+03 0.  0.
<mgrwt>
<rscale>  0 0.52765463E+03</rscale>
<asrwt>0</asrwt>
<pdfrwt beam="1">  1        2 0.14881892E+00 0.52765463E+03</pdfrwt>
<pdfrwt beam="2">  1       -2 0.95452055E-02 0.52765463E+03</pdfrwt>
<totfact> 0.19678733E+03</totfact>
</mgrwt>
</event>
<event>
 4    1  0.6165923E-005  0.5637899E+03  0.7818608E-02  0.9983516E-01
         -2   -1    0    0    0  501 -0.00000000000E+00  0.00000000000E+00  0.34850164614E+02  0.34850164707E+02  0.25500000000E-02 0. -1.
          2   -1    0    0  501    0  0.00000000000E+00 -0.00000000000E+00 -0.22801831213E+04  0.22801831213E+04  0.25500000000E-02 0.  1.
    5000001    1    1    2    0    0 -0.17688210248E+03  0.10467757551E+03 -0.94481145672E+03  0.98501642714E+03  0.18800000000E+03 0.  0.
   -5000001    1    1    2    0    0  0.17688210248E+03 -0.10467757551E+03 -0.13005215000E+04  0.13300168589E+04  0.18800000000E+03 0.  0.
<mgrwt>
<rscale>  0 0.56378988E+03</rscale>
<asrwt>0</asrwt>
<pdfrwt beam="1">  1        2 0.32574035E+00 0.56378988E+03</pdfrwt>
<pdfrwt beam="2">  1       -2 0.49785964E-02 0.56378988E+03</pdfrwt>
<totfact> 0.12397291E+03</totfact>
</mgrwt>
</event>
<event>
 4    1  0.6165923E-005  0.5460384E+03  0.7818608E-02  0.1002415E+00
         -2   -1    0    0    0  501 -0.00000000000E+00  0.00000000000E+00  0.49162309370E+02  0.49162309436E+02  0.25500000000E-02 0. -1.
          2   -1    0    0  501    0  0.00000000000E+00 -0.00000000000E+00 -0.15161916380E+04  0.15161916380E+04  0.25500000000E-02 0.  1.
    5000001    1    1    2    0    0  0.13069568608E+03 -0.66522094459E+02 -0.11147912754E+04  0.11400044469E+04  0.18800000000E+03 0.  0.
   -5000001    1    1    2    0    0 -0.13069568608E+03  0.66522094459E+02 -0.35223805329E+03  0.42534950053E+03  0.18800000000E+03 0.  0.
<mgrwt>
<rscale>  0 0.54603840E+03</rscale>
<asrwt>0</asrwt>
<pdfrwt beam="1">  1        2 0.21659878E+00 0.54603840E+03</pdfrwt>
<pdfrwt beam="2">  1       -2 0.70231880E-02 0.54603840E+03</pdfrwt>
<totfact> 0.17614243E+03</totfact>
</mgrwt>
</event>
<event>
 4    1  0.6165923E-005  0.6441036E+03  0.7818608E-02  0.9817907E-01
          2   -1    0    0  501    0  0.00000000000E+00  0.00000000000E+00  0.23160690936E+04  0.23160690936E+04  0.25500000000E-02 0.  1.
         -2   -1    0    0    0  501 -0.00000000000E+00 -0.00000000000E+00 -0.44781641102E+02  0.44781641174E+02  0.25500000000E-02 0. -1.
    5000001    1    1    2    0    0 -0.25281944594E+03 -0.20883113699E+02  0.90326086013E+03  0.95685837935E+03  0.18800000000E+03 0.  0.
   -5000001    1    1    2    0    0  0.25281944594E+03  0.20883113699E+02  0.13680265924E+04  0.14039923555E+04  0.18800000000E+03 0.  0.
<mgrwt>
<rscale>  0 0.64410364E+03</rscale>
<asrwt>0</asrwt>
<pdfrwt beam="1">  1        2 0.33086722E+00 0.64410364E+03</pdfrwt>
<pdfrwt beam="2">  1       -2 0.63973733E-02 0.64410364E+03</pdfrwt>
<totfact> 0.79958702E+02</totfact>
</mgrwt>
</event>
<event>
 4    1  0.6165923E-005  0.6718214E+03  0.7818608E-02  0.9766673E-01
         -2   -1    0    0    0  501 -0.00000000000E+00  0.00000000000E+00  0.22202450567E+03  0.22202450568E+03  0.25500000000E-02 0. -1.
          2   -1    0    0  501    0  0.00000000000E+00 -0.00000000000E+00 -0.50821415381E+03  0.50821415382E+03  0.25500000000E-02 0.  1.
    5000001    1    1    2    0    0 -0.24057633352E+02 -0.26963397127E+03 -0.72562105716E+02  0.33747667678E+03  0.18800000000E+03 0.  0.
   -5000001    1    1    2    0    0  0.24057633352E+02  0.26963397127E+03 -0.21362754243E+03  0.39276198272E+03  0.18800000000E+03 0.  0.
<mgrwt>
<rscale>  0 0.67182139E+03</rscale>
<asrwt>0</asrwt>
<pdfrwt beam="1">  1        2 0.72602021E-01 0.67182139E+03</pdfrwt>
<pdfrwt beam="2">  1       -2 0.31717787E-01 0.67182139E+03</pdfrwt>
<totfact> 0.61150230E+02</totfact>
</mgrwt>
</event>
<event>
 4    1  0.6165923E-005  0.4019412E+03  0.7818608E-02  0.1043110E+00
         -2   -1    0    0    0  501 -0.00000000000E+00  0.00000000000E+00  0.20452399728E+03  0.20452399729E+03  0.25500000000E-02 0. -1.
          2   -1    0    0  501    0  0.00000000000E+00 -0.00000000000E+00 -0.19747896922E+03  0.19747896923E+03  0.25500000000E-02 0.  1.
    5000001    1    1    2    0    0 -0.39992302832E+02 -0.19494320869E+02 -0.51855434514E+02  0.20003099490E+03  0.18800000000E+03 0.  0.
   -5000001    1    1    2    0    0  0.39992302832E+02  0.19494320869E+02  0.58900462575E+02  0.20197197163E+03  0.18800000000E+03 0.  0.
<mgrwt>
<rscale>  0 0.40194123E+03</rscale>
<asrwt>0</asrwt>
<pdfrwt beam="1">  1        2 0.28211281E-01 0.40194123E+03</pdfrwt>
<pdfrwt beam="2">  1       -2 0.29217714E-01 0.40194123E+03</pdfrwt>
<totfact> 0.20310883E+03</totfact>
</mgrwt>
</event>
<event>
 4    1  0.6165923E-005  0.4313328E+03  0.7818608E-02  0.1033440E+00
          2   -1    0    0  501    0  0.00000000000E+00  0.00000000000E+00  0.76331142873E+03  0.76331142874E+03  0.25500000000E-02 0.  1.
         -2   -1    0    0    0  501 -0.00000000000E+00 -0.00000000000E+00 -0.60934507479E+02  0.60934507532E+02  0.25500000000E-02 0. -1.
    5000001    1    1    2    0    0 -0.57373909164E+02  0.32546963149E+02  0.19341320832E+03  0.27767560104E+03  0.18800000000E+03 0.  0.
   -5000001    1    1    2    0    0  0.57373909164E+02 -0.32546963149E+02  0.50896371294E+03  0.54657033523E+03  0.18800000000E+03 0.  0.
<mgrwt>
<rscale>  0 0.43133285E+03</rscale>
<asrwt>0</asrwt>
<pdfrwt beam="1">  1        2 0.10904449E+00 0.43133285E+03</pdfrwt>
<pdfrwt beam="2">  1       -2 0.87049295E-02 0.43133285E+03</pdfrwt>
<totfact> 0.34414225E+03</totfact>
</mgrwt>
</event>
<event>
 4    1  0.6165923E-005  0.6733745E+03  0.7818608E-02  0.9763881E-01
         -2   -1    0    0    0  501 -0.00000000000E+00  0.00000000000E+00  0.50503826919E+02  0.50503826983E+02  0.25500000000E-02 0. -1.
          2   -1    0    0  501    0  0.00000000000E+00 -0.00000000000E+00 -0.22445488004E+04  0.22445488004E+04  0.25500000000E-02 0.  1.
    5000001    1    1    2    0    0 -0.27301270845E+03  0.48462573440E+02 -0.12115806503E+04  0.12570426532E+04  0.18800000000E+03 0.  0.
   -5000001    1    1    2    0    0  0.27301270845E+03 -0.48462573440E+02 -0.98246432319E+03  0.10380099741E+04  0.18800000000E+03 0.  0.
<mgrwt>
<rscale>  0 0.67337450E+03</rscale>
<asrwt>0</asrwt>
<pdfrwt beam="1">  1        2 0.32064977E+00 0.67337450E+03</pdfrwt>
<pdfrwt beam="2">  1       -2 0.72148338E-02 0.67337450E+03</pdfrwt>
<totfact> 0.71732813E+02</totfact>
</mgrwt>
</event>
<event>
 4    1  0.6165923E-005  0.6613353E+03  0.7818608E-02  0.9785739E-01
          2   -1    0    0  501    0  0.00000000000E+00  0.00000000000E+00  0.26956549564E+04  0.26956549564E+04  0.25500000000E-02 0.  1.
         -2   -1    0    0    0  501 -0.00000000000E+00 -0.00000000000E+00 -0.40561977501E+02  0.40561977581E+02  0.25500000000E-02 0. -1.
    5000001    1    1    2    0    0 -0.24221326471E+03 -0.98030585752E+02  0.16404572870E+04  0.16717420171E+04  0.18800000000E+03 0.  0.
   -5000001    1    1    2    0    0  0.24221326471E+03  0.98030585752E+02  0.10146356919E+04  0.10644749169E+04  0.18800000000E+03 0.  0.
<mgrwt>
<rscale>  0 0.66133530E+03</rscale>
<asrwt>0</asrwt>
<pdfrwt beam="1">  1        2 0.38509356E+00 0.66133530E+03</pdfrwt>
<pdfrwt beam="2">  1       -2 0.57945683E-02 0.66133530E+03</pdfrwt>
<totfact> 0.59456301E+02</totfact>
</mgrwt>
</event>
<event>
 4    1  0.6165923E-005  0.5016542E+03  0.7818608E-02  0.1013348E+00
         -2   -1    0    0    0  501 -0.00000000000E+00  0.00000000000E+00  0.17126052806E+03  0.17126052808E+03  0.25500000000E-02 0. -1.
          2   -1    0    0  501    0  0.00000000000E+00 -0.00000000000E+00 -0.36735977728E+03  0.36735977729E+03  0.25500000000E-02 0.  1.
    5000001    1    1    2    0    0 -0.73334811506E+02  0.14464451167E+03 -0.59783510755E+02  0.25537834187E+03  0.18800000000E+03 0.  0.
   -5000001    1    1    2    0    0  0.73334811506E+02 -0.14464451167E+03 -0.13631573847E+03  0.28324196350E+03  0.18800000000E+03 0.  0.
<mgrwt>
<rscale>  0 0.50165418E+03</rscale>
<asrwt>0</asrwt>
<pdfrwt beam="1">  1        2 0.52479968E-01 0.50165418E+03</pdfrwt>
<pdfrwt beam="2">  1       -2 0.24465790E-01 0.50165418E+03</pdfrwt>
<totfact> 0.14144616E+03</totfact>
</mgrwt>
</event>
<event>
 4    1  0.6165923E-005  0.8372707E+03  0.7818608E-02  0.9507583E-01
         -2   -1    0    0    0  501 -0.00000000000E+00  0.00000000000E+00  0.54686978371E+02  0.54686978430E+02  0.25500000000E-02 0. -1.
          2   -1    0    0  501    0  0.00000000000E+00 -0.00000000000E+00 -0.32047034441E+04  0.32047034441E+04  0.25500000000E-02 0.  1.
    5000001    1    1    2    0    0 -0.12324042499E+03 -0.31621231738E+03 -0.21872316247E+04  0.22213744871E+04  0.18800000000E+03 0.  0.
   -5000001    1    1    2    0    0  0.12324042499E+03  0.31621231738E+03 -0.96278484099E+03  0.10380159354E+04  0.18800000000E+03 0.  0.
<mgrwt>
<rscale>  0 0.83727068E+03</rscale>
<asrwt>0</asrwt>
<pdfrwt beam="1">  1        2 0.45781466E+00 0.83727068E+03</pdfrwt>
<pdfrwt beam="2">  1       -2 0.78124275E-02 0.83727068E+03</pdfrwt>
<totfact> 0.19249259E+02</totfact>
</mgrwt>
</event>
<event>
 4    1  0.6165923E-005  0.6497422E+03  0.7818608E-02  0.9807263E-01
         -2   -1    0    0    0  501 -0.00000000000E+00  0.00000000000E+00  0.78451977910E+02  0.78451977952E+02  0.25500000000E-02 0. -1.
          2   -1    0    0  501    0  0.00000000000E+00 -0.00000000000E+00 -0.13452970748E+04  0.13452970748E+04  0.25500000000E-02 0.  1.
    5000001    1    1    2    0    0  0.14610792626E+03  0.57996999516E+02 -0.11007609421E+04  0.11277099936E+04  0.18800000000E+03 0.  0.
   -5000001    1    1    2    0    0 -0.14610792626E+03 -0.57996999516E+02 -0.16608415483E+03  0.29603905917E+03  0.18800000000E+03 0.  0.
<mgrwt>
<rscale>  0 0.64974215E+03</rscale>
<asrwt>0</asrwt>
<pdfrwt beam="1">  1        2 0.19218528E+00 0.64974215E+03</pdfrwt>
<pdfrwt beam="2">  1       -2 0.11207426E-01 0.64974215E+03</pdfrwt>
<totfact> 0.10198443E+03</totfact>
</mgrwt>
</event>
<event>
 4    1  0.6165923E-005  0.6951141E+03  0.7818608E-02  0.9725624E-01
         -2   -1    0    0    0  501 -0.00000000000E+00  0.00000000000E+00  0.94301606203E+02  0.94301606237E+02  0.25500000000E-02 0. -1.
          2   -1    0    0  501    0  0.00000000000E+00 -0.00000000000E+00 -0.12809528360E+04  0.12809528360E+04  0.25500000000E-02 0.  1.
    5000001    1    1    2    0    0 -0.16328462273E+02  0.25297263848E+03 -0.30532473663E+03  0.43912295465E+03  0.18800000000E+03 0.  0.
   -5000001    1    1    2    0    0  0.16328462273E+02 -0.25297263848E+03 -0.88132649317E+03  0.93613148759E+03  0.18800000000E+03 0.  0.
<mgrwt>
<rscale>  0 0.69511412E+03</rscale>
<asrwt>0</asrwt>
<pdfrwt beam="1">  1        2 0.18299325E+00 0.69511412E+03</pdfrwt>
<pdfrwt beam="2">  1       -2 0.13471659E-01 0.69511412E+03</pdfrwt>
<totfact> 0.81403494E+02</totfact>
</mgrwt>
</event>
<event>
 4    1  0.6165923E-005  0.7232579E+03  0.7818608E-02  0.9678265E-01
          2   -1    0    0  501    0  0.00000000000E+00  0.00000000000E+00  0.21621748912E+03  0.21621748914E+03  0.25500000000E-02 0.  1.
         -2   -1    0    0    0  501 -0.00000000000E+00 -0.00000000000E+00 -0.60483306714E+03  0.60483306715E+03  0.25500000000E-02 0. -1.
    5000001    1    1    2    0    0  0.58075505599E+02  0.30305700304E+03 -0.17765552361E+03  0.40264351045E+03  0.18800000000E+03 0.  0.
   -5000001    1    1    2    0    0 -0.58075505599E+02 -0.30305700304E+03 -0.21096005441E+03  0.41840704583E+03  0.18800000000E+03 0.  0.
<mgrwt>
<rscale>  0 0.72325787E+03</rscale>
<asrwt>0</asrwt>
<pdfrwt beam="1">  1        2 0.30888213E-01 0.72325787E+03</pdfrwt>
<pdfrwt beam="2">  1       -2 0.86404723E-01 0.72325787E+03</pdfrwt>
<totfact> 0.20169052E+02</totfact>
</mgrwt>
</event>
<event>
 4    1  0.6165923E-005  0.6404525E+03  0.7818608E-02  0.9824861E-01
         -2   -1    0    0    0  501 -0.00000000000E+00  0.00000000000E+00  0.18406988132E+03  0.18406988133E+03  0.25500000000E-02 0. -1.
          2   -1    0    0  501    0  0.00000000000E+00 -0.00000000000E+00 -0.55709731985E+03  0.55709731985E+03  0.25500000000E-02 0.  1.
    5000001    1    1    2    0    0  0.13115351750E+03 -0.17174906048E+03 -0.35221499406E+03  0.45398060197E+03  0.18800000000E+03 0.  0.
   -5000001    1    1    2    0    0 -0.13115351750E+03  0.17174906048E+03 -0.20812444475E+02  0.28718659922E+03  0.18800000000E+03 0.  0.
<mgrwt>
<rscale>  0 0.64045246E+03</rscale>
<asrwt>0</asrwt>
<pdfrwt beam="1">  1        2 0.79585331E-01 0.64045246E+03</pdfrwt>
<pdfrwt beam="2">  1       -2 0.26295697E-01 0.64045246E+03</pdfrwt>
<totfact> 0.77704043E+02</totfact>
</mgrwt>
</event>
<event>
 4    1  0.6165923E-005  0.6448257E+03  0.7818608E-02  0.9816537E-01
          2   -1    0    0  501    0  0.00000000000E+00  0.00000000000E+00  0.28780944050E+03  0.28780944051E+03  0.25500000000E-02 0.  1.
         -2   -1    0    0    0  501 -0.00000000000E+00 -0.00000000000E+00 -0.36117659228E+03  0.36117659228E+03  0.25500000000E-02 0. -1.
    5000001    1    1    2    0    0  0.12177357681E+03  0.18402166447E+03 -0.17870837274E+03  0.34054876228E+03  0.18800000000E+03 0.  0.
   -5000001    1    1    2    0    0 -0.12177357681E+03 -0.18402166447E+03  0.10534122096E+03  0.30843727051E+03  0.18800000000E+03 0.  0.
<mgrwt>
<rscale>  0 0.64482566E+03</rscale>
<asrwt>0</asrwt>
<pdfrwt beam="1">  1        2 0.41115634E-01 0.64482566E+03</pdfrwt>
<pdfrwt beam="2">  1       -2 0.51596656E-01 0.64482566E+03</pdfrwt>
<totfact> 0.44686331E+02</totfact>
</mgrwt>
</event>
<event>
 4    1  0.6165923E-005  0.8673955E+03  0.7818608E-02  0.9467282E-01
         -2   -1    0    0    0  501 -0.00000000000E+00  0.00000000000E+00  0.82618930476E+03  0.82618930476E+03  0.25500000000E-02 0. -1.
          2   -1    0    0  501    0  0.00000000000E+00 -0.00000000000E+00 -0.22766421719E+03  0.22766421721E+03  0.25500000000E-02 0.  1.
    5000001    1    1    2    0    0  0.96972093506E+02 -0.37446934350E+03  0.36711434556E+03  0.56546248227E+03  0.18800000000E+03 0.  0.
   -5000001    1    1    2    0    0 -0.96972093506E+02  0.37446934350E+03  0.23141074201E+03  0.48839103970E+03  0.18800000000E+03 0.  0.
<mgrwt>
<rscale>  0 0.86739551E+03</rscale>
<asrwt>0</asrwt>
<pdfrwt beam="1">  1        2 0.32523460E-01 0.86739551E+03</pdfrwt>
<pdfrwt beam="2">  1       -2 0.11802704E+00 0.86739551E+03</pdfrwt>
<totfact> 0.90296217E+01</totfact>
</mgrwt>
</event>
<event>
 4    1  0.6165923E-005  0.5142638E+03  0.7818608E-02  0.1010121E+00
         -2   -1    0    0    0  501 -0.00000000000E+00  0.00000000000E+00  0.67386027453E+02  0.67386027501E+02  0.25500000000E-02 0. -1.
          2   -1    0    0  501    0  0.00000000000E+00 -0.00000000000E+00 -0.98116516869E+03  0.98116516869E+03  0.25500000000E-02 0.  1.
    5000001    1    1    2    0    0  0.14613896386E+03  0.43640476281E+02 -0.28017441898E+03  0.37027394316E+03  0.18800000000E+03 0.  0.
   -5000001    1    1    2    0    0 -0.14613896386E+03 -0.43640476281E+02 -0.63360472225E+03  0.67827725304E+03  0.18800000000E+03 0.  0.
<mgrwt>
<rscale>  0 0.51426384E+03</rscale>
<asrwt>0</asrwt>
<pdfrwt beam="1">  1        2 0.14016644E+00 0.51426384E+03</pdfrwt>
<pdfrwt beam="2">  1       -2 0.96265760E-02 0.51426384E+03</pdfrwt>
<totfact> 0.21116154E+03</totfact>
</mgrwt>
</event>
<event>
 4    1  0.6165923E-005  0.6495012E+03  0.7818608E-02  0.9807716E-01
         -2   -1    0    0    0  501 -0.00000000000E+00  0.00000000000E+00  0.11167221308E+03  0.11167221311E+03  0.25500000000E-02 0.  1.
          2   -1    0    0  501    0  0.00000000000E+00 -0.00000000000E+00 -0.94439750814E+03  0.94439750814E+03  0.25500000000E-02 0. -1.
    5000001    1    1    2    0    0 -0.83937576516E+02 -0.56516577351E+02 -0.18483621846E+02  0.21430185380E+03  0.18800000000E+03 0.  0.
   -5000001    1    1    2    0    0  0.83937576516E+02  0.56516577351E+02 -0.81424167321E+03  0.84176786744E+03  0.18800000000E+03 0.  0.
<mgrwt>
<rscale>  0 0.64950122E+03</rscale>
<asrwt>0</asrwt>
<pdfrwt beam="1">  1        2 0.13491392E+00 0.64950122E+03</pdfrwt>
<pdfrwt beam="2">  1       -2 0.15953174E-01 0.64950122E+03</pdfrwt>
<totfact> 0.96431744E+02</totfact>
</mgrwt>
</event>
<event>
 4    1  0.6165923E-005  0.5425264E+03  0.7818608E-02  0.1003239E+00
         -2   -1    0    0    0  501 -0.00000000000E+00  0.00000000000E+00  0.29839785647E+02  0.29839785756E+02  0.25500000000E-02 0.  1.
          2   -1    0    0  501    0  0.00000000000E+00 -0.00000000000E+00 -0.24659602410E+04  0.24659602410E+04  0.25500000000E-02 0. -1.
    5000001    1    1    2    0    0 -0.18336686844E+02  0.19379412833E+03 -0.11323252373E+04  0.11642151181E+04  0.18800000000E+03 0.  0.
   -5000001    1    1    2    0    0  0.18336686844E+02 -0.19379412833E+03 -0.13037952180E+04  0.13315849086E+04  0.18800000000E+03 0.  0.
<mgrwt>
<rscale>  0 0.54252641E+03</rscale>
<asrwt>0</asrwt>
<pdfrwt beam="1">  1        2 0.35227991E+00 0.54252641E+03</pdfrwt>
<pdfrwt beam="2">  1       -2 0.42628281E-02 0.54252641E+03</pdfrwt>
<totfact> 0.12698251E+03</totfact>
</mgrwt>
</event>
<event>
 4    1  0.6165923E-005  0.6332976E+03  0.7818608E-02  0.9838635E-01
          2   -1    0    0  501    0  0.00000000000E+00  0.00000000000E+00  0.34429112678E+03  0.34429112679E+03  0.25500000000E-02 0.  1.
         -2   -1    0    0    0  501 -0.00000000000E+00 -0.00000000000E+00 -0.29122579579E+03  0.29122579580E+03  0.25500000000E-02 0. -1.
    5000001    1    1    2    0    0  0.98489681599E+02 -0.93719503753E+01  0.26216269662E+03  0.33743344578E+03  0.18800000000E+03 0.  0.
   -5000001    1    1    2    0    0 -0.98489681599E+02  0.93719503753E+01 -0.20909736563E+03  0.29808347681E+03  0.18800000000E+03 0.  0.
<mgrwt>
<rscale>  0 0.63329758E+03</rscale>
<asrwt>0</asrwt>
<pdfrwt beam="1">  1        2 0.49184447E-01 0.63329758E+03</pdfrwt>
<pdfrwt beam="2">  1       -2 0.41603685E-01 0.63329758E+03</pdfrwt>
<totfact> 0.56372093E+02</totfact>
</mgrwt>
</event>
<event>
 4    1  0.6165923E-005  0.5513784E+03  0.7818608E-02  0.1001175E+00
          2   -1    0    0  501    0  0.00000000000E+00  0.00000000000E+00  0.15888900825E+04  0.15888900825E+04  0.25500000000E-02 0.  1.
         -2   -1    0    0    0  501 -0.00000000000E+00 -0.00000000000E+00 -0.47834978108E+02  0.47834978176E+02  0.25500000000E-02 0. -1.
    5000001    1    1    2    0    0 -0.17884191581E+03 -0.63543619450E+02  0.56836280158E+03  0.62801472645E+03  0.18800000000E+03 0.  0.
   -5000001    1    1    2    0    0  0.17884191581E+03  0.63543619450E+02  0.97269230285E+03  0.10087103343E+04  0.18800000000E+03 0.  0.
<mgrwt>
<rscale>  0 0.55137835E+03</rscale>
<asrwt>0</asrwt>
<pdfrwt beam="1">  1        2 0.22698431E+00 0.55137835E+03</pdfrwt>
<pdfrwt beam="2">  1       -2 0.68335678E-02 0.55137835E+03</pdfrwt>
<totfact> 0.16867556E+03</totfact>
</mgrwt>
</event>
<event>
 4    1  0.6165923E-005  0.5363191E+03  0.7818608E-02  0.1004711E+00
         -2   -1    0    0    0  501 -0.00000000000E+00  0.00000000000E+00  0.98848260441E+02  0.98848260474E+02  0.25500000000E-02 0. -1.
          2   -1    0    0  501    0  0.00000000000E+00 -0.00000000000E+00 -0.72747391348E+03  0.72747391348E+03  0.25500000000E-02 0.  1.
    5000001    1    1    2    0    0 -0.19044560154E+03 -0.82541310976E+01 -0.33757084268E+03  0.43085465258E+03  0.18800000000E+03 0.  0.
   -5000001    1    1    2    0    0  0.19044560154E+03  0.82541310976E+01 -0.29105481036E+03  0.39546752137E+03  0.18800000000E+03 0.  0.
<mgrwt>
<rscale>  0 0.53631905E+03</rscale>
<asrwt>0</asrwt>
<pdfrwt beam="1">  1        2 0.10392484E+00 0.53631905E+03</pdfrwt>
<pdfrwt beam="2">  1       -2 0.14121180E-01 0.53631905E+03</pdfrwt>
<totfact> 0.16636083E+03</totfact>
</mgrwt>
</event>
<event>
 4    1  0.6165923E-005  0.5491293E+03  0.7818608E-02  0.1001696E+00
         -2   -1    0    0    0  501 -0.00000000000E+00  0.00000000000E+00  0.70883113248E+03  0.70883113249E+03  0.25500000000E-02 0. -1.
          2   -1    0    0  501    0  0.00000000000E+00 -0.00000000000E+00 -0.10635220429E+03  0.10635220432E+03  0.25500000000E-02 0.  1.
    5000001    1    1    2    0    0  0.14445907931E+02 -0.13716338719E+03  0.51646287897E+03  0.56665720184E+03  0.18800000000E+03 0.  0.
   -5000001    1    1    2    0    0 -0.14445907931E+02  0.13716338719E+03  0.86016049226E+02  0.24852613497E+03  0.18800000000E+03 0.  0.
<mgrwt>
<rscale>  0 0.54912932E+03</rscale>
<asrwt>0</asrwt>
<pdfrwt beam="1">  1        2 0.15193172E-01 0.54912932E+03</pdfrwt>
<pdfrwt beam="2">  1       -2 0.10126159E+00 0.54912932E+03</pdfrwt>
<totfact> 0.32019155E+02</totfact>
</mgrwt>
</event>
<event>
 4    1  0.6165923E-005  0.1071323E+04  0.7818608E-02  0.9233602E-01
         -2   -1    0    0    0  501 -0.00000000000E+00  0.00000000000E+00  0.14459359449E+03  0.14459359452E+03  0.25500000000E-02 0. -1.
          2   -1    0    0  501    0  0.00000000000E+00 -0.00000000000E+00 -0.19844113589E+04  0.19844113589E+04  0.25500000000E-02 0.  1.
    5000001    1    1    2    0    0  0.12949535818E+03 -0.31395473081E+03 -0.16534570174E+04  0.16984112368E+04  0.18800000000E+03 0.  0.
   -5000001    1    1    2    0    0 -0.12949535818E+03  0.31395473081E+03 -0.18636074700E+03  0.43059371664E+03  0.18800000000E+03 0.  0.
<mgrwt>
<rscale>  0 0.10713229E+04</rscale>
<asrwt>0</asrwt>
<pdfrwt beam="1">  1        2 0.28348732E+00 0.10713229E+04</pdfrwt>
<pdfrwt beam="2">  1       -2 0.20656229E-01 0.10713229E+04</pdfrwt>
<totfact> 0.16425729E+02</totfact>
</mgrwt>
</event>
<event>
 4    1  0.6165923E-005  0.6462955E+03  0.7818608E-02  0.9813755E-01
          2   -1    0    0  501    0  0.00000000000E+00  0.00000000000E+00  0.46267867122E+03  0.46267867123E+03  0.25500000000E-02 0.  1.
         -2   -1    0    0    0  501 -0.00000000000E+00 -0.00000000000E+00 -0.22569544365E+03  0.22569544367E+03  0.25500000000E-02 0. -1.
    5000001    1    1    2    0    0 -0.26136424322E+03 -0.23016595022E+02  0.13497281101E+03  0.34986095951E+03  0.18800000000E+03 0.  0.
   -5000001    1    1    2    0    0  0.26136424322E+03  0.23016595022E+02  0.10201041656E+03  0.33851315538E+03  0.18800000000E+03 0.  0.
<mgrwt>
<rscale>  0 0.64629550E+03</rscale>
<asrwt>0</asrwt>
<pdfrwt beam="1">  1        2 0.66096952E-01 0.64629550E+03</pdfrwt>
<pdfrwt beam="2">  1       -2 0.32242207E-01 0.64629550E+03</pdfrwt>
<totfact> 0.66014747E+02</totfact>
</mgrwt>
</event>
<event>
 4    1  0.6165923E-005  0.4439349E+03  0.7818608E-02  0.1029546E+00
          2   -1    0    0  501    0  0.00000000000E+00  0.00000000000E+00  0.37097852692E+03  0.37097852693E+03  0.25500000000E-02 0.  1.
         -2   -1    0    0    0  501 -0.00000000000E+00 -0.00000000000E+00 -0.13280968094E+03  0.13280968096E+03  0.25500000000E-02 0. -1.
    5000001    1    1    2    0    0  0.74344197533E+02 -0.61282876141E+02  0.19640995354E+03  0.28845020448E+03  0.18800000000E+03 0.  0.
   -5000001    1    1    2    0    0 -0.74344197533E+02  0.61282876141E+02  0.41758892436E+02  0.21533800341E+03  0.18800000000E+03 0.  0.
<mgrwt>
<rscale>  0 0.44393486E+03</rscale>
<asrwt>0</asrwt>
<pdfrwt beam="1">  1        2 0.52996933E-01 0.44393486E+03</pdfrwt>
<pdfrwt beam="2">  1       -2 0.18972812E-01 0.44393486E+03</pdfrwt>
<totfact> 0.21816270E+03</totfact>
</mgrwt>
</event>
<event>
 4    1  0.6165923E-005  0.7001138E+03  0.7818608E-02  0.9717038E-01
          2   -1    0    0  501    0  0.00000000000E+00  0.00000000000E+00  0.21111920903E+04  0.21111920903E+04  0.25500000000E-02 0.  1.
         -2   -1    0    0    0  501 -0.00000000000E+00 -0.00000000000E+00 -0.58042952863E+02  0.58042952920E+02  0.25500000000E-02 0. -1.
    5000001    1    1    2    0    0 -0.24335933242E+03 -0.12289479491E+03  0.67508764478E+03  0.75194030576E+03  0.18800000000E+03 0.  0.
   -5000001    1    1    2    0    0  0.24335933242E+03  0.12289479491E+03  0.13780614926E+04  0.14172947374E+04  0.18800000000E+03 0.  0.
<mgrwt>
<rscale>  0 0.70011377E+03</rscale>
<asrwt>0</asrwt>
<pdfrwt beam="1">  1        2 0.30159894E+00 0.70011377E+03</pdfrwt>
<pdfrwt beam="2">  1       -2 0.82918486E-02 0.70011377E+03</pdfrwt>
<totfact> 0.66991806E+02</totfact>
</mgrwt>
</event>
<event>
 4    1  0.6165923E-005  0.1404757E+04  0.7818608E-02  0.8950383E-01
         -2   -1    0    0    0  501 -0.00000000000E+00  0.00000000000E+00  0.13364238429E+03  0.13364238432E+03  0.25500000000E-02 0. -1.
          2   -1    0    0  501    0  0.00000000000E+00 -0.00000000000E+00 -0.36914591993E+04  0.36914591993E+04  0.25500000000E-02 0.  1.
    5000001    1    1    2    0    0 -0.43622814889E+03  0.13629901434E+03 -0.41982769039E+03  0.64843789897E+03  0.18800000000E+03 0.  0.
   -5000001    1    1    2    0    0  0.43622814889E+03 -0.13629901434E+03 -0.31379891246E+04  0.31766636847E+04  0.18800000000E+03 0.  0.
<mgrwt>
<rscale>  0 0.14047568E+04</rscale>
<asrwt>0</asrwt>
<pdfrwt beam="1">  1        2 0.52735125E+00 0.14047568E+04</pdfrwt>
<pdfrwt beam="2">  1       -2 0.19091772E-01 0.14047568E+04</pdfrwt>
<totfact> 0.20942398E+01</totfact>
</mgrwt>
</event>
<event>
 4    1  0.6165923E-005  0.4817476E+03  0.7818608E-02  0.1018656E+00
         -2   -1    0    0    0  501 -0.00000000000E+00  0.00000000000E+00  0.45637887023E+02  0.45637887094E+02  0.25500000000E-02 0. -1.
          2   -1    0    0  501    0  0.00000000000E+00 -0.00000000000E+00 -0.12713163951E+04  0.12713163951E+04  0.25500000000E-02 0.  1.
    5000001    1    1    2    0    0  0.11353030316E+03  0.89553736407E+02 -0.72775857713E+03  0.76543160898E+03  0.18800000000E+03 0.  0.
   -5000001    1    1    2    0    0 -0.11353030316E+03 -0.89553736407E+02 -0.49791993099E+03  0.55152267326E+03  0.18800000000E+03 0.  0.
<mgrwt>
<rscale>  0 0.48174763E+03</rscale>
<asrwt>0</asrwt>
<pdfrwt beam="1">  1        2 0.18161661E+00 0.48174763E+03</pdfrwt>
<pdfrwt beam="2">  1       -2 0.65196990E-02 0.48174763E+03</pdfrwt>
<totfact> 0.26717363E+03</totfact>
</mgrwt>
</event>
<event>
 4    1  0.6165923E-005  0.5055572E+03  0.7818608E-02  0.1012338E+00
          2   -1    0    0  501    0  0.00000000000E+00  0.00000000000E+00  0.56991671161E+02  0.56991671218E+02  0.25500000000E-02 0.  1.
         -2   -1    0    0    0  501 -0.00000000000E+00 -0.00000000000E+00 -0.11211642546E+04  0.11211642546E+04  0.25500000000E-02 0. -1.
    5000001    1    1    2    0    0  0.16654612668E+03 -0.22908233433E+02 -0.57181450221E+03  0.62496257840E+03  0.18800000000E+03 0.  0.
   -5000001    1    1    2    0    0 -0.16654612668E+03  0.22908233433E+02 -0.49235808121E+03  0.55319334739E+03  0.18800000000E+03 0.  0.
<mgrwt>
<rscale>  0 0.50555722E+03</rscale>
<asrwt>0</asrwt>
<pdfrwt beam="1">  1        2 0.81416680E-02 0.50555722E+03</pdfrwt>
<pdfrwt beam="2">  1       -2 0.16016631E+00 0.50555722E+03</pdfrwt>
<totfact> 0.22161502E+02</totfact>
</mgrwt>
</event>
<event>
 4    1  0.6165923E-005  0.4454771E+03  0.7818608E-02  0.1029079E+00
          2   -1    0    0  501    0  0.00000000000E+00  0.00000000000E+00  0.14792910066E+04  0.14792910066E+04  0.25500000000E-02 0.  1.
         -2   -1    0    0    0  501 -0.00000000000E+00 -0.00000000000E+00 -0.33537995120E+02  0.33537995217E+02  0.25500000000E-02 0. -1.
    5000001    1    1    2    0    0 -0.30803993285E+02  0.10454307050E+03  0.88890860565E+03  0.91508505003E+03  0.18800000000E+03 0.  0.
   -5000001    1    1    2    0    0  0.30803993285E+02 -0.10454307050E+03  0.55684440581E+03  0.59774395177E+03  0.18800000000E+03 0.  0.
<mgrwt>
<rscale>  0 0.44547707E+03</rscale>
<asrwt>0</asrwt>
<pdfrwt beam="1">  1        2 0.21132731E+00 0.44547707E+03</pdfrwt>
<pdfrwt beam="2">  1       -2 0.47911416E-02 0.44547707E+03</pdfrwt>
<totfact> 0.33441457E+03</totfact>
</mgrwt>
</event>
<event>
 4    1  0.6165923E-005  0.6362618E+03  0.7818608E-02  0.9832905E-01
         -2   -1    0    0    0  501 -0.00000000000E+00  0.00000000000E+00  0.52302048651E+03  0.52302048652E+03  0.25500000000E-02 0. -1.
          2   -1    0    0  501    0  0.00000000000E+00 -0.00000000000E+00 -0.19350536200E+03  0.19350536202E+03  0.25500000000E-02 0.  1.
    5000001    1    1    2    0    0 -0.19920442217E+03  0.91082855135E+02  0.31536201726E+03  0.42752273652E+03  0.18800000000E+03 0.  0.
   -5000001    1    1    2    0    0  0.19920442217E+03 -0.91082855135E+02  0.14153107252E+02  0.28900311202E+03  0.18800000000E+03 0.  0.
<mgrwt>
<rscale>  0 0.63626180E+03</rscale>
<asrwt>0</asrwt>
<pdfrwt beam="1">  1        2 0.27643623E-01 0.63626180E+03</pdfrwt>
<pdfrwt beam="2">  1       -2 0.74717212E-01 0.63626180E+03</pdfrwt>
<totfact> 0.31760371E+02</totfact>
</mgrwt>
</event>
<event>
 4    1  0.6165923E-005  0.6299064E+03  0.7818608E-02  0.9845231E-01
         -2   -1    0    0    0  501 -0.00000000000E+00  0.00000000000E+00  0.70691507932E+02  0.70691507978E+02  0.25500000000E-02 0. -1.
          2   -1    0    0  501    0  0.00000000000E+00 -0.00000000000E+00 -0.14032169544E+04  0.14032169544E+04  0.25500000000E-02 0.  1.
    5000001    1    1    2    0    0 -0.13017785859E+03 -0.14147707454E+03 -0.28256809034E+03  0.39006507555E+03  0.18800000000E+03 0.  0.
   -5000001    1    1    2    0    0  0.13017785859E+03  0.14147707454E+03 -0.10499573561E+04  0.10838433868E+04  0.18800000000E+03 0.  0.
<mgrwt>
<rscale>  0 0.62990641E+03</rscale>
<asrwt>0</asrwt>
<pdfrwt beam="1">  1        2 0.20045955E+00 0.62990641E+03</pdfrwt>
<pdfrwt beam="2">  1       -2 0.10098788E-01 0.62990641E+03</pdfrwt>
<totfact> 0.11262554E+03</totfact>
</mgrwt>
</event>
<event>
 4    1  0.6165923E-005  0.7192676E+03  0.7818608E-02  0.9684838E-01
          2   -1    0    0  501    0  0.00000000000E+00  0.00000000000E+00  0.59826834163E+03  0.59826834163E+03  0.25500000000E-02 0.  1.
         -2   -1    0    0    0  501 -0.00000000000E+00 -0.00000000000E+00 -0.21618471780E+03  0.21618471781E+03  0.25500000000E-02 0. -1.
    5000001    1    1    2    0    0  0.12943263680E+03  0.23319801509E+03  0.19844080705E+02  0.32691269362E+03  0.18800000000E+03 0.  0.
   -5000001    1    1    2    0    0 -0.12943263680E+03 -0.23319801509E+03  0.36223954313E+03  0.48754036583E+03  0.18800000000E+03 0.  0.
<mgrwt>
<rscale>  0 0.71926761E+03</rscale>
<asrwt>0</asrwt>
<pdfrwt beam="1">  1        2 0.85466906E-01 0.71926761E+03</pdfrwt>
<pdfrwt beam="2">  1       -2 0.30883531E-01 0.71926761E+03</pdfrwt>
<totfact> 0.53102498E+02</totfact>
</mgrwt>
</event>
<event>
 4    1  0.6165923E-005  0.4901871E+03  0.7818608E-02  0.1016372E+00
          2   -1    0    0  501    0  0.00000000000E+00  0.00000000000E+00  0.15564921638E+04  0.15564921638E+04  0.25500000000E-02 0.  1.
         -2   -1    0    0    0  501 -0.00000000000E+00 -0.00000000000E+00 -0.38593732804E+02  0.38593732888E+02  0.25500000000E-02 0. -1.
    5000001    1    1    2    0    0 -0.54430542455E+02 -0.12440993668E+03  0.50094863550E+03  0.55202722008E+03  0.18800000000E+03 0.  0.
   -5000001    1    1    2    0    0  0.54430542455E+02  0.12440993668E+03  0.10169497955E+04  0.10430586766E+04  0.18800000000E+03 0.  0.
<mgrwt>
<rscale>  0 0.49018708E+03</rscale>
<asrwt>0</asrwt>
<pdfrwt beam="1">  1        2 0.22235602E+00 0.49018708E+03</pdfrwt>
<pdfrwt beam="2">  1       -2 0.55133906E-02 0.49018708E+03</pdfrwt>
<totfact> 0.24553108E+03</totfact>
</mgrwt>
</event>
<event>
 4    1  0.6165923E-005  0.5601900E+03  0.7818608E-02  0.9991625E-01
         -2   -1    0    0    0  501 -0.00000000000E+00  0.00000000000E+00  0.36863836129E+02  0.36863836218E+02  0.25500000000E-02 0. -1.
          2   -1    0    0  501    0  0.00000000000E+00 -0.00000000000E+00 -0.21281890039E+04  0.21281890039E+04  0.25500000000E-02 0.  1.
    5000001    1    1    2    0    0 -0.76631040236E+02 -0.16991432326E+03 -0.13991651089E+04  0.14239909394E+04  0.18800000000E+03 0.  0.
   -5000001    1    1    2    0    0  0.76631040236E+02  0.16991432326E+03 -0.69216005886E+03  0.74106190069E+03  0.18800000000E+03 0.  0.
<mgrwt>
<rscale>  0 0.56019001E+03</rscale>
<asrwt>0</asrwt>
<pdfrwt beam="1">  1        2 0.30402692E+00 0.56019001E+03</pdfrwt>
<pdfrwt beam="2">  1       -2 0.52662637E-02 0.56019001E+03</pdfrwt>
<totfact> 0.13552246E+03</totfact>
</mgrwt>
</event>
<event>
 4    1  0.6165923E-005  0.7307669E+03  0.7818608E-02  0.9666017E-01
         -2   -1    0    0    0  501 -0.00000000000E+00  0.00000000000E+00  0.74934661814E+03  0.74934661814E+03  0.25500000000E-02 0. -1.
          2   -1    0    0  501    0  0.00000000000E+00 -0.00000000000E+00 -0.17816194313E+03  0.17816194315E+03  0.25500000000E-02 0.  1.
    5000001    1    1    2    0    0 -0.26209654543E+03  0.60299706729E+02  0.81604339463E+02  0.33813299451E+03  0.18800000000E+03 0.  0.
   -5000001    1    1    2    0    0  0.26209654543E+03 -0.60299706729E+02  0.48958033554E+03  0.58937556677E+03  0.18800000000E+03 0.  0.
<mgrwt>
<rscale>  0 0.73076686E+03</rscale>
<asrwt>0</asrwt>
<pdfrwt beam="1">  1        2 0.25451707E-01 0.73076686E+03</pdfrwt>
<pdfrwt beam="2">  1       -2 0.10704952E+00 0.73076686E+03</pdfrwt>
<totfact> 0.15207048E+02</totfact>
</mgrwt>
</event>
<event>
 4    1  0.6165923E-005  0.5470051E+03  0.7818608E-02  0.1002190E+00
         -2   -1    0    0    0  501 -0.00000000000E+00  0.00000000000E+00  0.74159437236E+03  0.74159437237E+03  0.25500000000E-02 0. -1.
          2   -1    0    0  501    0  0.00000000000E+00 -0.00000000000E+00 -0.10086867525E+03  0.10086867528E+03  0.25500000000E-02 0.  1.
    5000001    1    1    2    0    0 -0.55253716895E+02 -0.19054272525E+03  0.33577488950E+03  0.43295297643E+03  0.18800000000E+03 0.  0.
   -5000001    1    1    2    0    0  0.55253716895E+02  0.19054272525E+03  0.30495080761E+03  0.40951007122E+03  0.18800000000E+03 0.  0.
<mgrwt>
<rscale>  0 0.54700509E+03</rscale>
<asrwt>0</asrwt>
<pdfrwt beam="1">  1        2 0.14409810E-01 0.54700509E+03</pdfrwt>
<pdfrwt beam="2">  1       -2 0.10594206E+00 0.54700509E+03</pdfrwt>
<totfact> 0.30662077E+02</totfact>
</mgrwt>
</event>
<event>
 4    1  0.6165923E-005  0.5688202E+03  0.7818608E-02  0.9972293E-01
          2   -1    0    0  501    0  0.00000000000E+00  0.00000000000E+00  0.58277927845E+03  0.58277927846E+03  0.25500000000E-02 0.  1.
         -2   -1    0    0    0  501 -0.00000000000E+00 -0.00000000000E+00 -0.13879885068E+03  0.13879885070E+03  0.25500000000E-02 0. -1.
    5000001    1    1    2    0    0  0.19469654711E+03  0.84651255008E+02  0.19441521203E+03  0.34382241797E+03  0.18800000000E+03 0.  0.
   -5000001    1    1    2    0    0 -0.19469654711E+03 -0.84651255008E+02  0.24956521574E+03  0.37775571119E+03  0.18800000000E+03 0.  0.
<mgrwt>
<rscale>  0 0.56882016E+03</rscale>
<asrwt>0</asrwt>
<pdfrwt beam="1">  1        2 0.83254182E-01 0.56882016E+03</pdfrwt>
<pdfrwt beam="2">  1       -2 0.19828407E-01 0.56882016E+03</pdfrwt>
<totfact> 0.12175351E+03</totfact>
</mgrwt>
</event>
<event>
 4    1  0.6165923E-005  0.4055871E+03  0.7818608E-02  0.1041862E+00
         -2   -1    0    0    0  501 -0.00000000000E+00  0.00000000000E+00  0.21106355009E+02  0.21106355163E+02  0.25500000000E-02 0. -1.
          2   -1    0    0  501    0  0.00000000000E+00 -0.00000000000E+00 -0.19484758319E+04  0.19484758319E+04  0.25500000000E-02 0.  1.
    5000001    1    1    2    0    0  0.50482120019E+02  0.33124509327E+02 -0.73927362152E+03  0.76518962685E+03  0.18800000000E+03 0.  0.
   -5000001    1    1    2    0    0 -0.50482120019E+02 -0.33124509327E+02 -0.11880958554E+04  0.12043925602E+04  0.18800000000E+03 0.  0.
<mgrwt>
<rscale>  0 0.40558709E+03</rscale>
<asrwt>0</asrwt>
<pdfrwt beam="1">  1        2 0.27835358E+00 0.40558709E+03</pdfrwt>
<pdfrwt beam="2">  1       -2 0.30151948E-02 0.40558709E+03</pdfrwt>
<totfact> 0.39289751E+03</totfact>
</mgrwt>
</event>
<event>
 4    1  0.6165923E-005  0.4635177E+03  0.7818608E-02  0.1023766E+00
          2   -1    0    0  501    0  0.00000000000E+00  0.00000000000E+00  0.11002092903E+04  0.11002092903E+04  0.25500000000E-02 0.  1.
         -2   -1    0    0    0  501 -0.00000000000E+00 -0.00000000000E+00 -0.48819960936E+02  0.48819961003E+02  0.25500000000E-02 0. -1.
    5000001    1    1    2    0    0  0.32317776799E+02  0.13137013435E+03  0.50561321184E+03  0.55613961456E+03  0.18800000000E+03 0.  0.
   -5000001    1    1    2    0    0 -0.32317776799E+02 -0.13137013435E+03  0.54577611748E+03  0.59288963670E+03  0.18800000000E+03 0.  0.
<mgrwt>
<rscale>  0 0.46351774E+03</rscale>
<asrwt>0</asrwt>
<pdfrwt beam="1">  1        2 0.15717274E+00 0.46351774E+03</pdfrwt>
<pdfrwt beam="2">  1       -2 0.69742810E-02 0.46351774E+03</pdfrwt>
<totfact> 0.29956399E+03</totfact>
</mgrwt>
</event>
<event>
 4    1  0.6165923E-005  0.8017932E+03  0.7818608E-02  0.9557425E-01
         -2   -1    0    0    0  501 -0.00000000000E+00  0.00000000000E+00  0.31908069795E+03  0.31908069796E+03  0.25500000000E-02 0. -1.
          2   -1    0    0  501    0  0.00000000000E+00 -0.00000000000E+00 -0.50369107076E+03  0.50369107076E+03  0.25500000000E-02 0.  1.
    5000001    1    1    2    0    0 -0.12948472874E+03  0.32587241822E+03 -0.14273332137E+03  0.42270075581E+03  0.18800000000E+03 0.  0.
   -5000001    1    1    2    0    0  0.12948472874E+03 -0.32587241822E+03 -0.41877051439E+02  0.40007101291E+03  0.18800000000E+03 0.  0.
<mgrwt>
<rscale>  0 0.80179324E+03</rscale>
<asrwt>0</asrwt>
<pdfrwt beam="1">  1        2 0.71955868E-01 0.80179324E+03</pdfrwt>
<pdfrwt beam="2">  1       -2 0.45582957E-01 0.80179324E+03</pdfrwt>
<totfact> 0.30556793E+02</totfact>
</mgrwt>
</event>
<event>
 4    1  0.6165923E-005  0.4901942E+03  0.7818608E-02  0.1016371E+00
         -2   -1    0    0    0  501 -0.00000000000E+00  0.00000000000E+00  0.31518428140E+02  0.31518428243E+02  0.25500000000E-02 0. -1.
          2   -1    0    0  501    0  0.00000000000E+00 -0.00000000000E+00 -0.19059515307E+04  0.19059515307E+04  0.25500000000E-02 0.  1.
    5000001    1    1    2    0    0  0.14687525582E+03  0.15507282122E+02 -0.72379211254E+03  0.76225444488E+03  0.18800000000E+03 0.  0.
   -5000001    1    1    2    0    0 -0.14687525582E+03 -0.15507282122E+02 -0.11506409900E+04  0.11752155140E+04  0.18800000000E+03 0.  0.
<mgrwt>
<rscale>  0 0.49019423E+03</rscale>
<asrwt>0</asrwt>
<pdfrwt beam="1">  1        2 0.27227872E+00 0.49019423E+03</pdfrwt>
<pdfrwt beam="2">  1       -2 0.45026338E-02 0.49019423E+03</pdfrwt>
<totfact> 0.22367734E+03</totfact>
</mgrwt>
</event>
<event>
 4    1  0.6165923E-005  0.1052118E+04  0.7818608E-02  0.9253160E-01
          2   -1    0    0  501    0  0.00000000000E+00  0.00000000000E+00  0.69785380315E+03  0.69785380315E+03  0.25500000000E-02 0.  1.
         -2   -1    0    0    0  501 -0.00000000000E+00 -0.00000000000E+00 -0.39655618415E+03  0.39655618416E+03  0.25500000000E-02 0. -1.
    5000001    1    1    2    0    0  0.42174410489E+03  0.18239007924E+03  0.33159523122E+03  0.59702062643E+03  0.18800000000E+03 0.  0.
   -5000001    1    1    2    0    0 -0.42174410489E+03 -0.18239007924E+03 -0.30297612228E+02  0.49738936088E+03  0.18800000000E+03 0.  0.
<mgrwt>
<rscale>  0 0.10521183E+04</rscale>
<asrwt>0</asrwt>
<pdfrwt beam="1">  1        2 0.99693400E-01 0.10521183E+04</pdfrwt>
<pdfrwt beam="2">  1       -2 0.56650883E-01 0.10521183E+04</pdfrwt>
<totfact> 0.13152012E+02</totfact>
</mgrwt>
</event>
<event>
 4    1  0.6165923E-005  0.5092525E+03  0.7818608E-02  0.1011392E+00
         -2   -1    0    0    0  501 -0.00000000000E+00  0.00000000000E+00  0.28479481336E+03  0.28479481337E+03  0.25500000000E-02 0. -1.
          2   -1    0    0  501    0  0.00000000000E+00 -0.00000000000E+00 -0.22765344841E+03  0.22765344843E+03  0.25500000000E-02 0.  1.
    5000001    1    1    2    0    0  0.48679349470E+02  0.14647965643E+03 -0.47164849296E+02  0.24777911902E+03  0.18800000000E+03 0.  0.
   -5000001    1    1    2    0    0 -0.48679349470E+02 -0.14647965643E+03  0.10430621424E+03  0.26466914278E+03  0.18800000000E+03 0.  0.
<mgrwt>
<rscale>  0 0.50925248E+03</rscale>
<asrwt>0</asrwt>
<pdfrwt beam="1">  1        2 0.32521921E-01 0.50925248E+03</pdfrwt>
<pdfrwt beam="2">  1       -2 0.40684973E-01 0.50925248E+03</pdfrwt>
<totfact> 0.93154694E+02</totfact>
</mgrwt>
</event>
<event>
 4    1  0.6165923E-005  0.5110203E+03  0.7818608E-02  0.1010942E+00
         -2   -1    0    0    0  501 -0.00000000000E+00  0.00000000000E+00  0.14055457162E+03  0.14055457165E+03  0.25500000000E-02 0. -1.
          2   -1    0    0  501    0  0.00000000000E+00 -0.00000000000E+00 -0.46448468532E+03  0.46448468533E+03  0.25500000000E-02 0.  1.
    5000001    1    1    2    0    0  0.23116821122E+02 -0.15878481059E+03 -0.85284988243E+02  0.26146612154E+03  0.18800000000E+03 0.  0.
   -5000001    1    1    2    0    0 -0.23116821122E+02  0.15878481059E+03 -0.23864512545E+03  0.34357313544E+03  0.18800000000E+03 0.  0.
<mgrwt>
<rscale>  0 0.51102034E+03</rscale>
<asrwt>0</asrwt>
<pdfrwt beam="1">  1        2 0.66354954E-01 0.51102034E+03</pdfrwt>
<pdfrwt beam="2">  1       -2 0.20079225E-01 0.51102034E+03</pdfrwt>
<totfact> 0.15437678E+03</totfact>
</mgrwt>
</event>
<event>
 4    1  0.6165923E-005  0.7058213E+03  0.7818608E-02  0.9707328E-01
          2   -1    0    0  501    0  0.00000000000E+00  0.00000000000E+00  0.27132194703E+04  0.27132194703E+04  0.25500000000E-02 0.  1.
         -2   -1    0    0    0  501 -0.00000000000E+00 -0.00000000000E+00 -0.45903374669E+02  0.45903374740E+02  0.25500000000E-02 0. -1.
    5000001    1    1    2    0    0  0.81881792059E+01  0.28492873373E+03  0.16822148029E+04  0.17165203385E+04  0.18800000000E+03 0.  0.
   -5000001    1    1    2    0    0 -0.81881792059E+01 -0.28492873373E+03  0.98510129272E+03  0.10426025065E+04  0.18800000000E+03 0.  0.
<mgrwt>
<rscale>  0 0.70582131E+03</rscale>
<asrwt>0</asrwt>
<pdfrwt beam="1">  1        2 0.38760288E+00 0.70582131E+03</pdfrwt>
<pdfrwt beam="2">  1       -2 0.65576233E-02 0.70582131E+03</pdfrwt>
<totfact> 0.47732941E+02</totfact>
</mgrwt>
</event>
<event>
 4    1  0.6165923E-005  0.5502246E+03  0.7818608E-02  0.1001442E+00
         -2   -1    0    0    0  501 -0.00000000000E+00  0.00000000000E+00  0.44908551706E+02  0.44908551778E+02  0.25500000000E-02 0. -1.
          2   -1    0    0  501    0  0.00000000000E+00 -0.00000000000E+00 -0.16853533370E+04  0.16853533370E+04  0.25500000000E-02 0.  1.
    5000001    1    1    2    0    0  0.18633488060E+03 -0.59353397289E+02 -0.67614183769E+03  0.72852954516E+03  0.18800000000E+03 0.  0.
   -5000001    1    1    2    0    0 -0.18633488060E+03  0.59353397289E+02 -0.96430294761E+03  0.10017323436E+04  0.18800000000E+03 0.  0.
<mgrwt>
<rscale>  0 0.55022460E+03</rscale>
<asrwt>0</asrwt>
<pdfrwt beam="1">  1        2 0.24076472E+00 0.55022460E+03</pdfrwt>
<pdfrwt beam="2">  1       -2 0.64155085E-02 0.55022460E+03</pdfrwt>
<totfact> 0.16632314E+03</totfact>
</mgrwt>
</event>
<event>
 4    1  0.6165923E-005  0.5440915E+03  0.7818608E-02  0.1002871E+00
          2   -1    0    0  501    0  0.00000000000E+00  0.00000000000E+00  0.80115639689E+03  0.80115639689E+03  0.25500000000E-02 0.  1.
         -2   -1    0    0    0  501 -0.00000000000E+00 -0.00000000000E+00 -0.92377580210E+02  0.92377580245E+02  0.25500000000E-02 0. -1.
    5000001    1    1    2    0    0  0.75499677543E+02  0.18057791689E+03  0.38538853457E+03  0.47135645531E+03  0.18800000000E+03 0.  0.
   -5000001    1    1    2    0    0 -0.75499677543E+02 -0.18057791689E+03  0.32339028211E+03  0.42217752183E+03  0.18800000000E+03 0.  0.
<mgrwt>
<rscale>  0 0.54409150E+03</rscale>
<asrwt>0</asrwt>
<pdfrwt beam="1">  1        2 0.11445092E+00 0.54409150E+03</pdfrwt>
<pdfrwt beam="2">  1       -2 0.13196797E-01 0.54409150E+03</pdfrwt>
<totfact> 0.16498783E+03</totfact>
</mgrwt>
</event>
<event>
 4    1  0.6165923E-005  0.4048625E+03  0.7818608E-02  0.1042109E+00
          2   -1    0    0  501    0  0.00000000000E+00  0.00000000000E+00  0.72841935222E+03  0.72841935222E+03  0.25500000000E-02 0.  1.
         -2   -1    0    0    0  501 -0.00000000000E+00 -0.00000000000E+00 -0.56256616801E+02  0.56256616859E+02  0.25500000000E-02 0. -1.
    5000001    1    1    2    0    0 -0.40811900273E+02 -0.18355613504E+02  0.45288272239E+03  0.49239140934E+03  0.18800000000E+03 0.  0.
   -5000001    1    1    2    0    0  0.40811900273E+02  0.18355613504E+02  0.21928001303E+03  0.29228455974E+03  0.18800000000E+03 0.  0.
<mgrwt>
<rscale>  0 0.40486249E+03</rscale>
<asrwt>0</asrwt>
<pdfrwt beam="1">  1        2 0.10405991E+00 0.40486249E+03</pdfrwt>
<pdfrwt beam="2">  1       -2 0.80366594E-02 0.40486249E+03</pdfrwt>
<totfact> 0.41339678E+03</totfact>
</mgrwt>
</event>
<event>
 4    1  0.6165923E-005  0.5562973E+03  0.7818608E-02  0.1000047E+00
         -2   -1    0    0    0  501 -0.00000000000E+00  0.00000000000E+00  0.26208788206E+03  0.26208788207E+03  0.25500000000E-02 0. -1.
          2   -1    0    0  501    0  0.00000000000E+00 -0.00000000000E+00 -0.29519357307E+03  0.29519357308E+03  0.25500000000E-02 0.  1.
    5000001    1    1    2    0    0 -0.39840553277E+02  0.20092955556E+03 -0.24485338819E+02  0.27911196284E+03  0.18800000000E+03 0.  0.
   -5000001    1    1    2    0    0  0.39840553277E+02 -0.20092955556E+03 -0.86203521883E+01  0.27816949231E+03  0.18800000000E+03 0.  0.
<mgrwt>
<rscale>  0 0.55629725E+03</rscale>
<asrwt>0</asrwt>
<pdfrwt beam="1">  1        2 0.42170510E-01 0.55629725E+03</pdfrwt>
<pdfrwt beam="2">  1       -2 0.37441126E-01 0.55629725E+03</pdfrwt>
<totfact> 0.82011275E+02</totfact>
</mgrwt>
</event>
<event>
 4    1  0.6165923E-005  0.7784142E+03  0.7818608E-02  0.9591798E-01
         -2   -1    0    0    0  501 -0.00000000000E+00  0.00000000000E+00  0.42994001363E+02  0.42994001439E+02  0.25500000000E-02 0. -1.
          2   -1    0    0  501    0  0.00000000000E+00 -0.00000000000E+00 -0.35233329841E+04  0.35233329841E+04  0.25500000000E-02 0.  1.
    5000001    1    1    2    0    0  0.71932979543E+02  0.20520599745E+03 -0.29423675138E+04  0.29563752200E+04  0.18800000000E+03 0.  0.
   -5000001    1    1    2    0    0 -0.71932979543E+02 -0.20520599745E+03 -0.53797146888E+03  0.60995176552E+03  0.18800000000E+03 0.  0.
<mgrwt>
<rscale>  0 0.77841424E+03</rscale>
<asrwt>0</asrwt>
<pdfrwt beam="1">  1        2 0.50333310E+00 0.77841424E+03</pdfrwt>
<pdfrwt beam="2">  1       -2 0.61420024E-02 0.77841424E+03</pdfrwt>
<totfact> 0.18503217E+02</totfact>
</mgrwt>
</event>
<event>
 4    1  0.6165923E-005  0.4154657E+03  0.7818608E-02  0.1038552E+00
         -2   -1    0    0    0  501 -0.00000000000E+00  0.00000000000E+00  0.16172595886E+03  0.16172595888E+03  0.25500000000E-02 0. -1.
          2   -1    0    0  501    0  0.00000000000E+00 -0.00000000000E+00 -0.26682749812E+03  0.26682749813E+03  0.25500000000E-02 0.  1.
    5000001    1    1    2    0    0  0.28073028898E+02  0.78417822476E+02 -0.83001614474E+02  0.22174471321E+03  0.18800000000E+03 0.  0.
   -5000001    1    1    2    0    0 -0.28073028898E+02 -0.78417822476E+02 -0.22099924785E+02  0.20680874379E+03  0.18800000000E+03 0.  0.
<mgrwt>
<rscale>  0 0.41546568E+03</rscale>
<asrwt>0</asrwt>
<pdfrwt beam="1">  1        2 0.38118214E-01 0.41546568E+03</pdfrwt>
<pdfrwt beam="2">  1       -2 0.23103708E-01 0.41546568E+03</pdfrwt>
<totfact> 0.22189464E+03</totfact>
</mgrwt>
</event>
<event>
 4    1  0.6165923E-005  0.8074481E+03  0.7818608E-02  0.9549298E-01
          2   -1    0    0  501    0  0.00000000000E+00  0.00000000000E+00  0.78940951093E+03  0.78940951093E+03  0.25500000000E-02 0.  1.
         -2   -1    0    0    0  501 -0.00000000000E+00 -0.00000000000E+00 -0.20647472063E+03  0.20647472064E+03  0.25500000000E-02 0. -1.
    5000001    1    1    2    0    0  0.32978555311E+03  0.11948715423E+03  0.20769409906E+03  0.44890592539E+03  0.18800000000E+03 0.  0.
   -5000001    1    1    2    0    0 -0.32978555311E+03 -0.11948715423E+03  0.37524069125E+03  0.54697830618E+03  0.18800000000E+03 0.  0.
<mgrwt>
<rscale>  0 0.80744810E+03</rscale>
<asrwt>0</asrwt>
<pdfrwt beam="1">  1        2 0.11277279E+00 0.80744810E+03</pdfrwt>
<pdfrwt beam="2">  1       -2 0.29496388E-01 0.80744810E+03</pdfrwt>
<totfact> 0.41019074E+02</totfact>
</mgrwt>
</event>
<event>
 4    1  0.6165923E-005  0.4921288E+03  0.7818608E-02  0.1015854E+00
         -2   -1    0    0    0  501 -0.00000000000E+00  0.00000000000E+00  0.28864697228E+02  0.28864697340E+02  0.25500000000E-02 0. -1.
          2   -1    0    0  501    0  0.00000000000E+00 -0.00000000000E+00 -0.20976383470E+04  0.20976383470E+04  0.25500000000E-02 0.  1.
    5000001    1    1    2    0    0 -0.14530339381E+03  0.54648467986E+01 -0.13097403252E+04  0.13311298435E+04  0.18800000000E+03 0.  0.
   -5000001    1    1    2    0    0  0.14530339381E+03 -0.54648467986E+01 -0.75903332456E+03  0.79537320083E+03  0.18800000000E+03 0.  0.
<mgrwt>
<rscale>  0 0.49212883E+03</rscale>
<asrwt>0</asrwt>
<pdfrwt beam="1">  1        2 0.29966252E+00 0.49212883E+03</pdfrwt>
<pdfrwt beam="2">  1       -2 0.41235295E-02 0.49212883E+03</pdfrwt>
<totfact> 0.20538658E+03</totfact>
</mgrwt>
</event>
<event>
 4    1  0.6165923E-005  0.6391225E+03  0.7818608E-02  0.9827407E-01
          2   -1    0    0  501    0  0.00000000000E+00  0.00000000000E+00  0.19761517659E+03  0.19761517660E+03  0.25500000000E-02 0.  1.
         -2   -1    0    0    0  501 -0.00000000000E+00 -0.00000000000E+00 -0.51675879060E+03  0.51675879061E+03  0.25500000000E-02 0. -1.
    5000001    1    1    2    0    0 -0.89693869384E+01  0.25600852554E+03 -0.12159218295E+03  0.34021974371E+03  0.18800000000E+03 0.  0.
   -5000001    1    1    2    0    0  0.89693869384E+01 -0.25600852554E+03 -0.19755143106E+03  0.37415422350E+03  0.18800000000E+03 0.  0.
<mgrwt>
<rscale>  0 0.63912246E+03</rscale>
<asrwt>0</asrwt>
<pdfrwt beam="1">  1        2 0.28230740E-01 0.63912246E+03</pdfrwt>
<pdfrwt beam="2">  1       -2 0.73822684E-01 0.63912246E+03</pdfrwt>
<totfact> 0.31845580E+02</totfact>
</mgrwt>
</event>
<event>
 4    1  0.6165923E-005  0.7801487E+03  0.7818608E-02  0.9589204E-01
          2   -1    0    0  501    0  0.00000000000E+00  0.00000000000E+00  0.13252228045E+04  0.13252228045E+04  0.25500000000E-02 0.  1.
         -2   -1    0    0    0  501 -0.00000000000E+00 -0.00000000000E+00 -0.11481690998E+03  0.11481691001E+03  0.25500000000E-02 0. -1.
    5000001    1    1    2    0    0 -0.67622829762E+02  0.32028330575E+03  0.42378513965E+03  0.56753157413E+03  0.18800000000E+03 0.  0.
   -5000001    1    1    2    0    0  0.67622829762E+02 -0.32028330575E+03  0.78662075489E+03  0.87250814040E+03  0.18800000000E+03 0.  0.
<mgrwt>
<rscale>  0 0.78014867E+03</rscale>
<asrwt>0</asrwt>
<pdfrwt beam="1">  1        2 0.18931753E+00 0.78014867E+03</pdfrwt>
<pdfrwt beam="2">  1       -2 0.16402416E-01 0.78014867E+03</pdfrwt>
<totfact> 0.55015227E+02</totfact>
</mgrwt>
</event>
<event>
 4    1  0.6165923E-005  0.4659323E+03  0.7818608E-02  0.1023075E+00
         -2   -1    0    0    0  501 -0.00000000000E+00  0.00000000000E+00  0.52285093098E+03  0.52285093099E+03  0.25500000000E-02 0. -1.
          2   -1    0    0  501    0  0.00000000000E+00 -0.00000000000E+00 -0.10380247899E+03  0.10380247902E+03  0.25500000000E-02 0.  1.
    5000001    1    1    2    0    0  0.19783242776E+02 -0.10624340401E+03  0.95004801658E+02  0.23674659433E+03  0.18800000000E+03 0.  0.
   -5000001    1    1    2    0    0 -0.19783242776E+02  0.10624340401E+03  0.32404365033E+03  0.38990681568E+03  0.18800000000E+03 0.  0.
<mgrwt>
<rscale>  0 0.46593228E+03</rscale>
<asrwt>0</asrwt>
<pdfrwt beam="1">  1        2 0.14828925E-01 0.46593228E+03</pdfrwt>
<pdfrwt beam="2">  1       -2 0.74692992E-01 0.46593228E+03</pdfrwt>
<totfact> 0.65932397E+02</totfact>
</mgrwt>
</event>
<event>
 4    1  0.6165923E-005  0.8788571E+03  0.7818608E-02  0.9452404E-01
          2   -1    0    0  501    0  0.00000000000E+00  0.00000000000E+00  0.24549413436E+03  0.24549413437E+03  0.25500000000E-02 0. -1.
         -2   -1    0    0    0  501 -0.00000000000E+00 -0.00000000000E+00 -0.78656637267E+03  0.78656637268E+03  0.25500000000E-02 0.  1.
    5000001    1    1    2    0    0  0.24911341803E+03  0.47391978610E+02  0.88448978748E+02  0.32782726628E+03  0.18800000000E+03 0.  0.
   -5000001    1    1    2    0    0 -0.24911341803E+03 -0.47391978610E+02 -0.62952121706E+03  0.70423324077E+03  0.18800000000E+03 0.  0.
<mgrwt>
<rscale>  0 0.87885706E+03</rscale>
<asrwt>0</asrwt>
<pdfrwt beam="1">  1        2 0.35070591E-01 0.87885706E+03</pdfrwt>
<pdfrwt beam="2">  1       -2 0.11236662E+00 0.87885706E+03</pdfrwt>
<totfact> 0.93503816E+01</totfact>
</mgrwt>
</event>
<event>
 4    1  0.6165923E-005  0.5264507E+03  0.7818608E-02  0.1007097E+00
         -2   -1    0    0    0  501 -0.00000000000E+00  0.00000000000E+00  0.19791787921E+03  0.19791787923E+03  0.25500000000E-02 0. -1.
          2   -1    0    0  501    0  0.00000000000E+00 -0.00000000000E+00 -0.35008253829E+03  0.35008253830E+03  0.25500000000E-02 0.  1.
    5000001    1    1    2    0    0 -0.46852863220E+01  0.16510548531E+03  0.88786699881E+01  0.25040887358E+03  0.18800000000E+03 0.  0.
   -5000001    1    1    2    0    0  0.46852863220E+01 -0.16510548531E+03 -0.16104332907E+03  0.29759154394E+03  0.18800000000E+03 0.  0.
<mgrwt>
<rscale>  0 0.52645073E+03</rscale>
<asrwt>0</asrwt>
<pdfrwt beam="1">  1        2 0.50011791E-01 0.52645073E+03</pdfrwt>
<pdfrwt beam="2">  1       -2 0.28273983E-01 0.52645073E+03</pdfrwt>
<totfact> 0.11490382E+03</totfact>
</mgrwt>
</event>
<event>
 4    1  0.6165923E-005  0.4150010E+03  0.7818608E-02  0.1038706E+00
         -2   -1    0    0    0  501 -0.00000000000E+00  0.00000000000E+00  0.38821115148E+02  0.38821115232E+02  0.25500000000E-02 0. -1.
          2   -1    0    0  501    0  0.00000000000E+00 -0.00000000000E+00 -0.11090990770E+04  0.11090990770E+04  0.25500000000E-02 0.  1.
    5000001    1    1    2    0    0  0.84249259455E+00  0.32542163830E+02 -0.76075164763E+03  0.78431292964E+03  0.18800000000E+03 0.  0.
   -5000001    1    1    2    0    0 -0.84249259455E+00 -0.32542163830E+02 -0.30952631423E+03  0.36360726261E+03  0.18800000000E+03 0.  0.
<mgrwt>
<rscale>  0 0.41500103E+03</rscale>
<asrwt>0</asrwt>
<pdfrwt beam="1">  1        2 0.15844270E+00 0.41500103E+03</pdfrwt>
<pdfrwt beam="2">  1       -2 0.55458743E-02 0.41500103E+03</pdfrwt>
<totfact> 0.42281259E+03</totfact>
</mgrwt>
</event>
<event>
 4    1  0.6165923E-005  0.3916537E+03  0.7818608E-02  0.1046709E+00
          2   -1    0    0  501    0  0.00000000000E+00  0.00000000000E+00  0.18505519559E+04  0.18505519559E+04  0.25500000000E-02 0.  1.
         -2   -1    0    0    0  501 -0.00000000000E+00 -0.00000000000E+00 -0.20722554065E+02  0.20722554221E+02  0.25500000000E-02 0. -1.
    5000001    1    1    2    0    0  0.83632150794E+01 -0.47179147077E+02  0.78775236308E+03  0.81129131686E+03  0.18800000000E+03 0.  0.
   -5000001    1    1    2    0    0 -0.83632150794E+01  0.47179147077E+02  0.10420770388E+04  0.10599831933E+04  0.18800000000E+03 0.  0.
<mgrwt>
<rscale>  0 0.39165374E+03</rscale>
<asrwt>0</asrwt>
<pdfrwt beam="1">  1        2 0.26436475E+00 0.39165374E+03</pdfrwt>
<pdfrwt beam="2">  1       -2 0.29603628E-02 0.39165374E+03</pdfrwt>
<totfact> 0.45170220E+03</totfact>
</mgrwt>
</event>
<event>
 4    1  0.6165923E-005  0.4403093E+03  0.7818608E-02  0.1030652E+00
          2   -1    0    0  501    0  0.00000000000E+00  0.00000000000E+00  0.38145184645E+03  0.38145184646E+03  0.25500000000E-02 0.  1.
         -2   -1    0    0    0  501 -0.00000000000E+00 -0.00000000000E+00 -0.12706209673E+03  0.12706209676E+03  0.25500000000E-02 0. -1.
    5000001    1    1    2    0    0 -0.11238563324E+03 -0.10378414722E+02  0.10450967329E+03  0.24290844749E+03  0.18800000000E+03 0.  0.
   -5000001    1    1    2    0    0  0.11238563324E+03  0.10378414722E+02  0.14988007642E+03  0.26560549573E+03  0.18800000000E+03 0.  0.
<mgrwt>
<rscale>  0 0.44030931E+03</rscale>
<asrwt>0</asrwt>
<pdfrwt beam="1">  1        2 0.54493122E-01 0.44030931E+03</pdfrwt>
<pdfrwt beam="2">  1       -2 0.18151728E-01 0.44030931E+03</pdfrwt>
<totfact> 0.22823509E+03</totfact>
</mgrwt>
</event>
<event>
 4    1  0.6165923E-005  0.5504056E+03  0.7818608E-02  0.1001400E+00
          2   -1    0    0  501    0  0.00000000000E+00  0.00000000000E+00  0.61917978672E+03  0.61917978673E+03  0.25500000000E-02 0.  1.
         -2   -1    0    0    0  501 -0.00000000000E+00 -0.00000000000E+00 -0.12231761441E+03  0.12231761444E+03  0.25500000000E-02 0. -1.
    5000001    1    1    2    0    0  0.15620809949E+03  0.58984723461E+02  0.39912562726E+03  0.47172601612E+03  0.18800000000E+03 0.  0.
   -5000001    1    1    2    0    0 -0.15620809949E+03 -0.58984723461E+02  0.97736545051E+02  0.26977138504E+03  0.18800000000E+03 0.  0.
<mgrwt>
<rscale>  0 0.55040565E+03</rscale>
<asrwt>0</asrwt>
<pdfrwt beam="1">  1        2 0.88454256E-01 0.55040565E+03</pdfrwt>
<pdfrwt beam="2">  1       -2 0.17473945E-01 0.55040565E+03</pdfrwt>
<totfact> 0.14100384E+03</totfact>
</mgrwt>
</event>
<event>
 4    1  0.6165923E-005  0.8115047E+03  0.7818608E-02  0.9543512E-01
          2   -1    0    0  501    0  0.00000000000E+00  0.00000000000E+00  0.25334733156E+04  0.25334733156E+04  0.25500000000E-02 0.  1.
         -2   -1    0    0    0  501 -0.00000000000E+00 -0.00000000000E+00 -0.64983904267E+02  0.64983904317E+02  0.25500000000E-02 0. -1.
    5000001    1    1    2    0    0  0.30372679076E+03  0.19174926838E+03  0.11813151399E+04  0.12489464381E+04  0.18800000000E+03 0.  0.
   -5000001    1    1    2    0    0 -0.30372679076E+03 -0.19174926838E+03  0.12871742714E+04  0.13495107818E+04  0.18800000000E+03 0.  0.
<mgrwt>
<rscale>  0 0.81150474E+03</rscale>
<asrwt>0</asrwt>
<pdfrwt beam="1">  1        2 0.36192471E+00 0.81150474E+03</pdfrwt>
<pdfrwt beam="2">  1       -2 0.92834162E-02 0.81150474E+03</pdfrwt>
<totfact> 0.33699580E+02</totfact>
</mgrwt>
</event>
<event>
 4    1  0.6165923E-005  0.5078158E+03  0.7818608E-02  0.1011759E+00
         -2   -1    0    0    0  501 -0.00000000000E+00  0.00000000000E+00  0.21411396480E+02  0.21411396631E+02  0.25500000000E-02 0. -1.
          2   -1    0    0  501    0  0.00000000000E+00 -0.00000000000E+00 -0.30109769320E+04  0.30109769320E+04  0.25500000000E-02 0.  1.
    5000001    1    1    2    0    0  0.88067328947E+02 -0.14493989771E+03 -0.13812010241E+04  0.14042163998E+04  0.18800000000E+03 0.  0.
   -5000001    1    1    2    0    0 -0.88067328947E+02  0.14493989771E+03 -0.16083645115E+04  0.16281719289E+04  0.18800000000E+03 0.  0.
<mgrwt>
<rscale>  0 0.50781580E+03</rscale>
<asrwt>0</asrwt>
<pdfrwt beam="1">  1        2 0.43013929E+00 0.50781580E+03</pdfrwt>
<pdfrwt beam="2">  1       -2 0.30587729E-02 0.50781580E+03</pdfrwt>
<totfact> 0.10942737E+03</totfact>
</mgrwt>
</event>
<event>
 4    1  0.6165923E-005  0.4703011E+03  0.7818608E-02  0.1021835E+00
         -2   -1    0    0    0  501 -0.00000000000E+00  0.00000000000E+00  0.31900934972E+02  0.31900935074E+02  0.25500000000E-02 0. -1.
          2   -1    0    0  501    0  0.00000000000E+00 -0.00000000000E+00 -0.17333594916E+04  0.17333594916E+04  0.25500000000E-02 0.  1.
    5000001    1    1    2    0    0 -0.13889201339E+03  0.12762997491E+02 -0.76697535791E+03  0.80190341384E+03  0.18800000000E+03 0.  0.
   -5000001    1    1    2    0    0  0.13889201339E+03 -0.12762997491E+02 -0.93448319871E+03  0.96335701283E+03  0.18800000000E+03 0.  0.
<mgrwt>
<rscale>  0 0.47030113E+03</rscale>
<asrwt>0</asrwt>
<pdfrwt beam="1">  1        2 0.24762273E+00 0.47030113E+03</pdfrwt>
<pdfrwt beam="2">  1       -2 0.45572775E-02 0.47030113E+03</pdfrwt>
<totfact> 0.26806233E+03</totfact>
</mgrwt>
</event>
<event>
 4    1  0.6165923E-005  0.7134174E+03  0.7818608E-02  0.9694558E-01
          2   -1    0    0  501    0  0.00000000000E+00  0.00000000000E+00  0.34291206332E+03  0.34291206333E+03  0.25500000000E-02 0.  1.
         -2   -1    0    0    0  501 -0.00000000000E+00 -0.00000000000E+00 -0.37106044822E+03  0.37106044823E+03  0.25500000000E-02 0. -1.
    5000001    1    1    2    0    0  0.69339404993E+02 -0.22358333342E+03  0.17868835270E+03  0.34938658740E+03  0.18800000000E+03 0.  0.
   -5000001    1    1    2    0    0 -0.69339404993E+02  0.22358333342E+03 -0.20683673760E+03  0.36458592415E+03  0.18800000000E+03 0.  0.
<mgrwt>
<rscale>  0 0.71341742E+03</rscale>
<asrwt>0</asrwt>
<pdfrwt beam="1">  1        2 0.48987438E-01 0.71341742E+03</pdfrwt>
<pdfrwt beam="2">  1       -2 0.53008635E-01 0.71341742E+03</pdfrwt>
<totfact> 0.34767988E+02</totfact>
</mgrwt>
</event>
<event>
 4    1  0.6165923E-005  0.6645390E+03  0.7818608E-02  0.9779874E-01
          2   -1    0    0  501    0  0.00000000000E+00  0.00000000000E+00  0.91508509070E+03  0.91508509070E+03  0.25500000000E-02 0.  1.
         -2   -1    0    0    0  501 -0.00000000000E+00 -0.00000000000E+00 -0.12064781597E+03  0.12064781600E+03  0.25500000000E-02 0. -1.
    5000001    1    1    2    0    0 -0.82002445699E+02  0.26116725382E+03  0.37970412096E+03  0.50443230967E+03  0.18800000000E+03 0.  0.
   -5000001    1    1    2    0    0  0.82002445699E+02 -0.26116725382E+03  0.41473315377E+03  0.53130059703E+03  0.18800000000E+03 0.  0.
<mgrwt>
<rscale>  0 0.66453899E+03</rscale>
<asrwt>0</asrwt>
<pdfrwt beam="1">  1        2 0.13072644E+00 0.66453899E+03</pdfrwt>
<pdfrwt beam="2">  1       -2 0.17235402E-01 0.66453899E+03</pdfrwt>
<totfact> 0.88193766E+02</totfact>
</mgrwt>
</event>
<event>
 4    1  0.6165923E-005  0.4180669E+03  0.7818608E-02  0.1037697E+00
          2   -1    0    0  501    0  0.00000000000E+00  0.00000000000E+00  0.28439078621E+04  0.28439078621E+04  0.25500000000E-02 0.  1.
         -2   -1    0    0    0  501 -0.00000000000E+00 -0.00000000000E+00 -0.15364415537E+02  0.15364415748E+02  0.25500000000E-02 0. -1.
    5000001    1    1    2    0    0 -0.28218394919E+02 -0.78894620708E+02  0.16637263839E+04  0.16764098900E+04  0.18800000000E+03 0.  0.
   -5000001    1    1    2    0    0  0.28218394919E+02  0.78894620708E+02  0.11648170627E+04  0.11828623878E+04  0.18800000000E+03 0.  0.
<mgrwt>
<rscale>  0 0.41806690E+03</rscale>
<asrwt>0</asrwt>
<pdfrwt beam="1">  1        2 0.40627321E+00 0.41806690E+03</pdfrwt>
<pdfrwt beam="2">  1       -2 0.21949130E-02 0.41806690E+03</pdfrwt>
<totfact> 0.22303826E+03</totfact>
</mgrwt>
</event>
<event>
 4    1  0.6165923E-005  0.4406915E+03  0.7818608E-02  0.1030535E+00
          2   -1    0    0  501    0  0.00000000000E+00  0.00000000000E+00  0.36972551649E+03  0.36972551650E+03  0.25500000000E-02 0.  1.
         -2   -1    0    0    0  501 -0.00000000000E+00 -0.00000000000E+00 -0.13131972741E+03  0.13131972744E+03  0.25500000000E-02 0. -1.
    5000001    1    1    2    0    0  0.50062346667E+01 -0.97407797392E+02  0.18831344295E+03  0.28340658809E+03  0.18800000000E+03 0.  0.
   -5000001    1    1    2    0    0 -0.50062346667E+01  0.97407797392E+02  0.50092346134E+02  0.21763865585E+03  0.18800000000E+03 0.  0.
<mgrwt>
<rscale>  0 0.44069152E+03</rscale>
<asrwt>0</asrwt>
<pdfrwt beam="1">  1        2 0.52817931E-01 0.44069152E+03</pdfrwt>
<pdfrwt beam="2">  1       -2 0.18759961E-01 0.44069152E+03</pdfrwt>
<totfact> 0.22324015E+03</totfact>
</mgrwt>
</event>
<event>
 4    1  0.6165923E-005  0.6092817E+03  0.7818608E-02  0.9886334E-01
         -2   -1    0    0    0  501 -0.00000000000E+00  0.00000000000E+00  0.32297536032E+03  0.32297536033E+03  0.25500000000E-02 0. -1.
          2   -1    0    0  501    0  0.00000000000E+00 -0.00000000000E+00 -0.28734714104E+03  0.28734714106E+03  0.25500000000E-02 0.  1.
    5000001    1    1    2    0    0 -0.19021427835E+03 -0.11962145524E+03 -0.65822723721E+02  0.30027886239E+03  0.18800000000E+03 0.  0.
   -5000001    1    1    2    0    0  0.19021427835E+03  0.11962145524E+03  0.10145094299E+03  0.31004363899E+03  0.18800000000E+03 0.  0.
<mgrwt>
<rscale>  0 0.60928170E+03</rscale>
<asrwt>0</asrwt>
<pdfrwt beam="1">  1        2 0.41049591E-01 0.60928170E+03</pdfrwt>
<pdfrwt beam="2">  1       -2 0.46139337E-01 0.60928170E+03</pdfrwt>
<totfact> 0.56132909E+02</totfact>
</mgrwt>
</event>
<event>
 4    1  0.6165923E-005  0.6490524E+03  0.7818608E-02  0.9808559E-01
          2   -1    0    0  501    0  0.00000000000E+00  0.00000000000E+00  0.13361223742E+04  0.13361223742E+04  0.25500000000E-02 0.  1.
         -2   -1    0    0    0  501 -0.00000000000E+00 -0.00000000000E+00 -0.78823066546E+02  0.78823066587E+02  0.25500000000E-02 0. -1.
    5000001    1    1    2    0    0 -0.22520229923E+03 -0.33234376704E+02  0.92236733775E+03  0.96846585129E+03  0.18800000000E+03 0.  0.
   -5000001    1    1    2    0    0  0.22520229923E+03  0.33234376704E+02  0.33493196992E+03  0.44647958951E+03  0.18800000000E+03 0.  0.
<mgrwt>
<rscale>  0 0.64905243E+03</rscale>
<asrwt>0</asrwt>
<pdfrwt beam="1">  1        2 0.19087463E+00 0.64905243E+03</pdfrwt>
<pdfrwt beam="2">  1       -2 0.11260438E-01 0.64905243E+03</pdfrwt>
<totfact> 0.10236172E+03</totfact>
</mgrwt>
</event>
<event>
 4    1  0.6165923E-005  0.5895060E+03  0.7818608E-02  0.9927420E-01
         -2   -1    0    0    0  501 -0.00000000000E+00  0.00000000000E+00  0.18709881717E+03  0.18709881719E+03  0.25500000000E-02 0. -1.
          2   -1    0    0  501    0  0.00000000000E+00 -0.00000000000E+00 -0.46434993025E+03  0.46434993026E+03  0.25500000000E-02 0.  1.
    5000001    1    1    2    0    0  0.75675227492E+02 -0.21402518752E+03 -0.14010889637E+03  0.32635567069E+03  0.18800000000E+03 0.  0.
   -5000001    1    1    2    0    0 -0.75675227492E+02  0.21402518752E+03 -0.13714221672E+03  0.32509307676E+03  0.18800000000E+03 0.  0.
<mgrwt>
<rscale>  0 0.58950597E+03</rscale>
<asrwt>0</asrwt>
<pdfrwt beam="1">  1        2 0.66335704E-01 0.58950597E+03</pdfrwt>
<pdfrwt beam="2">  1       -2 0.26728403E-01 0.58950597E+03</pdfrwt>
<totfact> 0.92959935E+02</totfact>
</mgrwt>
</event>
<event>
 4    1  0.6165923E-005  0.7154770E+03  0.7818608E-02  0.9691124E-01
         -2   -1    0    0    0  501 -0.00000000000E+00  0.00000000000E+00  0.74933875511E+03  0.74933875512E+03  0.25500000000E-02 0. -1.
          2   -1    0    0  501    0  0.00000000000E+00 -0.00000000000E+00 -0.17078636146E+03  0.17078636148E+03  0.25500000000E-02 0.  1.
    5000001    1    1    2    0    0 -0.25837563984E+03 -0.15356074983E+03  0.22768132846E+03  0.42133319651E+03  0.18800000000E+03 0.  0.
   -5000001    1    1    2    0    0  0.25837563984E+03  0.15356074983E+03  0.35087106519E+03  0.49879192009E+03  0.18800000000E+03 0.  0.
<mgrwt>
<rscale>  0 0.71547701E+03</rscale>
<asrwt>0</asrwt>
<pdfrwt beam="1">  1        2 0.24398052E-01 0.71547701E+03</pdfrwt>
<pdfrwt beam="2">  1       -2 0.10704839E+00 0.71547701E+03</pdfrwt>
<totfact> 0.15973136E+02</totfact>
</mgrwt>
</event>
<event>
 4    1  0.6165923E-005  0.5028298E+03  0.7818608E-02  0.1013043E+00
          2   -1    0    0  501    0  0.00000000000E+00  0.00000000000E+00  0.71616197564E+03  0.71616197565E+03  0.25500000000E-02 0.  1.
         -2   -1    0    0    0  501 -0.00000000000E+00 -0.00000000000E+00 -0.88261408044E+02  0.88261408081E+02  0.25500000000E-02 0. -1.
    5000001    1    1    2    0    0 -0.16338163997E+03 -0.20735383045E+02  0.27037398247E+03  0.36819778216E+03  0.18800000000E+03 0.  0.
   -5000001    1    1    2    0    0  0.16338163997E+03  0.20735383045E+02  0.35752658513E+03  0.43622560157E+03  0.18800000000E+03 0.  0.
<mgrwt>
<rscale>  0 0.50282985E+03</rscale>
<asrwt>0</asrwt>
<pdfrwt beam="1">  1        2 0.10230886E+00 0.50282985E+03</pdfrwt>
<pdfrwt beam="2">  1       -2 0.12608772E-01 0.50282985E+03</pdfrwt>
<totfact> 0.20464020E+03</totfact>
</mgrwt>
</event>
<event>
 4    1  0.6165923E-005  0.5421493E+03  0.7818608E-02  0.1003328E+00
          2   -1    0    0  501    0  0.00000000000E+00  0.00000000000E+00  0.54243163482E+03  0.54243163483E+03  0.25500000000E-02 0.  1.
         -2   -1    0    0    0  501 -0.00000000000E+00 -0.00000000000E+00 -0.13546680099E+03  0.13546680102E+03  0.25500000000E-02 0. -1.
    5000001    1    1    2    0    0 -0.14741543821E+03 -0.12604725323E+03  0.23194787815E+03  0.35603797501E+03  0.18800000000E+03 0.  0.
   -5000001    1    1    2    0    0  0.14741543821E+03  0.12604725323E+03  0.17501695568E+03  0.32186046083E+03  0.18800000000E+03 0.  0.
<mgrwt>
<rscale>  0 0.54214935E+03</rscale>
<asrwt>0</asrwt>
<pdfrwt beam="1">  1        2 0.77490234E-01 0.54214935E+03</pdfrwt>
<pdfrwt beam="2">  1       -2 0.19352400E-01 0.54214935E+03</pdfrwt>
<totfact> 0.13801573E+03</totfact>
</mgrwt>
</event>
<event>
 4    1  0.6165923E-005  0.6264273E+03  0.7818608E-02  0.9852046E-01
          2   -1    0    0  501    0  0.00000000000E+00  0.00000000000E+00  0.26337829913E+04  0.26337829913E+04  0.25500000000E-02 0.  1.
         -2   -1    0    0    0  501 -0.00000000000E+00 -0.00000000000E+00 -0.37247864826E+02  0.37247864913E+02  0.25500000000E-02 0. -1.
    5000001    1    1    2    0    0  0.22425259341E+03 -0.41352155453E+02  0.85597909976E+03  0.90556250234E+03  0.18800000000E+03 0.  0.
   -5000001    1    1    2    0    0 -0.22425259341E+03  0.41352155453E+02  0.17405560268E+04  0.17654683539E+04  0.18800000000E+03 0.  0.
<mgrwt>
<rscale>  0 0.62642731E+03</rscale>
<asrwt>0</asrwt>
<pdfrwt beam="1">  1        2 0.37625490E+00 0.62642731E+03</pdfrwt>
<pdfrwt beam="2">  1       -2 0.53211209E-02 0.62642731E+03</pdfrwt>
<totfact> 0.73380472E+02</totfact>
</mgrwt>
</event>
<event>
 4    1  0.6165923E-005  0.5560047E+03  0.7818608E-02  0.1000114E+00
         -2   -1    0    0    0  501 -0.00000000000E+00  0.00000000000E+00  0.31576807661E+03  0.31576807662E+03  0.25500000000E-02 0. -1.
          2   -1    0    0  501    0  0.00000000000E+00 -0.00000000000E+00 -0.24475338858E+03  0.24475338859E+03  0.25500000000E-02 0.  1.
    5000001    1    1    2    0    0 -0.91977212858E+02  0.15152343597E+03  0.13891816277E+03  0.29336225947E+03  0.18800000000E+03 0.  0.
   -5000001    1    1    2    0    0  0.91977212858E+02 -0.15152343597E+03 -0.67903474738E+02  0.26715920574E+03  0.18800000000E+03 0.  0.
<mgrwt>
<rscale>  0 0.55600470E+03</rscale>
<asrwt>0</asrwt>
<pdfrwt beam="1">  1        2 0.34964770E-01 0.55600470E+03</pdfrwt>
<pdfrwt beam="2">  1       -2 0.45109725E-01 0.55600470E+03</pdfrwt>
<totfact> 0.70174629E+02</totfact>
</mgrwt>
</event>
<event>
 4    1  0.6165923E-005  0.4146739E+03  0.7818608E-02  0.1038814E+00
          2   -1    0    0  501    0  0.00000000000E+00  0.00000000000E+00  0.30953634810E+03  0.30953634811E+03  0.25500000000E-02 0.  1.
         -2   -1    0    0    0  501 -0.00000000000E+00 -0.00000000000E+00 -0.13888062885E+03  0.13888062887E+03  0.25500000000E-02 0. -1.
    5000001    1    1    2    0    0 -0.59886370697E+01 -0.81125450114E+02  0.11998918942E+03  0.23739967988E+03  0.18800000000E+03 0.  0.
   -5000001    1    1    2    0    0  0.59886370697E+01  0.81125450114E+02  0.50666529822E+02  0.21101729710E+03  0.18800000000E+03 0.  0.
<mgrwt>
<rscale>  0 0.41467386E+03</rscale>
<asrwt>0</asrwt>
<pdfrwt beam="1">  1        2 0.44219478E-01 0.41467386E+03</pdfrwt>
<pdfrwt beam="2">  1       -2 0.19840090E-01 0.41467386E+03</pdfrwt>
<totfact> 0.24601795E+03</totfact>
</mgrwt>
</event>
<event>
 4    1  0.6165923E-005  0.7931678E+03  0.7818608E-02  0.9569959E-01
          2   -1    0    0  501    0  0.00000000000E+00  0.00000000000E+00  0.11004829291E+04  0.11004829291E+04  0.25500000000E-02 0.  1.
         -2   -1    0    0    0  501 -0.00000000000E+00 -0.00000000000E+00 -0.14291798026E+03  0.14291798028E+03  0.25500000000E-02 0. -1.
    5000001    1    1    2    0    0 -0.28486573251E+03 -0.76539161548E+02  0.77175937582E+03  0.84732712866E+03  0.18800000000E+03 0.  0.
   -5000001    1    1    2    0    0  0.28486573251E+03  0.76539161548E+02  0.18580557301E+03  0.39607378072E+03  0.18800000000E+03 0.  0.
<mgrwt>
<rscale>  0 0.79316782E+03</rscale>
<asrwt>0</asrwt>
<pdfrwt beam="1">  1        2 0.15721185E+00 0.79316782E+03</pdfrwt>
<pdfrwt beam="2">  1       -2 0.20416855E-01 0.79316782E+03</pdfrwt>
<totfact> 0.50403678E+02</totfact>
</mgrwt>
</event>
<event>
 4    1  0.6165923E-005  0.5552174E+03  0.7818608E-02  0.1000293E+00
         -2   -1    0    0    0  501 -0.00000000000E+00  0.00000000000E+00  0.27998579685E+03  0.27998579686E+03  0.25500000000E-02 0. -1.
          2   -1    0    0  501    0  0.00000000000E+00 -0.00000000000E+00 -0.27525175491E+03  0.27525175492E+03  0.25500000000E-02 0.  1.
    5000001    1    1    2    0    0  0.17655390634E+03  0.10271504494E+03  0.33260331678E+01  0.27762695257E+03  0.18800000000E+03 0.  0.
   -5000001    1    1    2    0    0 -0.17655390634E+03 -0.10271504494E+03  0.14080087727E+01  0.27761059920E+03  0.18800000000E+03 0.  0.
<mgrwt>
<rscale>  0 0.55521737E+03</rscale>
<asrwt>0</asrwt>
<pdfrwt beam="1">  1        2 0.39321679E-01 0.55521737E+03</pdfrwt>
<pdfrwt beam="2">  1       -2 0.39997971E-01 0.55521737E+03</pdfrwt>
<totfact> 0.77999621E+02</totfact>
</mgrwt>
</event>
<event>
 4    1  0.6165923E-005  0.6477149E+03  0.7818608E-02  0.9811077E-01
         -2   -1    0    0    0  501 -0.00000000000E+00  0.00000000000E+00  0.44483627139E+02  0.44483627212E+02  0.25500000000E-02 0. -1.
          2   -1    0    0  501    0  0.00000000000E+00 -0.00000000000E+00 -0.23578031476E+04  0.23578031476E+04  0.25500000000E-02 0.  1.
    5000001    1    1    2    0    0 -0.99970487957E+02 -0.38975616801E+02 -0.26324330588E+03  0.34081407726E+03  0.18800000000E+03 0.  0.
   -5000001    1    1    2    0    0  0.99970487957E+02  0.38975616801E+02 -0.20500762146E+04  0.20614726975E+04  0.18800000000E+03 0.  0.
<mgrwt>
<rscale>  0 0.64771486E+03</rscale>
<asrwt>0</asrwt>
<pdfrwt beam="1">  1        2 0.33682894E+00 0.64771486E+03</pdfrwt>
<pdfrwt beam="2">  1       -2 0.63548054E-02 0.64771486E+03</pdfrwt>
<totfact> 0.76931634E+02</totfact>
</mgrwt>
</event>
<event>
 4    1  0.6165923E-005  0.6031181E+03  0.7818608E-02  0.9898958E-01
          2   -1    0    0  501    0  0.00000000000E+00  0.00000000000E+00  0.39757122617E+04  0.39757122617E+04  0.25500000000E-02 0.  1.
         -2   -1    0    0    0  501 -0.00000000000E+00 -0.00000000000E+00 -0.22873349338E+02  0.22873349480E+02  0.25500000000E-02 0. -1.
    5000001    1    1    2    0    0  0.67515096443E+02 -0.21618182967E+03  0.15416210322E+04  0.15694687887E+04  0.18800000000E+03 0.  0.
   -5000001    1    1    2    0    0 -0.67515096443E+02  0.21618182967E+03  0.24112178802E+04  0.24291168225E+04  0.18800000000E+03 0.  0.
<mgrwt>
<rscale>  0 0.60311808E+03</rscale>
<asrwt>0</asrwt>
<pdfrwt beam="1">  1        2 0.56795899E+00 0.60311808E+03</pdfrwt>
<pdfrwt beam="2">  1       -2 0.32676208E-02 0.60311808E+03</pdfrwt>
<totfact> 0.26080112E+02</totfact>
</mgrwt>
</event>
<event>
 4    1  0.6165923E-005  0.6403686E+03  0.7818608E-02  0.9825022E-01
          2   -1    0    0  501    0  0.00000000000E+00  0.00000000000E+00  0.36159119164E+03  0.36159119165E+03  0.25500000000E-02 0.  1.
         -2   -1    0    0    0  501 -0.00000000000E+00 -0.00000000000E+00 -0.28351902898E+03  0.28351902899E+03  0.25500000000E-02 0. -1.
    5000001    1    1    2    0    0  0.92322407256E+02 -0.22758334644E+03  0.12245244364E+03  0.33265027793E+03  0.18800000000E+03 0.  0.
   -5000001    1    1    2    0    0 -0.92322407256E+02  0.22758334644E+03 -0.44380280981E+02  0.31245994271E+03  0.18800000000E+03 0.  0.
<mgrwt>
<rscale>  0 0.64036859E+03</rscale>
<asrwt>0</asrwt>
<pdfrwt beam="1">  1        2 0.51655884E-01 0.64036859E+03</pdfrwt>
<pdfrwt beam="2">  1       -2 0.40502718E-01 0.64036859E+03</pdfrwt>
<totfact> 0.56255616E+02</totfact>
</mgrwt>
</event>
<event>
 4    1  0.6165923E-005  0.2209241E+04  0.7818608E-02  0.8514592E-01
          2   -1    0    0  501    0  0.00000000000E+00  0.00000000000E+00  0.28803729760E+04  0.28803729760E+04  0.25500000000E-02 0.  1.
         -2   -1    0    0    0  501 -0.00000000000E+00 -0.00000000000E+00 -0.42362092336E+03  0.42362092336E+03  0.25500000000E-02 0. -1.
    5000001    1    1    2    0    0  0.98489435132E+03  0.16873838371E+03  0.18739768275E+04  0.21320465932E+04  0.18800000000E+03 0.  0.
   -5000001    1    1    2    0    0 -0.98489435132E+03 -0.16873838371E+03  0.58277522508E+03  0.11719473061E+04  0.18800000000E+03 0.  0.
<mgrwt>
<rscale>  0 0.22092408E+04</rscale>
<asrwt>0</asrwt>
<pdfrwt beam="1">  1        2 0.41148184E+00 0.22092408E+04</pdfrwt>
<pdfrwt beam="2">  1       -2 0.60517277E-01 0.22092408E+04</pdfrwt>
<totfact> 0.64147615E+00</totfact>
</mgrwt>
</event>
<event>
 4    1  0.6165923E-005  0.7218662E+03  0.7818608E-02  0.9680552E-01
          2   -1    0    0  501    0  0.00000000000E+00  0.00000000000E+00  0.91203906447E+03  0.91203906448E+03  0.25500000000E-02 0.  1.
         -2   -1    0    0    0  501 -0.00000000000E+00 -0.00000000000E+00 -0.14283675601E+03  0.14283675603E+03  0.25500000000E-02 0. -1.
    5000001    1    1    2    0    0  0.27587445805E+03 -0.13408237977E+03  0.42705237341E+03  0.55839281049E+03  0.18800000000E+03 0.  0.
   -5000001    1    1    2    0    0 -0.27587445805E+03  0.13408237977E+03  0.34214993506E+03  0.49648301002E+03  0.18800000000E+03 0.  0.
<mgrwt>
<rscale>  0 0.72186620E+03</rscale>
<asrwt>0</asrwt>
<pdfrwt beam="1">  1        2 0.13029130E+00 0.72186620E+03</pdfrwt>
<pdfrwt beam="2">  1       -2 0.20405250E-01 0.72186620E+03</pdfrwt>
<totfact> 0.66017086E+02</totfact>
</mgrwt>
</event>
<event>
 4    1  0.6165923E-005  0.4614873E+03  0.7818608E-02  0.1024351E+00
          2   -1    0    0  501    0  0.00000000000E+00  0.00000000000E+00  0.66758120419E+03  0.66758120420E+03  0.25500000000E-02 0.  1.
         -2   -1    0    0    0  501 -0.00000000000E+00 -0.00000000000E+00 -0.79754535157E+02  0.79754535197E+02  0.25500000000E-02 0. -1.
    5000001    1    1    2    0    0 -0.84732772596E+02 -0.56632748216E+02  0.43426760823E+03  0.48406535352E+03  0.18800000000E+03 0.  0.
   -5000001    1    1    2    0    0  0.84732772596E+02  0.56632748216E+02  0.15355906081E+03  0.26327038587E+03  0.18800000000E+03 0.  0.
<mgrwt>
<rscale>  0 0.46148729E+03</rscale>
<asrwt>0</asrwt>
<pdfrwt beam="1">  1        2 0.95368745E-01 0.46148729E+03</pdfrwt>
<pdfrwt beam="2">  1       -2 0.11393505E-01 0.46148729E+03</pdfrwt>
<totfact> 0.26290048E+03</totfact>
</mgrwt>
</event>
<event>
 4    1  0.6165923E-005  0.4762347E+03  0.7818608E-02  0.1020175E+00
          2   -1    0    0  501    0  0.00000000000E+00  0.00000000000E+00  0.77631349642E+03  0.77631349642E+03  0.25500000000E-02 0.  1.
         -2   -1    0    0    0  501 -0.00000000000E+00 -0.00000000000E+00 -0.73037344320E+02  0.73037344365E+02  0.25500000000E-02 0. -1.
    5000001    1    1    2    0    0  0.14027111302E+03 -0.25447690827E+02  0.40894014527E+03  0.47212245502E+03  0.18800000000E+03 0.  0.
   -5000001    1    1    2    0    0 -0.14027111302E+03  0.25447690827E+02  0.29433600682E+03  0.37722838577E+03  0.18800000000E+03 0.  0.
<mgrwt>
<rscale>  0 0.47623472E+03</rscale>
<asrwt>0</asrwt>
<pdfrwt beam="1">  1        2 0.11090193E+00 0.47623472E+03</pdfrwt>
<pdfrwt beam="2">  1       -2 0.10433906E-01 0.47623472E+03</pdfrwt>
<totfact> 0.25218524E+03</totfact>
</mgrwt>
</event>
<event>
 4    1  0.6165923E-005  0.5718900E+03  0.7818608E-02  0.9965505E-01
         -2   -1    0    0    0  501 -0.00000000000E+00  0.00000000000E+00  0.71238269971E+02  0.71238270016E+02  0.25500000000E-02 0. -1.
          2   -1    0    0  501    0  0.00000000000E+00 -0.00000000000E+00 -0.11477615823E+04  0.11477615823E+04  0.25500000000E-02 0.  1.
    5000001    1    1    2    0    0 -0.13577651428E+01 -0.19254520215E+03 -0.33220721790E+03  0.42752910313E+03  0.18800000000E+03 0.  0.
   -5000001    1    1    2    0    0  0.13577651428E+01  0.19254520215E+03 -0.74431609446E+03  0.79147074922E+03  0.18800000000E+03 0.  0.
<mgrwt>
<rscale>  0 0.57189002E+03</rscale>
<asrwt>0</asrwt>
<pdfrwt beam="1">  1        2 0.16396593E+00 0.57189002E+03</pdfrwt>
<pdfrwt beam="2">  1       -2 0.10176896E-01 0.57189002E+03</pdfrwt>
<totfact> 0.15384572E+03</totfact>
</mgrwt>
</event>
<event>
 4    1  0.6165923E-005  0.4403405E+03  0.7818608E-02  0.1030642E+00
          2   -1    0    0  501    0  0.00000000000E+00  0.00000000000E+00  0.83518117641E+03  0.83518117641E+03  0.25500000000E-02 0.  1.
         -2   -1    0    0    0  501 -0.00000000000E+00 -0.00000000000E+00 -0.58041224174E+02  0.58041224230E+02  0.25500000000E-02 0. -1.
    5000001    1    1    2    0    0 -0.92057144638E+01 -0.79972478245E+02  0.22314493730E+03  0.30268466346E+03  0.18800000000E+03 0.  0.
   -5000001    1    1    2    0    0  0.92057144638E+01  0.79972478245E+02  0.55399501494E+03  0.59053773718E+03  0.18800000000E+03 0.  0.
<mgrwt>
<rscale>  0 0.44034050E+03</rscale>
<asrwt>0</asrwt>
<pdfrwt beam="1">  1        2 0.11931159E+00 0.44034050E+03</pdfrwt>
<pdfrwt beam="2">  1       -2 0.82916041E-02 0.44034050E+03</pdfrwt>
<totfact> 0.33195344E+03</totfact>
</mgrwt>
</event>
<event>
 4    1  0.6165923E-005  0.9578978E+03  0.7818608E-02  0.9355967E-01
         -2   -1    0    0    0  501 -0.00000000000E+00  0.00000000000E+00  0.18055002466E+03  0.18055002468E+03  0.25500000000E-02 0. -1.
          2   -1    0    0  501    0  0.00000000000E+00 -0.00000000000E+00 -0.12705178792E+04  0.12705178792E+04  0.25500000000E-02 0.  1.
    5000001    1    1    2    0    0 -0.19379892911E+03  0.41403864256E+02  0.50980041621E+02  0.27787635658E+03  0.18800000000E+03 0.  0.
   -5000001    1    1    2    0    0  0.19379892911E+03 -0.41403864256E+02 -0.11409478962E+04  0.11731915473E+04  0.18800000000E+03 0.  0.
<mgrwt>
<rscale>  0 0.95789777E+03</rscale>
<asrwt>0</asrwt>
<pdfrwt beam="1">  1        2 0.18150255E+00 0.95789777E+03</pdfrwt>
<pdfrwt beam="2">  1       -2 0.25792861E-01 0.95789777E+03</pdfrwt>
<totfact> 0.26350064E+02</totfact>
</mgrwt>
</event>
<event>
 4    1  0.6165923E-005  0.5666338E+03  0.7818608E-02  0.9977155E-01
         -2   -1    0    0    0  501 -0.00000000000E+00  0.00000000000E+00  0.44015006039E+02  0.44015006113E+02  0.25500000000E-02 0. -1.
          2   -1    0    0  501    0  0.00000000000E+00 -0.00000000000E+00 -0.18236610581E+04  0.18236610581E+04  0.25500000000E-02 0.  1.
    5000001    1    1    2    0    0 -0.15167517095E+03 -0.14090057951E+03 -0.74000051607E+03  0.79107717359E+03  0.18800000000E+03 0.  0.
   -5000001    1    1    2    0    0  0.15167517095E+03  0.14090057951E+03 -0.10396455360E+04  0.10765988906E+04  0.18800000000E+03 0.  0.
<mgrwt>
<rscale>  0 0.56663375E+03</rscale>
<asrwt>0</asrwt>
<pdfrwt beam="1">  1        2 0.26052296E+00 0.56663375E+03</pdfrwt>
<pdfrwt beam="2">  1       -2 0.62878591E-02 0.56663375E+03</pdfrwt>
<totfact> 0.14603969E+03</totfact>
</mgrwt>
</event>
<event>
 4    1  0.6165923E-005  0.6031274E+03  0.7818608E-02  0.9898939E-01
         -2   -1    0    0    0  501 -0.00000000000E+00  0.00000000000E+00  0.12949004392E+03  0.12949004395E+03  0.25500000000E-02 0. -1.
          2   -1    0    0  501    0  0.00000000000E+00 -0.00000000000E+00 -0.70229841843E+03  0.70229841844E+03  0.25500000000E-02 0.  1.
    5000001    1    1    2    0    0  0.31563108858E+02 -0.23093575697E+03 -0.23727363147E+03  0.38206063639E+03  0.18800000000E+03 0.  0.
   -5000001    1    1    2    0    0 -0.31563108858E+02  0.23093575697E+03 -0.33553474304E+03  0.44972782600E+03  0.18800000000E+03 0.  0.
<mgrwt>
<rscale>  0 0.60312736E+03</rscale>
<asrwt>0</asrwt>
<pdfrwt beam="1">  1        2 0.10032834E+00 0.60312736E+03</pdfrwt>
<pdfrwt beam="2">  1       -2 0.18498578E-01 0.60312736E+03</pdfrwt>
<totfact> 0.10983774E+03</totfact>
</mgrwt>
</event>
<event>
 4    1  0.6165923E-005  0.9222565E+03  0.7818608E-02  0.9398180E-01
         -2   -1    0    0    0  501 -0.00000000000E+00  0.00000000000E+00  0.38602326021E+03  0.38602326022E+03  0.25500000000E-02 0. -1.
          2   -1    0    0  501    0  0.00000000000E+00 -0.00000000000E+00 -0.55084571338E+03  0.55084571338E+03  0.25500000000E-02 0.  1.
    5000001    1    1    2    0    0 -0.27728465530E+03 -0.15337931070E+03 -0.36408281717E+03  0.51798869754E+03  0.18800000000E+03 0.  0.
   -5000001    1    1    2    0    0  0.27728465530E+03  0.15337931070E+03  0.19926036400E+03  0.41888027607E+03  0.18800000000E+03 0.  0.
<mgrwt>
<rscale>  0 0.92225649E+03</rscale>
<asrwt>0</asrwt>
<pdfrwt beam="1">  1        2 0.78692244E-01 0.92225649E+03</pdfrwt>
<pdfrwt beam="2">  1       -2 0.55146180E-01 0.92225649E+03</pdfrwt>
<totfact> 0.18598108E+02</totfact>
</mgrwt>
</event>
<event>
 4    1  0.6165923E-005  0.1040371E+04  0.7818608E-02  0.9265342E-01
         -2   -1    0    0    0  501 -0.00000000000E+00  0.00000000000E+00  0.11221929074E+03  0.11221929077E+03  0.25500000000E-02 0. -1.
          2   -1    0    0  501    0  0.00000000000E+00 -0.00000000000E+00 -0.24112893010E+04  0.24112893010E+04  0.25500000000E-02 0.  1.
    5000001    1    1    2    0    0  0.33340925411E+03  0.34623117735E+03 -0.13069443307E+04  0.14051637778E+04  0.18800000000E+03 0.  0.
   -5000001    1    1    2    0    0 -0.33340925411E+03 -0.34623117735E+03 -0.99212567960E+03  0.11183448140E+04  0.18800000000E+03 0.  0.
<mgrwt>
<rscale>  0 0.10403714E+04</rscale>
<asrwt>0</asrwt>
<pdfrwt beam="1">  1        2 0.34446987E+00 0.10403714E+04</pdfrwt>
<pdfrwt beam="2">  1       -2 0.16031329E-01 0.10403714E+04</pdfrwt>
<totfact> 0.15438548E+02</totfact>
</mgrwt>
</event>
<event>
 4    1  0.6165923E-005  0.6252929E+03  0.7818608E-02  0.9854278E-01
          2   -1    0    0  501    0  0.00000000000E+00  0.00000000000E+00  0.92760541168E+03  0.92760541168E+03  0.25500000000E-02 0.  1.
         -2   -1    0    0    0  501 -0.00000000000E+00 -0.00000000000E+00 -0.10537648680E+03  0.10537648683E+03  0.25500000000E-02 0. -1.
    5000001    1    1    2    0    0  0.14152789789E+03 -0.66219508949E+02  0.73309975740E+03  0.77278355543E+03  0.18800000000E+03 0.  0.
   -5000001    1    1    2    0    0 -0.14152789789E+03  0.66219508949E+02  0.89129167479E+02  0.26019834308E+03  0.18800000000E+03 0.  0.
<mgrwt>
<rscale>  0 0.62529289E+03</rscale>
<asrwt>0</asrwt>
<pdfrwt beam="1">  1        2 0.13251505E+00 0.62529289E+03</pdfrwt>
<pdfrwt beam="2">  1       -2 0.15053784E-01 0.62529289E+03</pdfrwt>
<totfact> 0.10907514E+03</totfact>
</mgrwt>
</event>
<event>
 4    1  0.6165923E-005  0.4136004E+03  0.7818608E-02  0.1039170E+00
         -2   -1    0    0    0  501 -0.00000000000E+00  0.00000000000E+00  0.70527588923E+02  0.70527588969E+02  0.25500000000E-02 0. -1.
          2   -1    0    0  501    0  0.00000000000E+00 -0.00000000000E+00 -0.60637712992E+03  0.60637712992E+03  0.25500000000E-02 0.  1.
    5000001    1    1    2    0    0 -0.50639930717E+02 -0.24023956212E+02 -0.16084504252E+03  0.25368618559E+03  0.18800000000E+03 0.  0.
   -5000001    1    1    2    0    0  0.50639930717E+02  0.24023956212E+02 -0.37500449847E+03  0.42321853330E+03  0.18800000000E+03 0.  0.
<mgrwt>
<rscale>  0 0.41360037E+03</rscale>
<asrwt>0</asrwt>
<pdfrwt beam="1">  1        2 0.86625301E-01 0.41360037E+03</pdfrwt>
<pdfrwt beam="2">  1       -2 0.10075370E-01 0.41360037E+03</pdfrwt>
<totfact> 0.35883502E+03</totfact>
</mgrwt>
</event>
<event>
 4    1  0.6165923E-005  0.5192106E+03  0.7818608E-02  0.1008883E+00
          2   -1    0    0  501    0  0.00000000000E+00  0.00000000000E+00  0.11786695371E+03  0.11786695373E+03  0.25500000000E-02 0.  1.
         -2   -1    0    0    0  501 -0.00000000000E+00 -0.00000000000E+00 -0.57178798074E+03  0.57178798074E+03  0.25500000000E-02 0. -1.
    5000001    1    1    2    0    0  0.16196657879E+03  0.20313527731E+00 -0.32827317683E+03  0.41151001511E+03  0.18800000000E+03 0.  0.
   -5000001    1    1    2    0    0 -0.16196657879E+03 -0.20313527731E+00 -0.12564785021E+03  0.27814491937E+03  0.18800000000E+03 0.  0.
<mgrwt>
<rscale>  0 0.51921058E+03</rscale>
<asrwt>0</asrwt>
<pdfrwt beam="1">  1        2 0.16838137E-01 0.51921058E+03</pdfrwt>
<pdfrwt beam="2">  1       -2 0.81683996E-01 0.51921058E+03</pdfrwt>
<totfact> 0.46410387E+02</totfact>
</mgrwt>
</event>
<event>
 4    1  0.6165923E-005  0.8512703E+03  0.7818608E-02  0.9488634E-01
          2   -1    0    0  501    0  0.00000000000E+00  0.00000000000E+00  0.15792431623E+04  0.15792431624E+04  0.25500000000E-02 0.  1.
         -2   -1    0    0    0  501 -0.00000000000E+00 -0.00000000000E+00 -0.11471651980E+03  0.11471651983E+03  0.25500000000E-02 0. -1.
    5000001    1    1    2    0    0  0.29745450062E+03 -0.19855492478E+03  0.46589605234E+03  0.61668984885E+03  0.18800000000E+03 0.  0.
   -5000001    1    1    2    0    0 -0.29745450062E+03  0.19855492478E+03  0.99863059021E+03  0.10772698333E+04  0.18800000000E+03 0.  0.
<mgrwt>
<rscale>  0 0.85127030E+03</rscale>
<asrwt>0</asrwt>
<pdfrwt beam="1">  1        2 0.22560615E+00 0.85127030E+03</pdfrwt>
<pdfrwt beam="2">  1       -2 0.16388076E-01 0.85127030E+03</pdfrwt>
<totfact> 0.40222574E+02</totfact>
</mgrwt>
</event>
<event>
 4    1  0.6165923E-005  0.4210923E+03  0.7818608E-02  0.1036711E+00
          2   -1    0    0  501    0  0.00000000000E+00  0.00000000000E+00  0.19656321320E+02  0.19656321485E+02  0.25500000000E-02 0.  1.
         -2   -1    0    0    0  501 -0.00000000000E+00 -0.00000000000E+00 -0.22552382677E+04  0.22552382677E+04  0.25500000000E-02 0. -1.
    5000001    1    1    2    0    0  0.78503431378E+02  0.53109819906E+02 -0.11258882578E+04  0.11454046493E+04  0.18800000000E+03 0.  0.
   -5000001    1    1    2    0    0 -0.78503431378E+02 -0.53109819906E+02 -0.11096936886E+04  0.11294899398E+04  0.18800000000E+03 0.  0.
<mgrwt>
<rscale>  0 0.42109233E+03</rscale>
<asrwt>0</asrwt>
<pdfrwt beam="1">  1        2 0.28080473E-02 0.42109233E+03</pdfrwt>
<pdfrwt beam="2">  1       -2 0.32217673E+00 0.42109233E+03</pdfrwt>
<totfact> 0.91573561E+01</totfact>
</mgrwt>
</event>
<event>
 4    1  0.6165923E-005  0.5291132E+03  0.7818608E-02  0.1006447E+00
          2   -1    0    0  501    0  0.00000000000E+00  0.00000000000E+00  0.69035046939E+03  0.69035046940E+03  0.25500000000E-02 0.  1.
         -2   -1    0    0    0  501 -0.00000000000E+00 -0.00000000000E+00 -0.10138356576E+03  0.10138356579E+03  0.25500000000E-02 0. -1.
    5000001    1    1    2    0    0  0.43401825363E+02  0.70385132600E+02  0.54401116170E+03  0.58148940608E+03  0.18800000000E+03 0.  0.
   -5000001    1    1    2    0    0 -0.43401825363E+02 -0.70385132600E+02  0.44955741939E+02  0.21024462911E+03  0.18800000000E+03 0.  0.
<mgrwt>
<rscale>  0 0.52911319E+03</rscale>
<asrwt>0</asrwt>
<pdfrwt beam="1">  1        2 0.98621497E-01 0.52911319E+03</pdfrwt>
<pdfrwt beam="2">  1       -2 0.14483366E-01 0.52911319E+03</pdfrwt>
<totfact> 0.17002320E+03</totfact>
</mgrwt>
</event>
<event>
 4    1  0.6165923E-005  0.5072114E+03  0.7818608E-02  0.1011914E+00
          2   -1    0    0  501    0  0.00000000000E+00  0.00000000000E+00  0.15482594327E+04  0.15482594327E+04  0.25500000000E-02 0.  1.
         -2   -1    0    0    0  501 -0.00000000000E+00 -0.00000000000E+00 -0.41540745155E+02  0.41540745234E+02  0.25500000000E-02 0. -1.
    5000001    1    1    2    0    0  0.16027516100E+03  0.52449132633E+02  0.68100902109E+03  0.72633072739E+03  0.18800000000E+03 0.  0.
   -5000001    1    1    2    0    0 -0.16027516100E+03 -0.52449132633E+02  0.82570966644E+03  0.86346945053E+03  0.18800000000E+03 0.  0.
<mgrwt>
<rscale>  0 0.50721140E+03</rscale>
<asrwt>0</asrwt>
<pdfrwt beam="1">  1        2 0.22117992E+00 0.50721140E+03</pdfrwt>
<pdfrwt beam="2">  1       -2 0.59343922E-02 0.50721140E+03</pdfrwt>
<totfact> 0.22104144E+03</totfact>
</mgrwt>
</event>
<event>
 4    1  0.6165923E-005  0.7293566E+03  0.7818608E-02  0.9668305E-01
          2   -1    0    0  501    0  0.00000000000E+00  0.00000000000E+00  0.17736866567E+03  0.17736866569E+03  0.25500000000E-02 0.  1.
         -2   -1    0    0    0  501 -0.00000000000E+00 -0.00000000000E+00 -0.74979579373E+03  0.74979579373E+03  0.25500000000E-02 0. -1.
    5000001    1    1    2    0    0  0.13267234299E+03  0.24494021030E+03 -0.46620800700E+03  0.57470998165E+03  0.18800000000E+03 0.  0.
   -5000001    1    1    2    0    0 -0.13267234299E+03 -0.24494021030E+03 -0.10621912106E+03  0.35245447776E+03  0.18800000000E+03 0.  0.
<mgrwt>
<rscale>  0 0.72935665E+03</rscale>
<asrwt>0</asrwt>
<pdfrwt beam="1">  1        2 0.25338381E-01 0.72935665E+03</pdfrwt>
<pdfrwt beam="2">  1       -2 0.10711368E+00 0.72935665E+03</pdfrwt>
<totfact> 0.15263852E+02</totfact>
</mgrwt>
</event>
<event>
 4    1  0.6165923E-005  0.5510050E+03  0.7818608E-02  0.1001262E+00
          2   -1    0    0  501    0  0.00000000000E+00  0.00000000000E+00  0.15122183402E+04  0.15122183402E+04  0.25500000000E-02 0.  1.
         -2   -1    0    0    0  501 -0.00000000000E+00 -0.00000000000E+00 -0.50192239973E+02  0.50192240038E+02  0.25500000000E-02 0. -1.
    5000001    1    1    2    0    0 -0.16885938529E+03  0.16990904275E+02  0.10384521762E+04  0.10688915310E+04  0.18800000000E+03 0.  0.
   -5000001    1    1    2    0    0  0.16885938529E+03 -0.16990904275E+02  0.42357392401E+03  0.49351904921E+03  0.18800000000E+03 0.  0.
<mgrwt>
<rscale>  0 0.55100499E+03</rscale>
<asrwt>0</asrwt>
<pdfrwt beam="1">  1        2 0.21603122E+00 0.55100499E+03</pdfrwt>
<pdfrwt beam="2">  1       -2 0.71703192E-02 0.55100499E+03</pdfrwt>
<totfact> 0.17125646E+03</totfact>
</mgrwt>
</event>
<event>
 4    1  0.6165923E-005  0.4872763E+03  0.7818608E-02  0.1017154E+00
         -2   -1    0    0    0  501 -0.00000000000E+00  0.00000000000E+00  0.11750656974E+03  0.11750656977E+03  0.25500000000E-02 0. -1.
          2   -1    0    0  501    0  0.00000000000E+00 -0.00000000000E+00 -0.50515934718E+03  0.50515934719E+03  0.25500000000E-02 0.  1.
    5000001    1    1    2    0    0 -0.41357009292E+02 -0.14934623324E+03 -0.19265350109E+03  0.31060275447E+03  0.18800000000E+03 0.  0.
   -5000001    1    1    2    0    0  0.41357009292E+02  0.14934623324E+03 -0.19499927635E+03  0.31206316248E+03  0.18800000000E+03 0.  0.
<mgrwt>
<rscale>  0 0.48727628E+03</rscale>
<asrwt>0</asrwt>
<pdfrwt beam="1">  1        2 0.72165620E-01 0.48727628E+03</pdfrwt>
<pdfrwt beam="2">  1       -2 0.16786653E-01 0.48727628E+03</pdfrwt>
<totfact> 0.19095136E+03</totfact>
</mgrwt>
</event>
<event>
 4    1  0.6165923E-005  0.8210953E+03  0.7818608E-02  0.9529975E-01
         -2   -1    0    0    0  501 -0.00000000000E+00  0.00000000000E+00  0.46625100798E+02  0.46625100868E+02  0.25500000000E-02 0. -1.
          2   -1    0    0  501    0  0.00000000000E+00 -0.00000000000E+00 -0.36149925115E+04  0.36149925115E+04  0.25500000000E-02 0.  1.
    5000001    1    1    2    0    0  0.26801916838E+03  0.24745831165E+03 -0.18360934178E+04  0.18813965370E+04  0.18800000000E+03 0.  0.
   -5000001    1    1    2    0    0 -0.26801916838E+03 -0.24745831165E+03 -0.17322739929E+04  0.17802210754E+04  0.18800000000E+03 0.  0.
<mgrwt>
<rscale>  0 0.82109534E+03</rscale>
<asrwt>0</asrwt>
<pdfrwt beam="1">  1        2 0.51642733E+00 0.82109534E+03</pdfrwt>
<pdfrwt beam="2">  1       -2 0.66607310E-02 0.82109534E+03</pdfrwt>
<totfact> 0.14249671E+02</totfact>
</mgrwt>
</event>
<event>
 4    1  0.6165923E-005  0.7925904E+03  0.7818608E-02  0.9570805E-01
         -2   -1    0    0    0  501 -0.00000000000E+00  0.00000000000E+00  0.64745659252E+02  0.64745659302E+02  0.25500000000E-02 0. -1.
          2   -1    0    0  501    0  0.00000000000E+00 -0.00000000000E+00 -0.24256432803E+04  0.24256432803E+04  0.25500000000E-02 0.  1.
    5000001    1    1    2    0    0  0.28115289892E+03  0.20500115592E+03 -0.12595300524E+04  0.13201637699E+04  0.18800000000E+03 0.  0.
   -5000001    1    1    2    0    0 -0.28115289892E+03 -0.20500115592E+03 -0.11013675686E+04  0.11702251696E+04  0.18800000000E+03 0.  0.
<mgrwt>
<rscale>  0 0.79259037E+03</rscale>
<asrwt>0</asrwt>
<pdfrwt beam="1">  1        2 0.34652041E+00 0.79259037E+03</pdfrwt>
<pdfrwt beam="2">  1       -2 0.92493814E-02 0.79259037E+03</pdfrwt>
<totfact> 0.38601132E+02</totfact>
</mgrwt>
</event>
<event>
 4    1  0.6165923E-005  0.5115333E+03  0.7818608E-02  0.1010812E+00
         -2   -1    0    0    0  501 -0.00000000000E+00  0.00000000000E+00  0.25399832881E+02  0.25399833009E+02  0.25500000000E-02 0. -1.
          2   -1    0    0  501    0  0.00000000000E+00 -0.00000000000E+00 -0.25754724097E+04  0.25754724097E+04  0.25500000000E-02 0.  1.
    5000001    1    1    2    0    0  0.10760646419E+03 -0.12800500730E+03 -0.10415859818E+04  0.10715455149E+04  0.18800000000E+03 0.  0.
   -5000001    1    1    2    0    0 -0.10760646419E+03  0.12800500730E+03 -0.15084865950E+04  0.15293267278E+04  0.18800000000E+03 0.  0.
<mgrwt>
<rscale>  0 0.51153326E+03</rscale>
<asrwt>0</asrwt>
<pdfrwt beam="1">  1        2 0.36792446E+00 0.51153326E+03</pdfrwt>
<pdfrwt beam="2">  1       -2 0.36285492E-02 0.51153326E+03</pdfrwt>
<totfact> 0.14311909E+03</totfact>
</mgrwt>
</event>
<event>
 4    1  0.6165923E-005  0.6736789E+03  0.7818608E-02  0.9763335E-01
          2   -1    0    0  501    0  0.00000000000E+00  0.00000000000E+00  0.12546165054E+04  0.12546165054E+04  0.25500000000E-02 0.  1.
         -2   -1    0    0    0  501 -0.00000000000E+00 -0.00000000000E+00 -0.90434660947E+02  0.90434660983E+02  0.25500000000E-02 0. -1.
    5000001    1    1    2    0    0  0.23341190578E+03  0.13446076282E+02  0.27631542572E+03  0.40786778399E+03  0.18800000000E+03 0.  0.
   -5000001    1    1    2    0    0 -0.23341190578E+03 -0.13446076282E+02  0.88786641874E+03  0.93718338241E+03  0.18800000000E+03 0.  0.
<mgrwt>
<rscale>  0 0.67367891E+03</rscale>
<asrwt>0</asrwt>
<pdfrwt beam="1">  1        2 0.17923091E+00 0.67367891E+03</pdfrwt>
<pdfrwt beam="2">  1       -2 0.12919238E-01 0.67367891E+03</pdfrwt>
<totfact> 0.90324648E+02</totfact>
</mgrwt>
</event>
<event>
 4    1  0.6165923E-005  0.1320807E+04  0.7818608E-02  0.9013226E-01
          2   -1    0    0  501    0  0.00000000000E+00  0.00000000000E+00  0.19277767754E+04  0.19277767754E+04  0.25500000000E-02 0. -1.
         -2   -1    0    0    0  501 -0.00000000000E+00 -0.00000000000E+00 -0.22623616355E+03  0.22623616356E+03  0.25500000000E-02 0.  1.
    5000001    1    1    2    0    0 -0.14638055043E+03 -0.41796731093E+03  0.15885566160E+04  0.16598132608E+04  0.18800000000E+03 0.  0.
   -5000001    1    1    2    0    0  0.14638055043E+03  0.41796731093E+03  0.11298399584E+03  0.49419967814E+03  0.18800000000E+03 0.  0.
<mgrwt>
<rscale>  0 0.13208071E+04</rscale>
<asrwt>0</asrwt>
<pdfrwt beam="1">  1        2 0.27539669E+00 0.13208071E+04</pdfrwt>
<pdfrwt beam="2">  1       -2 0.32319451E-01 0.13208071E+04</pdfrwt>
<totfact> 0.76317154E+01</totfact>
</mgrwt>
</event>
<event>
 4    1  0.6165923E-005  0.8617726E+03  0.7818608E-02  0.9474671E-01
          2   -1    0    0  501    0  0.00000000000E+00  0.00000000000E+00  0.10513812407E+04  0.10513812407E+04  0.25500000000E-02 0.  1.
         -2   -1    0    0    0  501 -0.00000000000E+00 -0.00000000000E+00 -0.17658960669E+03  0.17658960671E+03  0.25500000000E-02 0. -1.
    5000001    1    1    2    0    0  0.15512130261E+03  0.32591972531E+03  0.63907695064E+03  0.75766063295E+03  0.18800000000E+03 0.  0.
   -5000001    1    1    2    0    0 -0.15512130261E+03 -0.32591972531E+03  0.23571468336E+03  0.47031021446E+03  0.18800000000E+03 0.  0.
<mgrwt>
<rscale>  0 0.86177259E+03</rscale>
<asrwt>0</asrwt>
<pdfrwt beam="1">  1        2 0.15019732E+00 0.86177259E+03</pdfrwt>
<pdfrwt beam="2">  1       -2 0.25227087E-01 0.86177259E+03</pdfrwt>
<totfact> 0.36871443E+02</totfact>
</mgrwt>
</event>
<event>
 4    1  0.6165923E-005  0.4651422E+03  0.7818608E-02  0.1023300E+00
         -2   -1    0    0    0  501 -0.00000000000E+00  0.00000000000E+00  0.98034324697E+02  0.98034324730E+02  0.25500000000E-02 0. -1.
          2   -1    0    0  501    0  0.00000000000E+00 -0.00000000000E+00 -0.55173850380E+03  0.55173850380E+03  0.25500000000E-02 0.  1.
    5000001    1    1    2    0    0 -0.79086199528E+02 -0.10926106593E+03 -0.25969352939E+03  0.34781796488E+03  0.18800000000E+03 0.  0.
   -5000001    1    1    2    0    0  0.79086199528E+02  0.10926106593E+03 -0.19401064971E+03  0.30195486365E+03  0.18800000000E+03 0.  0.
<mgrwt>
<rscale>  0 0.46514218E+03</rscale>
<asrwt>0</asrwt>
<pdfrwt beam="1">  1        2 0.78819785E-01 0.46514218E+03</pdfrwt>
<pdfrwt beam="2">  1       -2 0.14004904E-01 0.46514218E+03</pdfrwt>
<totfact> 0.23401054E+03</totfact>
</mgrwt>
</event>
<event>
 4    1  0.6165923E-005  0.4483226E+03  0.7818608E-02  0.1028223E+00
         -2   -1    0    0    0  501 -0.00000000000E+00  0.00000000000E+00  0.76181356104E+02  0.76181356147E+02  0.25500000000E-02 0. -1.
          2   -1    0    0  501    0  0.00000000000E+00 -0.00000000000E+00 -0.65958760875E+03  0.65958760875E+03  0.25500000000E-02 0.  1.
    5000001    1    1    2    0    0 -0.12082412137E+03 -0.10332163315E+02 -0.26854842491E+03  0.34952464638E+03  0.18800000000E+03 0.  0.
   -5000001    1    1    2    0    0  0.12082412137E+03  0.10332163315E+02 -0.31485782774E+03  0.38624431852E+03  0.18800000000E+03 0.  0.
<mgrwt>
<rscale>  0 0.44832256E+03</rscale>
<asrwt>0</asrwt>
<pdfrwt beam="1">  1        2 0.94226798E-01 0.44832256E+03</pdfrwt>
<pdfrwt beam="2">  1       -2 0.10883051E-01 0.44832256E+03</pdfrwt>
<totfact> 0.28725500E+03</totfact>
</mgrwt>
</event>
<event>
 4    1  0.6165923E-005  0.6499573E+03  0.7818608E-02  0.9806859E-01
          2   -1    0    0  501    0  0.00000000000E+00  0.00000000000E+00  0.15779207467E+04  0.15779207467E+04  0.25500000000E-02 0.  1.
         -2   -1    0    0    0  501 -0.00000000000E+00 -0.00000000000E+00 -0.66930563458E+02  0.66930563507E+02  0.25500000000E-02 0. -1.
    5000001    1    1    2    0    0  0.20689084507E+03  0.13478070022E+03  0.51147582922E+03  0.59826514423E+03  0.18800000000E+03 0.  0.
   -5000001    1    1    2    0    0 -0.20689084507E+03 -0.13478070022E+03  0.99951435402E+03  0.10465861660E+04  0.18800000000E+03 0.  0.
<mgrwt>
<rscale>  0 0.64995731E+03</rscale>
<asrwt>0</asrwt>
<pdfrwt beam="1">  1        2 0.22541725E+00 0.64995731E+03</pdfrwt>
<pdfrwt beam="2">  1       -2 0.95615089E-02 0.64995731E+03</pdfrwt>
<totfact> 0.99608618E+02</totfact>
</mgrwt>
</event>
<event>
 4    1  0.6165923E-005  0.5347105E+03  0.7818608E-02  0.1005096E+00
          2   -1    0    0  501    0  0.00000000000E+00  0.00000000000E+00  0.13399661796E+04  0.13399661796E+04  0.25500000000E-02 0.  1.
         -2   -1    0    0    0  501 -0.00000000000E+00 -0.00000000000E+00 -0.53343746591E+02  0.53343746652E+02  0.25500000000E-02 0. -1.
    5000001    1    1    2    0    0  0.18706038982E+03  0.19224625107E+02  0.71578796779E+03  0.76358207842E+03  0.18800000000E+03 0.  0.
   -5000001    1    1    2    0    0 -0.18706038982E+03 -0.19224625107E+02  0.57083446519E+03  0.62972784780E+03  0.18800000000E+03 0.  0.
<mgrwt>
<rscale>  0 0.53471045E+03</rscale>
<asrwt>0</asrwt>
<pdfrwt beam="1">  1        2 0.19142373E+00 0.53471045E+03</pdfrwt>
<pdfrwt beam="2">  1       -2 0.76205356E-02 0.53471045E+03</pdfrwt>
<totfact> 0.19173287E+03</totfact>
</mgrwt>
</event>
<event>
 4    1  0.6165923E-005  0.4814283E+03  0.7818608E-02  0.1018743E+00
          2   -1    0    0  501    0  0.00000000000E+00  0.00000000000E+00  0.21787389097E+04  0.21787389097E+04  0.25500000000E-02 0.  1.
         -2   -1    0    0    0  501 -0.00000000000E+00 -0.00000000000E+00 -0.26594878394E+02  0.26594878516E+02  0.25500000000E-02 0. -1.
    5000001    1    1    2    0    0 -0.82075890828E+02 -0.12574389488E+03  0.10432567720E+04  0.10706431111E+04  0.18800000000E+03 0.  0.
   -5000001    1    1    2    0    0  0.82075890828E+02  0.12574389488E+03  0.11088872593E+04  0.11346906771E+04  0.18800000000E+03 0.  0.
<mgrwt>
<rscale>  0 0.48142828E+03</rscale>
<asrwt>0</asrwt>
<pdfrwt beam="1">  1        2 0.31124843E+00 0.48142828E+03</pdfrwt>
<pdfrwt beam="2">  1       -2 0.37992681E-02 0.48142828E+03</pdfrwt>
<totfact> 0.21215330E+03</totfact>
</mgrwt>
</event>
<event>
 4    1  0.6165923E-005  0.5564563E+03  0.7818608E-02  0.1000011E+00
         -2   -1    0    0    0  501 -0.00000000000E+00  0.00000000000E+00  0.69814946825E+02  0.69814946872E+02  0.25500000000E-02 0. -1.
          2   -1    0    0  501    0  0.00000000000E+00 -0.00000000000E+00 -0.11088012660E+04  0.11088012660E+04  0.25500000000E-02 0.  1.
    5000001    1    1    2    0    0  0.20464365684E+03  0.17168027099E+01 -0.49068984915E+03  0.56391710539E+03  0.18800000000E+03 0.  0.
   -5000001    1    1    2    0    0 -0.20464365684E+03 -0.17168027099E+01 -0.54829647005E+03  0.61469910750E+03  0.18800000000E+03 0.  0.
<mgrwt>
<rscale>  0 0.55645629E+03</rscale>
<asrwt>0</asrwt>
<pdfrwt beam="1">  1        2 0.15840017E+00 0.55645629E+03</pdfrwt>
<pdfrwt beam="2">  1       -2 0.99735645E-02 0.55645629E+03</pdfrwt>
<totfact> 0.16740389E+03</totfact>
</mgrwt>
</event>
<event>
 4    1  0.6165923E-005  0.4812064E+03  0.7818608E-02  0.1018804E+00
          2   -1    0    0  501    0  0.00000000000E+00  0.00000000000E+00  0.10613654574E+04  0.10613654574E+04  0.25500000000E-02 0.  1.
         -2   -1    0    0    0  501 -0.00000000000E+00 -0.00000000000E+00 -0.54542848102E+02  0.54542848161E+02  0.25500000000E-02 0. -1.
    5000001    1    1    2    0    0  0.37804020404E+02 -0.14344540959E+03  0.44951480730E+03  0.50932631139E+03  0.18800000000E+03 0.  0.
   -5000001    1    1    2    0    0 -0.37804020404E+02  0.14344540959E+03  0.55730780204E+03  0.60658199422E+03  0.18800000000E+03 0.  0.
<mgrwt>
<rscale>  0 0.48120638E+03</rscale>
<asrwt>0</asrwt>
<pdfrwt beam="1">  1        2 0.15162364E+00 0.48120638E+03</pdfrwt>
<pdfrwt beam="2">  1       -2 0.77918352E-02 0.48120638E+03</pdfrwt>
<totfact> 0.26497107E+03</totfact>
</mgrwt>
</event>
<event>
 4    1  0.6165923E-005  0.4741310E+03  0.7818608E-02  0.1020761E+00
          2   -1    0    0  501    0  0.00000000000E+00  0.00000000000E+00  0.24576144105E+04  0.24576144105E+04  0.25500000000E-02 0.  1.
         -2   -1    0    0    0  501 -0.00000000000E+00 -0.00000000000E+00 -0.22867720681E+02  0.22867720823E+02  0.25500000000E-02 0. -1.
    5000001    1    1    2    0    0 -0.90774639150E+02 -0.10391911608E+03  0.99437891466E+03  0.10213582348E+04  0.18800000000E+03 0.  0.
   -5000001    1    1    2    0    0  0.90774639150E+02  0.10391911608E+03  0.14403677752E+04  0.14591238966E+04  0.18800000000E+03 0.  0.
<mgrwt>
<rscale>  0 0.47413095E+03</rscale>
<asrwt>0</asrwt>
<pdfrwt beam="1">  1        2 0.35108774E+00 0.47413095E+03</pdfrwt>
<pdfrwt beam="2">  1       -2 0.32668176E-02 0.47413095E+03</pdfrwt>
<totfact> 0.19332197E+03</totfact>
</mgrwt>
</event>
<event>
 4    1  0.6165923E-005  0.1105125E+04  0.7818608E-02  0.9200211E-01
         -2   -1    0    0    0  501 -0.00000000000E+00  0.00000000000E+00  0.30659067201E+03  0.30659067202E+03  0.25500000000E-02 0. -1.
          2   -1    0    0  501    0  0.00000000000E+00 -0.00000000000E+00 -0.99587297413E+03  0.99587297413E+03  0.25500000000E-02 0.  1.
    5000001    1    1    2    0    0  0.39135878538E+03  0.19850009036E+03 -0.16716997411E+02  0.47768969297E+03  0.18800000000E+03 0.  0.
   -5000001    1    1    2    0    0 -0.39135878538E+03 -0.19850009036E+03 -0.67256530470E+03  0.82477395319E+03  0.18800000000E+03 0.  0.
<mgrwt>
<rscale>  0 0.11051251E+04</rscale>
<asrwt>0</asrwt>
<pdfrwt beam="1">  1        2 0.14226757E+00 0.11051251E+04</pdfrwt>
<pdfrwt beam="2">  1       -2 0.43798668E-01 0.11051251E+04</pdfrwt>
<totfact> 0.13850706E+02</totfact>
</mgrwt>
</event>
<event>
 4    1  0.6165923E-005  0.5195712E+03  0.7818608E-02  0.1008793E+00
         -2   -1    0    0    0  501 -0.00000000000E+00  0.00000000000E+00  0.24146143701E+02  0.24146143836E+02  0.25500000000E-02 0. -1.
          2   -1    0    0  501    0  0.00000000000E+00 -0.00000000000E+00 -0.27950035324E+04  0.27950035324E+04  0.25500000000E-02 0.  1.
    5000001    1    1    2    0    0 -0.54249590519E+02  0.12700664038E+03 -0.76509549931E+03  0.79986800651E+03  0.18800000000E+03 0.  0.
   -5000001    1    1    2    0    0  0.54249590519E+02 -0.12700664038E+03 -0.20057618894E+04  0.20192816697E+04  0.18800000000E+03 0.  0.
<mgrwt>
<rscale>  0 0.51957120E+03</rscale>
<asrwt>0</asrwt>
<pdfrwt beam="1">  1        2 0.39928602E+00 0.51957120E+03</pdfrwt>
<pdfrwt beam="2">  1       -2 0.34494509E-02 0.51957120E+03</pdfrwt>
<totfact> 0.11878434E+03</totfact>
</mgrwt>
</event>
<event>
 4    1  0.6165923E-005  0.6023160E+03  0.7818608E-02  0.9900613E-01
          2   -1    0    0  501    0  0.00000000000E+00  0.00000000000E+00  0.77475631343E+03  0.77475631343E+03  0.25500000000E-02 0.  1.
         -2   -1    0    0    0  501 -0.00000000000E+00 -0.00000000000E+00 -0.11706407753E+03  0.11706407756E+03  0.25500000000E-02 0. -1.
    5000001    1    1    2    0    0 -0.16889404315E+03  0.15204379331E+03  0.41902767807E+03  0.51241653748E+03  0.18800000000E+03 0.  0.
   -5000001    1    1    2    0    0  0.16889404315E+03 -0.15204379331E+03  0.23866455782E+03  0.37940385351E+03  0.18800000000E+03 0.  0.
<mgrwt>
<rscale>  0 0.60231597E+03</rscale>
<asrwt>0</asrwt>
<pdfrwt beam="1">  1        2 0.11067947E+00 0.60231597E+03</pdfrwt>
<pdfrwt beam="2">  1       -2 0.16723441E-01 0.60231597E+03</pdfrwt>
<totfact> 0.11555773E+03</totfact>
</mgrwt>
</event>
<event>
 4    1  0.6165923E-005  0.5440652E+03  0.7818608E-02  0.1002877E+00
          2   -1    0    0  501    0  0.00000000000E+00  0.00000000000E+00  0.12085117991E+04  0.12085117991E+04  0.25500000000E-02 0.  1.
         -2   -1    0    0    0  501 -0.00000000000E+00 -0.00000000000E+00 -0.61233774945E+02  0.61233774999E+02  0.25500000000E-02 0. -1.
    5000001    1    1    2    0    0  0.14765426052E+03  0.11965541443E+03  0.45605241733E+03  0.52862747394E+03  0.18800000000E+03 0.  0.
   -5000001    1    1    2    0    0 -0.14765426052E+03 -0.11965541443E+03  0.69122560682E+03  0.74111810016E+03  0.18800000000E+03 0.  0.
<mgrwt>
<rscale>  0 0.54406522E+03</rscale>
<asrwt>0</asrwt>
<pdfrwt beam="1">  1        2 0.17264454E+00 0.54406522E+03</pdfrwt>
<pdfrwt beam="2">  1       -2 0.87476821E-02 0.54406522E+03</pdfrwt>
<totfact> 0.18154255E+03</totfact>
</mgrwt>
</event>
<event>
 4    1  0.6165923E-005  0.1536546E+04  0.7818608E-02  0.8860507E-01
         -2   -1    0    0    0  501 -0.00000000000E+00  0.00000000000E+00  0.16182304060E+03  0.16182304062E+03  0.25500000000E-02 0. -1.
          2   -1    0    0  501    0  0.00000000000E+00 -0.00000000000E+00 -0.36474634973E+04  0.36474634973E+04  0.25500000000E-02 0.  1.
    5000001    1    1    2    0    0 -0.57974630915E+03 -0.37011932440E+03 -0.10337498569E+04  0.12558172096E+04  0.18800000000E+03 0.  0.
   -5000001    1    1    2    0    0  0.57974630915E+03  0.37011932440E+03 -0.24518905999E+04  0.25534693284E+04  0.18800000000E+03 0.  0.
<mgrwt>
<rscale>  0 0.15365463E+04</rscale>
<asrwt>0</asrwt>
<pdfrwt beam="1">  1        2 0.52106616E+00 0.15365463E+04</pdfrwt>
<pdfrwt beam="2">  1       -2 0.23117579E-01 0.15365463E+04</pdfrwt>
<totfact> 0.15696523E+01</totfact>
</mgrwt>
</event>
<event>
 4    1  0.6165923E-005  0.4503754E+03  0.7818608E-02  0.1027610E+00
          2   -1    0    0  501    0  0.00000000000E+00  0.00000000000E+00  0.76772333339E+03  0.76772333339E+03  0.25500000000E-02 0.  1.
         -2   -1    0    0    0  501 -0.00000000000E+00 -0.00000000000E+00 -0.66051799842E+02  0.66051799891E+02  0.25500000000E-02 0. -1.
    5000001    1    1    2    0    0  0.38396390235E+02 -0.95328021834E+02  0.47914751051E+03  0.52486955652E+03  0.18800000000E+03 0.  0.
   -5000001    1    1    2    0    0 -0.38396390235E+02  0.95328021834E+02  0.22252402304E+03  0.30890557677E+03  0.18800000000E+03 0.  0.
<mgrwt>
<rscale>  0 0.45037543E+03</rscale>
<asrwt>0</asrwt>
<pdfrwt beam="1">  1        2 0.10967476E+00 0.45037543E+03</pdfrwt>
<pdfrwt beam="2">  1       -2 0.94359715E-02 0.45037543E+03</pdfrwt>
<totfact> 0.30053009E+03</totfact>
</mgrwt>
</event>
<event>
 4    1  0.6165923E-005  0.7349368E+03  0.7818608E-02  0.9659283E-01
         -2   -1    0    0    0  501 -0.00000000000E+00  0.00000000000E+00  0.17413123073E+03  0.17413123075E+03  0.25500000000E-02 0. -1.
          2   -1    0    0  501    0  0.00000000000E+00 -0.00000000000E+00 -0.77546705353E+03  0.77546705354E+03  0.25500000000E-02 0.  1.
    5000001    1    1    2    0    0  0.25792768475E+03 -0.18013554155E+03 -0.33518193500E+03  0.49665524606E+03  0.18800000000E+03 0.  0.
   -5000001    1    1    2    0    0 -0.25792768475E+03  0.18013554155E+03 -0.26615388780E+03  0.45294303823E+03  0.18800000000E+03 0.  0.
<mgrwt>
<rscale>  0 0.73493682E+03</rscale>
<asrwt>0</asrwt>
<pdfrwt beam="1">  1        2 0.11078101E+00 0.73493682E+03</pdfrwt>
<pdfrwt beam="2">  1       -2 0.24875891E-01 0.73493682E+03</pdfrwt>
<totfact> 0.57416456E+02</totfact>
</mgrwt>
</event>
<event>
 4    1  0.6165923E-005  0.7351011E+03  0.7818608E-02  0.9659019E-01
         -2   -1    0    0    0  501 -0.00000000000E+00  0.00000000000E+00  0.29174976129E+03  0.29174976130E+03  0.25500000000E-02 0. -1.
          2   -1    0    0  501    0  0.00000000000E+00 -0.00000000000E+00 -0.46304544017E+03  0.46304544017E+03  0.25500000000E-02 0.  1.
    5000001    1    1    2    0    0  0.28597140517E+03 -0.13404376412E+03 -0.87107678431E+02  0.37772890135E+03  0.18800000000E+03 0.  0.
   -5000001    1    1    2    0    0 -0.28597140517E+03  0.13404376412E+03 -0.84188000442E+02  0.37706630013E+03  0.18800000000E+03 0.  0.
<mgrwt>
<rscale>  0 0.73510107E+03</rscale>
<asrwt>0</asrwt>
<pdfrwt beam="1">  1        2 0.66149349E-01 0.73510107E+03</pdfrwt>
<pdfrwt beam="2">  1       -2 0.41678537E-01 0.73510107E+03</pdfrwt>
<totfact> 0.40245927E+02</totfact>
</mgrwt>
</event>
<event>
 4    1  0.6165923E-005  0.4443459E+03  0.7818608E-02  0.1029422E+00
         -2   -1    0    0    0  501 -0.00000000000E+00  0.00000000000E+00  0.84213181234E+02  0.84213181272E+02  0.25500000000E-02 0. -1.
          2   -1    0    0  501    0  0.00000000000E+00 -0.00000000000E+00 -0.58614138330E+03  0.58614138330E+03  0.25500000000E-02 0.  1.
    5000001    1    1    2    0    0  0.58669570896E+02  0.99655689935E+02 -0.28923270278E+03  0.36383091051E+03  0.18800000000E+03 0.  0.
   -5000001    1    1    2    0    0 -0.58669570896E+02 -0.99655689935E+02 -0.21269549928E+03  0.30652365406E+03  0.18800000000E+03 0.  0.
<mgrwt>
<rscale>  0 0.44434595E+03</rscale>
<asrwt>0</asrwt>
<pdfrwt beam="1">  1        2 0.83734481E-01 0.44434595E+03</pdfrwt>
<pdfrwt beam="2">  1       -2 0.12030455E-01 0.44434595E+03</pdfrwt>
<totfact> 0.28025163E+03</totfact>
</mgrwt>
</event>
<event>
 4    1  0.6165923E-005  0.6280346E+03  0.7818608E-02  0.9848892E-01
         -2   -1    0    0    0  501 -0.00000000000E+00  0.00000000000E+00  0.94664870848E+02  0.94664870883E+02  0.25500000000E-02 0. -1.
          2   -1    0    0  501    0  0.00000000000E+00 -0.00000000000E+00 -0.10416417124E+04  0.10416417124E+04  0.25500000000E-02 0.  1.
    5000001    1    1    2    0    0  0.13235019803E+03  0.21040510093E+03 -0.40397724628E+03  0.51022396742E+03  0.18800000000E+03 0.  0.
   -5000001    1    1    2    0    0 -0.13235019803E+03 -0.21040510093E+03 -0.54299959522E+03  0.62608261582E+03  0.18800000000E+03 0.  0.
<mgrwt>
<rscale>  0 0.62803464E+03</rscale>
<asrwt>0</asrwt>
<pdfrwt beam="1">  1        2 0.14880595E+00 0.62803464E+03</pdfrwt>
<pdfrwt beam="2">  1       -2 0.13523554E-01 0.62803464E+03</pdfrwt>
<totfact> 0.11104889E+03</totfact>
</mgrwt>
</event>
<event>
 4    1  0.6165923E-005  0.4203735E+03  0.7818608E-02  0.1036945E+00
         -2   -1    0    0    0  501 -0.00000000000E+00  0.00000000000E+00  0.32792517533E+03  0.32792517534E+03  0.25500000000E-02 0. -1.
          2   -1    0    0  501    0  0.00000000000E+00 -0.00000000000E+00 -0.13472118492E+03  0.13472118495E+03  0.25500000000E-02 0.  1.
    5000001    1    1    2    0    0 -0.90440310731E+02 -0.24399311131E+01  0.12464070108E+03  0.24303231767E+03  0.18800000000E+03 0.  0.
   -5000001    1    1    2    0    0  0.90440310731E+02  0.24399311131E+01  0.68563289334E+02  0.21961404261E+03  0.18800000000E+03 0.  0.
<mgrwt>
<rscale>  0 0.42037349E+03</rscale>
<asrwt>0</asrwt>
<pdfrwt beam="1">  1        2 0.19245884E-01 0.42037349E+03</pdfrwt>
<pdfrwt beam="2">  1       -2 0.46846453E-01 0.42037349E+03</pdfrwt>
<totfact> 0.12807929E+03</totfact>
</mgrwt>
</event>
<event>
 4    1  0.6165923E-005  0.4125666E+03  0.7818608E-02  0.1039513E+00
          2   -1    0    0  501    0  0.00000000000E+00  0.00000000000E+00  0.10597230367E+04  0.10597230367E+04  0.25500000000E-02 0.  1.
         -2   -1    0    0    0  501 -0.00000000000E+00 -0.00000000000E+00 -0.40154643039E+02  0.40154643120E+02  0.25500000000E-02 0. -1.
    5000001    1    1    2    0    0  0.45410485164E+02 -0.25726105575E+02  0.33124870903E+03  0.38443939952E+03  0.18800000000E+03 0.  0.
   -5000001    1    1    2    0    0 -0.45410485164E+02  0.25726105575E+02  0.68831968468E+03  0.71543828035E+03  0.18800000000E+03 0.  0.
<mgrwt>
<rscale>  0 0.41256660E+03</rscale>
<asrwt>0</asrwt>
<pdfrwt beam="1">  1        2 0.15138901E+00 0.41256660E+03</pdfrwt>
<pdfrwt beam="2">  1       -2 0.57363773E-02 0.41256660E+03</pdfrwt>
<totfact> 0.42849432E+03</totfact>
</mgrwt>
</event>
<event>
 4    1  0.6165923E-005  0.8146728E+03  0.7818608E-02  0.9539018E-01
         -2   -1    0    0    0  501 -0.00000000000E+00  0.00000000000E+00  0.18197738368E+03  0.18197738370E+03  0.25500000000E-02 0. -1.
          2   -1    0    0  501    0  0.00000000000E+00 -0.00000000000E+00 -0.91177792639E+03  0.91177792639E+03  0.25500000000E-02 0.  1.
    5000001    1    1    2    0    0  0.32339470220E+03 -0.12235773603E+03 -0.22394057208E+03  0.45282328650E+03  0.18800000000E+03 0.  0.
   -5000001    1    1    2    0    0 -0.32339470220E+03  0.12235773603E+03 -0.50585997063E+03  0.64093202359E+03  0.18800000000E+03 0.  0.
<mgrwt>
<rscale>  0 0.81467285E+03</rscale>
<asrwt>0</asrwt>
<pdfrwt beam="1">  1        2 0.13025399E+00 0.81467285E+03</pdfrwt>
<pdfrwt beam="2">  1       -2 0.25996770E-01 0.81467285E+03</pdfrwt>
<totfact> 0.42740311E+02</totfact>
</mgrwt>
</event>
<event>
 4    1  0.6165923E-005  0.4882069E+03  0.7818608E-02  0.1016904E+00
         -2   -1    0    0    0  501 -0.00000000000E+00  0.00000000000E+00  0.27291757004E+02  0.27291757123E+02  0.25500000000E-02 0. -1.
          2   -1    0    0  501    0  0.00000000000E+00 -0.00000000000E+00 -0.21833143715E+04  0.21833143715E+04  0.25500000000E-02 0.  1.
    5000001    1    1    2    0    0  0.95674656887E+02 -0.18806573400E+02 -0.16276596097E+04  0.16413796430E+04  0.18800000000E+03 0.  0.
   -5000001    1    1    2    0    0 -0.95674656887E+02  0.18806573400E+02 -0.52836300472E+03  0.56922648562E+03  0.18800000000E+03 0.  0.
<mgrwt>
<rscale>  0 0.48820686E+03</rscale>
<asrwt>0</asrwt>
<pdfrwt beam="1">  1        2 0.31190194E+00 0.48820686E+03</pdfrwt>
<pdfrwt beam="2">  1       -2 0.38988238E-02 0.48820686E+03</pdfrwt>
<totfact> 0.20280421E+03</totfact>
</mgrwt>
</event>
<event>
 4    1  0.6165923E-005  0.5747533E+03  0.7818608E-02  0.9959215E-01
          2   -1    0    0  501    0  0.00000000000E+00  0.00000000000E+00  0.20034239165E+04  0.20034239165E+04  0.25500000000E-02 0.  1.
         -2   -1    0    0    0  501 -0.00000000000E+00 -0.00000000000E+00 -0.41222099641E+02  0.41222099719E+02  0.25500000000E-02 0. -1.
    5000001    1    1    2    0    0 -0.87614484882E+02 -0.50867227443E+02  0.29702259405E+03  0.36582809374E+03  0.18800000000E+03 0.  0.
   -5000001    1    1    2    0    0  0.87614484882E+02  0.50867227443E+02  0.16651792228E+04  0.16788179224E+04  0.18800000000E+03 0.  0.
<mgrwt>
<rscale>  0 0.57475330E+03</rscale>
<asrwt>0</asrwt>
<pdfrwt beam="1">  1        2 0.28620338E+00 0.57475330E+03</pdfrwt>
<pdfrwt beam="2">  1       -2 0.58888721E-02 0.57475330E+03</pdfrwt>
<totfact> 0.13140731E+03</totfact>
</mgrwt>
</event>
<event>
 4    1  0.6165923E-005  0.7201550E+03  0.7818608E-02  0.9683372E-01
         -2   -1    0    0    0  501 -0.00000000000E+00  0.00000000000E+00  0.87886122567E+02  0.87886122604E+02  0.25500000000E-02 0. -1.
          2   -1    0    0  501    0  0.00000000000E+00 -0.00000000000E+00 -0.14752706981E+04  0.14752706981E+04  0.25500000000E-02 0.  1.
    5000001    1    1    2    0    0  0.24694935453E+03  0.70256273384E+02 -0.10594333522E+04  0.11061930010E+04  0.18800000000E+03 0.  0.
   -5000001    1    1    2    0    0 -0.24694935453E+03 -0.70256273384E+02 -0.32795122332E+03  0.45696381972E+03  0.18800000000E+03 0.  0.
<mgrwt>
<rscale>  0 0.72015504E+03</rscale>
<asrwt>0</asrwt>
<pdfrwt beam="1">  1        2 0.21075294E+00 0.72015504E+03</pdfrwt>
<pdfrwt beam="2">  1       -2 0.12555161E-01 0.72015504E+03</pdfrwt>
<totfact> 0.71899558E+02</totfact>
</mgrwt>
</event>
<event>
 4    1  0.6165923E-005  0.7951766E+03  0.7818608E-02  0.9567025E-01
          2   -1    0    0  501    0  0.00000000000E+00  0.00000000000E+00  0.10234072483E+04  0.10234072483E+04  0.25500000000E-02 0.  1.
         -2   -1    0    0    0  501 -0.00000000000E+00 -0.00000000000E+00 -0.15446096615E+03  0.15446096618E+03  0.25500000000E-02 0. -1.
    5000001    1    1    2    0    0 -0.98883932250E+02  0.31527052753E+03  0.26199030900E+03  0.46168870421E+03  0.18800000000E+03 0.  0.
   -5000001    1    1    2    0    0  0.98883932250E+02 -0.31527052753E+03  0.60695597315E+03  0.71617951027E+03  0.18800000000E+03 0.  0.
<mgrwt>
<rscale>  0 0.79517664E+03</rscale>
<asrwt>0</asrwt>
<pdfrwt beam="1">  1        2 0.14620104E+00 0.79517664E+03</pdfrwt>
<pdfrwt beam="2">  1       -2 0.22065852E-01 0.79517664E+03</pdfrwt>
<totfact> 0.48859644E+02</totfact>
</mgrwt>
</event>
<event>
 4    1  0.6165923E-005  0.5683946E+03  0.7818608E-02  0.9973237E-01
         -2   -1    0    0    0  501 -0.00000000000E+00  0.00000000000E+00  0.94800799193E+02  0.94800799228E+02  0.25500000000E-02 0. -1.
          2   -1    0    0  501    0  0.00000000000E+00 -0.00000000000E+00 -0.85197712168E+03  0.85197712168E+03  0.25500000000E-02 0.  1.
    5000001    1    1    2    0    0 -0.18618081390E+03 -0.10368701581E+03 -0.37336853697E+03  0.46921461733E+03  0.18800000000E+03 0.  0.
   -5000001    1    1    2    0    0  0.18618081390E+03  0.10368701581E+03 -0.38380778551E+03  0.47756330359E+03  0.18800000000E+03 0.  0.
<mgrwt>
<rscale>  0 0.56839462E+03</rscale>
<asrwt>0</asrwt>
<pdfrwt beam="1">  1        2 0.12171101E+00 0.56839462E+03</pdfrwt>
<pdfrwt beam="2">  1       -2 0.13542972E-01 0.56839462E+03</pdfrwt>
<totfact> 0.14596051E+03</totfact>
</mgrwt>
</event>
<event>
 4    1  0.6165923E-005  0.4446654E+03  0.7818608E-02  0.1029325E+00
         -2   -1    0    0    0  501 -0.00000000000E+00  0.00000000000E+00  0.18445212106E+02  0.18445212282E+02  0.25500000000E-02 0. -1.
          2   -1    0    0  501    0  0.00000000000E+00 -0.00000000000E+00 -0.26799269772E+04  0.26799269772E+04  0.25500000000E-02 0.  1.
    5000001    1    1    2    0    0 -0.91476032679E+02  0.38471293660E+02 -0.17258774422E+04  0.17389205992E+04  0.18800000000E+03 0.  0.
   -5000001    1    1    2    0    0  0.91476032679E+02 -0.38471293660E+02 -0.93560432291E+03  0.95945159025E+03  0.18800000000E+03 0.  0.
<mgrwt>
<rscale>  0 0.44466537E+03</rscale>
<asrwt>0</asrwt>
<pdfrwt beam="1">  1        2 0.38284646E+00 0.44466537E+03</pdfrwt>
<pdfrwt beam="2">  1       -2 0.26350320E-02 0.44466537E+03</pdfrwt>
<totfact> 0.20615810E+03</totfact>
</mgrwt>
</event>
<event>
 4    1  0.6165923E-005  0.5633421E+03  0.7818608E-02  0.9984521E-01
         -2   -1    0    0    0  501 -0.00000000000E+00  0.00000000000E+00  0.64503009351E+02  0.64503009402E+02  0.25500000000E-02 0. -1.
          2   -1    0    0  501    0  0.00000000000E+00 -0.00000000000E+00 -0.12299981629E+04  0.12299981629E+04  0.25500000000E-02 0.  1.
    5000001    1    1    2    0    0  0.37556794785E+01  0.17458374638E+03 -0.84974870411E+03  0.88764319958E+03  0.18800000000E+03 0.  0.
   -5000001    1    1    2    0    0 -0.37556794785E+01 -0.17458374638E+03 -0.31574644941E+03  0.40685797269E+03  0.18800000000E+03 0.  0.
<mgrwt>
<rscale>  0 0.56334211E+03</rscale>
<asrwt>0</asrwt>
<pdfrwt beam="1">  1        2 0.17571401E+00 0.56334211E+03</pdfrwt>
<pdfrwt beam="2">  1       -2 0.92147163E-02 0.56334211E+03</pdfrwt>
<totfact> 0.16241987E+03</totfact>
</mgrwt>
</event>
<event>
 4    1  0.6165923E-005  0.6107078E+03  0.7818608E-02  0.9883436E-01
          2   -1    0    0  501    0  0.00000000000E+00  0.00000000000E+00  0.22477907690E+03  0.22477907691E+03  0.25500000000E-02 0.  1.
         -2   -1    0    0    0  501 -0.00000000000E+00 -0.00000000000E+00 -0.41481176629E+03  0.41481176630E+03  0.25500000000E-02 0. -1.
    5000001    1    1    2    0    0 -0.86407062898E+02  0.21518669888E+03 -0.16228420134E+03  0.33978177983E+03  0.18800000000E+03 0.  0.
   -5000001    1    1    2    0    0  0.86407062898E+02 -0.21518669888E+03 -0.27748488049E+02  0.29980906338E+03  0.18800000000E+03 0.  0.
<mgrwt>
<rscale>  0 0.61070781E+03</rscale>
<asrwt>0</asrwt>
<pdfrwt beam="1">  1        2 0.32111297E-01 0.61070781E+03</pdfrwt>
<pdfrwt beam="2">  1       -2 0.59258824E-01 0.61070781E+03</pdfrwt>
<totfact> 0.44201585E+02</totfact>
</mgrwt>
</event>
<event>
 4    1  0.6165923E-005  0.3952146E+03  0.7818608E-02  0.1045449E+00
         -2   -1    0    0    0  501 -0.00000000000E+00  0.00000000000E+00  0.65096635431E+03  0.65096635432E+03  0.25500000000E-02 0. -1.
          2   -1    0    0  501    0  0.00000000000E+00 -0.00000000000E+00 -0.59985670807E+02  0.59985670861E+02  0.25500000000E-02 0.  1.
    5000001    1    1    2    0    0  0.19747104642E+02  0.18588450629E+02  0.19746798204E+03  0.27399467617E+03  0.18800000000E+03 0.  0.
   -5000001    1    1    2    0    0 -0.19747104642E+02 -0.18588450629E+02  0.39351270147E+03  0.43695734901E+03  0.18800000000E+03 0.  0.
<mgrwt>
<rscale>  0 0.39521464E+03</rscale>
<asrwt>0</asrwt>
<pdfrwt beam="1">  1        2 0.85693817E-02 0.39521464E+03</pdfrwt>
<pdfrwt beam="2">  1       -2 0.92995191E-01 0.39521464E+03</pdfrwt>
<totfact> 0.79594454E+02</totfact>
</mgrwt>
</event>
<event>
 4    1  0.6165923E-005  0.4588741E+03  0.7818608E-02  0.1025108E+00
         -2   -1    0    0    0  501 -0.00000000000E+00  0.00000000000E+00  0.25553989124E+02  0.25553989251E+02  0.25500000000E-02 0. -1.
          2   -1    0    0  501    0  0.00000000000E+00 -0.00000000000E+00 -0.20600059434E+04  0.20600059434E+04  0.25500000000E-02 0.  1.
    5000001    1    1    2    0    0  0.93329502211E+02 -0.91582548111E+02 -0.10814386554E+04  0.11054190719E+04  0.18800000000E+03 0.  0.
   -5000001    1    1    2    0    0 -0.93329502211E+02  0.91582548111E+02 -0.95301329881E+03  0.98014086070E+03  0.18800000000E+03 0.  0.
<mgrwt>
<rscale>  0 0.45887414E+03</rscale>
<asrwt>0</asrwt>
<pdfrwt beam="1">  1        2 0.29428646E+00 0.45887414E+03</pdfrwt>
<pdfrwt beam="2">  1       -2 0.36505712E-02 0.45887414E+03</pdfrwt>
<totfact> 0.25861135E+03</totfact>
</mgrwt>
</event>
<event>
 4    1  0.6165923E-005  0.5865943E+03  0.7818608E-02  0.9933616E-01
          2   -1    0    0  501    0  0.00000000000E+00  0.00000000000E+00  0.17715812936E+03  0.17715812938E+03  0.25500000000E-02 0.  1.
         -2   -1    0    0    0  501 -0.00000000000E+00 -0.00000000000E+00 -0.48557315598E+03  0.48557315598E+03  0.25500000000E-02 0. -1.
    5000001    1    1    2    0    0 -0.57681792051E+02  0.18779382727E+03 -0.30004454006E+02  0.27356530839E+03  0.18800000000E+03 0.  0.
   -5000001    1    1    2    0    0  0.57681792051E+02 -0.18779382727E+03 -0.27841057261E+03  0.38916597697E+03  0.18800000000E+03 0.  0.
<mgrwt>
<rscale>  0 0.58659435E+03</rscale>
<asrwt>0</asrwt>
<pdfrwt beam="1">  1        2 0.25308304E-01 0.58659435E+03</pdfrwt>
<pdfrwt beam="2">  1       -2 0.69367593E-01 0.58659435E+03</pdfrwt>
<totfact> 0.41355906E+02</totfact>
</mgrwt>
</event>
<event>
 4    1  0.6165923E-005  0.7394065E+03  0.7818608E-02  0.9652118E-01
          2   -1    0    0  501    0  0.00000000000E+00  0.00000000000E+00  0.11854083479E+03  0.11854083481E+03  0.25500000000E-02 0.  1.
         -2   -1    0    0    0  501 -0.00000000000E+00 -0.00000000000E+00 -0.11530244750E+04  0.11530244750E+04  0.25500000000E-02 0. -1.
    5000001    1    1    2    0    0  0.17437175415E+03  0.26150727461E+03 -0.60399642407E+03  0.70636197775E+03  0.18800000000E+03 0.  0.
   -5000001    1    1    2    0    0 -0.17437175415E+03 -0.26150727461E+03 -0.43048721616E+03  0.56520333208E+03  0.18800000000E+03 0.  0.
<mgrwt>
<rscale>  0 0.73940647E+03</rscale>
<asrwt>0</asrwt>
<pdfrwt beam="1">  1        2 0.16934406E-01 0.73940647E+03</pdfrwt>
<pdfrwt beam="2">  1       -2 0.16471778E+00 0.73940647E+03</pdfrwt>
<totfact> 0.81613931E+01</totfact>
</mgrwt>
</event>
<event>
 4    1  0.6165923E-005  0.5139640E+03  0.7818608E-02  0.1010197E+00
          2   -1    0    0  501    0  0.00000000000E+00  0.00000000000E+00  0.68484848688E+03  0.68484848688E+03  0.25500000000E-02 0.  1.
         -2   -1    0    0    0  501 -0.00000000000E+00 -0.00000000000E+00 -0.96429728019E+02  0.96429728052E+02  0.25500000000E-02 0. -1.
    5000001    1    1    2    0    0 -0.17480674675E+03 -0.86871434130E+01  0.28215464979E+03  0.38156010217E+03  0.18800000000E+03 0.  0.
   -5000001    1    1    2    0    0  0.17480674675E+03  0.86871434130E+01  0.30626410907E+03  0.39971811277E+03  0.18800000000E+03 0.  0.
<mgrwt>
<rscale>  0 0.51396402E+03</rscale>
<asrwt>0</asrwt>
<pdfrwt beam="1">  1        2 0.97835498E-01 0.51396402E+03</pdfrwt>
<pdfrwt beam="2">  1       -2 0.13775675E-01 0.51396402E+03</pdfrwt>
<totfact> 0.18664006E+03</totfact>
</mgrwt>
</event>
<event>
 4    1  0.6165923E-005  0.4605001E+03  0.7818608E-02  0.1024636E+00
          2   -1    0    0  501    0  0.00000000000E+00  0.00000000000E+00  0.38530290953E+03  0.38530290954E+03  0.25500000000E-02 0.  1.
         -2   -1    0    0    0  501 -0.00000000000E+00 -0.00000000000E+00 -0.13759325227E+03  0.13759325229E+03  0.25500000000E-02 0. -1.
    5000001    1    1    2    0    0  0.12956636056E+03 -0.23874183835E+02  0.10374461438E+03  0.25192134379E+03  0.18800000000E+03 0.  0.
   -5000001    1    1    2    0    0 -0.12956636056E+03  0.23874183835E+02  0.14396504288E+03  0.27097481804E+03  0.18800000000E+03 0.  0.
<mgrwt>
<rscale>  0 0.46050008E+03</rscale>
<asrwt>0</asrwt>
<pdfrwt beam="1">  1        2 0.55043272E-01 0.46050008E+03</pdfrwt>
<pdfrwt beam="2">  1       -2 0.19656179E-01 0.46050008E+03</pdfrwt>
<totfact> 0.19695724E+03</totfact>
</mgrwt>
</event>
<event>
 4    1  0.6165923E-005  0.6136185E+03  0.7818608E-02  0.9877548E-01
          2   -1    0    0  501    0  0.00000000000E+00  0.00000000000E+00  0.13201871331E+03  0.13201871333E+03  0.25500000000E-02 0.  1.
         -2   -1    0    0    0  501 -0.00000000000E+00 -0.00000000000E+00 -0.71301937846E+03  0.71301937847E+03  0.25500000000E-02 0. -1.
    5000001    1    1    2    0    0 -0.14421957318E+03  0.18229835992E+03 -0.19552839229E+03  0.35722168119E+03  0.18800000000E+03 0.  0.
   -5000001    1    1    2    0    0  0.14421957318E+03 -0.18229835992E+03 -0.38547227287E+03  0.48781641062E+03  0.18800000000E+03 0.  0.
<mgrwt>
<rscale>  0 0.61361845E+03</rscale>
<asrwt>0</asrwt>
<pdfrwt beam="1">  1        2 0.18859817E-01 0.61361845E+03</pdfrwt>
<pdfrwt beam="2">  1       -2 0.10185991E+00 0.61361845E+03</pdfrwt>
<totfact> 0.24356098E+02</totfact>
</mgrwt>
</event>
<event>
 4    1  0.6165923E-005  0.2875137E+04  0.7818608E-02  0.8280314E-01
         -2   -1    0    0    0  501 -0.00000000000E+00  0.00000000000E+00  0.79858228172E+03  0.79858228173E+03  0.25500000000E-02 0. -1.
          2   -1    0    0  501    0  0.00000000000E+00 -0.00000000000E+00 -0.25878402046E+04  0.25878402046E+04  0.25500000000E-02 0.  1.
    5000001    1    1    2    0    0  0.64093264355E+03  0.52525278625E+03  0.47113285346E+03  0.97159420987E+03  0.18800000000E+03 0.  0.
   -5000001    1    1    2    0    0 -0.64093264355E+03 -0.52525278625E+03 -0.22603907763E+04  0.24148282764E+04  0.18800000000E+03 0.  0.
<mgrwt>
<rscale>  0 0.28751371E+04</rscale>
<asrwt>0</asrwt>
<pdfrwt beam="1">  1        2 0.36969145E+00 0.28751371E+04</pdfrwt>
<pdfrwt beam="2">  1       -2 0.11408318E+00 0.28751371E+04</pdfrwt>
<totfact> 0.20732688E+00</totfact>
</mgrwt>
</event>
<event>
 4    1  0.6165923E-005  0.6377030E+03  0.7818608E-02  0.9830131E-01
          2   -1    0    0  501    0  0.00000000000E+00  0.00000000000E+00  0.66500921416E+03  0.66500921417E+03  0.25500000000E-02 0.  1.
         -2   -1    0    0    0  501 -0.00000000000E+00 -0.00000000000E+00 -0.15287948718E+03  0.15287948720E+03  0.25500000000E-02 0. -1.
    5000001    1    1    2    0    0 -0.16393765327E+03 -0.34722410912E+02  0.52572143418E+01  0.25189846820E+03  0.18800000000E+03 0.  0.
   -5000001    1    1    2    0    0  0.16393765327E+03  0.34722410912E+02  0.50687251264E+03  0.56599023317E+03  0.18800000000E+03 0.  0.
<mgrwt>
<rscale>  0 0.63770296E+03</rscale>
<asrwt>0</asrwt>
<pdfrwt beam="1">  1        2 0.95001316E-01 0.63770296E+03</pdfrwt>
<pdfrwt beam="2">  1       -2 0.21839927E-01 0.63770296E+03</pdfrwt>
<totfact> 0.87810948E+02</totfact>
</mgrwt>
</event>
<event>
 4    1  0.6165923E-005  0.5004146E+03  0.7818608E-02  0.1013671E+00
         -2   -1    0    0    0  501 -0.00000000000E+00  0.00000000000E+00  0.23850003663E+03  0.23850003665E+03  0.25500000000E-02 0. -1.
          2   -1    0    0  501    0  0.00000000000E+00 -0.00000000000E+00 -0.26248923266E+03  0.26248923267E+03  0.25500000000E-02 0.  1.
    5000001    1    1    2    0    0  0.47097564256E+02  0.15045641761E+03  0.37096164719E+02  0.24814398964E+03  0.18800000000E+03 0.  0.
   -5000001    1    1    2    0    0 -0.47097564256E+02 -0.15045641761E+03 -0.61085360746E+02  0.25284527968E+03  0.18800000000E+03 0.  0.
<mgrwt>
<rscale>  0 0.50041459E+03</rscale>
<asrwt>0</asrwt>
<pdfrwt beam="1">  1        2 0.37498462E-01 0.50041459E+03</pdfrwt>
<pdfrwt beam="2">  1       -2 0.34071434E-01 0.50041459E+03</pdfrwt>
<totfact> 0.11164813E+03</totfact>
</mgrwt>
</event>
<event>
 4    1  0.6165923E-005  0.4235166E+03  0.7818608E-02  0.1035928E+00
         -2   -1    0    0    0  501 -0.00000000000E+00  0.00000000000E+00  0.26843021233E+02  0.26843021354E+02  0.25500000000E-02 0. -1.
          2   -1    0    0  501    0  0.00000000000E+00 -0.00000000000E+00 -0.16705112842E+04  0.16705112842E+04  0.25500000000E-02 0.  1.
    5000001    1    1    2    0    0 -0.84457913287E+02  0.46832153341E+02 -0.87427005999E+03  0.89945457222E+03  0.18800000000E+03 0.  0.
   -5000001    1    1    2    0    0  0.84457913287E+02 -0.46832153341E+02 -0.76939820300E+03  0.79789973335E+03  0.18800000000E+03 0.  0.
<mgrwt>
<rscale>  0 0.42351656E+03</rscale>
<asrwt>0</asrwt>
<pdfrwt beam="1">  1        2 0.23864440E+00 0.42351656E+03</pdfrwt>
<pdfrwt beam="2">  1       -2 0.38347184E-02 0.42351656E+03</pdfrwt>
<totfact> 0.37560547E+03</totfact>
</mgrwt>
</event>
<event>
 4    1  0.6165923E-005  0.6267754E+03  0.7818608E-02  0.9851362E-01
          2   -1    0    0  501    0  0.00000000000E+00  0.00000000000E+00  0.25999525616E+03  0.25999525617E+03  0.25500000000E-02 0.  1.
         -2   -1    0    0    0  501 -0.00000000000E+00 -0.00000000000E+00 -0.37774480640E+03  0.37774480641E+03  0.25500000000E-02 0. -1.
    5000001    1    1    2    0    0 -0.77526023957E+02 -0.23490763576E+03 -0.17219919182E+02  0.31117905994E+03  0.18800000000E+03 0.  0.
   -5000001    1    1    2    0    0  0.77526023957E+02  0.23490763576E+03 -0.10052963106E+03  0.32656100264E+03  0.18800000000E+03 0.  0.
<mgrwt>
<rscale>  0 0.62677542E+03</rscale>
<asrwt>0</asrwt>
<pdfrwt beam="1">  1        2 0.37142180E-01 0.62677542E+03</pdfrwt>
<pdfrwt beam="2">  1       -2 0.53963543E-01 0.62677542E+03</pdfrwt>
<totfact> 0.45638949E+02</totfact>
</mgrwt>
</event>
<event>
 4    1  0.6165923E-005  0.6334402E+03  0.7818608E-02  0.9838358E-01
          2   -1    0    0  501    0  0.00000000000E+00  0.00000000000E+00  0.30458248498E+04  0.30458248498E+04  0.25500000000E-02 0.  1.
         -2   -1    0    0    0  501 -0.00000000000E+00 -0.00000000000E+00 -0.32934142389E+02  0.32934142488E+02  0.25500000000E-02 0. -1.
    5000001    1    1    2    0    0 -0.18213598778E+03 -0.17303735450E+03  0.17156215580E+04  0.17440804953E+04  0.18800000000E+03 0.  0.
   -5000001    1    1    2    0    0  0.18213598778E+03  0.17303735450E+03  0.12972691495E+04  0.13346784970E+04  0.18800000000E+03 0.  0.
<mgrwt>
<rscale>  0 0.63344022E+03</rscale>
<asrwt>0</asrwt>
<pdfrwt beam="1">  1        2 0.43511804E+00 0.63344022E+03</pdfrwt>
<pdfrwt beam="2">  1       -2 0.47048752E-02 0.63344022E+03</pdfrwt>
<totfact> 0.53521175E+02</totfact>
</mgrwt>
</event>
<event>
 4    1  0.6165923E-005  0.5959700E+03  0.7818608E-02  0.9913802E-01
          2   -1    0    0  501    0  0.00000000000E+00  0.00000000000E+00  0.16649821204E+03  0.16649821206E+03  0.25500000000E-02 0.  1.
         -2   -1    0    0    0  501 -0.00000000000E+00 -0.00000000000E+00 -0.53330938472E+03  0.53330938472E+03  0.25500000000E-02 0. -1.
    5000001    1    1    2    0    0  0.47392165105E+02  0.20151535067E+03 -0.62530267392E+02  0.28654578728E+03  0.18800000000E+03 0.  0.
   -5000001    1    1    2    0    0 -0.47392165105E+02 -0.20151535067E+03 -0.30428090528E+03  0.41326180950E+03  0.18800000000E+03 0.  0.
<mgrwt>
<rscale>  0 0.59597000E+03</rscale>
<asrwt>0</asrwt>
<pdfrwt beam="1">  1        2 0.23785459E-01 0.59597000E+03</pdfrwt>
<pdfrwt beam="2">  1       -2 0.76187054E-01 0.59597000E+03</pdfrwt>
<totfact> 0.36149573E+02</totfact>
</mgrwt>
</event>
<event>
 4    1  0.6165923E-005  0.4356994E+03  0.7818608E-02  0.1032075E+00
         -2   -1    0    0    0  501 -0.00000000000E+00  0.00000000000E+00  0.26111408453E+02  0.26111408578E+02  0.25500000000E-02 0. -1.
          2   -1    0    0  501    0  0.00000000000E+00 -0.00000000000E+00 -0.18175384986E+04  0.18175384986E+04  0.25500000000E-02 0.  1.
    5000001    1    1    2    0    0 -0.38956193454E+02  0.89065078316E+02 -0.67729754323E+03  0.70959575481E+03  0.18800000000E+03 0.  0.
   -5000001    1    1    2    0    0  0.38956193454E+02 -0.89065078316E+02 -0.11141295469E+04  0.11340541523E+04  0.18800000000E+03 0.  0.
<mgrwt>
<rscale>  0 0.43569939E+03</rscale>
<asrwt>0</asrwt>
<pdfrwt beam="1">  1        2 0.25964828E+00 0.43569939E+03</pdfrwt>
<pdfrwt beam="2">  1       -2 0.37302024E-02 0.43569939E+03</pdfrwt>
<totfact> 0.33059076E+03</totfact>
</mgrwt>
</event>
<event>
 4    1  0.6165923E-005  0.5260616E+03  0.7818608E-02  0.1007192E+00
          2   -1    0    0  501    0  0.00000000000E+00  0.00000000000E+00  0.12431884403E+04  0.12431884403E+04  0.25500000000E-02 0.  1.
         -2   -1    0    0    0  501 -0.00000000000E+00 -0.00000000000E+00 -0.55651429202E+02  0.55651429261E+02  0.25500000000E-02 0. -1.
    5000001    1    1    2    0    0 -0.15025198701E+03 -0.84300889012E+02  0.43454435378E+03  0.50384034663E+03  0.18800000000E+03 0.  0.
   -5000001    1    1    2    0    0  0.15025198701E+03  0.84300889012E+02  0.75299265730E+03  0.79499952291E+03  0.18800000000E+03 0.  0.
<mgrwt>
<rscale>  0 0.52606164E+03</rscale>
<asrwt>0</asrwt>
<pdfrwt beam="1">  1        2 0.17759839E+00 0.52606164E+03</pdfrwt>
<pdfrwt beam="2">  1       -2 0.79502025E-02 0.52606164E+03</pdfrwt>
<totfact> 0.20235356E+03</totfact>
</mgrwt>
</event>
<event>
 4    1  0.6165923E-005  0.9022263E+03  0.7818608E-02  0.9422803E-01
         -2   -1    0    0    0  501 -0.00000000000E+00  0.00000000000E+00  0.24949572828E+03  0.24949572829E+03  0.25500000000E-02 0. -1.
          2   -1    0    0  501    0  0.00000000000E+00 -0.00000000000E+00 -0.81565747665E+03  0.81565747665E+03  0.25500000000E-02 0.  1.
    5000001    1    1    2    0    0  0.28416866960E+03 -0.21641583887E+03 -0.52087802964E+03  0.65897311770E+03  0.18800000000E+03 0.  0.
   -5000001    1    1    2    0    0 -0.28416866960E+03  0.21641583887E+03 -0.45283718732E+02  0.40618008725E+03  0.18800000000E+03 0.  0.
<mgrwt>
<rscale>  0 0.90222626E+03</rscale>
<asrwt>0</asrwt>
<pdfrwt beam="1">  1        2 0.11652250E+00 0.90222626E+03</pdfrwt>
<pdfrwt beam="2">  1       -2 0.35642247E-01 0.90222626E+03</pdfrwt>
<totfact> 0.27434269E+02</totfact>
</mgrwt>
</event>
<event>
 4    1  0.6165923E-005  0.4814227E+03  0.7818608E-02  0.1018745E+00
          2   -1    0    0  501    0  0.00000000000E+00  0.00000000000E+00  0.39356446206E+03  0.39356446207E+03  0.25500000000E-02 0.  1.
         -2   -1    0    0    0  501 -0.00000000000E+00 -0.00000000000E+00 -0.14722354239E+03  0.14722354241E+03  0.25500000000E-02 0. -1.
    5000001    1    1    2    0    0  0.11486913780E+03 -0.81508810887E+02  0.18217749811E+03  0.29727301574E+03  0.18800000000E+03 0.  0.
   -5000001    1    1    2    0    0 -0.11486913780E+03  0.81508810887E+02  0.64163421564E+02  0.24351498873E+03  0.18800000000E+03 0.  0.
<mgrwt>
<rscale>  0 0.48142270E+03</rscale>
<asrwt>0</asrwt>
<pdfrwt beam="1">  1        2 0.56223495E-01 0.48142270E+03</pdfrwt>
<pdfrwt beam="2">  1       -2 0.21031934E-01 0.48142270E+03</pdfrwt>
<totfact> 0.17114109E+03</totfact>
</mgrwt>
</event>
<event>
 4    1  0.6165923E-005  0.7331837E+03  0.7818608E-02  0.9662108E-01
         -2   -1    0    0    0  501 -0.00000000000E+00  0.00000000000E+00  0.11204173038E+04  0.11204173038E+04  0.25500000000E-02 0. -1.
          2   -1    0    0  501    0  0.00000000000E+00 -0.00000000000E+00 -0.11994602106E+03  0.11994602108E+03  0.25500000000E-02 0.  1.
    5000001    1    1    2    0    0 -0.25732675403E+03  0.15546334960E+03  0.34280575942E+03  0.49319945266E+03  0.18800000000E+03 0.  0.
   -5000001    1    1    2    0    0  0.25732675403E+03 -0.15546334960E+03  0.65766552337E+03  0.74716387228E+03  0.18800000000E+03 0.  0.
<mgrwt>
<rscale>  0 0.73318374E+03</rscale>
<asrwt>0</asrwt>
<pdfrwt beam="1">  1        2 0.17135146E-01 0.73318374E+03</pdfrwt>
<pdfrwt beam="2">  1       -2 0.16005962E+00 0.73318374E+03</pdfrwt>
<totfact> 0.87029212E+01</totfact>
</mgrwt>
</event>
<event>
 4    1  0.6165923E-005  0.8298125E+03  0.7818608E-02  0.9517840E-01
          2   -1    0    0  501    0  0.00000000000E+00  0.00000000000E+00  0.50588006709E+03  0.50588006709E+03  0.25500000000E-02 0.  1.
         -2   -1    0    0    0  501 -0.00000000000E+00 -0.00000000000E+00 -0.34029253332E+03  0.34029253333E+03  0.25500000000E-02 0. -1.
    5000001    1    1    2    0    0 -0.36594883256E+03 -0.22565625148E+02  0.33094235829E+02  0.41336059794E+03  0.18800000000E+03 0.  0.
   -5000001    1    1    2    0    0  0.36594883256E+03  0.22565625148E+02  0.13249329794E+03  0.43281200248E+03  0.18800000000E+03 0.  0.
<mgrwt>
<rscale>  0 0.82981253E+03</rscale>
<asrwt>0</asrwt>
<pdfrwt beam="1">  1        2 0.72268580E-01 0.82981253E+03</pdfrwt>
<pdfrwt beam="2">  1       -2 0.48613220E-01 0.82981253E+03</pdfrwt>
<totfact> 0.26686247E+02</totfact>
</mgrwt>
</event>
<event>
 4    1  0.6165923E-005  0.6133769E+03  0.7818608E-02  0.9878035E-01
         -2   -1    0    0    0  501 -0.00000000000E+00  0.00000000000E+00  0.54405677727E+02  0.54405677787E+02  0.25500000000E-02 0. -1.
          2   -1    0    0  501    0  0.00000000000E+00 -0.00000000000E+00 -0.17288231793E+04  0.17288231793E+04  0.25500000000E-02 0.  1.
    5000001    1    1    2    0    0 -0.20396977826E+03 -0.64932005552E+02 -0.11673295313E+04  0.12015914740E+04  0.18800000000E+03 0.  0.
   -5000001    1    1    2    0    0  0.20396977826E+03  0.64932005552E+02 -0.50708797026E+03  0.58163738306E+03  0.18800000000E+03 0.  0.
<mgrwt>
<rscale>  0 0.61337687E+03</rscale>
<asrwt>0</asrwt>
<pdfrwt beam="1">  1        2 0.24697471E+00 0.61337687E+03</pdfrwt>
<pdfrwt beam="2">  1       -2 0.77722407E-02 0.61337687E+03</pdfrwt>
<totfact> 0.11643950E+03</totfact>
</mgrwt>
</event>
<event>
 4    1  0.6165923E-005  0.6369199E+03  0.7818608E-02  0.9831637E-01
         -2   -1    0    0    0  501 -0.00000000000E+00  0.00000000000E+00  0.61086805229E+02  0.61086805283E+02  0.25500000000E-02 0. -1.
          2   -1    0    0  501    0  0.00000000000E+00 -0.00000000000E+00 -0.16602072261E+04  0.16602072261E+04  0.25500000000E-02 0.  1.
    5000001    1    1    2    0    0  0.21832695092E+03  0.56476351771E+02 -0.11329312560E+04  0.11703561281E+04  0.18800000000E+03 0.  0.
   -5000001    1    1    2    0    0 -0.21832695092E+03 -0.56476351771E+02 -0.46618916487E+03  0.55093790326E+03  0.18800000000E+03 0.  0.
<mgrwt>
<rscale>  0 0.63691995E+03</rscale>
<asrwt>0</asrwt>
<pdfrwt beam="1">  1        2 0.23717243E+00 0.63691995E+03</pdfrwt>
<pdfrwt beam="2">  1       -2 0.87266875E-02 0.63691995E+03</pdfrwt>
<totfact> 0.10476095E+03</totfact>
</mgrwt>
</event>
<event>
 4    1  0.6165923E-005  0.6938123E+03  0.7818608E-02  0.9727873E-01
          2   -1    0    0  501    0  0.00000000000E+00  0.00000000000E+00  0.11566903826E+04  0.11566903826E+04  0.25500000000E-02 0.  1.
         -2   -1    0    0    0  501 -0.00000000000E+00 -0.00000000000E+00 -0.10404156927E+03  0.10404156930E+03  0.25500000000E-02 0. -1.
    5000001    1    1    2    0    0 -0.20949847610E+03  0.66640037334E+02  0.17836184647E+03  0.33983445137E+03  0.18800000000E+03 0.  0.
   -5000001    1    1    2    0    0  0.20949847610E+03 -0.66640037334E+02  0.87428696687E+03  0.92089750054E+03  0.18800000000E+03 0.  0.
<mgrwt>
<rscale>  0 0.69381232E+03</rscale>
<asrwt>0</asrwt>
<pdfrwt beam="1">  1        2 0.16524146E+00 0.69381232E+03</pdfrwt>
<pdfrwt beam="2">  1       -2 0.14863083E-01 0.69381232E+03</pdfrwt>
<totfact> 0.81027493E+02</totfact>
</mgrwt>
</event>
<event>
 4    1  0.6165923E-005  0.7396296E+03  0.7818608E-02  0.9651762E-01
         -2   -1    0    0    0  501 -0.00000000000E+00  0.00000000000E+00  0.27848533541E+03  0.27848533542E+03  0.25500000000E-02 0. -1.
          2   -1    0    0  501    0  0.00000000000E+00 -0.00000000000E+00 -0.49109583758E+03  0.49109583759E+03  0.25500000000E-02 0.  1.
    5000001    1    1    2    0    0 -0.35820724584E+01  0.27038039790E+03 -0.28134551319E+03  0.43314857567E+03  0.18800000000E+03 0.  0.
   -5000001    1    1    2    0    0  0.35820724584E+01 -0.27038039790E+03  0.68735011016E+02  0.33643259734E+03  0.18800000000E+03 0.  0.
<mgrwt>
<rscale>  0 0.73962961E+03</rscale>
<asrwt>0</asrwt>
<pdfrwt beam="1">  1        2 0.70156548E-01 0.73962961E+03</pdfrwt>
<pdfrwt beam="2">  1       -2 0.39783620E-01 0.73962961E+03</pdfrwt>
<totfact> 0.41219942E+02</totfact>
</mgrwt>
</event>
<event>
 4    1  0.6165923E-005  0.4749771E+03  0.7818608E-02  0.1020525E+00
         -2   -1    0    0    0  501 -0.00000000000E+00  0.00000000000E+00  0.46092276468E+02  0.46092276539E+02  0.25500000000E-02 0. -1.
          2   -1    0    0  501    0  0.00000000000E+00 -0.00000000000E+00 -0.12236498583E+04  0.12236498583E+04  0.25500000000E-02 0.  1.
    5000001    1    1    2    0    0  0.93364738007E+02 -0.22029418233E+02 -0.29771700372E+03  0.36494065802E+03  0.18800000000E+03 0.  0.
   -5000001    1    1    2    0    0 -0.93364738007E+02  0.22029418233E+02 -0.87984057815E+03  0.90480147686E+03  0.18800000000E+03 0.  0.
<mgrwt>
<rscale>  0 0.47497708E+03</rscale>
<asrwt>0</asrwt>
<pdfrwt beam="1">  1        2 0.17480710E+00 0.47497708E+03</pdfrwt>
<pdfrwt beam="2">  1       -2 0.65846117E-02 0.47497708E+03</pdfrwt>
<totfact> 0.27935678E+03</totfact>
</mgrwt>
</event>
<event>
 4    1  0.6165923E-005  0.9523351E+03  0.7818608E-02  0.9362425E-01
         -2   -1    0    0    0  501 -0.00000000000E+00  0.00000000000E+00  0.44217045492E+03  0.44217045493E+03  0.25500000000E-02 0. -1.
          2   -1    0    0  501    0  0.00000000000E+00 -0.00000000000E+00 -0.51277860805E+03  0.51277860805E+03  0.25500000000E-02 0.  1.
    5000001    1    1    2    0    0  0.41069960857E+03 -0.45488988389E+02  0.10878491604E+03  0.46682070916E+03  0.18800000000E+03 0.  0.
   -5000001    1    1    2    0    0 -0.41069960857E+03  0.45488988389E+02 -0.17939306916E+03  0.48812835382E+03  0.18800000000E+03 0.  0.
<mgrwt>
<rscale>  0 0.95233513E+03</rscale>
<asrwt>0</asrwt>
<pdfrwt beam="1">  1        2 0.73254087E-01 0.95233513E+03</pdfrwt>
<pdfrwt beam="2">  1       -2 0.63167208E-01 0.95233513E+03</pdfrwt>
<totfact> 0.15160901E+02</totfact>
</mgrwt>
</event>
<event>
 4    1  0.6165923E-005  0.5796740E+03  0.7818608E-02  0.9948497E-01
         -2   -1    0    0    0  501 -0.00000000000E+00  0.00000000000E+00  0.49027628478E+02  0.49027628544E+02  0.25500000000E-02 0. -1.
          2   -1    0    0  501    0  0.00000000000E+00 -0.00000000000E+00 -0.17134317261E+04  0.17134317261E+04  0.25500000000E-02 0.  1.
    5000001    1    1    2    0    0 -0.19345460082E+03 -0.12058824695E+02 -0.11524072492E+04  0.11836201105E+04  0.18800000000E+03 0.  0.
   -5000001    1    1    2    0    0  0.19345460082E+03  0.12058824695E+02 -0.51199684838E+03  0.57883924417E+03  0.18800000000E+03 0.  0.
<mgrwt>
<rscale>  0 0.57967403E+03</rscale>
<asrwt>0</asrwt>
<pdfrwt beam="1">  1        2 0.24477592E+00 0.57967403E+03</pdfrwt>
<pdfrwt beam="2">  1       -2 0.70039480E-02 0.57967403E+03</pdfrwt>
<totfact> 0.14002674E+03</totfact>
</mgrwt>
</event>
<event>
 4    1  0.6165923E-005  0.8679971E+03  0.7818608E-02  0.9466495E-01
          2   -1    0    0  501    0  0.00000000000E+00  0.00000000000E+00  0.42741948668E+04  0.42741948668E+04  0.25500000000E-02 0.  1.
         -2   -1    0    0    0  501 -0.00000000000E+00 -0.00000000000E+00 -0.44067886146E+02  0.44067886220E+02  0.25500000000E-02 0. -1.
    5000001    1    1    2    0    0 -0.17621360200E+03 -0.27008911815E+03  0.10136783554E+04  0.10802255197E+04  0.18800000000E+03 0.  0.
   -5000001    1    1    2    0    0  0.17621360200E+03  0.27008911815E+03  0.32164486253E+04  0.32380372333E+04  0.18800000000E+03 0.  0.
<mgrwt>
<rscale>  0 0.86799708E+03</rscale>
<asrwt>0</asrwt>
<pdfrwt beam="1">  1        2 0.61059940E+00 0.86799708E+03</pdfrwt>
<pdfrwt beam="2">  1       -2 0.62954109E-02 0.86799708E+03</pdfrwt>
<totfact> 0.56381589E+01</totfact>
</mgrwt>
</event>
<event>
 4    1  0.6165923E-005  0.5638228E+03  0.7818608E-02  0.9983442E-01
         -2   -1    0    0    0  501 -0.00000000000E+00  0.00000000000E+00  0.90574002507E+02  0.90574002543E+02  0.25500000000E-02 0. -1.
          2   -1    0    0  501    0  0.00000000000E+00 -0.00000000000E+00 -0.87744870378E+03  0.87744870378E+03  0.25500000000E-02 0.  1.
    5000001    1    1    2    0    0 -0.55791665347E+02  0.13127075594E+03 -0.65822480121E+03  0.69924860401E+03  0.18800000000E+03 0.  0.
   -5000001    1    1    2    0    0  0.55791665347E+02 -0.13127075594E+03 -0.12864990006E+03  0.26877410231E+03  0.18800000000E+03 0.  0.
<mgrwt>
<rscale>  0 0.56382281E+03</rscale>
<asrwt>0</asrwt>
<pdfrwt beam="1">  1        2 0.12534981E+00 0.56382281E+03</pdfrwt>
<pdfrwt beam="2">  1       -2 0.12939144E-01 0.56382281E+03</pdfrwt>
<totfact> 0.15147502E+03</totfact>
</mgrwt>
</event>
<event>
 4    1  0.6165923E-005  0.6840840E+03  0.7818608E-02  0.9744844E-01
          2   -1    0    0  501    0  0.00000000000E+00  0.00000000000E+00  0.65740981519E+03  0.65740981520E+03  0.25500000000E-02 0.  1.
         -2   -1    0    0    0  501 -0.00000000000E+00 -0.00000000000E+00 -0.17796014380E+03  0.17796014382E+03  0.25500000000E-02 0. -1.
    5000001    1    1    2    0    0  0.10343577766E+03  0.24463052490E+03  0.36841406304E+03  0.49154447983E+03  0.18800000000E+03 0.  0.
   -5000001    1    1    2    0    0 -0.10343577766E+03 -0.24463052490E+03  0.11103560836E+03  0.34382547918E+03  0.18800000000E+03 0.  0.
<mgrwt>
<rscale>  0 0.68408405E+03</rscale>
<asrwt>0</asrwt>
<pdfrwt beam="1">  1        2 0.93915687E-01 0.68408405E+03</pdfrwt>
<pdfrwt beam="2">  1       -2 0.25422878E-01 0.68408405E+03</pdfrwt>
<totfact> 0.67835066E+02</totfact>
</mgrwt>
</event>
<event>
 4    1  0.6165923E-005  0.6941835E+03  0.7818608E-02  0.9727231E-01
         -2   -1    0    0    0  501 -0.00000000000E+00  0.00000000000E+00  0.20917344489E+03  0.20917344491E+03  0.25500000000E-02 0. -1.
          2   -1    0    0  501    0  0.00000000000E+00 -0.00000000000E+00 -0.57594630155E+03  0.57594630156E+03  0.25500000000E-02 0.  1.
    5000001    1    1    2    0    0  0.21025417705E+03  0.15363708524E+03 -0.34551720374E+02  0.32303094946E+03  0.18800000000E+03 0.  0.
   -5000001    1    1    2    0    0 -0.21025417705E+03 -0.15363708524E+03 -0.33222113629E+03  0.46208879701E+03  0.18800000000E+03 0.  0.
<mgrwt>
<rscale>  0 0.69418347E+03</rscale>
<asrwt>0</asrwt>
<pdfrwt beam="1">  1        2 0.82278043E-01 0.69418347E+03</pdfrwt>
<pdfrwt beam="2">  1       -2 0.29881921E-01 0.69418347E+03</pdfrwt>
<totfact> 0.59076322E+02</totfact>
</mgrwt>
</event>
<event>
 4    1  0.6165923E-005  0.8402620E+03  0.7818608E-02  0.9503501E-01
          2   -1    0    0  501    0  0.00000000000E+00  0.00000000000E+00  0.14855905350E+04  0.14855905350E+04  0.25500000000E-02 0.  1.
         -2   -1    0    0    0  501 -0.00000000000E+00 -0.00000000000E+00 -0.11881473908E+03  0.11881473911E+03  0.25500000000E-02 0. -1.
    5000001    1    1    2    0    0  0.13571067853E+03  0.34405688989E+03  0.80966218523E+03  0.90977435990E+03  0.18800000000E+03 0.  0.
   -5000001    1    1    2    0    0 -0.13571067853E+03 -0.34405688989E+03  0.55711361067E+03  0.69463091419E+03  0.18800000000E+03 0.  0.
<mgrwt>
<rscale>  0 0.84026199E+03</rscale>
<asrwt>0</asrwt>
<pdfrwt beam="1">  1        2 0.21222722E+00 0.84026199E+03</pdfrwt>
<pdfrwt beam="2">  1       -2 0.16973534E-01 0.84026199E+03</pdfrwt>
<totfact> 0.42437430E+02</totfact>
</mgrwt>
</event>
<event>
 4    1  0.6165923E-005  0.6411050E+03  0.7818608E-02  0.9823615E-01
         -2   -1    0    0    0  501 -0.00000000000E+00  0.00000000000E+00  0.76457580768E+02  0.76457580811E+02  0.25500000000E-02 0. -1.
          2   -1    0    0  501    0  0.00000000000E+00 -0.00000000000E+00 -0.13439336008E+04  0.13439336008E+04  0.25500000000E-02 0.  1.
    5000001    1    1    2    0    0 -0.46585927084E+02  0.22668658085E+03 -0.89450251181E+03  0.94288694878E+03  0.18800000000E+03 0.  0.
   -5000001    1    1    2    0    0  0.46585927084E+02 -0.22668658085E+03 -0.37297350823E+03  0.47750423285E+03  0.18800000000E+03 0.  0.
<mgrwt>
<rscale>  0 0.64110502E+03</rscale>
<asrwt>0</asrwt>
<pdfrwt beam="1">  1        2 0.19199050E+00 0.64110502E+03</pdfrwt>
<pdfrwt beam="2">  1       -2 0.10922512E-01 0.64110502E+03</pdfrwt>
<totfact> 0.10658855E+03</totfact>
</mgrwt>
</event>
<event>
 4    1  0.6165923E-005  0.6390828E+03  0.7818608E-02  0.9827483E-01
          2   -1    0    0  501    0  0.00000000000E+00  0.00000000000E+00  0.15240874091E+04  0.15240874091E+04  0.25500000000E-02 0.  1.
         -2   -1    0    0    0  501 -0.00000000000E+00 -0.00000000000E+00 -0.66995316383E+02  0.66995316432E+02  0.25500000000E-02 0. -1.
    5000001    1    1    2    0    0  0.12928200381E+03  0.81552249751E+02  0.20990005511E+03  0.32057236170E+03  0.18800000000E+03 0.  0.
   -5000001    1    1    2    0    0 -0.12928200381E+03 -0.81552249751E+02  0.12471920376E+04  0.12705103638E+04  0.18800000000E+03 0.  0.
<mgrwt>
<rscale>  0 0.63908284E+03</rscale>
<asrwt>0</asrwt>
<pdfrwt beam="1">  1        2 0.21772676E+00 0.63908284E+03</pdfrwt>
<pdfrwt beam="2">  1       -2 0.95707600E-02 0.63908284E+03</pdfrwt>
<totfact> 0.10610486E+03</totfact>
</mgrwt>
</event>
<event>
 4    1  0.6165923E-005  0.6546369E+03  0.7818608E-02  0.9798117E-01
          2   -1    0    0  501    0  0.00000000000E+00  0.00000000000E+00  0.93749546689E+03  0.93749546690E+03  0.25500000000E-02 0.  1.
         -2   -1    0    0    0  501 -0.00000000000E+00 -0.00000000000E+00 -0.11428041228E+03  0.11428041231E+03  0.25500000000E-02 0. -1.
    5000001    1    1    2    0    0 -0.25135010409E+03 -0.49985197378E+02  0.28593899975E+03  0.42752836907E+03  0.18800000000E+03 0.  0.
   -5000001    1    1    2    0    0  0.25135010409E+03  0.49985197378E+02  0.53727605486E+03  0.62424751013E+03  0.18800000000E+03 0.  0.
<mgrwt>
<rscale>  0 0.65463690E+03</rscale>
<asrwt>0</asrwt>
<pdfrwt beam="1">  1        2 0.13392792E+00 0.65463690E+03</pdfrwt>
<pdfrwt beam="2">  1       -2 0.16325773E-01 0.65463690E+03</pdfrwt>
<totfact> 0.93643559E+02</totfact>
</mgrwt>
</event>
<event>
 4    1  0.6165923E-005  0.4149089E+03  0.7818608E-02  0.1038736E+00
          2   -1    0    0  501    0  0.00000000000E+00  0.00000000000E+00  0.56853580596E+02  0.56853580653E+02  0.25500000000E-02 0.  1.
         -2   -1    0    0    0  501 -0.00000000000E+00 -0.00000000000E+00 -0.75698558643E+03  0.75698558644E+03  0.25500000000E-02 0. -1.
    5000001    1    1    2    0    0  0.75649223221E+02 -0.32810573701E+02 -0.40871427296E+03  0.45737369365E+03  0.18800000000E+03 0.  0.
   -5000001    1    1    2    0    0 -0.75649223221E+02  0.32810573701E+02 -0.29141773287E+03  0.35646547344E+03  0.18800000000E+03 0.  0.
<mgrwt>
<rscale>  0 0.41490886E+03</rscale>
<asrwt>0</asrwt>
<pdfrwt beam="1">  1        2 0.81219405E-02 0.41490886E+03</pdfrwt>
<pdfrwt beam="2">  1       -2 0.10814079E+00 0.41490886E+03</pdfrwt>
<totfact> 0.59880382E+02</totfact>
</mgrwt>
</event>
<event>
 4    1  0.6165923E-005  0.3850550E+03  0.7818608E-02  0.1049081E+00
         -2   -1    0    0    0  501 -0.00000000000E+00  0.00000000000E+00  0.30069876188E+02  0.30069876296E+02  0.25500000000E-02 0. -1.
          2   -1    0    0  501    0  0.00000000000E+00 -0.00000000000E+00 -0.12326898877E+04  0.12326898877E+04  0.25500000000E-02 0.  1.
    5000001    1    1    2    0    0 -0.27085995848E+02  0.31310068658E+02 -0.59154810265E+03  0.62208289586E+03  0.18800000000E+03 0.  0.
   -5000001    1    1    2    0    0  0.27085995848E+02 -0.31310068658E+02 -0.61107190888E+03  0.64067686816E+03  0.18800000000E+03 0.  0.
<mgrwt>
<rscale>  0 0.38505497E+03</rscale>
<asrwt>0</asrwt>
<pdfrwt beam="1">  1        2 0.17609852E+00 0.38505497E+03</pdfrwt>
<pdfrwt beam="2">  1       -2 0.42956974E-02 0.38505497E+03</pdfrwt>
<totfact> 0.53346895E+03</totfact>
</mgrwt>
</event>
<event>
 4    1  0.6165923E-005  0.1424769E+04  0.7818608E-02  0.8936082E-01
          2   -1    0    0  501    0  0.00000000000E+00  0.00000000000E+00  0.95767849589E+03  0.95767849590E+03  0.25500000000E-02 0.  1.
         -2   -1    0    0    0  501 -0.00000000000E+00 -0.00000000000E+00 -0.52991887237E+03  0.52991887237E+03  0.25500000000E-02 0. -1.
    5000001    1    1    2    0    0  0.63367321668E+03  0.60743727921E+02 -0.56209257035E+02  0.66613439079E+03  0.18800000000E+03 0.  0.
   -5000001    1    1    2    0    0 -0.63367321668E+03 -0.60743727921E+02  0.48396888056E+03  0.82146297748E+03  0.18800000000E+03 0.  0.
<mgrwt>
<rscale>  0 0.14247693E+04</rscale>
<asrwt>0</asrwt>
<pdfrwt beam="1">  1        2 0.13681121E+00 0.14247693E+04</pdfrwt>
<pdfrwt beam="2">  1       -2 0.75702696E-01 0.14247693E+04</pdfrwt>
<totfact> 0.45444728E+01</totfact>
</mgrwt>
</event>
<event>
 4    1  0.6165923E-005  0.6453786E+03  0.7818608E-02  0.9815490E-01
          2   -1    0    0  501    0  0.00000000000E+00  0.00000000000E+00  0.14399181308E+04  0.14399181308E+04  0.25500000000E-02 0.  1.
         -2   -1    0    0    0  501 -0.00000000000E+00 -0.00000000000E+00 -0.72315490930E+02  0.72315490974E+02  0.25500000000E-02 0. -1.
    5000001    1    1    2    0    0  0.11288941583E+03  0.22119170642E+03  0.48615923487E+03  0.57737734009E+03  0.18800000000E+03 0.  0.
   -5000001    1    1    2    0    0 -0.11288941583E+03 -0.22119170642E+03  0.88144340498E+03  0.93485628167E+03  0.18800000000E+03 0.  0.
<mgrwt>
<rscale>  0 0.64537861E+03</rscale>
<asrwt>0</asrwt>
<pdfrwt beam="1">  1        2 0.20570258E+00 0.64537861E+03</pdfrwt>
<pdfrwt beam="2">  1       -2 0.10330785E-01 0.64537861E+03</pdfrwt>
<totfact> 0.10372898E+03</totfact>
</mgrwt>
</event>
<event>
 4    1  0.6165923E-005  0.8311810E+03  0.7818608E-02  0.9515949E-01
         -2   -1    0    0    0  501 -0.00000000000E+00  0.00000000000E+00  0.12311504238E+03  0.12311504240E+03  0.25500000000E-02 0. -1.
          2   -1    0    0  501    0  0.00000000000E+00 -0.00000000000E+00 -0.14028786522E+04  0.14028786522E+04  0.25500000000E-02 0.  1.
    5000001    1    1    2    0    0 -0.98120678304E+01  0.24061304669E+03 -0.11571481014E+04  0.11967984975E+04  0.18800000000E+03 0.  0.
   -5000001    1    1    2    0    0  0.98120678304E+01 -0.24061304669E+03 -0.12261550837E+03  0.32919519712E+03  0.18800000000E+03 0.  0.
<mgrwt>
<rscale>  0 0.83118100E+03</rscale>
<asrwt>0</asrwt>
<pdfrwt beam="1">  1        2 0.20041123E+00 0.83118100E+03</pdfrwt>
<pdfrwt beam="2">  1       -2 0.17587864E-01 0.83118100E+03</pdfrwt>
<totfact> 0.44200461E+02</totfact>
</mgrwt>
</event>
<event>
 4    1  0.6165923E-005  0.5434872E+03  0.7818608E-02  0.1003013E+00
          2   -1    0    0  501    0  0.00000000000E+00  0.00000000000E+00  0.58968443474E+03  0.58968443475E+03  0.25500000000E-02 0.  1.
         -2   -1    0    0    0  501 -0.00000000000E+00 -0.00000000000E+00 -0.12522727670E+03  0.12522727672E+03  0.25500000000E-02 0. -1.
    5000001    1    1    2    0    0 -0.54694234002E+02 -0.18445972020E+03  0.18155981601E+03  0.32453784741E+03  0.18800000000E+03 0.  0.
   -5000001    1    1    2    0    0  0.54694234002E+02  0.18445972020E+03  0.28289734204E+03  0.39037386406E+03  0.18800000000E+03 0.  0.
<mgrwt>
<rscale>  0 0.54348717E+03</rscale>
<asrwt>0</asrwt>
<pdfrwt beam="1">  1        2 0.84240631E-01 0.54348717E+03</pdfrwt>
<pdfrwt beam="2">  1       -2 0.17889611E-01 0.54348717E+03</pdfrwt>
<totfact> 0.14344022E+03</totfact>
</mgrwt>
</event>
<event>
 4    1  0.6165923E-005  0.6147494E+03  0.7818608E-02  0.9875270E-01
         -2   -1    0    0    0  501 -0.00000000000E+00  0.00000000000E+00  0.22777597499E+03  0.22777597501E+03  0.25500000000E-02 0. -1.
          2   -1    0    0  501    0  0.00000000000E+00 -0.00000000000E+00 -0.41479007025E+03  0.41479007026E+03  0.25500000000E-02 0.  1.
    5000001    1    1    2    0    0  0.38933563760E+02 -0.21807296285E+03  0.11349546778E+02  0.29076528632E+03  0.18800000000E+03 0.  0.
   -5000001    1    1    2    0    0 -0.38933563760E+02  0.21807296285E+03 -0.19836364204E+03  0.35180075895E+03  0.18800000000E+03 0.  0.
<mgrwt>
<rscale>  0 0.61474942E+03</rscale>
<asrwt>0</asrwt>
<pdfrwt beam="1">  1        2 0.59255724E-01 0.61474942E+03</pdfrwt>
<pdfrwt beam="2">  1       -2 0.32539425E-01 0.61474942E+03</pdfrwt>
<totfact> 0.73389007E+02</totfact>
</mgrwt>
</event>
<event>
 4    1  0.6165923E-005  0.7406415E+03  0.7818608E-02  0.9650148E-01
          2   -1    0    0  501    0  0.00000000000E+00  0.00000000000E+00  0.80769231274E+03  0.80769231275E+03  0.25500000000E-02 0.  1.
         -2   -1    0    0    0  501 -0.00000000000E+00 -0.00000000000E+00 -0.16978922621E+03  0.16978922623E+03  0.25500000000E-02 0. -1.
    5000001    1    1    2    0    0  0.27731174719E+03 -0.10781793768E+03  0.47096635687E+03  0.58794542444E+03  0.18800000000E+03 0.  0.
   -5000001    1    1    2    0    0 -0.27731174719E+03  0.10781793768E+03  0.16693672967E+03  0.38953611454E+03  0.18800000000E+03 0.  0.
<mgrwt>
<rscale>  0 0.74064149E+03</rscale>
<asrwt>0</asrwt>
<pdfrwt beam="1">  1        2 0.11538462E+00 0.74064149E+03</pdfrwt>
<pdfrwt beam="2">  1       -2 0.24255603E-01 0.74064149E+03</pdfrwt>
<totfact> 0.57018138E+02</totfact>
</mgrwt>
</event>
<event>
 4    1  0.6165923E-005  0.1099079E+04  0.7818608E-02  0.9206090E-01
         -2   -1    0    0    0  501 -0.00000000000E+00  0.00000000000E+00  0.16076994045E+03  0.16076994047E+03  0.25500000000E-02 0. -1.
          2   -1    0    0  501    0  0.00000000000E+00 -0.00000000000E+00 -0.18784214544E+04  0.18784214544E+04  0.25500000000E-02 0.  1.
    5000001    1    1    2    0    0 -0.15763946680E+03 -0.36691563274E+03 -0.14662198613E+04  0.15312158453E+04  0.18800000000E+03 0.  0.
   -5000001    1    1    2    0    0  0.15763946680E+03  0.36691563274E+03 -0.25143165260E+03  0.50797554958E+03  0.18800000000E+03 0.  0.
<mgrwt>
<rscale>  0 0.10990791E+04</rscale>
<asrwt>0</asrwt>
<pdfrwt beam="1">  1        2 0.26834591E+00 0.10990791E+04</pdfrwt>
<pdfrwt beam="2">  1       -2 0.22967135E-01 0.10990791E+04</pdfrwt>
<totfact> 0.15385617E+02</totfact>
</mgrwt>
</event>
<event>
 4    1  0.6165923E-005  0.4834017E+03  0.7818608E-02  0.1018204E+00
         -2   -1    0    0    0  501 -0.00000000000E+00  0.00000000000E+00  0.14519991653E+03  0.14519991655E+03  0.25500000000E-02 0. -1.
          2   -1    0    0  501    0  0.00000000000E+00 -0.00000000000E+00 -0.40233705306E+03  0.40233705307E+03  0.25500000000E-02 0.  1.
    5000001    1    1    2    0    0  0.10951725818E+03 -0.69317096035E+02 -0.21830341901E+03  0.31591022838E+03  0.18800000000E+03 0.  0.
   -5000001    1    1    2    0    0 -0.10951725818E+03  0.69317096035E+02 -0.38833717521E+02  0.23162674124E+03  0.18800000000E+03 0.  0.
<mgrwt>
<rscale>  0 0.48340172E+03</rscale>
<asrwt>0</asrwt>
<pdfrwt beam="1">  1        2 0.57476721E-01 0.48340172E+03</pdfrwt>
<pdfrwt beam="2">  1       -2 0.20742845E-01 0.48340172E+03</pdfrwt>
<totfact> 0.17110862E+03</totfact>
</mgrwt>
</event>
<event>
 4    1  0.6165923E-005  0.5328895E+03  0.7818608E-02  0.1005534E+00
         -2   -1    0    0    0  501 -0.00000000000E+00  0.00000000000E+00  0.19445309216E+02  0.19445309383E+02  0.25500000000E-02 0. -1.
          2   -1    0    0  501    0  0.00000000000E+00 -0.00000000000E+00 -0.36508957117E+04  0.36508957117E+04  0.25500000000E-02 0.  1.
    5000001    1    1    2    0    0  0.15345344863E+03  0.91139148637E+02 -0.22399988370E+04  0.22549485792E+04  0.18800000000E+03 0.  0.
   -5000001    1    1    2    0    0 -0.15345344863E+03 -0.91139148637E+02 -0.13914515656E+04  0.14153924419E+04  0.18800000000E+03 0.  0.
<mgrwt>
<rscale>  0 0.53288947E+03</rscale>
<asrwt>0</asrwt>
<pdfrwt beam="1">  1        2 0.52155609E+00 0.53288947E+03</pdfrwt>
<pdfrwt beam="2">  1       -2 0.27779037E-02 0.53288947E+03</pdfrwt>
<totfact> 0.54218516E+02</totfact>
</mgrwt>
</event>
<event>
 4    1  0.6165923E-005  0.7252153E+03  0.7818608E-02  0.9675057E-01
          2   -1    0    0  501    0  0.00000000000E+00  0.00000000000E+00  0.95228204207E+03  0.95228204208E+03  0.25500000000E-02 0.  1.
         -2   -1    0    0    0  501 -0.00000000000E+00 -0.00000000000E+00 -0.13807285170E+03  0.13807285173E+03  0.25500000000E-02 0. -1.
    5000001    1    1    2    0    0  0.56987050418E+02 -0.28815896585E+03  0.55637625480E+03  0.65664423428E+03  0.18800000000E+03 0.  0.
   -5000001    1    1    2    0    0 -0.56987050418E+02  0.28815896585E+03  0.25783293557E+03  0.43371065952E+03  0.18800000000E+03 0.  0.
<mgrwt>
<rscale>  0 0.72521527E+03</rscale>
<asrwt>0</asrwt>
<pdfrwt beam="1">  1        2 0.13604029E+00 0.72521527E+03</pdfrwt>
<pdfrwt beam="2">  1       -2 0.19724693E-01 0.72521527E+03</pdfrwt>
<totfact> 0.66029139E+02</totfact>
</mgrwt>
</event>
<event>
 4    1  0.6165923E-005  0.4795251E+03  0.7818608E-02  0.1019266E+00
          2   -1    0    0  501    0  0.00000000000E+00  0.00000000000E+00  0.76345373852E+03  0.76345373852E+03  0.25500000000E-02 0.  1.
         -2   -1    0    0    0  501 -0.00000000000E+00 -0.00000000000E+00 -0.75297384522E+02  0.75297384565E+02  0.25500000000E-02 0. -1.
    5000001    1    1    2    0    0  0.11626596230E+03  0.92837045264E+02  0.34820951823E+03  0.42276513521E+03  0.18800000000E+03 0.  0.
   -5000001    1    1    2    0    0 -0.11626596230E+03 -0.92837045264E+02  0.33994683576E+03  0.41598598787E+03  0.18800000000E+03 0.  0.
<mgrwt>
<rscale>  0 0.47952506E+03</rscale>
<asrwt>0</asrwt>
<pdfrwt beam="1">  1        2 0.10906481E+00 0.47952506E+03</pdfrwt>
<pdfrwt beam="2">  1       -2 0.10756770E-01 0.47952506E+03</pdfrwt>
<totfact> 0.24511235E+03</totfact>
</mgrwt>
</event>
<event>
 4    1  0.6165923E-005  0.5148243E+03  0.7818608E-02  0.1009980E+00
         -2   -1    0    0    0  501 -0.00000000000E+00  0.00000000000E+00  0.15845002719E+03  0.15845002721E+03  0.25500000000E-02 0. -1.
          2   -1    0    0  501    0  0.00000000000E+00 -0.00000000000E+00 -0.41818233628E+03  0.41818233628E+03  0.25500000000E-02 0.  1.
    5000001    1    1    2    0    0 -0.17593884541E+02 -0.16868052736E+03 -0.18185340929E+03  0.31173278229E+03  0.18800000000E+03 0.  0.
   -5000001    1    1    2    0    0  0.17593884541E+02  0.16868052736E+03 -0.77878899804E+02  0.26489958120E+03  0.18800000000E+03 0.  0.
<mgrwt>
<rscale>  0 0.51482425E+03</rscale>
<asrwt>0</asrwt>
<pdfrwt beam="1">  1        2 0.59740333E-01 0.51482425E+03</pdfrwt>
<pdfrwt beam="2">  1       -2 0.22635718E-01 0.51482425E+03</pdfrwt>
<totfact> 0.14070754E+03</totfact>
</mgrwt>
</event>
<event>
 4    1  0.6165923E-005  0.5187058E+03  0.7818608E-02  0.1009009E+00
          2   -1    0    0  501    0  0.00000000000E+00  0.00000000000E+00  0.55387327244E+03  0.55387327244E+03  0.25500000000E-02 0.  1.
         -2   -1    0    0    0  501 -0.00000000000E+00 -0.00000000000E+00 -0.12144282892E+03  0.12144282895E+03  0.25500000000E-02 0. -1.
    5000001    1    1    2    0    0 -0.16721793947E+03 -0.39255380855E+02  0.15220719593E+03  0.29667129065E+03  0.18800000000E+03 0.  0.
   -5000001    1    1    2    0    0  0.16721793947E+03  0.39255380855E+02  0.28022324759E+03  0.37864481073E+03  0.18800000000E+03 0.  0.
<mgrwt>
<rscale>  0 0.51870584E+03</rscale>
<asrwt>0</asrwt>
<pdfrwt beam="1">  1        2 0.79124752E-01 0.51870584E+03</pdfrwt>
<pdfrwt beam="2">  1       -2 0.17348976E-01 0.51870584E+03</pdfrwt>
<totfact> 0.16256271E+03</totfact>
</mgrwt>
</event>
<event>
 4    1  0.6165923E-005  0.7206573E+03  0.7818608E-02  0.9682543E-01
         -2   -1    0    0    0  501 -0.00000000000E+00  0.00000000000E+00  0.75938166012E+02  0.75938166055E+02  0.25500000000E-02 0. -1.
          2   -1    0    0  501    0  0.00000000000E+00 -0.00000000000E+00 -0.17097692765E+04  0.17097692765E+04  0.25500000000E-02 0.  1.
    5000001    1    1    2    0    0  0.95734979971E+02  0.26079465054E+03 -0.11429598004E+04  0.11911675539E+04  0.18800000000E+03 0.  0.
   -5000001    1    1    2    0    0 -0.95734979971E+02 -0.26079465054E+03 -0.49087131011E+03  0.59453988868E+03  0.18800000000E+03 0.  0.
<mgrwt>
<rscale>  0 0.72065732E+03</rscale>
<asrwt>0</asrwt>
<pdfrwt beam="1">  1        2 0.24425273E+00 0.72065732E+03</pdfrwt>
<pdfrwt beam="2">  1       -2 0.10848310E-01 0.72065732E+03</pdfrwt>
<totfact> 0.69150453E+02</totfact>
</mgrwt>
</event>
<event>
 4    1  0.6165923E-005  0.1370246E+04  0.7818608E-02  0.8975642E-01
          2   -1    0    0  501    0  0.00000000000E+00  0.00000000000E+00  0.26306758906E+04  0.26306758906E+04  0.25500000000E-02 0.  1.
         -2   -1    0    0    0  501 -0.00000000000E+00 -0.00000000000E+00 -0.17843080450E+03  0.17843080451E+03  0.25500000000E-02 0. -1.
    5000001    1    1    2    0    0  0.26050762402E+03  0.59140757303E+03  0.14888400215E+04  0.16338958808E+04  0.18800000000E+03 0.  0.
   -5000001    1    1    2    0    0 -0.26050762402E+03 -0.59140757303E+03  0.96340506459E+03  0.11752108143E+04  0.18800000000E+03 0.  0.
<mgrwt>
<rscale>  0 0.13702461E+04</rscale>
<asrwt>0</asrwt>
<pdfrwt beam="1">  1        2 0.37581084E+00 0.13702461E+04</pdfrwt>
<pdfrwt beam="2">  1       -2 0.25490115E-01 0.13702461E+04</pdfrwt>
<totfact> 0.50961429E+01</totfact>
</mgrwt>
</event>
<event>
 4    1  0.6165923E-005  0.4674147E+03  0.7818608E-02  0.1022652E+00
          2   -1    0    0  501    0  0.00000000000E+00  0.00000000000E+00  0.97401247145E+03  0.97401247146E+03  0.25500000000E-02 0.  1.
         -2   -1    0    0    0  501 -0.00000000000E+00 -0.00000000000E+00 -0.56076406471E+02  0.56076406529E+02  0.25500000000E-02 0. -1.
    5000001    1    1    2    0    0  0.30504614288E+02  0.13326966456E+03  0.40572061333E+03  0.46759443010E+03  0.18800000000E+03 0.  0.
   -5000001    1    1    2    0    0 -0.30504614288E+02 -0.13326966456E+03  0.51221545166E+03  0.56249444789E+03  0.18800000000E+03 0.  0.
<mgrwt>
<rscale>  0 0.46741467E+03</rscale>
<asrwt>0</asrwt>
<pdfrwt beam="1">  1        2 0.13914464E+00 0.46741467E+03</pdfrwt>
<pdfrwt beam="2">  1       -2 0.80109150E-02 0.46741467E+03</pdfrwt>
<totfact> 0.28602782E+03</totfact>
</mgrwt>
</event>
<event>
 4    1  0.6165923E-005  0.8328328E+03  0.7818608E-02  0.9513672E-01
          2   -1    0    0  501    0  0.00000000000E+00  0.00000000000E+00  0.33506445764E+03  0.33506445765E+03  0.25500000000E-02 0.  1.
         -2   -1    0    0    0  501 -0.00000000000E+00 -0.00000000000E+00 -0.51752023541E+03  0.51752023542E+03  0.25500000000E-02 0. -1.
    5000001    1    1    2    0    0  0.23869971446E+03  0.28328575646E+03 -0.12072555537E+03  0.43260493896E+03  0.18800000000E+03 0.  0.
   -5000001    1    1    2    0    0 -0.23869971446E+03 -0.28328575646E+03 -0.61730222405E+02  0.41997975410E+03  0.18800000000E+03 0.  0.
<mgrwt>
<rscale>  0 0.83283285E+03</rscale>
<asrwt>0</asrwt>
<pdfrwt beam="1">  1        2 0.47866351E-01 0.83283285E+03</pdfrwt>
<pdfrwt beam="2">  1       -2 0.73931462E-01 0.83283285E+03</pdfrwt>
<totfact> 0.17490054E+02</totfact>
</mgrwt>
</event>
<event>
 4    1  0.6165923E-005  0.4241055E+03  0.7818608E-02  0.1035738E+00
         -2   -1    0    0    0  501 -0.00000000000E+00  0.00000000000E+00  0.11102897963E+02  0.11102898256E+02  0.25500000000E-02 0. -1.
          2   -1    0    0  501    0  0.00000000000E+00 -0.00000000000E+00 -0.40499663686E+04  0.40499663686E+04  0.25500000000E-02 0.  1.
    5000001    1    1    2    0    0 -0.23226640748E+02 -0.94751570262E+02 -0.21175651845E+04  0.21281314921E+04  0.18800000000E+03 0.  0.
   -5000001    1    1    2    0    0  0.23226640748E+02  0.94751570262E+02 -0.19212982861E+04  0.19329377747E+04  0.18800000000E+03 0.  0.
<mgrwt>
<rscale>  0 0.42410548E+03</rscale>
<asrwt>0</asrwt>
<pdfrwt beam="1">  1        2 0.57856568E+00 0.42410548E+03</pdfrwt>
<pdfrwt beam="2">  1       -2 0.15861309E-02 0.42410548E+03</pdfrwt>
<totfact> 0.70840539E+02</totfact>
</mgrwt>
</event>
<event>
 4    1  0.6165923E-005  0.4169344E+03  0.7818608E-02  0.1038069E+00
         -2   -1    0    0    0  501 -0.00000000000E+00  0.00000000000E+00  0.14846662159E+02  0.14846662378E+02  0.25500000000E-02 0. -1.
          2   -1    0    0  501    0  0.00000000000E+00 -0.00000000000E+00 -0.29271612743E+04  0.29271612743E+04  0.25500000000E-02 0.  1.
    5000001    1    1    2    0    0 -0.18125279855E+02 -0.80947414918E+02 -0.17039891685E+04  0.17163344942E+04  0.18800000000E+03 0.  0.
   -5000001    1    1    2    0    0  0.18125279855E+02  0.80947414918E+02 -0.12083254437E+04  0.12256734425E+04  0.18800000000E+03 0.  0.
<mgrwt>
<rscale>  0 0.41693441E+03</rscale>
<asrwt>0</asrwt>
<pdfrwt beam="1">  1        2 0.41816553E+00 0.41693441E+03</pdfrwt>
<pdfrwt beam="2">  1       -2 0.21209536E-02 0.41693441E+03</pdfrwt>
<totfact> 0.21212003E+03</totfact>
</mgrwt>
</event>
<event>
 4    1  0.6165923E-005  0.5741257E+03  0.7818608E-02  0.9960590E-01
         -2   -1    0    0    0  501 -0.00000000000E+00  0.00000000000E+00  0.41766613569E+03  0.41766613570E+03  0.25500000000E-02 0. -1.
          2   -1    0    0  501    0  0.00000000000E+00 -0.00000000000E+00 -0.19729889760E+03  0.19729889761E+03  0.25500000000E-02 0.  1.
    5000001    1    1    2    0    0  0.97279520918E+02 -0.13562381399E+03 -0.38252189122E+02  0.25429186791E+03  0.18800000000E+03 0.  0.
   -5000001    1    1    2    0    0 -0.97279520918E+02  0.13562381399E+03  0.25861942722E+03  0.36067316541E+03  0.18800000000E+03 0.  0.
<mgrwt>
<rscale>  0 0.57412566E+03</rscale>
<asrwt>0</asrwt>
<pdfrwt beam="1">  1        2 0.28185556E-01 0.57412566E+03</pdfrwt>
<pdfrwt beam="2">  1       -2 0.59666592E-01 0.57412566E+03</pdfrwt>
<totfact> 0.50475267E+02</totfact>
</mgrwt>
</event>
<event>
 4    1  0.6165923E-005  0.6062782E+03  0.7818608E-02  0.9892466E-01
         -2   -1    0    0    0  501 -0.00000000000E+00  0.00000000000E+00  0.14039962909E+03  0.14039962911E+03  0.25500000000E-02 0.  1.
          2   -1    0    0  501    0  0.00000000000E+00 -0.00000000000E+00 -0.65451252504E+03  0.65451252505E+03  0.25500000000E-02 0. -1.
    5000001    1    1    2    0    0 -0.13060596228E+03 -0.93432403146E+02 -0.27096107662E+02  0.24872822596E+03  0.18800000000E+03 0.  0.
   -5000001    1    1    2    0    0  0.13060596228E+03  0.93432403146E+02 -0.48701678829E+03  0.54618392819E+03  0.18800000000E+03 0.  0.
<mgrwt>
<rscale>  0 0.60627821E+03</rscale>
<asrwt>0</asrwt>
<pdfrwt beam="1">  1        2 0.93501787E-01 0.60627821E+03</pdfrwt>
<pdfrwt beam="2">  1       -2 0.20057090E-01 0.60627821E+03</pdfrwt>
<totfact> 0.10398214E+03</totfact>
</mgrwt>
</event>
<event>
 4    1  0.6165923E-005  0.8476726E+03  0.7818608E-02  0.9493466E-01
          2   -1    0    0  501    0  0.00000000000E+00  0.00000000000E+00  0.13866419220E+04  0.13866419221E+04  0.25500000000E-02 0.  1.
         -2   -1    0    0    0  501 -0.00000000000E+00 -0.00000000000E+00 -0.12954837099E+03  0.12954837102E+03  0.25500000000E-02 0. -1.
    5000001    1    1    2    0    0  0.20803932386E+03  0.31760364363E+03  0.64976830565E+03  0.77569019959E+03  0.18800000000E+03 0.  0.
   -5000001    1    1    2    0    0 -0.20803932386E+03 -0.31760364363E+03  0.60732524541E+03  0.74050009347E+03  0.18800000000E+03 0.  0.
<mgrwt>
<rscale>  0 0.84767258E+03</rscale>
<asrwt>0</asrwt>
<pdfrwt beam="1">  1        2 0.19809169E+00 0.84767258E+03</pdfrwt>
<pdfrwt beam="2">  1       -2 0.18506911E-01 0.84767258E+03</pdfrwt>
<totfact> 0.41261885E+02</totfact>
</mgrwt>
</event>
<event>
 4    1  0.6165923E-005  0.4581888E+03  0.7818608E-02  0.1025308E+00
         -2   -1    0    0    0  501 -0.00000000000E+00  0.00000000000E+00  0.80058753516E+02  0.80058753557E+02  0.25500000000E-02 0. -1.
          2   -1    0    0  501    0  0.00000000000E+00 -0.00000000000E+00 -0.65557163890E+03  0.65557163891E+03  0.25500000000E-02 0.  1.
    5000001    1    1    2    0    0  0.91689179251E+02  0.93190384227E+02 -0.27652986869E+03  0.35903220132E+03  0.18800000000E+03 0.  0.
   -5000001    1    1    2    0    0 -0.91689179251E+02 -0.93190384227E+02 -0.29898301669E+03  0.37659819115E+03  0.18800000000E+03 0.  0.
<mgrwt>
<rscale>  0 0.45818882E+03</rscale>
<asrwt>0</asrwt>
<pdfrwt beam="1">  1        2 0.93653088E-01 0.45818882E+03</pdfrwt>
<pdfrwt beam="2">  1       -2 0.11436965E-01 0.45818882E+03</pdfrwt>
<totfact> 0.26698030E+03</totfact>
</mgrwt>
</event>
<event>
 4    1  0.6165923E-005  0.5118919E+03  0.7818608E-02  0.1010721E+00
          2   -1    0    0  501    0  0.00000000000E+00  0.00000000000E+00  0.24442160890E+03  0.24442160892E+03  0.25500000000E-02 0.  1.
         -2   -1    0    0    0  501 -0.00000000000E+00 -0.00000000000E+00 -0.26801369086E+03  0.26801369088E+03  0.25500000000E-02 0. -1.
    5000001    1    1    2    0    0  0.10694552945E+03  0.13546607654E+03  0.76135415676E+01  0.25532404935E+03  0.18800000000E+03 0.  0.
   -5000001    1    1    2    0    0 -0.10694552945E+03 -0.13546607654E+03 -0.31205623529E+02  0.25711125044E+03  0.18800000000E+03 0.  0.
<mgrwt>
<rscale>  0 0.51189193E+03</rscale>
<asrwt>0</asrwt>
<pdfrwt beam="1">  1        2 0.34917373E-01 0.51189193E+03</pdfrwt>
<pdfrwt beam="2">  1       -2 0.38287670E-01 0.51189193E+03</pdfrwt>
<totfact> 0.96794844E+02</totfact>
</mgrwt>
</event>
<event>
 4    1  0.6165923E-005  0.1174913E+04  0.7818608E-02  0.9135103E-01
          2   -1    0    0  501    0  0.00000000000E+00  0.00000000000E+00  0.24020155167E+04  0.24020155167E+04  0.25500000000E-02 0. -1.
         -2   -1    0    0    0  501 -0.00000000000E+00 -0.00000000000E+00 -0.14367326407E+03  0.14367326410E+03  0.25500000000E-02 0.  1.
    5000001    1    1    2    0    0  0.13551316471E+03  0.35580943399E+03  0.20087491996E+04  0.20531394297E+04  0.18800000000E+03 0.  0.
   -5000001    1    1    2    0    0 -0.13551316471E+03 -0.35580943399E+03  0.24959305309E+03  0.49254935111E+03  0.18800000000E+03 0.  0.
<mgrwt>
<rscale>  0 0.11749135E+04</rscale>
<asrwt>0</asrwt>
<pdfrwt beam="1">  1        2 0.34314504E+00 0.11749135E+04</pdfrwt>
<pdfrwt beam="2">  1       -2 0.20524754E-01 0.11749135E+04</pdfrwt>
<totfact> 0.10058709E+02</totfact>
</mgrwt>
</event>
<event>
 4    1  0.6165923E-005  0.4457811E+03  0.7818608E-02  0.1028988E+00
         -2   -1    0    0    0  501 -0.00000000000E+00  0.00000000000E+00  0.59048430891E+03  0.59048430891E+03  0.25500000000E-02 0. -1.
          2   -1    0    0  501    0  0.00000000000E+00 -0.00000000000E+00 -0.84134654934E+02  0.84134654973E+02  0.25500000000E-02 0.  1.
    5000001    1    1    2    0    0 -0.43359202745E+02  0.80176326469E+02  0.37067026452E+03  0.42549818894E+03  0.18800000000E+03 0.  0.
   -5000001    1    1    2    0    0  0.43359202745E+02 -0.80176326469E+02  0.13567938945E+03  0.24912077495E+03  0.18800000000E+03 0.  0.
<mgrwt>
<rscale>  0 0.44578108E+03</rscale>
<asrwt>0</asrwt>
<pdfrwt beam="1">  1        2 0.12019237E-01 0.44578108E+03</pdfrwt>
<pdfrwt beam="2">  1       -2 0.84354900E-01 0.44578108E+03</pdfrwt>
<totfact> 0.64999569E+02</totfact>
</mgrwt>
</event>
<event>
 4    1  0.6165923E-005  0.5322246E+03  0.7818608E-02  0.1005694E+00
          2   -1    0    0  501    0  0.00000000000E+00  0.00000000000E+00  0.19010086469E+04  0.19010086469E+04  0.25500000000E-02 0. -1.
         -2   -1    0    0    0  501 -0.00000000000E+00 -0.00000000000E+00 -0.37251670358E+02  0.37251670446E+02  0.25500000000E-02 0.  1.
    5000001    1    1    2    0    0 -0.13451721093E+03 -0.13005562407E+03  0.85356670487E+03  0.89382854343E+03  0.18800000000E+03 0.  0.
   -5000001    1    1    2    0    0  0.13451721093E+03  0.13005562407E+03  0.10101902717E+04  0.10444317739E+04  0.18800000000E+03 0.  0.
<mgrwt>
<rscale>  0 0.53222457E+03</rscale>
<asrwt>0</asrwt>
<pdfrwt beam="1">  1        2 0.27157267E+00 0.53222457E+03</pdfrwt>
<pdfrwt beam="2">  1       -2 0.53216671E-02 0.53222457E+03</pdfrwt>
<totfact> 0.17350074E+03</totfact>
</mgrwt>
</event>
<event>
 4    1  0.6165923E-005  0.5946674E+03  0.7818608E-02  0.9916532E-01
         -2   -1    0    0    0  501 -0.00000000000E+00  0.00000000000E+00  0.48718833473E+02  0.48718833539E+02  0.25500000000E-02 0. -1.
          2   -1    0    0  501    0  0.00000000000E+00 -0.00000000000E+00 -0.18146437160E+04  0.18146437160E+04  0.25500000000E-02 0.  1.
    5000001    1    1    2    0    0  0.21845949809E+03  0.49367969491E+02 -0.10517499270E+04  0.10916426419E+04  0.18800000000E+03 0.  0.
   -5000001    1    1    2    0    0 -0.21845949809E+03 -0.49367969491E+02 -0.71417495556E+03  0.77171990765E+03  0.18800000000E+03 0.  0.
<mgrwt>
<rscale>  0 0.59466739E+03</rscale>
<asrwt>0</asrwt>
<pdfrwt beam="1">  1        2 0.25923477E+00 0.59466739E+03</pdfrwt>
<pdfrwt beam="2">  1       -2 0.69598345E-02 0.59466739E+03</pdfrwt>
<totfact> 0.12562003E+03</totfact>
</mgrwt>
</event>
<event>
 4    1  0.6165923E-005  0.6980631E+03  0.7818608E-02  0.9720550E-01
         -2   -1    0    0    0  501 -0.00000000000E+00  0.00000000000E+00  0.16255379477E+03  0.16255379479E+03  0.25500000000E-02 0. -1.
          2   -1    0    0  501    0  0.00000000000E+00 -0.00000000000E+00 -0.74943202960E+03  0.74943202961E+03  0.25500000000E-02 0.  1.
    5000001    1    1    2    0    0 -0.19478589826E+03 -0.19584742803E+03 -0.16161521738E+03  0.37116201276E+03  0.18800000000E+03 0.  0.
   -5000001    1    1    2    0    0  0.19478589826E+03  0.19584742803E+03 -0.42526301745E+03  0.54082381164E+03  0.18800000000E+03 0.  0.
<mgrwt>
<rscale>  0 0.69806309E+03</rscale>
<asrwt>0</asrwt>
<pdfrwt beam="1">  1        2 0.10706172E+00 0.69806309E+03</pdfrwt>
<pdfrwt beam="2">  1       -2 0.23221971E-01 0.69806309E+03</pdfrwt>
<totfact> 0.67884518E+02</totfact>
</mgrwt>
</event>
<event>
 4    1  0.6165923E-005  0.7528435E+03  0.7818608E-02  0.9630900E-01
          2   -1    0    0  501    0  0.00000000000E+00  0.00000000000E+00  0.56758802280E+03  0.56758802281E+03  0.25500000000E-02 0.  1.
         -2   -1    0    0    0  501 -0.00000000000E+00 -0.00000000000E+00 -0.24964115737E+03  0.24964115738E+03  0.25500000000E-02 0. -1.
    5000001    1    1    2    0    0  0.25590046551E+03  0.19669645433E+03  0.10835046725E+03  0.38891948671E+03  0.18800000000E+03 0.  0.
   -5000001    1    1    2    0    0 -0.25590046551E+03 -0.19669645433E+03  0.20959639819E+03  0.42830969347E+03  0.18800000000E+03 0.  0.
<mgrwt>
<rscale>  0 0.75284349E+03</rscale>
<asrwt>0</asrwt>
<pdfrwt beam="1">  1        2 0.81084002E-01 0.75284349E+03</pdfrwt>
<pdfrwt beam="2">  1       -2 0.35663023E-01 0.75284349E+03</pdfrwt>
<totfact> 0.43031670E+02</totfact>
</mgrwt>
</event>
<event>
 4    1  0.6165923E-005  0.5374301E+03  0.7818608E-02  0.1004446E+00
          2   -1    0    0  501    0  0.00000000000E+00  0.00000000000E+00  0.19668404804E+04  0.19668404804E+04  0.25500000000E-02 0.  1.
         -2   -1    0    0    0  501 -0.00000000000E+00 -0.00000000000E+00 -0.36712580241E+02  0.36712580329E+02  0.25500000000E-02 0. -1.
    5000001    1    1    2    0    0 -0.14376268567E+03 -0.65094324959E+02  0.13727471150E+04  0.13945191367E+04  0.18800000000E+03 0.  0.
   -5000001    1    1    2    0    0  0.14376268567E+03  0.65094324959E+02  0.55738078515E+03  0.60903392400E+03  0.18800000000E+03 0.  0.
<mgrwt>
<rscale>  0 0.53743014E+03</rscale>
<asrwt>0</asrwt>
<pdfrwt beam="1">  1        2 0.28097731E+00 0.53743014E+03</pdfrwt>
<pdfrwt beam="2">  1       -2 0.52446524E-02 0.53743014E+03</pdfrwt>
<totfact> 0.16446507E+03</totfact>
</mgrwt>
</event>
<event>
 4    1  0.6165923E-005  0.5699678E+03  0.7818608E-02  0.9969750E-01
          2   -1    0    0  501    0  0.00000000000E+00  0.00000000000E+00  0.66310813513E+03  0.66310813513E+03  0.25500000000E-02 0.  1.
         -2   -1    0    0    0  501 -0.00000000000E+00 -0.00000000000E+00 -0.12247749835E+03  0.12247749837E+03  0.25500000000E-02 0. -1.
    5000001    1    1    2    0    0 -0.62540141636E+02  0.17848711508E+03  0.13177813271E+03  0.29745318258E+03  0.18800000000E+03 0.  0.
   -5000001    1    1    2    0    0  0.62540141636E+02 -0.17848711508E+03  0.40885250407E+03  0.48813245093E+03  0.18800000000E+03 0.  0.
<mgrwt>
<rscale>  0 0.56996781E+03</rscale>
<asrwt>0</asrwt>
<pdfrwt beam="1">  1        2 0.94729733E-01 0.56996781E+03</pdfrwt>
<pdfrwt beam="2">  1       -2 0.17496786E-01 0.56996781E+03</pdfrwt>
<totfact> 0.12963371E+03</totfact>
</mgrwt>
</event>
<event>
 4    1  0.6165923E-005  0.1035177E+04  0.7818608E-02  0.9270783E-01
          2   -1    0    0  501    0  0.00000000000E+00  0.00000000000E+00  0.24819274966E+03  0.24819274968E+03  0.25500000000E-02 0.  1.
         -2   -1    0    0    0  501 -0.00000000000E+00 -0.00000000000E+00 -0.10793940028E+04  0.10793940028E+04  0.25500000000E-02 0. -1.
    5000001    1    1    2    0    0  0.27872437115E+03 -0.38181017973E+03 -0.29334466833E+03  0.58724899563E+03  0.18800000000E+03 0.  0.
   -5000001    1    1    2    0    0 -0.27872437115E+03  0.38181017973E+03 -0.53785658484E+03  0.74033775689E+03  0.18800000000E+03 0.  0.
<mgrwt>
<rscale>  0 0.10351768E+04</rscale>
<asrwt>0</asrwt>
<pdfrwt beam="1">  1        2 0.35456108E-01 0.10351768E+04</pdfrwt>
<pdfrwt beam="2">  1       -2 0.15419914E+00 0.10351768E+04</pdfrwt>
<totfact> 0.40888019E+01</totfact>
</mgrwt>
</event>
<event>
 4    1  0.6165923E-005  0.4948696E+03  0.7818608E-02  0.1015127E+00
         -2   -1    0    0    0  501 -0.00000000000E+00  0.00000000000E+00  0.15542963259E+03  0.15542963261E+03  0.25500000000E-02 0. -1.
          2   -1    0    0  501    0  0.00000000000E+00 -0.00000000000E+00 -0.39390153470E+03  0.39390153471E+03  0.25500000000E-02 0.  1.
    5000001    1    1    2    0    0  0.52292692910E+02  0.87725852930E+02  0.18739682297E+02  0.21476854215E+03  0.18800000000E+03 0.  0.
   -5000001    1    1    2    0    0 -0.52292692910E+02 -0.87725852930E+02 -0.25721158441E+03  0.33456262517E+03  0.18800000000E+03 0.  0.
<mgrwt>
<rscale>  0 0.49486956E+03</rscale>
<asrwt>0</asrwt>
<pdfrwt beam="1">  1        2 0.56271648E-01 0.49486956E+03</pdfrwt>
<pdfrwt beam="2">  1       -2 0.22204233E-01 0.49486956E+03</pdfrwt>
<totfact> 0.15550685E+03</totfact>
</mgrwt>
</event>
<event>
 4    1  0.6165923E-005  0.5393607E+03  0.7818608E-02  0.1003987E+00
          2   -1    0    0  501    0  0.00000000000E+00  0.00000000000E+00  0.15948673895E+04  0.15948673895E+04  0.25500000000E-02 0.  1.
         -2   -1    0    0    0  501 -0.00000000000E+00 -0.00000000000E+00 -0.45600967184E+02  0.45600967255E+02  0.25500000000E-02 0. -1.
    5000001    1    1    2    0    0 -0.70015548484E+02  0.16305724992E+03  0.10081299297E+04  0.10407496332E+04  0.18800000000E+03 0.  0.
   -5000001    1    1    2    0    0  0.70015548484E+02 -0.16305724992E+03  0.54113649259E+03  0.59971872356E+03  0.18800000000E+03 0.  0.
<mgrwt>
<rscale>  0 0.53936072E+03</rscale>
<asrwt>0</asrwt>
<pdfrwt beam="1">  1        2 0.22783820E+00 0.53936072E+03</pdfrwt>
<pdfrwt beam="2">  1       -2 0.65144237E-02 0.53936072E+03</pdfrwt>
<totfact> 0.18064068E+03</totfact>
</mgrwt>
</event>
<event>
 4    1  0.6165923E-005  0.4249190E+03  0.7818608E-02  0.1035477E+00
          2   -1    0    0  501    0  0.00000000000E+00  0.00000000000E+00  0.13009547172E+04  0.13009547172E+04  0.25500000000E-02 0.  1.
         -2   -1    0    0    0  501 -0.00000000000E+00 -0.00000000000E+00 -0.34696851246E+02  0.34696851340E+02  0.25500000000E-02 0. -1.
    5000001    1    1    2    0    0  0.97313333581E+01  0.97353382700E+02  0.58622591981E+03  0.62335961453E+03  0.18800000000E+03 0.  0.
   -5000001    1    1    2    0    0 -0.97313333581E+01 -0.97353382700E+02  0.68003194615E+03  0.71229195402E+03  0.18800000000E+03 0.  0.
<mgrwt>
<rscale>  0 0.42491897E+03</rscale>
<asrwt>0</asrwt>
<pdfrwt beam="1">  1        2 0.18585069E+00 0.42491897E+03</pdfrwt>
<pdfrwt beam="2">  1       -2 0.49566925E-02 0.42491897E+03</pdfrwt>
<totfact> 0.39391221E+03</totfact>
</mgrwt>
</event>
<event>
 4    1  0.6165923E-005  0.5876664E+03  0.7818608E-02  0.9931330E-01
         -2   -1    0    0    0  501 -0.00000000000E+00  0.00000000000E+00  0.47456703804E+02  0.47456703872E+02  0.25500000000E-02 0. -1.
          2   -1    0    0  501    0  0.00000000000E+00 -0.00000000000E+00 -0.18192992741E+04  0.18192992741E+04  0.25500000000E-02 0.  1.
    5000001    1    1    2    0    0 -0.16729895862E+03  0.14651909790E+03 -0.10104633686E+04  0.10515878503E+04  0.18800000000E+03 0.  0.
   -5000001    1    1    2    0    0  0.16729895862E+03 -0.14651909790E+03 -0.76137920166E+03  0.81516812764E+03  0.18800000000E+03 0.  0.
<mgrwt>
<rscale>  0 0.58766639E+03</rscale>
<asrwt>0</asrwt>
<pdfrwt beam="1">  1        2 0.25989985E+00 0.58766639E+03</pdfrwt>
<pdfrwt beam="2">  1       -2 0.67795303E-02 0.58766639E+03</pdfrwt>
<totfact> 0.13026902E+03</totfact>
</mgrwt>
</event>
<event>
 4    1  0.6165923E-005  0.5174096E+03  0.7818608E-02  0.1009332E+00
         -2   -1    0    0    0  501 -0.00000000000E+00  0.00000000000E+00  0.55879222853E+03  0.55879222853E+03  0.25500000000E-02 0. -1.
          2   -1    0    0  501    0  0.00000000000E+00 -0.00000000000E+00 -0.11977292986E+03  0.11977292989E+03  0.25500000000E-02 0.  1.
    5000001    1    1    2    0    0 -0.60271436786E+02 -0.16585120534E+03  0.19184691643E+03  0.32138529485E+03  0.18800000000E+03 0.  0.
   -5000001    1    1    2    0    0  0.60271436786E+02  0.16585120534E+03  0.24717238223E+03  0.35717986357E+03  0.18800000000E+03 0.  0.
<mgrwt>
<rscale>  0 0.51740963E+03</rscale>
<asrwt>0</asrwt>
<pdfrwt beam="1">  1        2 0.17110418E-01 0.51740963E+03</pdfrwt>
<pdfrwt beam="2">  1       -2 0.79827463E-01 0.51740963E+03</pdfrwt>
<totfact> 0.47937626E+02</totfact>
</mgrwt>
</event>
<event>
 4    1  0.6165923E-005  0.5439727E+03  0.7818608E-02  0.1002899E+00
         -2   -1    0    0    0  501 -0.00000000000E+00  0.00000000000E+00  0.60510107679E+02  0.60510107733E+02  0.25500000000E-02 0. -1.
          2   -1    0    0  501    0  0.00000000000E+00 -0.00000000000E+00 -0.12225488494E+04  0.12225488494E+04  0.25500000000E-02 0.  1.
    5000001    1    1    2    0    0 -0.23122953488E+02  0.14181597691E+03 -0.89734784764E+03  0.92802133701E+03  0.18800000000E+03 0.  0.
   -5000001    1    1    2    0    0  0.23122953488E+02 -0.14181597691E+03 -0.26469089403E+03  0.35503762007E+03  0.18800000000E+03 0.  0.
<mgrwt>
<rscale>  0 0.54397266E+03</rscale>
<asrwt>0</asrwt>
<pdfrwt beam="1">  1        2 0.17464982E+00 0.54397266E+03</pdfrwt>
<pdfrwt beam="2">  1       -2 0.86443018E-02 0.54397266E+03</pdfrwt>
<totfact> 0.18173571E+03</totfact>
</mgrwt>
</event>
<event>
 4    1  0.6165923E-005  0.6342511E+03  0.7818608E-02  0.9836788E-01
         -2   -1    0    0    0  501 -0.00000000000E+00  0.00000000000E+00  0.66592776164E+03  0.66592776164E+03  0.25500000000E-02 0. -1.
          2   -1    0    0  501    0  0.00000000000E+00 -0.00000000000E+00 -0.15102032317E+03  0.15102032319E+03  0.25500000000E-02 0.  1.
    5000001    1    1    2    0    0  0.15122960405E+03  0.20535153106E+03  0.23993520970E+03  0.39743244621E+03  0.18800000000E+03 0.  0.
   -5000001    1    1    2    0    0 -0.15122960405E+03 -0.20535153106E+03  0.27497222877E+03  0.41951563862E+03  0.18800000000E+03 0.  0.
<mgrwt>
<rscale>  0 0.63425114E+03</rscale>
<asrwt>0</asrwt>
<pdfrwt beam="1">  1        2 0.21574332E-01 0.63425114E+03</pdfrwt>
<pdfrwt beam="2">  1       -2 0.95132538E-01 0.63425114E+03</pdfrwt>
<totfact> 0.24418003E+02</totfact>
</mgrwt>
</event>
<event>
 4    1  0.6165923E-005  0.7430774E+03  0.7818608E-02  0.9646274E-01
         -2   -1    0    0    0  501 -0.00000000000E+00  0.00000000000E+00  0.34214315475E+02  0.34214315570E+02  0.25500000000E-02 0. -1.
          2   -1    0    0  501    0  0.00000000000E+00 -0.00000000000E+00 -0.40345978706E+04  0.40345978706E+04  0.25500000000E-02 0.  1.
    5000001    1    1    2    0    0 -0.27798078195E+03 -0.51064070077E+02 -0.28272855972E+04  0.28475899815E+04  0.18800000000E+03 0.  0.
   -5000001    1    1    2    0    0  0.27798078195E+03  0.51064070077E+02 -0.11730979579E+04  0.12212222047E+04  0.18800000000E+03 0.  0.
<mgrwt>
<rscale>  0 0.74307740E+03</rscale>
<asrwt>0</asrwt>
<pdfrwt beam="1">  1        2 0.57637082E+00 0.74307740E+03</pdfrwt>
<pdfrwt beam="2">  1       -2 0.48877619E-02 0.74307740E+03</pdfrwt>
<totfact> 0.12562329E+02</totfact>
</mgrwt>
</event>
<event>
 4    1  0.6165923E-005  0.7846983E+03  0.7818608E-02  0.9582434E-01
          2   -1    0    0  501    0  0.00000000000E+00  0.00000000000E+00  0.16906010037E+04  0.16906010037E+04  0.25500000000E-02 0.  1.
         -2   -1    0    0    0  501 -0.00000000000E+00 -0.00000000000E+00 -0.91055098559E+02  0.91055098595E+02  0.25500000000E-02 0. -1.
    5000001    1    1    2    0    0  0.27189003996E+03 -0.16195235307E+03  0.49144393836E+03  0.61401457886E+03  0.18800000000E+03 0.  0.
   -5000001    1    1    2    0    0 -0.27189003996E+03  0.16195235307E+03  0.11081019668E+04  0.11676415235E+04  0.18800000000E+03 0.  0.
<mgrwt>
<rscale>  0 0.78469826E+03</rscale>
<asrwt>0</asrwt>
<pdfrwt beam="1">  1        2 0.24151442E+00 0.78469826E+03</pdfrwt>
<pdfrwt beam="2">  1       -2 0.13007872E-01 0.78469826E+03</pdfrwt>
<totfact> 0.52222940E+02</totfact>
</mgrwt>
</event>
<event>
 4    1  0.6165923E-005  0.5380508E+03  0.7818608E-02  0.1004298E+00
         -2   -1    0    0    0  501 -0.00000000000E+00  0.00000000000E+00  0.22959789909E+03  0.22959789911E+03  0.25500000000E-02 0. -1.
          2   -1    0    0  501    0  0.00000000000E+00 -0.00000000000E+00 -0.31522359023E+03  0.31522359024E+03  0.25500000000E-02 0.  1.
    5000001    1    1    2    0    0  0.12645834206E+03  0.14039274394E+03 -0.79724808830E+02  0.27821193355E+03  0.18800000000E+03 0.  0.
   -5000001    1    1    2    0    0 -0.12645834206E+03 -0.14039274394E+03 -0.59008823049E+01  0.26660955579E+03  0.18800000000E+03 0.  0.
<mgrwt>
<rscale>  0 0.53805083E+03</rscale>
<asrwt>0</asrwt>
<pdfrwt beam="1">  1        2 0.45031941E-01 0.53805083E+03</pdfrwt>
<pdfrwt beam="2">  1       -2 0.32799700E-01 0.53805083E+03</pdfrwt>
<totfact> 0.98019397E+02</totfact>
</mgrwt>
</event>
<event>
 4    1  0.6165923E-005  0.6372955E+03  0.7818608E-02  0.9830915E-01
          2   -1    0    0  501    0  0.00000000000E+00  0.00000000000E+00  0.12892649034E+03  0.12892649036E+03  0.25500000000E-02 0.  1.
         -2   -1    0    0    0  501 -0.00000000000E+00 -0.00000000000E+00 -0.78755257960E+03  0.78755257960E+03  0.25500000000E-02 0. -1.
    5000001    1    1    2    0    0 -0.68924279254E+02 -0.20034844327E+03 -0.11942132684E+03  0.30740121714E+03  0.18800000000E+03 0.  0.
   -5000001    1    1    2    0    0  0.68924279254E+02  0.20034844327E+03 -0.53920476242E+03  0.60907785283E+03  0.18800000000E+03 0.  0.
<mgrwt>
<rscale>  0 0.63729550E+03</rscale>
<asrwt>0</asrwt>
<pdfrwt beam="1">  1        2 0.18418070E-01 0.63729550E+03</pdfrwt>
<pdfrwt beam="2">  1       -2 0.11250751E+00 0.63729550E+03</pdfrwt>
<totfact> 0.19718580E+02</totfact>
</mgrwt>
</event>
<event>
 4    1  0.6165923E-005  0.6235421E+03  0.7818608E-02  0.9857733E-01
         -2   -1    0    0    0  501 -0.00000000000E+00  0.00000000000E+00  0.11571001326E+03  0.11571001329E+03  0.25500000000E-02 0. -1.
          2   -1    0    0  501    0  0.00000000000E+00 -0.00000000000E+00 -0.84004122444E+03  0.84004122445E+03  0.25500000000E-02 0.  1.
    5000001    1    1    2    0    0 -0.21853052211E+03 -0.11874975359E+03 -0.36171048852E+03  0.47753070119E+03  0.18800000000E+03 0.  0.
   -5000001    1    1    2    0    0  0.21853052211E+03  0.11874975359E+03 -0.36262072266E+03  0.47822053655E+03  0.18800000000E+03 0.  0.
<mgrwt>
<rscale>  0 0.62354208E+03</rscale>
<asrwt>0</asrwt>
<pdfrwt beam="1">  1        2 0.12000589E+00 0.62354208E+03</pdfrwt>
<pdfrwt beam="2">  1       -2 0.16530002E-01 0.62354208E+03</pdfrwt>
<totfact> 0.10620991E+03</totfact>
</mgrwt>
</event>
<event>
 4    1  0.6165923E-005  0.4036979E+03  0.7818608E-02  0.1042507E+00
         -2   -1    0    0    0  501 -0.00000000000E+00  0.00000000000E+00  0.86383192545E+02  0.86383192582E+02  0.25500000000E-02 0. -1.
          2   -1    0    0  501    0  0.00000000000E+00 -0.00000000000E+00 -0.47165430231E+03  0.47165430232E+03  0.25500000000E-02 0.  1.
    5000001    1    1    2    0    0  0.45672036028E+02 -0.57411615467E+02 -0.18694015786E+03  0.27508662469E+03  0.18800000000E+03 0.  0.
   -5000001    1    1    2    0    0 -0.45672036028E+02  0.57411615467E+02 -0.19833095191E+03  0.28295087021E+03  0.18800000000E+03 0.  0.
<mgrwt>
<rscale>  0 0.40369793E+03</rscale>
<asrwt>0</asrwt>
<pdfrwt beam="1">  1        2 0.67379184E-01 0.40369793E+03</pdfrwt>
<pdfrwt beam="2">  1       -2 0.12340456E-01 0.40369793E+03</pdfrwt>
<totfact> 0.34352515E+03</totfact>
</mgrwt>
</event>
<event>
 4    1  0.6165923E-005  0.4476334E+03  0.7818608E-02  0.1028430E+00
          2   -1    0    0  501    0  0.00000000000E+00  0.00000000000E+00  0.15330362622E+04  0.15330362622E+04  0.25500000000E-02 0.  1.
         -2   -1    0    0    0  501 -0.00000000000E+00 -0.00000000000E+00 -0.32676271092E+02  0.32676271191E+02  0.25500000000E-02 0. -1.
    5000001    1    1    2    0    0  0.73295001438E+02 -0.80503351695E+02  0.56191874023E+03  0.60245300023E+03  0.18800000000E+03 0.  0.
   -5000001    1    1    2    0    0 -0.73295001438E+02  0.80503351695E+02  0.93844125086E+03  0.96325953314E+03  0.18800000000E+03 0.  0.
<mgrwt>
<rscale>  0 0.44763337E+03</rscale>
<asrwt>0</asrwt>
<pdfrwt beam="1">  1        2 0.21900518E+00 0.44763337E+03</pdfrwt>
<pdfrwt beam="2">  1       -2 0.46680387E-02 0.44763337E+03</pdfrwt>
<totfact> 0.32656707E+03</totfact>
</mgrwt>
</event>
<event>
 4    1  0.6165923E-005  0.6576794E+03  0.7818608E-02  0.9792475E-01
          2   -1    0    0  501    0  0.00000000000E+00  0.00000000000E+00  0.12156442810E+04  0.12156442810E+04  0.25500000000E-02 0.  1.
         -2   -1    0    0    0  501 -0.00000000000E+00 -0.00000000000E+00 -0.88953277344E+02  0.88953277381E+02  0.25500000000E-02 0. -1.
    5000001    1    1    2    0    0 -0.13960744857E+03 -0.18003617345E+03  0.27665476038E+03  0.40470374335E+03  0.18800000000E+03 0.  0.
   -5000001    1    1    2    0    0  0.13960744857E+03  0.18003617345E+03  0.85003624329E+03  0.89989381504E+03  0.18800000000E+03 0.  0.
<mgrwt>
<rscale>  0 0.65767938E+03</rscale>
<asrwt>0</asrwt>
<pdfrwt beam="1">  1        2 0.17366346E+00 0.65767938E+03</pdfrwt>
<pdfrwt beam="2">  1       -2 0.12707611E-01 0.65767938E+03</pdfrwt>
<totfact> 0.97640349E+02</totfact>
</mgrwt>
</event>
<event>
 4    1  0.6165923E-005  0.6195790E+03  0.7818608E-02  0.9865598E-01
         -2   -1    0    0    0  501 -0.00000000000E+00  0.00000000000E+00  0.20490007812E+03  0.20490007814E+03  0.25500000000E-02 0. -1.
          2   -1    0    0  501    0  0.00000000000E+00 -0.00000000000E+00 -0.46837230073E+03  0.46837230073E+03  0.25500000000E-02 0.  1.
    5000001    1    1    2    0    0  0.23396760159E+03 -0.73609764132E+02 -0.10827114772E+03  0.32745362633E+03  0.18800000000E+03 0.  0.
   -5000001    1    1    2    0    0 -0.23396760159E+03  0.73609764132E+02 -0.15520107488E+03  0.34581875255E+03  0.18800000000E+03 0.  0.
<mgrwt>
<rscale>  0 0.61957896E+03</rscale>
<asrwt>0</asrwt>
<pdfrwt beam="1">  1        2 0.66910328E-01 0.61957896E+03</pdfrwt>
<pdfrwt beam="2">  1       -2 0.29271440E-01 0.61957896E+03</pdfrwt>
<totfact> 0.77942992E+02</totfact>
</mgrwt>
</event>
<event>
 4    1  0.6165923E-005  0.5891431E+03  0.7818608E-02  0.9928190E-01
         -2   -1    0    0    0  501 -0.00000000000E+00  0.00000000000E+00  0.69851725202E+02  0.69851725249E+02  0.25500000000E-02 0. -1.
          2   -1    0    0  501    0  0.00000000000E+00 -0.00000000000E+00 -0.12422371838E+04  0.12422371838E+04  0.25500000000E-02 0.  1.
    5000001    1    1    2    0    0  0.14864846386E+03  0.16135184177E+03 -0.45830076594E+03  0.54176966943E+03  0.18800000000E+03 0.  0.
   -5000001    1    1    2    0    0 -0.14864846386E+03 -0.16135184177E+03 -0.71408469269E+03  0.77031923965E+03  0.18800000000E+03 0.  0.
<mgrwt>
<rscale>  0 0.58914314E+03</rscale>
<asrwt>0</asrwt>
<pdfrwt beam="1">  1        2 0.17746244E+00 0.58914314E+03</pdfrwt>
<pdfrwt beam="2">  1       -2 0.99788186E-02 0.58914314E+03</pdfrwt>
<totfact> 0.14052644E+03</totfact>
</mgrwt>
</event>
<event>
 4    1  0.6165923E-005  0.5354179E+03  0.7818608E-02  0.1004927E+00
          2   -1    0    0  501    0  0.00000000000E+00  0.00000000000E+00  0.32163812384E+04  0.32163812384E+04  0.25500000000E-02 0.  1.
         -2   -1    0    0    0  501 -0.00000000000E+00 -0.00000000000E+00 -0.22282206294E+02  0.22282206440E+02  0.25500000000E-02 0. -1.
    5000001    1    1    2    0    0  0.72963579411E+02  0.11760449731E+03  0.23896469497E+04  0.24010229165E+04  0.18800000000E+03 0.  0.
   -5000001    1    1    2    0    0 -0.72963579411E+02 -0.11760449731E+03  0.80445208240E+03  0.83764052826E+03  0.18800000000E+03 0.  0.
<mgrwt>
<rscale>  0 0.53541786E+03</rscale>
<asrwt>0</asrwt>
<pdfrwt beam="1">  1        2 0.45948326E+00 0.53541786E+03</pdfrwt>
<pdfrwt beam="2">  1       -2 0.31831708E-02 0.53541786E+03</pdfrwt>
<totfact> 0.79146108E+02</totfact>
</mgrwt>
</event>
<event>
 4    1  0.6165923E-005  0.4814499E+03  0.7818608E-02  0.1018737E+00
          2   -1    0    0  501    0  0.00000000000E+00  0.00000000000E+00  0.10571346281E+04  0.10571346281E+04  0.25500000000E-02 0.  1.
         -2   -1    0    0    0  501 -0.00000000000E+00 -0.00000000000E+00 -0.54816566698E+02  0.54816566757E+02  0.25500000000E-02 0. -1.
    5000001    1    1    2    0    0  0.58388647175E+02  0.13354173980E+03  0.58639069657E+03  0.63280382379E+03  0.18800000000E+03 0.  0.
   -5000001    1    1    2    0    0 -0.58388647175E+02 -0.13354173980E+03  0.41592736487E+03  0.47914737111E+03  0.18800000000E+03 0.  0.
<mgrwt>
<rscale>  0 0.48144986E+03</rscale>
<asrwt>0</asrwt>
<pdfrwt beam="1">  1        2 0.15101923E+00 0.48144986E+03</pdfrwt>
<pdfrwt beam="2">  1       -2 0.78309385E-02 0.48144986E+03</pdfrwt>
<totfact> 0.26438773E+03</totfact>
</mgrwt>
</event>
<event>
 4    1  0.6165923E-005  0.4993555E+03  0.7818608E-02  0.1013947E+00
         -2   -1    0    0    0  501 -0.00000000000E+00  0.00000000000E+00  0.15272432184E+03  0.15272432186E+03  0.25500000000E-02 0. -1.
          2   -1    0    0  501    0  0.00000000000E+00 -0.00000000000E+00 -0.40817973278E+03  0.40817973279E+03  0.25500000000E-02 0.  1.
    5000001    1    1    2    0    0  0.91544679299E+02 -0.13024343486E+03 -0.82084347899E+02  0.25966443885E+03  0.18800000000E+03 0.  0.
   -5000001    1    1    2    0    0 -0.91544679299E+02  0.13024343486E+03 -0.17337106304E+03  0.30123961581E+03  0.18800000000E+03 0.  0.
<mgrwt>
<rscale>  0 0.49935548E+03</rscale>
<asrwt>0</asrwt>
<pdfrwt beam="1">  1        2 0.58311390E-01 0.49935548E+03</pdfrwt>
<pdfrwt beam="2">  1       -2 0.21817760E-01 0.49935548E+03</pdfrwt>
<totfact> 0.15419272E+03</totfact>
</mgrwt>
</event>
<event>
 4    1  0.6165923E-005  0.4938184E+03  0.7818608E-02  0.1015405E+00
          2   -1    0    0  501    0  0.00000000000E+00  0.00000000000E+00  0.22885371864E+04  0.22885371864E+04  0.25500000000E-02 0.  1.
         -2   -1    0    0    0  501 -0.00000000000E+00 -0.00000000000E+00 -0.26638917870E+02  0.26638917992E+02  0.25500000000E-02 0. -1.
    5000001    1    1    2    0    0 -0.97406859469E+02 -0.10575323533E+03  0.14607450424E+04  0.14797945540E+04  0.18800000000E+03 0.  0.
   -5000001    1    1    2    0    0  0.97406859469E+02  0.10575323533E+03  0.80115322614E+03  0.83538155044E+03  0.18800000000E+03 0.  0.
<mgrwt>
<rscale>  0 0.49381841E+03</rscale>
<asrwt>0</asrwt>
<pdfrwt beam="1">  1        2 0.32693403E+00 0.49381841E+03</pdfrwt>
<pdfrwt beam="2">  1       -2 0.38055580E-02 0.49381841E+03</pdfrwt>
<totfact> 0.18632665E+03</totfact>
</mgrwt>
</event>
<event>
 4    1  0.6165923E-005  0.5195748E+03  0.7818608E-02  0.1008792E+00
         -2   -1    0    0    0  501 -0.00000000000E+00  0.00000000000E+00  0.10336146077E+03  0.10336146080E+03  0.25500000000E-02 0. -1.
          2   -1    0    0  501    0  0.00000000000E+00 -0.00000000000E+00 -0.65294641236E+03  0.65294641237E+03  0.25500000000E-02 0.  1.
    5000001    1    1    2    0    0  0.95556565080E+02  0.15168926193E+03 -0.27798348673E+03  0.38047274306E+03  0.18800000000E+03 0.  0.
   -5000001    1    1    2    0    0 -0.95556565080E+02 -0.15168926193E+03 -0.27160146486E+03  0.37583513012E+03  0.18800000000E+03 0.  0.
<mgrwt>
<rscale>  0 0.51957481E+03</rscale>
<asrwt>0</asrwt>
<pdfrwt beam="1">  1        2 0.93278056E-01 0.51957481E+03</pdfrwt>
<pdfrwt beam="2">  1       -2 0.14765923E-01 0.51957481E+03</pdfrwt>
<totfact> 0.17603043E+03</totfact>
</mgrwt>
</event>
<event>
 4    1  0.6165923E-005  0.5116658E+03  0.7818608E-02  0.1010778E+00
         -2   -1    0    0    0  501 -0.00000000000E+00  0.00000000000E+00  0.27517420469E+02  0.27517420587E+02  0.25500000000E-02 0. -1.
          2   -1    0    0  501    0  0.00000000000E+00 -0.00000000000E+00 -0.23785104785E+04  0.23785104785E+04  0.25500000000E-02 0.  1.
    5000001    1    1    2    0    0  0.12151187345E+03  0.12384396748E+03 -0.11849122569E+04  0.12122143046E+04  0.18800000000E+03 0.  0.
   -5000001    1    1    2    0    0 -0.12151187345E+03 -0.12384396748E+03 -0.11660808011E+04  0.11938135945E+04  0.18800000000E+03 0.  0.
<mgrwt>
<rscale>  0 0.51166580E+03</rscale>
<asrwt>0</asrwt>
<pdfrwt beam="1">  1        2 0.33978708E+00 0.51166580E+03</pdfrwt>
<pdfrwt beam="2">  1       -2 0.39310616E-02 0.51166580E+03</pdfrwt>
<totfact> 0.15957278E+03</totfact>
</mgrwt>
</event>
<event>
 4    1  0.6165923E-005  0.9982788E+03  0.7818608E-02  0.9310435E-01
         -2   -1    0    0    0  501 -0.00000000000E+00  0.00000000000E+00  0.15759524606E+03  0.15759524608E+03  0.25500000000E-02 0. -1.
          2   -1    0    0  501    0  0.00000000000E+00 -0.00000000000E+00 -0.15808861803E+04  0.15808861803E+04  0.25500000000E-02 0.  1.
    5000001    1    1    2    0    0 -0.16923991868E+03 -0.42662658234E+03 -0.80928880141E+03  0.94918109701E+03  0.18800000000E+03 0.  0.
   -5000001    1    1    2    0    0  0.16923991868E+03  0.42662658234E+03 -0.61400213280E+03  0.78930032935E+03  0.18800000000E+03 0.  0.
<mgrwt>
<rscale>  0 0.99827881E+03</rscale>
<asrwt>0</asrwt>
<pdfrwt beam="1">  1        2 0.22584087E+00 0.99827881E+03</pdfrwt>
<pdfrwt beam="2">  1       -2 0.22513607E-01 0.99827881E+03</pdfrwt>
<totfact> 0.22865517E+02</totfact>
</mgrwt>
</event>
<event>
 4    1  0.6165923E-005  0.7548133E+03  0.7818608E-02  0.9627829E-01
          2   -1    0    0  501    0  0.00000000000E+00  0.00000000000E+00  0.15112148456E+04  0.15112148456E+04  0.25500000000E-02 0.  1.
         -2   -1    0    0    0  501 -0.00000000000E+00 -0.00000000000E+00 -0.94252490049E+02  0.94252490083E+02  0.25500000000E-02 0. -1.
    5000001    1    1    2    0    0 -0.62166368968E+02  0.24296370891E+03  0.11556300770E+04  0.11973808484E+04  0.18800000000E+03 0.  0.
   -5000001    1    1    2    0    0  0.62166368968E+02 -0.24296370891E+03  0.26133227853E+03  0.40808648725E+03  0.18800000000E+03 0.  0.
<mgrwt>
<rscale>  0 0.75481325E+03</rscale>
<asrwt>0</asrwt>
<pdfrwt beam="1">  1        2 0.21588783E+00 0.75481325E+03</pdfrwt>
<pdfrwt beam="2">  1       -2 0.13464642E-01 0.75481325E+03</pdfrwt>
<totfact> 0.61168448E+02</totfact>
</mgrwt>
</event>
<event>
 4    1  0.6165923E-005  0.4539113E+03  0.7818608E-02  0.1026562E+00
         -2   -1    0    0    0  501 -0.00000000000E+00  0.00000000000E+00  0.34509545898E+03  0.34509545899E+03  0.25500000000E-02 0. -1.
          2   -1    0    0  501    0  0.00000000000E+00 -0.00000000000E+00 -0.14925976915E+03  0.14925976917E+03  0.25500000000E-02 0.  1.
    5000001    1    1    2    0    0 -0.12345910264E+03  0.27400241074E+02  0.83636690928E+02  0.24152022546E+03  0.18800000000E+03 0.  0.
   -5000001    1    1    2    0    0  0.12345910264E+03 -0.27400241074E+02  0.11219899891E+03  0.25283500270E+03  0.18800000000E+03 0.  0.
<mgrwt>
<rscale>  0 0.45391131E+03</rscale>
<asrwt>0</asrwt>
<pdfrwt beam="1">  1        2 0.21322824E-01 0.45391131E+03</pdfrwt>
<pdfrwt beam="2">  1       -2 0.49299351E-01 0.45391131E+03</pdfrwt>
<totfact> 0.10275303E+03</totfact>
</mgrwt>
</event>
<event>
 4    1  0.6165923E-005  0.5751217E+03  0.7818608E-02  0.9958409E-01
          2   -1    0    0  501    0  0.00000000000E+00  0.00000000000E+00  0.30558246498E+03  0.30558246499E+03  0.25500000000E-02 0.  1.
         -2   -1    0    0    0  501 -0.00000000000E+00 -0.00000000000E+00 -0.27060207690E+03  0.27060207691E+03  0.25500000000E-02 0. -1.
    5000001    1    1    2    0    0 -0.11187313213E+03 -0.16474723440E+03 -0.70364510129E+02  0.28275857762E+03  0.18800000000E+03 0.  0.
   -5000001    1    1    2    0    0  0.11187313213E+03  0.16474723440E+03  0.10534489821E+03  0.29342596428E+03  0.18800000000E+03 0.  0.
<mgrwt>
<rscale>  0 0.57512173E+03</rscale>
<asrwt>0</asrwt>
<pdfrwt beam="1">  1        2 0.43654638E-01 0.57512173E+03</pdfrwt>
<pdfrwt beam="2">  1       -2 0.38657440E-01 0.57512173E+03</pdfrwt>
<totfact> 0.74229983E+02</totfact>
</mgrwt>
</event>
<event>
 4    1  0.6165923E-005  0.6928462E+03  0.7818608E-02  0.9729545E-01
          2   -1    0    0  501    0  0.00000000000E+00  0.00000000000E+00  0.20125183754E+04  0.20125183754E+04  0.25500000000E-02 0.  1.
         -2   -1    0    0    0  501 -0.00000000000E+00 -0.00000000000E+00 -0.59631246819E+02  0.59631246874E+02  0.25500000000E-02 0. -1.
    5000001    1    1    2    0    0 -0.22439667988E+03  0.24378393165E+02  0.42727275591E+03  0.51851150801E+03  0.18800000000E+03 0.  0.
   -5000001    1    1    2    0    0  0.22439667988E+03 -0.24378393165E+02  0.15256143727E+04  0.15536381142E+04  0.18800000000E+03 0.  0.
<mgrwt>
<rscale>  0 0.69284625E+03</rscale>
<asrwt>0</asrwt>
<pdfrwt beam="1">  1        2 0.28750258E+00 0.69284625E+03</pdfrwt>
<pdfrwt beam="2">  1       -2 0.85187507E-02 0.69284625E+03</pdfrwt>
<totfact> 0.71981571E+02</totfact>
</mgrwt>
</event>
<event>
 4    1  0.6165923E-005  0.4940996E+03  0.7818608E-02  0.1015331E+00
          2   -1    0    0  501    0  0.00000000000E+00  0.00000000000E+00  0.97860587961E+03  0.97860587962E+03  0.25500000000E-02 0.  1.
         -2   -1    0    0    0  501 -0.00000000000E+00 -0.00000000000E+00 -0.62367918383E+02  0.62367918435E+02  0.25500000000E-02 0. -1.
    5000001    1    1    2    0    0  0.59658911935E+02  0.14870923138E+03  0.46654368677E+03  0.52790210544E+03  0.18800000000E+03 0.  0.
   -5000001    1    1    2    0    0 -0.59658911935E+02 -0.14870923138E+03  0.44969427446E+03  0.51307169261E+03  0.18800000000E+03 0.  0.
<mgrwt>
<rscale>  0 0.49409963E+03</rscale>
<asrwt>0</asrwt>
<pdfrwt beam="1">  1        2 0.13980084E+00 0.49409963E+03</pdfrwt>
<pdfrwt beam="2">  1       -2 0.89097025E-02 0.49409963E+03</pdfrwt>
<totfact> 0.23996428E+03</totfact>
</mgrwt>
</event>
<event>
 4    1  0.6165923E-005  0.7797178E+03  0.7818608E-02  0.9589848E-01
          2   -1    0    0  501    0  0.00000000000E+00  0.00000000000E+00  0.45076111085E+03  0.45076111085E+03  0.25500000000E-02 0.  1.
         -2   -1    0    0    0  501 -0.00000000000E+00 -0.00000000000E+00 -0.33718521062E+03  0.33718521063E+03  0.25500000000E-02 0. -1.
    5000001    1    1    2    0    0  0.16926890517E+03 -0.20420138574E+03  0.27422322915E+03  0.42531464541E+03  0.18800000000E+03 0.  0.
   -5000001    1    1    2    0    0 -0.16926890517E+03  0.20420138574E+03 -0.16064732893E+03  0.36263167607E+03  0.18800000000E+03 0.  0.
<mgrwt>
<rscale>  0 0.77971785E+03</rscale>
<asrwt>0</asrwt>
<pdfrwt beam="1">  1        2 0.64394445E-01 0.77971785E+03</pdfrwt>
<pdfrwt beam="2">  1       -2 0.48169315E-01 0.77971785E+03</pdfrwt>
<totfact> 0.31060516E+02</totfact>
</mgrwt>
</event>
<event>
 4    1  0.6165923E-005  0.7085228E+03  0.7818608E-02  0.9702767E-01
          2   -1    0    0  501    0  0.00000000000E+00  0.00000000000E+00  0.11066023537E+04  0.11066023537E+04  0.25500000000E-02 0.  1.
         -2   -1    0    0    0  501 -0.00000000000E+00 -0.00000000000E+00 -0.11341123833E+03  0.11341123836E+03  0.25500000000E-02 0. -1.
    5000001    1    1    2    0    0 -0.59635832480E+02 -0.28439670940E+03  0.36637506715E+03  0.50399663755E+03  0.18800000000E+03 0.  0.
   -5000001    1    1    2    0    0  0.59635832480E+02  0.28439670940E+03  0.62681604818E+03  0.71601695447E+03  0.18800000000E+03 0.  0.
<mgrwt>
<rscale>  0 0.70852281E+03</rscale>
<asrwt>0</asrwt>
<pdfrwt beam="1">  1        2 0.15808605E+00 0.70852281E+03</pdfrwt>
<pdfrwt beam="2">  1       -2 0.16201605E-01 0.70852281E+03</pdfrwt>
<totfact> 0.74795086E+02</totfact>
</mgrwt>
</event>
<event>
 4    1  0.6165923E-005  0.5873071E+03  0.7818608E-02  0.9932095E-01
          2   -1    0    0  501    0  0.00000000000E+00  0.00000000000E+00  0.19581120383E+03  0.19581120385E+03  0.25500000000E-02 0.  1.
         -2   -1    0    0    0  501 -0.00000000000E+00 -0.00000000000E+00 -0.44038549245E+03  0.44038549246E+03  0.25500000000E-02 0. -1.
    5000001    1    1    2    0    0 -0.14439160407E+03  0.16717152907E+03 -0.72727617945E+02  0.29904608653E+03  0.18800000000E+03 0.  0.
   -5000001    1    1    2    0    0  0.14439160407E+03 -0.16717152907E+03 -0.17184667067E+03  0.33715060978E+03  0.18800000000E+03 0.  0.
<mgrwt>
<rscale>  0 0.58730712E+03</rscale>
<asrwt>0</asrwt>
<pdfrwt beam="1">  1        2 0.27973029E-01 0.58730712E+03</pdfrwt>
<pdfrwt beam="2">  1       -2 0.62912213E-01 0.58730712E+03</pdfrwt>
<totfact> 0.45515185E+02</totfact>
</mgrwt>
</event>
<event>
 4    1  0.6165923E-005  0.5069756E+03  0.7818608E-02  0.1011974E+00
         -2   -1    0    0    0  501 -0.00000000000E+00  0.00000000000E+00  0.34674144236E+02  0.34674144330E+02  0.25500000000E-02 0. -1.
          2   -1    0    0  501    0  0.00000000000E+00 -0.00000000000E+00 -0.18531409699E+04  0.18531409699E+04  0.25500000000E-02 0.  1.
    5000001    1    1    2    0    0  0.80887864921E+02 -0.46819949821E+02 -0.38029881079E+03  0.43440319967E+03  0.18800000000E+03 0.  0.
   -5000001    1    1    2    0    0 -0.80887864921E+02  0.46819949821E+02 -0.14381680149E+04  0.14534119146E+04  0.18800000000E+03 0.  0.
<mgrwt>
<rscale>  0 0.50697565E+03</rscale>
<asrwt>0</asrwt>
<pdfrwt beam="1">  1        2 0.26473436E+00 0.50697565E+03</pdfrwt>
<pdfrwt beam="2">  1       -2 0.49534504E-02 0.50697565E+03</pdfrwt>
<totfact> 0.20507546E+03</totfact>
</mgrwt>
</event>
<event>
 4    1  0.6165923E-005  0.4687365E+03  0.7818608E-02  0.1022277E+00
         -2   -1    0    0    0  501 -0.00000000000E+00  0.00000000000E+00  0.18783583211E+02  0.18783583384E+02  0.25500000000E-02 0. -1.
          2   -1    0    0  501    0  0.00000000000E+00 -0.00000000000E+00 -0.29242805974E+04  0.29242805974E+04  0.25500000000E-02 0.  1.
    5000001    1    1    2    0    0 -0.81497216050E+01  0.25090975359E+02 -0.58983026444E+03  0.61962869193E+03  0.18800000000E+03 0.  0.
   -5000001    1    1    2    0    0  0.81497216050E+01 -0.25090975359E+02 -0.23156667497E+04  0.23234354888E+04  0.18800000000E+03 0.  0.
<mgrwt>
<rscale>  0 0.46873646E+03</rscale>
<asrwt>0</asrwt>
<pdfrwt beam="1">  1        2 0.41775408E+00 0.46873646E+03</pdfrwt>
<pdfrwt beam="2">  1       -2 0.26833709E-02 0.46873646E+03</pdfrwt>
<totfact> 0.14900262E+03</totfact>
</mgrwt>
</event>
<event>
 4    1  0.6165923E-005  0.4998710E+03  0.7818608E-02  0.1013813E+00
         -2   -1    0    0    0  501 -0.00000000000E+00  0.00000000000E+00  0.85840957018E+02  0.85840957055E+02  0.25500000000E-02 0. -1.
          2   -1    0    0  501    0  0.00000000000E+00 -0.00000000000E+00 -0.72771502821E+03  0.72771502822E+03  0.25500000000E-02 0.  1.
    5000001    1    1    2    0    0 -0.25646223753E+02  0.17366646949E+01 -0.56179018786E+02  0.19789094711E+03  0.18800000000E+03 0.  0.
   -5000001    1    1    2    0    0  0.25646223753E+02 -0.17366646949E+01 -0.58569505241E+03  0.61566503816E+03  0.18800000000E+03 0.  0.
<mgrwt>
<rscale>  0 0.49987100E+03</rscale>
<asrwt>0</asrwt>
<pdfrwt beam="1">  1        2 0.10395929E+00 0.49987100E+03</pdfrwt>
<pdfrwt beam="2">  1       -2 0.12262994E-01 0.49987100E+03</pdfrwt>
<totfact> 0.21004944E+03</totfact>
</mgrwt>
</event>
<event>
 4    1  0.6165923E-005  0.6904331E+03  0.7818608E-02  0.9733734E-01
          2   -1    0    0  501    0  0.00000000000E+00  0.00000000000E+00  0.66322117799E+03  0.66322117800E+03  0.25500000000E-02 0.  1.
         -2   -1    0    0    0  501 -0.00000000000E+00 -0.00000000000E+00 -0.17969037316E+03  0.17969037318E+03  0.25500000000E-02 0. -1.
    5000001    1    1    2    0    0  0.31290327966E+01  0.22640610706E+03  0.21468236181E+02  0.29508371918E+03  0.18800000000E+03 0.  0.
   -5000001    1    1    2    0    0 -0.31290327966E+01 -0.22640610706E+03  0.46206256865E+03  0.54782783199E+03  0.18800000000E+03 0.  0.
<mgrwt>
<rscale>  0 0.69043308E+03</rscale>
<asrwt>0</asrwt>
<pdfrwt beam="1">  1        2 0.94745882E-01 0.69043308E+03</pdfrwt>
<pdfrwt beam="2">  1       -2 0.25670053E-01 0.69043308E+03</pdfrwt>
<totfact> 0.65944103E+02</totfact>
</mgrwt>
</event>
<event>
 4    1  0.6165923E-005  0.5671033E+03  0.7818608E-02  0.9976109E-01
         -2   -1    0    0    0  501 -0.00000000000E+00  0.00000000000E+00  0.91968838920E+03  0.91968838921E+03  0.25500000000E-02 0. -1.
          2   -1    0    0  501    0  0.00000000000E+00 -0.00000000000E+00 -0.87422588897E+02  0.87422588934E+02  0.25500000000E-02 0.  1.
    5000001    1    1    2    0    0  0.15550949293E+03 -0.70295553636E+01  0.67240826022E+03  0.71533872078E+03  0.18800000000E+03 0.  0.
   -5000001    1    1    2    0    0 -0.15550949293E+03  0.70295553636E+01  0.15985754009E+03  0.29177225736E+03  0.18800000000E+03 0.  0.
<mgrwt>
<rscale>  0 0.56710331E+03</rscale>
<asrwt>0</asrwt>
<pdfrwt beam="1">  1        2 0.12488941E-01 0.56710331E+03</pdfrwt>
<pdfrwt beam="2">  1       -2 0.13138405E+00 0.56710331E+03</pdfrwt>
<totfact> 0.21548499E+02</totfact>
</mgrwt>
</event>
<event>
 4    1  0.6165923E-005  0.4453931E+03  0.7818608E-02  0.1029105E+00
         -2   -1    0    0    0  501 -0.00000000000E+00  0.00000000000E+00  0.70225500831E+02  0.70225500878E+02  0.25500000000E-02 0. -1.
          2   -1    0    0  501    0  0.00000000000E+00 -0.00000000000E+00 -0.70620732958E+03  0.70620732959E+03  0.25500000000E-02 0.  1.
    5000001    1    1    2    0    0  0.84505995850E+02 -0.83155188061E+02 -0.34225376124E+03  0.40809029113E+03  0.18800000000E+03 0.  0.
   -5000001    1    1    2    0    0 -0.84505995850E+02  0.83155188061E+02 -0.29372806752E+03  0.36834253933E+03  0.18800000000E+03 0.  0.
<mgrwt>
<rscale>  0 0.44539315E+03</rscale>
<asrwt>0</asrwt>
<pdfrwt beam="1">  1        2 0.10088676E+00 0.44539315E+03</pdfrwt>
<pdfrwt beam="2">  1       -2 0.10032215E-01 0.44539315E+03</pdfrwt>
<totfact> 0.30178461E+03</totfact>
</mgrwt>
</event>
<event>
 4    1  0.6165923E-005  0.5478202E+03  0.7818608E-02  0.1002000E+00
         -2   -1    0    0    0  501 -0.00000000000E+00  0.00000000000E+00  0.66016068884E+02  0.66016068933E+02  0.25500000000E-02 0. -1.
          2   -1    0    0  501    0  0.00000000000E+00 -0.00000000000E+00 -0.11364922437E+04  0.11364922437E+04  0.25500000000E-02 0.  1.
    5000001    1    1    2    0    0  0.16304973099E+03 -0.91882367944E+02 -0.38547057784E+03  0.46793071143E+03  0.18800000000E+03 0.  0.
   -5000001    1    1    2    0    0 -0.16304973099E+03  0.91882367944E+02 -0.68500559696E+03  0.73457760120E+03  0.18800000000E+03 0.  0.
<mgrwt>
<rscale>  0 0.54782023E+03</rscale>
<asrwt>0</asrwt>
<pdfrwt beam="1">  1        2 0.16235602E+00 0.54782023E+03</pdfrwt>
<pdfrwt beam="2">  1       -2 0.94308677E-02 0.54782023E+03</pdfrwt>
<totfact> 0.17665756E+03</totfact>
</mgrwt>
</event>
<event>
 4    1  0.6165923E-005  0.5584576E+03  0.7818608E-02  0.9995551E-01
          2   -1    0    0  501    0  0.00000000000E+00  0.00000000000E+00  0.86190193874E+03  0.86190193874E+03  0.25500000000E-02 0.  1.
         -2   -1    0    0    0  501 -0.00000000000E+00 -0.00000000000E+00 -0.90461234652E+02  0.90461234688E+02  0.25500000000E-02 0. -1.
    5000001    1    1    2    0    0 -0.14218631981E+03 -0.84581511678E+02  0.17509993527E+03  0.30557318107E+03  0.18800000000E+03 0.  0.
   -5000001    1    1    2    0    0  0.14218631981E+03  0.84581511678E+02  0.59634076882E+03  0.64678999236E+03  0.18800000000E+03 0.  0.
<mgrwt>
<rscale>  0 0.55845757E+03</rscale>
<asrwt>0</asrwt>
<pdfrwt beam="1">  1        2 0.12312885E+00 0.55845757E+03</pdfrwt>
<pdfrwt beam="2">  1       -2 0.12923033E-01 0.55845757E+03</pdfrwt>
<totfact> 0.15540984E+03</totfact>
</mgrwt>
</event>
<event>
 4    1  0.6165923E-005  0.1050056E+04  0.7818608E-02  0.9255286E-01
          2   -1    0    0  501    0  0.00000000000E+00  0.00000000000E+00  0.17217767956E+04  0.17217767956E+04  0.25500000000E-02 0.  1.
         -2   -1    0    0    0  501 -0.00000000000E+00 -0.00000000000E+00 -0.16009890964E+03  0.16009890966E+03  0.25500000000E-02 0. -1.
    5000001    1    1    2    0    0 -0.22055066587E+03  0.41287388694E+03  0.10418016617E+04  0.11574982268E+04  0.18800000000E+03 0.  0.
   -5000001    1    1    2    0    0  0.22055066587E+03 -0.41287388694E+03  0.51987622421E+03  0.72437747842E+03  0.18800000000E+03 0.  0.
<mgrwt>
<rscale>  0 0.10500564E+04</rscale>
<asrwt>0</asrwt>
<pdfrwt beam="1">  1        2 0.24596809E+00 0.10500564E+04</pdfrwt>
<pdfrwt beam="2">  1       -2 0.22871275E-01 0.10500564E+04</pdfrwt>
<totfact> 0.18720886E+02</totfact>
</mgrwt>
</event>
<event>
 4    1  0.6165923E-005  0.4629839E+03  0.7818608E-02  0.1023919E+00
          2   -1    0    0  501    0  0.00000000000E+00  0.00000000000E+00  0.74193715730E+03  0.74193715731E+03  0.25500000000E-02 0.  1.
         -2   -1    0    0    0  501 -0.00000000000E+00 -0.00000000000E+00 -0.72227850405E+02  0.72227850450E+02  0.25500000000E-02 0. -1.
    5000001    1    1    2    0    0 -0.16844142131E+02 -0.13383729630E+03  0.34708602280E+03  0.41714368535E+03  0.18800000000E+03 0.  0.
   -5000001    1    1    2    0    0  0.16844142131E+02  0.13383729630E+03  0.32262328410E+03  0.39702132241E+03  0.18800000000E+03 0.  0.
<mgrwt>
<rscale>  0 0.46298391E+03</rscale>
<asrwt>0</asrwt>
<pdfrwt beam="1">  1        2 0.10599101E+00 0.46298391E+03</pdfrwt>
<pdfrwt beam="2">  1       -2 0.10318265E-01 0.46298391E+03</pdfrwt>
<totfact> 0.27159726E+03</totfact>
</mgrwt>
</event>
<event>
 4    1  0.6165923E-005  0.9240269E+03  0.7818608E-02  0.9396035E-01
          2   -1    0    0  501    0  0.00000000000E+00  0.00000000000E+00  0.15755657874E+04  0.15755657874E+04  0.25500000000E-02 0.  1.
         -2   -1    0    0    0  501 -0.00000000000E+00 -0.00000000000E+00 -0.13547920820E+03  0.13547920822E+03  0.25500000000E-02 0. -1.
    5000001    1    1    2    0    0 -0.13361264790E+03  0.30345908541E+03  0.23655949234E+03  0.44860244049E+03  0.18800000000E+03 0.  0.
   -5000001    1    1    2    0    0  0.13361264790E+03 -0.30345908541E+03  0.12035270869E+04  0.12624425551E+04  0.18800000000E+03 0.  0.
<mgrwt>
<rscale>  0 0.92402685E+03</rscale>
<asrwt>0</asrwt>
<pdfrwt beam="1">  1        2 0.22508083E+00 0.92402685E+03</pdfrwt>
<pdfrwt beam="2">  1       -2 0.19354172E-01 0.92402685E+03</pdfrwt>
<totfact> 0.30182976E+02</totfact>
</mgrwt>
</event>
<event>
 4    1  0.6165923E-005  0.8549685E+03  0.7818608E-02  0.9483693E-01
          2   -1    0    0  501    0  0.00000000000E+00  0.00000000000E+00  0.54253337753E+03  0.54253337754E+03  0.25500000000E-02 0.  1.
         -2   -1    0    0    0  501 -0.00000000000E+00 -0.00000000000E+00 -0.33683230429E+03  0.33683230430E+03  0.25500000000E-02 0. -1.
    5000001    1    1    2    0    0  0.34913133970E+03  0.68643802242E+02  0.25116705476E+03  0.47437701604E+03  0.18800000000E+03 0.  0.
   -5000001    1    1    2    0    0 -0.34913133970E+03 -0.68643802242E+02 -0.45465981525E+02  0.40498866580E+03  0.18800000000E+03 0.  0.
<mgrwt>
<rscale>  0 0.85496846E+03</rscale>
<asrwt>0</asrwt>
<pdfrwt beam="1">  1        2 0.77504768E-01 0.85496846E+03</pdfrwt>
<pdfrwt beam="2">  1       -2 0.48118901E-01 0.85496846E+03</pdfrwt>
<totfact> 0.25102137E+02</totfact>
</mgrwt>
</event>
<event>
 4    1  0.6165923E-005  0.4547004E+03  0.7818608E-02  0.1026330E+00
          2   -1    0    0  501    0  0.00000000000E+00  0.00000000000E+00  0.25103288998E+04  0.25103288998E+04  0.25500000000E-02 0.  1.
         -2   -1    0    0    0  501 -0.00000000000E+00 -0.00000000000E+00 -0.20590178148E+02  0.20590178306E+02  0.25500000000E-02 0. -1.
    5000001    1    1    2    0    0 -0.10556464763E+03 -0.59236721928E+00  0.16462434165E+04  0.16603028736E+04  0.18800000000E+03 0.  0.
   -5000001    1    1    2    0    0  0.10556464763E+03  0.59236721928E+00  0.84349530510E+03  0.87061620445E+03  0.18800000000E+03 0.  0.
<mgrwt>
<rscale>  0 0.45470043E+03</rscale>
<asrwt>0</asrwt>
<pdfrwt beam="1">  1        2 0.35861855E+00 0.45470043E+03</pdfrwt>
<pdfrwt beam="2">  1       -2 0.29414530E-02 0.45470043E+03</pdfrwt>
<totfact> 0.21327090E+03</totfact>
</mgrwt>
</event>
<event>
 4    1  0.6165923E-005  0.6718752E+03  0.7818608E-02  0.9766576E-01
          2   -1    0    0  501    0  0.00000000000E+00  0.00000000000E+00  0.90581845068E+03  0.90581845068E+03  0.25500000000E-02 0.  1.
         -2   -1    0    0    0  501 -0.00000000000E+00 -0.00000000000E+00 -0.12458794735E+03  0.12458794738E+03  0.25500000000E-02 0. -1.
    5000001    1    1    2    0    0 -0.14573691687E+03 -0.19650229719E+03  0.18682353578E+03  0.36069299308E+03  0.18800000000E+03 0.  0.
   -5000001    1    1    2    0    0  0.14573691687E+03  0.19650229719E+03  0.59440696755E+03  0.66971340498E+03  0.18800000000E+03 0.  0.
<mgrwt>
<rscale>  0 0.67187517E+03</rscale>
<asrwt>0</asrwt>
<pdfrwt beam="1">  1        2 0.12940264E+00 0.67187517E+03</pdfrwt>
<pdfrwt beam="2">  1       -2 0.17798278E-01 0.67187517E+03</pdfrwt>
<totfact> 0.84598517E+02</totfact>
</mgrwt>
</event>
<event>
 4    1  0.6165923E-005  0.1174930E+04  0.7818608E-02  0.9135087E-01
         -2   -1    0    0    0  501 -0.00000000000E+00  0.00000000000E+00  0.15223037190E+03  0.15223037193E+03  0.25500000000E-02 0. -1.
          2   -1    0    0  501    0  0.00000000000E+00 -0.00000000000E+00 -0.22670597332E+04  0.22670597332E+04  0.25500000000E-02 0.  1.
    5000001    1    1    2    0    0 -0.35883020546E+03 -0.50549754368E+02 -0.18756831423E+03  0.44926636477E+03  0.18800000000E+03 0.  0.
   -5000001    1    1    2    0    0  0.35883020546E+03  0.50549754368E+02 -0.19272610471E+04  0.19700237404E+04  0.18800000000E+03 0.  0.
<mgrwt>
<rscale>  0 0.11749304E+04</rscale>
<asrwt>0</asrwt>
<pdfrwt beam="1">  1        2 0.32386566E+00 0.11749304E+04</pdfrwt>
<pdfrwt beam="2">  1       -2 0.21747197E-01 0.11749304E+04</pdfrwt>
<totfact> 0.10661765E+02</totfact>
</mgrwt>
</event>
<event>
 4    1  0.6165923E-005  0.7410277E+03  0.7818608E-02  0.9649533E-01
         -2   -1    0    0    0  501 -0.00000000000E+00  0.00000000000E+00  0.88697503179E+03  0.88697503179E+03  0.25500000000E-02 0. -1.
          2   -1    0    0  501    0  0.00000000000E+00 -0.00000000000E+00 -0.15477382203E+03  0.15477382205E+03  0.25500000000E-02 0.  1.
    5000001    1    1    2    0    0  0.28211239278E+03 -0.14655664328E+03  0.32462869236E+03  0.49172557362E+03  0.18800000000E+03 0.  0.
   -5000001    1    1    2    0    0 -0.28211239278E+03  0.14655664328E+03  0.40757251740E+03  0.55002328022E+03  0.18800000000E+03 0.  0.
<mgrwt>
<rscale>  0 0.74102771E+03</rscale>
<asrwt>0</asrwt>
<pdfrwt beam="1">  1        2 0.22110546E-01 0.74102771E+03</pdfrwt>
<pdfrwt beam="2">  1       -2 0.12671072E+00 0.74102771E+03</pdfrwt>
<totfact> 0.11823060E+02</totfact>
</mgrwt>
</event>
<event>
 4    1  0.6165923E-005  0.1139357E+04  0.7818608E-02  0.9167659E-01
          2   -1    0    0  501    0  0.00000000000E+00  0.00000000000E+00  0.74116479050E+03  0.74116479051E+03  0.25500000000E-02 0.  1.
         -2   -1    0    0    0  501 -0.00000000000E+00 -0.00000000000E+00 -0.43786946629E+03  0.43786946630E+03  0.25500000000E-02 0. -1.
    5000001    1    1    2    0    0 -0.78355292993E+02 -0.15543340763E+03 -0.37488416271E+03  0.45407183528E+03  0.18800000000E+03 0.  0.
   -5000001    1    1    2    0    0  0.78355292993E+02  0.15543340763E+03  0.67817948692E+03  0.72496242153E+03  0.18800000000E+03 0.  0.
<mgrwt>
<rscale>  0 0.11393567E+04</rscale>
<asrwt>0</asrwt>
<pdfrwt beam="1">  1        2 0.10588068E+00 0.11393567E+04</pdfrwt>
<pdfrwt beam="2">  1       -2 0.62552781E-01 0.11393567E+04</pdfrwt>
<totfact> 0.98471368E+01</totfact>
</mgrwt>
</event>
<event>
 4    1  0.6165923E-005  0.6256730E+03  0.7818608E-02  0.9853529E-01
         -2   -1    0    0    0  501 -0.00000000000E+00  0.00000000000E+00  0.68658842692E+02  0.68658842740E+02  0.25500000000E-02 0. -1.
          2   -1    0    0  501    0  0.00000000000E+00 -0.00000000000E+00 -0.14254051936E+04  0.14254051936E+04  0.25500000000E-02 0.  1.
    5000001    1    1    2    0    0 -0.56373738226E+02  0.23217044263E+03 -0.85452350016E+03  0.90699257170E+03  0.18800000000E+03 0.  0.
   -5000001    1    1    2    0    0  0.56373738226E+02 -0.23217044263E+03 -0.50222285079E+03  0.58707146468E+03  0.18800000000E+03 0.  0.
<mgrwt>
<rscale>  0 0.62567298E+03</rscale>
<asrwt>0</asrwt>
<pdfrwt beam="1">  1        2 0.20362930E+00 0.62567298E+03</pdfrwt>
<pdfrwt beam="2">  1       -2 0.98084069E-02 0.62567298E+03</pdfrwt>
<totfact> 0.11494388E+03</totfact>
</mgrwt>
</event>
<event>
 4    1  0.6165923E-005  0.4655226E+03  0.7818608E-02  0.1023192E+00
         -2   -1    0    0    0  501 -0.00000000000E+00  0.00000000000E+00  0.29541030618E+02  0.29541030728E+02  0.25500000000E-02 0. -1.
          2   -1    0    0  501    0  0.00000000000E+00 -0.00000000000E+00 -0.18339858483E+04  0.18339858483E+04  0.25500000000E-02 0.  1.
    5000001    1    1    2    0    0 -0.11694597947E+03  0.46998106950E+02 -0.68484904735E+03  0.72128177699E+03  0.18800000000E+03 0.  0.
   -5000001    1    1    2    0    0  0.11694597947E+03 -0.46998106950E+02 -0.11195957703E+04  0.11422451020E+04  0.18800000000E+03 0.  0.
<mgrwt>
<rscale>  0 0.46552264E+03</rscale>
<asrwt>0</asrwt>
<pdfrwt beam="1">  1        2 0.26199791E+00 0.46552264E+03</pdfrwt>
<pdfrwt beam="2">  1       -2 0.42201484E-02 0.46552264E+03</pdfrwt>
<totfact> 0.26856591E+03</totfact>
</mgrwt>
</event>
<event>
 4    1  0.6165923E-005  0.5062834E+03  0.7818608E-02  0.1012152E+00
         -2   -1    0    0    0  501 -0.00000000000E+00  0.00000000000E+00  0.34417540315E+03  0.34417540316E+03  0.25500000000E-02 0. -1.
          2   -1    0    0  501    0  0.00000000000E+00 -0.00000000000E+00 -0.18618623835E+03  0.18618623837E+03  0.25500000000E-02 0.  1.
    5000001    1    1    2    0    0  0.65876027075E+02  0.11656475750E+03  0.18790911456E+03  0.29762531641E+03  0.18800000000E+03 0.  0.
   -5000001    1    1    2    0    0 -0.65876027075E+02 -0.11656475750E+03 -0.29919949761E+02  0.23273632512E+03  0.18800000000E+03 0.  0.
<mgrwt>
<rscale>  0 0.50628341E+03</rscale>
<asrwt>0</asrwt>
<pdfrwt beam="1">  1        2 0.26598034E-01 0.50628341E+03</pdfrwt>
<pdfrwt beam="2">  1       -2 0.49167914E-01 0.50628341E+03</pdfrwt>
<totfact> 0.80267741E+02</totfact>
</mgrwt>
</event>
<event>
 4    1  0.6165923E-005  0.4583738E+03  0.7818608E-02  0.1025254E+00
         -2   -1    0    0    0  501 -0.00000000000E+00  0.00000000000E+00  0.94758090304E+02  0.94758090338E+02  0.25500000000E-02 0. -1.
          2   -1    0    0  501    0  0.00000000000E+00 -0.00000000000E+00 -0.55432349398E+03  0.55432349399E+03  0.25500000000E-02 0.  1.
    5000001    1    1    2    0    0  0.11695694199E+03  0.18855141937E+02 -0.30923567943E+03  0.38079541501E+03  0.18800000000E+03 0.  0.
   -5000001    1    1    2    0    0 -0.11695694199E+03 -0.18855141937E+02 -0.15032972425E+03  0.26828616932E+03  0.18800000000E+03 0.  0.
<mgrwt>
<rscale>  0 0.45837380E+03</rscale>
<asrwt>0</asrwt>
<pdfrwt beam="1">  1        2 0.79189069E-01 0.45837380E+03</pdfrwt>
<pdfrwt beam="2">  1       -2 0.13536870E-01 0.45837380E+03</pdfrwt>
<totfact> 0.24622712E+03</totfact>
</mgrwt>
</event>
<event>
 4    1  0.6165923E-005  0.7970546E+03  0.7818608E-02  0.9564290E-01
          2   -1    0    0  501    0  0.00000000000E+00  0.00000000000E+00  0.27400757848E+04  0.27400757848E+04  0.25500000000E-02 0.  1.
         -2   -1    0    0    0  501 -0.00000000000E+00 -0.00000000000E+00 -0.57963363580E+02  0.57963363636E+02  0.25500000000E-02 0. -1.
    5000001    1    1    2    0    0  0.16512478593E+03  0.25719757959E+03  0.73238402663E+03  0.81556554142E+03  0.18800000000E+03 0.  0.
   -5000001    1    1    2    0    0 -0.16512478593E+03 -0.25719757959E+03  0.19497283946E+04  0.19824736070E+04  0.18800000000E+03 0.  0.
<mgrwt>
<rscale>  0 0.79705460E+03</rscale>
<asrwt>0</asrwt>
<pdfrwt beam="1">  1        2 0.39143944E+00 0.79705460E+03</pdfrwt>
<pdfrwt beam="2">  1       -2 0.82804797E-02 0.79705460E+03</pdfrwt>
<totfact> 0.31614282E+02</totfact>
</mgrwt>
</event>
<event>
 4    1  0.6165923E-005  0.9896824E+03  0.7818608E-02  0.9319934E-01
          2   -1    0    0  501    0  0.00000000000E+00  0.00000000000E+00  0.15070927308E+04  0.15070927308E+04  0.25500000000E-02 0.  1.
         -2   -1    0    0    0  501 -0.00000000000E+00 -0.00000000000E+00 -0.16247693239E+03  0.16247693241E+03  0.25500000000E-02 0. -1.
    5000001    1    1    2    0    0 -0.42969072468E+03 -0.13874585496E+03  0.79899145679E+03  0.93681154944E+03  0.18800000000E+03 0.  0.
   -5000001    1    1    2    0    0  0.42969072468E+03  0.13874585496E+03  0.54562434164E+03  0.73275811380E+03  0.18800000000E+03 0.  0.
<mgrwt>
<rscale>  0 0.98968238E+03</rscale>
<asrwt>0</asrwt>
<pdfrwt beam="1">  1        2 0.21529895E+00 0.98968238E+03</pdfrwt>
<pdfrwt beam="2">  1       -2 0.23210991E-01 0.98968238E+03</pdfrwt>
<totfact> 0.23689614E+02</totfact>
</mgrwt>
</event>
<event>
 4    1  0.6165923E-005  0.6938707E+03  0.7818608E-02  0.9727772E-01
          2   -1    0    0  501    0  0.00000000000E+00  0.00000000000E+00  0.69506902694E+03  0.69506902694E+03  0.25500000000E-02 0.  1.
         -2   -1    0    0    0  501 -0.00000000000E+00 -0.00000000000E+00 -0.17316858731E+03  0.17316858733E+03  0.25500000000E-02 0. -1.
    5000001    1    1    2    0    0  0.22753946559E+03  0.17671739220E+03  0.20475495577E+03  0.40033965207E+03  0.18800000000E+03 0.  0.
   -5000001    1    1    2    0    0 -0.22753946559E+03 -0.17671739220E+03  0.31714548386E+03  0.46789796221E+03  0.18800000000E+03 0.  0.
<mgrwt>
<rscale>  0 0.69387066E+03</rscale>
<asrwt>0</asrwt>
<pdfrwt beam="1">  1        2 0.99295573E-01 0.69387066E+03</pdfrwt>
<pdfrwt beam="2">  1       -2 0.24738370E-01 0.69387066E+03</pdfrwt>
<totfact> 0.66565095E+02</totfact>
</mgrwt>
</event>
<event>
 4    1  0.6165923E-005  0.4026449E+03  0.7818608E-02  0.1042868E+00
         -2   -1    0    0    0  501 -0.00000000000E+00  0.00000000000E+00  0.46820834201E+03  0.46820834202E+03  0.25500000000E-02 0. -1.
          2   -1    0    0  501    0  0.00000000000E+00 -0.00000000000E+00 -0.86565595044E+02  0.86565595082E+02  0.25500000000E-02 0.  1.
    5000001    1    1    2    0    0  0.55075067206E+02  0.46232773464E+02  0.19633290692E+03  0.28117848906E+03  0.18800000000E+03 0.  0.
   -5000001    1    1    2    0    0 -0.55075067206E+02 -0.46232773464E+02  0.18530984005E+03  0.27359544804E+03  0.18800000000E+03 0.  0.
<mgrwt>
<rscale>  0 0.40264492E+03</rscale>
<asrwt>0</asrwt>
<pdfrwt beam="1">  1        2 0.12366514E-01 0.40264492E+03</pdfrwt>
<pdfrwt beam="2">  1       -2 0.66886906E-01 0.40264492E+03</pdfrwt>
<totfact> 0.10436149E+03</totfact>
</mgrwt>
</event>
<event>
 4    1  0.6165923E-005  0.4933552E+03  0.7818608E-02  0.1015528E+00
          2   -1    0    0  501    0  0.00000000000E+00  0.00000000000E+00  0.19256561299E+04  0.19256561299E+04  0.25500000000E-02 0.  1.
         -2   -1    0    0    0  501 -0.00000000000E+00 -0.00000000000E+00 -0.31599528667E+02  0.31599528769E+02  0.25500000000E-02 0. -1.
    5000001    1    1    2    0    0  0.84162593840E+02  0.13371299546E+03  0.85455523260E+03  0.88914068230E+03  0.18800000000E+03 0.  0.
   -5000001    1    1    2    0    0 -0.84162593840E+02 -0.13371299546E+03  0.10395013686E+04  0.10681149763E+04  0.18800000000E+03 0.  0.
<mgrwt>
<rscale>  0 0.49335515E+03</rscale>
<asrwt>0</asrwt>
<pdfrwt beam="1">  1        2 0.27509365E+00 0.49335515E+03</pdfrwt>
<pdfrwt beam="2">  1       -2 0.45142198E-02 0.49335515E+03</pdfrwt>
<totfact> 0.21778095E+03</totfact>
</mgrwt>
</event>
<event>
 4    1  0.6165923E-005  0.4378884E+03  0.7818608E-02  0.1031397E+00
         -2   -1    0    0    0  501 -0.00000000000E+00  0.00000000000E+00  0.13601108128E+02  0.13601108367E+02  0.25500000000E-02 0. -1.
          2   -1    0    0  501    0  0.00000000000E+00 -0.00000000000E+00 -0.35244607159E+04  0.35244607159E+04  0.25500000000E-02 0.  1.
    5000001    1    1    2    0    0  0.10875805260E+03 -0.23005500476E+02 -0.18792923980E+04  0.18919411947E+04  0.18800000000E+03 0.  0.
   -5000001    1    1    2    0    0 -0.10875805260E+03  0.23005500476E+02 -0.16315672098E+04  0.16461206296E+04  0.18800000000E+03 0.  0.
<mgrwt>
<rscale>  0 0.43788844E+03</rscale>
<asrwt>0</asrwt>
<pdfrwt beam="1">  1        2 0.50349380E+00 0.43788844E+03</pdfrwt>
<pdfrwt beam="2">  1       -2 0.19430177E-02 0.43788844E+03</pdfrwt>
<totfact> 0.11177451E+03</totfact>
</mgrwt>
</event>
<event>
 4    1  0.6165923E-005  0.1360288E+04  0.7818608E-02  0.8983077E-01
          2   -1    0    0  501    0  0.00000000000E+00  0.00000000000E+00  0.73233442943E+03  0.73233442944E+03  0.25500000000E-02 0.  1.
         -2   -1    0    0    0  501 -0.00000000000E+00 -0.00000000000E+00 -0.63167296758E+03  0.63167296759E+03  0.25500000000E-02 0. -1.
    5000001    1    1    2    0    0  0.59719223392E+03 -0.26567695645E+03  0.55735540091E+02  0.68240256438E+03  0.18800000000E+03 0.  0.
   -5000001    1    1    2    0    0 -0.59719223392E+03  0.26567695645E+03  0.44925921760E+02  0.68160483265E+03  0.18800000000E+03 0.  0.
<mgrwt>
<rscale>  0 0.13602880E+04</rscale>
<asrwt>0</asrwt>
<pdfrwt beam="1">  1        2 0.10461920E+00 0.13602880E+04</pdfrwt>
<pdfrwt beam="2">  1       -2 0.90238996E-01 0.13602880E+04</pdfrwt>
<totfact> 0.43694429E+01</totfact>
</mgrwt>
</event>
<event>
 4    1  0.6165923E-005  0.4527560E+03  0.7818608E-02  0.1026903E+00
         -2   -1    0    0    0  501 -0.00000000000E+00  0.00000000000E+00  0.16357167140E+02  0.16357167339E+02  0.25500000000E-02 0. -1.
          2   -1    0    0  501    0  0.00000000000E+00 -0.00000000000E+00 -0.31329989385E+04  0.31329989385E+04  0.25500000000E-02 0.  1.
    5000001    1    1    2    0    0 -0.62871993752E+00 -0.11911913415E+03 -0.12704056131E+04  0.12897535366E+04  0.18800000000E+03 0.  0.
   -5000001    1    1    2    0    0  0.62871993752E+00  0.11911913415E+03 -0.18462361582E+04  0.18596025692E+04  0.18800000000E+03 0.  0.
<mgrwt>
<rscale>  0 0.45275595E+03</rscale>
<asrwt>0</asrwt>
<pdfrwt beam="1">  1        2 0.44757089E+00 0.45275595E+03</pdfrwt>
<pdfrwt beam="2">  1       -2 0.23367402E-02 0.45275595E+03</pdfrwt>
<totfact> 0.14156227E+03</totfact>
</mgrwt>
</event>
<event>
 4    1  0.6165923E-005  0.1141682E+04  0.7818608E-02  0.9165492E-01
          2   -1    0    0  501    0  0.00000000000E+00  0.00000000000E+00  0.10815587311E+04  0.10815587312E+04  0.25500000000E-02 0.  1.
         -2   -1    0    0    0  501 -0.00000000000E+00 -0.00000000000E+00 -0.30128673392E+03  0.30128673393E+03  0.25500000000E-02 0. -1.
    5000001    1    1    2    0    0  0.12821786941E+03 -0.51056603971E+03  0.24993688908E+03  0.61231523864E+03  0.18800000000E+03 0.  0.
   -5000001    1    1    2    0    0 -0.12821786941E+03  0.51056603971E+03  0.53033510814E+03  0.77053022645E+03  0.18800000000E+03 0.  0.
<mgrwt>
<rscale>  0 0.11416817E+04</rscale>
<asrwt>0</asrwt>
<pdfrwt beam="1">  1        2 0.15450839E+00 0.11416817E+04</pdfrwt>
<pdfrwt beam="2">  1       -2 0.43040962E-01 0.11416817E+04</pdfrwt>
<totfact> 0.12690931E+02</totfact>
</mgrwt>
</event>
<event>
 4    1  0.6165923E-005  0.5850811E+03  0.7818608E-02  0.9936851E-01
          2   -1    0    0  501    0  0.00000000000E+00  0.00000000000E+00  0.13991110144E+03  0.13991110147E+03  0.25500000000E-02 0.  1.
         -2   -1    0    0    0  501 -0.00000000000E+00 -0.00000000000E+00 -0.61167393992E+03  0.61167393992E+03  0.25500000000E-02 0. -1.
    5000001    1    1    2    0    0 -0.18255909731E+03  0.72532408972E+02 -0.97246438122E+02  0.28877265122E+03  0.18800000000E+03 0.  0.
   -5000001    1    1    2    0    0  0.18255909731E+03 -0.72532408972E+02 -0.37451640035E+03  0.46281239017E+03  0.18800000000E+03 0.  0.
<mgrwt>
<rscale>  0 0.58508110E+03</rscale>
<asrwt>0</asrwt>
<pdfrwt beam="1">  1        2 0.19987301E-01 0.58508110E+03</pdfrwt>
<pdfrwt beam="2">  1       -2 0.87381990E-01 0.58508110E+03</pdfrwt>
<totfact> 0.32509504E+02</totfact>
</mgrwt>
</event>
<event>
 4    1  0.6165923E-005  0.4794021E+03  0.7818608E-02  0.1019300E+00
          2   -1    0    0  501    0  0.00000000000E+00  0.00000000000E+00  0.17030212146E+04  0.17030212146E+04  0.25500000000E-02 0.  1.
         -2   -1    0    0    0  501 -0.00000000000E+00 -0.00000000000E+00 -0.33738038274E+02  0.33738038371E+02  0.25500000000E-02 0. -1.
    5000001    1    1    2    0    0  0.48125331242E+02  0.12046700884E+03  0.57129284541E+03  0.61526243421E+03  0.18800000000E+03 0.  0.
   -5000001    1    1    2    0    0 -0.48125331242E+02 -0.12046700884E+03  0.10979903309E+04  0.11214968188E+04  0.18800000000E+03 0.  0.
<mgrwt>
<rscale>  0 0.47940211E+03</rscale>
<asrwt>0</asrwt>
<pdfrwt beam="1">  1        2 0.24328878E+00 0.47940211E+03</pdfrwt>
<pdfrwt beam="2">  1       -2 0.48197190E-02 0.47940211E+03</pdfrwt>
<totfact> 0.25468960E+03</totfact>
</mgrwt>
</event>
<event>
 4    1  0.6165923E-005  0.1027147E+04  0.7818608E-02  0.9279261E-01
          2   -1    0    0  501    0  0.00000000000E+00  0.00000000000E+00  0.26433994134E+04  0.26433994134E+04  0.25500000000E-02 0.  1.
         -2   -1    0    0    0  501 -0.00000000000E+00 -0.00000000000E+00 -0.99779793200E+02  0.99779793233E+02  0.25500000000E-02 0. -1.
    5000001    1    1    2    0    0 -0.23759995870E+03 -0.11901663645E+03  0.23326948149E+04  0.23552978155E+04  0.18800000000E+03 0.  0.
   -5000001    1    1    2    0    0  0.23759995870E+03  0.11901663645E+03  0.21092480533E+03  0.38788139119E+03  0.18800000000E+03 0.  0.
<mgrwt>
<rscale>  0 0.10271472E+04</rscale>
<asrwt>0</asrwt>
<pdfrwt beam="1">  1        2 0.37762853E+00 0.10271472E+04</pdfrwt>
<pdfrwt beam="2">  1       -2 0.14254255E-01 0.10271472E+04</pdfrwt>
<totfact> 0.14270811E+02</totfact>
</mgrwt>
</event>
<event>
 4    1  0.6165923E-005  0.5325646E+03  0.7818608E-02  0.1005612E+00
         -2   -1    0    0    0  501 -0.00000000000E+00  0.00000000000E+00  0.86558780808E+02  0.86558780846E+02  0.25500000000E-02 0. -1.
          2   -1    0    0  501    0  0.00000000000E+00 -0.00000000000E+00 -0.81916887446E+03  0.81916887447E+03  0.25500000000E-02 0.  1.
    5000001    1    1    2    0    0 -0.27800570884E+02  0.15960338042E+03 -0.53045605057E+03  0.58563959255E+03  0.18800000000E+03 0.  0.
   -5000001    1    1    2    0    0  0.27800570884E+02 -0.15960338042E+03 -0.20215404309E+03  0.32008806276E+03  0.18800000000E+03 0.  0.
<mgrwt>
<rscale>  0 0.53256458E+03</rscale>
<asrwt>0</asrwt>
<pdfrwt beam="1">  1        2 0.11702412E+00 0.53256458E+03</pdfrwt>
<pdfrwt beam="2">  1       -2 0.12365541E-01 0.53256458E+03</pdfrwt>
<totfact> 0.17857306E+03</totfact>
</mgrwt>
</event>
<event>
 4    1  0.6165923E-005  0.6820906E+03  0.7818608E-02  0.9748360E-01
         -2   -1    0    0    0  501 -0.00000000000E+00  0.00000000000E+00  0.33510032925E+03  0.33510032926E+03  0.25500000000E-02 0. -1.
          2   -1    0    0  501    0  0.00000000000E+00 -0.00000000000E+00 -0.34709571621E+03  0.34709571622E+03  0.25500000000E-02 0.  1.
    5000001    1    1    2    0    0 -0.24484357185E+03  0.13589113210E+03  0.44538471222E+02  0.34020942062E+03  0.18800000000E+03 0.  0.
   -5000001    1    1    2    0    0  0.24484357185E+03 -0.13589113210E+03 -0.56533858182E+02  0.34198662486E+03  0.18800000000E+03 0.  0.
<mgrwt>
<rscale>  0 0.68209058E+03</rscale>
<asrwt>0</asrwt>
<pdfrwt beam="1">  1        2 0.49585102E-01 0.68209058E+03</pdfrwt>
<pdfrwt beam="2">  1       -2 0.47871476E-01 0.68209058E+03</pdfrwt>
<totfact> 0.42241852E+02</totfact>
</mgrwt>
</event>
<event>
 4    1  0.6165923E-005  0.4373604E+03  0.7818608E-02  0.1031560E+00
         -2   -1    0    0    0  501 -0.00000000000E+00  0.00000000000E+00  0.72104800813E+02  0.72104800858E+02  0.25500000000E-02 0. -1.
          2   -1    0    0  501    0  0.00000000000E+00 -0.00000000000E+00 -0.66321565430E+03  0.66321565431E+03  0.25500000000E-02 0.  1.
    5000001    1    1    2    0    0  0.29361306552E+02 -0.83596898886E+02 -0.18119818097E+03  0.27573049997E+03  0.18800000000E+03 0.  0.
   -5000001    1    1    2    0    0 -0.29361306552E+02  0.83596898886E+02 -0.40991267252E+03  0.45958995520E+03  0.18800000000E+03 0.  0.
<mgrwt>
<rscale>  0 0.43736041E+03</rscale>
<asrwt>0</asrwt>
<pdfrwt beam="1">  1        2 0.94745090E-01 0.43736041E+03</pdfrwt>
<pdfrwt beam="2">  1       -2 0.10300686E-01 0.43736041E+03</pdfrwt>
<totfact> 0.31184130E+03</totfact>
</mgrwt>
</event>
<event>
 4    1  0.6165923E-005  0.7206570E+03  0.7818608E-02  0.9682544E-01
          2   -1    0    0  501    0  0.00000000000E+00  0.00000000000E+00  0.10417343338E+04  0.10417343338E+04  0.25500000000E-02 0. -1.
         -2   -1    0    0    0  501 -0.00000000000E+00 -0.00000000000E+00 -0.12463507504E+03  0.12463507506E+03  0.25500000000E-02 0.  1.
    5000001    1    1    2    0    0  0.21523072372E+03  0.20963135078E+03  0.35337243160E+03  0.50048540746E+03  0.18800000000E+03 0.  0.
   -5000001    1    1    2    0    0 -0.21523072372E+03 -0.20963135078E+03  0.56372682716E+03  0.66588400140E+03  0.18800000000E+03 0.  0.
<mgrwt>
<rscale>  0 0.72065702E+03</rscale>
<asrwt>0</asrwt>
<pdfrwt beam="1">  1        2 0.14881918E+00 0.72065702E+03</pdfrwt>
<pdfrwt beam="2">  1       -2 0.17805012E-01 0.72065702E+03</pdfrwt>
<totfact> 0.69487341E+02</totfact>
</mgrwt>
</event>
<event>
 4    1  0.6165923E-005  0.8099809E+03  0.7818608E-02  0.9545682E-01
          2   -1    0    0  501    0  0.00000000000E+00  0.00000000000E+00  0.26081767951E+04  0.26081767951E+04  0.25500000000E-02 0.  1.
         -2   -1    0    0    0  501 -0.00000000000E+00 -0.00000000000E+00 -0.62885790658E+02  0.62885790710E+02  0.25500000000E-02 0. -1.
    5000001    1    1    2    0    0 -0.22488998553E+03 -0.12307722021E+03  0.21000279527E+04  0.21239550160E+04  0.18800000000E+03 0.  0.
   -5000001    1    1    2    0    0  0.22488998553E+03  0.12307722021E+03  0.44526305169E+03  0.54710756979E+03  0.18800000000E+03 0.  0.
<mgrwt>
<rscale>  0 0.80998089E+03</rscale>
<asrwt>0</asrwt>
<pdfrwt beam="1">  1        2 0.37259657E+00 0.80998089E+03</pdfrwt>
<pdfrwt beam="2">  1       -2 0.89836873E-02 0.80998089E+03</pdfrwt>
<totfact> 0.32494954E+02</totfact>
</mgrwt>
</event>
<event>
 4    1  0.6165923E-005  0.5402282E+03  0.7818608E-02  0.1003781E+00
          2   -1    0    0  501    0  0.00000000000E+00  0.00000000000E+00  0.36361640539E+03  0.36361640540E+03  0.25500000000E-02 0.  1.
         -2   -1    0    0    0  501 -0.00000000000E+00 -0.00000000000E+00 -0.20065545269E+03  0.20065545270E+03  0.25500000000E-02 0. -1.
    5000001    1    1    2    0    0  0.13851602386E+03  0.10974351617E+03 -0.19970107546E+01  0.25802774320E+03  0.18800000000E+03 0.  0.
   -5000001    1    1    2    0    0 -0.13851602386E+03 -0.10974351617E+03  0.16495796346E+03  0.30624411491E+03  0.18800000000E+03 0.  0.
<mgrwt>
<rscale>  0 0.54022815E+03</rscale>
<asrwt>0</asrwt>
<pdfrwt beam="1">  1        2 0.51945200E-01 0.54022815E+03</pdfrwt>
<pdfrwt beam="2">  1       -2 0.28665065E-01 0.54022815E+03</pdfrwt>
<totfact> 0.10746441E+03</totfact>
</mgrwt>
</event>
<event>
 4    1  0.6165923E-005  0.5381442E+03  0.7818608E-02  0.1004276E+00
         -2   -1    0    0    0  501 -0.00000000000E+00  0.00000000000E+00  0.10633073280E+04  0.10633073280E+04  0.25500000000E-02 0. -1.
          2   -1    0    0  501    0  0.00000000000E+00 -0.00000000000E+00 -0.68089245173E+02  0.68089245221E+02  0.25500000000E-02 0.  1.
    5000001    1    1    2    0    0  0.14570551435E+03  0.10773885716E+03  0.36106545809E+03  0.44558952331E+03  0.18800000000E+03 0.  0.
   -5000001    1    1    2    0    0 -0.14570551435E+03 -0.10773885716E+03  0.63415262470E+03  0.68580704988E+03  0.18800000000E+03 0.  0.
<mgrwt>
<rscale>  0 0.53814419E+03</rscale>
<asrwt>0</asrwt>
<pdfrwt beam="1">  1        2 0.97270350E-02 0.53814419E+03</pdfrwt>
<pdfrwt beam="2">  1       -2 0.15190105E+00 0.53814419E+03</pdfrwt>
<totfact> 0.20296430E+02</totfact>
</mgrwt>
</event>
<event>
 4    1  0.6165923E-005  0.6362191E+03  0.7818608E-02  0.9832987E-01
         -2   -1    0    0    0  501 -0.00000000000E+00  0.00000000000E+00  0.87527096075E+02  0.87527096112E+02  0.25500000000E-02 0. -1.
          2   -1    0    0  501    0  0.00000000000E+00 -0.00000000000E+00 -0.11561414092E+04  0.11561414092E+04  0.25500000000E-02 0.  1.
    5000001    1    1    2    0    0 -0.75607835180E+02  0.21524390052E+03 -0.76396859900E+03  0.81916939745E+03  0.18800000000E+03 0.  0.
   -5000001    1    1    2    0    0  0.75607835180E+02 -0.21524390052E+03 -0.30464571415E+03  0.42449910790E+03  0.18800000000E+03 0.  0.
<mgrwt>
<rscale>  0 0.63621915E+03</rscale>
<asrwt>0</asrwt>
<pdfrwt beam="1">  1        2 0.16516305E+00 0.63621915E+03</pdfrwt>
<pdfrwt beam="2">  1       -2 0.12503872E-01 0.63621915E+03</pdfrwt>
<totfact> 0.10843084E+03</totfact>
</mgrwt>
</event>
<event>
 4    1  0.6165923E-005  0.5243631E+03  0.7818608E-02  0.1007608E+00
         -2   -1    0    0    0  501 -0.00000000000E+00  0.00000000000E+00  0.46444870294E+03  0.46444870294E+03  0.25500000000E-02 0. -1.
          2   -1    0    0  501    0  0.00000000000E+00 -0.00000000000E+00 -0.14800160442E+03  0.14800160444E+03  0.25500000000E-02 0.  1.
    5000001    1    1    2    0    0 -0.42042241378E+02  0.15197002758E+03  0.26611384007E+03  0.36197101433E+03  0.18800000000E+03 0.  0.
   -5000001    1    1    2    0    0  0.42042241378E+02 -0.15197002758E+03  0.50333258450E+02  0.25047929305E+03  0.18800000000E+03 0.  0.
<mgrwt>
<rscale>  0 0.52436305E+03</rscale>
<asrwt>0</asrwt>
<pdfrwt beam="1">  1        2 0.21143086E-01 0.52436305E+03</pdfrwt>
<pdfrwt beam="2">  1       -2 0.66349815E-01 0.52436305E+03</pdfrwt>
<totfact> 0.56024958E+02</totfact>
</mgrwt>
</event>
<event>
 4    1  0.6165923E-005  0.8593750E+03  0.7818608E-02  0.9477840E-01
         -2   -1    0    0    0  501 -0.00000000000E+00  0.00000000000E+00  0.10337464840E+03  0.10337464843E+03  0.25500000000E-02 0. -1.
          2   -1    0    0  501    0  0.00000000000E+00 -0.00000000000E+00 -0.17860409612E+04  0.17860409612E+04  0.25500000000E-02 0.  1.
    5000001    1    1    2    0    0  0.19566341433E+03  0.32710223623E+03 -0.98051139618E+03  0.10686564662E+04  0.18800000000E+03 0.  0.
   -5000001    1    1    2    0    0 -0.19566341433E+03 -0.32710223623E+03 -0.70215491664E+03  0.82075914349E+03  0.18800000000E+03 0.  0.
<mgrwt>
<rscale>  0 0.85937502E+03</rscale>
<asrwt>0</asrwt>
<pdfrwt beam="1">  1        2 0.25514869E+00 0.85937502E+03</pdfrwt>
<pdfrwt beam="2">  1       -2 0.14767808E-01 0.85937502E+03</pdfrwt>
<totfact> 0.37540447E+02</totfact>
</mgrwt>
</event>
<event>
 4    1  0.6165923E-005  0.6257659E+03  0.7818608E-02  0.9853346E-01
         -2   -1    0    0    0  501 -0.00000000000E+00  0.00000000000E+00  0.73972515268E+03  0.73972515268E+03  0.25500000000E-02 0. -1.
          2   -1    0    0  501    0  0.00000000000E+00 -0.00000000000E+00 -0.13234069517E+03  0.13234069519E+03  0.25500000000E-02 0.  1.
    5000001    1    1    2    0    0  0.19272829848E+03 -0.14947976833E+03  0.38082433347E+03  0.48975460298E+03  0.18800000000E+03 0.  0.
   -5000001    1    1    2    0    0 -0.19272829848E+03  0.14947976833E+03  0.22656012404E+03  0.38231124490E+03  0.18800000000E+03 0.  0.
<mgrwt>
<rscale>  0 0.62576590E+03</rscale>
<asrwt>0</asrwt>
<pdfrwt beam="1">  1        2 0.18905813E-01 0.62576590E+03</pdfrwt>
<pdfrwt beam="2">  1       -2 0.10567503E+00 0.62576590E+03</pdfrwt>
<totfact> 0.22239908E+02</totfact>
</mgrwt>
</event>
<event>
 4    1  0.6165923E-005  0.6851569E+03  0.7818608E-02  0.9742958E-01
          2   -1    0    0  501    0  0.00000000000E+00  0.00000000000E+00  0.67040191304E+03  0.67040191305E+03  0.25500000000E-02 0.  1.
         -2   -1    0    0    0  501 -0.00000000000E+00 -0.00000000000E+00 -0.17505917356E+03  0.17505917358E+03  0.25500000000E-02 0. -1.
    5000001    1    1    2    0    0  0.13160149908E+03 -0.75024796752E+02  0.54757444235E+03  0.59843917369E+03  0.18800000000E+03 0.  0.
   -5000001    1    1    2    0    0 -0.13160149908E+03  0.75024796752E+02 -0.52231702865E+02  0.24702191294E+03  0.18800000000E+03 0.  0.
<mgrwt>
<rscale>  0 0.68515693E+03</rscale>
<asrwt>0</asrwt>
<pdfrwt beam="1">  1        2 0.95771704E-01 0.68515693E+03</pdfrwt>
<pdfrwt beam="2">  1       -2 0.25008453E-01 0.68515693E+03</pdfrwt>
<totfact> 0.68235981E+02</totfact>
</mgrwt>
</event>
<event>
 4    1  0.6165923E-005  0.6426764E+03  0.7818608E-02  0.9820619E-01
         -2   -1    0    0    0  501 -0.00000000000E+00  0.00000000000E+00  0.36516460513E+03  0.36516460514E+03  0.25500000000E-02 0. -1.
          2   -1    0    0  501    0  0.00000000000E+00 -0.00000000000E+00 -0.28277179295E+03  0.28277179296E+03  0.25500000000E-02 0.  1.
    5000001    1    1    2    0    0  0.21655517377E+03 -0.80878766184E+02 -0.80107634887E+02  0.30854294883E+03  0.18800000000E+03 0.  0.
   -5000001    1    1    2    0    0 -0.21655517377E+03  0.80878766184E+02  0.16250044707E+03  0.33939344927E+03  0.18800000000E+03 0.  0.
<mgrwt>
<rscale>  0 0.64267644E+03</rscale>
<asrwt>0</asrwt>
<pdfrwt beam="1">  1        2 0.40395970E-01 0.64267644E+03</pdfrwt>
<pdfrwt beam="2">  1       -2 0.52166372E-01 0.64267644E+03</pdfrwt>
<totfact> 0.44558983E+02</totfact>
</mgrwt>
</event>
<event>
 4    1  0.6165923E-005  0.5095800E+03  0.7818608E-02  0.1011308E+00
          2   -1    0    0  501    0  0.00000000000E+00  0.00000000000E+00  0.67084511528E+02  0.67084511577E+02  0.25500000000E-02 0.  1.
         -2   -1    0    0    0  501 -0.00000000000E+00 -0.00000000000E+00 -0.96770390219E+03  0.96770390219E+03  0.25500000000E-02 0. -1.
    5000001    1    1    2    0    0 -0.17142138591E+03  0.12863968199E+02 -0.46008444855E+03  0.52590158111E+03  0.18800000000E+03 0.  0.
   -5000001    1    1    2    0    0  0.17142138591E+03 -0.12863968199E+02 -0.44053494211E+03  0.50888683265E+03  0.18800000000E+03 0.  0.
<mgrwt>
<rscale>  0 0.50958000E+03</rscale>
<asrwt>0</asrwt>
<pdfrwt beam="1">  1        2 0.95835022E-02 0.50958000E+03</pdfrwt>
<pdfrwt beam="2">  1       -2 0.13824341E+00 0.50958000E+03</pdfrwt>
<totfact> 0.26437161E+02</totfact>
</mgrwt>
</event>
<event>
 4    1  0.6165923E-005  0.7467764E+03  0.7818608E-02  0.9640421E-01
          2   -1    0    0  501    0  0.00000000000E+00  0.00000000000E+00  0.77837408212E+03  0.77837408212E+03  0.25500000000E-02 0. -1.
         -2   -1    0    0    0  501 -0.00000000000E+00 -0.00000000000E+00 -0.17911536786E+03  0.17911536788E+03  0.25500000000E-02 0.  1.
    5000001    1    1    2    0    0 -0.39625155717E+02  0.21947371857E+03  0.59850243915E+03  0.66579879527E+03  0.18800000000E+03 0.  0.
   -5000001    1    1    2    0    0  0.39625155717E+02 -0.21947371857E+03  0.75627510255E+00  0.29169065474E+03  0.18800000000E+03 0.  0.
<mgrwt>
<rscale>  0 0.74677643E+03</rscale>
<asrwt>0</asrwt>
<pdfrwt beam="1">  1        2 0.11119630E+00 0.74677643E+03</pdfrwt>
<pdfrwt beam="2">  1       -2 0.25587910E-01 0.74677643E+03</pdfrwt>
<totfact> 0.54285459E+02</totfact>
</mgrwt>
</event>
<event>
 4    1  0.6165923E-005  0.4916462E+03  0.7818608E-02  0.1015983E+00
         -2   -1    0    0    0  501 -0.00000000000E+00  0.00000000000E+00  0.88381630387E+02  0.88381630424E+02  0.25500000000E-02 0. -1.
          2   -1    0    0  501    0  0.00000000000E+00 -0.00000000000E+00 -0.68372813818E+03  0.68372813818E+03  0.25500000000E-02 0.  1.
    5000001    1    1    2    0    0 -0.56637930080E+02 -0.13018741659E+03 -0.40792330825E+03  0.47106479806E+03  0.18800000000E+03 0.  0.
   -5000001    1    1    2    0    0  0.56637930080E+02  0.13018741659E+03 -0.18742319954E+03  0.30104497054E+03  0.18800000000E+03 0.  0.
<mgrwt>
<rscale>  0 0.49164625E+03</rscale>
<asrwt>0</asrwt>
<pdfrwt beam="1">  1        2 0.97675446E-01 0.49164625E+03</pdfrwt>
<pdfrwt beam="2">  1       -2 0.12625948E-01 0.49164625E+03</pdfrwt>
<totfact> 0.21600158E+03</totfact>
</mgrwt>
</event>
<event>
 4    1  0.6165923E-005  0.4401940E+03  0.7818608E-02  0.1030687E+00
          2   -1    0    0  501    0  0.00000000000E+00  0.00000000000E+00  0.16543713678E+03  0.16543713680E+03  0.25500000000E-02 0.  1.
         -2   -1    0    0    0  501 -0.00000000000E+00 -0.00000000000E+00 -0.29281625182E+03  0.29281625183E+03  0.25500000000E-02 0. -1.
    5000001    1    1    2    0    0  0.11258296094E+03 -0.35841277355E+01 -0.42586923423E+02  0.22326086785E+03  0.18800000000E+03 0.  0.
   -5000001    1    1    2    0    0 -0.11258296094E+03  0.35841277355E+01 -0.84792191618E+02  0.23499252079E+03  0.18800000000E+03 0.  0.
<mgrwt>
<rscale>  0 0.44019397E+03</rscale>
<asrwt>0</asrwt>
<pdfrwt beam="1">  1        2 0.23633877E-01 0.44019397E+03</pdfrwt>
<pdfrwt beam="2">  1       -2 0.41830893E-01 0.44019397E+03</pdfrwt>
<totfact> 0.12633389E+03</totfact>
</mgrwt>
</event>
<event>
 4    1  0.6165923E-005  0.1009008E+04  0.7818608E-02  0.9298720E-01
         -2   -1    0    0    0  501 -0.00000000000E+00  0.00000000000E+00  0.79458915004E+02  0.79458915045E+02  0.25500000000E-02 0. -1.
          2   -1    0    0  501    0  0.00000000000E+00 -0.00000000000E+00 -0.32032204135E+04  0.32032204135E+04  0.25500000000E-02 0.  1.
    5000001    1    1    2    0    0 -0.45109439236E+03  0.12480702614E+03 -0.15266189306E+04  0.16077849060E+04  0.18800000000E+03 0.  0.
   -5000001    1    1    2    0    0  0.45109439236E+03 -0.12480702614E+03 -0.15971425679E+04  0.16748944226E+04  0.18800000000E+03 0.  0.
<mgrwt>
<rscale>  0 0.10090083E+04</rscale>
<asrwt>0</asrwt>
<pdfrwt beam="1">  1        2 0.45760283E+00 0.10090083E+04</pdfrwt>
<pdfrwt beam="2">  1       -2 0.11351276E-01 0.10090083E+04</pdfrwt>
<totfact> 0.10328364E+02</totfact>
</mgrwt>
</event>
<event>
 4    1  0.6165923E-005  0.6931083E+03  0.7818608E-02  0.9729091E-01
         -2   -1    0    0    0  501 -0.00000000000E+00  0.00000000000E+00  0.60043191156E+02  0.60043191210E+02  0.25500000000E-02 0. -1.
          2   -1    0    0  501    0  0.00000000000E+00 -0.00000000000E+00 -0.20002233034E+04  0.20002233034E+04  0.25500000000E-02 0.  1.
    5000001    1    1    2    0    0 -0.27183613835E+02 -0.28985582097E+03 -0.96810847418E+03  0.10282671655E+04  0.18800000000E+03 0.  0.
   -5000001    1    1    2    0    0  0.27183613835E+02  0.28985582097E+03 -0.97207163802E+03  0.10319993291E+04  0.18800000000E+03 0.  0.
<mgrwt>
<rscale>  0 0.69310833E+03</rscale>
<asrwt>0</asrwt>
<pdfrwt beam="1">  1        2 0.28574615E+00 0.69310833E+03</pdfrwt>
<pdfrwt beam="2">  1       -2 0.85776000E-02 0.69310833E+03</pdfrwt>
<totfact> 0.72213172E+02</totfact>
</mgrwt>
</event>
<event>
 4    1  0.6165923E-005  0.5845705E+03  0.7818608E-02  0.9937945E-01
         -2   -1    0    0    0  501 -0.00000000000E+00  0.00000000000E+00  0.39417752538E+02  0.39417752621E+02  0.25500000000E-02 0. -1.
          2   -1    0    0  501    0  0.00000000000E+00 -0.00000000000E+00 -0.21673146940E+04  0.21673146940E+04  0.25500000000E-02 0.  1.
    5000001    1    1    2    0    0  0.19669925702E+03 -0.59079437868E+02 -0.72830141524E+03  0.77971015713E+03  0.18800000000E+03 0.  0.
   -5000001    1    1    2    0    0 -0.19669925702E+03  0.59079437868E+02 -0.13995955262E+04  0.14270222895E+04  0.18800000000E+03 0.  0.
<mgrwt>
<rscale>  0 0.58457052E+03</rscale>
<asrwt>0</asrwt>
<pdfrwt beam="1">  1        2 0.30961631E+00 0.58457052E+03</pdfrwt>
<pdfrwt beam="2">  1       -2 0.56311089E-02 0.58457052E+03</pdfrwt>
<totfact> 0.11654016E+03</totfact>
</mgrwt>
</event>
<event>
 4    1  0.6165923E-005  0.4169524E+03  0.7818608E-02  0.1038063E+00
         -2   -1    0    0    0  501 -0.00000000000E+00  0.00000000000E+00  0.21339251351E+03  0.21339251353E+03  0.25500000000E-02 0. -1.
          2   -1    0    0  501    0  0.00000000000E+00 -0.00000000000E+00 -0.20367311160E+03  0.20367311161E+03  0.25500000000E-02 0.  1.
    5000001    1    1    2    0    0 -0.84181410734E+02  0.31857572268E+02  0.74733116520E+00  0.20843697687E+03  0.18800000000E+03 0.  0.
   -5000001    1    1    2    0    0  0.84181410734E+02 -0.31857572268E+02  0.89720707463E+01  0.20862864827E+03  0.18800000000E+03 0.  0.
<mgrwt>
<rscale>  0 0.41695236E+03</rscale>
<asrwt>0</asrwt>
<pdfrwt beam="1">  1        2 0.29096159E-01 0.41695236E+03</pdfrwt>
<pdfrwt beam="2">  1       -2 0.30484645E-01 0.41695236E+03</pdfrwt>
<totfact> 0.18164051E+03</totfact>
</mgrwt>
</event>
<event>
 4    1  0.6165923E-005  0.9299689E+03  0.7818608E-02  0.9388875E-01
          2   -1    0    0  501    0  0.00000000000E+00  0.00000000000E+00  0.18902586124E+04  0.18902586124E+04  0.25500000000E-02 0.  1.
         -2   -1    0    0    0  501 -0.00000000000E+00 -0.00000000000E+00 -0.11438145488E+03  0.11438145490E+03  0.25500000000E-02 0. -1.
    5000001    1    1    2    0    0  0.27389162956E+03 -0.32469755753E+03  0.93218886482E+03  0.10415206231E+04  0.18800000000E+03 0.  0.
   -5000001    1    1    2    0    0 -0.27389162956E+03  0.32469755753E+03  0.84368829274E+03  0.96311944426E+03  0.18800000000E+03 0.  0.
<mgrwt>
<rscale>  0 0.92996888E+03</rscale>
<asrwt>0</asrwt>
<pdfrwt beam="1">  1        2 0.27003693E+00 0.92996888E+03</pdfrwt>
<pdfrwt beam="2">  1       -2 0.16340209E-01 0.92996888E+03</pdfrwt>
<totfact> 0.27834293E+02</totfact>
</mgrwt>
</event>
<event>
 4    1  0.6165923E-005  0.6085558E+03  0.7818608E-02  0.9887813E-01
         -2   -1    0    0    0  501 -0.00000000000E+00  0.00000000000E+00  0.10609834106E+04  0.10609834106E+04  0.25500000000E-02 0. -1.
          2   -1    0    0  501    0  0.00000000000E+00 -0.00000000000E+00 -0.87263431178E+02  0.87263431215E+02  0.25500000000E-02 0.  1.
    5000001    1    1    2    0    0  0.23264737541E+03  0.26477559470E+02  0.39413207087E+03  0.49548960810E+03  0.18800000000E+03 0.  0.
   -5000001    1    1    2    0    0 -0.23264737541E+03 -0.26477559470E+02  0.57958790855E+03  0.65275723372E+03  0.18800000000E+03 0.  0.
<mgrwt>
<rscale>  0 0.60855584E+03</rscale>
<asrwt>0</asrwt>
<pdfrwt beam="1">  1        2 0.12466205E-01 0.60855584E+03</pdfrwt>
<pdfrwt beam="2">  1       -2 0.15156905E+00 0.60855584E+03</pdfrwt>
<totfact> 0.14915761E+02</totfact>
</mgrwt>
</event>
<event>
 4    1  0.6165923E-005  0.3956237E+03  0.7818608E-02  0.1045306E+00
         -2   -1    0    0    0  501 -0.00000000000E+00  0.00000000000E+00  0.67010112807E+02  0.67010112855E+02  0.25500000000E-02 0. -1.
          2   -1    0    0  501    0  0.00000000000E+00 -0.00000000000E+00 -0.58393464461E+03  0.58393464462E+03  0.25500000000E-02 0.  1.
    5000001    1    1    2    0    0 -0.41636493972E+02 -0.22446336406E+01 -0.33290274134E+03  0.38458662379E+03  0.18800000000E+03 0.  0.
   -5000001    1    1    2    0    0  0.41636493972E+02  0.22446336406E+01 -0.18402179047E+03  0.26635813368E+03  0.18800000000E+03 0.  0.
<mgrwt>
<rscale>  0 0.39562369E+03</rscale>
<asrwt>0</asrwt>
<pdfrwt beam="1">  1        2 0.83419232E-01 0.39562369E+03</pdfrwt>
<pdfrwt beam="2">  1       -2 0.95728736E-02 0.39562369E+03</pdfrwt>
<totfact> 0.40658080E+03</totfact>
</mgrwt>
</event>
<event>
 4    1  0.6165923E-005  0.4283233E+03  0.7818608E-02  0.1034391E+00
          2   -1    0    0  501    0  0.00000000000E+00  0.00000000000E+00  0.62669780019E+03  0.62669780019E+03  0.25500000000E-02 0.  1.
         -2   -1    0    0    0  501 -0.00000000000E+00 -0.00000000000E+00 -0.73185538092E+02  0.73185538136E+02  0.25500000000E-02 0. -1.
    5000001    1    1    2    0    0 -0.73648176406E+02 -0.19963865948E+02  0.38876139894E+03  0.43852255944E+03  0.18800000000E+03 0.  0.
   -5000001    1    1    2    0    0  0.73648176406E+02  0.19963865948E+02  0.16475086316E+03  0.26136077889E+03  0.18800000000E+03 0.  0.
<mgrwt>
<rscale>  0 0.42832332E+03</rscale>
<asrwt>0</asrwt>
<pdfrwt beam="1">  1        2 0.89528259E-01 0.42832332E+03</pdfrwt>
<pdfrwt beam="2">  1       -2 0.10455077E-01 0.42832332E+03</pdfrwt>
<totfact> 0.32545667E+03</totfact>
</mgrwt>
</event>
<event>
 4    1  0.6165923E-005  0.6839056E+03  0.7818608E-02  0.9745159E-01
         -2   -1    0    0    0  501 -0.00000000000E+00  0.00000000000E+00  0.87911938000E+02  0.87911938037E+02  0.25500000000E-02 0. -1.
          2   -1    0    0  501    0  0.00000000000E+00 -0.00000000000E+00 -0.13301006064E+04  0.13301006064E+04  0.25500000000E-02 0.  1.
    5000001    1    1    2    0    0 -0.14036385632E+03 -0.24817557862E+03 -0.58550708303E+03  0.67783159727E+03  0.18800000000E+03 0.  0.
   -5000001    1    1    2    0    0  0.14036385632E+03  0.24817557862E+03 -0.65668158537E+03  0.74018094717E+03  0.18800000000E+03 0.  0.
<mgrwt>
<rscale>  0 0.68390561E+03</rscale>
<asrwt>0</asrwt>
<pdfrwt beam="1">  1        2 0.19001436E+00 0.68390561E+03</pdfrwt>
<pdfrwt beam="2">  1       -2 0.12558849E-01 0.68390561E+03</pdfrwt>
<totfact> 0.86040396E+02</totfact>
</mgrwt>
</event>
<event>
 4    1  0.6165923E-005  0.4321655E+03  0.7818608E-02  0.1033178E+00
         -2   -1    0    0    0  501 -0.00000000000E+00  0.00000000000E+00  0.21302626316E+02  0.21302626468E+02  0.25500000000E-02 0. -1.
          2   -1    0    0  501    0  0.00000000000E+00 -0.00000000000E+00 -0.21918309650E+04  0.21918309650E+04  0.25500000000E-02 0.  1.
    5000001    1    1    2    0    0 -0.82353556858E+02 -0.32288964066E+02 -0.13892254078E+04  0.14046764464E+04  0.18800000000E+03 0.  0.
   -5000001    1    1    2    0    0  0.82353556858E+02  0.32288964066E+02 -0.78130293088E+03  0.80845714501E+03  0.18800000000E+03 0.  0.
<mgrwt>
<rscale>  0 0.43216551E+03</rscale>
<asrwt>0</asrwt>
<pdfrwt beam="1">  1        2 0.31311857E+00 0.43216551E+03</pdfrwt>
<pdfrwt beam="2">  1       -2 0.30432337E-02 0.43216551E+03</pdfrwt>
<totfact> 0.29322645E+03</totfact>
</mgrwt>
</event>
<event>
 4    1  0.6165923E-005  0.4804380E+03  0.7818608E-02  0.1019015E+00
         -2   -1    0    0    0  501 -0.00000000000E+00  0.00000000000E+00  0.12176094858E+03  0.12176094861E+03  0.25500000000E-02 0. -1.
          2   -1    0    0  501    0  0.00000000000E+00 -0.00000000000E+00 -0.47392175065E+03  0.47392175066E+03  0.25500000000E-02 0.  1.
    5000001    1    1    2    0    0  0.48019658341E+02 -0.10191554104E+03 -0.54165402240E+02  0.22576659605E+03  0.18800000000E+03 0.  0.
   -5000001    1    1    2    0    0 -0.48019658341E+02  0.10191554104E+03 -0.29799539983E+03  0.36991610321E+03  0.18800000000E+03 0.  0.
<mgrwt>
<rscale>  0 0.48043797E+03</rscale>
<asrwt>0</asrwt>
<pdfrwt beam="1">  1        2 0.67703106E-01 0.48043797E+03</pdfrwt>
<pdfrwt beam="2">  1       -2 0.17394422E-01 0.48043797E+03</pdfrwt>
<totfact> 0.19313341E+03</totfact>
</mgrwt>
</event>
<event>
 4    1  0.6165923E-005  0.5447952E+03  0.7818608E-02  0.1002706E+00
         -2   -1    0    0    0  501 -0.00000000000E+00  0.00000000000E+00  0.19781736746E+03  0.19781736747E+03  0.25500000000E-02 0. -1.
          2   -1    0    0  501    0  0.00000000000E+00 -0.00000000000E+00 -0.37509568963E+03  0.37509568964E+03  0.25500000000E-02 0.  1.
    5000001    1    1    2    0    0 -0.82803051672E+02  0.10337191740E+03 -0.24216852692E+03  0.33396361195E+03  0.18800000000E+03 0.  0.
   -5000001    1    1    2    0    0  0.82803051672E+02 -0.10337191740E+03  0.64890204748E+02  0.23894944517E+03  0.18800000000E+03 0.  0.
<mgrwt>
<rscale>  0 0.54479516E+03</rscale>
<asrwt>0</asrwt>
<pdfrwt beam="1">  1        2 0.53585098E-01 0.54479516E+03</pdfrwt>
<pdfrwt beam="2">  1       -2 0.28259624E-01 0.54479516E+03</pdfrwt>
<totfact> 0.10657667E+03</totfact>
</mgrwt>
</event>
<event>
 4    1  0.6165923E-005  0.7215334E+03  0.7818608E-02  0.9681100E-01
         -2   -1    0    0    0  501 -0.00000000000E+00  0.00000000000E+00  0.31106624128E+02  0.31106624232E+02  0.25500000000E-02 0. -1.
          2   -1    0    0  501    0  0.00000000000E+00 -0.00000000000E+00 -0.41840801362E+04  0.41840801362E+04  0.25500000000E-02 0.  1.
    5000001    1    1    2    0    0 -0.24982757668E+03 -0.15521975714E+03 -0.15442048037E+04  0.15831675422E+04  0.18800000000E+03 0.  0.
   -5000001    1    1    2    0    0  0.24982757668E+03  0.15521975714E+03 -0.26087687084E+04  0.26320192182E+04  0.18800000000E+03 0.  0.
<mgrwt>
<rscale>  0 0.72153339E+03</rscale>
<asrwt>0</asrwt>
<pdfrwt beam="1">  1        2 0.59772537E+00 0.72153339E+03</pdfrwt>
<pdfrwt beam="2">  1       -2 0.44438061E-02 0.72153339E+03</pdfrwt>
<totfact> 0.11516408E+02</totfact>
</mgrwt>
</event>
<event>
 4    1  0.6165923E-005  0.1082401E+04  0.7818608E-02  0.9222517E-01
         -2   -1    0    0    0  501 -0.00000000000E+00  0.00000000000E+00  0.22185715036E+03  0.22185715038E+03  0.25500000000E-02 0. -1.
          2   -1    0    0  501    0  0.00000000000E+00 -0.00000000000E+00 -0.13202094362E+04  0.13202094362E+04  0.25500000000E-02 0.  1.
    5000001    1    1    2    0    0 -0.96806798008E+02  0.38474611202E+03 -0.10000411158E+04  0.10921663610E+04  0.18800000000E+03 0.  0.
   -5000001    1    1    2    0    0  0.96806798008E+02 -0.38474611202E+03 -0.98311170124E+02  0.44990022564E+03  0.18800000000E+03 0.  0.
<mgrwt>
<rscale>  0 0.10824009E+04</rscale>
<asrwt>0</asrwt>
<pdfrwt beam="1">  1        2 0.18860134E+00 0.10824009E+04</pdfrwt>
<pdfrwt beam="2">  1       -2 0.31693879E-01 0.10824009E+04</pdfrwt>
<totfact> 0.16786846E+02</totfact>
</mgrwt>
</event>
<event>
 4    1  0.6165923E-005  0.5230730E+03  0.7818608E-02  0.1007926E+00
          2   -1    0    0  501    0  0.00000000000E+00  0.00000000000E+00  0.24603259491E+04  0.24603259491E+04  0.25500000000E-02 0.  1.
         -2   -1    0    0    0  501 -0.00000000000E+00 -0.00000000000E+00 -0.27801739796E+02  0.27801739913E+02  0.25500000000E-02 0. -1.
    5000001    1    1    2    0    0  0.25313808564E+02 -0.14455981984E+03  0.70573598686E+03  0.74494671861E+03  0.18800000000E+03 0.  0.
   -5000001    1    1    2    0    0 -0.25313808564E+02  0.14455981984E+03  0.17267882225E+04  0.17431809705E+04  0.18800000000E+03 0.  0.
<mgrwt>
<rscale>  0 0.52307300E+03</rscale>
<asrwt>0</asrwt>
<pdfrwt beam="1">  1        2 0.35147495E+00 0.52307300E+03</pdfrwt>
<pdfrwt beam="2">  1       -2 0.39716792E-02 0.52307300E+03</pdfrwt>
<totfact> 0.14266027E+03</totfact>
</mgrwt>
</event>
<event>
 4    1  0.6165923E-005  0.6546336E+03  0.7818608E-02  0.9798123E-01
          2   -1    0    0  501    0  0.00000000000E+00  0.00000000000E+00  0.60664446772E+03  0.60664446773E+03  0.25500000000E-02 0.  1.
         -2   -1    0    0    0  501 -0.00000000000E+00 -0.00000000000E+00 -0.17660474634E+03  0.17660474636E+03  0.25500000000E-02 0. -1.
    5000001    1    1    2    0    0 -0.22332249672E+03  0.12714168731E+03  0.12425878015E+03  0.34179261349E+03  0.18800000000E+03 0.  0.
   -5000001    1    1    2    0    0  0.22332249672E+03 -0.12714168731E+03  0.30578094123E+03  0.44145660060E+03  0.18800000000E+03 0.  0.
<mgrwt>
<rscale>  0 0.65463361E+03</rscale>
<asrwt>0</asrwt>
<pdfrwt beam="1">  1        2 0.86663494E-01 0.65463361E+03</pdfrwt>
<pdfrwt beam="2">  1       -2 0.25229250E-01 0.65463361E+03</pdfrwt>
<totfact> 0.75759041E+02</totfact>
</mgrwt>
</event>
<event>
 4    1  0.6165923E-005  0.5575603E+03  0.7818608E-02  0.9997590E-01
         -2   -1    0    0    0  501 -0.00000000000E+00  0.00000000000E+00  0.37997355061E+03  0.37997355061E+03  0.25500000000E-02 0.  1.
          2   -1    0    0  501    0  0.00000000000E+00 -0.00000000000E+00 -0.20453626723E+03  0.20453626725E+03  0.25500000000E-02 0. -1.
    5000001    1    1    2    0    0 -0.16684115485E+03  0.11675366382E+03  0.11929045135E+03  0.30173100728E+03  0.18800000000E+03 0.  0.
   -5000001    1    1    2    0    0  0.16684115485E+03 -0.11675366382E+03  0.56146832030E+02  0.28277881059E+03  0.18800000000E+03 0.  0.
<mgrwt>
<rscale>  0 0.55756030E+03</rscale>
<asrwt>0</asrwt>
<pdfrwt beam="1">  1        2 0.29219467E-01 0.55756030E+03</pdfrwt>
<pdfrwt beam="2">  1       -2 0.54281935E-01 0.55756030E+03</pdfrwt>
<totfact> 0.59005971E+02</totfact>
</mgrwt>
</event>
<event>
 4    1  0.6165923E-005  0.8604095E+03  0.7818608E-02  0.9476471E-01
          2   -1    0    0  501    0  0.00000000000E+00  0.00000000000E+00  0.78223893837E+03  0.78223893838E+03  0.25500000000E-02 0.  1.
         -2   -1    0    0    0  501 -0.00000000000E+00 -0.00000000000E+00 -0.23659792411E+03  0.23659792412E+03  0.25500000000E-02 0. -1.
    5000001    1    1    2    0    0 -0.25375558877E+03 -0.12064551491E+02 -0.72804893980E+02  0.32431775286E+03  0.18800000000E+03 0.  0.
   -5000001    1    1    2    0    0  0.25375558877E+03  0.12064551491E+02  0.61844590824E+03  0.69451910964E+03  0.18800000000E+03 0.  0.
<mgrwt>
<rscale>  0 0.86040946E+03</rscale>
<asrwt>0</asrwt>
<pdfrwt beam="1">  1        2 0.11174842E+00 0.86040946E+03</pdfrwt>
<pdfrwt beam="2">  1       -2 0.33799704E-01 0.86040946E+03</pdfrwt>
<totfact> 0.32093252E+02</totfact>
</mgrwt>
</event>
<event>
 4    1  0.6165923E-005  0.7691408E+03  0.7818608E-02  0.9605791E-01
          2   -1    0    0  501    0  0.00000000000E+00  0.00000000000E+00  0.15356130743E+04  0.15356130743E+04  0.25500000000E-02 0.  1.
         -2   -1    0    0    0  501 -0.00000000000E+00 -0.00000000000E+00 -0.96309667553E+02  0.96309667587E+02  0.25500000000E-02 0. -1.
    5000001    1    1    2    0    0  0.14605585847E+03 -0.27377279687E+03  0.44904336761E+03  0.57729351642E+03  0.18800000000E+03 0.  0.
   -5000001    1    1    2    0    0 -0.14605585847E+03  0.27377279687E+03  0.99026003910E+03  0.10546292254E+04  0.18800000000E+03 0.  0.
<mgrwt>
<rscale>  0 0.76914078E+03</rscale>
<asrwt>0</asrwt>
<pdfrwt beam="1">  1        2 0.21937329E+00 0.76914078E+03</pdfrwt>
<pdfrwt beam="2">  1       -2 0.13758524E-01 0.76914078E+03</pdfrwt>
<totfact> 0.57245464E+02</totfact>
</mgrwt>
</event>
<event>
 4    1  0.6165923E-005  0.1109542E+04  0.7818608E-02  0.9195942E-01
          2   -1    0    0  501    0  0.00000000000E+00  0.00000000000E+00  0.29678303573E+04  0.29678303573E+04  0.25500000000E-02 0.  1.
         -2   -1    0    0    0  501 -0.00000000000E+00 -0.00000000000E+00 -0.10370222415E+03  0.10370222418E+03  0.25500000000E-02 0. -1.
    5000001    1    1    2    0    0 -0.30255949755E+03 -0.31937740841E+03  0.22095663988E+04  0.22607679777E+04  0.18800000000E+03 0.  0.
   -5000001    1    1    2    0    0  0.30255949755E+03  0.31937740841E+03  0.65456173434E+03  0.81076460371E+03  0.18800000000E+03 0.  0.
<mgrwt>
<rscale>  0 0.11095415E+04</rscale>
<asrwt>0</asrwt>
<pdfrwt beam="1">  1        2 0.42397579E+00 0.11095415E+04</pdfrwt>
<pdfrwt beam="2">  1       -2 0.14814602E-01 0.11095415E+04</pdfrwt>
<totfact> 0.88749634E+01</totfact>
</mgrwt>
</event>
<event>
 4    1  0.6165923E-005  0.5144383E+03  0.7818608E-02  0.1010078E+00
         -2   -1    0    0    0  501 -0.00000000000E+00  0.00000000000E+00  0.12166005845E+03  0.12166005848E+03  0.25500000000E-02 0. -1.
          2   -1    0    0  501    0  0.00000000000E+00 -0.00000000000E+00 -0.54382421259E+03  0.54382421259E+03  0.25500000000E-02 0.  1.
    5000001    1    1    2    0    0  0.16145977348E+03 -0.62796822381E+02 -0.17437931712E+03  0.30945895623E+03  0.18800000000E+03 0.  0.
   -5000001    1    1    2    0    0 -0.16145977348E+03  0.62796822381E+02 -0.24778483702E+03  0.35602531484E+03  0.18800000000E+03 0.  0.
<mgrwt>
<rscale>  0 0.51443828E+03</rscale>
<asrwt>0</asrwt>
<pdfrwt beam="1">  1        2 0.77689172E-01 0.51443828E+03</pdfrwt>
<pdfrwt beam="2">  1       -2 0.17380009E-01 0.51443828E+03</pdfrwt>
<totfact> 0.16551514E+03</totfact>
</mgrwt>
</event>
<event>
 4    1  0.6165923E-005  0.7410565E+03  0.7818608E-02  0.9649487E-01
         -2   -1    0    0    0  501 -0.00000000000E+00  0.00000000000E+00  0.36859620506E+03  0.36859620507E+03  0.25500000000E-02 0. -1.
          2   -1    0    0  501    0  0.00000000000E+00 -0.00000000000E+00 -0.37247038558E+03  0.37247038558E+03  0.25500000000E-02 0.  1.
    5000001    1    1    2    0    0 -0.21686706151E+03  0.15296265624E+03  0.17559920317E+03  0.36960516328E+03  0.18800000000E+03 0.  0.
   -5000001    1    1    2    0    0  0.21686706151E+03 -0.15296265624E+03 -0.17947338369E+03  0.37146142737E+03  0.18800000000E+03 0.  0.
<mgrwt>
<rscale>  0 0.74105646E+03</rscale>
<asrwt>0</asrwt>
<pdfrwt beam="1">  1        2 0.53210055E-01 0.74105646E+03</pdfrwt>
<pdfrwt beam="2">  1       -2 0.52656601E-01 0.74105646E+03</pdfrwt>
<totfact> 0.32125610E+02</totfact>
</mgrwt>
</event>
<event>
 4    1  0.6165923E-005  0.7419023E+03  0.7818608E-02  0.9648141E-01
         -2   -1    0    0    0  501 -0.00000000000E+00  0.00000000000E+00  0.42932472459E+03  0.42932472460E+03  0.25500000000E-02 0. -1.
          2   -1    0    0  501    0  0.00000000000E+00 -0.00000000000E+00 -0.32051438133E+03  0.32051438134E+03  0.25500000000E-02 0.  1.
    5000001    1    1    2    0    0 -0.16279782195E+03  0.26603548678E+03  0.12574883100E+03  0.38527234466E+03  0.18800000000E+03 0.  0.
   -5000001    1    1    2    0    0  0.16279782195E+03 -0.26603548678E+03 -0.16938487738E+02  0.36456676128E+03  0.18800000000E+03 0.  0.
<mgrwt>
<rscale>  0 0.74190228E+03</rscale>
<asrwt>0</asrwt>
<pdfrwt beam="1">  1        2 0.45787769E-01 0.74190228E+03</pdfrwt>
<pdfrwt beam="2">  1       -2 0.61332104E-01 0.74190228E+03</pdfrwt>
<totfact> 0.27615864E+02</totfact>
</mgrwt>
</event>
<event>
 4    1  0.6165923E-005  0.5797398E+03  0.7818608E-02  0.9948355E-01
         -2   -1    0    0    0  501 -0.00000000000E+00  0.00000000000E+00  0.16168369370E+03  0.16168369372E+03  0.25500000000E-02 0. -1.
          2   -1    0    0  501    0  0.00000000000E+00 -0.00000000000E+00 -0.51968480195E+03  0.51968480196E+03  0.25500000000E-02 0.  1.
    5000001    1    1    2    0    0  0.97052243876E+02 -0.19720498528E+03 -0.15634393936E+03  0.32878012658E+03  0.18800000000E+03 0.  0.
   -5000001    1    1    2    0    0 -0.97052243876E+02  0.19720498528E+03 -0.20165716889E+03  0.35258836910E+03  0.18800000000E+03 0.  0.
<mgrwt>
<rscale>  0 0.57973980E+03</rscale>
<asrwt>0</asrwt>
<pdfrwt beam="1">  1        2 0.74240685E-01 0.57973980E+03</pdfrwt>
<pdfrwt beam="2">  1       -2 0.23097671E-01 0.57973980E+03</pdfrwt>
<totfact> 0.10630545E+03</totfact>
</mgrwt>
</event>
<event>
 4    1  0.6165923E-005  0.4757003E+03  0.7818608E-02  0.1020324E+00
         -2   -1    0    0    0  501 -0.00000000000E+00  0.00000000000E+00  0.50550531798E+02  0.50550531862E+02  0.25500000000E-02 0. -1.
          2   -1    0    0  501    0  0.00000000000E+00 -0.00000000000E+00 -0.11191313147E+04  0.11191313147E+04  0.25500000000E-02 0.  1.
    5000001    1    1    2    0    0 -0.12401985467E+03  0.76203908042E+02 -0.54998156068E+03  0.59917583149E+03  0.18800000000E+03 0.  0.
   -5000001    1    1    2    0    0  0.12401985467E+03 -0.76203908042E+02 -0.51859922226E+03  0.57050601512E+03  0.18800000000E+03 0.  0.
<mgrwt>
<rscale>  0 0.47570025E+03</rscale>
<asrwt>0</asrwt>
<pdfrwt beam="1">  1        2 0.15987589E+00 0.47570025E+03</pdfrwt>
<pdfrwt beam="2">  1       -2 0.72215052E-02 0.47570025E+03</pdfrwt>
<totfact> 0.27660093E+03</totfact>
</mgrwt>
</event>
<event>
 4    1  0.6165923E-005  0.4715090E+03  0.7818608E-02  0.1021495E+00
         -2   -1    0    0    0  501 -0.00000000000E+00  0.00000000000E+00  0.18577930446E+03  0.18577930448E+03  0.25500000000E-02 0. -1.
          2   -1    0    0  501    0  0.00000000000E+00 -0.00000000000E+00 -0.29917321294E+03  0.29917321295E+03  0.25500000000E-02 0.  1.
    5000001    1    1    2    0    0 -0.31998434056E+01  0.13885361948E+03 -0.88324728159E+02  0.24987161552E+03  0.18800000000E+03 0.  0.
   -5000001    1    1    2    0    0  0.31998434056E+01 -0.13885361948E+03 -0.25069180321E+02  0.23508090191E+03  0.18800000000E+03 0.  0.
<mgrwt>
<rscale>  0 0.47150903E+03</rscale>
<asrwt>0</asrwt>
<pdfrwt beam="1">  1        2 0.42739030E-01 0.47150903E+03</pdfrwt>
<pdfrwt beam="2">  1       -2 0.26539901E-01 0.47150903E+03</pdfrwt>
<totfact> 0.15309687E+03</totfact>
</mgrwt>
</event>
<event>
 4    1  0.6165923E-005  0.5209890E+03  0.7818608E-02  0.1008441E+00
          2   -1    0    0  501    0  0.00000000000E+00  0.00000000000E+00  0.38043026171E+03  0.38043026172E+03  0.25500000000E-02 0.  1.
         -2   -1    0    0    0  501 -0.00000000000E+00 -0.00000000000E+00 -0.17837007921E+03  0.17837007923E+03  0.25500000000E-02 0. -1.
    5000001    1    1    2    0    0 -0.25848340504E+02  0.15843714912E+03  0.12955266974E+02  0.24755263252E+03  0.18800000000E+03 0.  0.
   -5000001    1    1    2    0    0  0.25848340504E+02 -0.15843714912E+03  0.18910491553E+03  0.31124770843E+03  0.18800000000E+03 0.  0.
<mgrwt>
<rscale>  0 0.52098897E+03</rscale>
<asrwt>0</asrwt>
<pdfrwt beam="1">  1        2 0.54347180E-01 0.52098897E+03</pdfrwt>
<pdfrwt beam="2">  1       -2 0.25481440E-01 0.52098897E+03</pdfrwt>
<totfact> 0.12655077E+03</totfact>
</mgrwt>
</event>
<event>
 4    1  0.6165923E-005  0.7157321E+03  0.7818608E-02  0.9690700E-01
          2   -1    0    0  501    0  0.00000000000E+00  0.00000000000E+00  0.10988427908E+04  0.10988427908E+04  0.25500000000E-02 0.  1.
         -2   -1    0    0    0  501 -0.00000000000E+00 -0.00000000000E+00 -0.11654817073E+03  0.11654817076E+03  0.25500000000E-02 0. -1.
    5000001    1    1    2    0    0 -0.27855486644E+03  0.12011842401E+03  0.53616698132E+03  0.64408095863E+03  0.18800000000E+03 0.  0.
   -5000001    1    1    2    0    0  0.27855486644E+03 -0.12011842401E+03  0.44612763876E+03  0.57131000295E+03  0.18800000000E+03 0.  0.
<mgrwt>
<rscale>  0 0.71573212E+03</rscale>
<asrwt>0</asrwt>
<pdfrwt beam="1">  1        2 0.15697753E+00 0.71573212E+03</pdfrwt>
<pdfrwt beam="2">  1       -2 0.16649740E-01 0.71573212E+03</pdfrwt>
<totfact> 0.72125081E+02</totfact>
</mgrwt>
</event>
<event>
 4    1  0.6165923E-005  0.8247042E+03  0.7818608E-02  0.9524931E-01
          2   -1    0    0  501    0  0.00000000000E+00  0.00000000000E+00  0.23639047206E+03  0.23639047208E+03  0.25500000000E-02 0.  1.
         -2   -1    0    0    0  501 -0.00000000000E+00 -0.00000000000E+00 -0.71929409592E+03  0.71929409592E+03  0.25500000000E-02 0. -1.
    5000001    1    1    2    0    0  0.34956966349E+03 -0.14161583994E+02 -0.36992304893E+03  0.54275829079E+03  0.18800000000E+03 0.  0.
   -5000001    1    1    2    0    0 -0.34956966349E+03  0.14161583994E+02 -0.11298057493E+03  0.41292627721E+03  0.18800000000E+03 0.  0.
<mgrwt>
<rscale>  0 0.82470424E+03</rscale>
<asrwt>0</asrwt>
<pdfrwt beam="1">  1        2 0.33770068E-01 0.82470424E+03</pdfrwt>
<pdfrwt beam="2">  1       -2 0.10275630E+00 0.82470424E+03</pdfrwt>
<totfact> 0.12131249E+02</totfact>
</mgrwt>
</event>
<event>
 4    1  0.6165923E-005  0.9070481E+03  0.7818608E-02  0.9416814E-01
         -2   -1    0    0    0  501 -0.00000000000E+00  0.00000000000E+00  0.12851172151E+03  0.12851172154E+03  0.25500000000E-02 0. -1.
          2   -1    0    0  501    0  0.00000000000E+00 -0.00000000000E+00 -0.16005082049E+04  0.16005082049E+04  0.25500000000E-02 0.  1.
    5000001    1    1    2    0    0  0.39021965285E+03 -0.62775873877E+02 -0.96257122906E+03  0.10574022692E+04  0.18800000000E+03 0.  0.
   -5000001    1    1    2    0    0 -0.39021965285E+03  0.62775873877E+02 -0.50942525431E+03  0.67161765726E+03  0.18800000000E+03 0.  0.
<mgrwt>
<rscale>  0 0.90704810E+03</rscale>
<asrwt>0</asrwt>
<pdfrwt beam="1">  1        2 0.22864402E+00 0.90704810E+03</pdfrwt>
<pdfrwt beam="2">  1       -2 0.18358818E-01 0.90704810E+03</pdfrwt>
<totfact> 0.32142972E+02</totfact>
</mgrwt>
</event>
<event>
 4    1  0.6165923E-005  0.6715171E+03  0.7818608E-02  0.9767221E-01
         -2   -1    0    0    0  501 -0.00000000000E+00  0.00000000000E+00  0.51140109855E+02  0.51140109919E+02  0.25500000000E-02 0. -1.
          2   -1    0    0  501    0  0.00000000000E+00 -0.00000000000E+00 -0.22044107032E+04  0.22044107032E+04  0.25500000000E-02 0.  1.
    5000001    1    1    2    0    0 -0.27646282714E+03  0.15078456462E+02 -0.11674341229E+04  0.12144568687E+04  0.18800000000E+03 0.  0.
   -5000001    1    1    2    0    0  0.27646282714E+03 -0.15078456462E+02 -0.98583647045E+03  0.10410939444E+04  0.18800000000E+03 0.  0.
<mgrwt>
<rscale>  0 0.67151711E+03</rscale>
<asrwt>0</asrwt>
<pdfrwt beam="1">  1        2 0.31491576E+00 0.67151711E+03</pdfrwt>
<pdfrwt beam="2">  1       -2 0.73057314E-02 0.67151711E+03</pdfrwt>
<totfact> 0.73698251E+02</totfact>
</mgrwt>
</event>
<event>
 4    1  0.6165923E-005  0.1032870E+04  0.7818608E-02  0.9273210E-01
          2   -1    0    0  501    0  0.00000000000E+00  0.00000000000E+00  0.80285795428E+03  0.80285795428E+03  0.25500000000E-02 0.  1.
         -2   -1    0    0    0  501 -0.00000000000E+00 -0.00000000000E+00 -0.33219481403E+03  0.33219481404E+03  0.25500000000E-02 0. -1.
    5000001    1    1    2    0    0 -0.25197995450E+03 -0.38945617389E+03  0.37516478095E+03  0.62550988938E+03  0.18800000000E+03 0.  0.
   -5000001    1    1    2    0    0  0.25197995450E+03  0.38945617389E+03  0.95498359298E+02  0.50954287894E+03  0.18800000000E+03 0.  0.
<mgrwt>
<rscale>  0 0.10328703E+04</rscale>
<asrwt>0</asrwt>
<pdfrwt beam="1">  1        2 0.11469399E+00 0.10328703E+04</pdfrwt>
<pdfrwt beam="2">  1       -2 0.47456402E-01 0.10328703E+04</pdfrwt>
<totfact> 0.15859934E+02</totfact>
</mgrwt>
</event>
<event>
 4    1  0.6165923E-005  0.8613019E+03  0.7818608E-02  0.9475292E-01
         -2   -1    0    0    0  501 -0.00000000000E+00  0.00000000000E+00  0.36796656142E+03  0.36796656143E+03  0.25500000000E-02 0.  1.
          2   -1    0    0  501    0  0.00000000000E+00 -0.00000000000E+00 -0.50401390033E+03  0.50401390033E+03  0.25500000000E-02 0. -1.
    5000001    1    1    2    0    0 -0.49199173539E+02  0.26415492294E+03  0.21457485332E+03  0.39189890236E+03  0.18800000000E+03 0.  0.
   -5000001    1    1    2    0    0  0.49199173539E+02 -0.26415492294E+03 -0.35062219223E+03  0.48008155940E+03  0.18800000000E+03 0.  0.
<mgrwt>
<rscale>  0 0.86130195E+03</rscale>
<asrwt>0</asrwt>
<pdfrwt beam="1">  1        2 0.72001985E-01 0.86130195E+03</pdfrwt>
<pdfrwt beam="2">  1       -2 0.52566652E-01 0.86130195E+03</pdfrwt>
<totfact> 0.22820325E+02</totfact>
</mgrwt>
</event>
<event>
 4    1  0.6165923E-005  0.5477500E+03  0.7818608E-02  0.1002016E+00
         -2   -1    0    0    0  501 -0.00000000000E+00  0.00000000000E+00  0.13764151169E+03  0.13764151171E+03  0.25500000000E-02 0. -1.
          2   -1    0    0  501    0  0.00000000000E+00 -0.00000000000E+00 -0.54494841681E+03  0.54494841682E+03  0.25500000000E-02 0.  1.
    5000001    1    1    2    0    0  0.16089713845E+03  0.11494102671E+03 -0.17405342438E+03  0.32363238917E+03  0.18800000000E+03 0.  0.
   -5000001    1    1    2    0    0 -0.16089713845E+03 -0.11494102671E+03 -0.23325348074E+03  0.35895753936E+03  0.18800000000E+03 0.  0.
<mgrwt>
<rscale>  0 0.54775003E+03</rscale>
<asrwt>0</asrwt>
<pdfrwt beam="1">  1        2 0.77849773E-01 0.54775003E+03</pdfrwt>
<pdfrwt beam="2">  1       -2 0.19663073E-01 0.54775003E+03</pdfrwt>
<totfact> 0.13354426E+03</totfact>
</mgrwt>
</event>
<event>
 4    1  0.6165923E-005  0.9163557E+03  0.7818608E-02  0.9405364E-01
         -2   -1    0    0    0  501 -0.00000000000E+00  0.00000000000E+00  0.25978666280E+03  0.25978666281E+03  0.25500000000E-02 0. -1.
          2   -1    0    0  501    0  0.00000000000E+00 -0.00000000000E+00 -0.80807431215E+03  0.80807431216E+03  0.25500000000E-02 0.  1.
    5000001    1    1    2    0    0  0.19042816466E+03  0.19763951854E+03 -0.64128648937E+03  0.72243797425E+03  0.18800000000E+03 0.  0.
   -5000001    1    1    2    0    0 -0.19042816466E+03 -0.19763951854E+03  0.92998840016E+02  0.34542300072E+03  0.18800000000E+03 0.  0.
<mgrwt>
<rscale>  0 0.91635567E+03</rscale>
<asrwt>0</asrwt>
<pdfrwt beam="1">  1        2 0.11543919E+00 0.91635567E+03</pdfrwt>
<pdfrwt beam="2">  1       -2 0.37112381E-01 0.91635567E+03</pdfrwt>
<totfact> 0.25680101E+02</totfact>
</mgrwt>
</event>
<event>
 4    1  0.6165923E-005  0.5536659E+03  0.7818608E-02  0.1000649E+00
         -2   -1    0    0    0  501 -0.00000000000E+00  0.00000000000E+00  0.27295222146E+02  0.27295222265E+02  0.25500000000E-02 0. -1.
          2   -1    0    0  501    0  0.00000000000E+00 -0.00000000000E+00 -0.28076884199E+04  0.28076884199E+04  0.25500000000E-02 0.  1.
    5000001    1    1    2    0    0 -0.14167527552E+03 -0.93315177474E+02 -0.81742521493E+03  0.85574972279E+03  0.18800000000E+03 0.  0.
   -5000001    1    1    2    0    0  0.14167527552E+03  0.93315177474E+02 -0.19629679828E+04  0.19792339193E+04  0.18800000000E+03 0.  0.
<mgrwt>
<rscale>  0 0.55366589E+03</rscale>
<asrwt>0</asrwt>
<pdfrwt beam="1">  1        2 0.40109816E+00 0.55366589E+03</pdfrwt>
<pdfrwt beam="2">  1       -2 0.38993193E-02 0.55366589E+03</pdfrwt>
<totfact> 0.96723122E+02</totfact>
</mgrwt>
</event>
<event>
 4    1  0.6165923E-005  0.4721818E+03  0.7818608E-02  0.1021306E+00
          2   -1    0    0  501    0  0.00000000000E+00  0.00000000000E+00  0.65450555405E+03  0.65450555406E+03  0.25500000000E-02 0.  1.
         -2   -1    0    0    0  501 -0.00000000000E+00 -0.00000000000E+00 -0.85161876926E+02  0.85161876964E+02  0.25500000000E-02 0. -1.
    5000001    1    1    2    0    0 -0.85222972803E+02  0.22785912711E+02  0.10874486435E+03  0.23441757279E+03  0.18800000000E+03 0.  0.
   -5000001    1    1    2    0    0  0.85222972803E+02 -0.22785912711E+02  0.46059881277E+03  0.50524985823E+03  0.18800000000E+03 0.  0.
<mgrwt>
<rscale>  0 0.47218184E+03</rscale>
<asrwt>0</asrwt>
<pdfrwt beam="1">  1        2 0.93500793E-01 0.47218184E+03</pdfrwt>
<pdfrwt beam="2">  1       -2 0.12165982E-01 0.47218184E+03</pdfrwt>
<totfact> 0.24186534E+03</totfact>
</mgrwt>
</event>
<event>
 4    1  0.6165923E-005  0.5214586E+03  0.7818608E-02  0.1008325E+00
          2   -1    0    0  501    0  0.00000000000E+00  0.00000000000E+00  0.21297542010E+03  0.21297542011E+03  0.25500000000E-02 0.  1.
         -2   -1    0    0    0  501 -0.00000000000E+00 -0.00000000000E+00 -0.31919066195E+03  0.31919066196E+03  0.25500000000E-02 0. -1.
    5000001    1    1    2    0    0 -0.12841031723E+03 -0.96409718609E+02 -0.13758243199E+03  0.28294340247E+03  0.18800000000E+03 0.  0.
   -5000001    1    1    2    0    0  0.12841031723E+03  0.96409718609E+02  0.31367190133E+02  0.24922267960E+03  0.18800000000E+03 0.  0.
<mgrwt>
<rscale>  0 0.52145859E+03</rscale>
<asrwt>0</asrwt>
<pdfrwt beam="1">  1        2 0.30425060E-01 0.52145859E+03</pdfrwt>
<pdfrwt beam="2">  1       -2 0.45598666E-01 0.52145859E+03</pdfrwt>
<totfact> 0.80221049E+02</totfact>
</mgrwt>
</event>
<event>
 4    1  0.6165923E-005  0.4357871E+03  0.7818608E-02  0.1032047E+00
          2   -1    0    0  501    0  0.00000000000E+00  0.00000000000E+00  0.77366478072E+03  0.77366478072E+03  0.25500000000E-02 0.  1.
         -2   -1    0    0    0  501 -0.00000000000E+00 -0.00000000000E+00 -0.61367139870E+02  0.61367139923E+02  0.25500000000E-02 0. -1.
    5000001    1    1    2    0    0 -0.33893471919E+02 -0.55846335318E+02  0.52609292004E+03  0.56248141403E+03  0.18800000000E+03 0.  0.
   -5000001    1    1    2    0    0  0.33893471919E+02  0.55846335318E+02  0.18620472081E+03  0.27255050662E+03  0.18800000000E+03 0.  0.
<mgrwt>
<rscale>  0 0.43578708E+03</rscale>
<asrwt>0</asrwt>
<pdfrwt beam="1">  1        2 0.11052354E+00 0.43578708E+03</pdfrwt>
<pdfrwt beam="2">  1       -2 0.87667341E-02 0.43578708E+03</pdfrwt>
<totfact> 0.33466717E+03</totfact>
</mgrwt>
</event>
<event>
 4    1  0.6165923E-005  0.5369585E+03  0.7818608E-02  0.1004558E+00
          2   -1    0    0  501    0  0.00000000000E+00  0.00000000000E+00  0.17453530025E+04  0.17453530025E+04  0.25500000000E-02 0.  1.
         -2   -1    0    0    0  501 -0.00000000000E+00 -0.00000000000E+00 -0.41298870417E+02  0.41298870496E+02  0.25500000000E-02 0. -1.
    5000001    1    1    2    0    0  0.43486540466E+02 -0.18115603076E+03  0.10018881806E+04  0.10362589026E+04  0.18800000000E+03 0.  0.
   -5000001    1    1    2    0    0 -0.43486540466E+02  0.18115603076E+03  0.70216595145E+03  0.75039297042E+03  0.18800000000E+03 0.  0.
<mgrwt>
<rscale>  0 0.53695850E+03</rscale>
<asrwt>0</asrwt>
<pdfrwt beam="1">  1        2 0.24933606E+00 0.53695850E+03</pdfrwt>
<pdfrwt beam="2">  1       -2 0.58998407E-02 0.53695850E+03</pdfrwt>
<totfact> 0.17690284E+03</totfact>
</mgrwt>
</event>
<event>
 4    1  0.6165923E-005  0.4195653E+03  0.7818608E-02  0.1037208E+00
          2   -1    0    0  501    0  0.00000000000E+00  0.00000000000E+00  0.13592189358E+04  0.13592189358E+04  0.25500000000E-02 0.  1.
         -2   -1    0    0    0  501 -0.00000000000E+00 -0.00000000000E+00 -0.32377974153E+02  0.32377974253E+02  0.25500000000E-02 0. -1.
    5000001    1    1    2    0    0  0.21495745991E+02  0.81576195981E+02  0.53292328222E+03  0.57137375471E+03  0.18800000000E+03 0.  0.
   -5000001    1    1    2    0    0 -0.21495745991E+02 -0.81576195981E+02  0.79391767942E+03  0.82022315533E+03  0.18800000000E+03 0.  0.
<mgrwt>
<rscale>  0 0.41956528E+03</rscale>
<asrwt>0</asrwt>
<pdfrwt beam="1">  1        2 0.19417408E+00 0.41956528E+03</pdfrwt>
<pdfrwt beam="2">  1       -2 0.46254262E-02 0.41956528E+03</pdfrwt>
<totfact> 0.40782208E+03</totfact>
</mgrwt>
</event>
<event>
 4    1  0.6165923E-005  0.4357148E+03  0.7818608E-02  0.1032070E+00
         -2   -1    0    0    0  501 -0.00000000000E+00  0.00000000000E+00  0.51060250353E+02  0.51060250417E+02  0.25500000000E-02 0. -1.
          2   -1    0    0  501    0  0.00000000000E+00 -0.00000000000E+00 -0.92952638486E+03  0.92952638486E+03  0.25500000000E-02 0.  1.
    5000001    1    1    2    0    0  0.15152439109E+02 -0.95601891690E+02 -0.32124610222E+03  0.38459378089E+03  0.18800000000E+03 0.  0.
   -5000001    1    1    2    0    0 -0.15152439109E+02  0.95601891690E+02 -0.55722003229E+03  0.59599285439E+03  0.18800000000E+03 0.  0.
<mgrwt>
<rscale>  0 0.43571481E+03</rscale>
<asrwt>0</asrwt>
<pdfrwt beam="1">  1        2 0.13278947E+00 0.43571481E+03</pdfrwt>
<pdfrwt beam="2">  1       -2 0.72943220E-02 0.43571481E+03</pdfrwt>
<totfact> 0.35317459E+03</totfact>
</mgrwt>
</event>
<event>
 4    1  0.6165923E-005  0.5408514E+03  0.7818608E-02  0.1003634E+00
         -2   -1    0    0    0  501 -0.00000000000E+00  0.00000000000E+00  0.18695344246E+02  0.18695344420E+02  0.25500000000E-02 0. -1.
          2   -1    0    0  501    0  0.00000000000E+00 -0.00000000000E+00 -0.39116721212E+04  0.39116721212E+04  0.25500000000E-02 0.  1.
    5000001    1    1    2    0    0 -0.12276691355E+03 -0.12485768102E+03 -0.13330871606E+04  0.13576179630E+04  0.18800000000E+03 0.  0.
   -5000001    1    1    2    0    0  0.12276691355E+03  0.12485768102E+03 -0.25598896163E+04  0.25727495027E+04  0.18800000000E+03 0.  0.
<mgrwt>
<rscale>  0 0.54085139E+03</rscale>
<asrwt>0</asrwt>
<pdfrwt beam="1">  1        2 0.55880978E+00 0.54085139E+03</pdfrwt>
<pdfrwt beam="2">  1       -2 0.26707660E-02 0.54085139E+03</pdfrwt>
<totfact> 0.39376178E+02</totfact>
</mgrwt>
</event>
<event>
 4    1  0.6165923E-005  0.4920960E+03  0.7818608E-02  0.1015863E+00
          2   -1    0    0  501    0  0.00000000000E+00  0.00000000000E+00  0.10277663924E+04  0.10277663924E+04  0.25500000000E-02 0.  1.
         -2   -1    0    0    0  501 -0.00000000000E+00 -0.00000000000E+00 -0.58904055445E+02  0.58904055500E+02  0.25500000000E-02 0. -1.
    5000001    1    1    2    0    0  0.65339595260E+02 -0.12384851961E+03  0.64950262504E+03  0.69051095463E+03  0.18800000000E+03 0.  0.
   -5000001    1    1    2    0    0 -0.65339595260E+02  0.12384851961E+03  0.31935971188E+03  0.39615949325E+03  0.18800000000E+03 0.  0.
<mgrwt>
<rscale>  0 0.49209596E+03</rscale>
<asrwt>0</asrwt>
<pdfrwt beam="1">  1        2 0.14682376E+00 0.49209596E+03</pdfrwt>
<pdfrwt beam="2">  1       -2 0.84148655E-02 0.49209596E+03</pdfrwt>
<totfact> 0.24549611E+03</totfact>
</mgrwt>
</event>
<event>
 4    1  0.6165923E-005  0.5723491E+03  0.7818608E-02  0.9964494E-01
         -2   -1    0    0    0  501 -0.00000000000E+00  0.00000000000E+00  0.22533146224E+02  0.22533146368E+02  0.25500000000E-02 0. -1.
          2   -1    0    0  501    0  0.00000000000E+00 -0.00000000000E+00 -0.36344618649E+04  0.36344618649E+04  0.25500000000E-02 0.  1.
    5000001    1    1    2    0    0  0.21448739464E+03  0.11813246767E+02 -0.16769883604E+04  0.17011109183E+04  0.18800000000E+03 0.  0.
   -5000001    1    1    2    0    0 -0.21448739464E+03 -0.11813246767E+02 -0.19349403582E+04  0.19558840930E+04  0.18800000000E+03 0.  0.
<mgrwt>
<rscale>  0 0.57234906E+03</rscale>
<asrwt>0</asrwt>
<pdfrwt beam="1">  1        2 0.51920847E+00 0.57234906E+03</pdfrwt>
<pdfrwt beam="2">  1       -2 0.32190232E-02 0.57234906E+03</pdfrwt>
<totfact> 0.44143429E+02</totfact>
</mgrwt>
</event>
<event>
 4    1  0.6165923E-005  0.6690405E+03  0.7818608E-02  0.9771693E-01
         -2   -1    0    0    0  501 -0.00000000000E+00  0.00000000000E+00  0.49444049201E+03  0.49444049202E+03  0.25500000000E-02 0. -1.
          2   -1    0    0  501    0  0.00000000000E+00 -0.00000000000E+00 -0.22632406899E+03  0.22632406900E+03  0.25500000000E-02 0.  1.
    5000001    1    1    2    0    0  0.17165270792E+03  0.12444889175E+03  0.32558822500E+03  0.43162932135E+03  0.18800000000E+03 0.  0.
   -5000001    1    1    2    0    0 -0.17165270792E+03 -0.12444889175E+03 -0.57471801983E+02  0.28913523966E+03  0.18800000000E+03 0.  0.
<mgrwt>
<rscale>  0 0.66904046E+03</rscale>
<asrwt>0</asrwt>
<pdfrwt beam="1">  1        2 0.32332011E-01 0.66904046E+03</pdfrwt>
<pdfrwt beam="2">  1       -2 0.70634355E-01 0.66904046E+03</pdfrwt>
<totfact> 0.30088997E+02</totfact>
</mgrwt>
</event>
<event>
 4    1  0.6165923E-005  0.4963124E+03  0.7818608E-02  0.1014746E+00
          2   -1    0    0  501    0  0.00000000000E+00  0.00000000000E+00  0.26917512811E+04  0.26917512811E+04  0.25500000000E-02 0.  1.
         -2   -1    0    0    0  501 -0.00000000000E+00 -0.00000000000E+00 -0.22877857796E+02  0.22877857938E+02  0.25500000000E-02 0. -1.
    5000001    1    1    2    0    0  0.77117677437E+02 -0.13609909385E+03  0.15643813294E+04  0.15833834164E+04  0.18800000000E+03 0.  0.
   -5000001    1    1    2    0    0 -0.77117677437E+02  0.13609909385E+03  0.11044920939E+04  0.11312457226E+04  0.18800000000E+03 0.  0.
<mgrwt>
<rscale>  0 0.49631241E+03</rscale>
<asrwt>0</asrwt>
<pdfrwt beam="1">  1        2 0.38453608E+00 0.49631241E+03</pdfrwt>
<pdfrwt beam="2">  1       -2 0.32682638E-02 0.49631241E+03</pdfrwt>
<totfact> 0.14627645E+03</totfact>
</mgrwt>
</event>
<event>
 4    1  0.6165923E-005  0.6595046E+03  0.7818608E-02  0.9789106E-01
         -2   -1    0    0    0  501 -0.00000000000E+00  0.00000000000E+00  0.46543715862E+02  0.46543715932E+02  0.25500000000E-02 0. -1.
          2   -1    0    0  501    0  0.00000000000E+00 -0.00000000000E+00 -0.23362249101E+04  0.23362249101E+04  0.25500000000E-02 0.  1.
    5000001    1    1    2    0    0 -0.29058885320E+02 -0.26502063929E+03 -0.13185725021E+04  0.13583290476E+04  0.18800000000E+03 0.  0.
   -5000001    1    1    2    0    0  0.29058885320E+02  0.26502063929E+03 -0.97110869214E+03  0.10244395785E+04  0.18800000000E+03 0.  0.
<mgrwt>
<rscale>  0 0.65950463E+03</rscale>
<asrwt>0</asrwt>
<pdfrwt beam="1">  1        2 0.33374634E+00 0.65950463E+03</pdfrwt>
<pdfrwt beam="2">  1       -2 0.66491037E-02 0.65950463E+03</pdfrwt>
<totfact> 0.73406408E+02</totfact>
</mgrwt>
</event>
<event>
 4    1  0.6165923E-005  0.5437923E+03  0.7818608E-02  0.1002941E+00
         -2   -1    0    0    0  501 -0.00000000000E+00  0.00000000000E+00  0.25861155271E+03  0.25861155273E+03  0.25500000000E-02 0. -1.
          2   -1    0    0  501    0  0.00000000000E+00 -0.00000000000E+00 -0.28586316245E+03  0.28586316246E+03  0.25500000000E-02 0.  1.
    5000001    1    1    2    0    0  0.61700491076E+01  0.18637164627E+03 -0.75437028846E+02  0.27533108317E+03  0.18800000000E+03 0.  0.
   -5000001    1    1    2    0    0 -0.61700491076E+01 -0.18637164627E+03  0.48185419111E+02  0.26914363201E+03  0.18800000000E+03 0.  0.
<mgrwt>
<rscale>  0 0.54379230E+03</rscale>
<asrwt>0</asrwt>
<pdfrwt beam="1">  1        2 0.40837594E-01 0.54379230E+03</pdfrwt>
<pdfrwt beam="2">  1       -2 0.36944508E-01 0.54379230E+03</pdfrwt>
<totfact> 0.87168820E+02</totfact>
</mgrwt>
</event>
<event>
 4    1  0.6165923E-005  0.4540168E+03  0.7818608E-02  0.1026531E+00
         -2   -1    0    0    0  501 -0.00000000000E+00  0.00000000000E+00  0.29225883949E+02  0.29225884060E+02  0.25500000000E-02 0. -1.
          2   -1    0    0  501    0  0.00000000000E+00 -0.00000000000E+00 -0.17632594533E+04  0.17632594534E+04  0.25500000000E-02 0.  1.
    5000001    1    1    2    0    0 -0.52003436381E+02  0.11570760375E+03 -0.90574185325E+03  0.93370493823E+03  0.18800000000E+03 0.  0.
   -5000001    1    1    2    0    0  0.52003436381E+02 -0.11570760375E+03 -0.82829171616E+03  0.85878039918E+03  0.18800000000E+03 0.  0.
<mgrwt>
<rscale>  0 0.45401681E+03</rscale>
<asrwt>0</asrwt>
<pdfrwt beam="1">  1        2 0.25189414E+00 0.45401681E+03</pdfrwt>
<pdfrwt beam="2">  1       -2 0.41751274E-02 0.45401681E+03</pdfrwt>
<totfact> 0.29625908E+03</totfact>
</mgrwt>
</event>
<event>
 4    1  0.6165923E-005  0.6684731E+03  0.7818608E-02  0.9772720E-01
          2   -1    0    0  501    0  0.00000000000E+00  0.00000000000E+00  0.27226935601E+04  0.27226935601E+04  0.25500000000E-02 0.  1.
         -2   -1    0    0    0  501 -0.00000000000E+00 -0.00000000000E+00 -0.41030721018E+02  0.41030721097E+02  0.25500000000E-02 0. -1.
    5000001    1    1    2    0    0 -0.72838869121E+02 -0.24710997822E+03  0.17542953594E+04  0.17830493684E+04  0.18800000000E+03 0.  0.
   -5000001    1    1    2    0    0  0.72838869121E+02  0.24710997822E+03  0.92736747966E+03  0.98067491276E+03  0.18800000000E+03 0.  0.
<mgrwt>
<rscale>  0 0.66847313E+03</rscale>
<asrwt>0</asrwt>
<pdfrwt beam="1">  1        2 0.38895640E+00 0.66847313E+03</pdfrwt>
<pdfrwt beam="2">  1       -2 0.58615290E-02 0.66847313E+03</pdfrwt>
<totfact> 0.56481571E+02</totfact>
</mgrwt>
</event>
<event>
 4    1  0.6165923E-005  0.5523709E+03  0.7818608E-02  0.1000947E+00
         -2   -1    0    0    0  501 -0.00000000000E+00  0.00000000000E+00  0.13846725773E+03  0.13846725775E+03  0.25500000000E-02 0.  1.
          2   -1    0    0  501    0  0.00000000000E+00 -0.00000000000E+00 -0.55087690130E+03  0.55087690130E+03  0.25500000000E-02 0. -1.
    5000001    1    1    2    0    0  0.71128746375E+02 -0.64163651461E+02  0.16194170366E+02  0.21161881741E+03  0.18800000000E+03 0.  0.
   -5000001    1    1    2    0    0 -0.71128746375E+02  0.64163651461E+02 -0.42860381393E+03  0.47772534164E+03  0.18800000000E+03 0.  0.
<mgrwt>
<rscale>  0 0.55237094E+03</rscale>
<asrwt>0</asrwt>
<pdfrwt beam="1">  1        2 0.78696699E-01 0.55237094E+03</pdfrwt>
<pdfrwt beam="2">  1       -2 0.19781037E-01 0.55237094E+03</pdfrwt>
<totfact> 0.13052550E+03</totfact>
</mgrwt>
</event>
<event>
 4    1  0.6165923E-005  0.4568818E+03  0.7818608E-02  0.1025689E+00
         -2   -1    0    0    0  501 -0.00000000000E+00  0.00000000000E+00  0.33018741827E+02  0.33018741926E+02  0.25500000000E-02 0. -1.
          2   -1    0    0  501    0  0.00000000000E+00 -0.00000000000E+00 -0.15804734090E+04  0.15804734090E+04  0.25500000000E-02 0.  1.
    5000001    1    1    2    0    0 -0.57128094380E+02  0.90369004135E+02 -0.51394807179E+03  0.55759913609E+03  0.18800000000E+03 0.  0.
   -5000001    1    1    2    0    0  0.57128094380E+02 -0.90369004135E+02 -0.10335065954E+04  0.10558930148E+04  0.18800000000E+03 0.  0.
<mgrwt>
<rscale>  0 0.45688179E+03</rscale>
<asrwt>0</asrwt>
<pdfrwt beam="1">  1        2 0.22578187E+00 0.45688179E+03</pdfrwt>
<pdfrwt beam="2">  1       -2 0.47169641E-02 0.45688179E+03</pdfrwt>
<totfact> 0.30388923E+03</totfact>
</mgrwt>
</event>
<event>
 4    1  0.6165923E-005  0.6019469E+03  0.7818608E-02  0.9901375E-01
         -2   -1    0    0    0  501 -0.00000000000E+00  0.00000000000E+00  0.20178031732E+03  0.20178031734E+03  0.25500000000E-02 0. -1.
          2   -1    0    0  501    0  0.00000000000E+00 -0.00000000000E+00 -0.44892885096E+03  0.44892885096E+03  0.25500000000E-02 0.  1.
    5000001    1    1    2    0    0  0.42155563221E+02  0.22557499948E+03 -0.17848088072E+03  0.34620889169E+03  0.18800000000E+03 0.  0.
   -5000001    1    1    2    0    0 -0.42155563221E+02 -0.22557499948E+03 -0.68667652916E+02  0.30450027661E+03  0.18800000000E+03 0.  0.
<mgrwt>
<rscale>  0 0.60194686E+03</rscale>
<asrwt>0</asrwt>
<pdfrwt beam="1">  1        2 0.64132693E-01 0.60194686E+03</pdfrwt>
<pdfrwt beam="2">  1       -2 0.28825760E-01 0.60194686E+03</pdfrwt>
<totfact> 0.84114552E+02</totfact>
</mgrwt>
</event>
<event>
 4    1  0.6165923E-005  0.5466730E+03  0.7818608E-02  0.1002267E+00
         -2   -1    0    0    0  501 -0.00000000000E+00  0.00000000000E+00  0.62724627663E+02  0.62724627714E+02  0.25500000000E-02 0. -1.
          2   -1    0    0  501    0  0.00000000000E+00 -0.00000000000E+00 -0.11911244710E+04  0.11911244710E+04  0.25500000000E-02 0.  1.
    5000001    1    1    2    0    0  0.37006274517E+02  0.14073792930E+03 -0.87355723374E+03  0.90533025451E+03  0.18800000000E+03 0.  0.
   -5000001    1    1    2    0    0 -0.37006274517E+02 -0.14073792930E+03 -0.25484260955E+03  0.34851884417E+03  0.18800000000E+03 0.  0.
<mgrwt>
<rscale>  0 0.54667299E+03</rscale>
<asrwt>0</asrwt>
<pdfrwt beam="1">  1        2 0.17016063E+00 0.54667299E+03</pdfrwt>
<pdfrwt beam="2">  1       -2 0.89606618E-02 0.54667299E+03</pdfrwt>
<totfact> 0.17862105E+03</totfact>
</mgrwt>
</event>
<event>
 4    1  0.6165923E-005  0.4528005E+03  0.7818608E-02  0.1026890E+00
          2   -1    0    0  501    0  0.00000000000E+00  0.00000000000E+00  0.11102498891E+03  0.11102498894E+03  0.25500000000E-02 0.  1.
         -2   -1    0    0    0  501 -0.00000000000E+00 -0.00000000000E+00 -0.46167150937E+03  0.46167150937E+03  0.25500000000E-02 0. -1.
    5000001    1    1    2    0    0  0.39219538177E+02  0.11924610338E+03 -0.19108339119E+03  0.29599774955E+03  0.18800000000E+03 0.  0.
   -5000001    1    1    2    0    0 -0.39219538177E+02 -0.11924610338E+03 -0.15956312927E+03  0.27669874876E+03  0.18800000000E+03 0.  0.
<mgrwt>
<rscale>  0 0.45280050E+03</rscale>
<asrwt>0</asrwt>
<pdfrwt beam="1">  1        2 0.15860713E-01 0.45280050E+03</pdfrwt>
<pdfrwt beam="2">  1       -2 0.65953072E-01 0.45280050E+03</pdfrwt>
<totfact> 0.79613017E+02</totfact>
</mgrwt>
</event>
<event>
 4    1  0.6165923E-005  0.4197944E+03  0.7818608E-02  0.1037133E+00
          2   -1    0    0  501    0  0.00000000000E+00  0.00000000000E+00  0.98565894969E+03  0.98565894969E+03  0.25500000000E-02 0.  1.
         -2   -1    0    0    0  501 -0.00000000000E+00 -0.00000000000E+00 -0.44697841193E+02  0.44697841266E+02  0.25500000000E-02 0. -1.
    5000001    1    1    2    0    0  0.53499507188E+02 -0.71019014350E+01  0.28355346027E+03  0.34446944582E+03  0.18800000000E+03 0.  0.
   -5000001    1    1    2    0    0 -0.53499507188E+02  0.71019014350E+01  0.65740764823E+03  0.68588734514E+03  0.18800000000E+03 0.  0.
<mgrwt>
<rscale>  0 0.41979437E+03</rscale>
<asrwt>0</asrwt>
<pdfrwt beam="1">  1        2 0.14080840E+00 0.41979437E+03</pdfrwt>
<pdfrwt beam="2">  1       -2 0.63854068E-02 0.41979437E+03</pdfrwt>
<totfact> 0.40155209E+03</totfact>
</mgrwt>
</event>
<event>
 4    1  0.6165923E-005  0.6223054E+03  0.7818608E-02  0.9860180E-01
          2   -1    0    0  501    0  0.00000000000E+00  0.00000000000E+00  0.14533144613E+04  0.14533144613E+04  0.25500000000E-02 0.  1.
         -2   -1    0    0    0  501 -0.00000000000E+00 -0.00000000000E+00 -0.66617369955E+02  0.66617370004E+02  0.25500000000E-02 0. -1.
    5000001    1    1    2    0    0  0.51619700840E+02  0.23896216237E+03  0.59251237295E+03  0.66796887701E+03  0.18800000000E+03 0.  0.
   -5000001    1    1    2    0    0 -0.51619700840E+02 -0.23896216237E+03  0.79418471845E+03  0.85196295434E+03  0.18800000000E+03 0.  0.
<mgrwt>
<rscale>  0 0.62230535E+03</rscale>
<asrwt>0</asrwt>
<pdfrwt beam="1">  1        2 0.20761635E+00 0.62230535E+03</pdfrwt>
<pdfrwt beam="2">  1       -2 0.95167673E-02 0.62230535E+03</pdfrwt>
<totfact> 0.11668680E+03</totfact>
</mgrwt>
</event>
<event>
 4    1  0.6165923E-005  0.6529794E+03  0.7818608E-02  0.9801204E-01
          2   -1    0    0  501    0  0.00000000000E+00  0.00000000000E+00  0.61208189578E+03  0.61208189578E+03  0.25500000000E-02 0.  1.
         -2   -1    0    0    0  501 -0.00000000000E+00 -0.00000000000E+00 -0.17415240845E+03  0.17415240847E+03  0.25500000000E-02 0. -1.
    5000001    1    1    2    0    0  0.39465635629E+02  0.25631207560E+03  0.14283043880E+03  0.35071063677E+03  0.18800000000E+03 0.  0.
   -5000001    1    1    2    0    0 -0.39465635629E+02 -0.25631207560E+03  0.29509904853E+03  0.43552366748E+03  0.18800000000E+03 0.  0.
<mgrwt>
<rscale>  0 0.65297944E+03</rscale>
<asrwt>0</asrwt>
<pdfrwt beam="1">  1        2 0.87440271E-01 0.65297944E+03</pdfrwt>
<pdfrwt beam="2">  1       -2 0.24878915E-01 0.65297944E+03</pdfrwt>
<totfact> 0.76875188E+02</totfact>
</mgrwt>
</event>
<event>
 4    1  0.6165923E-005  0.4750691E+03  0.7818608E-02  0.1020499E+00
          2   -1    0    0  501    0  0.00000000000E+00  0.00000000000E+00  0.15565901311E+04  0.15565901311E+04  0.25500000000E-02 0.  1.
         -2   -1    0    0    0  501 -0.00000000000E+00 -0.00000000000E+00 -0.36247609875E+02  0.36247609965E+02  0.25500000000E-02 0. -1.
    5000001    1    1    2    0    0  0.88273193990E+02  0.11464609694E+03  0.80023577697E+03  0.83465992061E+03  0.18800000000E+03 0.  0.
   -5000001    1    1    2    0    0 -0.88273193990E+02 -0.11464609694E+03  0.72010674425E+03  0.75817782046E+03  0.18800000000E+03 0.  0.
<mgrwt>
<rscale>  0 0.47506914E+03</rscale>
<asrwt>0</asrwt>
<pdfrwt beam="1">  1        2 0.22237001E+00 0.47506914E+03</pdfrwt>
<pdfrwt beam="2">  1       -2 0.51782303E-02 0.47506914E+03</pdfrwt>
<totfact> 0.27061608E+03</totfact>
</mgrwt>
</event>
<event>
 4    1  0.6165923E-005  0.6968423E+03  0.7818608E-02  0.9722648E-01
          2   -1    0    0  501    0  0.00000000000E+00  0.00000000000E+00  0.62753682866E+03  0.62753682866E+03  0.25500000000E-02 0.  1.
         -2   -1    0    0    0  501 -0.00000000000E+00 -0.00000000000E+00 -0.19345047820E+03  0.19345047821E+03  0.25500000000E-02 0. -1.
    5000001    1    1    2    0    0  0.24050694138E+03 -0.18607675005E+02  0.20381607635E+02  0.30651140982E+03  0.18800000000E+03 0.  0.
   -5000001    1    1    2    0    0 -0.24050694138E+03  0.18607675005E+02  0.41370474282E+03  0.51447589706E+03  0.18800000000E+03 0.  0.
<mgrwt>
<rscale>  0 0.69684231E+03</rscale>
<asrwt>0</asrwt>
<pdfrwt beam="1">  1        2 0.89648119E-01 0.69684231E+03</pdfrwt>
<pdfrwt beam="2">  1       -2 0.27635782E-01 0.69684231E+03</pdfrwt>
<totfact> 0.61624188E+02</totfact>
</mgrwt>
</event>
<event>
 4    1  0.6165923E-005  0.6619516E+03  0.7818608E-02  0.9784608E-01
         -2   -1    0    0    0  501 -0.00000000000E+00  0.00000000000E+00  0.44933411140E+02  0.44933411212E+02  0.25500000000E-02 0. -1.
          2   -1    0    0  501    0  0.00000000000E+00 -0.00000000000E+00 -0.24379403405E+04  0.24379403405E+04  0.25500000000E-02 0.  1.
    5000001    1    1    2    0    0 -0.23761924902E+03 -0.63085186112E+02 -0.75654545169E+03  0.81740300261E+03  0.18800000000E+03 0.  0.
   -5000001    1    1    2    0    0  0.23761924902E+03  0.63085186112E+02 -0.16364614777E+04  0.16654707491E+04  0.18800000000E+03 0.  0.
<mgrwt>
<rscale>  0 0.66195159E+03</rscale>
<asrwt>0</asrwt>
<pdfrwt beam="1">  1        2 0.34827711E+00 0.66195159E+03</pdfrwt>
<pdfrwt beam="2">  1       -2 0.64190603E-02 0.66195159E+03</pdfrwt>
<totfact> 0.68842914E+02</totfact>
</mgrwt>
</event>
<event>
 4    1  0.6165923E-005  0.4756870E+03  0.7818608E-02  0.1020327E+00
         -2   -1    0    0    0  501 -0.00000000000E+00  0.00000000000E+00  0.39927349506E+03  0.39927349507E+03  0.25500000000E-02 0. -1.
          2   -1    0    0  501    0  0.00000000000E+00 -0.00000000000E+00 -0.14168116743E+03  0.14168116745E+03  0.25500000000E-02 0.  1.
    5000001    1    1    2    0    0  0.13603261429E+03 -0.30336297936E+02  0.17704875815E+03  0.29345429948E+03  0.18800000000E+03 0.  0.
   -5000001    1    1    2    0    0 -0.13603261429E+03  0.30336297936E+02  0.80543569487E+02  0.24750036305E+03  0.18800000000E+03 0.  0.
<mgrwt>
<rscale>  0 0.47568702E+03</rscale>
<asrwt>0</asrwt>
<pdfrwt beam="1">  1        2 0.20240167E-01 0.47568702E+03</pdfrwt>
<pdfrwt beam="2">  1       -2 0.57039071E-01 0.47568702E+03</pdfrwt>
<totfact> 0.81061549E+02</totfact>
</mgrwt>
</event>
<event>
 4    1  0.6165923E-005  0.8337227E+03  0.7818608E-02  0.9512448E-01
          2   -1    0    0  501    0  0.00000000000E+00  0.00000000000E+00  0.12975079619E+04  0.12975079619E+04  0.25500000000E-02 0.  1.
         -2   -1    0    0    0  501 -0.00000000000E+00 -0.00000000000E+00 -0.13392857014E+03  0.13392857016E+03  0.25500000000E-02 0. -1.
    5000001    1    1    2    0    0 -0.32416104061E+03  0.88127282393E+02  0.30717567499E+03  0.49249131308E+03  0.18800000000E+03 0.  0.
   -5000001    1    1    2    0    0  0.32416104061E+03 -0.88127282393E+02  0.85640371680E+03  0.93894521901E+03  0.18800000000E+03 0.  0.
<mgrwt>
<rscale>  0 0.83372270E+03</rscale>
<asrwt>0</asrwt>
<pdfrwt beam="1">  1        2 0.18535827E+00 0.83372270E+03</pdfrwt>
<pdfrwt beam="2">  1       -2 0.19132654E-01 0.83372270E+03</pdfrwt>
<totfact> 0.43577319E+02</totfact>
</mgrwt>
</event>
<event>
 4    1  0.6165923E-005  0.4226629E+03  0.7818608E-02  0.1036203E+00
         -2   -1    0    0    0  501 -0.00000000000E+00  0.00000000000E+00  0.34467758528E+03  0.34467758529E+03  0.25500000000E-02 0. -1.
          2   -1    0    0  501    0  0.00000000000E+00 -0.00000000000E+00 -0.12957320692E+03  0.12957320695E+03  0.25500000000E-02 0.  1.
    5000001    1    1    2    0    0  0.27781386773E+02  0.89136349442E+02  0.13503418388E+03  0.24959031443E+03  0.18800000000E+03 0.  0.
   -5000001    1    1    2    0    0 -0.27781386773E+02 -0.89136349442E+02  0.80070194478E+02  0.22466047780E+03  0.18800000000E+03 0.  0.
<mgrwt>
<rscale>  0 0.42266289E+03</rscale>
<asrwt>0</asrwt>
<pdfrwt beam="1">  1        2 0.18510459E-01 0.42266289E+03</pdfrwt>
<pdfrwt beam="2">  1       -2 0.49239654E-01 0.42266289E+03</pdfrwt>
<totfact> 0.12135481E+03</totfact>
</mgrwt>
</event>
<event>
 4    1  0.6165923E-005  0.6779648E+03  0.7818608E-02  0.9755675E-01
          2   -1    0    0  501    0  0.00000000000E+00  0.00000000000E+00  0.14594417651E+03  0.14594417653E+03  0.25500000000E-02 0.  1.
         -2   -1    0    0    0  501 -0.00000000000E+00 -0.00000000000E+00 -0.78734950071E+03  0.78734950072E+03  0.25500000000E-02 0. -1.
    5000001    1    1    2    0    0 -0.85570505096E+02 -0.20893717367E+03 -0.87945417145E+02  0.30668461044E+03  0.18800000000E+03 0.  0.
   -5000001    1    1    2    0    0  0.85570505096E+02  0.20893717367E+03 -0.55345990706E+03  0.62660906681E+03  0.18800000000E+03 0.  0.
<mgrwt>
<rscale>  0 0.67796482E+03</rscale>
<asrwt>0</asrwt>
<pdfrwt beam="1">  1        2 0.20849168E-01 0.67796482E+03</pdfrwt>
<pdfrwt beam="2">  1       -2 0.11247850E+00 0.67796482E+03</pdfrwt>
<totfact> 0.17030419E+02</totfact>
</mgrwt>
</event>
<event>
 4    1  0.6165923E-005  0.8989244E+03  0.7818608E-02  0.9426927E-01
         -2   -1    0    0    0  501 -0.00000000000E+00  0.00000000000E+00  0.36484269511E+03  0.36484269511E+03  0.25500000000E-02 0. -1.
          2   -1    0    0  501    0  0.00000000000E+00 -0.00000000000E+00 -0.55370784000E+03  0.55370784001E+03  0.25500000000E-02 0.  1.
    5000001    1    1    2    0    0 -0.18873042924E+03  0.32507829403E+03  0.68347653710E+02  0.42580567626E+03  0.18800000000E+03 0.  0.
   -5000001    1    1    2    0    0  0.18873042924E+03 -0.32507829403E+03 -0.25721279861E+03  0.49274485886E+03  0.18800000000E+03 0.  0.
<mgrwt>
<rscale>  0 0.89892438E+03</rscale>
<asrwt>0</asrwt>
<pdfrwt beam="1">  1        2 0.79101119E-01 0.89892438E+03</pdfrwt>
<pdfrwt beam="2">  1       -2 0.52120385E-01 0.89892438E+03</pdfrwt>
<totfact> 0.20792912E+02</totfact>
</mgrwt>
</event>
<event>
 4    1  0.6165923E-005  0.4542961E+03  0.7818608E-02  0.1026449E+00
          2   -1    0    0  501    0  0.00000000000E+00  0.00000000000E+00  0.13625679817E+04  0.13625679817E+04  0.25500000000E-02 0.  1.
         -2   -1    0    0    0  501 -0.00000000000E+00 -0.00000000000E+00 -0.37866908966E+02  0.37866909052E+02  0.25500000000E-02 0. -1.
    5000001    1    1    2    0    0 -0.12451214772E+03  0.13280178570E+02  0.73611538758E+03  0.76999318303E+03  0.18800000000E+03 0.  0.
   -5000001    1    1    2    0    0  0.12451214772E+03 -0.13280178570E+02  0.58858568511E+03  0.63044170768E+03  0.18800000000E+03 0.  0.
<mgrwt>
<rscale>  0 0.45429611E+03</rscale>
<asrwt>0</asrwt>
<pdfrwt beam="1">  1        2 0.19465261E+00 0.45429611E+03</pdfrwt>
<pdfrwt beam="2">  1       -2 0.54095574E-02 0.45429611E+03</pdfrwt>
<totfact> 0.31917714E+03</totfact>
</mgrwt>
</event>
<event>
 4    1  0.6165923E-005  0.6378306E+03  0.7818608E-02  0.9829886E-01
         -2   -1    0    0    0  501 -0.00000000000E+00  0.00000000000E+00  0.78256657496E+02  0.78256657538E+02  0.25500000000E-02 0. -1.
          2   -1    0    0  501    0  0.00000000000E+00 -0.00000000000E+00 -0.12996590370E+04  0.12996590371E+04  0.25500000000E-02 0.  1.
    5000001    1    1    2    0    0  0.14247354777E+03  0.19883721160E+03 -0.43615589455E+03  0.53423862916E+03  0.18800000000E+03 0.  0.
   -5000001    1    1    2    0    0 -0.14247354777E+03 -0.19883721160E+03 -0.78524648500E+03  0.84367706543E+03  0.18800000000E+03 0.  0.
<mgrwt>
<rscale>  0 0.63783061E+03</rscale>
<asrwt>0</asrwt>
<pdfrwt beam="1">  1        2 0.18566556E+00 0.63783061E+03</pdfrwt>
<pdfrwt beam="2">  1       -2 0.11179523E-01 0.63783061E+03</pdfrwt>
<totfact> 0.10845032E+03</totfact>
</mgrwt>
</event>
<event>
 4    1  0.6165923E-005  0.1505552E+04  0.7818608E-02  0.8880769E-01
         -2   -1    0    0    0  501 -0.00000000000E+00  0.00000000000E+00  0.10819836937E+03  0.10819836940E+03  0.25500000000E-02 0.  1.
          2   -1    0    0  501    0  0.00000000000E+00 -0.00000000000E+00 -0.52373409803E+04  0.52373409803E+04  0.25500000000E-02 0. -1.
    5000001    1    1    2    0    0 -0.22945256528E+03  0.52747879776E+03 -0.41541930357E+04  0.41980407501E+04  0.18800000000E+03 0.  0.
   -5000001    1    1    2    0    0  0.22945256528E+03 -0.52747879776E+03 -0.97494957526E+03  0.11474985996E+04  0.18800000000E+03 0.  0.
<mgrwt>
<rscale>  0 0.15055521E+04</rscale>
<asrwt>0</asrwt>
<pdfrwt beam="1">  1        2 0.74819141E+00 0.15055521E+04</pdfrwt>
<pdfrwt beam="2">  1       -2 0.15456913E-01 0.15055521E+04</pdfrwt>
<totfact> 0.17034470E+00</totfact>
</mgrwt>
</event>
<event>
 4    1  0.6165923E-005  0.8197666E+03  0.7818608E-02  0.9531838E-01
          2   -1    0    0  501    0  0.00000000000E+00  0.00000000000E+00  0.34742850857E+03  0.34742850858E+03  0.25500000000E-02 0.  1.
         -2   -1    0    0    0  501 -0.00000000000E+00 -0.00000000000E+00 -0.48356519308E+03  0.48356519309E+03  0.25500000000E-02 0. -1.
    5000001    1    1    2    0    0 -0.12440567350E+03  0.26683865798E+03  0.14929947759E+03  0.37988679235E+03  0.18800000000E+03 0.  0.
   -5000001    1    1    2    0    0  0.12440567350E+03 -0.26683865798E+03 -0.28543616211E+03  0.45110690931E+03  0.18800000000E+03 0.  0.
<mgrwt>
<rscale>  0 0.81976663E+03</rscale>
<asrwt>0</asrwt>
<pdfrwt beam="1">  1        2 0.49632644E-01 0.81976663E+03</pdfrwt>
<pdfrwt beam="2">  1       -2 0.69080742E-01 0.81976663E+03</pdfrwt>
<totfact> 0.19504084E+02</totfact>
</mgrwt>
</event>
<event>
 4    1  0.6165923E-005  0.5419744E+03  0.7818608E-02  0.1003369E+00
         -2   -1    0    0    0  501 -0.00000000000E+00  0.00000000000E+00  0.36346197381E+03  0.36346197382E+03  0.25500000000E-02 0. -1.
          2   -1    0    0  501    0  0.00000000000E+00 -0.00000000000E+00 -0.20204054116E+03  0.20204054117E+03  0.25500000000E-02 0.  1.
    5000001    1    1    2    0    0  0.13414688373E+03 -0.13925867436E+03  0.53071345377E+02  0.27486166066E+03  0.18800000000E+03 0.  0.
   -5000001    1    1    2    0    0 -0.13414688373E+03  0.13925867436E+03  0.10835008727E+03  0.29064085434E+03  0.18800000000E+03 0.  0.
<mgrwt>
<rscale>  0 0.54197437E+03</rscale>
<asrwt>0</asrwt>
<pdfrwt beam="1">  1        2 0.28862935E-01 0.54197437E+03</pdfrwt>
<pdfrwt beam="2">  1       -2 0.51923138E-01 0.54197437E+03</pdfrwt>
<totfact> 0.65533856E+02</totfact>
</mgrwt>
</event>
<event>
 4    1  0.6165923E-005  0.4768658E+03  0.7818608E-02  0.1020000E+00
         -2   -1    0    0    0  501 -0.00000000000E+00  0.00000000000E+00  0.59264434781E+02  0.59264434836E+02  0.25500000000E-02 0. -1.
          2   -1    0    0  501    0  0.00000000000E+00 -0.00000000000E+00 -0.95926433360E+03  0.95926433360E+03  0.25500000000E-02 0.  1.
    5000001    1    1    2    0    0  0.98412068218E+02 -0.95554928198E+02 -0.56078979674E+03  0.60716132584E+03  0.18800000000E+03 0.  0.
   -5000001    1    1    2    0    0 -0.98412068218E+02  0.95554928198E+02 -0.33921010208E+03  0.41136744259E+03  0.18800000000E+03 0.  0.
<mgrwt>
<rscale>  0 0.47686585E+03</rscale>
<asrwt>0</asrwt>
<pdfrwt beam="1">  1        2 0.13703775E+00 0.47686585E+03</pdfrwt>
<pdfrwt beam="2">  1       -2 0.84663484E-02 0.47686585E+03</pdfrwt>
<totfact> 0.26752743E+03</totfact>
</mgrwt>
</event>
<event>
 4    1  0.6165923E-005  0.5205655E+03  0.7818608E-02  0.1008546E+00
         -2   -1    0    0    0  501 -0.00000000000E+00  0.00000000000E+00  0.27067924895E+02  0.27067925015E+02  0.25500000000E-02 0. -1.
          2   -1    0    0  501    0  0.00000000000E+00 -0.00000000000E+00 -0.25028559110E+04  0.25028559110E+04  0.25500000000E-02 0.  1.
    5000001    1    1    2    0    0 -0.41734139555E+02 -0.12824181124E+03 -0.18173384639E+04  0.18320073125E+04  0.18800000000E+03 0.  0.
   -5000001    1    1    2    0    0  0.41734139555E+02  0.12824181124E+03 -0.65844952223E+03  0.69791652358E+03  0.18800000000E+03 0.  0.
<mgrwt>
<rscale>  0 0.52056552E+03</rscale>
<asrwt>0</asrwt>
<pdfrwt beam="1">  1        2 0.35755070E+00 0.52056552E+03</pdfrwt>
<pdfrwt beam="2">  1       -2 0.38668480E-02 0.52056552E+03</pdfrwt>
<totfact> 0.14140257E+03</totfact>
</mgrwt>
</event>
<event>
 4    1  0.6165923E-005  0.5445310E+03  0.7818608E-02  0.1002768E+00
         -2   -1    0    0    0  501 -0.00000000000E+00  0.00000000000E+00  0.57152521261E+02  0.57152521317E+02  0.25500000000E-02 0. -1.
          2   -1    0    0  501    0  0.00000000000E+00 -0.00000000000E+00 -0.12970295204E+04  0.12970295204E+04  0.25500000000E-02 0.  1.
    5000001    1    1    2    0    0  0.15616715044E+03  0.50907513271E+02 -0.34974002775E+03  0.42969971003E+03  0.18800000000E+03 0.  0.
   -5000001    1    1    2    0    0 -0.15616715044E+03 -0.50907513271E+02 -0.89013697139E+03  0.92448233169E+03  0.18800000000E+03 0.  0.
<mgrwt>
<rscale>  0 0.54453102E+03</rscale>
<asrwt>0</asrwt>
<pdfrwt beam="1">  1        2 0.18528991E+00 0.54453102E+03</pdfrwt>
<pdfrwt beam="2">  1       -2 0.81646467E-02 0.54453102E+03</pdfrwt>
<totfact> 0.18120692E+03</totfact>
</mgrwt>
</event>
<event>
 4    1  0.6165923E-005  0.7850804E+03  0.7818608E-02  0.9581867E-01
          2   -1    0    0  501    0  0.00000000000E+00  0.00000000000E+00  0.13574179584E+04  0.13574179584E+04  0.25500000000E-02 0.  1.
         -2   -1    0    0    0  501 -0.00000000000E+00 -0.00000000000E+00 -0.11351536260E+03  0.11351536263E+03  0.25500000000E-02 0. -1.
    5000001    1    1    2    0    0 -0.28717087246E+03  0.11270163001E+03  0.33427442444E+03  0.49219118057E+03  0.18800000000E+03 0.  0.
   -5000001    1    1    2    0    0  0.28717087246E+03 -0.11270163001E+03  0.90962817136E+03  0.97874214047E+03  0.18800000000E+03 0.  0.
<mgrwt>
<rscale>  0 0.78508036E+03</rscale>
<asrwt>0</asrwt>
<pdfrwt beam="1">  1        2 0.19391685E+00 0.78508036E+03</pdfrwt>
<pdfrwt beam="2">  1       -2 0.16216481E-01 0.78508036E+03</pdfrwt>
<totfact> 0.53870473E+02</totfact>
</mgrwt>
</event>
<event>
 4    1  0.6165923E-005  0.5107637E+03  0.7818608E-02  0.1011007E+00
          2   -1    0    0  501    0  0.00000000000E+00  0.00000000000E+00  0.27989992563E+04  0.27989992563E+04  0.25500000000E-02 0.  1.
         -2   -1    0    0    0  501 -0.00000000000E+00 -0.00000000000E+00 -0.23301143234E+02  0.23301143373E+02  0.25500000000E-02 0. -1.
    5000001    1    1    2    0    0 -0.13441767848E+03 -0.62938371920E+02  0.18773145782E+04  0.18925335866E+04  0.18800000000E+03 0.  0.
   -5000001    1    1    2    0    0  0.13441767848E+03  0.62938371920E+02  0.89838353492E+03  0.92976681311E+03  0.18800000000E+03 0.  0.
<mgrwt>
<rscale>  0 0.51076367E+03</rscale>
<asrwt>0</asrwt>
<pdfrwt beam="1">  1        2 0.39985702E+00 0.51076367E+03</pdfrwt>
<pdfrwt beam="2">  1       -2 0.33287349E-02 0.51076367E+03</pdfrwt>
<totfact> 0.12488119E+03</totfact>
</mgrwt>
</event>
<event>
 4    1  0.6165923E-005  0.6549287E+03  0.7818608E-02  0.9797574E-01
          2   -1    0    0  501    0  0.00000000000E+00  0.00000000000E+00  0.10374926951E+04  0.10374926951E+04  0.25500000000E-02 0. -1.
         -2   -1    0    0    0  501 -0.00000000000E+00 -0.00000000000E+00 -0.10335774974E+03  0.10335774978E+03  0.25500000000E-02 0.  1.
    5000001    1    1    2    0    0  0.13522701532E+03  0.12641814527E+03  0.80493771325E+03  0.84707533038E+03  0.18800000000E+03 0.  0.
   -5000001    1    1    2    0    0 -0.13522701532E+03 -0.12641814527E+03  0.12919723215E+03  0.29377511454E+03  0.18800000000E+03 0.  0.
<mgrwt>
<rscale>  0 0.65492873E+03</rscale>
<asrwt>0</asrwt>
<pdfrwt beam="1">  1        2 0.14821323E+00 0.65492873E+03</pdfrwt>
<pdfrwt beam="2">  1       -2 0.14765394E-01 0.65492873E+03</pdfrwt>
<totfact> 0.96329433E+02</totfact>
</mgrwt>
</event>
<event>
 4    1  0.6165923E-005  0.8555313E+03  0.7818608E-02  0.9482943E-01
          2   -1    0    0  501    0  0.00000000000E+00  0.00000000000E+00  0.16722106932E+04  0.16722106932E+04  0.25500000000E-02 0.  1.
         -2   -1    0    0    0  501 -0.00000000000E+00 -0.00000000000E+00 -0.10942608329E+03  0.10942608332E+03  0.25500000000E-02 0. -1.
    5000001    1    1    2    0    0 -0.24782357181E+03  0.27414147825E+03  0.56229089808E+03  0.69863089461E+03  0.18800000000E+03 0.  0.
   -5000001    1    1    2    0    0  0.24782357181E+03 -0.27414147825E+03  0.10004937119E+04  0.10830058819E+04  0.18800000000E+03 0.  0.
<mgrwt>
<rscale>  0 0.85553134E+03</rscale>
<asrwt>0</asrwt>
<pdfrwt beam="1">  1        2 0.23888724E+00 0.85553134E+03</pdfrwt>
<pdfrwt beam="2">  1       -2 0.15632298E-01 0.85553134E+03</pdfrwt>
<totfact> 0.39006859E+02</totfact>
</mgrwt>
</event>
<event>
 4    1  0.6165923E-005  0.7088959E+03  0.7818608E-02  0.9702139E-01
         -2   -1    0    0    0  501 -0.00000000000E+00  0.00000000000E+00  0.39192271336E+02  0.39192271419E+02  0.25500000000E-02 0. -1.
          2   -1    0    0  501    0  0.00000000000E+00 -0.00000000000E+00 -0.32055647372E+04  0.32055647372E+04  0.25500000000E-02 0.  1.
    5000001    1    1    2    0    0  0.23774450937E+03  0.91240111189E+02 -0.85309585508E+03  0.90992513295E+03  0.18800000000E+03 0.  0.
   -5000001    1    1    2    0    0 -0.23774450937E+03 -0.91240111189E+02 -0.23132766108E+04  0.23348318757E+04  0.18800000000E+03 0.  0.
<mgrwt>
<rscale>  0 0.70889594E+03</rscale>
<asrwt>0</asrwt>
<pdfrwt beam="1">  1        2 0.45793765E+00 0.70889594E+03</pdfrwt>
<pdfrwt beam="2">  1       -2 0.55988979E-02 0.70889594E+03</pdfrwt>
<totfact> 0.33010304E+02</totfact>
</mgrwt>
</event>
<event>
 4    1  0.6165923E-005  0.6023715E+03  0.7818608E-02  0.9900498E-01
         -2   -1    0    0    0  501 -0.00000000000E+00  0.00000000000E+00  0.23836598106E+04  0.23836598106E+04  0.25500000000E-02 0.  1.
          2   -1    0    0  501    0  0.00000000000E+00 -0.00000000000E+00 -0.38056123695E+02  0.38056123781E+02  0.25500000000E-02 0. -1.
    5000001    1    1    2    0    0 -0.31913160165E+02 -0.19162089907E+03  0.63896624021E+03  0.69380031340E+03  0.18800000000E+03 0.  0.
   -5000001    1    1    2    0    0  0.31913160165E+02  0.19162089907E+03  0.17066374467E+04  0.17279156210E+04  0.18800000000E+03 0.  0.
<mgrwt>
<rscale>  0 0.60237149E+03</rscale>
<asrwt>0</asrwt>
<pdfrwt beam="1">  1        2 0.54365902E-02 0.60237149E+03</pdfrwt>
<pdfrwt beam="2">  1       -2 0.34052276E+00 0.60237149E+03</pdfrwt>
<totfact> 0.28212908E+01</totfact>
</mgrwt>
</event>
<event>
 4    1  0.6165923E-005  0.5896600E+03  0.7818608E-02  0.9927094E-01
         -2   -1    0    0    0  501 -0.00000000000E+00  0.00000000000E+00  0.32107548846E+02  0.32107548947E+02  0.25500000000E-02 0. -1.
          2   -1    0    0  501    0  0.00000000000E+00 -0.00000000000E+00 -0.27072984735E+04  0.27072984735E+04  0.25500000000E-02 0.  1.
    5000001    1    1    2    0    0  0.16575898484E+03  0.44220058756E+02 -0.64618744750E+03  0.69450246361E+03  0.18800000000E+03 0.  0.
   -5000001    1    1    2    0    0 -0.16575898484E+03 -0.44220058756E+02 -0.20290034772E+04  0.20449035588E+04  0.18800000000E+03 0.  0.
<mgrwt>
<rscale>  0 0.58965996E+03</rscale>
<asrwt>0</asrwt>
<pdfrwt beam="1">  1        2 0.38675678E+00 0.58965996E+03</pdfrwt>
<pdfrwt beam="2">  1       -2 0.45867944E-02 0.58965996E+03</pdfrwt>
<totfact> 0.84827958E+02</totfact>
</mgrwt>
</event>
<event>
 4    1  0.6165923E-005  0.7079406E+03  0.7818608E-02  0.9703748E-01
         -2   -1    0    0    0  501 -0.00000000000E+00  0.00000000000E+00  0.34897891431E+02  0.34897891524E+02  0.25500000000E-02 0. -1.
          2   -1    0    0  501    0  0.00000000000E+00 -0.00000000000E+00 -0.35903307318E+04  0.35903307318E+04  0.25500000000E-02 0.  1.
    5000001    1    1    2    0    0  0.23667770024E+03  0.79897697117E+02 -0.26276935453E+04  0.26462270016E+04  0.18800000000E+03 0.  0.
   -5000001    1    1    2    0    0 -0.23667770024E+03 -0.79897697117E+02 -0.92773929503E+03  0.97900162172E+03  0.18800000000E+03 0.  0.
<mgrwt>
<rscale>  0 0.70794060E+03</rscale>
<asrwt>0</asrwt>
<pdfrwt beam="1">  1        2 0.51290416E+00 0.70794060E+03</pdfrwt>
<pdfrwt beam="2">  1       -2 0.49854153E-02 0.70794060E+03</pdfrwt>
<totfact> 0.23560439E+02</totfact>
</mgrwt>
</event>
<event>
 4    1  0.6165923E-005  0.5974269E+03  0.7818608E-02  0.9910759E-01
         -2   -1    0    0    0  501 -0.00000000000E+00  0.00000000000E+00  0.14628824742E+04  0.14628824742E+04  0.25500000000E-02 0. -1.
          2   -1    0    0  501    0  0.00000000000E+00 -0.00000000000E+00 -0.60995829576E+02  0.60995829629E+02  0.25500000000E-02 0.  1.
    5000001    1    1    2    0    0 -0.24461077399E+02 -0.16454168642E+03  0.11139217222E+04  0.11418572214E+04  0.18800000000E+03 0.  0.
   -5000001    1    1    2    0    0  0.24461077399E+02  0.16454168642E+03  0.28796492244E+03  0.38202108245E+03  0.18800000000E+03 0.  0.
<mgrwt>
<rscale>  0 0.59742692E+03</rscale>
<asrwt>0</asrwt>
<pdfrwt beam="1">  1        2 0.87136903E-02 0.59742692E+03</pdfrwt>
<pdfrwt beam="2">  1       -2 0.20898320E+00 0.59742692E+03</pdfrwt>
<totfact> 0.94759095E+01</totfact>
</mgrwt>
</event>
<event>
 4    1  0.6165923E-005  0.4866580E+03  0.7818608E-02  0.1017321E+00
          2   -1    0    0  501    0  0.00000000000E+00  0.00000000000E+00  0.53838015462E+03  0.53838015463E+03  0.25500000000E-02 0.  1.
         -2   -1    0    0    0  501 -0.00000000000E+00 -0.00000000000E+00 -0.10997617555E+03  0.10997617558E+03  0.25500000000E-02 0. -1.
    5000001    1    1    2    0    0  0.69416822002E+02 -0.35238429613E+02  0.36433242245E+02  0.20671677058E+03  0.18800000000E+03 0.  0.
   -5000001    1    1    2    0    0 -0.69416822002E+02  0.35238429613E+02  0.39197073683E+03  0.44163955963E+03  0.18800000000E+03 0.  0.
<mgrwt>
<rscale>  0 0.48665795E+03</rscale>
<asrwt>0</asrwt>
<pdfrwt beam="1">  1        2 0.76911451E-01 0.48665795E+03</pdfrwt>
<pdfrwt beam="2">  1       -2 0.15710882E-01 0.48665795E+03</pdfrwt>
<totfact> 0.19863963E+03</totfact>
</mgrwt>
</event>
<event>
 4    1  0.6165923E-005  0.5762666E+03  0.7818608E-02  0.9955907E-01
          2   -1    0    0  501    0  0.00000000000E+00  0.00000000000E+00  0.11986716385E+04  0.11986716385E+04  0.25500000000E-02 0.  1.
         -2   -1    0    0    0  501 -0.00000000000E+00 -0.00000000000E+00 -0.69260676200E+02  0.69260676247E+02  0.25500000000E-02 0. -1.
    5000001    1    1    2    0    0  0.63973247563E+02 -0.20289216711E+03  0.67292125367E+03  0.73035937833E+03  0.18800000000E+03 0.  0.
   -5000001    1    1    2    0    0 -0.63973247563E+02  0.20289216711E+03  0.45648970861E+03  0.53757293639E+03  0.18800000000E+03 0.  0.
<mgrwt>
<rscale>  0 0.57626663E+03</rscale>
<asrwt>0</asrwt>
<pdfrwt beam="1">  1        2 0.17123882E+00 0.57626663E+03</pdfrwt>
<pdfrwt beam="2">  1       -2 0.98943814E-02 0.57626663E+03</pdfrwt>
<totfact> 0.15069415E+03</totfact>
</mgrwt>
</event>
<event>
 4    1  0.6165923E-005  0.5551736E+03  0.7818608E-02  0.1000303E+00
         -2   -1    0    0    0  501 -0.00000000000E+00  0.00000000000E+00  0.18222067530E+03  0.18222067532E+03  0.25500000000E-02 0. -1.
          2   -1    0    0  501    0  0.00000000000E+00 -0.00000000000E+00 -0.42286326610E+03  0.42286326610E+03  0.25500000000E-02 0.  1.
    5000001    1    1    2    0    0 -0.14059350106E+03  0.24343085460E+02  0.38935915151E+02  0.23920519192E+03  0.18800000000E+03 0.  0.
   -5000001    1    1    2    0    0  0.14059350106E+03 -0.24343085460E+02 -0.27957850595E+03  0.36587874951E+03  0.18800000000E+03 0.  0.
<mgrwt>
<rscale>  0 0.55517359E+03</rscale>
<asrwt>0</asrwt>
<pdfrwt beam="1">  1        2 0.60409038E-01 0.55517359E+03</pdfrwt>
<pdfrwt beam="2">  1       -2 0.26031525E-01 0.55517359E+03</pdfrwt>
<totfact> 0.10830369E+03</totfact>
</mgrwt>
</event>
<event>
 4    1  0.6165923E-005  0.4509811E+03  0.7818608E-02  0.1027430E+00
          2   -1    0    0  501    0  0.00000000000E+00  0.00000000000E+00  0.89389943701E+03  0.89389943702E+03  0.25500000000E-02 0.  1.
         -2   -1    0    0    0  501 -0.00000000000E+00 -0.00000000000E+00 -0.56881104216E+02  0.56881104274E+02  0.25500000000E-02 0. -1.
    5000001    1    1    2    0    0 -0.64776672688E+01  0.11938697531E+03  0.34527133721E+03  0.41091544914E+03  0.18800000000E+03 0.  0.
   -5000001    1    1    2    0    0  0.64776672688E+01 -0.11938697531E+03  0.49174699559E+03  0.53986509215E+03  0.18800000000E+03 0.  0.
<mgrwt>
<rscale>  0 0.45098110E+03</rscale>
<asrwt>0</asrwt>
<pdfrwt beam="1">  1        2 0.12769992E+00 0.45098110E+03</pdfrwt>
<pdfrwt beam="2">  1       -2 0.81258722E-02 0.45098110E+03</pdfrwt>
<totfact> 0.31381265E+03</totfact>
</mgrwt>
</event>
<event>
 4    1  0.6165923E-005  0.9996530E+03  0.7818608E-02  0.9308925E-01
          2   -1    0    0  501    0  0.00000000000E+00  0.00000000000E+00  0.14456596661E+04  0.14456596661E+04  0.25500000000E-02 0.  1.
         -2   -1    0    0    0  501 -0.00000000000E+00 -0.00000000000E+00 -0.17281143984E+03  0.17281143986E+03  0.25500000000E-02 0. -1.
    5000001    1    1    2    0    0  0.28382126187E+03 -0.35003662066E+03  0.80930759805E+03  0.94519994327E+03  0.18800000000E+03 0.  0.
   -5000001    1    1    2    0    0 -0.28382126187E+03  0.35003662066E+03  0.46354062816E+03  0.67327116265E+03  0.18800000000E+03 0.  0.
<mgrwt>
<rscale>  0 0.99965300E+03</rscale>
<asrwt>0</asrwt>
<pdfrwt beam="1">  1        2 0.20652281E+00 0.99965300E+03</pdfrwt>
<pdfrwt beam="2">  1       -2 0.24687348E-01 0.99965300E+03</pdfrwt>
<totfact> 0.22846505E+02</totfact>
</mgrwt>
</event>
<event>
 4    1  0.6165923E-005  0.9760261E+03  0.7818608E-02  0.9335237E-01
         -2   -1    0    0    0  501 -0.00000000000E+00  0.00000000000E+00  0.28655694012E+03  0.28655694014E+03  0.25500000000E-02 0. -1.
          2   -1    0    0  501    0  0.00000000000E+00 -0.00000000000E+00 -0.83109744242E+03  0.83109744243E+03  0.25500000000E-02 0.  1.
    5000001    1    1    2    0    0  0.35503260897E+03 -0.26056307000E+03 -0.38012616506E+03  0.61137645378E+03  0.18800000000E+03 0.  0.
   -5000001    1    1    2    0    0 -0.35503260897E+03  0.26056307000E+03 -0.16441433724E+03  0.50627792878E+03  0.18800000000E+03 0.  0.
<mgrwt>
<rscale>  0 0.97602611E+03</rscale>
<asrwt>0</asrwt>
<pdfrwt beam="1">  1        2 0.11872821E+00 0.97602611E+03</pdfrwt>
<pdfrwt beam="2">  1       -2 0.40936706E-01 0.97602611E+03</pdfrwt>
<totfact> 0.20400985E+02</totfact>
</mgrwt>
</event>
<event>
 4    1  0.6165923E-005  0.7569504E+03  0.7818608E-02  0.9624509E-01
          2   -1    0    0  501    0  0.00000000000E+00  0.00000000000E+00  0.15671325167E+04  0.15671325168E+04  0.25500000000E-02 0.  1.
         -2   -1    0    0    0  501 -0.00000000000E+00 -0.00000000000E+00 -0.91404835755E+02  0.91404835790E+02  0.25500000000E-02 0. -1.
    5000001    1    1    2    0    0 -0.14992391876E+03 -0.17914574340E+03  0.23187610750E+03  0.37905264545E+03  0.18800000000E+03 0.  0.
   -5000001    1    1    2    0    0  0.14992391876E+03  0.17914574340E+03  0.12438515735E+04  0.12794847071E+04  0.18800000000E+03 0.  0.
<mgrwt>
<rscale>  0 0.75695044E+03</rscale>
<asrwt>0</asrwt>
<pdfrwt beam="1">  1        2 0.22387606E+00 0.75695044E+03</pdfrwt>
<pdfrwt beam="2">  1       -2 0.13057834E-01 0.75695044E+03</pdfrwt>
<totfact> 0.60189992E+02</totfact>
</mgrwt>
</event>
<event>
 4    1  0.6165923E-005  0.5564844E+03  0.7818608E-02  0.1000004E+00
          2   -1    0    0  501    0  0.00000000000E+00  0.00000000000E+00  0.14764926762E+04  0.14764926762E+04  0.25500000000E-02 0.  1.
         -2   -1    0    0    0  501 -0.00000000000E+00 -0.00000000000E+00 -0.52434208157E+02  0.52434208219E+02  0.25500000000E-02 0. -1.
    5000001    1    1    2    0    0 -0.16535820825E+03 -0.11462726683E+03  0.82165234332E+03  0.86656755110E+03  0.18800000000E+03 0.  0.
   -5000001    1    1    2    0    0  0.16535820825E+03  0.11462726683E+03  0.60240612476E+03  0.66235933336E+03  0.18800000000E+03 0.  0.
<mgrwt>
<rscale>  0 0.55648441E+03</rscale>
<asrwt>0</asrwt>
<pdfrwt beam="1">  1        2 0.21092747E+00 0.55648441E+03</pdfrwt>
<pdfrwt beam="2">  1       -2 0.74906033E-02 0.55648441E+03</pdfrwt>
<totfact> 0.16677774E+03</totfact>
</mgrwt>
</event>
<event>
 4    1  0.6165923E-005  0.4711931E+03  0.7818608E-02  0.1021584E+00
         -2   -1    0    0    0  501 -0.00000000000E+00  0.00000000000E+00  0.35335161476E+02  0.35335161568E+02  0.25500000000E-02 0. -1.
          2   -1    0    0  501    0  0.00000000000E+00 -0.00000000000E+00 -0.15708357190E+04  0.15708357190E+04  0.25500000000E-02 0.  1.
    5000001    1    1    2    0    0  0.11831879853E+03 -0.77328352519E+02 -0.72167289039E+03  0.75903542270E+03  0.18800000000E+03 0.  0.
   -5000001    1    1    2    0    0 -0.11831879853E+03  0.77328352519E+02 -0.81382766715E+03  0.84713545789E+03  0.18800000000E+03 0.  0.
<mgrwt>
<rscale>  0 0.47119310E+03</rscale>
<asrwt>0</asrwt>
<pdfrwt beam="1">  1        2 0.22440506E+00 0.47119310E+03</pdfrwt>
<pdfrwt beam="2">  1       -2 0.50478812E-02 0.47119310E+03</pdfrwt>
<totfact> 0.27681567E+03</totfact>
</mgrwt>
</event>
<event>
 4    1  0.6165923E-005  0.6218232E+03  0.7818608E-02  0.9861136E-01
         -2   -1    0    0    0  501 -0.00000000000E+00  0.00000000000E+00  0.22817240278E+03  0.22817240279E+03  0.25500000000E-02 0. -1.
          2   -1    0    0  501    0  0.00000000000E+00 -0.00000000000E+00 -0.42365345645E+03  0.42365345646E+03  0.25500000000E-02 0.  1.
    5000001    1    1    2    0    0  0.20250567094E+03 -0.10174153461E+03  0.68858018043E+01  0.29453573789E+03  0.18800000000E+03 0.  0.
   -5000001    1    1    2    0    0 -0.20250567094E+03  0.10174153461E+03 -0.20236685547E+03  0.35729012136E+03  0.18800000000E+03 0.  0.
<mgrwt>
<rscale>  0 0.62182321E+03</rscale>
<asrwt>0</asrwt>
<pdfrwt beam="1">  1        2 0.60521922E-01 0.62182321E+03</pdfrwt>
<pdfrwt beam="2">  1       -2 0.32596058E-01 0.62182321E+03</pdfrwt>
<totfact> 0.71436323E+02</totfact>
</mgrwt>
</event>
<event>
 4    1  0.6165923E-005  0.4125624E+03  0.7818608E-02  0.1039515E+00
          2   -1    0    0  501    0  0.00000000000E+00  0.00000000000E+00  0.29243834136E+03  0.29243834137E+03  0.25500000000E-02 0.  1.
         -2   -1    0    0    0  501 -0.00000000000E+00 -0.00000000000E+00 -0.14550735172E+03  0.14550735174E+03  0.25500000000E-02 0. -1.
    5000001    1    1    2    0    0 -0.54446659081E+02  0.37601451576E+01  0.14250020659E+03  0.24213402539E+03  0.18800000000E+03 0.  0.
   -5000001    1    1    2    0    0  0.54446659081E+02 -0.37601451576E+01  0.44307830529E+01  0.19581166772E+03  0.18800000000E+03 0.  0.
<mgrwt>
<rscale>  0 0.41256238E+03</rscale>
<asrwt>0</asrwt>
<pdfrwt beam="1">  1        2 0.41776906E-01 0.41256238E+03</pdfrwt>
<pdfrwt beam="2">  1       -2 0.20786765E-01 0.41256238E+03</pdfrwt>
<totfact> 0.24144935E+03</totfact>
</mgrwt>
</event>
<event>
 4    1  0.6165923E-005  0.4625260E+03  0.7818608E-02  0.1024051E+00
          2   -1    0    0  501    0  0.00000000000E+00  0.00000000000E+00  0.15094068894E+04  0.15094068894E+04  0.25500000000E-02 0.  1.
         -2   -1    0    0    0  501 -0.00000000000E+00 -0.00000000000E+00 -0.35432844892E+02  0.35432844984E+02  0.25500000000E-02 0. -1.
    5000001    1    1    2    0    0  0.51860994272E+02 -0.12429328128E+03  0.73847234790E+03  0.77383705721E+03  0.18800000000E+03 0.  0.
   -5000001    1    1    2    0    0 -0.51860994272E+02  0.12429328128E+03  0.73550169660E+03  0.77100267717E+03  0.18800000000E+03 0.  0.
<mgrwt>
<rscale>  0 0.46252602E+03</rscale>
<asrwt>0</asrwt>
<pdfrwt beam="1">  1        2 0.21562954E+00 0.46252602E+03</pdfrwt>
<pdfrwt beam="2">  1       -2 0.50618352E-02 0.46252602E+03</pdfrwt>
<totfact> 0.29642762E+03</totfact>
</mgrwt>
</event>
<event>
 4    1  0.6165923E-005  0.6912216E+03  0.7818608E-02  0.9732363E-01
          2   -1    0    0  501    0  0.00000000000E+00  0.00000000000E+00  0.13085991292E+04  0.13085991292E+04  0.25500000000E-02 0.  1.
         -2   -1    0    0    0  501 -0.00000000000E+00 -0.00000000000E+00 -0.91278382656E+02  0.91278382692E+02  0.25500000000E-02 0. -1.
    5000001    1    1    2    0    0 -0.87293918555E+02 -0.27275061253E+03  0.51608117735E+03  0.61943272957E+03  0.18800000000E+03 0.  0.
   -5000001    1    1    2    0    0  0.87293918555E+02  0.27275061253E+03  0.70123956919E+03  0.78044478231E+03  0.18800000000E+03 0.  0.
<mgrwt>
<rscale>  0 0.69122156E+03</rscale>
<asrwt>0</asrwt>
<pdfrwt beam="1">  1        2 0.18694273E+00 0.69122156E+03</pdfrwt>
<pdfrwt beam="2">  1       -2 0.13039769E-01 0.69122156E+03</pdfrwt>
<totfact> 0.83016922E+02</totfact>
</mgrwt>
</event>
<event>
 4    1  0.6165923E-005  0.5141618E+03  0.7818608E-02  0.1010147E+00
          2   -1    0    0  501    0  0.00000000000E+00  0.00000000000E+00  0.14490213435E+04  0.14490213435E+04  0.25500000000E-02 0.  1.
         -2   -1    0    0    0  501 -0.00000000000E+00 -0.00000000000E+00 -0.45610504775E+02  0.45610504847E+02  0.25500000000E-02 0. -1.
    5000001    1    1    2    0    0 -0.14332122341E+02 -0.17057490920E+03  0.59118913760E+03  0.64354471934E+03  0.18800000000E+03 0.  0.
   -5000001    1    1    2    0    0  0.14332122341E+02  0.17057490920E+03  0.81222170111E+03  0.85108712899E+03  0.18800000000E+03 0.  0.
<mgrwt>
<rscale>  0 0.51416182E+03</rscale>
<asrwt>0</asrwt>
<pdfrwt beam="1">  1        2 0.20700303E+00 0.51416182E+03</pdfrwt>
<pdfrwt beam="2">  1       -2 0.65157871E-02 0.51416182E+03</pdfrwt>
<totfact> 0.21497420E+03</totfact>
</mgrwt>
</event>
<event>
 4    1  0.6165923E-005  0.4518205E+03  0.7818608E-02  0.1027181E+00
         -2   -1    0    0    0  501 -0.00000000000E+00  0.00000000000E+00  0.21972729794E+03  0.21972729795E+03  0.25500000000E-02 0. -1.
          2   -1    0    0  501    0  0.00000000000E+00 -0.00000000000E+00 -0.23226718050E+03  0.23226718051E+03  0.25500000000E-02 0.  1.
    5000001    1    1    2    0    0  0.52173709772E+02  0.77313837257E+02  0.77379926419E+02  0.22367650399E+03  0.18800000000E+03 0.  0.
   -5000001    1    1    2    0    0 -0.52173709772E+02 -0.77313837257E+02 -0.89919808980E+02  0.22831797448E+03  0.18800000000E+03 0.  0.
<mgrwt>
<rscale>  0 0.45182050E+03</rscale>
<asrwt>0</asrwt>
<pdfrwt beam="1">  1        2 0.33181026E-01 0.45182050E+03</pdfrwt>
<pdfrwt beam="2">  1       -2 0.31389614E-01 0.45182050E+03</pdfrwt>
<totfact> 0.14884346E+03</totfact>
</mgrwt>
</event>
<event>
 4    1  0.6165923E-005  0.4008234E+03  0.7818608E-02  0.1043495E+00
         -2   -1    0    0    0  501 -0.00000000000E+00  0.00000000000E+00  0.18440078083E+02  0.18440078259E+02  0.25500000000E-02 0. -1.
          2   -1    0    0  501    0  0.00000000000E+00 -0.00000000000E+00 -0.21781276238E+04  0.21781276238E+04  0.25500000000E-02 0.  1.
    5000001    1    1    2    0    0  0.26323668255E+00  0.57578739557E+02 -0.12924747900E+04  0.13073448142E+04  0.18800000000E+03 0.  0.
   -5000001    1    1    2    0    0 -0.26323668255E+00 -0.57578739557E+02 -0.86721275576E+03  0.88922288787E+03  0.18800000000E+03 0.  0.
<mgrwt>
<rscale>  0 0.40082337E+03</rscale>
<asrwt>0</asrwt>
<pdfrwt beam="1">  1        2 0.31116093E+00 0.40082337E+03</pdfrwt>
<pdfrwt beam="2">  1       -2 0.26342983E-02 0.40082337E+03</pdfrwt>
<totfact> 0.37042046E+03</totfact>
</mgrwt>
</event>
<event>
 4    1  0.6165923E-005  0.7332273E+03  0.7818608E-02  0.9662038E-01
          2   -1    0    0  501    0  0.00000000000E+00  0.00000000000E+00  0.24781651561E+03  0.24781651563E+03  0.25500000000E-02 0.  1.
         -2   -1    0    0    0  501 -0.00000000000E+00 -0.00000000000E+00 -0.54235916246E+03  0.54235916247E+03  0.25500000000E-02 0. -1.
    5000001    1    1    2    0    0 -0.15207234038E+03  0.58621655613E+02  0.14289783090E+03  0.28692557448E+03  0.18800000000E+03 0.  0.
   -5000001    1    1    2    0    0  0.15207234038E+03 -0.58621655613E+02 -0.43744047775E+03  0.50325010361E+03  0.18800000000E+03 0.  0.
<mgrwt>
<rscale>  0 0.73322727E+03</rscale>
<asrwt>0</asrwt>
<pdfrwt beam="1">  1        2 0.35402360E-01 0.73322727E+03</pdfrwt>
<pdfrwt beam="2">  1       -2 0.77479880E-01 0.73322727E+03</pdfrwt>
<totfact> 0.22126327E+02</totfact>
</mgrwt>
</event>
<event>
 4    1  0.6165923E-005  0.5429941E+03  0.7818608E-02  0.1003129E+00
         -2   -1    0    0    0  501 -0.00000000000E+00  0.00000000000E+00  0.12192103937E+03  0.12192103940E+03  0.25500000000E-02 0. -1.
          2   -1    0    0  501    0  0.00000000000E+00 -0.00000000000E+00 -0.60457689944E+03  0.60457689944E+03  0.25500000000E-02 0.  1.
    5000001    1    1    2    0    0  0.10815028197E+03  0.83742745983E+02 -0.42891433670E+03  0.48787379436E+03  0.18800000000E+03 0.  0.
   -5000001    1    1    2    0    0 -0.10815028197E+03 -0.83742745983E+02 -0.53741523360E+02  0.23862414448E+03  0.18800000000E+03 0.  0.
<mgrwt>
<rscale>  0 0.54299408E+03</rscale>
<asrwt>0</asrwt>
<pdfrwt beam="1">  1        2 0.86368127E-01 0.54299408E+03</pdfrwt>
<pdfrwt beam="2">  1       -2 0.17417292E-01 0.54299408E+03</pdfrwt>
<totfact> 0.14583515E+03</totfact>
</mgrwt>
</event>
<event>
 4    1  0.6165923E-005  0.4577155E+03  0.7818608E-02  0.1025446E+00
          2   -1    0    0  501    0  0.00000000000E+00  0.00000000000E+00  0.50514211362E+03  0.50514211363E+03  0.25500000000E-02 0.  1.
         -2   -1    0    0    0  501 -0.00000000000E+00 -0.00000000000E+00 -0.10368539306E+03  0.10368539309E+03  0.25500000000E-02 0. -1.
    5000001    1    1    2    0    0 -0.10896121262E+03  0.60757653928E+02  0.14976769034E+03  0.27081063391E+03  0.18800000000E+03 0.  0.
   -5000001    1    1    2    0    0  0.10896121262E+03 -0.60757653928E+02  0.25168903023E+03  0.33801687281E+03  0.18800000000E+03 0.  0.
<mgrwt>
<rscale>  0 0.45771545E+03</rscale>
<asrwt>0</asrwt>
<pdfrwt beam="1">  1        2 0.72163160E-01 0.45771545E+03</pdfrwt>
<pdfrwt beam="2">  1       -2 0.14812199E-01 0.45771545E+03</pdfrwt>
<totfact> 0.23562182E+03</totfact>
</mgrwt>
</event>
<event>
 4    1  0.6165923E-005  0.1600530E+04  0.7818608E-02  0.8820222E-01
          2   -1    0    0  501    0  0.00000000000E+00  0.00000000000E+00  0.12387539528E+04  0.12387539528E+04  0.25500000000E-02 0.  1.
         -2   -1    0    0    0  501 -0.00000000000E+00 -0.00000000000E+00 -0.51699072336E+03  0.51699072336E+03  0.25500000000E-02 0. -1.
    5000001    1    1    2    0    0 -0.75180089208E+03 -0.11482730838E+03  0.54009691562E+03  0.95154535906E+03  0.18800000000E+03 0.  0.
   -5000001    1    1    2    0    0  0.75180089208E+03  0.11482730838E+03  0.18166631384E+03  0.80419931712E+03  0.18800000000E+03 0.  0.
<mgrwt>
<rscale>  0 0.16005303E+04</rscale>
<asrwt>0</asrwt>
<pdfrwt beam="1">  1        2 0.17696485E+00 0.16005303E+04</pdfrwt>
<pdfrwt beam="2">  1       -2 0.73855819E-01 0.16005303E+04</pdfrwt>
<totfact> 0.32257118E+01</totfact>
</mgrwt>
</event>
<event>
 4    1  0.6165923E-005  0.7634046E+03  0.7818608E-02  0.9614552E-01
          2   -1    0    0  501    0  0.00000000000E+00  0.00000000000E+00  0.39108867625E+03  0.39108867626E+03  0.25500000000E-02 0.  1.
         -2   -1    0    0    0  501 -0.00000000000E+00 -0.00000000000E+00 -0.37254117186E+03  0.37254117187E+03  0.25500000000E-02 0. -1.
    5000001    1    1    2    0    0 -0.38781611250E+02 -0.31272840886E+03  0.11442167211E+03  0.38436882045E+03  0.18800000000E+03 0.  0.
   -5000001    1    1    2    0    0  0.38781611250E+02  0.31272840886E+03 -0.95874167730E+02  0.37926102768E+03  0.18800000000E+03 0.  0.
<mgrwt>
<rscale>  0 0.76340457E+03</rscale>
<asrwt>0</asrwt>
<pdfrwt beam="1">  1        2 0.55869811E-01 0.76340457E+03</pdfrwt>
<pdfrwt beam="2">  1       -2 0.53220167E-01 0.76340457E+03</pdfrwt>
<totfact> 0.29743765E+02</totfact>
</mgrwt>
</event>
<event>
 4    1  0.6165923E-005  0.4998203E+03  0.7818608E-02  0.1013826E+00
         -2   -1    0    0    0  501 -0.00000000000E+00  0.00000000000E+00  0.28681318660E+03  0.28681318661E+03  0.25500000000E-02 0. -1.
          2   -1    0    0  501    0  0.00000000000E+00 -0.00000000000E+00 -0.21775524873E+03  0.21775524875E+03  0.25500000000E-02 0.  1.
    5000001    1    1    2    0    0 -0.11511708376E+03 -0.11512435412E+03  0.59369984537E+02  0.25568409209E+03  0.18800000000E+03 0.  0.
   -5000001    1    1    2    0    0  0.11511708376E+03  0.11512435412E+03  0.96879533297E+01  0.24888434327E+03  0.18800000000E+03 0.  0.
<mgrwt>
<rscale>  0 0.49982027E+03</rscale>
<asrwt>0</asrwt>
<pdfrwt beam="1">  1        2 0.31107893E-01 0.49982027E+03</pdfrwt>
<pdfrwt beam="2">  1       -2 0.40973312E-01 0.49982027E+03</pdfrwt>
<totfact> 0.96550462E+02</totfact>
</mgrwt>
</event>
<event>
 4    1  0.6165923E-005  0.8196392E+03  0.7818608E-02  0.9532017E-01
         -2   -1    0    0    0  501 -0.00000000000E+00  0.00000000000E+00  0.98831110587E+02  0.98831110620E+02  0.25500000000E-02 0. -1.
          2   -1    0    0  501    0  0.00000000000E+00 -0.00000000000E+00 -0.16993851600E+04  0.16993851600E+04  0.25500000000E-02 0.  1.
    5000001    1    1    2    0    0 -0.27852702170E+03  0.83392248639E+02 -0.31923187165E+03  0.47094007774E+03  0.18800000000E+03 0.  0.
   -5000001    1    1    2    0    0  0.27852702170E+03 -0.83392248639E+02 -0.12813221778E+04  0.13272761929E+04  0.18800000000E+03 0.  0.
<mgrwt>
<rscale>  0 0.81963924E+03</rscale>
<asrwt>0</asrwt>
<pdfrwt beam="1">  1        2 0.24276929E+00 0.81963924E+03</pdfrwt>
<pdfrwt beam="2">  1       -2 0.14118731E-01 0.81963924E+03</pdfrwt>
<totfact> 0.44965133E+02</totfact>
</mgrwt>
</event>
<event>
 4    1  0.6165923E-005  0.4145981E+03  0.7818608E-02  0.1038839E+00
          2   -1    0    0  501    0  0.00000000000E+00  0.00000000000E+00  0.18318600237E+04  0.18318600237E+04  0.25500000000E-02 0.  1.
         -2   -1    0    0    0  501 -0.00000000000E+00 -0.00000000000E+00 -0.23458611504E+02  0.23458611643E+02  0.25500000000E-02 0. -1.
    5000001    1    1    2    0    0  0.14640090477E+02  0.81721212697E+02  0.78278069337E+03  0.80930976935E+03  0.18800000000E+03 0.  0.
   -5000001    1    1    2    0    0 -0.14640090477E+02 -0.81721212697E+02  0.10256207188E+04  0.10460088660E+04  0.18800000000E+03 0.  0.
<mgrwt>
<rscale>  0 0.41459808E+03</rscale>
<asrwt>0</asrwt>
<pdfrwt beam="1">  1        2 0.26169431E+00 0.41459808E+03</pdfrwt>
<pdfrwt beam="2">  1       -2 0.33512300E-02 0.41459808E+03</pdfrwt>
<totfact> 0.38268140E+03</totfact>
</mgrwt>
</event>
<event>
 4    1  0.6165923E-005  0.6087529E+03  0.7818608E-02  0.9887411E-01
         -2   -1    0    0    0  501 -0.00000000000E+00  0.00000000000E+00  0.60469309221E+02  0.60469309275E+02  0.25500000000E-02 0. -1.
          2   -1    0    0  501    0  0.00000000000E+00 -0.00000000000E+00 -0.15320999276E+04  0.15320999276E+04  0.25500000000E-02 0.  1.
    5000001    1    1    2    0    0 -0.12068700177E+03 -0.90629174056E+02 -0.24973793449E+03  0.34711962709E+03  0.18800000000E+03 0.  0.
   -5000001    1    1    2    0    0  0.12068700177E+03  0.90629174056E+02 -0.12218926839E+04  0.12454496098E+04  0.18800000000E+03 0.  0.
<mgrwt>
<rscale>  0 0.60875290E+03</rscale>
<asrwt>0</asrwt>
<pdfrwt beam="1">  1        2 0.21887139E+00 0.60875290E+03</pdfrwt>
<pdfrwt beam="2">  1       -2 0.86384737E-02 0.60875290E+03</pdfrwt>
<totfact> 0.12409763E+03</totfact>
</mgrwt>
</event>
<event>
 4    1  0.6165923E-005  0.6780038E+03  0.7818608E-02  0.9755606E-01
          2   -1    0    0  501    0  0.00000000000E+00  0.00000000000E+00  0.10893845325E+04  0.10893845325E+04  0.25500000000E-02 0.  1.
         -2   -1    0    0    0  501 -0.00000000000E+00 -0.00000000000E+00 -0.10549286615E+03  0.10549286618E+03  0.25500000000E-02 0. -1.
    5000001    1    1    2    0    0 -0.24304039418E+03  0.97678588515E+02  0.67651788805E+03  0.74941990413E+03  0.18800000000E+03 0.  0.
   -5000001    1    1    2    0    0  0.24304039418E+03 -0.97678588515E+02  0.30737377828E+03  0.44545749452E+03  0.18800000000E+03 0.  0.
<mgrwt>
<rscale>  0 0.67800383E+03</rscale>
<asrwt>0</asrwt>
<pdfrwt beam="1">  1        2 0.15562636E+00 0.67800383E+03</pdfrwt>
<pdfrwt beam="2">  1       -2 0.15070410E-01 0.67800383E+03</pdfrwt>
<totfact> 0.86635197E+02</totfact>
</mgrwt>
</event>
<event>
 4    1  0.6165923E-005  0.1276653E+04  0.7818608E-02  0.9048287E-01
          2   -1    0    0  501    0  0.00000000000E+00  0.00000000000E+00  0.22141123649E+04  0.22141123649E+04  0.25500000000E-02 0.  1.
         -2   -1    0    0    0  501 -0.00000000000E+00 -0.00000000000E+00 -0.18402896292E+03  0.18402896294E+03  0.25500000000E-02 0. -1.
    5000001    1    1    2    0    0 -0.12792218796E+03 -0.51605481659E+03  0.45325933756E+03  0.72350859496E+03  0.18800000000E+03 0.  0.
   -5000001    1    1    2    0    0  0.12792218796E+03  0.51605481659E+03  0.15768240645E+04  0.16746327329E+04  0.18800000000E+03 0.  0.
<mgrwt>
<rscale>  0 0.12766531E+04</rscale>
<asrwt>0</asrwt>
<pdfrwt beam="1">  1        2 0.31630175E+00 0.12766531E+04</pdfrwt>
<pdfrwt beam="2">  1       -2 0.26289853E-01 0.12766531E+04</pdfrwt>
<totfact> 0.80050409E+01</totfact>
</mgrwt>
</event>
<event>
 4    1  0.6165923E-005  0.1360781E+04  0.7818608E-02  0.8982707E-01
          2   -1    0    0  501    0  0.00000000000E+00  0.00000000000E+00  0.35913383523E+04  0.35913383523E+04  0.25500000000E-02 0.  1.
         -2   -1    0    0    0  501 -0.00000000000E+00 -0.00000000000E+00 -0.12890220555E+03  0.12890220557E+03  0.25500000000E-02 0. -1.
    5000001    1    1    2    0    0  0.21554408360E+03 -0.50688753442E+03  0.26946734790E+04  0.27568103640E+04  0.18800000000E+03 0.  0.
   -5000001    1    1    2    0    0 -0.21554408360E+03  0.50688753442E+03  0.76776266779E+03  0.96343019393E+03  0.18800000000E+03 0.  0.
<mgrwt>
<rscale>  0 0.13607813E+04</rscale>
<asrwt>0</asrwt>
<pdfrwt beam="1">  1        2 0.51304830E+00 0.13607813E+04</pdfrwt>
<pdfrwt beam="2">  1       -2 0.18414602E-01 0.13607813E+04</pdfrwt>
<totfact> 0.25872790E+01</totfact>
</mgrwt>
</event>
<event>
 4    1  0.6165923E-005  0.7879622E+03  0.7818608E-02  0.9577607E-01
          2   -1    0    0  501    0  0.00000000000E+00  0.00000000000E+00  0.58013560767E+03  0.58013560768E+03  0.25500000000E-02 0.  1.
         -2   -1    0    0    0  501 -0.00000000000E+00 -0.00000000000E+00 -0.26756005520E+03  0.26756005521E+03  0.25500000000E-02 0. -1.
    5000001    1    1    2    0    0  0.18545628460E+03  0.11467965418E+03 -0.13304576187E+03  0.31716026127E+03  0.18800000000E+03 0.  0.
   -5000001    1    1    2    0    0 -0.18545628460E+03 -0.11467965418E+03  0.44562131434E+03  0.53053540162E+03  0.18800000000E+03 0.  0.
<mgrwt>
<rscale>  0 0.78796222E+03</rscale>
<asrwt>0</asrwt>
<pdfrwt beam="1">  1        2 0.82876515E-01 0.78796222E+03</pdfrwt>
<pdfrwt beam="2">  1       -2 0.38222865E-01 0.78796222E+03</pdfrwt>
<totfact> 0.36670027E+02</totfact>
</mgrwt>
</event>
<event>
 4    1  0.6165923E-005  0.5345438E+03  0.7818608E-02  0.1005136E+00
          2   -1    0    0  501    0  0.00000000000E+00  0.00000000000E+00  0.27242001265E+04  0.27242001265E+04  0.25500000000E-02 0.  1.
         -2   -1    0    0    0  501 -0.00000000000E+00 -0.00000000000E+00 -0.26222108183E+02  0.26222108307E+02  0.25500000000E-02 0. -1.
    5000001    1    1    2    0    0 -0.34974872176E+02 -0.18097090239E+03  0.15857071295E+04  0.16074155685E+04  0.18800000000E+03 0.  0.
   -5000001    1    1    2    0    0  0.34974872176E+02  0.18097090239E+03  0.11122708888E+04  0.11430066663E+04  0.18800000000E+03 0.  0.
<mgrwt>
<rscale>  0 0.53454381E+03</rscale>
<asrwt>0</asrwt>
<pdfrwt beam="1">  1        2 0.38917151E+00 0.53454381E+03</pdfrwt>
<pdfrwt beam="2">  1       -2 0.37460149E-02 0.53454381E+03</pdfrwt>
<totfact> 0.11396052E+03</totfact>
</mgrwt>
</event>
<event>
 4    1  0.6165923E-005  0.5493578E+03  0.7818608E-02  0.1001643E+00
          2   -1    0    0  501    0  0.00000000000E+00  0.00000000000E+00  0.11014040633E+04  0.11014040633E+04  0.25500000000E-02 0.  1.
         -2   -1    0    0    0  501 -0.00000000000E+00 -0.00000000000E+00 -0.68502101633E+02  0.68502101680E+02  0.25500000000E-02 0. -1.
    5000001    1    1    2    0    0 -0.68496473665E+02 -0.16932509691E+03  0.34159452294E+03  0.43057354012E+03  0.18800000000E+03 0.  0.
   -5000001    1    1    2    0    0  0.68496473665E+02  0.16932509691E+03  0.69130743868E+03  0.73933262482E+03  0.18800000000E+03 0.  0.
<mgrwt>
<rscale>  0 0.54935778E+03</rscale>
<asrwt>0</asrwt>
<pdfrwt beam="1">  1        2 0.15734343E+00 0.54935778E+03</pdfrwt>
<pdfrwt beam="2">  1       -2 0.97860151E-02 0.54935778E+03</pdfrwt>
<totfact> 0.17435039E+03</totfact>
</mgrwt>
</event>
<event>
 4    1  0.6165923E-005  0.5565251E+03  0.7818608E-02  0.9999948E-01
          2   -1    0    0  501    0  0.00000000000E+00  0.00000000000E+00  0.15487418604E+04  0.15487418604E+04  0.25500000000E-02 0.  1.
         -2   -1    0    0    0  501 -0.00000000000E+00 -0.00000000000E+00 -0.49995444112E+02  0.49995444177E+02  0.25500000000E-02 0. -1.
    5000001    1    1    2    0    0 -0.16670386288E+03  0.16900057898E+02  0.40934473898E+03  0.48060680934E+03  0.18800000000E+03 0.  0.
   -5000001    1    1    2    0    0  0.16670386288E+03 -0.16900057898E+02  0.10894016773E+04  0.11181304953E+04  0.18800000000E+03 0.  0.
<mgrwt>
<rscale>  0 0.55652507E+03</rscale>
<asrwt>0</asrwt>
<pdfrwt beam="1">  1        2 0.22124888E+00 0.55652507E+03</pdfrwt>
<pdfrwt beam="2">  1       -2 0.71422050E-02 0.55652507E+03</pdfrwt>
<totfact> 0.16495878E+03</totfact>
</mgrwt>
</event>
<event>
 4    1  0.6165923E-005  0.6492007E+03  0.7818608E-02  0.9808280E-01
         -2   -1    0    0    0  501 -0.00000000000E+00  0.00000000000E+00  0.21126874718E+03  0.21126874719E+03  0.25500000000E-02 0. -1.
          2   -1    0    0  501    0  0.00000000000E+00 -0.00000000000E+00 -0.49872682282E+03  0.49872682283E+03  0.25500000000E-02 0.  1.
    5000001    1    1    2    0    0 -0.26247597021E+02  0.23205499107E+03 -0.76462153285E+01  0.29990151690E+03  0.18800000000E+03 0.  0.
   -5000001    1    1    2    0    0  0.26247597021E+02 -0.23205499107E+03 -0.27981186031E+03  0.41009405312E+03  0.18800000000E+03 0.  0.
<mgrwt>
<rscale>  0 0.64920071E+03</rscale>
<asrwt>0</asrwt>
<pdfrwt beam="1">  1        2 0.71246689E-01 0.64920071E+03</pdfrwt>
<pdfrwt beam="2">  1       -2 0.30181250E-01 0.64920071E+03</pdfrwt>
<totfact> 0.68558377E+02</totfact>
</mgrwt>
</event>
<event>
 4    1  0.6165923E-005  0.5887675E+03  0.7818608E-02  0.9928988E-01
          2   -1    0    0  501    0  0.00000000000E+00  0.00000000000E+00  0.57489874464E+03  0.57489874465E+03  0.25500000000E-02 0.  1.
         -2   -1    0    0    0  501 -0.00000000000E+00 -0.00000000000E+00 -0.15074269377E+03  0.15074269379E+03  0.25500000000E-02 0. -1.
    5000001    1    1    2    0    0 -0.13732873802E+03 -0.15562204282E+03  0.10019815352E+03  0.29742406168E+03  0.18800000000E+03 0.  0.
   -5000001    1    1    2    0    0  0.13732873802E+03  0.15562204282E+03  0.32395789735E+03  0.42821737676E+03  0.18800000000E+03 0.  0.
<mgrwt>
<rscale>  0 0.58876748E+03</rscale>
<asrwt>0</asrwt>
<pdfrwt beam="1">  1        2 0.82128392E-01 0.58876748E+03</pdfrwt>
<pdfrwt beam="2">  1       -2 0.21534671E-01 0.58876748E+03</pdfrwt>
<totfact> 0.10706417E+03</totfact>
</mgrwt>
</event>
<event>
 4    1  0.6165923E-005  0.6072466E+03  0.7818608E-02  0.9890485E-01
          2   -1    0    0  501    0  0.00000000000E+00  0.00000000000E+00  0.26726386388E+04  0.26726386388E+04  0.25500000000E-02 0.  1.
         -2   -1    0    0    0  501 -0.00000000000E+00 -0.00000000000E+00 -0.34492915956E+02  0.34492916050E+02  0.25500000000E-02 0. -1.
    5000001    1    1    2    0    0  0.91228772259E+02  0.18094941483E+03  0.18790449975E+04  0.18992681438E+04  0.18800000000E+03 0.  0.
   -5000001    1    1    2    0    0 -0.91228772259E+02 -0.18094941483E+03  0.75910072535E+03  0.80786341101E+03  0.18800000000E+03 0.  0.
<mgrwt>
<rscale>  0 0.60724657E+03</rscale>
<asrwt>0</asrwt>
<pdfrwt beam="1">  1        2 0.38180572E+00 0.60724657E+03</pdfrwt>
<pdfrwt beam="2">  1       -2 0.49275569E-02 0.60724657E+03</pdfrwt>
<totfact> 0.79042728E+02</totfact>
</mgrwt>
</event>
<event>
 4    1  0.6165923E-005  0.6539961E+03  0.7818608E-02  0.9799310E-01
         -2   -1    0    0    0  501 -0.00000000000E+00  0.00000000000E+00  0.58962966569E+02  0.58962966624E+02  0.25500000000E-02 0. -1.
          2   -1    0    0  501    0  0.00000000000E+00 -0.00000000000E+00 -0.18134724181E+04  0.18134724181E+04  0.25500000000E-02 0.  1.
    5000001    1    1    2    0    0 -0.11972516985E+03 -0.23552456841E+03 -0.75653726255E+03  0.82310301193E+03  0.18800000000E+03 0.  0.
   -5000001    1    1    2    0    0  0.11972516985E+03  0.23552456841E+03 -0.99797218897E+03  0.10493323728E+04  0.18800000000E+03 0.  0.
<mgrwt>
<rscale>  0 0.65399607E+03</rscale>
<asrwt>0</asrwt>
<pdfrwt beam="1">  1        2 0.25906745E+00 0.65399607E+03</pdfrwt>
<pdfrwt beam="2">  1       -2 0.84232821E-02 0.65399607E+03</pdfrwt>
<totfact> 0.92585078E+02</totfact>
</mgrwt>
</event>
<event>
 4    1  0.6165923E-005  0.5261438E+03  0.7818608E-02  0.1007172E+00
          2   -1    0    0  501    0  0.00000000000E+00  0.00000000000E+00  0.32810145741E+03  0.32810145742E+03  0.25500000000E-02 0.  1.
         -2   -1    0    0    0  501 -0.00000000000E+00 -0.00000000000E+00 -0.21093113788E+03  0.21093113789E+03  0.25500000000E-02 0. -1.
    5000001    1    1    2    0    0  0.55883816516E+02 -0.23688825617E+01  0.23819146118E+03  0.30855758738E+03  0.18800000000E+03 0.  0.
   -5000001    1    1    2    0    0 -0.55883816516E+02  0.23688825617E+01 -0.12102114165E+03  0.23047500793E+03  0.18800000000E+03 0.  0.
<mgrwt>
<rscale>  0 0.52614376E+03</rscale>
<asrwt>0</asrwt>
<pdfrwt beam="1">  1        2 0.46871636E-01 0.52614376E+03</pdfrwt>
<pdfrwt beam="2">  1       -2 0.30133020E-01 0.52614376E+03</pdfrwt>
<totfact> 0.10979625E+03</totfact>
</mgrwt>
</event>
<event>
 4    1  0.6165923E-005  0.5317002E+03  0.7818608E-02  0.1005821E+00
          2   -1    0    0  501    0  0.00000000000E+00  0.00000000000E+00  0.29205881979E+03  0.29205881980E+03  0.25500000000E-02 0.  1.
         -2   -1    0    0    0  501 -0.00000000000E+00 -0.00000000000E+00 -0.24199330114E+03  0.24199330115E+03  0.25500000000E-02 0. -1.
    5000001    1    1    2    0    0 -0.14748489409E+03  0.10674588215E+03 -0.21926591365E+02  0.26262378557E+03  0.18800000000E+03 0.  0.
   -5000001    1    1    2    0    0  0.14748489409E+03 -0.10674588215E+03  0.71992110021E+02  0.27142833538E+03  0.18800000000E+03 0.  0.
<mgrwt>
<rscale>  0 0.53170021E+03</rscale>
<asrwt>0</asrwt>
<pdfrwt beam="1">  1        2 0.41722689E-01 0.53170021E+03</pdfrwt>
<pdfrwt beam="2">  1       -2 0.34570471E-01 0.53170021E+03</pdfrwt>
<totfact> 0.96579278E+02</totfact>
</mgrwt>
</event>
<event>
 4    1  0.6165923E-005  0.8711284E+03  0.7818608E-02  0.9462410E-01
          2   -1    0    0  501    0  0.00000000000E+00  0.00000000000E+00  0.14712541115E+04  0.14712541115E+04  0.25500000000E-02 0.  1.
         -2   -1    0    0    0  501 -0.00000000000E+00 -0.00000000000E+00 -0.12894861552E+03  0.12894861554E+03  0.25500000000E-02 0. -1.
    5000001    1    1    2    0    0  0.21255675879E+03 -0.30929929871E+03  0.88478827870E+03  0.97930624935E+03  0.18800000000E+03 0.  0.
   -5000001    1    1    2    0    0 -0.21255675879E+03  0.30929929871E+03  0.45751721726E+03  0.62089647767E+03  0.18800000000E+03 0.  0.
<mgrwt>
<rscale>  0 0.87112842E+03</rscale>
<asrwt>0</asrwt>
<pdfrwt beam="1">  1        2 0.21017916E+00 0.87112842E+03</pdfrwt>
<pdfrwt beam="2">  1       -2 0.18421230E-01 0.87112842E+03</pdfrwt>
<totfact> 0.37436428E+02</totfact>
</mgrwt>
</event>
<event>
 4    1  0.6165923E-005  0.5236892E+03  0.7818608E-02  0.1007774E+00
         -2   -1    0    0    0  501 -0.00000000000E+00  0.00000000000E+00  0.24493134999E+02  0.24493135132E+02  0.25500000000E-02 0. -1.
          2   -1    0    0  501    0  0.00000000000E+00 -0.00000000000E+00 -0.27992572195E+04  0.27992572195E+04  0.25500000000E-02 0.  1.
    5000001    1    1    2    0    0  0.12184947749E+03 -0.91367400116E+02 -0.84755104351E+03  0.88140913788E+03  0.18800000000E+03 0.  0.
   -5000001    1    1    2    0    0 -0.12184947749E+03  0.91367400116E+02 -0.19272130410E+04  0.19423412167E+04  0.18800000000E+03 0.  0.
<mgrwt>
<rscale>  0 0.52368916E+03</rscale>
<asrwt>0</asrwt>
<pdfrwt beam="1">  1        2 0.39989368E+00 0.52368916E+03</pdfrwt>
<pdfrwt beam="2">  1       -2 0.34990211E-02 0.52368916E+03</pdfrwt>
<totfact> 0.11559374E+03</totfact>
</mgrwt>
</event>
<event>
 4    1  0.6165923E-005  0.7653624E+03  0.7818608E-02  0.9611553E-01
         -2   -1    0    0    0  501 -0.00000000000E+00  0.00000000000E+00  0.68931372660E+02  0.68931372707E+02  0.25500000000E-02 0. -1.
          2   -1    0    0  501    0  0.00000000000E+00 -0.00000000000E+00 -0.21245027828E+04  0.21245027829E+04  0.25500000000E-02 0.  1.
    5000001    1    1    2    0    0  0.14536221258E+03  0.29846715605E+03 -0.11131906081E+04  0.11767540720E+04  0.18800000000E+03 0.  0.
   -5000001    1    1    2    0    0 -0.14536221258E+03 -0.29846715605E+03 -0.94238080214E+03  0.10166800836E+04  0.18800000000E+03 0.  0.
<mgrwt>
<rscale>  0 0.76536238E+03</rscale>
<asrwt>0</asrwt>
<pdfrwt beam="1">  1        2 0.30350036E+00 0.76536238E+03</pdfrwt>
<pdfrwt beam="2">  1       -2 0.98473403E-02 0.76536238E+03</pdfrwt>
<totfact> 0.49758809E+02</totfact>
</mgrwt>
</event>
<event>
 4    1  0.6165923E-005  0.7830432E+03  0.7818608E-02  0.9584891E-01
         -2   -1    0    0    0  501 -0.00000000000E+00  0.00000000000E+00  0.21631875522E+03  0.21631875523E+03  0.25500000000E-02 0. -1.
          2   -1    0    0  501    0  0.00000000000E+00 -0.00000000000E+00 -0.70862629174E+03  0.70862629175E+03  0.25500000000E-02 0.  1.
    5000001    1    1    2    0    0  0.26618803209E+03 -0.59762887833E+02 -0.49256591765E+03  0.59362686464E+03  0.18800000000E+03 0.  0.
   -5000001    1    1    2    0    0 -0.26618803209E+03  0.59762887833E+02  0.25838112757E+00  0.33131818234E+03  0.18800000000E+03 0.  0.
<mgrwt>
<rscale>  0 0.78304318E+03</rscale>
<asrwt>0</asrwt>
<pdfrwt beam="1">  1        2 0.10123233E+00 0.78304318E+03</pdfrwt>
<pdfrwt beam="2">  1       -2 0.30902680E-01 0.78304318E+03</pdfrwt>
<totfact> 0.43138657E+02</totfact>
</mgrwt>
</event>
<event>
 4    1  0.6165923E-005  0.5727103E+03  0.7818608E-02  0.9963699E-01
          2   -1    0    0  501    0  0.00000000000E+00  0.00000000000E+00  0.19022457000E+04  0.19022457000E+04  0.25500000000E-02 0.  1.
         -2   -1    0    0    0  501 -0.00000000000E+00 -0.00000000000E+00 -0.43106557824E+02  0.43106557900E+02  0.25500000000E-02 0. -1.
    5000001    1    1    2    0    0 -0.12350194410E+03 -0.58125564757E+02  0.14981972247E+04  0.15161036362E+04  0.18800000000E+03 0.  0.
   -5000001    1    1    2    0    0  0.12350194410E+03  0.58125564757E+02  0.36094191745E+03  0.42924862172E+03  0.18800000000E+03 0.  0.
<mgrwt>
<rscale>  0 0.57271027E+03</rscale>
<asrwt>0</asrwt>
<pdfrwt beam="1">  1        2 0.27174942E+00 0.57271027E+03</pdfrwt>
<pdfrwt beam="2">  1       -2 0.61580790E-02 0.57271027E+03</pdfrwt>
<totfact> 0.13773518E+03</totfact>
</mgrwt>
</event>
<event>
 4    1  0.6165923E-005  0.1015519E+04  0.7818608E-02  0.9291686E-01
          2   -1    0    0  501    0  0.00000000000E+00  0.00000000000E+00  0.11591913111E+04  0.11591913111E+04  0.25500000000E-02 0.  1.
         -2   -1    0    0    0  501 -0.00000000000E+00 -0.00000000000E+00 -0.22241332397E+03  0.22241332399E+03  0.25500000000E-02 0. -1.
    5000001    1    1    2    0    0 -0.35688575177E+03 -0.83113020364E+02  0.64342770160E+02  0.41684434270E+03  0.18800000000E+03 0.  0.
   -5000001    1    1    2    0    0  0.35688575177E+03  0.83113020364E+02  0.87243521694E+03  0.96476029236E+03  0.18800000000E+03 0.  0.
<mgrwt>
<rscale>  0 0.10155188E+04</rscale>
<asrwt>0</asrwt>
<pdfrwt beam="1">  1        2 0.16559876E+00 0.10155188E+04</pdfrwt>
<pdfrwt beam="2">  1       -2 0.31773332E-01 0.10155188E+04</pdfrwt>
<totfact> 0.20665199E+02</totfact>
</mgrwt>
</event>
<event>
 4    1  0.6165923E-005  0.4847326E+03  0.7818608E-02  0.1017843E+00
          2   -1    0    0  501    0  0.00000000000E+00  0.00000000000E+00  0.49857076198E+03  0.49857076199E+03  0.25500000000E-02 0.  1.
         -2   -1    0    0    0  501 -0.00000000000E+00 -0.00000000000E+00 -0.11781961203E+03  0.11781961206E+03  0.25500000000E-02 0. -1.
    5000001    1    1    2    0    0  0.11497488774E+03 -0.10007355330E+03  0.20663392638E+03  0.31823815047E+03  0.18800000000E+03 0.  0.
   -5000001    1    1    2    0    0 -0.11497488774E+03  0.10007355330E+03  0.17411722357E+03  0.29815222358E+03  0.18800000000E+03 0.  0.
<mgrwt>
<rscale>  0 0.48473256E+03</rscale>
<asrwt>0</asrwt>
<pdfrwt beam="1">  1        2 0.71224394E-01 0.48473256E+03</pdfrwt>
<pdfrwt beam="2">  1       -2 0.16831373E-01 0.48473256E+03</pdfrwt>
<totfact> 0.19292780E+03</totfact>
</mgrwt>
</event>
<event>
 4    1  0.6165923E-005  0.5001744E+03  0.7818608E-02  0.1013733E+00
         -2   -1    0    0    0  501 -0.00000000000E+00  0.00000000000E+00  0.40717017490E+03  0.40717017491E+03  0.25500000000E-02 0. -1.
          2   -1    0    0  501    0  0.00000000000E+00 -0.00000000000E+00 -0.15360554278E+03  0.15360554280E+03  0.25500000000E-02 0.  1.
    5000001    1    1    2    0    0  0.13280677025E+03  0.41918623169E+02  0.27733726425E+02  0.23560129196E+03  0.18800000000E+03 0.  0.
   -5000001    1    1    2    0    0 -0.13280677025E+03 -0.41918623169E+02  0.22583090570E+03  0.32517442575E+03  0.18800000000E+03 0.  0.
<mgrwt>
<rscale>  0 0.50017435E+03</rscale>
<asrwt>0</asrwt>
<pdfrwt beam="1">  1        2 0.21943649E-01 0.50017435E+03</pdfrwt>
<pdfrwt beam="2">  1       -2 0.58167168E-01 0.50017435E+03</pdfrwt>
<totfact> 0.70879093E+02</totfact>
</mgrwt>
</event>
<event>
 4    1  0.6165923E-005  0.5387089E+03  0.7818608E-02  0.1004142E+00
          2   -1    0    0  501    0  0.00000000000E+00  0.00000000000E+00  0.54890275142E+03  0.54890275142E+03  0.25500000000E-02 0.  1.
         -2   -1    0    0    0  501 -0.00000000000E+00 -0.00000000000E+00 -0.13217610128E+03  0.13217610131E+03  0.25500000000E-02 0. -1.
    5000001    1    1    2    0    0 -0.11009560286E+03 -0.15413560057E+03  0.25445322939E+03  0.36874011319E+03  0.18800000000E+03 0.  0.
   -5000001    1    1    2    0    0  0.11009560286E+03  0.15413560057E+03  0.16227342075E+03  0.31233873954E+03  0.18800000000E+03 0.  0.
<mgrwt>
<rscale>  0 0.53870892E+03</rscale>
<asrwt>0</asrwt>
<pdfrwt beam="1">  1        2 0.78414679E-01 0.53870892E+03</pdfrwt>
<pdfrwt beam="2">  1       -2 0.18882300E-01 0.53870892E+03</pdfrwt>
<totfact> 0.14205610E+03</totfact>
</mgrwt>
</event>
<event>
 4    1  0.6165923E-005  0.6105352E+03  0.7818608E-02  0.9883787E-01
         -2   -1    0    0    0  501 -0.00000000000E+00  0.00000000000E+00  0.10505003206E+03  0.10505003210E+03  0.25500000000E-02 0. -1.
          2   -1    0    0  501    0  0.00000000000E+00 -0.00000000000E+00 -0.88708488443E+03  0.88708488444E+03  0.25500000000E-02 0.  1.
    5000001    1    1    2    0    0  0.22115365481E+03 -0.12202568880E+02 -0.54334091223E+03  0.61613406709E+03  0.18800000000E+03 0.  0.
   -5000001    1    1    2    0    0 -0.22115365481E+03  0.12202568880E+02 -0.23869394014E+03  0.37600084944E+03  0.18800000000E+03 0.  0.
<mgrwt>
<rscale>  0 0.61053516E+03</rscale>
<asrwt>0</asrwt>
<pdfrwt beam="1">  1        2 0.12672641E+00 0.61053516E+03</pdfrwt>
<pdfrwt beam="2">  1       -2 0.15007148E-01 0.61053516E+03</pdfrwt>
<totfact> 0.11646632E+03</totfact>
</mgrwt>
</event>
<event>
 4    1  0.6165923E-005  0.7276966E+03  0.7818608E-02  0.9671006E-01
          2   -1    0    0  501    0  0.00000000000E+00  0.00000000000E+00  0.66930013894E+03  0.66930013895E+03  0.25500000000E-02 0.  1.
         -2   -1    0    0    0  501 -0.00000000000E+00 -0.00000000000E+00 -0.19779701580E+03  0.19779701582E+03  0.25500000000E-02 0. -1.
    5000001    1    1    2    0    0 -0.10970086788E+03 -0.29120391281E+03  0.21858431298E+03  0.42421350889E+03  0.18800000000E+03 0.  0.
   -5000001    1    1    2    0    0  0.10970086788E+03  0.29120391281E+03  0.25291881016E+03  0.44288364587E+03  0.18800000000E+03 0.  0.
<mgrwt>
<rscale>  0 0.72769656E+03</rscale>
<asrwt>0</asrwt>
<pdfrwt beam="1">  1        2 0.95614304E-01 0.72769656E+03</pdfrwt>
<pdfrwt beam="2">  1       -2 0.28256717E-01 0.72769656E+03</pdfrwt>
<totfact> 0.54700122E+02</totfact>
</mgrwt>
</event>
<event>
 4    1  0.6165923E-005  0.1305973E+04  0.7818608E-02  0.9024842E-01
          2   -1    0    0  501    0  0.00000000000E+00  0.00000000000E+00  0.25878413662E+04  0.25878413662E+04  0.25500000000E-02 0.  1.
         -2   -1    0    0    0  501 -0.00000000000E+00 -0.00000000000E+00 -0.16476719359E+03  0.16476719361E+03  0.25500000000E-02 0. -1.
    5000001    1    1    2    0    0  0.12932380683E+03  0.50656253691E+03  0.48838431341E+03  0.73972527900E+03  0.18800000000E+03 0.  0.
   -5000001    1    1    2    0    0 -0.12932380683E+03 -0.50656253691E+03  0.19346898592E+04  0.20128832808E+04  0.18800000000E+03 0.  0.
<mgrwt>
<rscale>  0 0.13059730E+04</rscale>
<asrwt>0</asrwt>
<pdfrwt beam="1">  1        2 0.36969162E+00 0.13059730E+04</pdfrwt>
<pdfrwt beam="2">  1       -2 0.23538171E-01 0.13059730E+04</pdfrwt>
<totfact> 0.62338135E+01</totfact>
</mgrwt>
</event>
<event>
 4    1  0.6165923E-005  0.6848895E+03  0.7818608E-02  0.9743428E-01
          2   -1    0    0  501    0  0.00000000000E+00  0.00000000000E+00  0.30528613980E+04  0.30528613980E+04  0.25500000000E-02 0.  1.
         -2   -1    0    0    0  501 -0.00000000000E+00 -0.00000000000E+00 -0.38412623186E+02  0.38412623270E+02  0.25500000000E-02 0. -1.
    5000001    1    1    2    0    0  0.11012538004E+03 -0.26260361369E+03  0.16377395594E+04  0.16729085814E+04  0.18800000000E+03 0.  0.
   -5000001    1    1    2    0    0 -0.11012538004E+03  0.26260361369E+03  0.13767092155E+04  0.14183654399E+04  0.18800000000E+03 0.  0.
<mgrwt>
<rscale>  0 0.68488952E+03</rscale>
<asrwt>0</asrwt>
<pdfrwt beam="1">  1        2 0.43612296E+00 0.68488952E+03</pdfrwt>
<pdfrwt beam="2">  1       -2 0.54875188E-02 0.68488952E+03</pdfrwt>
<totfact> 0.41543298E+02</totfact>
</mgrwt>
</event>
<event>
 4    1  0.6165923E-005  0.4538568E+03  0.7818608E-02  0.1026578E+00
          2   -1    0    0  501    0  0.00000000000E+00  0.00000000000E+00  0.56263969196E+03  0.56263969197E+03  0.25500000000E-02 0.  1.
         -2   -1    0    0    0  501 -0.00000000000E+00 -0.00000000000E+00 -0.91526607331E+02  0.91526607366E+02  0.25500000000E-02 0. -1.
    5000001    1    1    2    0    0 -0.24588808323E+01 -0.11015672633E+03  0.32685157628E+03  0.39283139305E+03  0.18800000000E+03 0.  0.
   -5000001    1    1    2    0    0  0.24588808323E+01  0.11015672633E+03  0.14426150835E+03  0.26133490628E+03  0.18800000000E+03 0.  0.
<mgrwt>
<rscale>  0 0.45385682E+03</rscale>
<asrwt>0</asrwt>
<pdfrwt beam="1">  1        2 0.80377101E-01 0.45385682E+03</pdfrwt>
<pdfrwt beam="2">  1       -2 0.13075229E-01 0.45385682E+03</pdfrwt>
<totfact> 0.25631194E+03</totfact>
</mgrwt>
</event>
<event>
 4    1  0.6165923E-005  0.5837593E+03  0.7818608E-02  0.9939685E-01
         -2   -1    0    0    0  501 -0.00000000000E+00  0.00000000000E+00  0.69924915050E+02  0.69924915097E+02  0.25500000000E-02 0. -1.
          2   -1    0    0  501    0  0.00000000000E+00 -0.00000000000E+00 -0.12183600963E+04  0.12183600963E+04  0.25500000000E-02 0.  1.
    5000001    1    1    2    0    0 -0.19081014713E+03 -0.14686296040E+02 -0.32042166836E+03  0.41789740977E+03  0.18800000000E+03 0.  0.
   -5000001    1    1    2    0    0  0.19081014713E+03  0.14686296040E+02 -0.82801351286E+03  0.87038760160E+03  0.18800000000E+03 0.  0.
<mgrwt>
<rscale>  0 0.58375929E+03</rscale>
<asrwt>0</asrwt>
<pdfrwt beam="1">  1        2 0.17405143E+00 0.58375929E+03</pdfrwt>
<pdfrwt beam="2">  1       -2 0.99892744E-02 0.58375929E+03</pdfrwt>
<totfact> 0.14465038E+03</totfact>
</mgrwt>
</event>
<event>
 4    1  0.6165923E-005  0.5213524E+03  0.7818608E-02  0.1008351E+00
          2   -1    0    0  501    0  0.00000000000E+00  0.00000000000E+00  0.22229408047E+03  0.22229408049E+03  0.25500000000E-02 0.  1.
         -2   -1    0    0    0  501 -0.00000000000E+00 -0.00000000000E+00 -0.30568548534E+03  0.30568548535E+03  0.25500000000E-02 0. -1.
    5000001    1    1    2    0    0  0.49086040206E+02  0.12166802040E+03 -0.16735164892E+03  0.28383643340E+03  0.18800000000E+03 0.  0.
   -5000001    1    1    2    0    0 -0.49086040206E+02 -0.12166802040E+03  0.83960244055E+02  0.24414313243E+03  0.18800000000E+03 0.  0.
<mgrwt>
<rscale>  0 0.52135237E+03</rscale>
<asrwt>0</asrwt>
<pdfrwt beam="1">  1        2 0.31756297E-01 0.52135237E+03</pdfrwt>
<pdfrwt beam="2">  1       -2 0.43669355E-01 0.52135237E+03</pdfrwt>
<totfact> 0.83296235E+02</totfact>
</mgrwt>
</event>
<event>
 4    1  0.6165923E-005  0.5840098E+03  0.7818608E-02  0.9939147E-01
          2   -1    0    0  501    0  0.00000000000E+00  0.00000000000E+00  0.72990626146E+03  0.72990626147E+03  0.25500000000E-02 0.  1.
         -2   -1    0    0    0  501 -0.00000000000E+00 -0.00000000000E+00 -0.11681890555E+03  0.11681890558E+03  0.25500000000E-02 0. -1.
    5000001    1    1    2    0    0  0.18293416345E+03 -0.12212039998E+03  0.36352380343E+03  0.46462012000E+03  0.18800000000E+03 0.  0.
   -5000001    1    1    2    0    0 -0.18293416345E+03  0.12212039998E+03  0.24956355249E+03  0.38210504705E+03  0.18800000000E+03 0.  0.
<mgrwt>
<rscale>  0 0.58400976E+03</rscale>
<asrwt>0</asrwt>
<pdfrwt beam="1">  1        2 0.10427232E+00 0.58400976E+03</pdfrwt>
<pdfrwt beam="2">  1       -2 0.16688415E-01 0.58400976E+03</pdfrwt>
<totfact> 0.12498234E+03</totfact>
</mgrwt>
</event>
<event>
 4    1  0.6165923E-005  0.1168945E+04  0.7818608E-02  0.9140482E-01
          2   -1    0    0  501    0  0.00000000000E+00  0.00000000000E+00  0.16703394564E+04  0.16703394564E+04  0.25500000000E-02 0.  1.
         -2   -1    0    0    0  501 -0.00000000000E+00 -0.00000000000E+00 -0.20451420532E+03  0.20451420533E+03  0.25500000000E-02 0. -1.
    5000001    1    1    2    0    0  0.38929950592E+03 -0.35646636930E+03  0.46625366294E+03  0.72894365760E+03  0.18800000000E+03 0.  0.
   -5000001    1    1    2    0    0 -0.38929950592E+03  0.35646636930E+03  0.99957158814E+03  0.11459100041E+04  0.18800000000E+03 0.  0.
<mgrwt>
<rscale>  0 0.11689451E+04</rscale>
<asrwt>0</asrwt>
<pdfrwt beam="1">  1        2 0.23861993E+00 0.11689451E+04</pdfrwt>
<pdfrwt beam="2">  1       -2 0.29216314E-01 0.11689451E+04</pdfrwt>
<totfact> 0.12649430E+02</totfact>
</mgrwt>
</event>
<event>
 4    1  0.6165923E-005  0.4499236E+03  0.7818608E-02  0.1027745E+00
          2   -1    0    0  501    0  0.00000000000E+00  0.00000000000E+00  0.72139863487E+03  0.72139863487E+03  0.25500000000E-02 0.  1.
         -2   -1    0    0    0  501 -0.00000000000E+00 -0.00000000000E+00 -0.70152353786E+02  0.70152353833E+02  0.25500000000E-02 0. -1.
    5000001    1    1    2    0    0 -0.59799888119E+02 -0.10501313044E+03  0.28042492093E+03  0.35858879021E+03  0.18800000000E+03 0.  0.
   -5000001    1    1    2    0    0  0.59799888119E+02  0.10501313044E+03  0.37082136015E+03  0.43296219850E+03  0.18800000000E+03 0.  0.
<mgrwt>
<rscale>  0 0.44992360E+03</rscale>
<asrwt>0</asrwt>
<pdfrwt beam="1">  1        2 0.10305695E+00 0.44992360E+03</pdfrwt>
<pdfrwt beam="2">  1       -2 0.10021765E-01 0.44992360E+03</pdfrwt>
<totfact> 0.29458592E+03</totfact>
</mgrwt>
</event>
<event>
 4    1  0.6165923E-005  0.7097620E+03  0.7818608E-02  0.9700682E-01
          2   -1    0    0  501    0  0.00000000000E+00  0.00000000000E+00  0.11971467143E+04  0.11971467143E+04  0.25500000000E-02 0.  1.
         -2   -1    0    0    0  501 -0.00000000000E+00 -0.00000000000E+00 -0.10520057283E+03  0.10520057286E+03  0.25500000000E-02 0. -1.
    5000001    1    1    2    0    0  0.25341859067E+03 -0.15160917163E+03  0.65281126698E+03  0.74075155978E+03  0.18800000000E+03 0.  0.
   -5000001    1    1    2    0    0 -0.25341859067E+03  0.15160917163E+03  0.43913487449E+03  0.56159572738E+03  0.18800000000E+03 0.  0.
<mgrwt>
<rscale>  0 0.70976199E+03</rscale>
<asrwt>0</asrwt>
<pdfrwt beam="1">  1        2 0.17102096E+00 0.70976199E+03</pdfrwt>
<pdfrwt beam="2">  1       -2 0.15028653E-01 0.70976199E+03</pdfrwt>
<totfact> 0.75383754E+02</totfact>
</mgrwt>
</event>
<event>
 4    1  0.6165923E-005  0.4248889E+03  0.7818608E-02  0.1035487E+00
         -2   -1    0    0    0  501 -0.00000000000E+00  0.00000000000E+00  0.41365951249E+03  0.41365951249E+03  0.25500000000E-02 0. -1.
          2   -1    0    0  501    0  0.00000000000E+00 -0.00000000000E+00 -0.10910578755E+03  0.10910578758E+03  0.25500000000E-02 0.  1.
    5000001    1    1    2    0    0  0.69273001727E+01 -0.79502019897E+02  0.22423004541E+03  0.30330128902E+03  0.18800000000E+03 0.  0.
   -5000001    1    1    2    0    0 -0.69273001727E+01  0.79502019897E+02  0.80323679527E+02  0.21946401105E+03  0.18800000000E+03 0.  0.
<mgrwt>
<rscale>  0 0.42488891E+03</rscale>
<asrwt>0</asrwt>
<pdfrwt beam="1">  1        2 0.15586541E-01 0.42488891E+03</pdfrwt>
<pdfrwt beam="2">  1       -2 0.59094218E-01 0.42488891E+03</pdfrwt>
<totfact> 0.10243574E+03</totfact>
</mgrwt>
</event>
<event>
 4    1  0.6165923E-005  0.6618930E+03  0.7818608E-02  0.9784715E-01
         -2   -1    0    0    0  501 -0.00000000000E+00  0.00000000000E+00  0.14336583839E+03  0.14336583841E+03  0.25500000000E-02 0. -1.
          2   -1    0    0  501    0  0.00000000000E+00 -0.00000000000E+00 -0.76395884219E+03  0.76395884219E+03  0.25500000000E-02 0.  1.
    5000001    1    1    2    0    0 -0.18398414313E+03 -0.49350592498E+02 -0.57714903571E+03  0.63618445071E+03  0.18800000000E+03 0.  0.
   -5000001    1    1    2    0    0  0.18398414313E+03  0.49350592498E+02 -0.43443968086E+02  0.27114022989E+03  0.18800000000E+03 0.  0.
<mgrwt>
<rscale>  0 0.66189304E+03</rscale>
<asrwt>0</asrwt>
<pdfrwt beam="1">  1        2 0.10913698E+00 0.66189304E+03</pdfrwt>
<pdfrwt beam="2">  1       -2 0.20480834E-01 0.66189304E+03</pdfrwt>
<totfact> 0.82794962E+02</totfact>
</mgrwt>
</event>
<event>
 4    1  0.6165923E-005  0.4936498E+03  0.7818608E-02  0.1015450E+00
          2   -1    0    0  501    0  0.00000000000E+00  0.00000000000E+00  0.48806246001E+03  0.48806246002E+03  0.25500000000E-02 0.  1.
         -2   -1    0    0    0  501 -0.00000000000E+00 -0.00000000000E+00 -0.12482529090E+03  0.12482529092E+03  0.25500000000E-02 0. -1.
    5000001    1    1    2    0    0  0.94356235322E+02  0.12664753647E+03  0.15031196424E+03  0.28788953478E+03  0.18800000000E+03 0.  0.
   -5000001    1    1    2    0    0 -0.94356235322E+02 -0.12664753647E+03  0.21292520487E+03  0.32499821616E+03  0.18800000000E+03 0.  0.
<mgrwt>
<rscale>  0 0.49364983E+03</rscale>
<asrwt>0</asrwt>
<pdfrwt beam="1">  1        2 0.69723209E-01 0.49364983E+03</pdfrwt>
<pdfrwt beam="2">  1       -2 0.17832184E-01 0.49364983E+03</pdfrwt>
<totfact> 0.17912798E+03</totfact>
</mgrwt>
</event>
<event>
 4    1  0.6165923E-005  0.5301770E+03  0.7818608E-02  0.1006189E+00
         -2   -1    0    0    0  501 -0.00000000000E+00  0.00000000000E+00  0.19478965712E+02  0.19478965879E+02  0.25500000000E-02 0. -1.
          2   -1    0    0  501    0  0.00000000000E+00 -0.00000000000E+00 -0.36075798599E+04  0.36075798599E+04  0.25500000000E-02 0.  1.
    5000001    1    1    2    0    0  0.14448783841E+02 -0.18627622181E+03 -0.17632068268E+04  0.17830170813E+04  0.18800000000E+03 0.  0.
   -5000001    1    1    2    0    0 -0.14448783841E+02  0.18627622181E+03 -0.18248940673E+04  0.18440417444E+04  0.18800000000E+03 0.  0.
<mgrwt>
<rscale>  0 0.53017704E+03</rscale>
<asrwt>0</asrwt>
<pdfrwt beam="1">  1        2 0.51536813E+00 0.53017704E+03</pdfrwt>
<pdfrwt beam="2">  1       -2 0.27827117E-02 0.53017704E+03</pdfrwt>
<totfact> 0.57477745E+02</totfact>
</mgrwt>
</event>
<event>
 4    1  0.6165923E-005  0.6924009E+03  0.7818608E-02  0.9730317E-01
          2   -1    0    0  501    0  0.00000000000E+00  0.00000000000E+00  0.30660175288E+03  0.30660175289E+03  0.25500000000E-02 0.  1.
         -2   -1    0    0    0  501 -0.00000000000E+00 -0.00000000000E+00 -0.39091349715E+03  0.39091349715E+03  0.25500000000E-02 0. -1.
    5000001    1    1    2    0    0  0.45078382436E+01  0.27657312804E+03  0.47934817550E+02  0.33786796607E+03  0.18800000000E+03 0.  0.
   -5000001    1    1    2    0    0 -0.45078382436E+01 -0.27657312804E+03 -0.13224656182E+03  0.35964728398E+03  0.18800000000E+03 0.  0.
<mgrwt>
<rscale>  0 0.69240093E+03</rscale>
<asrwt>0</asrwt>
<pdfrwt beam="1">  1        2 0.43800250E-01 0.69240093E+03</pdfrwt>
<pdfrwt beam="2">  1       -2 0.55844785E-01 0.69240093E+03</pdfrwt>
<totfact> 0.35360742E+02</totfact>
</mgrwt>
</event>
<event>
 4    1  0.6165923E-005  0.4290462E+03  0.7818608E-02  0.1034162E+00
          2   -1    0    0  501    0  0.00000000000E+00  0.00000000000E+00  0.38306667857E+04  0.38306667857E+04  0.25500000000E-02 0.  1.
         -2   -1    0    0    0  501 -0.00000000000E+00 -0.00000000000E+00 -0.12013617011E+02  0.12013617281E+02  0.25500000000E-02 0. -1.
    5000001    1    1    2    0    0 -0.85227521786E+02  0.58377720495E+02  0.19282739598E+04  0.19401691041E+04  0.18800000000E+03 0.  0.
   -5000001    1    1    2    0    0  0.85227521786E+02 -0.58377720495E+02  0.18903792090E+04  0.19025112989E+04  0.18800000000E+03 0.  0.
<mgrwt>
<rscale>  0 0.42904622E+03</rscale>
<asrwt>0</asrwt>
<pdfrwt beam="1">  1        2 0.54723754E+00 0.42904622E+03</pdfrwt>
<pdfrwt beam="2">  1       -2 0.17162328E-02 0.42904622E+03</pdfrwt>
<totfact> 0.87467671E+02</totfact>
</mgrwt>
</event>
<event>
 4    1  0.6165923E-005  0.5023301E+03  0.7818608E-02  0.1013173E+00
         -2   -1    0    0    0  501 -0.00000000000E+00  0.00000000000E+00  0.29122174561E+02  0.29122174673E+02  0.25500000000E-02 0. -1.
          2   -1    0    0  501    0  0.00000000000E+00 -0.00000000000E+00 -0.21661801383E+04  0.21661801383E+04  0.25500000000E-02 0.  1.
    5000001    1    1    2    0    0 -0.43078287526E+02 -0.12174658667E+03 -0.60888652640E+03  0.65020363906E+03  0.18800000000E+03 0.  0.
   -5000001    1    1    2    0    0  0.43078287526E+02  0.12174658667E+03 -0.15281714374E+04  0.15450986740E+04  0.18800000000E+03 0.  0.
<mgrwt>
<rscale>  0 0.50233008E+03</rscale>
<asrwt>0</asrwt>
<pdfrwt beam="1">  1        2 0.30945420E+00 0.50233008E+03</pdfrwt>
<pdfrwt beam="2">  1       -2 0.41603120E-02 0.50233008E+03</pdfrwt>
<totfact> 0.18716316E+03</totfact>
</mgrwt>
</event>
<event>
 4    1  0.6165923E-005  0.5835252E+03  0.7818608E-02  0.9940188E-01
         -2   -1    0    0    0  501 -0.00000000000E+00  0.00000000000E+00  0.56280584443E+02  0.56280584501E+02  0.25500000000E-02 0. -1.
          2   -1    0    0  501    0  0.00000000000E+00 -0.00000000000E+00 -0.15125183636E+04  0.15125183636E+04  0.25500000000E-02 0.  1.
    5000001    1    1    2    0    0 -0.39383866649E+02 -0.18972737546E+03 -0.43075428711E+03  0.50837075232E+03  0.18800000000E+03 0.  0.
   -5000001    1    1    2    0    0  0.39383866649E+02  0.18972737546E+03 -0.10254834921E+04  0.10604281958E+04  0.18800000000E+03 0.  0.
<mgrwt>
<rscale>  0 0.58352521E+03</rscale>
<asrwt>0</asrwt>
<pdfrwt beam="1">  1        2 0.21607403E+00 0.58352521E+03</pdfrwt>
<pdfrwt beam="2">  1       -2 0.80400844E-02 0.58352521E+03</pdfrwt>
<totfact> 0.14261165E+03</totfact>
</mgrwt>
</event>
<event>
 4    1  0.6165923E-005  0.4436844E+03  0.7818608E-02  0.1029622E+00
          2   -1    0    0  501    0  0.00000000000E+00  0.00000000000E+00  0.11514664710E+03  0.11514664713E+03  0.25500000000E-02 0.  1.
         -2   -1    0    0    0  501 -0.00000000000E+00 -0.00000000000E+00 -0.42740247639E+03  0.42740247640E+03  0.25500000000E-02 0. -1.
    5000001    1    1    2    0    0 -0.29755331927E+02  0.11381553693E+03 -0.14936291886E+03  0.26738107217E+03  0.18800000000E+03 0.  0.
   -5000001    1    1    2    0    0  0.29755331927E+02 -0.11381553693E+03 -0.16289291042E+03  0.27516805136E+03  0.18800000000E+03 0.  0.
<mgrwt>
<rscale>  0 0.44368440E+03</rscale>
<asrwt>0</asrwt>
<pdfrwt beam="1">  1        2 0.16449521E-01 0.44368440E+03</pdfrwt>
<pdfrwt beam="2">  1       -2 0.61057496E-01 0.44368440E+03</pdfrwt>
<totfact> 0.89736768E+02</totfact>
</mgrwt>
</event>
<event>
 4    1  0.6165923E-005  0.4827583E+03  0.7818608E-02  0.1018380E+00
         -2   -1    0    0    0  501 -0.00000000000E+00  0.00000000000E+00  0.37829477700E+02  0.37829477786E+02  0.25500000000E-02 0. -1.
          2   -1    0    0  501    0  0.00000000000E+00 -0.00000000000E+00 -0.15401717379E+04  0.15401717379E+04  0.25500000000E-02 0.  1.
    5000001    1    1    2    0    0  0.39628664474E+02 -0.13545725863E+03 -0.93022989077E+03  0.95947420479E+03  0.18800000000E+03 0.  0.
   -5000001    1    1    2    0    0 -0.39628664474E+02  0.13545725863E+03 -0.57211236943E+03  0.61852701090E+03  0.18800000000E+03 0.  0.
<mgrwt>
<rscale>  0 0.48275829E+03</rscale>
<asrwt>0</asrwt>
<pdfrwt beam="1">  1        2 0.22002449E+00 0.48275829E+03</pdfrwt>
<pdfrwt beam="2">  1       -2 0.54042121E-02 0.48275829E+03</pdfrwt>
<totfact> 0.25823458E+03</totfact>
</mgrwt>
</event>
<event>
 4    1  0.6165923E-005  0.5000839E+03  0.7818608E-02  0.1013757E+00
          2   -1    0    0  501    0  0.00000000000E+00  0.00000000000E+00  0.33012449730E+03  0.33012449731E+03  0.25500000000E-02 0.  1.
         -2   -1    0    0    0  501 -0.00000000000E+00 -0.00000000000E+00 -0.18938602779E+03  0.18938602781E+03  0.25500000000E-02 0. -1.
    5000001    1    1    2    0    0 -0.14093063511E+03 -0.69362670290E+02  0.12235667582E+03  0.27383896738E+03  0.18800000000E+03 0.  0.
   -5000001    1    1    2    0    0  0.14093063511E+03  0.69362670290E+02  0.18381793693E+02  0.24567155774E+03  0.18800000000E+03 0.  0.
<mgrwt>
<rscale>  0 0.50008386E+03</rscale>
<asrwt>0</asrwt>
<pdfrwt beam="1">  1        2 0.47160643E-01 0.50008386E+03</pdfrwt>
<pdfrwt beam="2">  1       -2 0.27055147E-01 0.50008386E+03</pdfrwt>
<totfact> 0.13277837E+03</totfact>
</mgrwt>
</event>
<event>
 4    1  0.6165923E-005  0.7880270E+03  0.7818608E-02  0.9577511E-01
         -2   -1    0    0    0  501 -0.00000000000E+00  0.00000000000E+00  0.33564328780E+03  0.33564328781E+03  0.25500000000E-02 0. -1.
          2   -1    0    0  501    0  0.00000000000E+00 -0.00000000000E+00 -0.46253463826E+03  0.46253463827E+03  0.25500000000E-02 0.  1.
    5000001    1    1    2    0    0 -0.32622769175E+03  0.61305849941E+02  0.36412991231E+02  0.38321380459E+03  0.18800000000E+03 0.  0.
   -5000001    1    1    2    0    0  0.32622769175E+03 -0.61305849941E+02 -0.16330434170E+03  0.41496412148E+03  0.18800000000E+03 0.  0.
<mgrwt>
<rscale>  0 0.78802702E+03</rscale>
<asrwt>0</asrwt>
<pdfrwt beam="1">  1        2 0.66076377E-01 0.78802702E+03</pdfrwt>
<pdfrwt beam="2">  1       -2 0.47949041E-01 0.78802702E+03</pdfrwt>
<totfact> 0.30438534E+02</totfact>
</mgrwt>
</event>
<event>
 4    1  0.6165923E-005  0.4803613E+03  0.7818608E-02  0.1019036E+00
          2   -1    0    0  501    0  0.00000000000E+00  0.00000000000E+00  0.36056608656E+03  0.36056608657E+03  0.25500000000E-02 0.  1.
         -2   -1    0    0    0  501 -0.00000000000E+00 -0.00000000000E+00 -0.15998935993E+03  0.15998935995E+03  0.25500000000E-02 0. -1.
    5000001    1    1    2    0    0 -0.13693895523E+02  0.14873110608E+03  0.10663251108E+03  0.26272220521E+03  0.18800000000E+03 0.  0.
   -5000001    1    1    2    0    0  0.13693895523E+02 -0.14873110608E+03  0.93944215547E+02  0.25783324131E+03  0.18800000000E+03 0.  0.
<mgrwt>
<rscale>  0 0.48036127E+03</rscale>
<asrwt>0</asrwt>
<pdfrwt beam="1">  1        2 0.51509441E-01 0.48036127E+03</pdfrwt>
<pdfrwt beam="2">  1       -2 0.22855623E-01 0.48036127E+03</pdfrwt>
<totfact> 0.16287847E+03</totfact>
</mgrwt>
</event>
<event>
 4    1  0.6165923E-005  0.7732577E+03  0.7818608E-02  0.9599553E-01
          2   -1    0    0  501    0  0.00000000000E+00  0.00000000000E+00  0.35034716743E+03  0.35034716744E+03  0.25500000000E-02 0.  1.
         -2   -1    0    0    0  501 -0.00000000000E+00 -0.00000000000E+00 -0.42666779381E+03  0.42666779382E+03  0.25500000000E-02 0. -1.
    5000001    1    1    2    0    0  0.18783104559E+03 -0.22862205828E+03 -0.20201491704E+03  0.40460174731E+03  0.18800000000E+03 0.  0.
   -5000001    1    1    2    0    0 -0.18783104559E+03  0.22862205828E+03  0.12569429065E+03  0.37241321395E+03  0.18800000000E+03 0.  0.
<mgrwt>
<rscale>  0 0.77325766E+03</rscale>
<asrwt>0</asrwt>
<pdfrwt beam="1">  1        2 0.50049595E-01 0.77325766E+03</pdfrwt>
<pdfrwt beam="2">  1       -2 0.60952542E-01 0.77325766E+03</pdfrwt>
<totfact> 0.25321921E+02</totfact>
</mgrwt>
</event>
<event>
 4    1  0.6165923E-005  0.7846601E+03  0.7818608E-02  0.9582490E-01
         -2   -1    0    0    0  501 -0.00000000000E+00  0.00000000000E+00  0.28553913112E+03  0.28553913113E+03  0.25500000000E-02 0. -1.
          2   -1    0    0  501    0  0.00000000000E+00 -0.00000000000E+00 -0.53906052838E+03  0.53906052839E+03  0.25500000000E-02 0.  1.
    5000001    1    1    2    0    0 -0.31932432412E+03  0.65323521063E+02 -0.24351800027E+03  0.44819661181E+03  0.18800000000E+03 0.  0.
   -5000001    1    1    2    0    0  0.31932432412E+03 -0.65323521063E+02 -0.10003396990E+02  0.37640304772E+03  0.18800000000E+03 0.  0.
<mgrwt>
<rscale>  0 0.78466012E+03</rscale>
<asrwt>0</asrwt>
<pdfrwt beam="1">  1        2 0.77008647E-01 0.78466012E+03</pdfrwt>
<pdfrwt beam="2">  1       -2 0.40791304E-01 0.78466012E+03</pdfrwt>
<totfact> 0.35213523E+02</totfact>
</mgrwt>
</event>
<event>
 4    1  0.6165923E-005  0.4529329E+03  0.7818608E-02  0.1026851E+00
         -2   -1    0    0    0  501 -0.00000000000E+00  0.00000000000E+00  0.26542211831E+03  0.26542211832E+03  0.25500000000E-02 0. -1.
          2   -1    0    0  501    0  0.00000000000E+00 -0.00000000000E+00 -0.19322821714E+03  0.19322821716E+03  0.25500000000E-02 0.  1.
    5000001    1    1    2    0    0  0.12136391662E+03  0.46069391584E+01  0.71067195584E+02  0.23482966259E+03  0.18800000000E+03 0.  0.
   -5000001    1    1    2    0    0 -0.12136391662E+03 -0.46069391584E+01  0.11267055798E+01  0.22382067289E+03  0.18800000000E+03 0.  0.
<mgrwt>
<rscale>  0 0.45293285E+03</rscale>
<asrwt>0</asrwt>
<pdfrwt beam="1">  1        2 0.27604031E-01 0.45293285E+03</pdfrwt>
<pdfrwt beam="2">  1       -2 0.37917445E-01 0.45293285E+03</pdfrwt>
<totfact> 0.12809443E+03</totfact>
</mgrwt>
</event>
<event>
 4    1  0.6165923E-005  0.4368782E+03  0.7818608E-02  0.1031709E+00
         -2   -1    0    0    0  501 -0.00000000000E+00  0.00000000000E+00  0.57756322296E+02  0.57756322352E+02  0.25500000000E-02 0. -1.
          2   -1    0    0  501    0  0.00000000000E+00 -0.00000000000E+00 -0.82615450202E+03  0.82615450203E+03  0.25500000000E-02 0.  1.
    5000001    1    1    2    0    0 -0.95653077231E+02  0.13290736754E+02 -0.49585371122E+03  0.53901860617E+03  0.18800000000E+03 0.  0.
   -5000001    1    1    2    0    0  0.95653077231E+02 -0.13290736754E+02 -0.27254446851E+03  0.34489221821E+03  0.18800000000E+03 0.  0.
<mgrwt>
<rscale>  0 0.43687822E+03</rscale>
<asrwt>0</asrwt>
<pdfrwt beam="1">  1        2 0.11802206E+00 0.43687822E+03</pdfrwt>
<pdfrwt beam="2">  1       -2 0.82509037E-02 0.43687822E+03</pdfrwt>
<totfact> 0.33921576E+03</totfact>
</mgrwt>
</event>
<event>
 4    1  0.6165923E-005  0.4768135E+03  0.7818608E-02  0.1020015E+00
         -2   -1    0    0    0  501 -0.00000000000E+00  0.00000000000E+00  0.72549023595E+02  0.72549023639E+02  0.25500000000E-02 0. -1.
          2   -1    0    0  501    0  0.00000000000E+00 -0.00000000000E+00 -0.78343964028E+03  0.78343964028E+03  0.25500000000E-02 0.  1.
    5000001    1    1    2    0    0 -0.11465453235E+03 -0.89593009942E+02 -0.38762005767E+03  0.45471516175E+03  0.18800000000E+03 0.  0.
   -5000001    1    1    2    0    0  0.11465453235E+03  0.89593009942E+02 -0.32327055901E+03  0.40127350217E+03  0.18800000000E+03 0.  0.
<mgrwt>
<rscale>  0 0.47681351E+03</rscale>
<asrwt>0</asrwt>
<pdfrwt beam="1">  1        2 0.11191994E+00 0.47681351E+03</pdfrwt>
<pdfrwt beam="2">  1       -2 0.10364147E-01 0.47681351E+03</pdfrwt>
<totfact> 0.25202990E+03</totfact>
</mgrwt>
</event>
<event>
 4    1  0.6165923E-005  0.6432432E+03  0.7818608E-02  0.9819541E-01
         -2   -1    0    0    0  501 -0.00000000000E+00  0.00000000000E+00  0.52348280450E+02  0.52348280513E+02  0.25500000000E-02 0. -1.
          2   -1    0    0  501    0  0.00000000000E+00 -0.00000000000E+00 -0.19760048477E+04  0.19760048477E+04  0.25500000000E-02 0.  1.
    5000001    1    1    2    0    0 -0.16012101979E+03  0.13258116688E+03 -0.14592137627E+04  0.14858887280E+04  0.18800000000E+03 0.  0.
   -5000001    1    1    2    0    0  0.16012101979E+03 -0.13258116688E+03 -0.46444280458E+03  0.54246440023E+03  0.18800000000E+03 0.  0.
<mgrwt>
<rscale>  0 0.64324321E+03</rscale>
<asrwt>0</asrwt>
<pdfrwt beam="1">  1        2 0.28228636E+00 0.64324321E+03</pdfrwt>
<pdfrwt beam="2">  1       -2 0.74783270E-02 0.64324321E+03</pdfrwt>
<totfact> 0.92736896E+02</totfact>
</mgrwt>
</event>
<event>
 4    1  0.6165923E-005  0.5714595E+03  0.7818608E-02  0.9966454E-01
          2   -1    0    0  501    0  0.00000000000E+00  0.00000000000E+00  0.20600137531E+04  0.20600137531E+04  0.25500000000E-02 0.  1.
         -2   -1    0    0    0  501 -0.00000000000E+00 -0.00000000000E+00 -0.39631523357E+02  0.39631523439E+02  0.25500000000E-02 0. -1.
    5000001    1    1    2    0    0 -0.24569049736E+02  0.21269958455E+03  0.93201375772E+03  0.97459652988E+03  0.18800000000E+03 0.  0.
   -5000001    1    1    2    0    0  0.24569049736E+02 -0.21269958455E+03  0.10883684721E+04  0.11250487467E+04  0.18800000000E+03 0.  0.
<mgrwt>
<rscale>  0 0.57145948E+03</rscale>
<asrwt>0</asrwt>
<pdfrwt beam="1">  1        2 0.29428773E+00 0.57145948E+03</pdfrwt>
<pdfrwt beam="2">  1       -2 0.56616452E-02 0.57145948E+03</pdfrwt>
<totfact> 0.13091888E+03</totfact>
</mgrwt>
</event>
<event>
 4    1  0.6165923E-005  0.7669296E+03  0.7818608E-02  0.9609159E-01
          2   -1    0    0  501    0  0.00000000000E+00  0.00000000000E+00  0.86120401437E+03  0.86120401437E+03  0.25500000000E-02 0.  1.
         -2   -1    0    0    0  501 -0.00000000000E+00 -0.00000000000E+00 -0.17074382487E+03  0.17074382489E+03  0.25500000000E-02 0. -1.
    5000001    1    1    2    0    0 -0.10130100437E+03  0.14906600688E+03 -0.33488020219E+02  0.26257954107E+03  0.18800000000E+03 0.  0.
   -5000001    1    1    2    0    0  0.10130100437E+03 -0.14906600688E+03  0.72394820972E+03  0.76936829818E+03  0.18800000000E+03 0.  0.
<mgrwt>
<rscale>  0 0.76692964E+03</rscale>
<asrwt>0</asrwt>
<pdfrwt beam="1">  1        2 0.12302914E+00 0.76692964E+03</pdfrwt>
<pdfrwt beam="2">  1       -2 0.24391975E-01 0.76692964E+03</pdfrwt>
<totfact> 0.51859697E+02</totfact>
</mgrwt>
</event>
<event>
 4    1  0.6165923E-005  0.5289765E+03  0.7818608E-02  0.1006481E+00
         -2   -1    0    0    0  501 -0.00000000000E+00  0.00000000000E+00  0.12092015557E+03  0.12092015559E+03  0.25500000000E-02 0. -1.
          2   -1    0    0  501    0  0.00000000000E+00 -0.00000000000E+00 -0.57851428128E+03  0.57851428129E+03  0.25500000000E-02 0.  1.
    5000001    1    1    2    0    0 -0.20122807887E+01 -0.10887714239E+03 -0.42823973328E+03  0.48019949039E+03  0.18800000000E+03 0.  0.
   -5000001    1    1    2    0    0  0.20122807887E+01  0.10887714239E+03 -0.29354392431E+02  0.21923494649E+03  0.18800000000E+03 0.  0.
<mgrwt>
<rscale>  0 0.52897651E+03</rscale>
<asrwt>0</asrwt>
<pdfrwt beam="1">  1        2 0.82644896E-01 0.52897651E+03</pdfrwt>
<pdfrwt beam="2">  1       -2 0.17274308E-01 0.52897651E+03</pdfrwt>
<totfact> 0.15571866E+03</totfact>
</mgrwt>
</event>
<event>
 4    1  0.6165923E-005  0.1213183E+04  0.7818608E-02  0.9101395E-01
         -2   -1    0    0    0  501 -0.00000000000E+00  0.00000000000E+00  0.69253053184E+03  0.69253053184E+03  0.25500000000E-02 0. -1.
          2   -1    0    0  501    0  0.00000000000E+00 -0.00000000000E+00 -0.53131670957E+03  0.53131670958E+03  0.25500000000E-02 0.  1.
    5000001    1    1    2    0    0  0.43815576479E+03 -0.32556782938E+02  0.45747981852E+03  0.66156798796E+03  0.18800000000E+03 0.  0.
   -5000001    1    1    2    0    0 -0.43815576479E+03  0.32556782938E+02 -0.29626599626E+03  0.56227925346E+03  0.18800000000E+03 0.  0.
<mgrwt>
<rscale>  0 0.12131827E+04</rscale>
<asrwt>0</asrwt>
<pdfrwt beam="1">  1        2 0.75902387E-01 0.12131827E+04</pdfrwt>
<pdfrwt beam="2">  1       -2 0.98932934E-01 0.12131827E+04</pdfrwt>
<totfact> 0.52350398E+01</totfact>
</mgrwt>
</event>
<event>
 4    1  0.6165923E-005  0.4715269E+03  0.7818608E-02  0.1021490E+00
          2   -1    0    0  501    0  0.00000000000E+00  0.00000000000E+00  0.17188200861E+03  0.17188200863E+03  0.25500000000E-02 0.  1.
         -2   -1    0    0    0  501 -0.00000000000E+00 -0.00000000000E+00 -0.32338704615E+03  0.32338704616E+03  0.25500000000E-02 0. -1.
    5000001    1    1    2    0    0 -0.39076461381E+02 -0.11539987938E+03 -0.15291092464E+03  0.27123763173E+03  0.18800000000E+03 0.  0.
   -5000001    1    1    2    0    0  0.39076461381E+02  0.11539987938E+03  0.14058870914E+01  0.22403142305E+03  0.18800000000E+03 0.  0.
<mgrwt>
<rscale>  0 0.47152695E+03</rscale>
<asrwt>0</asrwt>
<pdfrwt beam="1">  1        2 0.24554573E-01 0.47152695E+03</pdfrwt>
<pdfrwt beam="2">  1       -2 0.46198149E-01 0.47152695E+03</pdfrwt>
<totfact> 0.99540281E+02</totfact>
</mgrwt>
</event>
<event>
 4    1  0.6165923E-005  0.4273776E+03  0.7818608E-02  0.1034692E+00
         -2   -1    0    0    0  501 -0.00000000000E+00  0.00000000000E+00  0.18831646135E+02  0.18831646307E+02  0.25500000000E-02 0. -1.
          2   -1    0    0  501    0  0.00000000000E+00 -0.00000000000E+00 -0.24247963355E+04  0.24247963355E+04  0.25500000000E-02 0.  1.
    5000001    1    1    2    0    0 -0.72614755541E+01 -0.97440242914E+02 -0.13618051612E+04  0.13781888938E+04  0.18800000000E+03 0.  0.
   -5000001    1    1    2    0    0  0.72614755541E+01  0.97440242914E+02 -0.10441595282E+04  0.10654390880E+04  0.18800000000E+03 0.  0.
<mgrwt>
<rscale>  0 0.42737762E+03</rscale>
<asrwt>0</asrwt>
<pdfrwt beam="1">  1        2 0.34639928E+00 0.42737762E+03</pdfrwt>
<pdfrwt beam="2">  1       -2 0.26902367E-02 0.42737762E+03</pdfrwt>
<totfact> 0.26994508E+03</totfact>
</mgrwt>
</event>
<event>
 4    1  0.6165923E-005  0.5091762E+03  0.7818608E-02  0.1011411E+00
          2   -1    0    0  501    0  0.00000000000E+00  0.00000000000E+00  0.10257075074E+04  0.10257075074E+04  0.25500000000E-02 0.  1.
         -2   -1    0    0    0  501 -0.00000000000E+00 -0.00000000000E+00 -0.63190618476E+02  0.63190618528E+02  0.25500000000E-02 0. -1.
    5000001    1    1    2    0    0 -0.20931640641E+02 -0.11515650776E+03  0.74983104253E+03  0.78185020765E+03  0.18800000000E+03 0.  0.
   -5000001    1    1    2    0    0  0.20931640641E+02  0.11515650776E+03  0.21268584636E+03  0.30704791825E+03  0.18800000000E+03 0.  0.
<mgrwt>
<rscale>  0 0.50917617E+03</rscale>
<asrwt>0</asrwt>
<pdfrwt beam="1">  1        2 0.14652965E+00 0.50917617E+03</pdfrwt>
<pdfrwt beam="2">  1       -2 0.90272311E-02 0.50917617E+03</pdfrwt>
<totfact> 0.22005429E+03</totfact>
</mgrwt>
</event>
<event>
 4    1  0.6165923E-005  0.7573650E+03  0.7818608E-02  0.9623866E-01
          2   -1    0    0  501    0  0.00000000000E+00  0.00000000000E+00  0.26652321822E+03  0.26652321823E+03  0.25500000000E-02 0.  1.
         -2   -1    0    0    0  501 -0.00000000000E+00 -0.00000000000E+00 -0.53804103452E+03  0.53804103452E+03  0.25500000000E-02 0. -1.
    5000001    1    1    2    0    0 -0.25789900017E+03  0.16459937234E+03 -0.26346546177E+03  0.44537949796E+03  0.18800000000E+03 0.  0.
   -5000001    1    1    2    0    0  0.25789900017E+03 -0.16459937234E+03 -0.80523545302E+01  0.35918475479E+03  0.18800000000E+03 0.  0.
<mgrwt>
<rscale>  0 0.75736498E+03</rscale>
<asrwt>0</asrwt>
<pdfrwt beam="1">  1        2 0.38074746E-01 0.75736498E+03</pdfrwt>
<pdfrwt beam="2">  1       -2 0.76863004E-01 0.75736498E+03</pdfrwt>
<totfact> 0.20750342E+02</totfact>
</mgrwt>
</event>
<event>
 4    1  0.6165923E-005  0.8377673E+03  0.7818608E-02  0.9506904E-01
          2   -1    0    0  501    0  0.00000000000E+00  0.00000000000E+00  0.54171052295E+04  0.54171052295E+04  0.25500000000E-02 0.  1.
         -2   -1    0    0    0  501 -0.00000000000E+00 -0.00000000000E+00 -0.32390640318E+02  0.32390640418E+02  0.25500000000E-02 0. -1.
    5000001    1    1    2    0    0  0.25033373834E+03  0.26950881525E+03  0.31438439622E+04  0.31708675218E+04  0.18800000000E+03 0.  0.
   -5000001    1    1    2    0    0 -0.25033373834E+03 -0.26950881525E+03  0.22408706269E+04  0.22786283481E+04  0.18800000000E+03 0.  0.
<mgrwt>
<rscale>  0 0.83776729E+03</rscale>
<asrwt>0</asrwt>
<pdfrwt beam="1">  1        2 0.77387192E+00 0.83776729E+03</pdfrwt>
<pdfrwt beam="2">  1       -2 0.46272359E-02 0.83776729E+03</pdfrwt>
<totfact> 0.84402212E+00</totfact>
</mgrwt>
</event>
<event>
 4    1  0.6165923E-005  0.7327334E+03  0.7818608E-02  0.9662835E-01
          2   -1    0    0  501    0  0.00000000000E+00  0.00000000000E+00  0.19328737127E+04  0.19328737127E+04  0.25500000000E-02 0.  1.
         -2   -1    0    0    0  501 -0.00000000000E+00 -0.00000000000E+00 -0.69443006309E+02  0.69443006356E+02  0.25500000000E-02 0. -1.
    5000001    1    1    2    0    0  0.30738902365E+03  0.62096092765E+02  0.99501804530E+03  0.10600702086E+04  0.18800000000E+03 0.  0.
   -5000001    1    1    2    0    0 -0.30738902365E+03 -0.62096092765E+02  0.86841266106E+03  0.94224651047E+03  0.18800000000E+03 0.  0.
<mgrwt>
<rscale>  0 0.73273341E+03</rscale>
<asrwt>0</asrwt>
<pdfrwt beam="1">  1        2 0.27612476E+00 0.73273341E+03</pdfrwt>
<pdfrwt beam="2">  1       -2 0.99204314E-02 0.73273341E+03</pdfrwt>
<totfact> 0.61589918E+02</totfact>
</mgrwt>
</event>
<event>
 4    1  0.6165923E-005  0.6649560E+03  0.7818608E-02  0.9779113E-01
         -2   -1    0    0    0  501 -0.00000000000E+00  0.00000000000E+00  0.95448030932E+02  0.95448030966E+02  0.25500000000E-02 0. -1.
          2   -1    0    0  501    0  0.00000000000E+00 -0.00000000000E+00 -0.11581339873E+04  0.11581339873E+04  0.25500000000E-02 0.  1.
    5000001    1    1    2    0    0  0.25214785204E+03  0.10162855859E+03 -0.59907178745E+03  0.68420604333E+03  0.18800000000E+03 0.  0.
   -5000001    1    1    2    0    0 -0.25214785204E+03 -0.10162855859E+03 -0.46361416890E+03  0.56937597492E+03  0.18800000000E+03 0.  0.
<mgrwt>
<rscale>  0 0.66495596E+03</rscale>
<asrwt>0</asrwt>
<pdfrwt beam="1">  1        2 0.16544770E+00 0.66495596E+03</pdfrwt>
<pdfrwt beam="2">  1       -2 0.13635434E-01 0.66495596E+03</pdfrwt>
<totfact> 0.93557025E+02</totfact>
</mgrwt>
</event>
<event>
 4    1  0.6165923E-005  0.2316468E+04  0.7818608E-02  0.8471456E-01
          2   -1    0    0  501    0  0.00000000000E+00  0.00000000000E+00  0.11720239483E+04  0.11720239483E+04  0.25500000000E-02 0.  1.
         -2   -1    0    0    0  501 -0.00000000000E+00 -0.00000000000E+00 -0.11446062934E+04  0.11446062934E+04  0.25500000000E-02 0. -1.
    5000001    1    1    2    0    0 -0.69547315521E+03  0.90590823374E+03 -0.28830602276E+02  0.11578116605E+04  0.18800000000E+03 0.  0.
   -5000001    1    1    2    0    0  0.69547315521E+03 -0.90590823374E+03  0.56248257168E+02  0.11588185811E+04  0.18800000000E+03 0.  0.
<mgrwt>
<rscale>  0 0.23164680E+04</rscale>
<asrwt>0</asrwt>
<pdfrwt beam="1">  1        2 0.16743199E+00 0.23164680E+04</pdfrwt>
<pdfrwt beam="2">  1       -2 0.16351518E+00 0.23164680E+04</pdfrwt>
<totfact> 0.47897762E+00</totfact>
</mgrwt>
</event>
<event>
 4    1  0.6165923E-005  0.6286614E+03  0.7818608E-02  0.9847664E-01
         -2   -1    0    0    0  501 -0.00000000000E+00  0.00000000000E+00  0.20591878024E+03  0.20591878026E+03  0.25500000000E-02 0. -1.
          2   -1    0    0  501    0  0.00000000000E+00 -0.00000000000E+00 -0.47981927947E+03  0.47981927948E+03  0.25500000000E-02 0.  1.
    5000001    1    1    2    0    0 -0.16312648189E+03  0.18450258877E+03 -0.79145067743E+02  0.31978023095E+03  0.18800000000E+03 0.  0.
   -5000001    1    1    2    0    0  0.16312648189E+03 -0.18450258877E+03 -0.19475543149E+03  0.36595782879E+03  0.18800000000E+03 0.  0.
<mgrwt>
<rscale>  0 0.62866144E+03</rscale>
<asrwt>0</asrwt>
<pdfrwt beam="1">  1        2 0.68545611E-01 0.62866144E+03</pdfrwt>
<pdfrwt beam="2">  1       -2 0.29416969E-01 0.62866144E+03</pdfrwt>
<totfact> 0.75142001E+02</totfact>
</mgrwt>
</event>
<event>
 4    1  0.6165923E-005  0.9756502E+03  0.7818608E-02  0.9335662E-01
         -2   -1    0    0    0  501 -0.00000000000E+00  0.00000000000E+00  0.25712090118E+04  0.25712090118E+04  0.25500000000E-02 0. -1.
          2   -1    0    0  501    0  0.00000000000E+00 -0.00000000000E+00 -0.92553077169E+02  0.92553077204E+02  0.25500000000E-02 0.  1.
    5000001    1    1    2    0    0  0.38846819304E+03  0.21920893637E+03  0.14047097541E+04  0.14857703685E+04  0.18800000000E+03 0.  0.
   -5000001    1    1    2    0    0 -0.38846819304E+03 -0.21920893637E+03  0.10739461806E+04  0.11779917205E+04  0.18800000000E+03 0.  0.
<mgrwt>
<rscale>  0 0.97565015E+03</rscale>
<asrwt>0</asrwt>
<pdfrwt beam="1">  1        2 0.13221868E-01 0.97565015E+03</pdfrwt>
<pdfrwt beam="2">  1       -2 0.36731558E+00 0.97565015E+03</pdfrwt>
<totfact> 0.58311760E+00</totfact>
</mgrwt>
</event>
<event>
 4    1  0.6165923E-005  0.6193175E+03  0.7818608E-02  0.9866119E-01
         -2   -1    0    0    0  501 -0.00000000000E+00  0.00000000000E+00  0.28417932196E+02  0.28417932310E+02  0.25500000000E-02 0. -1.
          2   -1    0    0  501    0  0.00000000000E+00 -0.00000000000E+00 -0.33742268654E+04  0.33742268654E+04  0.25500000000E-02 0.  1.
    5000001    1    1    2    0    0 -0.78945662737E+02 -0.20316139695E+03 -0.23002426608E+04  0.23181818887E+04  0.18800000000E+03 0.  0.
   -5000001    1    1    2    0    0  0.78945662737E+02  0.20316139695E+03 -0.10455662725E+04  0.10844629090E+04  0.18800000000E+03 0.  0.
<mgrwt>
<rscale>  0 0.61931753E+03</rscale>
<asrwt>0</asrwt>
<pdfrwt beam="1">  1        2 0.48203215E+00 0.61931753E+03</pdfrwt>
<pdfrwt beam="2">  1       -2 0.40597068E-02 0.61931753E+03</pdfrwt>
<totfact> 0.43949326E+02</totfact>
</mgrwt>
</event>
<event>
 4    1  0.6165923E-005  0.6516459E+03  0.7818608E-02  0.9803696E-01
         -2   -1    0    0    0  501 -0.00000000000E+00  0.00000000000E+00  0.18355286534E+03  0.18355286536E+03  0.25500000000E-02 0. -1.
          2   -1    0    0  501    0  0.00000000000E+00 -0.00000000000E+00 -0.57836530421E+03  0.57836530421E+03  0.25500000000E-02 0.  1.
    5000001    1    1    2    0    0 -0.23685037210E+03 -0.11325665388E+03 -0.24825645448E+03  0.40730877182E+03  0.18800000000E+03 0.  0.
   -5000001    1    1    2    0    0  0.23685037210E+03  0.11325665388E+03 -0.14655598439E+03  0.35460939775E+03  0.18800000000E+03 0.  0.
<mgrwt>
<rscale>  0 0.65164594E+03</rscale>
<asrwt>0</asrwt>
<pdfrwt beam="1">  1        2 0.82623614E-01 0.65164594E+03</pdfrwt>
<pdfrwt beam="2">  1       -2 0.26221838E-01 0.65164594E+03</pdfrwt>
<totfact> 0.74746022E+02</totfact>
</mgrwt>
</event>
<event>
 4    1  0.6165923E-005  0.4405208E+03  0.7818608E-02  0.1030587E+00
          2   -1    0    0  501    0  0.00000000000E+00  0.00000000000E+00  0.36820481611E+03  0.36820481612E+03  0.25500000000E-02 0.  1.
         -2   -1    0    0    0  501 -0.00000000000E+00 -0.00000000000E+00 -0.13175992228E+03  0.13175992230E+03  0.25500000000E-02 0. -1.
    5000001    1    1    2    0    0  0.19903993850E+02 -0.11295953640E+03  0.12256084775E+03  0.25203409935E+03  0.18800000000E+03 0.  0.
   -5000001    1    1    2    0    0 -0.19903993850E+02  0.11295953640E+03  0.11388404609E+03  0.24793063907E+03  0.18800000000E+03 0.  0.
<mgrwt>
<rscale>  0 0.44052077E+03</rscale>
<asrwt>0</asrwt>
<pdfrwt beam="1">  1        2 0.52600688E-01 0.44052077E+03</pdfrwt>
<pdfrwt beam="2">  1       -2 0.18822846E-01 0.44052077E+03</pdfrwt>
<totfact> 0.22296633E+03</totfact>
</mgrwt>
</event>
<event>
 4    1  0.6165923E-005  0.6373649E+03  0.7818608E-02  0.9830781E-01
          2   -1    0    0  501    0  0.00000000000E+00  0.00000000000E+00  0.90697708410E+03  0.90697708411E+03  0.25500000000E-02 0.  1.
         -2   -1    0    0    0  501 -0.00000000000E+00 -0.00000000000E+00 -0.11197471850E+03  0.11197471853E+03  0.25500000000E-02 0. -1.
    5000001    1    1    2    0    0  0.19966546780E+03  0.15331996817E+03  0.48271613262E+03  0.57596195739E+03  0.18800000000E+03 0.  0.
   -5000001    1    1    2    0    0 -0.19966546780E+03 -0.15331996817E+03  0.31228623299E+03  0.44298984524E+03  0.18800000000E+03 0.  0.
<mgrwt>
<rscale>  0 0.63736490E+03</rscale>
<asrwt>0</asrwt>
<pdfrwt beam="1">  1        2 0.12956815E+00 0.63736490E+03</pdfrwt>
<pdfrwt beam="2">  1       -2 0.15996388E-01 0.63736490E+03</pdfrwt>
<totfact> 0.10143543E+03</totfact>
</mgrwt>
</event>
<event>
 4    1  0.6165923E-005  0.6856606E+03  0.7818608E-02  0.9742074E-01
          2   -1    0    0  501    0  0.00000000000E+00  0.00000000000E+00  0.69337625113E+03  0.69337625113E+03  0.25500000000E-02 0.  1.
         -2   -1    0    0    0  501 -0.00000000000E+00 -0.00000000000E+00 -0.16950768309E+03  0.16950768311E+03  0.25500000000E-02 0. -1.
    5000001    1    1    2    0    0 -0.27269476269E+03  0.44785076565E+02  0.35794551979E+03  0.48973169370E+03  0.18800000000E+03 0.  0.
   -5000001    1    1    2    0    0  0.27269476269E+03 -0.44785076565E+02  0.16592304824E+03  0.37315224054E+03  0.18800000000E+03 0.  0.
<mgrwt>
<rscale>  0 0.68566056E+03</rscale>
<asrwt>0</asrwt>
<pdfrwt beam="1">  1        2 0.99053750E-01 0.68566056E+03</pdfrwt>
<pdfrwt beam="2">  1       -2 0.24215383E-01 0.68566056E+03</pdfrwt>
<totfact> 0.69388796E+02</totfact>
</mgrwt>
</event>
<event>
 4    1  0.6165923E-005  0.5053604E+03  0.7818608E-02  0.1012389E+00
          2   -1    0    0  501    0  0.00000000000E+00  0.00000000000E+00  0.44943705293E+03  0.44943705294E+03  0.25500000000E-02 0.  1.
         -2   -1    0    0    0  501 -0.00000000000E+00 -0.00000000000E+00 -0.14206056796E+03  0.14206056799E+03  0.25500000000E-02 0. -1.
    5000001    1    1    2    0    0  0.12138162506E+03  0.11301165720E+03  0.11670971774E+03  0.27653262336E+03  0.18800000000E+03 0.  0.
   -5000001    1    1    2    0    0 -0.12138162506E+03 -0.11301165720E+03  0.19066676723E+03  0.31496499757E+03  0.18800000000E+03 0.  0.
<mgrwt>
<rscale>  0 0.50536040E+03</rscale>
<asrwt>0</asrwt>
<pdfrwt beam="1">  1        2 0.64205294E-01 0.50536040E+03</pdfrwt>
<pdfrwt beam="2">  1       -2 0.20294367E-01 0.50536040E+03</pdfrwt>
<totfact> 0.15722706E+03</totfact>
</mgrwt>
</event>
<event>
 4    1  0.6165923E-005  0.4508493E+03  0.7818608E-02  0.1027469E+00
          2   -1    0    0  501    0  0.00000000000E+00  0.00000000000E+00  0.90750436847E+02  0.90750436883E+02  0.25500000000E-02 0.  1.
         -2   -1    0    0    0  501 -0.00000000000E+00 -0.00000000000E+00 -0.55995630378E+03  0.55995630379E+03  0.25500000000E-02 0. -1.
    5000001    1    1    2    0    0  0.64531593487E+02  0.10591291949E+03 -0.24832605171E+03  0.33524871518E+03  0.18800000000E+03 0.  0.
   -5000001    1    1    2    0    0 -0.64531593487E+02 -0.10591291949E+03 -0.22087981522E+03  0.31545802549E+03  0.18800000000E+03 0.  0.
<mgrwt>
<rscale>  0 0.45084933E+03</rscale>
<asrwt>0</asrwt>
<pdfrwt beam="1">  1        2 0.12964348E-01 0.45084933E+03</pdfrwt>
<pdfrwt beam="2">  1       -2 0.79993756E-01 0.45084933E+03</pdfrwt>
<totfact> 0.66701695E+02</totfact>
</mgrwt>
</event>
<event>
 4    1  0.6165923E-005  0.5227437E+03  0.7818608E-02  0.1008007E+00
         -2   -1    0    0    0  501 -0.00000000000E+00  0.00000000000E+00  0.18347927336E+03  0.18347927338E+03  0.25500000000E-02 0. -1.
          2   -1    0    0  501    0  0.00000000000E+00 -0.00000000000E+00 -0.37233215005E+03  0.37233215006E+03  0.25500000000E-02 0.  1.
    5000001    1    1    2    0    0 -0.14392044395E+03 -0.10597934346E+03 -0.60360390331E+02  0.26633079459E+03  0.18800000000E+03 0.  0.
   -5000001    1    1    2    0    0  0.14392044395E+03  0.10597934346E+03 -0.12849248636E+03  0.28948062884E+03  0.18800000000E+03 0.  0.
<mgrwt>
<rscale>  0 0.52274366E+03</rscale>
<asrwt>0</asrwt>
<pdfrwt beam="1">  1        2 0.53190307E-01 0.52274366E+03</pdfrwt>
<pdfrwt beam="2">  1       -2 0.26211325E-01 0.52274366E+03</pdfrwt>
<totfact> 0.12317311E+03</totfact>
</mgrwt>
</event>
<event>
 4    1  0.6165923E-005  0.4364186E+03  0.7818608E-02  0.1031851E+00
         -2   -1    0    0    0  501 -0.00000000000E+00  0.00000000000E+00  0.23218885559E+02  0.23218885699E+02  0.25500000000E-02 0. -1.
          2   -1    0    0  501    0  0.00000000000E+00 -0.00000000000E+00 -0.20507142484E+04  0.20507142484E+04  0.25500000000E-02 0.  1.
    5000001    1    1    2    0    0  0.53195058787E+02 -0.80751551972E+02 -0.75692088491E+03  0.78589042075E+03  0.18800000000E+03 0.  0.
   -5000001    1    1    2    0    0 -0.53195058787E+02  0.80751551972E+02 -0.12705744779E+04  0.12880427134E+04  0.18800000000E+03 0.  0.
<mgrwt>
<rscale>  0 0.43641860E+03</rscale>
<asrwt>0</asrwt>
<pdfrwt beam="1">  1        2 0.29295906E+00 0.43641860E+03</pdfrwt>
<pdfrwt beam="2">  1       -2 0.33169850E-02 0.43641860E+03</pdfrwt>
<totfact> 0.30250884E+03</totfact>
</mgrwt>
</event>
<event>
 4    1  0.6165923E-005  0.4378527E+03  0.7818608E-02  0.1031408E+00
          2   -1    0    0  501    0  0.00000000000E+00  0.00000000000E+00  0.27112410898E+04  0.27112410898E+04  0.25500000000E-02 0.  1.
         -2   -1    0    0    0  501 -0.00000000000E+00 -0.00000000000E+00 -0.17677784679E+02  0.17677784863E+02  0.25500000000E-02 0. -1.
    5000001    1    1    2    0    0  0.93126712918E+02 -0.35120805383E+02  0.16693510208E+04  0.16828496327E+04  0.18800000000E+03 0.  0.
   -5000001    1    1    2    0    0 -0.93126712918E+02  0.35120805383E+02  0.10242122843E+04  0.10460692420E+04  0.18800000000E+03 0.  0.
<mgrwt>
<rscale>  0 0.43785265E+03</rscale>
<asrwt>0</asrwt>
<pdfrwt beam="1">  1        2 0.38732054E+00 0.43785265E+03</pdfrwt>
<pdfrwt beam="2">  1       -2 0.25253953E-02 0.43785265E+03</pdfrwt>
<totfact> 0.21178845E+03</totfact>
</mgrwt>
</event>
<event>
 4    1  0.6165923E-005  0.6725823E+03  0.7818608E-02  0.9765304E-01
         -2   -1    0    0    0  501 -0.00000000000E+00  0.00000000000E+00  0.31500029176E+03  0.31500029177E+03  0.25500000000E-02 0. -1.
          2   -1    0    0  501    0  0.00000000000E+00 -0.00000000000E+00 -0.35902107883E+03  0.35902107884E+03  0.25500000000E-02 0.  1.
    5000001    1    1    2    0    0  0.10777379066E+03  0.24210597629E+03  0.64877194458E+02  0.33133599875E+03  0.18800000000E+03 0.  0.
   -5000001    1    1    2    0    0 -0.10777379066E+03 -0.24210597629E+03 -0.10889798153E+03  0.34268537186E+03  0.18800000000E+03 0.  0.
<mgrwt>
<rscale>  0 0.67258232E+03</rscale>
<asrwt>0</asrwt>
<pdfrwt beam="1">  1        2 0.51288725E-01 0.67258232E+03</pdfrwt>
<pdfrwt beam="2">  1       -2 0.45000042E-01 0.67258232E+03</pdfrwt>
<totfact> 0.46058707E+02</totfact>
</mgrwt>
</event>
<event>
 4    1  0.6165923E-005  0.7787983E+03  0.7818608E-02  0.9591223E-01
          2   -1    0    0  501    0  0.00000000000E+00  0.00000000000E+00  0.17429128952E+04  0.17429128952E+04  0.25500000000E-02 0.  1.
         -2   -1    0    0    0  501 -0.00000000000E+00 -0.00000000000E+00 -0.86999019254E+02  0.86999019291E+02  0.25500000000E-02 0. -1.
    5000001    1    1    2    0    0 -0.48272153465E+02 -0.17782112099E+03  0.15021792376E+04  0.15250695111E+04  0.18800000000E+03 0.  0.
   -5000001    1    1    2    0    0  0.48272153465E+02  0.17782112099E+03  0.15373463836E+03  0.30484240339E+03  0.18800000000E+03 0.  0.
<mgrwt>
<rscale>  0 0.77879834E+03</rscale>
<asrwt>0</asrwt>
<pdfrwt beam="1">  1        2 0.24898756E+00 0.77879834E+03</pdfrwt>
<pdfrwt beam="2">  1       -2 0.12428431E-01 0.77879834E+03</pdfrwt>
<totfact> 0.52980200E+02</totfact>
</mgrwt>
</event>
<event>
 4    1  0.6165923E-005  0.4480412E+03  0.7818608E-02  0.1028308E+00
         -2   -1    0    0    0  501 -0.00000000000E+00  0.00000000000E+00  0.44241476181E+03  0.44241476182E+03  0.25500000000E-02 0. -1.
          2   -1    0    0  501    0  0.00000000000E+00 -0.00000000000E+00 -0.11343480346E+03  0.11343480349E+03  0.25500000000E-02 0.  1.
    5000001    1    1    2    0    0 -0.96024603382E+02  0.46345433584E+02  0.91381595465E+02  0.23465553405E+03  0.18800000000E+03 0.  0.
   -5000001    1    1    2    0    0  0.96024603382E+02 -0.46345433584E+02  0.23759836288E+03  0.32119403126E+03  0.18800000000E+03 0.  0.
<mgrwt>
<rscale>  0 0.44804121E+03</rscale>
<asrwt>0</asrwt>
<pdfrwt beam="1">  1        2 0.16204972E-01 0.44804121E+03</pdfrwt>
<pdfrwt beam="2">  1       -2 0.63202109E-01 0.44804121E+03</pdfrwt>
<totfact> 0.84947244E+02</totfact>
</mgrwt>
</event>
<event>
 4    1  0.6165923E-005  0.5624727E+03  0.7818608E-02  0.9986475E-01
         -2   -1    0    0    0  501 -0.00000000000E+00  0.00000000000E+00  0.69433583444E+02  0.69433583491E+02  0.25500000000E-02 0.  1.
          2   -1    0    0  501    0  0.00000000000E+00 -0.00000000000E+00 -0.11391301220E+04  0.11391301220E+04  0.25500000000E-02 0. -1.
    5000001    1    1    2    0    0 -0.11462841464E+03  0.86808754844E+02 -0.86123598276E+03  0.89316675451E+03  0.18800000000E+03 0.  0.
   -5000001    1    1    2    0    0  0.11462841464E+03 -0.86808754844E+02 -0.20846055576E+03  0.31539695095E+03  0.18800000000E+03 0.  0.
<mgrwt>
<rscale>  0 0.56247271E+03</rscale>
<asrwt>0</asrwt>
<pdfrwt beam="1">  1        2 0.16273286E+00 0.56247271E+03</pdfrwt>
<pdfrwt beam="2">  1       -2 0.99190840E-02 0.56247271E+03</pdfrwt>
<totfact> 0.16223258E+03</totfact>
</mgrwt>
</event>
<event>
 4    1  0.6165923E-005  0.5430011E+03  0.7818608E-02  0.1003127E+00
          2   -1    0    0  501    0  0.00000000000E+00  0.00000000000E+00  0.28269197030E+03  0.28269197031E+03  0.25500000000E-02 0.  1.
         -2   -1    0    0    0  501 -0.00000000000E+00 -0.00000000000E+00 -0.26075216440E+03  0.26075216441E+03  0.25500000000E-02 0. -1.
    5000001    1    1    2    0    0 -0.10680942054E+03 -0.14937240077E+03  0.79203069635E+02  0.27447676161E+03  0.18800000000E+03 0.  0.
   -5000001    1    1    2    0    0  0.10680942054E+03  0.14937240077E+03 -0.57263263731E+02  0.26896737311E+03  0.18800000000E+03 0.  0.
<mgrwt>
<rscale>  0 0.54300108E+03</rscale>
<asrwt>0</asrwt>
<pdfrwt beam="1">  1        2 0.40384567E-01 0.54300108E+03</pdfrwt>
<pdfrwt beam="2">  1       -2 0.37250309E-01 0.54300108E+03</pdfrwt>
<totfact> 0.86867682E+02</totfact>
</mgrwt>
</event>
<event>
 4    1  0.6165923E-005  0.6461957E+03  0.7818608E-02  0.9813944E-01
         -2   -1    0    0    0  501 -0.00000000000E+00  0.00000000000E+00  0.56502453757E+03  0.56502453758E+03  0.25500000000E-02 0. -1.
          2   -1    0    0  501    0  0.00000000000E+00 -0.00000000000E+00 -0.18475697873E+03  0.18475697875E+03  0.25500000000E-02 0.  1.
    5000001    1    1    2    0    0 -0.18596984033E+03  0.15258333724E+03  0.67439042216E+02  0.31266352638E+03  0.18800000000E+03 0.  0.
   -5000001    1    1    2    0    0  0.18596984033E+03 -0.15258333724E+03  0.31282851663E+03  0.43711798994E+03  0.18800000000E+03 0.  0.
<mgrwt>
<rscale>  0 0.64619572E+03</rscale>
<asrwt>0</asrwt>
<pdfrwt beam="1">  1        2 0.26393854E-01 0.64619572E+03</pdfrwt>
<pdfrwt beam="2">  1       -2 0.80717793E-01 0.64619572E+03</pdfrwt>
<totfact> 0.28178969E+02</totfact>
</mgrwt>
</event>
<event>
 4    1  0.6165923E-005  0.8229733E+03  0.7818608E-02  0.9527347E-01
          2   -1    0    0  501    0  0.00000000000E+00  0.00000000000E+00  0.35867497573E+03  0.35867497573E+03  0.25500000000E-02 0.  1.
         -2   -1    0    0    0  501 -0.00000000000E+00 -0.00000000000E+00 -0.47207434107E+03  0.47207434108E+03  0.25500000000E-02 0. -1.
    5000001    1    1    2    0    0  0.15007353048E+03 -0.18852726546E+03  0.22142617069E+03  0.37740978186E+03  0.18800000000E+03 0.  0.
   -5000001    1    1    2    0    0 -0.15007353048E+03  0.18852726546E+03 -0.33482553603E+03  0.45333953496E+03  0.18800000000E+03 0.  0.
<mgrwt>
<rscale>  0 0.82297327E+03</rscale>
<asrwt>0</asrwt>
<pdfrwt beam="1">  1        2 0.51239282E-01 0.82297327E+03</pdfrwt>
<pdfrwt beam="2">  1       -2 0.67439192E-01 0.82297327E+03</pdfrwt>
<totfact> 0.19830622E+02</totfact>
</mgrwt>
</event>
<event>
 4    1  0.6165923E-005  0.7575963E+03  0.7818608E-02  0.9623508E-01
         -2   -1    0    0    0  501 -0.00000000000E+00  0.00000000000E+00  0.40254917725E+03  0.40254917725E+03  0.25500000000E-02 0. -1.
          2   -1    0    0  501    0  0.00000000000E+00 -0.00000000000E+00 -0.35644849042E+03  0.35644849043E+03  0.25500000000E-02 0.  1.
    5000001    1    1    2    0    0  0.28453963958E+03 -0.16327490801E+03  0.45951858571E+02  0.38088984678E+03  0.18800000000E+03 0.  0.
   -5000001    1    1    2    0    0 -0.28453963958E+03  0.16327490801E+03  0.14882825052E+00  0.37810782090E+03  0.18800000000E+03 0.  0.
<mgrwt>
<rscale>  0 0.75759632E+03</rscale>
<asrwt>0</asrwt>
<pdfrwt beam="1">  1        2 0.50921213E-01 0.75759632E+03</pdfrwt>
<pdfrwt beam="2">  1       -2 0.57507025E-01 0.75759632E+03</pdfrwt>
<totfact> 0.28090017E+02</totfact>
</mgrwt>
</event>
<event>
 4    1  0.6165923E-005  0.7308166E+03  0.7818608E-02  0.9665936E-01
          2   -1    0    0  501    0  0.00000000000E+00  0.00000000000E+00  0.32390525929E+04  0.32390525929E+04  0.25500000000E-02 0.  1.
         -2   -1    0    0    0  501 -0.00000000000E+00 -0.00000000000E+00 -0.41222926597E+02  0.41222926676E+02  0.25500000000E-02 0. -1.
    5000001    1    1    2    0    0 -0.28690321317E+03 -0.44423088582E+02  0.21279566195E+04  0.21558827053E+04  0.18800000000E+03 0.  0.
   -5000001    1    1    2    0    0  0.28690321317E+03  0.44423088582E+02  0.10698730468E+04  0.11243928143E+04  0.18800000000E+03 0.  0.
<mgrwt>
<rscale>  0 0.73081660E+03</rscale>
<asrwt>0</asrwt>
<pdfrwt beam="1">  1        2 0.46272177E+00 0.73081660E+03</pdfrwt>
<pdfrwt beam="2">  1       -2 0.58889898E-02 0.73081660E+03</pdfrwt>
<totfact> 0.29126106E+02</totfact>
</mgrwt>
</event>
<event>
 4    1  0.6165923E-005  0.5867782E+03  0.7818608E-02  0.9933223E-01
          2   -1    0    0  501    0  0.00000000000E+00  0.00000000000E+00  0.67710043815E+03  0.67710043815E+03  0.25500000000E-02 0.  1.
         -2   -1    0    0    0  501 -0.00000000000E+00 -0.00000000000E+00 -0.12712615570E+03  0.12712615572E+03  0.25500000000E-02 0. -1.
    5000001    1    1    2    0    0 -0.26650822331E+02  0.22197922622E+03  0.31247526454E+03  0.42774973308E+03  0.18800000000E+03 0.  0.
   -5000001    1    1    2    0    0  0.26650822331E+02 -0.22197922622E+03  0.23749901791E+03  0.37647686079E+03  0.18800000000E+03 0.  0.
<mgrwt>
<rscale>  0 0.58677824E+03</rscale>
<asrwt>0</asrwt>
<pdfrwt beam="1">  1        2 0.96728634E-01 0.58677824E+03</pdfrwt>
<pdfrwt beam="2">  1       -2 0.18160879E-01 0.58677824E+03</pdfrwt>
<totfact> 0.11856410E+03</totfact>
</mgrwt>
</event>
<event>
 4    1  0.6165923E-005  0.4359027E+03  0.7818608E-02  0.1032011E+00
          2   -1    0    0  501    0  0.00000000000E+00  0.00000000000E+00  0.16536703086E+04  0.16536703086E+04  0.25500000000E-02 0.  1.
         -2   -1    0    0    0  501 -0.00000000000E+00 -0.00000000000E+00 -0.28725674239E+02  0.28725674353E+02  0.25500000000E-02 0. -1.
    5000001    1    1    2    0    0 -0.57306040741E+02  0.93691966468E+02  0.85041164920E+03  0.87784175111E+03  0.18800000000E+03 0.  0.
   -5000001    1    1    2    0    0  0.57306040741E+02 -0.93691966468E+02  0.77453298514E+03  0.80455423183E+03  0.18800000000E+03 0.  0.
<mgrwt>
<rscale>  0 0.43590272E+03</rscale>
<asrwt>0</asrwt>
<pdfrwt beam="1">  1        2 0.23623857E+00 0.43590272E+03</pdfrwt>
<pdfrwt beam="2">  1       -2 0.41036685E-02 0.43590272E+03</pdfrwt>
<totfact> 0.34540997E+03</totfact>
</mgrwt>
</event>
<event>
 4    1  0.6165923E-005  0.1167239E+04  0.7818608E-02  0.9142026E-01
         -2   -1    0    0    0  501 -0.00000000000E+00  0.00000000000E+00  0.24790156022E+03  0.24790156023E+03  0.25500000000E-02 0. -1.
          2   -1    0    0  501    0  0.00000000000E+00 -0.00000000000E+00 -0.13739788409E+04  0.13739788409E+04  0.25500000000E-02 0.  1.
    5000001    1    1    2    0    0 -0.10440516952E+03  0.54252232043E+03 -0.57144378245E+03  0.81677592036E+03  0.18800000000E+03 0.  0.
   -5000001    1    1    2    0    0  0.10440516952E+03 -0.54252232043E+03 -0.55463349825E+03  0.80510448078E+03  0.18800000000E+03 0.  0.
<mgrwt>
<rscale>  0 0.11672386E+04</rscale>
<asrwt>0</asrwt>
<pdfrwt beam="1">  1        2 0.19628269E+00 0.11672386E+04</pdfrwt>
<pdfrwt beam="2">  1       -2 0.35414509E-01 0.11672386E+04</pdfrwt>
<totfact> 0.12644627E+02</totfact>
</mgrwt>
</event>
<event>
 4    1  0.6165923E-005  0.5047695E+03  0.7818608E-02  0.1012541E+00
         -2   -1    0    0    0  501 -0.00000000000E+00  0.00000000000E+00  0.34424540697E+02  0.34424540792E+02  0.25500000000E-02 0. -1.
          2   -1    0    0  501    0  0.00000000000E+00 -0.00000000000E+00 -0.18503681347E+04  0.18503681347E+04  0.25500000000E-02 0.  1.
    5000001    1    1    2    0    0  0.14969161316E+03  0.75169757401E+02 -0.84373001252E+03  0.88050122402E+03  0.18800000000E+03 0.  0.
   -5000001    1    1    2    0    0 -0.14969161316E+03 -0.75169757401E+02 -0.97221358144E+03  0.10042914514E+04  0.18800000000E+03 0.  0.
<mgrwt>
<rscale>  0 0.50476954E+03</rscale>
<asrwt>0</asrwt>
<pdfrwt beam="1">  1        2 0.26433824E+00 0.50476954E+03</pdfrwt>
<pdfrwt beam="2">  1       -2 0.49177927E-02 0.50476954E+03</pdfrwt>
<totfact> 0.20805688E+03</totfact>
</mgrwt>
</event>
<event>
 4    1  0.6165923E-005  0.7733935E+03  0.7818608E-02  0.9599348E-01
          2   -1    0    0  501    0  0.00000000000E+00  0.00000000000E+00  0.72312106895E+03  0.72312106896E+03  0.25500000000E-02 0.  1.
         -2   -1    0    0    0  501 -0.00000000000E+00 -0.00000000000E+00 -0.20679022203E+03  0.20679022204E+03  0.25500000000E-02 0. -1.
    5000001    1    1    2    0    0 -0.30248342463E+03  0.14942157611E+03  0.23512060698E+03  0.45216007056E+03  0.18800000000E+03 0.  0.
   -5000001    1    1    2    0    0  0.30248342463E+03 -0.14942157611E+03  0.28121023994E+03  0.47775122044E+03  0.18800000000E+03 0.  0.
<mgrwt>
<rscale>  0 0.77339347E+03</rscale>
<asrwt>0</asrwt>
<pdfrwt beam="1">  1        2 0.10330301E+00 0.77339347E+03</pdfrwt>
<pdfrwt beam="2">  1       -2 0.29541461E-01 0.77339347E+03</pdfrwt>
<totfact> 0.45754091E+02</totfact>
</mgrwt>
</event>
<event>
 4    1  0.6165923E-005  0.5149538E+03  0.7818608E-02  0.1009948E+00
         -2   -1    0    0    0  501 -0.00000000000E+00  0.00000000000E+00  0.20692204347E+02  0.20692204504E+02  0.25500000000E-02 0. -1.
          2   -1    0    0  501    0  0.00000000000E+00 -0.00000000000E+00 -0.32038329287E+04  0.32038329287E+04  0.25500000000E-02 0.  1.
    5000001    1    1    2    0    0  0.20164312429E+01  0.15879698995E+03 -0.20655588505E+04  0.20801677612E+04  0.18800000000E+03 0.  0.
   -5000001    1    1    2    0    0 -0.20164312429E+01 -0.15879698995E+03 -0.11175818738E+04  0.11443573719E+04  0.18800000000E+03 0.  0.
<mgrwt>
<rscale>  0 0.51495385E+03</rscale>
<asrwt>0</asrwt>
<pdfrwt beam="1">  1        2 0.45769010E+00 0.51495385E+03</pdfrwt>
<pdfrwt beam="2">  1       -2 0.29560313E-02 0.51495385E+03</pdfrwt>
<totfact> 0.90186733E+02</totfact>
</mgrwt>
</event>
<event>
 4    1  0.6165923E-005  0.4389377E+03  0.7818608E-02  0.1031073E+00
         -2   -1    0    0    0  501 -0.00000000000E+00  0.00000000000E+00  0.21209462036E+02  0.21209462189E+02  0.25500000000E-02 0. -1.
          2   -1    0    0  501    0  0.00000000000E+00 -0.00000000000E+00 -0.22709950960E+04  0.22709950960E+04  0.25500000000E-02 0.  1.
    5000001    1    1    2    0    0 -0.46116687431E+02 -0.99633841110E+02 -0.98008407394E+03  0.10039733279E+04  0.18800000000E+03 0.  0.
   -5000001    1    1    2    0    0  0.46116687431E+02  0.99633841110E+02 -0.12697015600E+04  0.12882312302E+04  0.18800000000E+03 0.  0.
<mgrwt>
<rscale>  0 0.43893774E+03</rscale>
<asrwt>0</asrwt>
<pdfrwt beam="1">  1        2 0.32442772E+00 0.43893774E+03</pdfrwt>
<pdfrwt beam="2">  1       -2 0.30299246E-02 0.43893774E+03</pdfrwt>
<totfact> 0.26944634E+03</totfact>
</mgrwt>
</event>
<event>
 4    1  0.6165923E-005  0.3883650E+03  0.7818608E-02  0.1047885E+00
          2   -1    0    0  501    0  0.00000000000E+00  0.00000000000E+00  0.16391746117E+04  0.16391746117E+04  0.25500000000E-02 0.  1.
         -2   -1    0    0    0  501 -0.00000000000E+00 -0.00000000000E+00 -0.23003550723E+02  0.23003550865E+02  0.25500000000E-02 0. -1.
    5000001    1    1    2    0    0 -0.33519932430E+02 -0.25889766912E+02  0.91017534609E+03  0.93035317301E+03  0.18800000000E+03 0.  0.
   -5000001    1    1    2    0    0  0.33519932430E+02  0.25889766912E+02  0.70599571489E+03  0.73182498956E+03  0.18800000000E+03 0.  0.
<mgrwt>
<rscale>  0 0.38836496E+03</rscale>
<asrwt>0</asrwt>
<pdfrwt beam="1">  1        2 0.23416777E+00 0.38836496E+03</pdfrwt>
<pdfrwt beam="2">  1       -2 0.32862220E-02 0.38836496E+03</pdfrwt>
<totfact> 0.49205720E+03</totfact>
</mgrwt>
</event>
<event>
 4    1  0.6165923E-005  0.6615524E+03  0.7818608E-02  0.9785340E-01
         -2   -1    0    0    0  501 -0.00000000000E+00  0.00000000000E+00  0.47276184252E+02  0.47276184321E+02  0.25500000000E-02 0. -1.
          2   -1    0    0  501    0  0.00000000000E+00 -0.00000000000E+00 -0.23143346010E+04  0.23143346010E+04  0.25500000000E-02 0.  1.
    5000001    1    1    2    0    0  0.12529565157E+03 -0.23499397252E+03 -0.13338119775E+04  0.13730693933E+04  0.18800000000E+03 0.  0.
   -5000001    1    1    2    0    0 -0.12529565157E+03  0.23499397252E+03 -0.93324643924E+03  0.98854139204E+03  0.18800000000E+03 0.  0.
<mgrwt>
<rscale>  0 0.66155244E+03</rscale>
<asrwt>0</asrwt>
<pdfrwt beam="1">  1        2 0.33061916E+00 0.66155244E+03</pdfrwt>
<pdfrwt beam="2">  1       -2 0.67537421E-02 0.66155244E+03</pdfrwt>
<totfact> 0.73466585E+02</totfact>
</mgrwt>
</event>
<event>
 4    1  0.6165923E-005  0.6233260E+03  0.7818608E-02  0.9858160E-01
          2   -1    0    0  501    0  0.00000000000E+00  0.00000000000E+00  0.39492502834E+04  0.39492502834E+04  0.25500000000E-02 0. -1.
         -2   -1    0    0    0  501 -0.00000000000E+00 -0.00000000000E+00 -0.24595513139E+02  0.24595513271E+02  0.25500000000E-02 0.  1.
    5000001    1    1    2    0    0  0.20705910240E+03  0.52078378210E+02  0.27738668566E+04  0.27884165699E+04  0.18800000000E+03 0.  0.
   -5000001    1    1    2    0    0 -0.20705910240E+03 -0.52078378210E+02  0.11507879136E+04  0.11854292267E+04  0.18800000000E+03 0.  0.
<mgrwt>
<rscale>  0 0.62332604E+03</rscale>
<asrwt>0</asrwt>
<pdfrwt beam="1">  1        2 0.56417849E+00 0.62332604E+03</pdfrwt>
<pdfrwt beam="2">  1       -2 0.35136455E-02 0.62332604E+03</pdfrwt>
<totfact> 0.24234377E+02</totfact>
</mgrwt>
</event>
<event>
 4    1  0.6165923E-005  0.3966010E+03  0.7818608E-02  0.1044963E+00
          2   -1    0    0  501    0  0.00000000000E+00  0.00000000000E+00  0.19622284702E+04  0.19622284702E+04  0.25500000000E-02 0.  1.
         -2   -1    0    0    0  501 -0.00000000000E+00 -0.00000000000E+00 -0.20040011272E+02  0.20040011434E+02  0.25500000000E-02 0. -1.
    5000001    1    1    2    0    0  0.91082284963E+01  0.60105635323E+02  0.10552404042E+04  0.10735790413E+04  0.18800000000E+03 0.  0.
   -5000001    1    1    2    0    0 -0.91082284963E+01 -0.60105635323E+02  0.88694805466E+03  0.90868944029E+03  0.18800000000E+03 0.  0.
<mgrwt>
<rscale>  0 0.39660096E+03</rscale>
<asrwt>0</asrwt>
<pdfrwt beam="1">  1        2 0.28031839E+00 0.39660096E+03</pdfrwt>
<pdfrwt beam="2">  1       -2 0.28628584E-02 0.39660096E+03</pdfrwt>
<totfact> 0.41821072E+03</totfact>
</mgrwt>
</event>
<event>
 4    1  0.6165923E-005  0.4420604E+03  0.7818608E-02  0.1030116E+00
          2   -1    0    0  501    0  0.00000000000E+00  0.00000000000E+00  0.63811746164E+03  0.63811746164E+03  0.25500000000E-02 0.  1.
         -2   -1    0    0    0  501 -0.00000000000E+00 -0.00000000000E+00 -0.76560133995E+02  0.76560134038E+02  0.25500000000E-02 0. -1.
    5000001    1    1    2    0    0 -0.55214117501E+02 -0.10517925832E+01  0.11542724713E+03  0.22741405942E+03  0.18800000000E+03 0.  0.
   -5000001    1    1    2    0    0  0.55214117501E+02  0.10517925832E+01  0.44613008051E+03  0.48726353626E+03  0.18800000000E+03 0.  0.
<mgrwt>
<rscale>  0 0.44206044E+03</rscale>
<asrwt>0</asrwt>
<pdfrwt beam="1">  1        2 0.91159637E-01 0.44206044E+03</pdfrwt>
<pdfrwt beam="2">  1       -2 0.10937162E-01 0.44206044E+03</pdfrwt>
<totfact> 0.29631567E+03</totfact>
</mgrwt>
</event>
<event>
 4    1  0.6165923E-005  0.5219505E+03  0.7818608E-02  0.1008203E+00
          2   -1    0    0  501    0  0.00000000000E+00  0.00000000000E+00  0.22728971264E+04  0.22728971264E+04  0.25500000000E-02 0.  1.
         -2   -1    0    0    0  501 -0.00000000000E+00 -0.00000000000E+00 -0.29965314297E+02  0.29965314406E+02  0.25500000000E-02 0. -1.
    5000001    1    1    2    0    0  0.29854751670E+02 -0.17728222429E+03  0.10285212689E+04  0.10609054123E+04  0.18800000000E+03 0.  0.
   -5000001    1    1    2    0    0 -0.29854751670E+02  0.17728222429E+03  0.12144105432E+04  0.12419570285E+04  0.18800000000E+03 0.  0.
<mgrwt>
<rscale>  0 0.52195048E+03</rscale>
<asrwt>0</asrwt>
<pdfrwt beam="1">  1        2 0.32469959E+00 0.52195048E+03</pdfrwt>
<pdfrwt beam="2">  1       -2 0.42807592E-02 0.52195048E+03</pdfrwt>
<totfact> 0.15821199E+03</totfact>
</mgrwt>
</event>
<event>
 4    1  0.6165923E-005  0.1273570E+04  0.7818608E-02  0.9050791E-01
         -2   -1    0    0    0  501 -0.00000000000E+00  0.00000000000E+00  0.17956077040E+03  0.17956077042E+03  0.25500000000E-02 0. -1.
          2   -1    0    0  501    0  0.00000000000E+00 -0.00000000000E+00 -0.22582597277E+04  0.22582597277E+04  0.25500000000E-02 0.  1.
    5000001    1    1    2    0    0  0.39736519511E+03  0.42084233722E+03 -0.68050896510E+03  0.91293144467E+03  0.18800000000E+03 0.  0.
   -5000001    1    1    2    0    0 -0.39736519511E+03 -0.42084233722E+03 -0.13981899922E+04  0.15248890534E+04  0.18800000000E+03 0.  0.
<mgrwt>
<rscale>  0 0.12735696E+04</rscale>
<asrwt>0</asrwt>
<pdfrwt beam="1">  1        2 0.32260852E+00 0.12735696E+04</pdfrwt>
<pdfrwt beam="2">  1       -2 0.25651540E-01 0.12735696E+04</pdfrwt>
<totfact> 0.79463230E+01</totfact>
</mgrwt>
</event>
<event>
 4    1  0.6165923E-005  0.5122837E+03  0.7818608E-02  0.1010621E+00
         -2   -1    0    0    0  501 -0.00000000000E+00  0.00000000000E+00  0.19450069993E+03  0.19450069995E+03  0.25500000000E-02 0. -1.
          2   -1    0    0  501    0  0.00000000000E+00 -0.00000000000E+00 -0.33731836381E+03  0.33731836382E+03  0.25500000000E-02 0.  1.
    5000001    1    1    2    0    0  0.49883299928E+02 -0.15793572908E+03 -0.16156900140E+02  0.25107186930E+03  0.18800000000E+03 0.  0.
   -5000001    1    1    2    0    0 -0.49883299928E+02  0.15793572908E+03 -0.12666076374E+03  0.28074719447E+03  0.18800000000E+03 0.  0.
<mgrwt>
<rscale>  0 0.51228374E+03</rscale>
<asrwt>0</asrwt>
<pdfrwt beam="1">  1        2 0.48188338E-01 0.51228374E+03</pdfrwt>
<pdfrwt beam="2">  1       -2 0.27785814E-01 0.51228374E+03</pdfrwt>
<totfact> 0.12355399E+03</totfact>
</mgrwt>
</event>
<event>
 4    1  0.6165923E-005  0.1063970E+04  0.7818608E-02  0.9241038E-01
          2   -1    0    0  501    0  0.00000000000E+00  0.00000000000E+00  0.47200688491E+03  0.47200688492E+03  0.25500000000E-02 0.  1.
         -2   -1    0    0    0  501 -0.00000000000E+00 -0.00000000000E+00 -0.59958503278E+03  0.59958503279E+03  0.25500000000E-02 0. -1.
    5000001    1    1    2    0    0  0.49032881453E+03 -0.83647746618E+02 -0.79552762043E+02  0.53767270139E+03  0.18800000000E+03 0.  0.
   -5000001    1    1    2    0    0 -0.49032881453E+03  0.83647746618E+02 -0.48025385828E+02  0.53391921632E+03  0.18800000000E+03 0.  0.
<mgrwt>
<rscale>  0 0.10639704E+04</rscale>
<asrwt>0</asrwt>
<pdfrwt beam="1">  1        2 0.67429555E-01 0.10639704E+04</pdfrwt>
<pdfrwt beam="2">  1       -2 0.85655004E-01 0.10639704E+04</pdfrwt>
<totfact> 0.84578629E+01</totfact>
</mgrwt>
</event>
<event>
 4    1  0.6165923E-005  0.1135017E+04  0.7818608E-02  0.9171719E-01
         -2   -1    0    0    0  501 -0.00000000000E+00  0.00000000000E+00  0.86747075570E+03  0.86747075571E+03  0.25500000000E-02 0. -1.
          2   -1    0    0  501    0  0.00000000000E+00 -0.00000000000E+00 -0.37126988958E+03  0.37126988959E+03  0.25500000000E-02 0.  1.
    5000001    1    1    2    0    0 -0.15187647552E+03 -0.40740230349E+03  0.58919749401E+03  0.75600316643E+03  0.18800000000E+03 0.  0.
   -5000001    1    1    2    0    0  0.15187647552E+03  0.40740230349E+03 -0.92996627891E+02  0.48273747887E+03  0.18800000000E+03 0.  0.
<mgrwt>
<rscale>  0 0.11350168E+04</rscale>
<asrwt>0</asrwt>
<pdfrwt beam="1">  1        2 0.53038556E-01 0.11350168E+04</pdfrwt>
<pdfrwt beam="2">  1       -2 0.12392439E+00 0.11350168E+04</pdfrwt>
<totfact> 0.45661487E+01</totfact>
</mgrwt>
</event>
<event>
 4    1  0.6165923E-005  0.4853418E+03  0.7818608E-02  0.1017677E+00
          2   -1    0    0  501    0  0.00000000000E+00  0.00000000000E+00  0.78479179304E+03  0.78479179304E+03  0.25500000000E-02 0.  1.
         -2   -1    0    0    0  501 -0.00000000000E+00 -0.00000000000E+00 -0.75037949763E+02  0.75037949806E+02  0.25500000000E-02 0. -1.
    5000001    1    1    2    0    0 -0.50844081642E+02  0.11962969484E+03  0.49933300301E+03  0.54915738402E+03  0.18800000000E+03 0.  0.
   -5000001    1    1    2    0    0  0.50844081642E+02 -0.11962969484E+03  0.21042084027E+03  0.31067235883E+03  0.18800000000E+03 0.  0.
<mgrwt>
<rscale>  0 0.48534181E+03</rscale>
<asrwt>0</asrwt>
<pdfrwt beam="1">  1        2 0.11211312E+00 0.48534181E+03</pdfrwt>
<pdfrwt beam="2">  1       -2 0.10719707E-01 0.48534181E+03</pdfrwt>
<totfact> 0.23813414E+03</totfact>
</mgrwt>
</event>
<event>
 4    1  0.6165923E-005  0.5798211E+03  0.7818608E-02  0.9948178E-01
          2   -1    0    0  501    0  0.00000000000E+00  0.00000000000E+00  0.36285345434E+03  0.36285345435E+03  0.25500000000E-02 0.  1.
         -2   -1    0    0    0  501 -0.00000000000E+00 -0.00000000000E+00 -0.23163103634E+03  0.23163103636E+03  0.25500000000E-02 0. -1.
    5000001    1    1    2    0    0  0.61504876667E+02  0.20347870572E+03  0.12642123575E+03  0.31066503245E+03  0.18800000000E+03 0.  0.
   -5000001    1    1    2    0    0 -0.61504876667E+02 -0.20347870572E+03  0.48011822496E+01  0.28381945826E+03  0.18800000000E+03 0.  0.
<mgrwt>
<rscale>  0 0.57982108E+03</rscale>
<asrwt>0</asrwt>
<pdfrwt beam="1">  1        2 0.51836208E-01 0.57982108E+03</pdfrwt>
<pdfrwt beam="2">  1       -2 0.33090148E-01 0.57982108E+03</pdfrwt>
<totfact> 0.82538696E+02</totfact>
</mgrwt>
</event>
<event>
 4    1  0.6165923E-005  0.1038941E+04  0.7818608E-02  0.9266837E-01
          2   -1    0    0  501    0  0.00000000000E+00  0.00000000000E+00  0.17251636513E+04  0.17251636513E+04  0.25500000000E-02 0.  1.
         -2   -1    0    0    0  501 -0.00000000000E+00 -0.00000000000E+00 -0.15641971813E+03  0.15641971815E+03  0.25500000000E-02 0. -1.
    5000001    1    1    2    0    0 -0.17713258594E+02  0.23993374816E+03  0.23245195409E+02  0.30621283798E+03  0.18800000000E+03 0.  0.
   -5000001    1    1    2    0    0  0.17713258594E+02 -0.23993374816E+03  0.15454987378E+04  0.15753705315E+04  0.18800000000E+03 0.  0.
<mgrwt>
<rscale>  0 0.10389410E+04</rscale>
<asrwt>0</asrwt>
<pdfrwt beam="1">  1        2 0.24645193E+00 0.10389410E+04</pdfrwt>
<pdfrwt beam="2">  1       -2 0.22345676E-01 0.10389410E+04</pdfrwt>
<totfact> 0.19449535E+02</totfact>
</mgrwt>
</event>
<event>
 4    1  0.6165923E-005  0.5785997E+03  0.7818608E-02  0.9950827E-01
         -2   -1    0    0    0  501 -0.00000000000E+00  0.00000000000E+00  0.77036323427E+02  0.77036323470E+02  0.25500000000E-02 0. -1.
          2   -1    0    0  501    0  0.00000000000E+00 -0.00000000000E+00 -0.10864276121E+04  0.10864276121E+04  0.25500000000E-02 0.  1.
    5000001    1    1    2    0    0  0.15741945925E+03  0.13718840124E+03 -0.36612578631E+03  0.46151233460E+03  0.18800000000E+03 0.  0.
   -5000001    1    1    2    0    0 -0.15741945925E+03 -0.13718840124E+03 -0.64326550241E+03  0.70195160102E+03  0.18800000000E+03 0.  0.
<mgrwt>
<rscale>  0 0.57859965E+03</rscale>
<asrwt>0</asrwt>
<pdfrwt beam="1">  1        2 0.15520393E+00 0.57859965E+03</pdfrwt>
<pdfrwt beam="2">  1       -2 0.11005190E-01 0.57859965E+03</pdfrwt>
<totfact> 0.14693571E+03</totfact>
</mgrwt>
</event>
<event>
 4    1  0.6165923E-005  0.5071095E+03  0.7818608E-02  0.1011940E+00
          2   -1    0    0  501    0  0.00000000000E+00  0.00000000000E+00  0.42853807407E+03  0.42853807407E+03  0.25500000000E-02 0.  1.
         -2   -1    0    0    0  501 -0.00000000000E+00 -0.00000000000E+00 -0.15002170331E+03  0.15002170334E+03  0.25500000000E-02 0. -1.
    5000001    1    1    2    0    0 -0.12959037837E+03 -0.70226090616E+02  0.23620518904E+03  0.33594978984E+03  0.18800000000E+03 0.  0.
   -5000001    1    1    2    0    0  0.12959037837E+03  0.70226090616E+02  0.42311181716E+02  0.24260998757E+03  0.18800000000E+03 0.  0.
<mgrwt>
<rscale>  0 0.50710950E+03</rscale>
<asrwt>0</asrwt>
<pdfrwt beam="1">  1        2 0.61219726E-01 0.50710950E+03</pdfrwt>
<pdfrwt beam="2">  1       -2 0.21431671E-01 0.50710950E+03</pdfrwt>
<totfact> 0.15074449E+03</totfact>
</mgrwt>
</event>
<event>
 4    1  0.6165923E-005  0.7741746E+03  0.7818608E-02  0.9598169E-01
          2   -1    0    0  501    0  0.00000000000E+00  0.00000000000E+00  0.17869179888E+04  0.17869179888E+04  0.25500000000E-02 0.  1.
         -2   -1    0    0    0  501 -0.00000000000E+00 -0.00000000000E+00 -0.83851967335E+02  0.83851967373E+02  0.25500000000E-02 0. -1.
    5000001    1    1    2    0    0  0.12212767540E+03  0.30346197433E+02  0.16105375376E+04  0.16263490464E+04  0.18800000000E+03 0.  0.
   -5000001    1    1    2    0    0 -0.12212767540E+03 -0.30346197433E+02  0.92528483876E+02  0.24442090976E+03  0.18800000000E+03 0.  0.
<mgrwt>
<rscale>  0 0.77417463E+03</rscale>
<asrwt>0</asrwt>
<pdfrwt beam="1">  1        2 0.25527401E+00 0.77417463E+03</pdfrwt>
<pdfrwt beam="2">  1       -2 0.11978852E-01 0.77417463E+03</pdfrwt>
<totfact> 0.53489853E+02</totfact>
</mgrwt>
</event>
<event>
 4    1  0.6165923E-005  0.9791091E+03  0.7818608E-02  0.9331759E-01
          2   -1    0    0  501    0  0.00000000000E+00  0.00000000000E+00  0.10567602613E+04  0.10567602613E+04  0.25500000000E-02 0.  1.
         -2   -1    0    0    0  501 -0.00000000000E+00 -0.00000000000E+00 -0.22679093999E+03  0.22679094000E+03  0.25500000000E-02 0. -1.
    5000001    1    1    2    0    0  0.20307492146E+03  0.39996477278E+03  0.48807353124E+03  0.68903629447E+03  0.18800000000E+03 0.  0.
   -5000001    1    1    2    0    0 -0.20307492146E+03 -0.39996477278E+03  0.34189579009E+03  0.59451490686E+03  0.18800000000E+03 0.  0.
<mgrwt>
<rscale>  0 0.97910909E+03</rscale>
<asrwt>0</asrwt>
<pdfrwt beam="1">  1        2 0.15096575E+00 0.97910909E+03</pdfrwt>
<pdfrwt beam="2">  1       -2 0.32398706E-01 0.97910909E+03</pdfrwt>
<totfact> 0.22934226E+02</totfact>
</mgrwt>
</event>
<event>
 4    1  0.6165923E-005  0.5071936E+03  0.7818608E-02  0.1011918E+00
          2   -1    0    0  501    0  0.00000000000E+00  0.00000000000E+00  0.11316661181E+04  0.11316661181E+04  0.25500000000E-02 0.  1.
         -2   -1    0    0    0  501 -0.00000000000E+00 -0.00000000000E+00 -0.56828892461E+02  0.56828892518E+02  0.25500000000E-02 0. -1.
    5000001    1    1    2    0    0  0.14311129493E+03 -0.26379070532E+02  0.74424693892E+03  0.78129648930E+03  0.18800000000E+03 0.  0.
   -5000001    1    1    2    0    0 -0.14311129493E+03  0.26379070532E+02  0.33059028675E+03  0.40719852135E+03  0.18800000000E+03 0.  0.
<mgrwt>
<rscale>  0 0.50719358E+03</rscale>
<asrwt>0</asrwt>
<pdfrwt beam="1">  1        2 0.16166658E+00 0.50719358E+03</pdfrwt>
<pdfrwt beam="2">  1       -2 0.81184136E-02 0.50719358E+03</pdfrwt>
<totfact> 0.22605161E+03</totfact>
</mgrwt>
</event>
<event>
 4    1  0.6165923E-005  0.6512064E+03  0.7818608E-02  0.9804518E-01
         -2   -1    0    0    0  501 -0.00000000000E+00  0.00000000000E+00  0.23104998880E+03  0.23104998882E+03  0.25500000000E-02 0. -1.
          2   -1    0    0  501    0  0.00000000000E+00 -0.00000000000E+00 -0.45885068600E+03  0.45885068601E+03  0.25500000000E-02 0.  1.
    5000001    1    1    2    0    0 -0.24476631777E+03 -0.92590809190E+02 -0.64324077208E+02  0.32858057638E+03  0.18800000000E+03 0.  0.
   -5000001    1    1    2    0    0  0.24476631777E+03  0.92590809190E+02 -0.16347661999E+03  0.36132009845E+03  0.18800000000E+03 0.  0.
<mgrwt>
<rscale>  0 0.65120641E+03</rscale>
<asrwt>0</asrwt>
<pdfrwt beam="1">  1        2 0.65550098E-01 0.65120641E+03</pdfrwt>
<pdfrwt beam="2">  1       -2 0.33007141E-01 0.65120641E+03</pdfrwt>
<totfact> 0.63763525E+02</totfact>
</mgrwt>
</event>
<event>
 4    1  0.6165923E-005  0.1021541E+04  0.7818608E-02  0.9285230E-01
         -2   -1    0    0    0  501 -0.00000000000E+00  0.00000000000E+00  0.64631730440E+03  0.64631730440E+03  0.25500000000E-02 0. -1.
          2   -1    0    0  501    0  0.00000000000E+00 -0.00000000000E+00 -0.40365057606E+03  0.40365057606E+03  0.25500000000E-02 0.  1.
    5000001    1    1    2    0    0 -0.45475299658E+03  0.40455026621E+02  0.25576071974E+03  0.55605255403E+03  0.18800000000E+03 0.  0.
   -5000001    1    1    2    0    0  0.45475299658E+03 -0.40455026621E+02 -0.13093991401E+02  0.49391532644E+03  0.18800000000E+03 0.  0.
<mgrwt>
<rscale>  0 0.10215407E+04</rscale>
<asrwt>0</asrwt>
<pdfrwt beam="1">  1        2 0.57664368E-01 0.10215407E+04</pdfrwt>
<pdfrwt beam="2">  1       -2 0.92331043E-01 0.10215407E+04</pdfrwt>
<totfact> 0.85103342E+01</totfact>
</mgrwt>
</event>
<event>
 4    1  0.6165923E-005  0.9196356E+03  0.7818608E-02  0.9401363E-01
         -2   -1    0    0    0  501 -0.00000000000E+00  0.00000000000E+00  0.16833182161E+03  0.16833182163E+03  0.25500000000E-02 0. -1.
          2   -1    0    0  501    0  0.00000000000E+00 -0.00000000000E+00 -0.12560454501E+04  0.12560454501E+04  0.25500000000E-02 0.  1.
    5000001    1    1    2    0    0  0.38983542049E+03 -0.14188599346E+03 -0.44608123158E+03  0.63752314105E+03  0.18800000000E+03 0.  0.
   -5000001    1    1    2    0    0 -0.38983542049E+03  0.14188599346E+03 -0.64163239689E+03  0.78685413067E+03  0.18800000000E+03 0.  0.
<mgrwt>
<rscale>  0 0.91963562E+03</rscale>
<asrwt>0</asrwt>
<pdfrwt beam="1">  1        2 0.17943506E+00 0.91963562E+03</pdfrwt>
<pdfrwt beam="2">  1       -2 0.24047404E-01 0.91963562E+03</pdfrwt>
<totfact> 0.30528832E+02</totfact>
</mgrwt>
</event>
<event>
 4    1  0.6165923E-005  0.1109012E+04  0.7818608E-02  0.9196452E-01
          2   -1    0    0  501    0  0.00000000000E+00  0.00000000000E+00  0.14385405083E+03  0.14385405086E+03  0.25500000000E-02 0.  1.
         -2   -1    0    0    0  501 -0.00000000000E+00 -0.00000000000E+00 -0.21374231250E+04  0.21374231250E+04  0.25500000000E-02 0. -1.
    5000001    1    1    2    0    0 -0.40428695568E+03 -0.32840515666E+03 -0.93734064746E+03  0.10886915903E+04  0.18800000000E+03 0.  0.
   -5000001    1    1    2    0    0  0.40428695568E+03  0.32840515666E+03 -0.10562284267E+04  0.11925855856E+04  0.18800000000E+03 0.  0.
<mgrwt>
<rscale>  0 0.11090121E+04</rscale>
<asrwt>0</asrwt>
<pdfrwt beam="1">  1        2 0.20550580E-01 0.11090121E+04</pdfrwt>
<pdfrwt beam="2">  1       -2 0.30534614E+00 0.11090121E+04</pdfrwt>
<totfact> 0.81665896E+00</totfact>
</mgrwt>
</event>
<event>
 4    1  0.6165923E-005  0.4274497E+03  0.7818608E-02  0.1034669E+00
         -2   -1    0    0    0  501 -0.00000000000E+00  0.00000000000E+00  0.13695299434E+03  0.13695299436E+03  0.25500000000E-02 0. -1.
          2   -1    0    0  501    0  0.00000000000E+00 -0.00000000000E+00 -0.33353276579E+03  0.33353276580E+03  0.25500000000E-02 0.  1.
    5000001    1    1    2    0    0 -0.87574711534E+02  0.46750896753E+01 -0.41702416203E+02  0.21159933384E+03  0.18800000000E+03 0.  0.
   -5000001    1    1    2    0    0  0.87574711534E+02 -0.46750896753E+01 -0.15487735525E+03  0.25888642632E+03  0.18800000000E+03 0.  0.
<mgrwt>
<rscale>  0 0.42744970E+03</rscale>
<asrwt>0</asrwt>
<pdfrwt beam="1">  1        2 0.47647538E-01 0.42744970E+03</pdfrwt>
<pdfrwt beam="2">  1       -2 0.19564714E-01 0.42744970E+03</pdfrwt>
<totfact> 0.23238614E+03</totfact>
</mgrwt>
</event>
<event>
 4    1  0.6165923E-005  0.7857998E+03  0.7818608E-02  0.9580802E-01
          2   -1    0    0  501    0  0.00000000000E+00  0.00000000000E+00  0.12883920986E+04  0.12883920986E+04  0.25500000000E-02 0.  1.
         -2   -1    0    0    0  501 -0.00000000000E+00 -0.00000000000E+00 -0.11981627743E+03  0.11981627746E+03  0.25500000000E-02 0. -1.
    5000001    1    1    2    0    0 -0.13837827523E+03 -0.21391786560E+03  0.10011780522E+04  0.10500528046E+04  0.18800000000E+03 0.  0.
   -5000001    1    1    2    0    0  0.13837827523E+03  0.21391786560E+03  0.16739776891E+03  0.35815557139E+03  0.18800000000E+03 0.  0.
<mgrwt>
<rscale>  0 0.78579983E+03</rscale>
<asrwt>0</asrwt>
<pdfrwt beam="1">  1        2 0.18405600E+00 0.78579983E+03</pdfrwt>
<pdfrwt beam="2">  1       -2 0.17116613E-01 0.78579983E+03</pdfrwt>
<totfact> 0.53561702E+02</totfact>
</mgrwt>
</event>
<event>
 4    1  0.6165923E-005  0.5417190E+03  0.7818608E-02  0.1003429E+00
         -2   -1    0    0    0  501 -0.00000000000E+00  0.00000000000E+00  0.24832628512E+02  0.24832628643E+02  0.25500000000E-02 0. -1.
          2   -1    0    0  501    0  0.00000000000E+00 -0.00000000000E+00 -0.29543734873E+04  0.29543734873E+04  0.25500000000E-02 0.  1.
    5000001    1    1    2    0    0  0.14346821901E+02 -0.17356514057E+03 -0.98249572299E+03  0.10153681771E+04  0.18800000000E+03 0.  0.
   -5000001    1    1    2    0    0 -0.14346821901E+02  0.17356514057E+03 -0.19470451358E+04  0.19638379389E+04  0.18800000000E+03 0.  0.
<mgrwt>
<rscale>  0 0.54171897E+03</rscale>
<asrwt>0</asrwt>
<pdfrwt beam="1">  1        2 0.42205313E+00 0.54171897E+03</pdfrwt>
<pdfrwt beam="2">  1       -2 0.35475202E-02 0.54171897E+03</pdfrwt>
<totfact> 0.93431515E+02</totfact>
</mgrwt>
</event>
<event>
 4    1  0.6165923E-005  0.4118216E+03  0.7818608E-02  0.1039761E+00
          2   -1    0    0  501    0  0.00000000000E+00  0.00000000000E+00  0.25816286897E+04  0.25816286897E+04  0.25500000000E-02 0.  1.
         -2   -1    0    0    0  501 -0.00000000000E+00 -0.00000000000E+00 -0.16423449983E+02  0.16423450181E+02  0.25500000000E-02 0. -1.
    5000001    1    1    2    0    0 -0.23345940455E+02 -0.80495955564E+02  0.12476943721E+04  0.12645591635E+04  0.18800000000E+03 0.  0.
   -5000001    1    1    2    0    0  0.23345940455E+02  0.80495955564E+02  0.13175108676E+04  0.13334929764E+04  0.18800000000E+03 0.  0.
<mgrwt>
<rscale>  0 0.41182156E+03</rscale>
<asrwt>0</asrwt>
<pdfrwt beam="1">  1        2 0.36880399E+00 0.41182156E+03</pdfrwt>
<pdfrwt beam="2">  1       -2 0.23462078E-02 0.41182156E+03</pdfrwt>
<totfact> 0.27614497E+03</totfact>
</mgrwt>
</event>
<event>
 4    1  0.6165923E-005  0.4513425E+03  0.7818608E-02  0.1027322E+00
         -2   -1    0    0    0  501 -0.00000000000E+00  0.00000000000E+00  0.20904931298E+02  0.20904931454E+02  0.25500000000E-02 0. -1.
          2   -1    0    0  501    0  0.00000000000E+00 -0.00000000000E+00 -0.24361484702E+04  0.24361484702E+04  0.25500000000E-02 0.  1.
    5000001    1    1    2    0    0 -0.95554327814E+02 -0.80312822446E+02 -0.12166290114E+04  0.12373806732E+04  0.18800000000E+03 0.  0.
   -5000001    1    1    2    0    0  0.95554327814E+02  0.80312822446E+02 -0.11986145275E+04  0.12196727284E+04  0.18800000000E+03 0.  0.
<mgrwt>
<rscale>  0 0.45134252E+03</rscale>
<asrwt>0</asrwt>
<pdfrwt beam="1">  1        2 0.34802103E+00 0.45134252E+03</pdfrwt>
<pdfrwt beam="2">  1       -2 0.29864203E-02 0.45134252E+03</pdfrwt>
<totfact> 0.22734961E+03</totfact>
</mgrwt>
</event>
<event>
 4    1  0.6165923E-005  0.4280258E+03  0.7818608E-02  0.1034485E+00
          2   -1    0    0  501    0  0.00000000000E+00  0.00000000000E+00  0.67973979770E+03  0.67973979770E+03  0.25500000000E-02 0.  1.
         -2   -1    0    0    0  501 -0.00000000000E+00 -0.00000000000E+00 -0.67380965280E+02  0.67380965328E+02  0.25500000000E-02 0. -1.
    5000001    1    1    2    0    0 -0.99076382558E+02 -0.24250864794E+02  0.31892155997E+03  0.38400416070E+03  0.18800000000E+03 0.  0.
   -5000001    1    1    2    0    0  0.99076382558E+02  0.24250864794E+02  0.29343727245E+03  0.36311660233E+03  0.18800000000E+03 0.  0.
<mgrwt>
<rscale>  0 0.42802581E+03</rscale>
<asrwt>0</asrwt>
<pdfrwt beam="1">  1        2 0.97105689E-01 0.42802581E+03</pdfrwt>
<pdfrwt beam="2">  1       -2 0.96258518E-02 0.42802581E+03</pdfrwt>
<totfact> 0.33757016E+03</totfact>
</mgrwt>
</event>
<event>
 4    1  0.6165923E-005  0.5990304E+03  0.7818608E-02  0.9907420E-01
          2   -1    0    0  501    0  0.00000000000E+00  0.00000000000E+00  0.12374295225E+04  0.12374295225E+04  0.25500000000E-02 0.  1.
         -2   -1    0    0    0  501 -0.00000000000E+00 -0.00000000000E+00 -0.72496545825E+02  0.72496545870E+02  0.25500000000E-02 0. -1.
    5000001    1    1    2    0    0  0.16011554444E+03 -0.42084900942E+02  0.94150051107E+03  0.97425630037E+03  0.18800000000E+03 0.  0.
   -5000001    1    1    2    0    0 -0.16011554444E+03  0.42084900942E+02  0.22343246557E+03  0.33566976797E+03  0.18800000000E+03 0.  0.
<mgrwt>
<rscale>  0 0.59903044E+03</rscale>
<asrwt>0</asrwt>
<pdfrwt beam="1">  1        2 0.17677565E+00 0.59903044E+03</pdfrwt>
<pdfrwt beam="2">  1       -2 0.10356649E-01 0.59903044E+03</pdfrwt>
<totfact> 0.13307994E+03</totfact>
</mgrwt>
</event>
<event>
 4    1  0.6165923E-005  0.4430063E+03  0.7818608E-02  0.1029828E+00
          2   -1    0    0  501    0  0.00000000000E+00  0.00000000000E+00  0.90655685661E+03  0.90655685662E+03  0.25500000000E-02 0.  1.
         -2   -1    0    0    0  501 -0.00000000000E+00 -0.00000000000E+00 -0.54120860757E+02  0.54120860817E+02  0.25500000000E-02 0. -1.
    5000001    1    1    2    0    0  0.11204328770E+03 -0.20546611960E+02  0.36707696733E+03  0.42786138120E+03  0.18800000000E+03 0.  0.
   -5000001    1    1    2    0    0 -0.11204328770E+03  0.20546611960E+02  0.48535902853E+03  0.53281633623E+03  0.18800000000E+03 0.  0.
<mgrwt>
<rscale>  0 0.44300626E+03</rscale>
<asrwt>0</asrwt>
<pdfrwt beam="1">  1        2 0.12950812E+00 0.44300626E+03</pdfrwt>
<pdfrwt beam="2">  1       -2 0.77315519E-02 0.44300626E+03</pdfrwt>
<totfact> 0.33320028E+03</totfact>
</mgrwt>
</event>
<event>
 4    1  0.6165923E-005  0.6409617E+03  0.7818608E-02  0.9823888E-01
         -2   -1    0    0    0  501 -0.00000000000E+00  0.00000000000E+00  0.36450971709E+02  0.36450971798E+02  0.25500000000E-02 0. -1.
          2   -1    0    0  501    0  0.00000000000E+00 -0.00000000000E+00 -0.28177023793E+04  0.28177023793E+04  0.25500000000E-02 0.  1.
    5000001    1    1    2    0    0  0.72422257513E+02 -0.23559765947E+03 -0.17527321220E+04  0.17799340246E+04  0.18800000000E+03 0.  0.
   -5000001    1    1    2    0    0 -0.72422257513E+02  0.23559765947E+03 -0.10285192855E+04  0.10742193264E+04  0.18800000000E+03 0.  0.
<mgrwt>
<rscale>  0 0.64096175E+03</rscale>
<asrwt>0</asrwt>
<pdfrwt beam="1">  1        2 0.40252877E+00 0.64096175E+03</pdfrwt>
<pdfrwt beam="2">  1       -2 0.52072835E-02 0.64096175E+03</pdfrwt>
<totfact> 0.60669008E+02</totfact>
</mgrwt>
</event>
<event>
 4    1  0.6165923E-005  0.5528862E+03  0.7818608E-02  0.1000828E+00
          2   -1    0    0  501    0  0.00000000000E+00  0.00000000000E+00  0.12232789231E+04  0.12232789231E+04  0.25500000000E-02 0.  1.
         -2   -1    0    0    0  501 -0.00000000000E+00 -0.00000000000E+00 -0.62472093137E+02  0.62472093189E+02  0.25500000000E-02 0. -1.
    5000001    1    1    2    0    0 -0.32490221722E+02 -0.19559300451E+03  0.67809090304E+03  0.73107011340E+03  0.18800000000E+03 0.  0.
   -5000001    1    1    2    0    0  0.32490221722E+02  0.19559300451E+03  0.48271592688E+03  0.55468090285E+03  0.18800000000E+03 0.  0.
<mgrwt>
<rscale>  0 0.55288623E+03</rscale>
<asrwt>0</asrwt>
<pdfrwt beam="1">  1        2 0.17475414E+00 0.55288623E+03</pdfrwt>
<pdfrwt beam="2">  1       -2 0.89245846E-02 0.55288623E+03</pdfrwt>
<totfact> 0.17249330E+03</totfact>
</mgrwt>
</event>
<event>
 4    1  0.6165923E-005  0.7672977E+03  0.7818608E-02  0.9608597E-01
         -2   -1    0    0    0  501 -0.00000000000E+00  0.00000000000E+00  0.42253118244E+03  0.42253118245E+03  0.25500000000E-02 0. -1.
          2   -1    0    0  501    0  0.00000000000E+00 -0.00000000000E+00 -0.34834453750E+03  0.34834453751E+03  0.25500000000E-02 0.  1.
    5000001    1    1    2    0    0 -0.17927346278E+03 -0.23956349819E+03 -0.11297788573E+03  0.37099548081E+03  0.18800000000E+03 0.  0.
   -5000001    1    1    2    0    0  0.17927346278E+03  0.23956349819E+03  0.18716453067E+03  0.39988023915E+03  0.18800000000E+03 0.  0.
<mgrwt>
<rscale>  0 0.76729767E+03</rscale>
<asrwt>0</asrwt>
<pdfrwt beam="1">  1        2 0.49763505E-01 0.76729767E+03</pdfrwt>
<pdfrwt beam="2">  1       -2 0.60361597E-01 0.76729767E+03</pdfrwt>
<totfact> 0.26019591E+02</totfact>
</mgrwt>
</event>
<event>
 4    1  0.6165923E-005  0.6097275E+03  0.7818608E-02  0.9885428E-01
          2   -1    0    0  501    0  0.00000000000E+00  0.00000000000E+00  0.29842880312E+04  0.29842880312E+04  0.25500000000E-02 0.  1.
         -2   -1    0    0    0  501 -0.00000000000E+00 -0.00000000000E+00 -0.31143743600E+02  0.31143743704E+02  0.25500000000E-02 0. -1.
    5000001    1    1    2    0    0 -0.16678517655E+03  0.14591599332E+03  0.10209075266E+04  0.10614635887E+04  0.18800000000E+03 0.  0.
   -5000001    1    1    2    0    0  0.16678517655E+03 -0.14591599332E+03  0.19322367610E+04  0.19539681863E+04  0.18800000000E+03 0.  0.
<mgrwt>
<rscale>  0 0.60972748E+03</rscale>
<asrwt>0</asrwt>
<pdfrwt beam="1">  1        2 0.42632693E+00 0.60972748E+03</pdfrwt>
<pdfrwt beam="2">  1       -2 0.44491055E-02 0.60972748E+03</pdfrwt>
<totfact> 0.63187564E+02</totfact>
</mgrwt>
</event>
<event>
 4    1  0.6165923E-005  0.8019521E+03  0.7818608E-02  0.9557196E-01
          2   -1    0    0  501    0  0.00000000000E+00  0.00000000000E+00  0.27690346760E+04  0.27690346760E+04  0.25500000000E-02 0.  1.
         -2   -1    0    0    0  501 -0.00000000000E+00 -0.00000000000E+00 -0.58064200192E+02  0.58064200248E+02  0.25500000000E-02 0. -1.
    5000001    1    1    2    0    0 -0.30735126606E+03 -0.17594025102E+03  0.13704463392E+04  0.14278959840E+04  0.18800000000E+03 0.  0.
   -5000001    1    1    2    0    0  0.30735126606E+03  0.17594025102E+03  0.13405241367E+04  0.13992028922E+04  0.18800000000E+03 0.  0.
<mgrwt>
<rscale>  0 0.80195208E+03</rscale>
<asrwt>0</asrwt>
<pdfrwt beam="1">  1        2 0.39557645E+00 0.80195208E+03</pdfrwt>
<pdfrwt beam="2">  1       -2 0.82948844E-02 0.80195208E+03</pdfrwt>
<totfact> 0.30416061E+02</totfact>
</mgrwt>
</event>
<event>
 4    1  0.6165923E-005  0.5000536E+03  0.7818608E-02  0.1013765E+00
         -2   -1    0    0    0  501 -0.00000000000E+00  0.00000000000E+00  0.20372313999E+03  0.20372314001E+03  0.25500000000E-02 0. -1.
          2   -1    0    0  501    0  0.00000000000E+00 -0.00000000000E+00 -0.30685463310E+03  0.30685463311E+03  0.25500000000E-02 0.  1.
    5000001    1    1    2    0    0  0.74079956436E+02  0.14172096885E+03 -0.92365663837E+02  0.26353005296E+03  0.18800000000E+03 0.  0.
   -5000001    1    1    2    0    0 -0.74079956436E+02 -0.14172096885E+03 -0.10765829274E+02  0.24704772016E+03  0.18800000000E+03 0.  0.
<mgrwt>
<rscale>  0 0.50005355E+03</rscale>
<asrwt>0</asrwt>
<pdfrwt beam="1">  1        2 0.43836376E-01 0.50005355E+03</pdfrwt>
<pdfrwt beam="2">  1       -2 0.29103306E-01 0.50005355E+03</pdfrwt>
<totfact> 0.12596738E+03</totfact>
</mgrwt>
</event>
<event>
 4    1  0.6165923E-005  0.5745940E+03  0.7818608E-02  0.9959564E-01
         -2   -1    0    0    0  501 -0.00000000000E+00  0.00000000000E+00  0.66273495342E+02  0.66273495391E+02  0.25500000000E-02 0. -1.
          2   -1    0    0  501    0  0.00000000000E+00 -0.00000000000E+00 -0.12454385029E+04  0.12454385029E+04  0.25500000000E-02 0.  1.
    5000001    1    1    2    0    0 -0.62686542509E+02 -0.16586145398E+03 -0.87613193408E+03  0.91344993866E+03  0.18800000000E+03 0.  0.
   -5000001    1    1    2    0    0  0.62686542509E+02  0.16586145398E+03 -0.30303307352E+03  0.39826205967E+03  0.18800000000E+03 0.  0.
<mgrwt>
<rscale>  0 0.57459399E+03</rscale>
<asrwt>0</asrwt>
<pdfrwt beam="1">  1        2 0.17791977E+00 0.57459399E+03</pdfrwt>
<pdfrwt beam="2">  1       -2 0.94676430E-02 0.57459399E+03</pdfrwt>
<totfact> 0.15242534E+03</totfact>
</mgrwt>
</event>
<event>
 4    1  0.6165923E-005  0.5143720E+03  0.7818608E-02  0.1010094E+00
         -2   -1    0    0    0  501 -0.00000000000E+00  0.00000000000E+00  0.62123824769E+02  0.62123824822E+02  0.25500000000E-02 0. -1.
          2   -1    0    0  501    0  0.00000000000E+00 -0.00000000000E+00 -0.10647226996E+04  0.10647226996E+04  0.25500000000E-02 0.  1.
    5000001    1    1    2    0    0  0.10161770106E+03 -0.12277306961E+03 -0.34029602800E+03  0.42017231045E+03  0.18800000000E+03 0.  0.
   -5000001    1    1    2    0    0 -0.10161770106E+03  0.12277306961E+03 -0.66230284686E+03  0.70667421401E+03  0.18800000000E+03 0.  0.
<mgrwt>
<rscale>  0 0.51437203E+03</rscale>
<asrwt>0</asrwt>
<pdfrwt beam="1">  1        2 0.15210323E+00 0.51437203E+03</pdfrwt>
<pdfrwt beam="2">  1       -2 0.88748328E-02 0.51437203E+03</pdfrwt>
<totfact> 0.21440624E+03</totfact>
</mgrwt>
</event>
<event>
 4    1  0.6165923E-005  0.6444589E+03  0.7818608E-02  0.9817233E-01
         -2   -1    0    0    0  501 -0.00000000000E+00  0.00000000000E+00  0.23013460577E+03  0.23013460578E+03  0.25500000000E-02 0. -1.
          2   -1    0    0  501    0  0.00000000000E+00 -0.00000000000E+00 -0.45117860770E+03  0.45117860770E+03  0.25500000000E-02 0.  1.
    5000001    1    1    2    0    0  0.61084607093E+02 -0.25005992550E+03 -0.16040636716E+03  0.35684099848E+03  0.18800000000E+03 0.  0.
   -5000001    1    1    2    0    0 -0.61084607093E+02  0.25005992550E+03 -0.60637634764E+02  0.32447221501E+03  0.18800000000E+03 0.  0.
<mgrwt>
<rscale>  0 0.64445888E+03</rscale>
<asrwt>0</asrwt>
<pdfrwt beam="1">  1        2 0.64454087E-01 0.64445888E+03</pdfrwt>
<pdfrwt beam="2">  1       -2 0.32876372E-01 0.64445888E+03</pdfrwt>
<totfact> 0.65481435E+02</totfact>
</mgrwt>
</event>
<event>
 4    1  0.6165923E-005  0.5579492E+03  0.7818608E-02  0.9996706E-01
         -2   -1    0    0    0  501 -0.00000000000E+00  0.00000000000E+00  0.37673883773E+02  0.37673883859E+02  0.25500000000E-02 0. -1.
          2   -1    0    0  501    0  0.00000000000E+00 -0.00000000000E+00 -0.20658029977E+04  0.20658029977E+04  0.25500000000E-02 0.  1.
    5000001    1    1    2    0    0  0.18134569366E+02 -0.19126560182E+03 -0.12954660531E+04  0.13230599713E+04  0.18800000000E+03 0.  0.
   -5000001    1    1    2    0    0 -0.18134569366E+02  0.19126560182E+03 -0.73266306084E+03  0.78041691023E+03  0.18800000000E+03 0.  0.
<mgrwt>
<rscale>  0 0.55794918E+03</rscale>
<asrwt>0</asrwt>
<pdfrwt beam="1">  1        2 0.29511464E+00 0.55794918E+03</pdfrwt>
<pdfrwt beam="2">  1       -2 0.53819847E-02 0.55794918E+03</pdfrwt>
<totfact> 0.14082090E+03</totfact>
</mgrwt>
</event>
<event>
 4    1  0.6165923E-005  0.5897080E+03  0.7818608E-02  0.9926992E-01
          2   -1    0    0  501    0  0.00000000000E+00  0.00000000000E+00  0.30073050209E+03  0.30073050210E+03  0.25500000000E-02 0.  1.
         -2   -1    0    0    0  501 -0.00000000000E+00 -0.00000000000E+00 -0.28909236545E+03  0.28909236546E+03  0.25500000000E-02 0. -1.
    5000001    1    1    2    0    0 -0.12762387507E+01 -0.12306181149E+03  0.19677259778E+03  0.29867924848E+03  0.18800000000E+03 0.  0.
   -5000001    1    1    2    0    0  0.12762387507E+01  0.12306181149E+03 -0.18513446115E+03  0.29114361909E+03  0.18800000000E+03 0.  0.
<mgrwt>
<rscale>  0 0.58970804E+03</rscale>
<asrwt>0</asrwt>
<pdfrwt beam="1">  1        2 0.42961501E-01 0.58970804E+03</pdfrwt>
<pdfrwt beam="2">  1       -2 0.41298909E-01 0.58970804E+03</pdfrwt>
<totfact> 0.66450162E+02</totfact>
</mgrwt>
</event>
<event>
 4    1  0.6165923E-005  0.1005189E+04  0.7818608E-02  0.9302871E-01
         -2   -1    0    0    0  501 -0.00000000000E+00  0.00000000000E+00  0.35956086358E+03  0.35956086359E+03  0.25500000000E-02 0. -1.
          2   -1    0    0  501    0  0.00000000000E+00 -0.00000000000E+00 -0.70252760236E+03  0.70252760237E+03  0.25500000000E-02 0.  1.
    5000001    1    1    2    0    0 -0.20062295667E+03 -0.37304827101E+03  0.34060581827E+02  0.46467053541E+03  0.18800000000E+03 0.  0.
   -5000001    1    1    2    0    0  0.20062295667E+03  0.37304827101E+03 -0.37702732061E+03  0.59741793054E+03  0.18800000000E+03 0.  0.
<mgrwt>
<rscale>  0 0.10051894E+04</rscale>
<asrwt>0</asrwt>
<pdfrwt beam="1">  1        2 0.10036109E+00 0.10051894E+04</pdfrwt>
<pdfrwt beam="2">  1       -2 0.51365838E-01 0.10051894E+04</pdfrwt>
<totfact> 0.16013686E+02</totfact>
</mgrwt>
</event>
<event>
 4    1  0.6165923E-005  0.6109499E+03  0.7818608E-02  0.9882945E-01
         -2   -1    0    0    0  501 -0.00000000000E+00  0.00000000000E+00  0.23433503447E+03  0.23433503448E+03  0.25500000000E-02 0. -1.
          2   -1    0    0  501    0  0.00000000000E+00 -0.00000000000E+00 -0.39821162489E+03  0.39821162490E+03  0.25500000000E-02 0.  1.
    5000001    1    1    2    0    0  0.60544420306E+02  0.16455335087E+03  0.88902229815E+02  0.27201293825E+03  0.18800000000E+03 0.  0.
   -5000001    1    1    2    0    0 -0.60544420306E+02 -0.16455335087E+03 -0.25277882024E+03  0.36053372113E+03  0.18800000000E+03 0.  0.
<mgrwt>
<rscale>  0 0.61094987E+03</rscale>
<asrwt>0</asrwt>
<pdfrwt beam="1">  1        2 0.56887375E-01 0.61094987E+03</pdfrwt>
<pdfrwt beam="2">  1       -2 0.33476434E-01 0.61094987E+03</pdfrwt>
<totfact> 0.72816962E+02</totfact>
</mgrwt>
</event>
<event>
 4    1  0.6165923E-005  0.1001432E+04  0.7818608E-02  0.9306975E-01
         -2   -1    0    0    0  501 -0.00000000000E+00  0.00000000000E+00  0.14631128389E+03  0.14631128392E+03  0.25500000000E-02 0. -1.
          2   -1    0    0  501    0  0.00000000000E+00 -0.00000000000E+00 -0.17135839431E+04  0.17135839431E+04  0.25500000000E-02 0.  1.
    5000001    1    1    2    0    0  0.42448193605E+03  0.11047478292E+02 -0.11314191900E+04  0.12230128144E+04  0.18800000000E+03 0.  0.
   -5000001    1    1    2    0    0 -0.42448193605E+03 -0.11047478292E+02 -0.43585346919E+03  0.63688241255E+03  0.18800000000E+03 0.  0.
<mgrwt>
<rscale>  0 0.10014323E+04</rscale>
<asrwt>0</asrwt>
<pdfrwt beam="1">  1        2 0.24479769E+00 0.10014323E+04</pdfrwt>
<pdfrwt beam="2">  1       -2 0.20901613E-01 0.10014323E+04</pdfrwt>
<totfact> 0.22253104E+02</totfact>
</mgrwt>
</event>
<event>
 4    1  0.6165923E-005  0.5686719E+03  0.7818608E-02  0.9972622E-01
         -2   -1    0    0    0  501 -0.00000000000E+00  0.00000000000E+00  0.61795533064E+03  0.61795533065E+03  0.25500000000E-02 0. -1.
          2   -1    0    0  501    0  0.00000000000E+00 -0.00000000000E+00 -0.13082974666E+03  0.13082974668E+03  0.25500000000E-02 0.  1.
    5000001    1    1    2    0    0 -0.12021302664E+03  0.17618952079E+03  0.24751743422E+03  0.37696524940E+03  0.18800000000E+03 0.  0.
   -5000001    1    1    2    0    0  0.12021302664E+03 -0.17618952079E+03  0.23960814977E+03  0.37181982793E+03  0.18800000000E+03 0.  0.
<mgrwt>
<rscale>  0 0.56867192E+03</rscale>
<asrwt>0</asrwt>
<pdfrwt beam="1">  1        2 0.18689964E-01 0.56867192E+03</pdfrwt>
<pdfrwt beam="2">  1       -2 0.88279333E-01 0.56867192E+03</pdfrwt>
<totfact> 0.34376048E+02</totfact>
</mgrwt>
</event>
<event>
 4    1  0.6165923E-005  0.8040372E+03  0.7818608E-02  0.9554192E-01
          2   -1    0    0  501    0  0.00000000000E+00  0.00000000000E+00  0.36955910298E+03  0.36955910299E+03  0.25500000000E-02 0.  1.
         -2   -1    0    0    0  501 -0.00000000000E+00 -0.00000000000E+00 -0.43732913297E+03  0.43732913297E+03  0.25500000000E-02 0. -1.
    5000001    1    1    2    0    0  0.27562555136E+03  0.15548806881E+03 -0.19610279095E+03  0.41706868586E+03  0.18800000000E+03 0.  0.
   -5000001    1    1    2    0    0 -0.27562555136E+03 -0.15548806881E+03  0.12833276096E+03  0.38981955010E+03  0.18800000000E+03 0.  0.
<mgrwt>
<rscale>  0 0.80403722E+03</rscale>
<asrwt>0</asrwt>
<pdfrwt beam="1">  1        2 0.52794158E-01 0.80403722E+03</pdfrwt>
<pdfrwt beam="2">  1       -2 0.62475590E-01 0.80403722E+03</pdfrwt>
<totfact> 0.22617765E+02</totfact>
</mgrwt>
</event>
<event>
 4    1  0.6165923E-005  0.7970069E+03  0.7818608E-02  0.9564360E-01
         -2   -1    0    0    0  501 -0.00000000000E+00  0.00000000000E+00  0.49584644777E+02  0.49584644842E+02  0.25500000000E-02 0. -1.
          2   -1    0    0  501    0  0.00000000000E+00 -0.00000000000E+00 -0.32027050969E+04  0.32027050970E+04  0.25500000000E-02 0.  1.
    5000001    1    1    2    0    0 -0.32645946011E+03  0.38962378980E+02 -0.20824126091E+04  0.21165727298E+04  0.18800000000E+03 0.  0.
   -5000001    1    1    2    0    0  0.32645946011E+03 -0.38962378980E+02 -0.10707078430E+04  0.11357170119E+04  0.18800000000E+03 0.  0.
<mgrwt>
<rscale>  0 0.79700689E+03</rscale>
<asrwt>0</asrwt>
<pdfrwt beam="1">  1        2 0.45752917E+00 0.79700689E+03</pdfrwt>
<pdfrwt beam="2">  1       -2 0.70835227E-02 0.79700689E+03</pdfrwt>
<totfact> 0.22657556E+02</totfact>
</mgrwt>
</event>
<event>
 4    1  0.6165923E-005  0.5117071E+03  0.7818608E-02  0.1010768E+00
         -2   -1    0    0    0  501 -0.00000000000E+00  0.00000000000E+00  0.15635434299E+03  0.15635434301E+03  0.25500000000E-02 0. -1.
          2   -1    0    0  501    0  0.00000000000E+00 -0.00000000000E+00 -0.41867114206E+03  0.41867114206E+03  0.25500000000E-02 0.  1.
    5000001    1    1    2    0    0  0.10382422436E+03  0.13092529794E+03 -0.18382028767E+03  0.31153619591E+03  0.18800000000E+03 0.  0.
   -5000001    1    1    2    0    0 -0.10382422436E+03 -0.13092529794E+03 -0.78496511397E+02  0.26348928917E+03  0.18800000000E+03 0.  0.
<mgrwt>
<rscale>  0 0.51170715E+03</rscale>
<asrwt>0</asrwt>
<pdfrwt beam="1">  1        2 0.59810163E-01 0.51170715E+03</pdfrwt>
<pdfrwt beam="2">  1       -2 0.22336335E-01 0.51170715E+03</pdfrwt>
<totfact> 0.14386168E+03</totfact>
</mgrwt>
</event>
<event>
 4    1  0.6165923E-005  0.7242764E+03  0.7818608E-02  0.9676594E-01
          2   -1    0    0  501    0  0.00000000000E+00  0.00000000000E+00  0.19149001603E+04  0.19149001603E+04  0.25500000000E-02 0.  1.
         -2   -1    0    0    0  501 -0.00000000000E+00 -0.00000000000E+00 -0.68486120113E+02  0.68486120161E+02  0.25500000000E-02 0. -1.
    5000001    1    1    2    0    0  0.11119991814E+03  0.27987319167E+03  0.11188790664E+04  0.11738521161E+04  0.18800000000E+03 0.  0.
   -5000001    1    1    2    0    0 -0.11119991814E+03 -0.27987319167E+03  0.72753497381E+03  0.80953416440E+03  0.18800000000E+03 0.  0.
<mgrwt>
<rscale>  0 0.72427642E+03</rscale>
<asrwt>0</asrwt>
<pdfrwt beam="1">  1        2 0.27355718E+00 0.72427642E+03</pdfrwt>
<pdfrwt beam="2">  1       -2 0.97837309E-02 0.72427642E+03</pdfrwt>
<totfact> 0.64359825E+02</totfact>
</mgrwt>
</event>
<event>
 4    1  0.6165923E-005  0.7255375E+03  0.7818608E-02  0.9674530E-01
          2   -1    0    0  501    0  0.00000000000E+00  0.00000000000E+00  0.19017652291E+04  0.19017652291E+04  0.25500000000E-02 0.  1.
         -2   -1    0    0    0  501 -0.00000000000E+00 -0.00000000000E+00 -0.69199473378E+02  0.69199473425E+02  0.25500000000E-02 0. -1.
    5000001    1    1    2    0    0  0.93993583029E+02  0.25830404376E+03  0.13071405586E+04  0.13488944409E+04  0.18800000000E+03 0.  0.
   -5000001    1    1    2    0    0 -0.93993583029E+02 -0.25830404376E+03  0.52542519716E+03  0.62207026170E+03  0.18800000000E+03 0.  0.
<mgrwt>
<rscale>  0 0.72553746E+03</rscale>
<asrwt>0</asrwt>
<pdfrwt beam="1">  1        2 0.27168077E+00 0.72553746E+03</pdfrwt>
<pdfrwt beam="2">  1       -2 0.98856381E-02 0.72553746E+03</pdfrwt>
<totfact> 0.64256597E+02</totfact>
</mgrwt>
</event>
<event>
 4    1  0.6165923E-005  0.5535398E+03  0.7818608E-02  0.1000678E+00
         -2   -1    0    0    0  501 -0.00000000000E+00  0.00000000000E+00  0.44865927947E+02  0.44865928019E+02  0.25500000000E-02 0. -1.
          2   -1    0    0  501    0  0.00000000000E+00 -0.00000000000E+00 -0.17073440761E+04  0.17073440761E+04  0.25500000000E-02 0.  1.
    5000001    1    1    2    0    0  0.81889185354E+02 -0.18118194315E+03 -0.96270459310E+03  0.10008380832E+04  0.18800000000E+03 0.  0.
   -5000001    1    1    2    0    0 -0.81889185354E+02  0.18118194315E+03 -0.69977355504E+03  0.75137192092E+03  0.18800000000E+03 0.  0.
<mgrwt>
<rscale>  0 0.55353980E+03</rscale>
<asrwt>0</asrwt>
<pdfrwt beam="1">  1        2 0.24390626E+00 0.55353980E+03</pdfrwt>
<pdfrwt beam="2">  1       -2 0.64094193E-02 0.55353980E+03</pdfrwt>
<totfact> 0.16232720E+03</totfact>
</mgrwt>
</event>
<event>
 4    1  0.6165923E-005  0.5445497E+03  0.7818608E-02  0.1002763E+00
          2   -1    0    0  501    0  0.00000000000E+00  0.00000000000E+00  0.14906655338E+04  0.14906655338E+04  0.25500000000E-02 0. -1.
         -2   -1    0    0    0  501 -0.00000000000E+00 -0.00000000000E+00 -0.49731875610E+02  0.49731875675E+02  0.25500000000E-02 0.  1.
    5000001    1    1    2    0    0  0.10184142156E+03  0.16810398452E+03  0.68480115927E+03  0.73683597394E+03  0.18800000000E+03 0.  0.
   -5000001    1    1    2    0    0 -0.10184142156E+03 -0.16810398452E+03  0.75613249891E+03  0.80356143552E+03  0.18800000000E+03 0.  0.
<mgrwt>
<rscale>  0 0.54454970E+03</rscale>
<asrwt>0</asrwt>
<pdfrwt beam="1">  1        2 0.21295223E+00 0.54454970E+03</pdfrwt>
<pdfrwt beam="2">  1       -2 0.71045533E-02 0.54454970E+03</pdfrwt>
<totfact> 0.17833671E+03</totfact>
</mgrwt>
</event>
<event>
 4    1  0.6165923E-005  0.6582496E+03  0.7818608E-02  0.9791421E-01
          2   -1    0    0  501    0  0.00000000000E+00  0.00000000000E+00  0.58297127764E+03  0.58297127764E+03  0.25500000000E-02 0.  1.
         -2   -1    0    0    0  501 -0.00000000000E+00 -0.00000000000E+00 -0.18581213974E+03  0.18581213976E+03  0.25500000000E-02 0. -1.
    5000001    1    1    2    0    0  0.16612942439E+03 -0.11982915671E+03 -0.71241689231E+01  0.27812365277E+03  0.18800000000E+03 0.  0.
   -5000001    1    1    2    0    0 -0.16612942439E+03  0.11982915671E+03  0.40428330682E+03  0.49065976463E+03  0.18800000000E+03 0.  0.
<mgrwt>
<rscale>  0 0.65824962E+03</rscale>
<asrwt>0</asrwt>
<pdfrwt beam="1">  1        2 0.83281611E-01 0.65824962E+03</pdfrwt>
<pdfrwt beam="2">  1       -2 0.26544591E-01 0.65824962E+03</pdfrwt>
<totfact> 0.72420513E+02</totfact>
</mgrwt>
</event>
<event>
 4    1  0.6165923E-005  0.4584929E+03  0.7818608E-02  0.1025219E+00
         -2   -1    0    0    0  501 -0.00000000000E+00  0.00000000000E+00  0.27151118212E+03  0.27151118213E+03  0.25500000000E-02 0. -1.
          2   -1    0    0  501    0  0.00000000000E+00 -0.00000000000E+00 -0.19356084207E+03  0.19356084209E+03  0.25500000000E-02 0.  1.
    5000001    1    1    2    0    0 -0.60079612553E+02  0.11657903098E+03  0.35815550345E+02  0.23200643085E+03  0.18800000000E+03 0.  0.
   -5000001    1    1    2    0    0  0.60079612553E+02 -0.11657903098E+03  0.42134789700E+02  0.23306559337E+03  0.18800000000E+03 0.  0.
<mgrwt>
<rscale>  0 0.45849289E+03</rscale>
<asrwt>0</asrwt>
<pdfrwt beam="1">  1        2 0.27651549E-01 0.45849289E+03</pdfrwt>
<pdfrwt beam="2">  1       -2 0.38787311E-01 0.45849289E+03</pdfrwt>
<totfact> 0.12241999E+03</totfact>
</mgrwt>
</event>
<event>
 4    1  0.6165923E-005  0.5572114E+03  0.7818608E-02  0.9998384E-01
          2   -1    0    0  501    0  0.00000000000E+00  0.00000000000E+00  0.15373989722E+04  0.15373989722E+04  0.25500000000E-02 0.  1.
         -2   -1    0    0    0  501 -0.00000000000E+00 -0.00000000000E+00 -0.50488608928E+02  0.50488608993E+02  0.25500000000E-02 0. -1.
    5000001    1    1    2    0    0 -0.15530973591E+03 -0.83696101874E+02  0.10443788565E+04  0.10757310758E+04  0.18800000000E+03 0.  0.
   -5000001    1    1    2    0    0  0.15530973591E+03  0.83696101874E+02  0.44253150680E+03  0.51215650542E+03  0.18800000000E+03 0.  0.
<mgrwt>
<rscale>  0 0.55721140E+03</rscale>
<asrwt>0</asrwt>
<pdfrwt beam="1">  1        2 0.21962842E+00 0.55721140E+03</pdfrwt>
<pdfrwt beam="2">  1       -2 0.72126584E-02 0.55721140E+03</pdfrwt>
<totfact> 0.16462191E+03</totfact>
</mgrwt>
</event>
<event>
 4    1  0.6165923E-005  0.5439961E+03  0.7818608E-02  0.1002893E+00
          2   -1    0    0  501    0  0.00000000000E+00  0.00000000000E+00  0.89951375657E+03  0.89951375658E+03  0.25500000000E-02 0.  1.
         -2   -1    0    0    0  501 -0.00000000000E+00 -0.00000000000E+00 -0.82247713647E+02  0.82247713687E+02  0.25500000000E-02 0. -1.
    5000001    1    1    2    0    0 -0.16026002602E+03 -0.45129666511E+02  0.59721550198E+03  0.64786597267E+03  0.18800000000E+03 0.  0.
   -5000001    1    1    2    0    0  0.16026002602E+03  0.45129666511E+02  0.22005054094E+03  0.33389549759E+03  0.18800000000E+03 0.  0.
<mgrwt>
<rscale>  0 0.54399614E+03</rscale>
<asrwt>0</asrwt>
<pdfrwt beam="1">  1        2 0.12850196E+00 0.54399614E+03</pdfrwt>
<pdfrwt beam="2">  1       -2 0.11749674E-01 0.54399614E+03</pdfrwt>
<totfact> 0.17183510E+03</totfact>
</mgrwt>
</event>
<event>
 4    1  0.6165923E-005  0.1072348E+04  0.7818608E-02  0.9232570E-01
          2   -1    0    0  501    0  0.00000000000E+00  0.00000000000E+00  0.27417230801E+04  0.27417230801E+04  0.25500000000E-02 0.  1.
         -2   -1    0    0    0  501 -0.00000000000E+00 -0.00000000000E+00 -0.10485474263E+03  0.10485474266E+03  0.25500000000E-02 0. -1.
    5000001    1    1    2    0    0 -0.19590224878E+03  0.42450213238E+03  0.18047195318E+04  0.18737492735E+04  0.18800000000E+03 0.  0.
   -5000001    1    1    2    0    0  0.19590224878E+03 -0.42450213238E+03  0.83214880568E+03  0.97282854927E+03  0.18800000000E+03 0.  0.
<mgrwt>
<rscale>  0 0.10723482E+04</rscale>
<asrwt>0</asrwt>
<pdfrwt beam="1">  1        2 0.39167473E+00 0.10723482E+04</pdfrwt>
<pdfrwt beam="2">  1       -2 0.14979249E-01 0.10723482E+04</pdfrwt>
<totfact> 0.11589105E+02</totfact>
</mgrwt>
</event>
<event>
 4    1  0.6165923E-005  0.8279912E+03  0.7818608E-02  0.9520362E-01
          2   -1    0    0  501    0  0.00000000000E+00  0.00000000000E+00  0.16588975184E+04  0.16588975184E+04  0.25500000000E-02 0.  1.
         -2   -1    0    0    0  501 -0.00000000000E+00 -0.00000000000E+00 -0.10331702861E+03  0.10331702865E+03  0.25500000000E-02 0. -1.
    5000001    1    1    2    0    0  0.29365349994E+03  0.21798230415E+03  0.67572718254E+03  0.79101193934E+03  0.18800000000E+03 0.  0.
   -5000001    1    1    2    0    0 -0.29365349994E+03 -0.21798230415E+03  0.87985330727E+03  0.97120260774E+03  0.18800000000E+03 0.  0.
<mgrwt>
<rscale>  0 0.82799121E+03</rscale>
<asrwt>0</asrwt>
<pdfrwt beam="1">  1        2 0.23698533E+00 0.82799121E+03</pdfrwt>
<pdfrwt beam="2">  1       -2 0.14759577E-01 0.82799121E+03</pdfrwt>
<totfact> 0.43753234E+02</totfact>
</mgrwt>
</event>
<event>
 4    1  0.6165923E-005  0.9730879E+03  0.7818608E-02  0.9338564E-01
         -2   -1    0    0    0  501 -0.00000000000E+00  0.00000000000E+00  0.15621258481E+03  0.15621258483E+03  0.25500000000E-02 0. -1.
          2   -1    0    0  501    0  0.00000000000E+00 -0.00000000000E+00 -0.15154030006E+04  0.15154030006E+04  0.25500000000E-02 0.  1.
    5000001    1    1    2    0    0 -0.34426997225E+03 -0.26529749525E+03 -0.48771518429E+03  0.67979017039E+03  0.18800000000E+03 0.  0.
   -5000001    1    1    2    0    0  0.34426997225E+03  0.26529749525E+03 -0.87147523147E+03  0.99182541500E+03  0.18800000000E+03 0.  0.
<mgrwt>
<rscale>  0 0.97308791E+03</rscale>
<asrwt>0</asrwt>
<pdfrwt beam="1">  1        2 0.21648613E+00 0.97308791E+03</pdfrwt>
<pdfrwt beam="2">  1       -2 0.22316084E-01 0.97308791E+03</pdfrwt>
<totfact> 0.25181073E+02</totfact>
</mgrwt>
</event>
<event>
 4    1  0.6165923E-005  0.5304456E+03  0.7818608E-02  0.1006124E+00
         -2   -1    0    0    0  501 -0.00000000000E+00  0.00000000000E+00  0.58439510657E+02  0.58439510713E+02  0.25500000000E-02 0. -1.
          2   -1    0    0  501    0  0.00000000000E+00 -0.00000000000E+00 -0.12036912408E+04  0.12036912408E+04  0.25500000000E-02 0.  1.
    5000001    1    1    2    0    0 -0.17124393352E+03 -0.15212913337E+02 -0.39707982089E+03  0.47177568998E+03  0.18800000000E+03 0.  0.
   -5000001    1    1    2    0    0  0.17124393352E+03  0.15212913337E+02 -0.74817190924E+03  0.79035506152E+03  0.18800000000E+03 0.  0.
<mgrwt>
<rscale>  0 0.53044558E+03</rscale>
<asrwt>0</asrwt>
<pdfrwt beam="1">  1        2 0.17195588E+00 0.53044558E+03</pdfrwt>
<pdfrwt beam="2">  1       -2 0.83485023E-02 0.53044558E+03</pdfrwt>
<totfact> 0.19686155E+03</totfact>
</mgrwt>
</event>
<event>
 4    1  0.6165923E-005  0.5911293E+03  0.7818608E-02  0.9923983E-01
         -2   -1    0    0    0  501 -0.00000000000E+00  0.00000000000E+00  0.26861176773E+03  0.26861176774E+03  0.25500000000E-02 0. -1.
          2   -1    0    0  501    0  0.00000000000E+00 -0.00000000000E+00 -0.32522202475E+03  0.32522202476E+03  0.25500000000E-02 0.  1.
    5000001    1    1    2    0    0  0.20531362549E+03  0.68883456989E+02  0.43547261034E+02  0.29006719808E+03  0.18800000000E+03 0.  0.
   -5000001    1    1    2    0    0 -0.20531362549E+03 -0.68883456989E+02 -0.10015751806E+03  0.30376659442E+03  0.18800000000E+03 0.  0.
<mgrwt>
<rscale>  0 0.59112930E+03</rscale>
<asrwt>0</asrwt>
<pdfrwt beam="1">  1        2 0.46460289E-01 0.59112930E+03</pdfrwt>
<pdfrwt beam="2">  1       -2 0.38373110E-01 0.59112930E+03</pdfrwt>
<totfact> 0.70283669E+02</totfact>
</mgrwt>
</event>
<event>
 4    1  0.6165923E-005  0.5613490E+03  0.7818608E-02  0.9989007E-01
         -2   -1    0    0    0  501 -0.00000000000E+00  0.00000000000E+00  0.13547768515E+03  0.13547768518E+03  0.25500000000E-02 0. -1.
          2   -1    0    0  501    0  0.00000000000E+00 -0.00000000000E+00 -0.58148457749E+03  0.58148457749E+03  0.25500000000E-02 0.  1.
    5000001    1    1    2    0    0  0.15145895284E+03 -0.14121117218E+03 -0.19294752920E+03  0.33978398810E+03  0.18800000000E+03 0.  0.
   -5000001    1    1    2    0    0 -0.15145895284E+03  0.14121117218E+03 -0.25305936313E+03  0.37717827457E+03  0.18800000000E+03 0.  0.
<mgrwt>
<rscale>  0 0.56134903E+03</rscale>
<asrwt>0</asrwt>
<pdfrwt beam="1">  1        2 0.83069224E-01 0.56134903E+03</pdfrwt>
<pdfrwt beam="2">  1       -2 0.19353955E-01 0.56134903E+03</pdfrwt>
<totfact> 0.12731446E+03</totfact>
</mgrwt>
</event>
<event>
 4    1  0.6165923E-005  0.4870875E+03  0.7818608E-02  0.1017205E+00
         -2   -1    0    0    0  501 -0.00000000000E+00  0.00000000000E+00  0.13170921995E+03  0.13170921997E+03  0.25500000000E-02 0. -1.
          2   -1    0    0  501    0  0.00000000000E+00 -0.00000000000E+00 -0.45033709393E+03  0.45033709394E+03  0.25500000000E-02 0.  1.
    5000001    1    1    2    0    0  0.10837555931E+03  0.81703516677E+02 -0.24832642713E+03  0.33975099839E+03  0.18800000000E+03 0.  0.
   -5000001    1    1    2    0    0 -0.10837555931E+03 -0.81703516677E+02 -0.70301446854E+02  0.24229531552E+03  0.18800000000E+03 0.  0.
<mgrwt>
<rscale>  0 0.48708746E+03</rscale>
<asrwt>0</asrwt>
<pdfrwt beam="1">  1        2 0.64333870E-01 0.48708746E+03</pdfrwt>
<pdfrwt beam="2">  1       -2 0.18815603E-01 0.48708746E+03</pdfrwt>
<totfact> 0.17877973E+03</totfact>
</mgrwt>
</event>
<event>
 4    1  0.6165923E-005  0.6328749E+03  0.7818608E-02  0.9839455E-01
          2   -1    0    0  501    0  0.00000000000E+00  0.00000000000E+00  0.44643844265E+03  0.44643844266E+03  0.25500000000E-02 0.  1.
         -2   -1    0    0    0  501 -0.00000000000E+00 -0.00000000000E+00 -0.22429223283E+03  0.22429223284E+03  0.25500000000E-02 0. -1.
    5000001    1    1    2    0    0  0.21095295363E+03  0.52035858273E+02 -0.29446583682E+02  0.28882517287E+03  0.18800000000E+03 0.  0.
   -5000001    1    1    2    0    0 -0.21095295363E+03 -0.52035858273E+02  0.25159279351E+03  0.38190550263E+03  0.18800000000E+03 0.  0.
<mgrwt>
<rscale>  0 0.63287495E+03</rscale>
<asrwt>0</asrwt>
<pdfrwt beam="1">  1        2 0.63776921E-01 0.63287495E+03</pdfrwt>
<pdfrwt beam="2">  1       -2 0.32041747E-01 0.63287495E+03</pdfrwt>
<totfact> 0.69548815E+02</totfact>
</mgrwt>
</event>
<event>
 4    1  0.6165923E-005  0.1187994E+04  0.7818608E-02  0.9123431E-01
         -2   -1    0    0    0  501 -0.00000000000E+00  0.00000000000E+00  0.25413257622E+03  0.25413257624E+03  0.25500000000E-02 0. -1.
          2   -1    0    0  501    0  0.00000000000E+00 -0.00000000000E+00 -0.13883797498E+04  0.13883797498E+04  0.25500000000E-02 0.  1.
    5000001    1    1    2    0    0  0.23313775074E+03 -0.50612171891E+03 -0.68260211186E+03  0.90100058173E+03  0.18800000000E+03 0.  0.
   -5000001    1    1    2    0    0 -0.23313775074E+03  0.50612171891E+03 -0.45164506171E+03  0.74151174430E+03  0.18800000000E+03 0.  0.
<mgrwt>
<rscale>  0 0.11879941E+04</rscale>
<asrwt>0</asrwt>
<pdfrwt beam="1">  1        2 0.19833996E+00 0.11879941E+04</pdfrwt>
<pdfrwt beam="2">  1       -2 0.36304654E-01 0.11879941E+04</pdfrwt>
<totfact> 0.11825851E+02</totfact>
</mgrwt>
</event>
<event>
 4    1  0.6165923E-005  0.4812888E+03  0.7818608E-02  0.1018782E+00
         -2   -1    0    0    0  501 -0.00000000000E+00  0.00000000000E+00  0.10620693491E+03  0.10620693494E+03  0.25500000000E-02 0.  1.
          2   -1    0    0  501    0  0.00000000000E+00 -0.00000000000E+00 -0.54525364964E+03  0.54525364965E+03  0.25500000000E-02 0. -1.
    5000001    1    1    2    0    0  0.70639143270E+02  0.13133163845E+03 -0.24403133512E+03  0.34224725030E+03  0.18800000000E+03 0.  0.
   -5000001    1    1    2    0    0 -0.70639143270E+02 -0.13133163845E+03 -0.19501537961E+03  0.30921333429E+03  0.18800000000E+03 0.  0.
<mgrwt>
<rscale>  0 0.48128877E+03</rscale>
<asrwt>0</asrwt>
<pdfrwt beam="1">  1        2 0.77893377E-01 0.48128877E+03</pdfrwt>
<pdfrwt beam="2">  1       -2 0.15172420E-01 0.48128877E+03</pdfrwt>
<totfact> 0.20757761E+03</totfact>
</mgrwt>
</event>
<event>
 4    1  0.6165923E-005  0.6524401E+03  0.7818608E-02  0.9802211E-01
         -2   -1    0    0    0  501 -0.00000000000E+00  0.00000000000E+00  0.50382370188E+02  0.50382370253E+02  0.25500000000E-02 0. -1.
          2   -1    0    0  501    0  0.00000000000E+00 -0.00000000000E+00 -0.21122370370E+04  0.21122370370E+04  0.25500000000E-02 0.  1.
    5000001    1    1    2    0    0  0.16181526783E+03 -0.20719160865E+03 -0.11777846984E+04  0.12213244202E+04  0.18800000000E+03 0.  0.
   -5000001    1    1    2    0    0 -0.16181526783E+03  0.20719160865E+03 -0.88406996841E+03  0.94129498705E+03  0.18800000000E+03 0.  0.
<mgrwt>
<rscale>  0 0.65244006E+03</rscale>
<asrwt>0</asrwt>
<pdfrwt beam="1">  1        2 0.30174809E+00 0.65244006E+03</pdfrwt>
<pdfrwt beam="2">  1       -2 0.71974828E-02 0.65244006E+03</pdfrwt>
<totfact> 0.84102324E+02</totfact>
</mgrwt>
</event>
<event>
 4    1  0.6165923E-005  0.5556406E+03  0.7818608E-02  0.1000197E+00
          2   -1    0    0  501    0  0.00000000000E+00  0.00000000000E+00  0.28107132054E+04  0.28107132054E+04  0.25500000000E-02 0.  1.
         -2   -1    0    0    0  501 -0.00000000000E+00 -0.00000000000E+00 -0.27460684130E+02  0.27460684249E+02  0.25500000000E-02 0. -1.
    5000001    1    1    2    0    0 -0.20260669359E+03  0.17631982424E+02  0.12797464003E+04  0.13093720663E+04  0.18800000000E+03 0.  0.
   -5000001    1    1    2    0    0  0.20260669359E+03 -0.17631982424E+02  0.15035061211E+04  0.15288018234E+04  0.18800000000E+03 0.  0.
<mgrwt>
<rscale>  0 0.55564056E+03</rscale>
<asrwt>0</asrwt>
<pdfrwt beam="1">  1        2 0.40153034E+00 0.55564056E+03</pdfrwt>
<pdfrwt beam="2">  1       -2 0.39229561E-02 0.55564056E+03</pdfrwt>
<totfact> 0.95463239E+02</totfact>
</mgrwt>
</event>
<event>
 4    1  0.6165923E-005  0.1245301E+04  0.7818608E-02  0.9074103E-01
         -2   -1    0    0    0  501 -0.00000000000E+00  0.00000000000E+00  0.19864380839E+03  0.19864380841E+03  0.25500000000E-02 0. -1.
          2   -1    0    0  501    0  0.00000000000E+00 -0.00000000000E+00 -0.19517042045E+04  0.19517042045E+04  0.25500000000E-02 0.  1.
    5000001    1    1    2    0    0 -0.30315791351E+03  0.49852053371E+03 -0.68798384203E+03  0.92146253855E+03  0.18800000000E+03 0.  0.
   -5000001    1    1    2    0    0  0.30315791351E+03 -0.49852053371E+03 -0.10650765541E+04  0.12288854744E+04  0.18800000000E+03 0.  0.
<mgrwt>
<rscale>  0 0.12453015E+04</rscale>
<asrwt>0</asrwt>
<pdfrwt beam="1">  1        2 0.27881488E+00 0.12453015E+04</pdfrwt>
<pdfrwt beam="2">  1       -2 0.28377688E-01 0.12453015E+04</pdfrwt>
<totfact> 0.95087843E+01</totfact>
</mgrwt>
</event>
<event>
 4    1  0.6165923E-005  0.5961485E+03  0.7818608E-02  0.9913429E-01
          2   -1    0    0  501    0  0.00000000000E+00  0.00000000000E+00  0.11566521629E+04  0.11566521630E+04  0.25500000000E-02 0.  1.
         -2   -1    0    0    0  501 -0.00000000000E+00 -0.00000000000E+00 -0.76815028804E+02  0.76815028847E+02  0.25500000000E-02 0. -1.
    5000001    1    1    2    0    0  0.21576359425E+03 -0.82473714201E+02  0.56512606412E+03  0.63880146406E+03  0.18800000000E+03 0.  0.
   -5000001    1    1    2    0    0 -0.21576359425E+03  0.82473714201E+02  0.51471107002E+03  0.59466572773E+03  0.18800000000E+03 0.  0.
<mgrwt>
<rscale>  0 0.59614854E+03</rscale>
<asrwt>0</asrwt>
<pdfrwt beam="1">  1        2 0.16523601E+00 0.59614854E+03</pdfrwt>
<pdfrwt beam="2">  1       -2 0.10973576E-01 0.59614854E+03</pdfrwt>
<totfact> 0.13443904E+03</totfact>
</mgrwt>
</event>
<event>
 4    1  0.6165923E-005  0.8130305E+03  0.7818608E-02  0.9541345E-01
         -2   -1    0    0    0  501 -0.00000000000E+00  0.00000000000E+00  0.81041721891E+03  0.81041721891E+03  0.25500000000E-02 0. -1.
          2   -1    0    0  501    0  0.00000000000E+00 -0.00000000000E+00 -0.20391304822E+03  0.20391304823E+03  0.25500000000E-02 0.  1.
    5000001    1    1    2    0    0 -0.68176167822E+02  0.20232403758E+03  0.66554306613E+03  0.72379180633E+03  0.18800000000E+03 0.  0.
   -5000001    1    1    2    0    0  0.68176167822E+02 -0.20232403758E+03 -0.59038895432E+02  0.29053846082E+03  0.18800000000E+03 0.  0.
<mgrwt>
<rscale>  0 0.81303049E+03</rscale>
<asrwt>0</asrwt>
<pdfrwt beam="1">  1        2 0.29130435E-01 0.81303049E+03</pdfrwt>
<pdfrwt beam="2">  1       -2 0.11577389E+00 0.81303049E+03</pdfrwt>
<totfact> 0.10746557E+02</totfact>
</mgrwt>
</event>
<event>
 4    1  0.6165923E-005  0.8311325E+03  0.7818608E-02  0.9516016E-01
         -2   -1    0    0    0  501 -0.00000000000E+00  0.00000000000E+00  0.17882660082E+03  0.17882660084E+03  0.25500000000E-02 0. -1.
          2   -1    0    0  501    0  0.00000000000E+00 -0.00000000000E+00 -0.96571373176E+03  0.96571373176E+03  0.25500000000E-02 0.  1.
    5000001    1    1    2    0    0 -0.42441658736E+01  0.36978576272E+03 -0.42694329262E+03  0.59530168685E+03  0.18800000000E+03 0.  0.
   -5000001    1    1    2    0    0  0.42441658736E+01 -0.36978576272E+03 -0.35994383832E+03  0.54923864576E+03  0.18800000000E+03 0.  0.
<mgrwt>
<rscale>  0 0.83113249E+03</rscale>
<asrwt>0</asrwt>
<pdfrwt beam="1">  1        2 0.13795910E+00 0.83113249E+03</pdfrwt>
<pdfrwt beam="2">  1       -2 0.25546658E-01 0.83113249E+03</pdfrwt>
<totfact> 0.40733296E+02</totfact>
</mgrwt>
</event>
<event>
 4    1  0.6165923E-005  0.7075432E+03  0.7818608E-02  0.9704419E-01
         -2   -1    0    0    0  501 -0.00000000000E+00  0.00000000000E+00  0.48544262617E+02  0.48544262684E+02  0.25500000000E-02 0. -1.
          2   -1    0    0  501    0  0.00000000000E+00 -0.00000000000E+00 -0.25781492414E+04  0.25781492414E+04  0.25500000000E-02 0.  1.
    5000001    1    1    2    0    0  0.24253062771E+03 -0.17414879147E+03 -0.13602806279E+04  0.14052958029E+04  0.18800000000E+03 0.  0.
   -5000001    1    1    2    0    0 -0.24253062771E+03  0.17414879147E+03 -0.11693243509E+04  0.12213977012E+04  0.18800000000E+03 0.  0.
<mgrwt>
<rscale>  0 0.70754323E+03</rscale>
<asrwt>0</asrwt>
<pdfrwt beam="1">  1        2 0.36830695E+00 0.70754323E+03</pdfrwt>
<pdfrwt beam="2">  1       -2 0.69348963E-02 0.70754323E+03</pdfrwt>
<totfact> 0.51399665E+02</totfact>
</mgrwt>
</event>
<event>
 4    1  0.6165923E-005  0.8354998E+03  0.7818608E-02  0.9510008E-01
          2   -1    0    0  501    0  0.00000000000E+00  0.00000000000E+00  0.42789632229E+03  0.42789632230E+03  0.25500000000E-02 0.  1.
         -2   -1    0    0    0  501 -0.00000000000E+00 -0.00000000000E+00 -0.40784407853E+03  0.40784407854E+03  0.25500000000E-02 0. -1.
    5000001    1    1    2    0    0  0.31899001923E+03 -0.90816814227E+02 -0.16081139368E+03  0.41377122961E+03  0.18800000000E+03 0.  0.
   -5000001    1    1    2    0    0 -0.31899001923E+03  0.90816814227E+02  0.18086363744E+03  0.42196917123E+03  0.18800000000E+03 0.  0.
<mgrwt>
<rscale>  0 0.83549981E+03</rscale>
<asrwt>0</asrwt>
<pdfrwt beam="1">  1        2 0.61128046E-01 0.83549981E+03</pdfrwt>
<pdfrwt beam="2">  1       -2 0.58263439E-01 0.83549981E+03</pdfrwt>
<totfact> 0.22219142E+02</totfact>
</mgrwt>
</event>
<event>
 4    1  0.6165923E-005  0.5393390E+03  0.7818608E-02  0.1003992E+00
          2   -1    0    0  501    0  0.00000000000E+00  0.00000000000E+00  0.66138941299E+03  0.66138941300E+03  0.25500000000E-02 0.  1.
         -2   -1    0    0    0  501 -0.00000000000E+00 -0.00000000000E+00 -0.10995284338E+03  0.10995284341E+03  0.25500000000E-02 0. -1.
    5000001    1    1    2    0    0 -0.43319121777E+02  0.16781766567E+03  0.15320478829E+03  0.29808559572E+03  0.18800000000E+03 0.  0.
   -5000001    1    1    2    0    0  0.43319121777E+02 -0.16781766567E+03  0.39823178132E+03  0.47325666068E+03  0.18800000000E+03 0.  0.
<mgrwt>
<rscale>  0 0.53933903E+03</rscale>
<asrwt>0</asrwt>
<pdfrwt beam="1">  1        2 0.94484202E-01 0.53933903E+03</pdfrwt>
<pdfrwt beam="2">  1       -2 0.15707549E-01 0.53933903E+03</pdfrwt>
<totfact> 0.15622511E+03</totfact>
</mgrwt>
</event>
<event>
 4    1  0.6165923E-005  0.6515574E+03  0.7818608E-02  0.9803861E-01
          2   -1    0    0  501    0  0.00000000000E+00  0.00000000000E+00  0.40168577375E+03  0.40168577376E+03  0.25500000000E-02 0.  1.
         -2   -1    0    0    0  501 -0.00000000000E+00 -0.00000000000E+00 -0.26421584342E+03  0.26421584343E+03  0.25500000000E-02 0. -1.
    5000001    1    1    2    0    0  0.69346521118E+02  0.31667919311E+02 -0.19178063459E+03  0.27916949853E+03  0.18800000000E+03 0.  0.
   -5000001    1    1    2    0    0 -0.69346521118E+02 -0.31667919311E+02  0.32925056492E+03  0.38673211866E+03  0.18800000000E+03 0.  0.
<mgrwt>
<rscale>  0 0.65155735E+03</rscale>
<asrwt>0</asrwt>
<pdfrwt beam="1">  1        2 0.57383681E-01 0.65155735E+03</pdfrwt>
<pdfrwt beam="2">  1       -2 0.37745121E-01 0.65155735E+03</pdfrwt>
<totfact> 0.57354434E+02</totfact>
</mgrwt>
</event>
<event>
 4    1  0.6165923E-005  0.4441871E+03  0.7818608E-02  0.1029470E+00
          2   -1    0    0  501    0  0.00000000000E+00  0.00000000000E+00  0.75333814030E+03  0.75333814030E+03  0.25500000000E-02 0.  1.
         -2   -1    0    0    0  501 -0.00000000000E+00 -0.00000000000E+00 -0.65475958630E+02  0.65475958680E+02  0.25500000000E-02 0. -1.
    5000001    1    1    2    0    0  0.89594207527E+02  0.57136658773E+02  0.24832605174E+03  0.32909200502E+03  0.18800000000E+03 0.  0.
   -5000001    1    1    2    0    0 -0.89594207527E+02 -0.57136658773E+02  0.43953612993E+03  0.48972209396E+03  0.18800000000E+03 0.  0.
<mgrwt>
<rscale>  0 0.44418706E+03</rscale>
<asrwt>0</asrwt>
<pdfrwt beam="1">  1        2 0.10761973E+00 0.44418706E+03</pdfrwt>
<pdfrwt beam="2">  1       -2 0.93537085E-02 0.44418706E+03</pdfrwt>
<totfact> 0.31198057E+03</totfact>
</mgrwt>
</event>
<event>
 4    1  0.6165923E-005  0.6086121E+03  0.7818608E-02  0.9887698E-01
         -2   -1    0    0    0  501 -0.00000000000E+00  0.00000000000E+00  0.41766035438E+03  0.41766035439E+03  0.25500000000E-02 0. -1.
          2   -1    0    0  501    0  0.00000000000E+00 -0.00000000000E+00 -0.22171643592E+03  0.22171643594E+03  0.25500000000E-02 0.  1.
    5000001    1    1    2    0    0 -0.18084605963E+03  0.15050233451E+03  0.14378740100E+03  0.33372903180E+03  0.18800000000E+03 0.  0.
   -5000001    1    1    2    0    0  0.18084605963E+03 -0.15050233451E+03  0.52156517455E+02  0.30564775852E+03  0.18800000000E+03 0.  0.
<mgrwt>
<rscale>  0 0.60861208E+03</rscale>
<asrwt>0</asrwt>
<pdfrwt beam="1">  1        2 0.31673776E-01 0.60861208E+03</pdfrwt>
<pdfrwt beam="2">  1       -2 0.59665766E-01 0.60861208E+03</pdfrwt>
<totfact> 0.44247348E+02</totfact>
</mgrwt>
</event>
<event>
 4    1  0.6165923E-005  0.9763516E+03  0.7818608E-02  0.9334869E-01
          2   -1    0    0  501    0  0.00000000000E+00  0.00000000000E+00  0.86784858005E+03  0.86784858006E+03  0.25500000000E-02 0.  1.
         -2   -1    0    0    0  501 -0.00000000000E+00 -0.00000000000E+00 -0.27460506017E+03  0.27460506018E+03  0.25500000000E-02 0. -1.
    5000001    1    1    2    0    0  0.41781177062E+03  0.89911599833E+02  0.12981902277E+03  0.48461092654E+03  0.18800000000E+03 0.  0.
   -5000001    1    1    2    0    0 -0.41781177062E+03 -0.89911599833E+02  0.46342449711E+03  0.65784271370E+03  0.18800000000E+03 0.  0.
<mgrwt>
<rscale>  0 0.97635160E+03</rscale>
<asrwt>0</asrwt>
<pdfrwt beam="1">  1        2 0.12397837E+00 0.97635160E+03</pdfrwt>
<pdfrwt beam="2">  1       -2 0.39229294E-01 0.97635160E+03</pdfrwt>
<totfact> 0.20936949E+02</totfact>
</mgrwt>
</event>
<event>
 4    1  0.6165923E-005  0.9447765E+03  0.7818608E-02  0.9371277E-01
         -2   -1    0    0    0  501 -0.00000000000E+00  0.00000000000E+00  0.17818615102E+03  0.17818615104E+03  0.25500000000E-02 0. -1.
          2   -1    0    0  501    0  0.00000000000E+00 -0.00000000000E+00 -0.12523457626E+04  0.12523457626E+04  0.25500000000E-02 0.  1.
    5000001    1    1    2    0    0 -0.39125414706E+03 -0.15273105944E+03 -0.37541237335E+03  0.59387291080E+03  0.18800000000E+03 0.  0.
   -5000001    1    1    2    0    0  0.39125414706E+03  0.15273105944E+03 -0.69874723824E+03  0.83665900286E+03  0.18800000000E+03 0.  0.
<mgrwt>
<rscale>  0 0.94477653E+03</rscale>
<asrwt>0</asrwt>
<pdfrwt beam="1">  1        2 0.17890653E+00 0.94477653E+03</pdfrwt>
<pdfrwt beam="2">  1       -2 0.25455165E-01 0.94477653E+03</pdfrwt>
<totfact> 0.27644384E+02</totfact>
</mgrwt>
</event>
<event>
 4    1  0.6165923E-005  0.5372597E+03  0.7818608E-02  0.1004487E+00
         -2   -1    0    0    0  501 -0.00000000000E+00  0.00000000000E+00  0.19852860776E+03  0.19852860778E+03  0.25500000000E-02 0. -1.
          2   -1    0    0  501    0  0.00000000000E+00 -0.00000000000E+00 -0.36348417055E+03  0.36348417056E+03  0.25500000000E-02 0.  1.
    5000001    1    1    2    0    0 -0.68649165810E+02  0.16249398661E+03 -0.34940735979E+01  0.25782399462E+03  0.18800000000E+03 0.  0.
   -5000001    1    1    2    0    0  0.68649165810E+02 -0.16249398661E+03 -0.16146148919E+03  0.30418878372E+03  0.18800000000E+03 0.  0.
<mgrwt>
<rscale>  0 0.53725974E+03</rscale>
<asrwt>0</asrwt>
<pdfrwt beam="1">  1        2 0.51926310E-01 0.53725974E+03</pdfrwt>
<pdfrwt beam="2">  1       -2 0.28361230E-01 0.53725974E+03</pdfrwt>
<totfact> 0.10962357E+03</totfact>
</mgrwt>
</event>
<event>
 4    1  0.6165923E-005  0.1002712E+04  0.7818608E-02  0.9305575E-01
         -2   -1    0    0    0  501 -0.00000000000E+00  0.00000000000E+00  0.33059024391E+03  0.33059024392E+03  0.25500000000E-02 0. -1.
          2   -1    0    0  501    0  0.00000000000E+00 -0.00000000000E+00 -0.76033088959E+03  0.76033088959E+03  0.25500000000E-02 0.  1.
    5000001    1    1    2    0    0  0.24621459964E+03 -0.38460214091E+03 -0.12081569700E+03  0.50841013809E+03  0.18800000000E+03 0.  0.
   -5000001    1    1    2    0    0 -0.24621459964E+03  0.38460214091E+03 -0.30892494868E+03  0.58251099542E+03  0.18800000000E+03 0.  0.
<mgrwt>
<rscale>  0 0.10027123E+04</rscale>
<asrwt>0</asrwt>
<pdfrwt beam="1">  1        2 0.10861870E+00 0.10027123E+04</pdfrwt>
<pdfrwt beam="2">  1       -2 0.47227178E-01 0.10027123E+04</pdfrwt>
<totfact> 0.17201466E+02</totfact>
</mgrwt>
</event>
<event>
 4    1  0.6165923E-005  0.7336310E+03  0.7818608E-02  0.9661386E-01
         -2   -1    0    0    0  501 -0.00000000000E+00  0.00000000000E+00  0.39489852259E+03  0.39489852260E+03  0.25500000000E-02 0. -1.
          2   -1    0    0  501    0  0.00000000000E+00 -0.00000000000E+00 -0.34072963228E+03  0.34072963229E+03  0.25500000000E-02 0.  1.
    5000001    1    1    2    0    0 -0.29486374100E+03  0.42715536092E+02 -0.75371911935E+02  0.36026957669E+03  0.18800000000E+03 0.  0.
   -5000001    1    1    2    0    0  0.29486374100E+03 -0.42715536092E+02  0.12954080224E+03  0.37535857820E+03  0.18800000000E+03 0.  0.
<mgrwt>
<rscale>  0 0.73363105E+03</rscale>
<asrwt>0</asrwt>
<pdfrwt beam="1">  1        2 0.48675662E-01 0.73363105E+03</pdfrwt>
<pdfrwt beam="2">  1       -2 0.56414075E-01 0.73363105E+03</pdfrwt>
<totfact> 0.30763934E+02</totfact>
</mgrwt>
</event>
<event>
 4    1  0.6165923E-005  0.4779314E+03  0.7818608E-02  0.1019705E+00
          2   -1    0    0  501    0  0.00000000000E+00  0.00000000000E+00  0.34891988165E+03  0.34891988166E+03  0.25500000000E-02 0.  1.
         -2   -1    0    0    0  501 -0.00000000000E+00 -0.00000000000E+00 -0.16366108480E+03  0.16366108482E+03  0.25500000000E-02 0. -1.
    5000001    1    1    2    0    0 -0.16583262923E+02  0.10774998680E+03 -0.13951010177E+02  0.21776982103E+03  0.18800000000E+03 0.  0.
   -5000001    1    1    2    0    0  0.16583262923E+02 -0.10774998680E+03  0.19920980703E+03  0.29481114545E+03  0.18800000000E+03 0.  0.
<mgrwt>
<rscale>  0 0.47793140E+03</rscale>
<asrwt>0</asrwt>
<pdfrwt beam="1">  1        2 0.49845697E-01 0.47793140E+03</pdfrwt>
<pdfrwt beam="2">  1       -2 0.23380155E-01 0.47793140E+03</pdfrwt>
<totfact> 0.16221649E+03</totfact>
</mgrwt>
</event>
<event>
 4    1  0.6165923E-005  0.4269868E+03  0.7818608E-02  0.1034816E+00
          2   -1    0    0  501    0  0.00000000000E+00  0.00000000000E+00  0.11601139310E+04  0.11601139310E+04  0.25500000000E-02 0.  1.
         -2   -1    0    0    0  501 -0.00000000000E+00 -0.00000000000E+00 -0.39288751959E+02  0.39288752042E+02  0.25500000000E-02 0. -1.
    5000001    1    1    2    0    0  0.66217814761E+02 -0.55940108751E+02  0.41387754922E+03  0.46276637789E+03  0.18800000000E+03 0.  0.
   -5000001    1    1    2    0    0 -0.66217814761E+02  0.55940108751E+02  0.70694762980E+03  0.73663630513E+03  0.18800000000E+03 0.  0.
<mgrwt>
<rscale>  0 0.42698678E+03</rscale>
<asrwt>0</asrwt>
<pdfrwt beam="1">  1        2 0.16573057E+00 0.42698678E+03</pdfrwt>
<pdfrwt beam="2">  1       -2 0.56126786E-02 0.42698678E+03</pdfrwt>
<totfact> 0.38843943E+03</totfact>
</mgrwt>
</event>
<event>
 4    1  0.6165923E-005  0.8453686E+03  0.7818608E-02  0.9496574E-01
         -2   -1    0    0    0  501 -0.00000000000E+00  0.00000000000E+00  0.90324039569E+02  0.90324039605E+02  0.25500000000E-02 0. -1.
          2   -1    0    0  501    0  0.00000000000E+00 -0.00000000000E+00 -0.19780118500E+04  0.19780118500E+04  0.25500000000E-02 0.  1.
    5000001    1    1    2    0    0  0.15674229739E+03 -0.28044457225E+03 -0.45389475560E+03  0.58701086451E+03  0.18800000000E+03 0.  0.
   -5000001    1    1    2    0    0 -0.15674229739E+03  0.28044457225E+03 -0.14337930549E+04  0.14813250251E+04  0.18800000000E+03 0.  0.
<mgrwt>
<rscale>  0 0.84536861E+03</rscale>
<asrwt>0</asrwt>
<pdfrwt beam="1">  1        2 0.28257310E+00 0.84536861E+03</pdfrwt>
<pdfrwt beam="2">  1       -2 0.12903435E-01 0.84536861E+03</pdfrwt>
<totfact> 0.37633547E+02</totfact>
</mgrwt>
</event>
<event>
 4    1  0.6165923E-005  0.6173116E+03  0.7818608E-02  0.9870127E-01
          2   -1    0    0  501    0  0.00000000000E+00  0.00000000000E+00  0.38633612363E+03  0.38633612364E+03  0.25500000000E-02 0. -1.
         -2   -1    0    0    0  501 -0.00000000000E+00 -0.00000000000E+00 -0.24659460297E+03  0.24659460298E+03  0.25500000000E-02 0.  1.
    5000001    1    1    2    0    0 -0.12972739335E+03 -0.19350395153E+03 -0.72073057421E+01  0.29944769343E+03  0.18800000000E+03 0.  0.
   -5000001    1    1    2    0    0  0.12972739335E+03  0.19350395153E+03  0.14694882640E+03  0.33348303319E+03  0.18800000000E+03 0.  0.
<mgrwt>
<rscale>  0 0.61731160E+03</rscale>
<asrwt>0</asrwt>
<pdfrwt beam="1">  1        2 0.55190875E-01 0.61731160E+03</pdfrwt>
<pdfrwt beam="2">  1       -2 0.35227800E-01 0.61731160E+03</pdfrwt>
<totfact> 0.68384037E+02</totfact>
</mgrwt>
</event>
<event>
 4    1  0.6165923E-005  0.6894677E+03  0.7818608E-02  0.9735415E-01
          2   -1    0    0  501    0  0.00000000000E+00  0.00000000000E+00  0.51874816427E+03  0.51874816428E+03  0.25500000000E-02 0.  1.
         -2   -1    0    0    0  501 -0.00000000000E+00 -0.00000000000E+00 -0.22909272095E+03  0.22909272097E+03  0.25500000000E-02 0. -1.
    5000001    1    1    2    0    0 -0.97993138731E+02  0.26253030825E+03  0.68340744577E+02  0.34429533160E+03  0.18800000000E+03 0.  0.
   -5000001    1    1    2    0    0  0.97993138731E+02 -0.26253030825E+03  0.22131469874E+03  0.40354555365E+03  0.18800000000E+03 0.  0.
<mgrwt>
<rscale>  0 0.68946770E+03</rscale>
<asrwt>0</asrwt>
<pdfrwt beam="1">  1        2 0.74106880E-01 0.68946770E+03</pdfrwt>
<pdfrwt beam="2">  1       -2 0.32727532E-01 0.68946770E+03</pdfrwt>
<totfact> 0.56299955E+02</totfact>
</mgrwt>
</event>
<event>
 4    1  0.6165923E-005  0.5000385E+03  0.7818608E-02  0.1013769E+00
          2   -1    0    0  501    0  0.00000000000E+00  0.00000000000E+00  0.18909874827E+04  0.18909874827E+04  0.25500000000E-02 0.  1.
         -2   -1    0    0    0  501 -0.00000000000E+00 -0.00000000000E+00 -0.33056600992E+02  0.33056601090E+02  0.25500000000E-02 0. -1.
    5000001    1    1    2    0    0 -0.89012259871E+02 -0.59854378627E+01  0.39570794754E+03  0.44708812065E+03  0.18800000000E+03 0.  0.
   -5000001    1    1    2    0    0  0.89012259871E+02  0.59854378627E+01  0.14622229341E+04  0.14769559631E+04  0.18800000000E+03 0.  0.
<mgrwt>
<rscale>  0 0.50003847E+03</rscale>
<asrwt>0</asrwt>
<pdfrwt beam="1">  1        2 0.27014110E+00 0.50003847E+03</pdfrwt>
<pdfrwt beam="2">  1       -2 0.47223711E-02 0.50003847E+03</pdfrwt>
<totfact> 0.21139702E+03</totfact>
</mgrwt>
</event>
<event>
 4    1  0.6165923E-005  0.7249905E+03  0.7818608E-02  0.9675424E-01
         -2   -1    0    0    0  501 -0.00000000000E+00  0.00000000000E+00  0.28938865608E+03  0.28938865610E+03  0.25500000000E-02 0. -1.
          2   -1    0    0  501    0  0.00000000000E+00 -0.00000000000E+00 -0.45407036301E+03  0.45407036302E+03  0.25500000000E-02 0.  1.
    5000001    1    1    2    0    0  0.17275416027E+03  0.13006390401E+03  0.14534718191E+03  0.32129491485E+03  0.18800000000E+03 0.  0.
   -5000001    1    1    2    0    0 -0.17275416027E+03 -0.13006390401E+03 -0.31002888884E+03  0.42216410427E+03  0.18800000000E+03 0.  0.
<mgrwt>
<rscale>  0 0.72499052E+03</rscale>
<asrwt>0</asrwt>
<pdfrwt beam="1">  1        2 0.64867194E-01 0.72499052E+03</pdfrwt>
<pdfrwt beam="2">  1       -2 0.41341237E-01 0.72499052E+03</pdfrwt>
<totfact> 0.41820187E+02</totfact>
</mgrwt>
</event>
<event>
 4    1  0.6165923E-005  0.4696833E+03  0.7818608E-02  0.1022010E+00
          2   -1    0    0  501    0  0.00000000000E+00  0.00000000000E+00  0.18574103057E+03  0.18574103058E+03  0.25500000000E-02 0.  1.
         -2   -1    0    0    0  501 -0.00000000000E+00 -0.00000000000E+00 -0.29692207169E+03  0.29692207170E+03  0.25500000000E-02 0. -1.
    5000001    1    1    2    0    0  0.12274803060E+03 -0.66276116737E+02 -0.74733488198E+02  0.24574111769E+03  0.18800000000E+03 0.  0.
   -5000001    1    1    2    0    0 -0.12274803060E+03  0.66276116737E+02 -0.36447552924E+02  0.23692198459E+03  0.18800000000E+03 0.  0.
<mgrwt>
<rscale>  0 0.46968335E+03</rscale>
<asrwt>0</asrwt>
<pdfrwt beam="1">  1        2 0.26534433E-01 0.46968335E+03</pdfrwt>
<pdfrwt beam="2">  1       -2 0.42417439E-01 0.46968335E+03</pdfrwt>
<totfact> 0.10785370E+03</totfact>
</mgrwt>
</event>
<event>
 4    1  0.6165923E-005  0.1382477E+04  0.7818608E-02  0.8966601E-01
          2   -1    0    0  501    0  0.00000000000E+00  0.00000000000E+00  0.35642810701E+04  0.35642810701E+04  0.25500000000E-02 0.  1.
         -2   -1    0    0    0  501 -0.00000000000E+00 -0.00000000000E+00 -0.13405520320E+03  0.13405520322E+03  0.25500000000E-02 0. -1.
    5000001    1    1    2    0    0 -0.50509954593E+03 -0.43280893579E+03  0.17262387910E+04  0.18594874266E+04  0.18800000000E+03 0.  0.
   -5000001    1    1    2    0    0  0.50509954593E+03  0.43280893579E+03  0.17039870759E+04  0.18388488467E+04  0.18800000000E+03 0.  0.
<mgrwt>
<rscale>  0 0.13824767E+04</rscale>
<asrwt>0</asrwt>
<pdfrwt beam="1">  1        2 0.50918293E+00 0.13824767E+04</pdfrwt>
<pdfrwt beam="2">  1       -2 0.19150746E-01 0.13824767E+04</pdfrwt>
<totfact> 0.25053196E+01</totfact>
</mgrwt>
</event>
<event>
 4    1  0.6165923E-005  0.1036675E+04  0.7818608E-02  0.9269210E-01
         -2   -1    0    0    0  501 -0.00000000000E+00  0.00000000000E+00  0.16539711126E+04  0.16539711126E+04  0.25500000000E-02 0. -1.
          2   -1    0    0  501    0  0.00000000000E+00 -0.00000000000E+00 -0.16244171247E+03  0.16244171249E+03  0.25500000000E-02 0.  1.
    5000001    1    1    2    0    0  0.46828435641E+03 -0.85954151145E+02  0.88866498769E+03  0.10255475683E+04  0.18800000000E+03 0.  0.
   -5000001    1    1    2    0    0 -0.46828435641E+03  0.85954151145E+02  0.60286441245E+03  0.79086525677E+03  0.18800000000E+03 0.  0.
<mgrwt>
<rscale>  0 0.10366753E+04</rscale>
<asrwt>0</asrwt>
<pdfrwt beam="1">  1        2 0.23205958E-01 0.10366753E+04</pdfrwt>
<pdfrwt beam="2">  1       -2 0.23628160E+00 0.10366753E+04</pdfrwt>
<totfact> 0.18706632E+01</totfact>
</mgrwt>
</event>
<event>
 4    1  0.6165923E-005  0.6248636E+03  0.7818608E-02  0.9855124E-01
         -2   -1    0    0    0  501 -0.00000000000E+00  0.00000000000E+00  0.16827194202E+04  0.16827194202E+04  0.25500000000E-02 0. -1.
          2   -1    0    0  501    0  0.00000000000E+00 -0.00000000000E+00 -0.58009446480E+02  0.58009446536E+02  0.25500000000E-02 0.  1.
    5000001    1    1    2    0    0 -0.17954389437E+03  0.16746561231E+03  0.93659180172E+03  0.98632091348E+03  0.18800000000E+03 0.  0.
   -5000001    1    1    2    0    0  0.17954389437E+03 -0.16746561231E+03  0.68811817201E+03  0.75440795328E+03  0.18800000000E+03 0.  0.
<mgrwt>
<rscale>  0 0.62486358E+03</rscale>
<asrwt>0</asrwt>
<pdfrwt beam="1">  1        2 0.82870649E-02 0.62486358E+03</pdfrwt>
<pdfrwt beam="2">  1       -2 0.24038846E+00 0.62486358E+03</pdfrwt>
<totfact> 0.64523583E+01</totfact>
</mgrwt>
</event>
<event>
 4    1  0.6165923E-005  0.5471697E+03  0.7818608E-02  0.1002151E+00
         -2   -1    0    0    0  501 -0.00000000000E+00  0.00000000000E+00  0.24468983651E+03  0.24468983653E+03  0.25500000000E-02 0. -1.
          2   -1    0    0  501    0  0.00000000000E+00 -0.00000000000E+00 -0.30589206049E+03  0.30589206050E+03  0.25500000000E-02 0.  1.
    5000001    1    1    2    0    0  0.19132001460E+03  0.50962192447E+02 -0.13051443088E+02  0.27334014197E+03  0.18800000000E+03 0.  0.
   -5000001    1    1    2    0    0 -0.19132001460E+03 -0.50962192447E+02 -0.48150780885E+02  0.27724175505E+03  0.18800000000E+03 0.  0.
<mgrwt>
<rscale>  0 0.54716973E+03</rscale>
<asrwt>0</asrwt>
<pdfrwt beam="1">  1        2 0.43698866E-01 0.54716973E+03</pdfrwt>
<pdfrwt beam="2">  1       -2 0.34955691E-01 0.54716973E+03</pdfrwt>
<totfact> 0.89877224E+02</totfact>
</mgrwt>
</event>
<event>
 4    1  0.6165923E-005  0.8146823E+03  0.7818608E-02  0.9539005E-01
         -2   -1    0    0    0  501 -0.00000000000E+00  0.00000000000E+00  0.21493700771E+03  0.21493700773E+03  0.25500000000E-02 0. -1.
          2   -1    0    0  501    0  0.00000000000E+00 -0.00000000000E+00 -0.77197870445E+03  0.77197870445E+03  0.25500000000E-02 0.  1.
    5000001    1    1    2    0    0 -0.17673693790E+03  0.27829776814E+03 -0.99259731185E+02  0.39227807382E+03  0.18800000000E+03 0.  0.
   -5000001    1    1    2    0    0  0.17673693790E+03 -0.27829776814E+03 -0.45778196555E+03  0.59463763836E+03  0.18800000000E+03 0.  0.
<mgrwt>
<rscale>  0 0.81468225E+03</rscale>
<asrwt>0</asrwt>
<pdfrwt beam="1">  1        2 0.11028267E+00 0.81468225E+03</pdfrwt>
<pdfrwt beam="2">  1       -2 0.30705287E-01 0.81468225E+03</pdfrwt>
<totfact> 0.39162013E+02</totfact>
</mgrwt>
</event>
<event>
 4    1  0.6165923E-005  0.6159639E+03  0.7818608E-02  0.9872829E-01
         -2   -1    0    0    0  501 -0.00000000000E+00  0.00000000000E+00  0.50799137043E+02  0.50799137107E+02  0.25500000000E-02 0. -1.
          2   -1    0    0  501    0  0.00000000000E+00 -0.00000000000E+00 -0.18672143578E+04  0.18672143578E+04  0.25500000000E-02 0.  1.
    5000001    1    1    2    0    0 -0.16071821683E+03  0.57855995971E+02 -0.14505097546E+04  0.14725828363E+04  0.18800000000E+03 0.  0.
   -5000001    1    1    2    0    0  0.16071821683E+03 -0.57855995971E+02 -0.36590546615E+03  0.44543065863E+03  0.18800000000E+03 0.  0.
<mgrwt>
<rscale>  0 0.61596389E+03</rscale>
<asrwt>0</asrwt>
<pdfrwt beam="1">  1        2 0.26674487E+00 0.61596389E+03</pdfrwt>
<pdfrwt beam="2">  1       -2 0.72570207E-02 0.61596389E+03</pdfrwt>
<totfact> 0.11050295E+03</totfact>
</mgrwt>
</event>
<event>
 4    1  0.6165923E-005  0.6103389E+03  0.7818608E-02  0.9884185E-01
          2   -1    0    0  501    0  0.00000000000E+00  0.00000000000E+00  0.13494431364E+04  0.13494431364E+04  0.25500000000E-02 0.  1.
         -2   -1    0    0    0  501 -0.00000000000E+00 -0.00000000000E+00 -0.69012451806E+02  0.69012451853E+02  0.25500000000E-02 0. -1.
    5000001    1    1    2    0    0  0.13887068265E+03 -0.18599618988E+03  0.78543996106E+03  0.84032111814E+03  0.18800000000E+03 0.  0.
   -5000001    1    1    2    0    0 -0.13887068265E+03  0.18599618988E+03  0.49499072349E+03  0.57813447008E+03  0.18800000000E+03 0.  0.
<mgrwt>
<rscale>  0 0.61033885E+03</rscale>
<asrwt>0</asrwt>
<pdfrwt beam="1">  1        2 0.19277760E+00 0.61033885E+03</pdfrwt>
<pdfrwt beam="2">  1       -2 0.98589213E-02 0.61033885E+03</pdfrwt>
<totfact> 0.12519880E+03</totfact>
</mgrwt>
</event>
<event>
 4    1  0.6165923E-005  0.5619409E+03  0.7818608E-02  0.9987673E-01
          2   -1    0    0  501    0  0.00000000000E+00  0.00000000000E+00  0.25234673087E+03  0.25234673088E+03  0.25500000000E-02 0.  1.
         -2   -1    0    0    0  501 -0.00000000000E+00 -0.00000000000E+00 -0.31284092211E+03  0.31284092212E+03  0.25500000000E-02 0. -1.
    5000001    1    1    2    0    0 -0.13678271922E+03 -0.15617285405E+03 -0.52757458278E+02  0.28500319652E+03  0.18800000000E+03 0.  0.
   -5000001    1    1    2    0    0  0.13678271922E+03  0.15617285405E+03 -0.77367329665E+01  0.28018445649E+03  0.18800000000E+03 0.  0.
<mgrwt>
<rscale>  0 0.56194087E+03</rscale>
<asrwt>0</asrwt>
<pdfrwt beam="1">  1        2 0.36049533E-01 0.56194087E+03</pdfrwt>
<pdfrwt beam="2">  1       -2 0.44691560E-01 0.56194087E+03</pdfrwt>
<totfact> 0.69094650E+02</totfact>
</mgrwt>
</event>
<event>
 4    1  0.6165923E-005  0.4269753E+03  0.7818608E-02  0.1034820E+00
         -2   -1    0    0    0  501 -0.00000000000E+00  0.00000000000E+00  0.23801157509E+03  0.23801157511E+03  0.25500000000E-02 0. -1.
          2   -1    0    0  501    0  0.00000000000E+00 -0.00000000000E+00 -0.19149054849E+03  0.19149054851E+03  0.25500000000E-02 0.  1.
    5000001    1    1    2    0    0  0.95491254006E+02  0.17950284513E+02 -0.50516536419E+01  0.21168446214E+03  0.18800000000E+03 0.  0.
   -5000001    1    1    2    0    0 -0.95491254006E+02 -0.17950284513E+02  0.51572680243E+02  0.21781766148E+03  0.18800000000E+03 0.  0.
<mgrwt>
<rscale>  0 0.42697525E+03</rscale>
<asrwt>0</asrwt>
<pdfrwt beam="1">  1        2 0.27355793E-01 0.42697525E+03</pdfrwt>
<pdfrwt beam="2">  1       -2 0.34001654E-01 0.42697525E+03</pdfrwt>
<totfact> 0.15896437E+03</totfact>
</mgrwt>
</event>
<event>
 4    1  0.6165923E-005  0.5617497E+03  0.7818608E-02  0.9988103E-01
         -2   -1    0    0    0  501 -0.00000000000E+00  0.00000000000E+00  0.35561965338E+03  0.35561965339E+03  0.25500000000E-02 0. -1.
          2   -1    0    0  501    0  0.00000000000E+00 -0.00000000000E+00 -0.22184001139E+03  0.22184001140E+03  0.25500000000E-02 0.  1.
    5000001    1    1    2    0    0  0.11439789381E+03  0.10664582321E+03  0.20890720724E+03  0.32163089241E+03  0.18800000000E+03 0.  0.
   -5000001    1    1    2    0    0 -0.11439789381E+03 -0.10664582321E+03 -0.75127565253E+02  0.25582877238E+03  0.18800000000E+03 0.  0.
<mgrwt>
<rscale>  0 0.56174965E+03</rscale>
<asrwt>0</asrwt>
<pdfrwt beam="1">  1        2 0.31691430E-01 0.56174965E+03</pdfrwt>
<pdfrwt beam="2">  1       -2 0.50802807E-01 0.56174965E+03</pdfrwt>
<totfact> 0.61680049E+02</totfact>
</mgrwt>
</event>
<event>
 4    1  0.6165923E-005  0.4873425E+03  0.7818608E-02  0.1017137E+00
          2   -1    0    0  501    0  0.00000000000E+00  0.00000000000E+00  0.17978305272E+04  0.17978305272E+04  0.25500000000E-02 0.  1.
         -2   -1    0    0    0  501 -0.00000000000E+00 -0.00000000000E+00 -0.33026291874E+02  0.33026291973E+02  0.25500000000E-02 0. -1.
    5000001    1    1    2    0    0  0.22183529525E+02  0.87112788524E+02  0.13568768540E+04  0.13727853233E+04  0.18800000000E+03 0.  0.
   -5000001    1    1    2    0    0 -0.22183529525E+02 -0.87112788524E+02  0.40792738128E+03  0.45807149585E+03  0.18800000000E+03 0.  0.
<mgrwt>
<rscale>  0 0.48734249E+03</rscale>
<asrwt>0</asrwt>
<pdfrwt beam="1">  1        2 0.25683293E+00 0.48734249E+03</pdfrwt>
<pdfrwt beam="2">  1       -2 0.47180418E-02 0.48734249E+03</pdfrwt>
<totfact> 0.23578681E+03</totfact>
</mgrwt>
</event>
<event>
 4    1  0.6165923E-005  0.6736639E+03  0.7818608E-02  0.9763361E-01
          2   -1    0    0  501    0  0.00000000000E+00  0.00000000000E+00  0.62884410540E+03  0.62884410540E+03  0.25500000000E-02 0.  1.
         -2   -1    0    0    0  501 -0.00000000000E+00 -0.00000000000E+00 -0.18041954181E+03  0.18041954183E+03  0.25500000000E-02 0. -1.
    5000001    1    1    2    0    0  0.22631209027E+03  0.13321710961E+03  0.10931620552E+03  0.34096626414E+03  0.18800000000E+03 0.  0.
   -5000001    1    1    2    0    0 -0.22631209027E+03 -0.13321710961E+03  0.33910835807E+03  0.46829738309E+03  0.18800000000E+03 0.  0.
<mgrwt>
<rscale>  0 0.67366391E+03</rscale>
<asrwt>0</asrwt>
<pdfrwt beam="1">  1        2 0.89834872E-01 0.67366391E+03</pdfrwt>
<pdfrwt beam="2">  1       -2 0.25774220E-01 0.67366391E+03</pdfrwt>
<totfact> 0.69817318E+02</totfact>
</mgrwt>
</event>
<event>
 4    1  0.6165923E-005  0.6725964E+03  0.7818608E-02  0.9765279E-01
         -2   -1    0    0    0  501 -0.00000000000E+00  0.00000000000E+00  0.85146003796E+03  0.85146003796E+03  0.25500000000E-02 0. -1.
          2   -1    0    0  501    0  0.00000000000E+00 -0.00000000000E+00 -0.13282652092E+03  0.13282652095E+03  0.25500000000E-02 0.  1.
    5000001    1    1    2    0    0 -0.23584608287E+03 -0.59527910988E+02  0.55882207433E+03  0.63780330648E+03  0.18800000000E+03 0.  0.
   -5000001    1    1    2    0    0  0.23584608287E+03  0.59527910988E+02  0.15981144270E+03  0.34648325243E+03  0.18800000000E+03 0.  0.
<mgrwt>
<rscale>  0 0.67259639E+03</rscale>
<asrwt>0</asrwt>
<pdfrwt beam="1">  1        2 0.18975218E-01 0.67259639E+03</pdfrwt>
<pdfrwt beam="2">  1       -2 0.12163714E+00 0.67259639E+03</pdfrwt>
<totfact> 0.15705524E+02</totfact>
</mgrwt>
</event>
<event>
 4    1  0.6165923E-005  0.1243423E+04  0.7818608E-02  0.9075675E-01
         -2   -1    0    0    0  501 -0.00000000000E+00  0.00000000000E+00  0.11921020112E+03  0.11921020115E+03  0.25500000000E-02 0. -1.
          2   -1    0    0  501    0  0.00000000000E+00 -0.00000000000E+00 -0.32423819347E+04  0.32423819347E+04  0.25500000000E-02 0.  1.
    5000001    1    1    2    0    0 -0.38429419091E+03  0.32177995220E+03 -0.70684975749E+03  0.88668198497E+03  0.18800000000E+03 0.  0.
   -5000001    1    1    2    0    0  0.38429419091E+03 -0.32177995220E+03 -0.24163219761E+04  0.24749101509E+04  0.18800000000E+03 0.  0.
<mgrwt>
<rscale>  0 0.12434227E+04</rscale>
<asrwt>0</asrwt>
<pdfrwt beam="1">  1        2 0.46319737E+00 0.12434227E+04</pdfrwt>
<pdfrwt beam="2">  1       -2 0.17030031E-01 0.12434227E+04</pdfrwt>
<totfact> 0.48375270E+01</totfact>
</mgrwt>
</event>
<event>
 4    1  0.6165923E-005  0.8591704E+03  0.7818608E-02  0.9478111E-01
         -2   -1    0    0    0  501 -0.00000000000E+00  0.00000000000E+00  0.11065862008E+03  0.11065862011E+03  0.25500000000E-02 0. -1.
          2   -1    0    0  501    0  0.00000000000E+00 -0.00000000000E+00 -0.16676823200E+04  0.16676823201E+04  0.25500000000E-02 0.  1.
    5000001    1    1    2    0    0  0.22441174267E+03 -0.21464196102E+03 -0.30304580498E+03  0.47287689898E+03  0.18800000000E+03 0.  0.
   -5000001    1    1    2    0    0 -0.22441174267E+03  0.21464196102E+03 -0.12539778950E+04  0.13054640412E+04  0.18800000000E+03 0.  0.
<mgrwt>
<rscale>  0 0.85917035E+03</rscale>
<asrwt>0</asrwt>
<pdfrwt beam="1">  1        2 0.23824032E+00 0.85917035E+03</pdfrwt>
<pdfrwt beam="2">  1       -2 0.15808375E-01 0.85917035E+03</pdfrwt>
<totfact> 0.38468378E+02</totfact>
</mgrwt>
</event>
<event>
 4    1  0.6165923E-005  0.7417015E+03  0.7818608E-02  0.9648460E-01
         -2   -1    0    0    0  501 -0.00000000000E+00  0.00000000000E+00  0.16234766634E+03  0.16234766636E+03  0.25500000000E-02 0. -1.
          2   -1    0    0  501    0  0.00000000000E+00 -0.00000000000E+00 -0.84713431573E+03  0.84713431573E+03  0.25500000000E-02 0.  1.
    5000001    1    1    2    0    0 -0.14007623381E+03 -0.23038850181E+03 -0.10868303603E+03  0.34620256407E+03  0.18800000000E+03 0.  0.
   -5000001    1    1    2    0    0  0.14007623381E+03  0.23038850181E+03 -0.57610361336E+03  0.66327941802E+03  0.18800000000E+03 0.  0.
<mgrwt>
<rscale>  0 0.74170150E+03</rscale>
<asrwt>0</asrwt>
<pdfrwt beam="1">  1        2 0.12101919E+00 0.74170150E+03</pdfrwt>
<pdfrwt beam="2">  1       -2 0.23192524E-01 0.74170150E+03</pdfrwt>
<totfact> 0.58055930E+02</totfact>
</mgrwt>
</event>
<event>
 4    1  0.6165923E-005  0.7540113E+03  0.7818608E-02  0.9629078E-01
          2   -1    0    0  501    0  0.00000000000E+00  0.00000000000E+00  0.19022088710E+04  0.19022088710E+04  0.25500000000E-02 0.  1.
         -2   -1    0    0    0  501 -0.00000000000E+00 -0.00000000000E+00 -0.74720113171E+02  0.74720113215E+02  0.25500000000E-02 0. -1.
    5000001    1    1    2    0    0 -0.11578277295E+03  0.27170424042E+03  0.54705167403E+03  0.64949086124E+03  0.18800000000E+03 0.  0.
   -5000001    1    1    2    0    0  0.11578277295E+03 -0.27170424042E+03  0.12804370838E+04  0.13274381230E+04  0.18800000000E+03 0.  0.
<mgrwt>
<rscale>  0 0.75401131E+03</rscale>
<asrwt>0</asrwt>
<pdfrwt beam="1">  1        2 0.27174408E+00 0.75401131E+03</pdfrwt>
<pdfrwt beam="2">  1       -2 0.10674303E-01 0.75401131E+03</pdfrwt>
<totfact> 0.56570197E+02</totfact>
</mgrwt>
</event>
<event>
 4    1  0.6165923E-005  0.4711618E+03  0.7818608E-02  0.1021593E+00
          2   -1    0    0  501    0  0.00000000000E+00  0.00000000000E+00  0.11783457929E+03  0.11783457932E+03  0.25500000000E-02 0.  1.
         -2   -1    0    0    0  501 -0.00000000000E+00 -0.00000000000E+00 -0.47098539568E+03  0.47098539569E+03  0.25500000000E-02 0. -1.
    5000001    1    1    2    0    0  0.59726791063E+02 -0.84363784610E+02 -0.54961431013E+02  0.22147075794E+03  0.18800000000E+03 0.  0.
   -5000001    1    1    2    0    0 -0.59726791063E+02  0.84363784610E+02 -0.29818938538E+03  0.36734921707E+03  0.18800000000E+03 0.  0.
<mgrwt>
<rscale>  0 0.47116182E+03</rscale>
<asrwt>0</asrwt>
<pdfrwt beam="1">  1        2 0.16833511E-01 0.47116182E+03</pdfrwt>
<pdfrwt beam="2">  1       -2 0.67283627E-01 0.47116182E+03</pdfrwt>
<totfact> 0.71064106E+02</totfact>
</mgrwt>
</event>
<event>
 4    1  0.6165923E-005  0.1637405E+04  0.7818608E-02  0.8797892E-01
         -2   -1    0    0    0  501 -0.00000000000E+00  0.00000000000E+00  0.22267573025E+03  0.22267573027E+03  0.25500000000E-02 0. -1.
          2   -1    0    0  501    0  0.00000000000E+00 -0.00000000000E+00 -0.30100896605E+04  0.30100896605E+04  0.25500000000E-02 0.  1.
    5000001    1    1    2    0    0 -0.38436025331E+03 -0.28430879867E+03 -0.13513947152E+03  0.53119767892E+03  0.18800000000E+03 0.  0.
   -5000001    1    1    2    0    0  0.38436025331E+03  0.28430879867E+03 -0.26522744587E+04  0.27015677119E+04  0.18800000000E+03 0.  0.
<mgrwt>
<rscale>  0 0.16374052E+04</rscale>
<asrwt>0</asrwt>
<pdfrwt beam="1">  1        2 0.43001278E+00 0.16374052E+04</pdfrwt>
<pdfrwt beam="2">  1       -2 0.31810820E-01 0.16374052E+04</pdfrwt>
<totfact> 0.20563362E+01</totfact>
</mgrwt>
</event>
<event>
 4    1  0.6165923E-005  0.4809931E+03  0.7818608E-02  0.1018863E+00
          2   -1    0    0  501    0  0.00000000000E+00  0.00000000000E+00  0.22596922973E+04  0.22596922973E+04  0.25500000000E-02 0.  1.
         -2   -1    0    0    0  501 -0.00000000000E+00 -0.00000000000E+00 -0.25595778975E+02  0.25595779102E+02  0.25500000000E-02 0. -1.
    5000001    1    1    2    0    0 -0.57755035571E+02  0.18098320957E+02  0.17690418612E+04  0.17800326682E+04  0.18800000000E+03 0.  0.
   -5000001    1    1    2    0    0  0.57755035571E+02 -0.18098320957E+02  0.46505465712E+03  0.50525540815E+03  0.18800000000E+03 0.  0.
<mgrwt>
<rscale>  0 0.48099308E+03</rscale>
<asrwt>0</asrwt>
<pdfrwt beam="1">  1        2 0.32281313E+00 0.48099308E+03</pdfrwt>
<pdfrwt beam="2">  1       -2 0.36565404E-02 0.48099308E+03</pdfrwt>
<totfact> 0.20487854E+03</totfact>
</mgrwt>
</event>
<event>
 4    1  0.6165923E-005  0.4877322E+03  0.7818608E-02  0.1017032E+00
          2   -1    0    0  501    0  0.00000000000E+00  0.00000000000E+00  0.25343152957E+04  0.25343152957E+04  0.25500000000E-02 0. -1.
         -2   -1    0    0    0  501 -0.00000000000E+00 -0.00000000000E+00 -0.23466167738E+02  0.23466167876E+02  0.25500000000E-02 0.  1.
    5000001    1    1    2    0    0 -0.95719245011E+02  0.12232606757E+03  0.12601946166E+04  0.12835732594E+04  0.18800000000E+03 0.  0.
   -5000001    1    1    2    0    0  0.95719245011E+02 -0.12232606757E+03  0.12506545114E+04  0.12742082042E+04  0.18800000000E+03 0.  0.
<mgrwt>
<rscale>  0 0.48773217E+03</rscale>
<asrwt>0</asrwt>
<pdfrwt beam="1">  1        2 0.36204490E+00 0.48773217E+03</pdfrwt>
<pdfrwt beam="2">  1       -2 0.33523110E-02 0.48773217E+03</pdfrwt>
<totfact> 0.16975378E+03</totfact>
</mgrwt>
</event>
<event>
 4    1  0.6165923E-005  0.6073299E+03  0.7818608E-02  0.9890314E-01
         -2   -1    0    0    0  501 -0.00000000000E+00  0.00000000000E+00  0.86232371425E+02  0.86232371463E+02  0.25500000000E-02 0. -1.
          2   -1    0    0  501    0  0.00000000000E+00 -0.00000000000E+00 -0.10693478441E+04  0.10693478441E+04  0.25500000000E-02 0.  1.
    5000001    1    1    2    0    0  0.16518791627E+03 -0.15315408978E+03 -0.34264399293E+03  0.45110101839E+03  0.18800000000E+03 0.  0.
   -5000001    1    1    2    0    0 -0.16518791627E+03  0.15315408978E+03 -0.64047147974E+03  0.70447919718E+03  0.18800000000E+03 0.  0.
<mgrwt>
<rscale>  0 0.60732990E+03</rscale>
<asrwt>0</asrwt>
<pdfrwt beam="1">  1        2 0.15276397E+00 0.60732990E+03</pdfrwt>
<pdfrwt beam="2">  1       -2 0.12318911E-01 0.60732990E+03</pdfrwt>
<totfact> 0.12488152E+03</totfact>
</mgrwt>
</event>
<event>
 4    1  0.6165923E-005  0.6602077E+03  0.7818608E-02  0.9787811E-01
         -2   -1    0    0    0  501 -0.00000000000E+00  0.00000000000E+00  0.12568922928E+03  0.12568922930E+03  0.25500000000E-02 0.  1.
          2   -1    0    0  501    0  0.00000000000E+00 -0.00000000000E+00 -0.86696820347E+03  0.86696820348E+03  0.25500000000E-02 0. -1.
    5000001    1    1    2    0    0  0.20574593261E+03 -0.13445115069E+03 -0.19778929632E+03  0.36725074057E+03  0.18800000000E+03 0.  0.
   -5000001    1    1    2    0    0 -0.20574593261E+03  0.13445115069E+03 -0.54348967788E+03  0.62540669222E+03  0.18800000000E+03 0.  0.
<mgrwt>
<rscale>  0 0.66020774E+03</rscale>
<asrwt>0</asrwt>
<pdfrwt beam="1">  1        2 0.12385260E+00 0.66020774E+03</pdfrwt>
<pdfrwt beam="2">  1       -2 0.17955605E-01 0.66020774E+03</pdfrwt>
<totfact> 0.88372833E+02</totfact>
</mgrwt>
</event>
<event>
 4    1  0.6165923E-005  0.9596864E+03  0.7818608E-02  0.9353900E-01
          2   -1    0    0  501    0  0.00000000000E+00  0.00000000000E+00  0.17025111116E+04  0.17025111116E+04  0.25500000000E-02 0.  1.
         -2   -1    0    0    0  501 -0.00000000000E+00 -0.00000000000E+00 -0.13524110903E+03  0.13524110906E+03  0.25500000000E-02 0. -1.
    5000001    1    1    2    0    0 -0.40537807276E+03 -0.11633813738E+03  0.10336042824E+04  0.11320546615E+04  0.18800000000E+03 0.  0.
   -5000001    1    1    2    0    0  0.40537807276E+03  0.11633813738E+03  0.53366572017E+03  0.70569755914E+03  0.18800000000E+03 0.  0.
<mgrwt>
<rscale>  0 0.95968639E+03</rscale>
<asrwt>0</asrwt>
<pdfrwt beam="1">  1        2 0.24321586E+00 0.95968639E+03</pdfrwt>
<pdfrwt beam="2">  1       -2 0.19320160E-01 0.95968639E+03</pdfrwt>
<totfact> 0.25957021E+02</totfact>
</mgrwt>
</event>
<event>
 4    1  0.6165923E-005  0.6050995E+03  0.7818608E-02  0.9894882E-01
         -2   -1    0    0    0  501 -0.00000000000E+00  0.00000000000E+00  0.49405634578E+02  0.49405634644E+02  0.25500000000E-02 0. -1.
          2   -1    0    0  501    0  0.00000000000E+00 -0.00000000000E+00 -0.18527514001E+04  0.18527514001E+04  0.25500000000E-02 0.  1.
    5000001    1    1    2    0    0 -0.22777523093E+03 -0.20471397248E+02 -0.70556700286E+03  0.76515974113E+03  0.18800000000E+03 0.  0.
   -5000001    1    1    2    0    0  0.22777523093E+03  0.20471397248E+02 -0.10977787627E+04  0.11369972936E+04  0.18800000000E+03 0.  0.
<mgrwt>
<rscale>  0 0.60509952E+03</rscale>
<asrwt>0</asrwt>
<pdfrwt beam="1">  1        2 0.26467873E+00 0.60509952E+03</pdfrwt>
<pdfrwt beam="2">  1       -2 0.70579490E-02 0.60509952E+03</pdfrwt>
<totfact> 0.11749501E+03</totfact>
</mgrwt>
</event>
<event>
 4    1  0.6165923E-005  0.4640041E+03  0.7818608E-02  0.1023626E+00
         -2   -1    0    0    0  501 -0.00000000000E+00  0.00000000000E+00  0.26312122723E+03  0.26312122725E+03  0.25500000000E-02 0. -1.
          2   -1    0    0  501    0  0.00000000000E+00 -0.00000000000E+00 -0.20456335604E+03  0.20456335605E+03  0.25500000000E-02 0.  1.
    5000001    1    1    2    0    0  0.56615401035E+02 -0.11771653787E+03 -0.86824400531E+01  0.22908922211E+03  0.18800000000E+03 0.  0.
   -5000001    1    1    2    0    0 -0.56615401035E+02  0.11771653787E+03  0.67240311249E+02  0.23859536119E+03  0.18800000000E+03 0.  0.
<mgrwt>
<rscale>  0 0.46400414E+03</rscale>
<asrwt>0</asrwt>
<pdfrwt beam="1">  1        2 0.29223337E-01 0.46400414E+03</pdfrwt>
<pdfrwt beam="2">  1       -2 0.37588747E-01 0.46400414E+03</pdfrwt>
<totfact> 0.12220076E+03</totfact>
</mgrwt>
</event>
<event>
 4    1  0.6165923E-005  0.4908487E+03  0.7818608E-02  0.1016196E+00
          2   -1    0    0  501    0  0.00000000000E+00  0.00000000000E+00  0.20224211262E+03  0.20224211264E+03  0.25500000000E-02 0.  1.
         -2   -1    0    0    0  501 -0.00000000000E+00 -0.00000000000E+00 -0.29782671772E+03  0.29782671773E+03  0.25500000000E-02 0. -1.
    5000001    1    1    2    0    0  0.13304959173E+03 -0.79177828580E+02 -0.78656286135E+02  0.25593384643E+03  0.18800000000E+03 0.  0.
   -5000001    1    1    2    0    0 -0.13304959173E+03  0.79177828580E+02 -0.16928318964E+02  0.24413498394E+03  0.18800000000E+03 0.  0.
<mgrwt>
<rscale>  0 0.49084867E+03</rscale>
<asrwt>0</asrwt>
<pdfrwt beam="1">  1        2 0.28891730E-01 0.49084867E+03</pdfrwt>
<pdfrwt beam="2">  1       -2 0.42546674E-01 0.49084867E+03</pdfrwt>
<totfact> 0.97438930E+02</totfact>
</mgrwt>
</event>
<event>
 4    1  0.6165923E-005  0.5802977E+03  0.7818608E-02  0.9947147E-01
         -2   -1    0    0    0  501 -0.00000000000E+00  0.00000000000E+00  0.10338075667E+03  0.10338075670E+03  0.25500000000E-02 0. -1.
          2   -1    0    0  501    0  0.00000000000E+00 -0.00000000000E+00 -0.81433298684E+03  0.81433298685E+03  0.25500000000E-02 0.  1.
    5000001    1    1    2    0    0  0.13476010118E+03  0.32900130636E+02 -0.62755805259E+03  0.66963856881E+03  0.18800000000E+03 0.  0.
   -5000001    1    1    2    0    0 -0.13476010118E+03 -0.32900130636E+02 -0.83394177586E+02  0.24807517474E+03  0.18800000000E+03 0.  0.
<mgrwt>
<rscale>  0 0.58029772E+03</rscale>
<asrwt>0</asrwt>
<pdfrwt beam="1">  1        2 0.11633328E+00 0.58029772E+03</pdfrwt>
<pdfrwt beam="2">  1       -2 0.14768680E-01 0.58029772E+03</pdfrwt>
<totfact> 0.13387076E+03</totfact>
</mgrwt>
</event>
<event>
 4    1  0.6165923E-005  0.4099335E+03  0.7818608E-02  0.1040393E+00
         -2   -1    0    0    0  501 -0.00000000000E+00  0.00000000000E+00  0.11436322253E+03  0.11436322256E+03  0.25500000000E-02 0. -1.
          2   -1    0    0  501    0  0.00000000000E+00 -0.00000000000E+00 -0.36735026774E+03  0.36735026775E+03  0.25500000000E-02 0.  1.
    5000001    1    1    2    0    0  0.41488593841E+02 -0.69497296424E+02 -0.13915972286E+03  0.24750880004E+03  0.18800000000E+03 0.  0.
   -5000001    1    1    2    0    0 -0.41488593841E+02  0.69497296424E+02 -0.11382732235E+03  0.23420469026E+03  0.18800000000E+03 0.  0.
<mgrwt>
<rscale>  0 0.40993346E+03</rscale>
<asrwt>0</asrwt>
<pdfrwt beam="1">  1        2 0.52478609E-01 0.40993346E+03</pdfrwt>
<pdfrwt beam="2">  1       -2 0.16337603E-01 0.40993346E+03</pdfrwt>
<totfact> 0.28410202E+03</totfact>
</mgrwt>
</event>
<event>
 4    1  0.6165923E-005  0.6091987E+03  0.7818608E-02  0.9886503E-01
         -2   -1    0    0    0  501 -0.00000000000E+00  0.00000000000E+00  0.45154039253E+02  0.45154039325E+02  0.25500000000E-02 0. -1.
          2   -1    0    0  501    0  0.00000000000E+00 -0.00000000000E+00 -0.20547612121E+04  0.20547612121E+04  0.25500000000E-02 0.  1.
    5000001    1    1    2    0    0  0.23149366147E+03  0.36906622335E+02 -0.83295856481E+03  0.88550289935E+03  0.18800000000E+03 0.  0.
   -5000001    1    1    2    0    0 -0.23149366147E+03 -0.36906622335E+02 -0.11766486080E+04  0.12144123520E+04  0.18800000000E+03 0.  0.
<mgrwt>
<rscale>  0 0.60919871E+03</rscale>
<asrwt>0</asrwt>
<pdfrwt beam="1">  1        2 0.29353726E+00 0.60919871E+03</pdfrwt>
<pdfrwt beam="2">  1       -2 0.64505783E-02 0.60919871E+03</pdfrwt>
<totfact> 0.10715136E+03</totfact>
</mgrwt>
</event>
<event>
 4    1  0.6165923E-005  0.4361712E+03  0.7818608E-02  0.1031928E+00
         -2   -1    0    0    0  501 -0.00000000000E+00  0.00000000000E+00  0.21249381156E+02  0.21249381309E+02  0.25500000000E-02 0. -1.
          2   -1    0    0  501    0  0.00000000000E+00 -0.00000000000E+00 -0.22382452422E+04  0.22382452422E+04  0.25500000000E-02 0.  1.
    5000001    1    1    2    0    0  0.74960708698E+02  0.77495838936E+02 -0.98239066053E+03  0.10060119894E+04  0.18800000000E+03 0.  0.
   -5000001    1    1    2    0    0 -0.74960708698E+02 -0.77495838936E+02 -0.12346052005E+04  0.12534826341E+04  0.18800000000E+03 0.  0.
<mgrwt>
<rscale>  0 0.43617119E+03</rscale>
<asrwt>0</asrwt>
<pdfrwt beam="1">  1        2 0.31974917E+00 0.43617119E+03</pdfrwt>
<pdfrwt beam="2">  1       -2 0.30356273E-02 0.43617119E+03</pdfrwt>
<totfact> 0.27902549E+03</totfact>
</mgrwt>
</event>
<event>
 4    1  0.6165923E-005  0.5974993E+03  0.7818608E-02  0.9910608E-01
          2   -1    0    0  501    0  0.00000000000E+00  0.00000000000E+00  0.10922394792E+04  0.10922394792E+04  0.25500000000E-02 0.  1.
         -2   -1    0    0    0  501 -0.00000000000E+00 -0.00000000000E+00 -0.81714090790E+02  0.81714090830E+02  0.25500000000E-02 0. -1.
    5000001    1    1    2    0    0 -0.19731236551E+03 -0.94733210007E+01  0.26554814720E+03  0.38063332996E+03  0.18800000000E+03 0.  0.
   -5000001    1    1    2    0    0  0.19731236551E+03  0.94733210007E+01  0.74497724123E+03  0.79332024010E+03  0.18800000000E+03 0.  0.
<mgrwt>
<rscale>  0 0.59749931E+03</rscale>
<asrwt>0</asrwt>
<pdfrwt beam="1">  1        2 0.15603421E+00 0.59749931E+03</pdfrwt>
<pdfrwt beam="2">  1       -2 0.11673442E-01 0.59749931E+03</pdfrwt>
<totfact> 0.13232691E+03</totfact>
</mgrwt>
</event>
<event>
 4    1  0.6165923E-005  0.5838546E+03  0.7818608E-02  0.9939481E-01
         -2   -1    0    0    0  501 -0.00000000000E+00  0.00000000000E+00  0.36851202646E+03  0.36851202646E+03  0.25500000000E-02 0. -1.
          2   -1    0    0  501    0  0.00000000000E+00 -0.00000000000E+00 -0.23125854218E+03  0.23125854220E+03  0.25500000000E-02 0.  1.
    5000001    1    1    2    0    0  0.19045363492E+03  0.77280066228E+02  0.15837399964E+03  0.32042334412E+03  0.18800000000E+03 0.  0.
   -5000001    1    1    2    0    0 -0.19045363492E+03 -0.77280066228E+02 -0.21120515368E+02  0.27934722454E+03  0.18800000000E+03 0.  0.
<mgrwt>
<rscale>  0 0.58385462E+03</rscale>
<asrwt>0</asrwt>
<pdfrwt beam="1">  1        2 0.33036935E-01 0.58385462E+03</pdfrwt>
<pdfrwt beam="2">  1       -2 0.52644575E-01 0.58385462E+03</pdfrwt>
<totfact> 0.54744600E+02</totfact>
</mgrwt>
</event>
<event>
 4    1  0.6165923E-005  0.1663319E+04  0.7818608E-02  0.8782566E-01
         -2   -1    0    0    0  501 -0.00000000000E+00  0.00000000000E+00  0.56237951944E+03  0.56237951945E+03  0.25500000000E-02 0. -1.
          2   -1    0    0  501    0  0.00000000000E+00 -0.00000000000E+00 -0.12298767168E+04  0.12298767168E+04  0.25500000000E-02 0.  1.
    5000001    1    1    2    0    0  0.73337211547E+03 -0.48513102782E+02 -0.70093617934E+03  0.10328812654E+04  0.18800000000E+03 0.  0.
   -5000001    1    1    2    0    0 -0.73337211547E+03  0.48513102782E+02  0.33438981953E+02  0.75937497088E+03  0.18800000000E+03 0.  0.
<mgrwt>
<rscale>  0 0.16633189E+04</rscale>
<asrwt>0</asrwt>
<pdfrwt beam="1">  1        2 0.17569667E+00 0.16633189E+04</pdfrwt>
<pdfrwt beam="2">  1       -2 0.80339932E-01 0.16633189E+04</pdfrwt>
<totfact> 0.26921561E+01</totfact>
</mgrwt>
</event>
<event>
 4    1  0.6165923E-005  0.5574558E+03  0.7818608E-02  0.9997828E-01
          2   -1    0    0  501    0  0.00000000000E+00  0.00000000000E+00  0.61710128364E+03  0.61710128364E+03  0.25500000000E-02 0.  1.
         -2   -1    0    0    0  501 -0.00000000000E+00 -0.00000000000E+00 -0.12589383228E+03  0.12589383230E+03  0.25500000000E-02 0. -1.
    5000001    1    1    2    0    0  0.17901542455E+03 -0.56559269026E+02  0.13329907953E+03  0.29725093397E+03  0.18800000000E+03 0.  0.
   -5000001    1    1    2    0    0 -0.17901542455E+03  0.56559269026E+02  0.35790837183E+03  0.44574418198E+03  0.18800000000E+03 0.  0.
<mgrwt>
<rscale>  0 0.55745581E+03</rscale>
<asrwt>0</asrwt>
<pdfrwt beam="1">  1        2 0.88157325E-01 0.55745581E+03</pdfrwt>
<pdfrwt beam="2">  1       -2 0.17984833E-01 0.55745581E+03</pdfrwt>
<totfact> 0.13474470E+03</totfact>
</mgrwt>
</event>
<event>
 4    1  0.6165923E-005  0.4762676E+03  0.7818608E-02  0.1020166E+00
          2   -1    0    0  501    0  0.00000000000E+00  0.00000000000E+00  0.17811091117E+04  0.17811091117E+04  0.25500000000E-02 0.  1.
         -2   -1    0    0    0  501 -0.00000000000E+00 -0.00000000000E+00 -0.31838419834E+02  0.31838419936E+02  0.25500000000E-02 0. -1.
    5000001    1    1    2    0    0  0.10863160240E+03  0.97674629869E+02  0.85656257765E+03  0.88903577419E+03  0.18800000000E+03 0.  0.
   -5000001    1    1    2    0    0 -0.10863160240E+03 -0.97674629869E+02  0.89270811417E+03  0.92391175740E+03  0.18800000000E+03 0.  0.
<mgrwt>
<rscale>  0 0.47626757E+03</rscale>
<asrwt>0</asrwt>
<pdfrwt beam="1">  1        2 0.25444415E+00 0.47626757E+03</pdfrwt>
<pdfrwt beam="2">  1       -2 0.45483458E-02 0.47626757E+03</pdfrwt>
<totfact> 0.25439516E+03</totfact>
</mgrwt>
</event>
<event>
 4    1  0.6165923E-005  0.6260919E+03  0.7818608E-02  0.9852705E-01
         -2   -1    0    0    0  501 -0.00000000000E+00  0.00000000000E+00  0.11218708950E+03  0.11218708953E+03  0.25500000000E-02 0. -1.
          2   -1    0    0  501    0  0.00000000000E+00 -0.00000000000E+00 -0.87352100598E+03  0.87352100599E+03  0.25500000000E-02 0.  1.
    5000001    1    1    2    0    0  0.97874846043E+02  0.19942506173E+03 -0.19907344713E+03  0.35259619693E+03  0.18800000000E+03 0.  0.
   -5000001    1    1    2    0    0 -0.97874846043E+02 -0.19942506173E+03 -0.56226046935E+03  0.63311189859E+03  0.18800000000E+03 0.  0.
<mgrwt>
<rscale>  0 0.62609194E+03</rscale>
<asrwt>0</asrwt>
<pdfrwt beam="1">  1        2 0.12478871E+00 0.62609194E+03</pdfrwt>
<pdfrwt beam="2">  1       -2 0.16026728E-01 0.62609194E+03</pdfrwt>
<totfact> 0.10633608E+03</totfact>
</mgrwt>
</event>
<event>
 4    1  0.6165923E-005  0.4909509E+03  0.7818608E-02  0.1016168E+00
          2   -1    0    0  501    0  0.00000000000E+00  0.00000000000E+00  0.18321607621E+04  0.18321607621E+04  0.25500000000E-02 0.  1.
         -2   -1    0    0    0  501 -0.00000000000E+00 -0.00000000000E+00 -0.32889136410E+02  0.32889136509E+02  0.25500000000E-02 0. -1.
    5000001    1    1    2    0    0  0.38596500002E+02 -0.90886301144E+02  0.13674375611E+04  0.13838278409E+04  0.18800000000E+03 0.  0.
   -5000001    1    1    2    0    0 -0.38596500002E+02  0.90886301144E+02  0.43183406452E+03  0.48122205771E+03  0.18800000000E+03 0.  0.
<mgrwt>
<rscale>  0 0.49095085E+03</rscale>
<asrwt>0</asrwt>
<pdfrwt beam="1">  1        2 0.26173729E+00 0.49095085E+03</pdfrwt>
<pdfrwt beam="2">  1       -2 0.46984474E-02 0.49095085E+03</pdfrwt>
<totfact> 0.22806324E+03</totfact>
</mgrwt>
</event>
<event>
 4    1  0.6165923E-005  0.1841759E+04  0.7818608E-02  0.8684402E-01
          2   -1    0    0  501    0  0.00000000000E+00  0.00000000000E+00  0.16495817739E+04  0.16495817739E+04  0.25500000000E-02 0.  1.
         -2   -1    0    0    0  501 -0.00000000000E+00 -0.00000000000E+00 -0.51408150001E+03  0.51408150001E+03  0.25500000000E-02 0. -1.
    5000001    1    1    2    0    0 -0.85577853191E+03  0.13670860636E+02  0.23519864406E+03  0.90730710913E+03  0.18800000000E+03 0.  0.
   -5000001    1    1    2    0    0  0.85577853191E+03 -0.13670860636E+02  0.90030162983E+03  0.12563561648E+04  0.18800000000E+03 0.  0.
<mgrwt>
<rscale>  0 0.18417595E+04</rscale>
<asrwt>0</asrwt>
<pdfrwt beam="1">  1        2 0.23565454E+00 0.18417595E+04</pdfrwt>
<pdfrwt beam="2">  1       -2 0.73440213E-01 0.18417595E+04</pdfrwt>
<totfact> 0.19244751E+01</totfact>
</mgrwt>
</event>
<event>
 4    1  0.6165923E-005  0.7101598E+03  0.7818608E-02  0.9700014E-01
          2   -1    0    0  501    0  0.00000000000E+00  0.00000000000E+00  0.30849253053E+04  0.30849253053E+04  0.25500000000E-02 0.  1.
         -2   -1    0    0    0  501 -0.00000000000E+00 -0.00000000000E+00 -0.40870268411E+02  0.40870268491E+02  0.25500000000E-02 0. -1.
    5000001    1    1    2    0    0  0.21754441189E+03  0.20811127308E+03  0.15664486721E+04  0.16061573134E+04  0.18800000000E+03 0.  0.
   -5000001    1    1    2    0    0 -0.21754441189E+03 -0.20811127308E+03  0.14776063648E+04  0.15196382604E+04  0.18800000000E+03 0.  0.
<mgrwt>
<rscale>  0 0.71015977E+03</rscale>
<asrwt>0</asrwt>
<pdfrwt beam="1">  1        2 0.44070355E+00 0.71015977E+03</pdfrwt>
<pdfrwt beam="2">  1       -2 0.58386107E-02 0.71015977E+03</pdfrwt>
<totfact> 0.36101360E+02</totfact>
</mgrwt>
</event>
<event>
 4    1  0.6165923E-005  0.5722020E+03  0.7818608E-02  0.9964818E-01
         -2   -1    0    0    0  501 -0.00000000000E+00  0.00000000000E+00  0.14425612436E+03  0.14425612438E+03  0.25500000000E-02 0. -1.
          2   -1    0    0  501    0  0.00000000000E+00 -0.00000000000E+00 -0.56741970751E+03  0.56741970752E+03  0.25500000000E-02 0.  1.
    5000001    1    1    2    0    0  0.19837761017E+03  0.24904365113E+02 -0.11103125397E+03  0.29605040614E+03  0.18800000000E+03 0.  0.
   -5000001    1    1    2    0    0 -0.19837761017E+03 -0.24904365113E+02 -0.31213232919E+03  0.41562542576E+03  0.18800000000E+03 0.  0.
<mgrwt>
<rscale>  0 0.57220195E+03</rscale>
<asrwt>0</asrwt>
<pdfrwt beam="1">  1        2 0.81059957E-01 0.57220195E+03</pdfrwt>
<pdfrwt beam="2">  1       -2 0.20608018E-01 0.57220195E+03</pdfrwt>
<totfact> 0.11743473E+03</totfact>
</mgrwt>
</event>
<event>
 4    1  0.6165923E-005  0.8534103E+03  0.7818608E-02  0.9485771E-01
          2   -1    0    0  501    0  0.00000000000E+00  0.00000000000E+00  0.11426235632E+04  0.11426235632E+04  0.25500000000E-02 0.  1.
         -2   -1    0    0    0  501 -0.00000000000E+00 -0.00000000000E+00 -0.15935020648E+03  0.15935020650E+03  0.25500000000E-02 0. -1.
    5000001    1    1    2    0    0  0.20650346939E+03 -0.27704680324E+03  0.23940397996E+03  0.46049634056E+03  0.18800000000E+03 0.  0.
   -5000001    1    1    2    0    0 -0.20650346939E+03  0.27704680324E+03  0.74386937676E+03  0.84147742913E+03  0.18800000000E+03 0.  0.
<mgrwt>
<rscale>  0 0.85341034E+03</rscale>
<asrwt>0</asrwt>
<pdfrwt beam="1">  1        2 0.16323194E+00 0.85341034E+03</pdfrwt>
<pdfrwt beam="2">  1       -2 0.22764315E-01 0.85341034E+03</pdfrwt>
<totfact> 0.39188605E+02</totfact>
</mgrwt>
</event>
<event>
 4    1  0.6165923E-005  0.4678924E+03  0.7818608E-02  0.1022517E+00
          2   -1    0    0  501    0  0.00000000000E+00  0.00000000000E+00  0.70941154336E+03  0.70941154336E+03  0.25500000000E-02 0.  1.
         -2   -1    0    0    0  501 -0.00000000000E+00 -0.00000000000E+00 -0.77149612798E+02  0.77149612841E+02  0.25500000000E-02 0. -1.
    5000001    1    1    2    0    0  0.71401649599E+02  0.33474786054E+01  0.51699928110E+03  0.55474467806E+03  0.18800000000E+03 0.  0.
   -5000001    1    1    2    0    0 -0.71401649599E+02 -0.33474786054E+01  0.11526264946E+03  0.23181647815E+03  0.18800000000E+03 0.  0.
<mgrwt>
<rscale>  0 0.46789241E+03</rscale>
<asrwt>0</asrwt>
<pdfrwt beam="1">  1        2 0.10134451E+00 0.46789241E+03</pdfrwt>
<pdfrwt beam="2">  1       -2 0.11021373E-01 0.46789241E+03</pdfrwt>
<totfact> 0.25789655E+03</totfact>
</mgrwt>
</event>
<event>
 4    1  0.6165923E-005  0.7072271E+03  0.7818608E-02  0.9704952E-01
         -2   -1    0    0    0  501 -0.00000000000E+00  0.00000000000E+00  0.95079518292E+02  0.95079518326E+02  0.25500000000E-02 0. -1.
          2   -1    0    0  501    0  0.00000000000E+00 -0.00000000000E+00 -0.13151363311E+04  0.13151363311E+04  0.25500000000E-02 0.  1.
    5000001    1    1    2    0    0 -0.51113690719E+02  0.21555391035E+03 -0.20813611364E+03  0.35740836511E+03  0.18800000000E+03 0.  0.
   -5000001    1    1    2    0    0  0.51113690719E+02 -0.21555391035E+03 -0.10119206992E+04  0.10528074844E+04  0.18800000000E+03 0.  0.
<mgrwt>
<rscale>  0 0.70722706E+03</rscale>
<asrwt>0</asrwt>
<pdfrwt beam="1">  1        2 0.18787661E+00 0.70722706E+03</pdfrwt>
<pdfrwt beam="2">  1       -2 0.13582789E-01 0.70722706E+03</pdfrwt>
<totfact> 0.76872065E+02</totfact>
</mgrwt>
</event>
<event>
 4    1  0.6165923E-005  0.7204880E+03  0.7818608E-02  0.9682823E-01
          2   -1    0    0  501    0  0.00000000000E+00  0.00000000000E+00  0.75099762527E+03  0.75099762528E+03  0.25500000000E-02 0.  1.
         -2   -1    0    0    0  501 -0.00000000000E+00 -0.00000000000E+00 -0.17280446455E+03  0.17280446457E+03  0.25500000000E-02 0. -1.
    5000001    1    1    2    0    0  0.25459008046E+03 -0.10832261828E+03  0.46055480887E+03  0.56921404644E+03  0.18800000000E+03 0.  0.
   -5000001    1    1    2    0    0 -0.25459008046E+03  0.10832261828E+03  0.11763835186E+03  0.35458804340E+03  0.18800000000E+03 0.  0.
<mgrwt>
<rscale>  0 0.72048801E+03</rscale>
<asrwt>0</asrwt>
<pdfrwt beam="1">  1        2 0.10728537E+00 0.72048801E+03</pdfrwt>
<pdfrwt beam="2">  1       -2 0.24686352E-01 0.72048801E+03</pdfrwt>
<totfact> 0.60648820E+02</totfact>
</mgrwt>
</event>
<event>
 4    1  0.6165923E-005  0.7928809E+03  0.7818608E-02  0.9570379E-01
         -2   -1    0    0    0  501 -0.00000000000E+00  0.00000000000E+00  0.91740501434E+02  0.91740501470E+02  0.25500000000E-02 0. -1.
          2   -1    0    0  501    0  0.00000000000E+00 -0.00000000000E+00 -0.17131478254E+04  0.17131478254E+04  0.25500000000E-02 0.  1.
    5000001    1    1    2    0    0  0.78185455565E+02  0.29042899546E+03 -0.40759328419E+03  0.54031310569E+03  0.18800000000E+03 0.  0.
   -5000001    1    1    2    0    0 -0.78185455565E+02 -0.29042899546E+03 -0.12138140397E+04  0.12645752211E+04  0.18800000000E+03 0.  0.
<mgrwt>
<rscale>  0 0.79288093E+03</rscale>
<asrwt>0</asrwt>
<pdfrwt beam="1">  1        2 0.24473538E+00 0.79288093E+03</pdfrwt>
<pdfrwt beam="2">  1       -2 0.13105787E-01 0.79288093E+03</pdfrwt>
<totfact> 0.50194382E+02</totfact>
</mgrwt>
</event>
<event>
 4    1  0.6165923E-005  0.6080553E+03  0.7818608E-02  0.9888833E-01
         -2   -1    0    0    0  501 -0.00000000000E+00  0.00000000000E+00  0.12348825298E+03  0.12348825301E+03  0.25500000000E-02 0. -1.
          2   -1    0    0  501    0  0.00000000000E+00 -0.00000000000E+00 -0.74851502711E+03  0.74851502712E+03  0.25500000000E-02 0.  1.
    5000001    1    1    2    0    0 -0.14759921795E+03  0.13555157550E+03 -0.12592208875E+03  0.30225838482E+03  0.18800000000E+03 0.  0.
   -5000001    1    1    2    0    0  0.14759921795E+03 -0.13555157550E+03 -0.49910468538E+03  0.56974489531E+03  0.18800000000E+03 0.  0.
<mgrwt>
<rscale>  0 0.60805530E+03</rscale>
<asrwt>0</asrwt>
<pdfrwt beam="1">  1        2 0.10693072E+00 0.60805530E+03</pdfrwt>
<pdfrwt beam="2">  1       -2 0.17641179E-01 0.60805530E+03</pdfrwt>
<totfact> 0.11013007E+03</totfact>
</mgrwt>
</event>
<event>
 4    1  0.6165923E-005  0.4389317E+03  0.7818608E-02  0.1031075E+00
          2   -1    0    0  501    0  0.00000000000E+00  0.00000000000E+00  0.62873849975E+03  0.62873849975E+03  0.25500000000E-02 0. -1.
         -2   -1    0    0    0  501 -0.00000000000E+00 -0.00000000000E+00 -0.76606181036E+02  0.76606181078E+02  0.25500000000E-02 0.  1.
    5000001    1    1    2    0    0  0.34626067480E+02  0.10559831047E+03  0.24118045573E+03  0.32536438027E+03  0.18800000000E+03 0.  0.
   -5000001    1    1    2    0    0 -0.34626067480E+02 -0.10559831047E+03  0.31095186299E+03  0.37998030056E+03  0.18800000000E+03 0.  0.
<mgrwt>
<rscale>  0 0.43893168E+03</rscale>
<asrwt>0</asrwt>
<pdfrwt beam="1">  1        2 0.89819789E-01 0.43893168E+03</pdfrwt>
<pdfrwt beam="2">  1       -2 0.10943740E-01 0.43893168E+03</pdfrwt>
<totfact> 0.30121335E+03</totfact>
</mgrwt>
</event>
<event>
 4    1  0.6165923E-005  0.5747322E+03  0.7818608E-02  0.9959261E-01
          2   -1    0    0  501    0  0.00000000000E+00  0.00000000000E+00  0.30769745479E+04  0.30769745479E+04  0.25500000000E-02 0.  1.
         -2   -1    0    0    0  501 -0.00000000000E+00 -0.00000000000E+00 -0.26837814545E+02  0.26837814666E+02  0.25500000000E-02 0. -1.
    5000001    1    1    2    0    0 -0.92828233748E+02 -0.18372745356E+03  0.11484895240E+04  0.11818396866E+04  0.18800000000E+03 0.  0.
   -5000001    1    1    2    0    0  0.92828233748E+02  0.18372745356E+03  0.19016472094E+04  0.19219726760E+04  0.18800000000E+03 0.  0.
<mgrwt>
<rscale>  0 0.57473219E+03</rscale>
<asrwt>0</asrwt>
<pdfrwt beam="1">  1        2 0.43956825E+00 0.57473219E+03</pdfrwt>
<pdfrwt beam="2">  1       -2 0.38339696E-02 0.57473219E+03</pdfrwt>
<totfact> 0.70932853E+02</totfact>
</mgrwt>
</event>
<event>
 4    1  0.6165923E-005  0.4324733E+03  0.7818608E-02  0.1033081E+00
          2   -1    0    0  501    0  0.00000000000E+00  0.00000000000E+00  0.62508719711E+03  0.62508719711E+03  0.25500000000E-02 0.  1.
         -2   -1    0    0    0  501 -0.00000000000E+00 -0.00000000000E+00 -0.74802841264E+02  0.74802841307E+02  0.25500000000E-02 0. -1.
    5000001    1    1    2    0    0 -0.91121589179E+01  0.10619490918E+03  0.26325994749E+03  0.34060268662E+03  0.18800000000E+03 0.  0.
   -5000001    1    1    2    0    0  0.91121589179E+01 -0.10619490918E+03  0.28702440835E+03  0.35928735180E+03  0.18800000000E+03 0.  0.
<mgrwt>
<rscale>  0 0.43247334E+03</rscale>
<asrwt>0</asrwt>
<pdfrwt beam="1">  1        2 0.89298171E-01 0.43247334E+03</pdfrwt>
<pdfrwt beam="2">  1       -2 0.10686120E-01 0.43247334E+03</pdfrwt>
<totfact> 0.31515285E+03</totfact>
</mgrwt>
</event>
<event>
 4    1  0.6165923E-005  0.8722061E+03  0.7818608E-02  0.9461008E-01
         -2   -1    0    0    0  501 -0.00000000000E+00  0.00000000000E+00  0.69397553128E+02  0.69397553175E+02  0.25500000000E-02 0. -1.
          2   -1    0    0  501    0  0.00000000000E+00 -0.00000000000E+00 -0.27405268046E+04  0.27405268046E+04  0.25500000000E-02 0.  1.
    5000001    1    1    2    0    0 -0.33399156999E+03 -0.18906021327E+03 -0.10556771527E+04  0.11388996372E+04  0.18800000000E+03 0.  0.
   -5000001    1    1    2    0    0  0.33399156999E+03  0.18906021327E+03 -0.16154520988E+04  0.16710247205E+04  0.18800000000E+03 0.  0.
<mgrwt>
<rscale>  0 0.87220606E+03</rscale>
<asrwt>0</asrwt>
<pdfrwt beam="1">  1        2 0.39150376E+00 0.87220606E+03</pdfrwt>
<pdfrwt beam="2">  1       -2 0.99139379E-02 0.87220606E+03</pdfrwt>
<totfact> 0.23455428E+02</totfact>
</mgrwt>
</event>
<event>
 4    1  0.6165923E-005  0.4709688E+03  0.7818608E-02  0.1021647E+00
         -2   -1    0    0    0  501 -0.00000000000E+00  0.00000000000E+00  0.12124506354E+03  0.12124506357E+03  0.25500000000E-02 0. -1.
          2   -1    0    0  501    0  0.00000000000E+00 -0.00000000000E+00 -0.45736208807E+03  0.45736208808E+03  0.25500000000E-02 0.  1.
    5000001    1    1    2    0    0  0.97758258467E+02 -0.73512337911E+00 -0.41860518334E+02  0.21599426034E+03  0.18800000000E+03 0.  0.
   -5000001    1    1    2    0    0 -0.97758258467E+02  0.73512337911E+00 -0.29425650620E+03  0.36261289131E+03  0.18800000000E+03 0.  0.
<mgrwt>
<rscale>  0 0.47096877E+03</rscale>
<asrwt>0</asrwt>
<pdfrwt beam="1">  1        2 0.65337440E-01 0.47096877E+03</pdfrwt>
<pdfrwt beam="2">  1       -2 0.17320724E-01 0.47096877E+03</pdfrwt>
<totfact> 0.20239902E+03</totfact>
</mgrwt>
</event>
<event>
 4    1  0.6165923E-005  0.7383050E+03  0.7818608E-02  0.9653879E-01
          2   -1    0    0  501    0  0.00000000000E+00  0.00000000000E+00  0.50665980564E+03  0.50665980565E+03  0.25500000000E-02 0. -1.
         -2   -1    0    0    0  501 -0.00000000000E+00 -0.00000000000E+00 -0.26896461238E+03  0.26896461239E+03  0.25500000000E-02 0.  1.
    5000001    1    1    2    0    0 -0.26544948730E+03 -0.16918403912E+03  0.16394642395E+03  0.40163304063E+03  0.18800000000E+03 0.  0.
   -5000001    1    1    2    0    0  0.26544948730E+03  0.16918403912E+03  0.73748769315E+02  0.37399137741E+03  0.18800000000E+03 0.  0.
<mgrwt>
<rscale>  0 0.73830497E+03</rscale>
<asrwt>0</asrwt>
<pdfrwt beam="1">  1        2 0.72379971E-01 0.73830497E+03</pdfrwt>
<pdfrwt beam="2">  1       -2 0.38423516E-01 0.73830497E+03</pdfrwt>
<totfact> 0.42551864E+02</totfact>
</mgrwt>
</event>
<event>
 4    1  0.6165923E-005  0.4486514E+03  0.7818608E-02  0.1028125E+00
         -2   -1    0    0    0  501 -0.00000000000E+00  0.00000000000E+00  0.11748314245E+04  0.11748314245E+04  0.25500000000E-02 0. -1.
          2   -1    0    0  501    0  0.00000000000E+00 -0.00000000000E+00 -0.42833387953E+02  0.42833388029E+02  0.25500000000E-02 0.  1.
    5000001    1    1    2    0    0  0.29777762770E+02  0.11803454837E+03  0.60023707339E+03  0.64066170015E+03  0.18800000000E+03 0.  0.
   -5000001    1    1    2    0    0 -0.29777762770E+02 -0.11803454837E+03  0.53176096315E+03  0.57700311237E+03  0.18800000000E+03 0.  0.
<mgrwt>
<rscale>  0 0.44865136E+03</rscale>
<asrwt>0</asrwt>
<pdfrwt beam="1">  1        2 0.61190559E-02 0.44865136E+03</pdfrwt>
<pdfrwt beam="2">  1       -2 0.16783305E+00 0.44865136E+03</pdfrwt>
<totfact> 0.28401008E+02</totfact>
</mgrwt>
</event>
<event>
 4    1  0.6165923E-005  0.7002928E+03  0.7818608E-02  0.9716732E-01
         -2   -1    0    0    0  501 -0.00000000000E+00  0.00000000000E+00  0.31396412323E+02  0.31396412426E+02  0.25500000000E-02 0. -1.
          2   -1    0    0  501    0  0.00000000000E+00 -0.00000000000E+00 -0.39049847957E+04  0.39049847957E+04  0.25500000000E-02 0.  1.
    5000001    1    1    2    0    0 -0.17829114139E+03 -0.18376308557E+03 -0.11087253380E+04  0.11533310356E+04  0.18800000000E+03 0.  0.
   -5000001    1    1    2    0    0  0.17829114139E+03  0.18376308557E+03 -0.27648630455E+04  0.27830501725E+04  0.18800000000E+03 0.  0.
<mgrwt>
<rscale>  0 0.70029283E+03</rscale>
<asrwt>0</asrwt>
<pdfrwt beam="1">  1        2 0.55785466E+00 0.70029283E+03</pdfrwt>
<pdfrwt beam="2">  1       -2 0.44852042E-02 0.70029283E+03</pdfrwt>
<totfact> 0.17608763E+02</totfact>
</mgrwt>
</event>
<event>
 4    1  0.6165923E-005  0.4123160E+03  0.7818608E-02  0.1039597E+00
          2   -1    0    0  501    0  0.00000000000E+00  0.00000000000E+00  0.81690176473E+03  0.81690176473E+03  0.25500000000E-02 0.  1.
         -2   -1    0    0    0  501 -0.00000000000E+00 -0.00000000000E+00 -0.52027201075E+02  0.52027201137E+02  0.25500000000E-02 0. -1.
    5000001    1    1    2    0    0  0.73219548549E+02 -0.40257064212E+02  0.35452837719E+03  0.40989767473E+03  0.18800000000E+03 0.  0.
   -5000001    1    1    2    0    0 -0.73219548549E+02  0.40257064212E+02  0.41034618646E+03  0.45903129114E+03  0.18800000000E+03 0.  0.
<mgrwt>
<rscale>  0 0.41231596E+03</rscale>
<asrwt>0</asrwt>
<pdfrwt beam="1">  1        2 0.11670025E+00 0.41231596E+03</pdfrwt>
<pdfrwt beam="2">  1       -2 0.74324573E-02 0.41231596E+03</pdfrwt>
<totfact> 0.40553868E+03</totfact>
</mgrwt>
</event>
<event>
 4    1  0.6165923E-005  0.8202086E+03  0.7818608E-02  0.9531218E-01
          2   -1    0    0  501    0  0.00000000000E+00  0.00000000000E+00  0.25397233885E+04  0.25397233886E+04  0.25500000000E-02 0.  1.
         -2   -1    0    0    0  501 -0.00000000000E+00 -0.00000000000E+00 -0.66221997178E+02  0.66221997227E+02  0.25500000000E-02 0. -1.
    5000001    1    1    2    0    0  0.37415826382E+02 -0.36195663169E+03  0.11709434695E+04  0.12405100387E+04  0.18800000000E+03 0.  0.
   -5000001    1    1    2    0    0 -0.37415826382E+02  0.36195663169E+03  0.13025579219E+04  0.13654353471E+04  0.18800000000E+03 0.  0.
<mgrwt>
<rscale>  0 0.82020864E+03</rscale>
<asrwt>0</asrwt>
<pdfrwt beam="1">  1        2 0.36281752E+00 0.82020864E+03</pdfrwt>
<pdfrwt beam="2">  1       -2 0.94602881E-02 0.82020864E+03</pdfrwt>
<totfact> 0.32417156E+02</totfact>
</mgrwt>
</event>
<event>
 4    1  0.6165923E-005  0.4860341E+03  0.7818608E-02  0.1017490E+00
         -2   -1    0    0    0  501 -0.00000000000E+00  0.00000000000E+00  0.13570850542E+03  0.13570850544E+03  0.25500000000E-02 0. -1.
          2   -1    0    0  501    0  0.00000000000E+00 -0.00000000000E+00 -0.43517741403E+03  0.43517741404E+03  0.25500000000E-02 0.  1.
    5000001    1    1    2    0    0  0.10939560046E+03  0.10190196591E+03 -0.10638833715E+03  0.26270494159E+03  0.18800000000E+03 0.  0.
   -5000001    1    1    2    0    0 -0.10939560046E+03 -0.10190196591E+03 -0.19308057146E+03  0.30818097789E+03  0.18800000000E+03 0.  0.
<mgrwt>
<rscale>  0 0.48603406E+03</rscale>
<asrwt>0</asrwt>
<pdfrwt beam="1">  1        2 0.62168201E-01 0.48603406E+03</pdfrwt>
<pdfrwt beam="2">  1       -2 0.19386930E-01 0.48603406E+03</pdfrwt>
<totfact> 0.17638967E+03</totfact>
</mgrwt>
</event>
<event>
 4    1  0.6165923E-005  0.5264626E+03  0.7818608E-02  0.1007094E+00
         -2   -1    0    0    0  501 -0.00000000000E+00  0.00000000000E+00  0.15442885603E+03  0.15442885605E+03  0.25500000000E-02 0. -1.
          2   -1    0    0  501    0  0.00000000000E+00 -0.00000000000E+00 -0.44869014241E+03  0.44869014242E+03  0.25500000000E-02 0.  1.
    5000001    1    1    2    0    0  0.58022303771E+02 -0.17432121003E+03 -0.16301428035E+03  0.30930911335E+03  0.18800000000E+03 0.  0.
   -5000001    1    1    2    0    0 -0.58022303771E+02  0.17432121003E+03 -0.13124700603E+03  0.29380988512E+03  0.18800000000E+03 0.  0.
<mgrwt>
<rscale>  0 0.52646255E+03</rscale>
<asrwt>0</asrwt>
<pdfrwt beam="1">  1        2 0.64098591E-01 0.52646255E+03</pdfrwt>
<pdfrwt beam="2">  1       -2 0.22061265E-01 0.52646255E+03</pdfrwt>
<totfact> 0.13612938E+03</totfact>
</mgrwt>
</event>
<event>
 4    1  0.6165923E-005  0.5620839E+03  0.7818608E-02  0.9987350E-01
         -2   -1    0    0    0  501 -0.00000000000E+00  0.00000000000E+00  0.85897754800E+02  0.85897754837E+02  0.25500000000E-02 0. -1.
          2   -1    0    0  501    0  0.00000000000E+00 -0.00000000000E+00 -0.91951868267E+03  0.91951868268E+03  0.25500000000E-02 0.  1.
    5000001    1    1    2    0    0  0.12005709197E+03  0.16064992432E+03 -0.31222730468E+03  0.41599518423E+03  0.18800000000E+03 0.  0.
   -5000001    1    1    2    0    0 -0.12005709197E+03 -0.16064992432E+03 -0.52139362319E+03  0.58942125328E+03  0.18800000000E+03 0.  0.
<mgrwt>
<rscale>  0 0.56208395E+03</rscale>
<asrwt>0</asrwt>
<pdfrwt beam="1">  1        2 0.13135981E+00 0.56208395E+03</pdfrwt>
<pdfrwt beam="2">  1       -2 0.12271108E-01 0.56208395E+03</pdfrwt>
<totfact> 0.15532480E+03</totfact>
</mgrwt>
</event>
<event>
 4    1  0.6165923E-005  0.5813800E+03  0.7818608E-02  0.9944808E-01
          2   -1    0    0  501    0  0.00000000000E+00  0.00000000000E+00  0.18581097659E+04  0.18581097659E+04  0.25500000000E-02 0.  1.
         -2   -1    0    0    0  501 -0.00000000000E+00 -0.00000000000E+00 -0.45476690345E+02  0.45476690417E+02  0.25500000000E-02 0. -1.
    5000001    1    1    2    0    0  0.27579973849E+02 -0.21970844457E+03  0.94281044893E+03  0.98654345986E+03  0.18800000000E+03 0.  0.
   -5000001    1    1    2    0    0 -0.27579973849E+02  0.21970844457E+03  0.86982262665E+03  0.91704299649E+03  0.18800000000E+03 0.  0.
<mgrwt>
<rscale>  0 0.58138002E+03</rscale>
<asrwt>0</asrwt>
<pdfrwt beam="1">  1        2 0.26544425E+00 0.58138002E+03</pdfrwt>
<pdfrwt beam="2">  1       -2 0.64966702E-02 0.58138002E+03</pdfrwt>
<totfact> 0.13321768E+03</totfact>
</mgrwt>
</event>
<event>
 4    1  0.6165923E-005  0.8269513E+03  0.7818608E-02  0.9521805E-01
         -2   -1    0    0    0  501 -0.00000000000E+00  0.00000000000E+00  0.26756360645E+03  0.26756360646E+03  0.25500000000E-02 0. -1.
          2   -1    0    0  501    0  0.00000000000E+00 -0.00000000000E+00 -0.63895875418E+03  0.63895875419E+03  0.25500000000E-02 0.  1.
    5000001    1    1    2    0    0 -0.74745314301E+02  0.36017171225E+03 -0.20492320913E+03  0.46113777329E+03  0.18800000000E+03 0.  0.
   -5000001    1    1    2    0    0  0.74745314301E+02 -0.36017171225E+03 -0.16647193861E+03  0.44538458736E+03  0.18800000000E+03 0.  0.
<mgrwt>
<rscale>  0 0.82695129E+03</rscale>
<asrwt>0</asrwt>
<pdfrwt beam="1">  1        2 0.91279821E-01 0.82695129E+03</pdfrwt>
<pdfrwt beam="2">  1       -2 0.38223373E-01 0.82695129E+03</pdfrwt>
<totfact> 0.32640358E+02</totfact>
</mgrwt>
</event>
<event>
 4    1  0.6165923E-005  0.6143887E+03  0.7818608E-02  0.9875996E-01
         -2   -1    0    0    0  501 -0.00000000000E+00  0.00000000000E+00  0.41958386372E+03  0.41958386372E+03  0.25500000000E-02 0. -1.
          2   -1    0    0  501    0  0.00000000000E+00 -0.00000000000E+00 -0.22490940872E+03  0.22490940873E+03  0.25500000000E-02 0.  1.
    5000001    1    1    2    0    0  0.73228251134E+02 -0.16278883025E+03 -0.75546570566E+02  0.27002567349E+03  0.18800000000E+03 0.  0.
   -5000001    1    1    2    0    0 -0.73228251134E+02  0.16278883025E+03  0.27022102557E+03  0.37446759897E+03  0.18800000000E+03 0.  0.
<mgrwt>
<rscale>  0 0.61438867E+03</rscale>
<asrwt>0</asrwt>
<pdfrwt beam="1">  1        2 0.32129916E-01 0.61438867E+03</pdfrwt>
<pdfrwt beam="2">  1       -2 0.59940551E-01 0.61438867E+03</pdfrwt>
<totfact> 0.43121277E+02</totfact>
</mgrwt>
</event>
<event>
 4    1  0.6165923E-005  0.8807535E+03  0.7818608E-02  0.9449965E-01
          2   -1    0    0  501    0  0.00000000000E+00  0.00000000000E+00  0.14089566234E+04  0.14089566234E+04  0.25500000000E-02 0.  1.
         -2   -1    0    0    0  501 -0.00000000000E+00 -0.00000000000E+00 -0.13764205546E+03  0.13764205548E+03  0.25500000000E-02 0. -1.
    5000001    1    1    2    0    0  0.18224894138E+03  0.32790528675E+03  0.87027247763E+03  0.96615461445E+03  0.18800000000E+03 0.  0.
   -5000001    1    1    2    0    0 -0.18224894138E+03 -0.32790528675E+03  0.40104209026E+03  0.58044406438E+03  0.18800000000E+03 0.  0.
<mgrwt>
<rscale>  0 0.88075351E+03</rscale>
<asrwt>0</asrwt>
<pdfrwt beam="1">  1        2 0.20127953E+00 0.88075351E+03</pdfrwt>
<pdfrwt beam="2">  1       -2 0.19663150E-01 0.88075351E+03</pdfrwt>
<totfact> 0.36053958E+02</totfact>
</mgrwt>
</event>
<event>
 4    1  0.6165923E-005  0.4497872E+03  0.7818608E-02  0.1027786E+00
         -2   -1    0    0    0  501 -0.00000000000E+00  0.00000000000E+00  0.50202707956E+02  0.50202708020E+02  0.25500000000E-02 0. -1.
          2   -1    0    0  501    0  0.00000000000E+00 -0.00000000000E+00 -0.10074582216E+04  0.10074582216E+04  0.25500000000E-02 0.  1.
    5000001    1    1    2    0    0 -0.83976315995E+02  0.68319313840E+02 -0.33924330456E+03  0.40267799788E+03  0.18800000000E+03 0.  0.
   -5000001    1    1    2    0    0  0.83976315995E+02 -0.68319313840E+02 -0.61801220909E+03  0.65498293175E+03  0.18800000000E+03 0.  0.
<mgrwt>
<rscale>  0 0.44978720E+03</rscale>
<asrwt>0</asrwt>
<pdfrwt beam="1">  1        2 0.14392259E+00 0.44978720E+03</pdfrwt>
<pdfrwt beam="2">  1       -2 0.71718160E-02 0.44978720E+03</pdfrwt>
<totfact> 0.32500682E+03</totfact>
</mgrwt>
</event>
<event>
 4    1  0.6165923E-005  0.5759246E+03  0.7818608E-02  0.9956653E-01
          2   -1    0    0  501    0  0.00000000000E+00  0.00000000000E+00  0.55542785136E+03  0.55542785136E+03  0.25500000000E-02 0.  1.
         -2   -1    0    0    0  501 -0.00000000000E+00 -0.00000000000E+00 -0.14929443156E+03  0.14929443158E+03  0.25500000000E-02 0. -1.
    5000001    1    1    2    0    0 -0.20857799521E+03 -0.58621676785E+02  0.23394999919E+03  0.37015926734E+03  0.18800000000E+03 0.  0.
   -5000001    1    1    2    0    0  0.20857799521E+03  0.58621676785E+02  0.17218342061E+03  0.33456301560E+03  0.18800000000E+03 0.  0.
<mgrwt>
<rscale>  0 0.57592460E+03</rscale>
<asrwt>0</asrwt>
<pdfrwt beam="1">  1        2 0.79346836E-01 0.57592460E+03</pdfrwt>
<pdfrwt beam="2">  1       -2 0.21327776E-01 0.57592460E+03</pdfrwt>
<totfact> 0.11335326E+03</totfact>
</mgrwt>
</event>
<event>
 4    1  0.6165923E-005  0.7287364E+03  0.7818608E-02  0.9669313E-01
         -2   -1    0    0    0  501 -0.00000000000E+00  0.00000000000E+00  0.12661090916E+03  0.12661090918E+03  0.25500000000E-02 0. -1.
          2   -1    0    0  501    0  0.00000000000E+00 -0.00000000000E+00 -0.10485999446E+04  0.10485999446E+04  0.25500000000E-02 0.  1.
    5000001    1    1    2    0    0  0.28906495939E+03  0.11763326000E+03 -0.46890444972E+03  0.59381101166E+03  0.18800000000E+03 0.  0.
   -5000001    1    1    2    0    0 -0.28906495939E+03 -0.11763326000E+03 -0.45308458575E+03  0.58139984215E+03  0.18800000000E+03 0.  0.
<mgrwt>
<rscale>  0 0.72873642E+03</rscale>
<asrwt>0</asrwt>
<pdfrwt beam="1">  1        2 0.14979999E+00 0.72873642E+03</pdfrwt>
<pdfrwt beam="2">  1       -2 0.18087273E-01 0.72873642E+03</pdfrwt>
<totfact> 0.66970945E+02</totfact>
</mgrwt>
</event>
<event>
 4    1  0.6165923E-005  0.8606143E+03  0.7818608E-02  0.9476201E-01
         -2   -1    0    0    0  501 -0.00000000000E+00  0.00000000000E+00  0.88343787925E+02  0.88343787961E+02  0.25500000000E-02 0. -1.
          2   -1    0    0  501    0  0.00000000000E+00 -0.00000000000E+00 -0.20959508151E+04  0.20959508151E+04  0.25500000000E-02 0.  1.
    5000001    1    1    2    0    0  0.53487836610E+02  0.23420568798E+03 -0.23352294916E+03  0.38417472682E+03  0.18800000000E+03 0.  0.
   -5000001    1    1    2    0    0 -0.53487836610E+02 -0.23420568798E+03 -0.17740840780E+04  0.18001198762E+04  0.18800000000E+03 0.  0.
<mgrwt>
<rscale>  0 0.86061428E+03</rscale>
<asrwt>0</asrwt>
<pdfrwt beam="1">  1        2 0.29942152E+00 0.86061428E+03</pdfrwt>
<pdfrwt beam="2">  1       -2 0.12620542E-01 0.86061428E+03</pdfrwt>
<totfact> 0.33983146E+02</totfact>
</mgrwt>
</event>
<event>
 4    1  0.6165923E-005  0.7980985E+03  0.7818608E-02  0.9562774E-01
          2   -1    0    0  501    0  0.00000000000E+00  0.00000000000E+00  0.18894308882E+04  0.18894308882E+04  0.25500000000E-02 0.  1.
         -2   -1    0    0    0  501 -0.00000000000E+00 -0.00000000000E+00 -0.84279498572E+02  0.84279498611E+02  0.25500000000E-02 0. -1.
    5000001    1    1    2    0    0 -0.30642695632E+03  0.14274437630E+03  0.65998237225E+03  0.76497984824E+03  0.18800000000E+03 0.  0.
   -5000001    1    1    2    0    0  0.30642695632E+03 -0.14274437630E+03  0.11451690173E+04  0.12087305385E+04  0.18800000000E+03 0.  0.
<mgrwt>
<rscale>  0 0.79809846E+03</rscale>
<asrwt>0</asrwt>
<pdfrwt beam="1">  1        2 0.26991868E+00 0.79809846E+03</pdfrwt>
<pdfrwt beam="2">  1       -2 0.12039929E-01 0.79809846E+03</pdfrwt>
<totfact> 0.46972735E+02</totfact>
</mgrwt>
</event>
<event>
 4    1  0.6165923E-005  0.4357000E+03  0.7818608E-02  0.1032074E+00
          2   -1    0    0  501    0  0.00000000000E+00  0.00000000000E+00  0.52563358527E+03  0.52563358527E+03  0.25500000000E-02 0.  1.
         -2   -1    0    0    0  501 -0.00000000000E+00 -0.00000000000E+00 -0.90288405791E+02  0.90288405827E+02  0.25500000000E-02 0. -1.
    5000001    1    1    2    0    0  0.74886086205E+02  0.84940564197E+01  0.33106840862E+03  0.38811128055E+03  0.18800000000E+03 0.  0.
   -5000001    1    1    2    0    0 -0.74886086205E+02 -0.84940564197E+01  0.10427677085E+03  0.22781071055E+03  0.18800000000E+03 0.  0.
<mgrwt>
<rscale>  0 0.43569998E+03</rscale>
<asrwt>0</asrwt>
<pdfrwt beam="1">  1        2 0.75090510E-01 0.43569998E+03</pdfrwt>
<pdfrwt beam="2">  1       -2 0.12898344E-01 0.43569998E+03</pdfrwt>
<totfact> 0.28318234E+03</totfact>
</mgrwt>
</event>
<event>
 4    1  0.6165923E-005  0.8019665E+03  0.7818608E-02  0.9557175E-01
         -2   -1    0    0    0  501 -0.00000000000E+00  0.00000000000E+00  0.59818761387E+03  0.59818761387E+03  0.25500000000E-02 0. -1.
          2   -1    0    0  501    0  0.00000000000E+00 -0.00000000000E+00 -0.26879118236E+03  0.26879118237E+03  0.25500000000E-02 0.  1.
    5000001    1    1    2    0    0 -0.13932530573E+03 -0.20960441282E+02 -0.18659451221E+03  0.30002065413E+03  0.18800000000E+03 0.  0.
   -5000001    1    1    2    0    0  0.13932530573E+03  0.20960441282E+02  0.51599094371E+03  0.56695814212E+03  0.18800000000E+03 0.  0.
<mgrwt>
<rscale>  0 0.80196647E+03</rscale>
<asrwt>0</asrwt>
<pdfrwt beam="1">  1        2 0.38398741E-01 0.80196647E+03</pdfrwt>
<pdfrwt beam="2">  1       -2 0.85455373E-01 0.80196647E+03</pdfrwt>
<totfact> 0.16163318E+02</totfact>
</mgrwt>
</event>
<event>
 4    1  0.6165923E-005  0.6120501E+03  0.7818608E-02  0.9880717E-01
         -2   -1    0    0    0  501 -0.00000000000E+00  0.00000000000E+00  0.50550299323E+02  0.50550299388E+02  0.25500000000E-02 0. -1.
          2   -1    0    0  501    0  0.00000000000E+00 -0.00000000000E+00 -0.18526365513E+04  0.18526365513E+04  0.25500000000E-02 0.  1.
    5000001    1    1    2    0    0 -0.18974800499E+03 -0.13349546245E+03 -0.11092187216E+04  0.11487103709E+04  0.18800000000E+03 0.  0.
   -5000001    1    1    2    0    0  0.18974800499E+03  0.13349546245E+03 -0.69286753041E+03  0.75447647981E+03  0.18800000000E+03 0.  0.
<mgrwt>
<rscale>  0 0.61205010E+03</rscale>
<asrwt>0</asrwt>
<pdfrwt beam="1">  1        2 0.26466232E+00 0.61205010E+03</pdfrwt>
<pdfrwt beam="2">  1       -2 0.72214725E-02 0.61205010E+03</pdfrwt>
<totfact> 0.11328838E+03</totfact>
</mgrwt>
</event>
<event>
 4    1  0.6165923E-005  0.4715037E+03  0.7818608E-02  0.1021497E+00
         -2   -1    0    0    0  501 -0.00000000000E+00  0.00000000000E+00  0.17963864760E+02  0.17963864941E+02  0.25500000000E-02 0. -1.
          2   -1    0    0  501    0  0.00000000000E+00 -0.00000000000E+00 -0.30939290886E+04  0.30939290886E+04  0.25500000000E-02 0.  1.
    5000001    1    1    2    0    0 -0.84724494909E+02  0.95005277130E+02 -0.19569968840E+04  0.19701231045E+04  0.18800000000E+03 0.  0.
   -5000001    1    1    2    0    0  0.84724494909E+02 -0.95005277130E+02 -0.11189683398E+04  0.11417698491E+04  0.18800000000E+03 0.  0.
<mgrwt>
<rscale>  0 0.47150365E+03</rscale>
<asrwt>0</asrwt>
<pdfrwt beam="1">  1        2 0.44198953E+00 0.47150365E+03</pdfrwt>
<pdfrwt beam="2">  1       -2 0.25662684E-02 0.47150365E+03</pdfrwt>
<totfact> 0.12897906E+03</totfact>
</mgrwt>
</event>
<event>
 4    1  0.6165923E-005  0.5227593E+03  0.7818608E-02  0.1008003E+00
         -2   -1    0    0    0  501 -0.00000000000E+00  0.00000000000E+00  0.77406573756E+02  0.77406573798E+02  0.25500000000E-02 0. -1.
          2   -1    0    0  501    0  0.00000000000E+00 -0.00000000000E+00 -0.88260366711E+03  0.88260366711E+03  0.25500000000E-02 0.  1.
    5000001    1    1    2    0    0  0.16329772996E+03 -0.44925782212E+02 -0.28230403344E+03  0.37910953802E+03  0.18800000000E+03 0.  0.
   -5000001    1    1    2    0    0 -0.16329772996E+03  0.44925782212E+02 -0.52289305991E+03  0.58090070289E+03  0.18800000000E+03 0.  0.
<mgrwt>
<rscale>  0 0.52275932E+03</rscale>
<asrwt>0</asrwt>
<pdfrwt beam="1">  1        2 0.12608623E+00 0.52275932E+03</pdfrwt>
<pdfrwt beam="2">  1       -2 0.11058082E-01 0.52275932E+03</pdfrwt>
<totfact> 0.19460998E+03</totfact>
</mgrwt>
</event>
<event>
 4    1  0.6165923E-005  0.4673707E+03  0.7818608E-02  0.1022665E+00
         -2   -1    0    0    0  501 -0.00000000000E+00  0.00000000000E+00  0.23885677742E+03  0.23885677743E+03  0.25500000000E-02 0. -1.
          2   -1    0    0  501    0  0.00000000000E+00 -0.00000000000E+00 -0.22862585001E+03  0.22862585002E+03  0.25500000000E-02 0.  1.
    5000001    1    1    2    0    0  0.49105419940E+02 -0.12972767271E+03  0.10038272580E+02  0.23384905014E+03  0.18800000000E+03 0.  0.
   -5000001    1    1    2    0    0 -0.49105419940E+02  0.12972767271E+03  0.19265482745E+00  0.23363357732E+03  0.18800000000E+03 0.  0.
<mgrwt>
<rscale>  0 0.46737066E+03</rscale>
<asrwt>0</asrwt>
<pdfrwt beam="1">  1        2 0.32660836E-01 0.46737066E+03</pdfrwt>
<pdfrwt beam="2">  1       -2 0.34122397E-01 0.46737066E+03</pdfrwt>
<totfact> 0.12967746E+03</totfact>
</mgrwt>
</event>
<event>
 4    1  0.6165923E-005  0.8063375E+03  0.7818608E-02  0.9550889E-01
          2   -1    0    0  501    0  0.00000000000E+00  0.00000000000E+00  0.11615415250E+04  0.11615415250E+04  0.25500000000E-02 0.  1.
         -2   -1    0    0    0  501 -0.00000000000E+00 -0.00000000000E+00 -0.13993905833E+03  0.13993905835E+03  0.25500000000E-02 0. -1.
    5000001    1    1    2    0    0  0.98892283745E+02  0.33059959794E+03  0.36530920416E+03  0.53653573281E+03  0.18800000000E+03 0.  0.
   -5000001    1    1    2    0    0 -0.98892283745E+02 -0.33059959794E+03  0.65629326248E+03  0.76494485051E+03  0.18800000000E+03 0.  0.
<mgrwt>
<rscale>  0 0.80633747E+03</rscale>
<asrwt>0</asrwt>
<pdfrwt beam="1">  1        2 0.16593450E+00 0.80633747E+03</pdfrwt>
<pdfrwt beam="2">  1       -2 0.19991294E-01 0.80633747E+03</pdfrwt>
<totfact> 0.48175534E+02</totfact>
</mgrwt>
</event>
<event>
 4    1  0.6165923E-005  0.4416054E+03  0.7818608E-02  0.1030255E+00
         -2   -1    0    0    0  501 -0.00000000000E+00  0.00000000000E+00  0.47245144095E+03  0.47245144095E+03  0.25500000000E-02 0. -1.
          2   -1    0    0  501    0  0.00000000000E+00 -0.00000000000E+00 -0.10319330623E+03  0.10319330626E+03  0.25500000000E-02 0.  1.
    5000001    1    1    2    0    0  0.10664294424E+03 -0.42248439627E+02  0.16392890175E+03  0.27454386359E+03  0.18800000000E+03 0.  0.
   -5000001    1    1    2    0    0 -0.10664294424E+03  0.42248439627E+02  0.20532923297E+03  0.30110088362E+03  0.18800000000E+03 0.  0.
<mgrwt>
<rscale>  0 0.44160537E+03</rscale>
<asrwt>0</asrwt>
<pdfrwt beam="1">  1        2 0.14741901E-01 0.44160537E+03</pdfrwt>
<pdfrwt beam="2">  1       -2 0.67493064E-01 0.44160537E+03</pdfrwt>
<totfact> 0.82722666E+02</totfact>
</mgrwt>
</event>
<event>
 4    1  0.6165923E-005  0.1325947E+04  0.7818608E-02  0.9009238E-01
         -2   -1    0    0    0  501 -0.00000000000E+00  0.00000000000E+00  0.15171020805E+03  0.15171020807E+03  0.25500000000E-02 0. -1.
          2   -1    0    0  501    0  0.00000000000E+00 -0.00000000000E+00 -0.28971939064E+04  0.28971939064E+04  0.25500000000E-02 0.  1.
    5000001    1    1    2    0    0 -0.12437767249E+02  0.61076691478E+03 -0.17775891105E+04  0.18890097850E+04  0.18800000000E+03 0.  0.
   -5000001    1    1    2    0    0  0.12437767249E+02 -0.61076691478E+03 -0.96789458784E+03  0.11598943294E+04  0.18800000000E+03 0.  0.
<mgrwt>
<rscale>  0 0.13259470E+04</rscale>
<asrwt>0</asrwt>
<pdfrwt beam="1">  1        2 0.41388481E+00 0.13259470E+04</pdfrwt>
<pdfrwt beam="2">  1       -2 0.21672889E-01 0.13259470E+04</pdfrwt>
<totfact> 0.49190430E+01</totfact>
</mgrwt>
</event>
<event>
 4    1  0.6165923E-005  0.8873383E+03  0.7818608E-02  0.9441549E-01
         -2   -1    0    0    0  501 -0.00000000000E+00  0.00000000000E+00  0.13546898317E+04  0.13546898317E+04  0.25500000000E-02 0. -1.
          2   -1    0    0  501    0  0.00000000000E+00 -0.00000000000E+00 -0.14530434644E+03  0.14530434646E+03  0.25500000000E-02 0.  1.
    5000001    1    1    2    0    0 -0.29456227722E+03 -0.17237664142E+03  0.96336013018E+03  0.10391762998E+04  0.18800000000E+03 0.  0.
   -5000001    1    1    2    0    0  0.29456227722E+03  0.17237664142E+03  0.24602535509E+03  0.46081787836E+03  0.18800000000E+03 0.  0.
<mgrwt>
<rscale>  0 0.88733831E+03</rscale>
<asrwt>0</asrwt>
<pdfrwt beam="1">  1        2 0.20757763E-01 0.88733831E+03</pdfrwt>
<pdfrwt beam="2">  1       -2 0.19352713E+00 0.88733831E+03</pdfrwt>
<totfact> 0.40246009E+01</totfact>
</mgrwt>
</event>
<event>
 4    1  0.6165923E-005  0.6067641E+03  0.7818608E-02  0.9891471E-01
         -2   -1    0    0    0  501 -0.00000000000E+00  0.00000000000E+00  0.47091533310E+02  0.47091533379E+02  0.25500000000E-02 0. -1.
          2   -1    0    0  501    0  0.00000000000E+00 -0.00000000000E+00 -0.19545056174E+04  0.19545056174E+04  0.25500000000E-02 0.  1.
    5000001    1    1    2    0    0  0.18478776677E+01 -0.22756039639E+03 -0.11848476336E+04  0.12210630875E+04  0.18800000000E+03 0.  0.
   -5000001    1    1    2    0    0 -0.18478776677E+01  0.22756039639E+03 -0.72256645043E+03  0.78053406328E+03  0.18800000000E+03 0.  0.
<mgrwt>
<rscale>  0 0.60676409E+03</rscale>
<asrwt>0</asrwt>
<pdfrwt beam="1">  1        2 0.27921504E+00 0.60676409E+03</pdfrwt>
<pdfrwt beam="2">  1       -2 0.67273631E-02 0.60676409E+03</pdfrwt>
<totfact> 0.11263828E+03</totfact>
</mgrwt>
</event>
<event>
 4    1  0.6165923E-005  0.4807901E+03  0.7818608E-02  0.1018918E+00
          2   -1    0    0  501    0  0.00000000000E+00  0.00000000000E+00  0.71088850571E+03  0.71088850571E+03  0.25500000000E-02 0.  1.
         -2   -1    0    0    0  501 -0.00000000000E+00 -0.00000000000E+00 -0.81292336876E+02  0.81292336916E+02  0.25500000000E-02 0. -1.
    5000001    1    1    2    0    0  0.10590516165E+03  0.10544471565E+03  0.33218048293E+03  0.40990531170E+03  0.18800000000E+03 0.  0.
   -5000001    1    1    2    0    0 -0.10590516165E+03 -0.10544471565E+03  0.29741568590E+03  0.38227553092E+03  0.18800000000E+03 0.  0.
<mgrwt>
<rscale>  0 0.48079013E+03</rscale>
<asrwt>0</asrwt>
<pdfrwt beam="1">  1        2 0.10155551E+00 0.48079013E+03</pdfrwt>
<pdfrwt beam="2">  1       -2 0.11613190E-01 0.48079013E+03</pdfrwt>
<totfact> 0.23627730E+03</totfact>
</mgrwt>
</event>
<event>
 4    1  0.6165923E-005  0.5493390E+03  0.7818608E-02  0.1001647E+00
         -2   -1    0    0    0  501 -0.00000000000E+00  0.00000000000E+00  0.24939222179E+03  0.24939222180E+03  0.25500000000E-02 0. -1.
          2   -1    0    0  501    0  0.00000000000E+00 -0.00000000000E+00 -0.30250880784E+03  0.30250880785E+03  0.25500000000E-02 0.  1.
    5000001    1    1    2    0    0 -0.10198905474E+03  0.13110691111E+03 -0.13892154583E+03  0.28676468633E+03  0.18800000000E+03 0.  0.
   -5000001    1    1    2    0    0  0.10198905474E+03 -0.13110691111E+03  0.85804959778E+02  0.26513634333E+03  0.18800000000E+03 0.  0.
<mgrwt>
<rscale>  0 0.54933903E+03</rscale>
<asrwt>0</asrwt>
<pdfrwt beam="1">  1        2 0.43215544E-01 0.54933903E+03</pdfrwt>
<pdfrwt beam="2">  1       -2 0.35627460E-01 0.54933903E+03</pdfrwt>
<totfact> 0.87760171E+02</totfact>
</mgrwt>
</event>
<event>
 4    1  0.6165923E-005  0.1100956E+04  0.7818608E-02  0.9204261E-01
          2   -1    0    0  501    0  0.00000000000E+00  0.00000000000E+00  0.21564064069E+04  0.21564064069E+04  0.25500000000E-02 0.  1.
         -2   -1    0    0    0  501 -0.00000000000E+00 -0.00000000000E+00 -0.14052360527E+03  0.14052360529E+03  0.25500000000E-02 0. -1.
    5000001    1    1    2    0    0 -0.41465625176E+03 -0.26131194706E+03  0.13536533097E+04  0.14518763803E+04  0.18800000000E+03 0.  0.
   -5000001    1    1    2    0    0  0.41465625176E+03  0.26131194706E+03  0.66222949195E+03  0.84505363191E+03  0.18800000000E+03 0.  0.
<mgrwt>
<rscale>  0 0.11009560E+04</rscale>
<asrwt>0</asrwt>
<pdfrwt beam="1">  1        2 0.30805803E+00 0.11009560E+04</pdfrwt>
<pdfrwt beam="2">  1       -2 0.20074803E-01 0.11009560E+04</pdfrwt>
<totfact> 0.14076196E+02</totfact>
</mgrwt>
</event>
<event>
 4    1  0.6165923E-005  0.5977007E+03  0.7818608E-02  0.9910188E-01
         -2   -1    0    0    0  501 -0.00000000000E+00  0.00000000000E+00  0.96287319408E+03  0.96287319408E+03  0.25500000000E-02 0. -1.
          2   -1    0    0  501    0  0.00000000000E+00 -0.00000000000E+00 -0.92755235417E+02  0.92755235452E+02  0.25500000000E-02 0.  1.
    5000001    1    1    2    0    0 -0.17518371814E+03  0.14427668549E+03  0.52270041956E+03  0.60005401897E+03  0.18800000000E+03 0.  0.
   -5000001    1    1    2    0    0  0.17518371814E+03 -0.14427668549E+03  0.34741753910E+03  0.45557441056E+03  0.18800000000E+03 0.  0.
<mgrwt>
<rscale>  0 0.59770069E+03</rscale>
<asrwt>0</asrwt>
<pdfrwt beam="1">  1        2 0.13250748E-01 0.59770069E+03</pdfrwt>
<pdfrwt beam="2">  1       -2 0.13755332E+00 0.59770069E+03</pdfrwt>
<totfact> 0.17813064E+02</totfact>
</mgrwt>
</event>
<event>
 4    1  0.6165923E-005  0.6409998E+03  0.7818608E-02  0.9823816E-01
          2   -1    0    0  501    0  0.00000000000E+00  0.00000000000E+00  0.26945751784E+04  0.26945751784E+04  0.25500000000E-02 0.  1.
         -2   -1    0    0    0  501 -0.00000000000E+00 -0.00000000000E+00 -0.38121104140E+02  0.38121104226E+02  0.25500000000E-02 0. -1.
    5000001    1    1    2    0    0  0.58288358860E+02 -0.23601969214E+03  0.17159970902E+04  0.17432994124E+04  0.18800000000E+03 0.  0.
   -5000001    1    1    2    0    0 -0.58288358860E+02  0.23601969214E+03  0.94045698406E+03  0.98939687018E+03  0.18800000000E+03 0.  0.
<mgrwt>
<rscale>  0 0.64099979E+03</rscale>
<asrwt>0</asrwt>
<pdfrwt beam="1">  1        2 0.38493932E+00 0.64099979E+03</pdfrwt>
<pdfrwt beam="2">  1       -2 0.54458719E-02 0.64099979E+03</pdfrwt>
<totfact> 0.65710309E+02</totfact>
</mgrwt>
</event>
<event>
 4    1  0.6165923E-005  0.5583051E+03  0.7818608E-02  0.9995897E-01
          2   -1    0    0  501    0  0.00000000000E+00  0.00000000000E+00  0.22681572672E+03  0.22681572674E+03  0.25500000000E-02 0.  1.
         -2   -1    0    0    0  501 -0.00000000000E+00 -0.00000000000E+00 -0.34356586454E+03  0.34356586455E+03  0.25500000000E-02 0. -1.
    5000001    1    1    2    0    0 -0.40830158550E+02  0.16401497252E+03 -0.17931701763E+03  0.30994613382E+03  0.18800000000E+03 0.  0.
   -5000001    1    1    2    0    0  0.40830158550E+02 -0.16401497252E+03  0.62566879805E+02  0.26043545747E+03  0.18800000000E+03 0.  0.
<mgrwt>
<rscale>  0 0.55830508E+03</rscale>
<asrwt>0</asrwt>
<pdfrwt beam="1">  1        2 0.32402247E-01 0.55830508E+03</pdfrwt>
<pdfrwt beam="2">  1       -2 0.49080838E-01 0.55830508E+03</pdfrwt>
<totfact> 0.64521149E+02</totfact>
</mgrwt>
</event>
<event>
 4    1  0.6165923E-005  0.5293243E+03  0.7818608E-02  0.1006396E+00
         -2   -1    0    0    0  501 -0.00000000000E+00  0.00000000000E+00  0.19484805549E+02  0.19484805716E+02  0.25500000000E-02 0. -1.
          2   -1    0    0  501    0  0.00000000000E+00 -0.00000000000E+00 -0.35949067828E+04  0.35949067828E+04  0.25500000000E-02 0.  1.
    5000001    1    1    2    0    0 -0.18609528722E+03 -0.74020632811E+01 -0.18148645549E+04  0.18340565965E+04  0.18800000000E+03 0.  0.
   -5000001    1    1    2    0    0  0.18609528722E+03  0.74020632811E+01 -0.17605574224E+04  0.17803349921E+04  0.18800000000E+03 0.  0.
<mgrwt>
<rscale>  0 0.52932432E+03</rscale>
<asrwt>0</asrwt>
<pdfrwt beam="1">  1        2 0.51355769E+00 0.52932432E+03</pdfrwt>
<pdfrwt beam="2">  1       -2 0.27835460E-02 0.52932432E+03</pdfrwt>
<totfact> 0.58480030E+02</totfact>
</mgrwt>
</event>
<event>
 4    1  0.6165923E-005  0.6156043E+03  0.7818608E-02  0.9873551E-01
          2   -1    0    0  501    0  0.00000000000E+00  0.00000000000E+00  0.45978363054E+03  0.45978363054E+03  0.25500000000E-02 0.  1.
         -2   -1    0    0    0  501 -0.00000000000E+00 -0.00000000000E+00 -0.20605813773E+03  0.20605813774E+03  0.25500000000E-02 0. -1.
    5000001    1    1    2    0    0  0.11831047104E+03  0.20501359820E+03  0.18965386909E+03  0.35684805319E+03  0.18800000000E+03 0.  0.
   -5000001    1    1    2    0    0 -0.11831047104E+03 -0.20501359820E+03  0.64071623725E+02  0.30899371510E+03  0.18800000000E+03 0.  0.
<mgrwt>
<rscale>  0 0.61560428E+03</rscale>
<asrwt>0</asrwt>
<pdfrwt beam="1">  1        2 0.65683375E-01 0.61560428E+03</pdfrwt>
<pdfrwt beam="2">  1       -2 0.29436877E-01 0.61560428E+03</pdfrwt>
<totfact> 0.78769917E+02</totfact>
</mgrwt>
</event>
<event>
 4    1  0.6165923E-005  0.4727163E+03  0.7818608E-02  0.1021156E+00
         -2   -1    0    0    0  501 -0.00000000000E+00  0.00000000000E+00  0.10007297767E+03  0.10007297770E+03  0.25500000000E-02 0. -1.
          2   -1    0    0  501    0  0.00000000000E+00 -0.00000000000E+00 -0.55824441220E+03  0.55824441220E+03  0.25500000000E-02 0.  1.
    5000001    1    1    2    0    0 -0.80674770308E+02  0.10743925905E+03 -0.29829194743E+03  0.37732439472E+03  0.18800000000E+03 0.  0.
   -5000001    1    1    2    0    0  0.80674770308E+02 -0.10743925905E+03 -0.15987948710E+03  0.28099299519E+03  0.18800000000E+03 0.  0.
<mgrwt>
<rscale>  0 0.47271632E+03</rscale>
<asrwt>0</asrwt>
<pdfrwt beam="1">  1        2 0.79749200E-01 0.47271632E+03</pdfrwt>
<pdfrwt beam="2">  1       -2 0.14296140E-01 0.47271632E+03</pdfrwt>
<totfact> 0.22313726E+03</totfact>
</mgrwt>
</event>
<event>
 4    1  0.6165923E-005  0.6046379E+03  0.7818608E-02  0.9895830E-01
          2   -1    0    0  501    0  0.00000000000E+00  0.00000000000E+00  0.29033205268E+04  0.29033205268E+04  0.25500000000E-02 0.  1.
         -2   -1    0    0    0  501 -0.00000000000E+00 -0.00000000000E+00 -0.31480069668E+02  0.31480069771E+02  0.25500000000E-02 0. -1.
    5000001    1    1    2    0    0 -0.17807406841E+03 -0.83826834311E+02  0.20746244561E+04  0.20924024340E+04  0.18800000000E+03 0.  0.
   -5000001    1    1    2    0    0  0.17807406841E+03  0.83826834311E+02  0.79721600103E+03  0.84239816256E+03  0.18800000000E+03 0.  0.
<mgrwt>
<rscale>  0 0.60463785E+03</rscale>
<asrwt>0</asrwt>
<pdfrwt beam="1">  1        2 0.41476006E+00 0.60463785E+03</pdfrwt>
<pdfrwt beam="2">  1       -2 0.44971530E-02 0.60463785E+03</pdfrwt>
<totfact> 0.68761121E+02</totfact>
</mgrwt>
</event>
<event>
 4    1  0.6165923E-005  0.7262324E+03  0.7818608E-02  0.9673394E-01
          2   -1    0    0  501    0  0.00000000000E+00  0.00000000000E+00  0.34472355095E+03  0.34472355095E+03  0.25500000000E-02 0.  1.
         -2   -1    0    0    0  501 -0.00000000000E+00 -0.00000000000E+00 -0.38249015266E+03  0.38249015267E+03  0.25500000000E-02 0. -1.
    5000001    1    1    2    0    0 -0.14431599879E+03 -0.27504457176E+03 -0.13153709642E+02  0.36330929528E+03  0.18800000000E+03 0.  0.
   -5000001    1    1    2    0    0  0.14431599879E+03  0.27504457176E+03 -0.24612892078E+02  0.36390440835E+03  0.18800000000E+03 0.  0.
<mgrwt>
<rscale>  0 0.72623237E+03</rscale>
<asrwt>0</asrwt>
<pdfrwt beam="1">  1        2 0.49246222E-01 0.72623237E+03</pdfrwt>
<pdfrwt beam="2">  1       -2 0.54641450E-01 0.72623237E+03</pdfrwt>
<totfact> 0.32456807E+02</totfact>
</mgrwt>
</event>
<event>
 4    1  0.6165923E-005  0.6196371E+03  0.7818608E-02  0.9865482E-01
         -2   -1    0    0    0  501 -0.00000000000E+00  0.00000000000E+00  0.11048862466E+03  0.11048862469E+03  0.25500000000E-02 0. -1.
          2   -1    0    0  501    0  0.00000000000E+00 -0.00000000000E+00 -0.86875497462E+03  0.86875497462E+03  0.25500000000E-02 0.  1.
    5000001    1    1    2    0    0 -0.19128953471E+03 -0.10896198399E+03 -0.20472707850E+03  0.35457238572E+03  0.18800000000E+03 0.  0.
   -5000001    1    1    2    0    0  0.19128953471E+03  0.10896198399E+03 -0.55353927145E+03  0.62467121359E+03  0.18800000000E+03 0.  0.
<mgrwt>
<rscale>  0 0.61963713E+03</rscale>
<asrwt>0</asrwt>
<pdfrwt beam="1">  1        2 0.12410785E+00 0.61963713E+03</pdfrwt>
<pdfrwt beam="2">  1       -2 0.15784090E-01 0.61963713E+03</pdfrwt>
<totfact> 0.10992920E+03</totfact>
</mgrwt>
</event>
<event>
 4    1  0.6165923E-005  0.5820718E+03  0.7818608E-02  0.9943316E-01
         -2   -1    0    0    0  501 -0.00000000000E+00  0.00000000000E+00  0.24556951752E+03  0.24556951753E+03  0.25500000000E-02 0. -1.
          2   -1    0    0  501    0  0.00000000000E+00 -0.00000000000E+00 -0.34492023228E+03  0.34492023229E+03  0.25500000000E-02 0.  1.
    5000001    1    1    2    0    0  0.98207168035E+02  0.18755073421E+03  0.18663321622E+02  0.28374679792E+03  0.18800000000E+03 0.  0.
   -5000001    1    1    2    0    0 -0.98207168035E+02 -0.18755073421E+03 -0.11801403638E+03  0.30674295190E+03  0.18800000000E+03 0.  0.
<mgrwt>
<rscale>  0 0.58207180E+03</rscale>
<asrwt>0</asrwt>
<pdfrwt beam="1">  1        2 0.49274319E-01 0.58207180E+03</pdfrwt>
<pdfrwt beam="2">  1       -2 0.35081360E-01 0.58207180E+03</pdfrwt>
<totfact> 0.78184165E+02</totfact>
</mgrwt>
</event>
<event>
 4    1  0.6165923E-005  0.8777696E+03  0.7818608E-02  0.9453805E-01
         -2   -1    0    0    0  501 -0.00000000000E+00  0.00000000000E+00  0.17054046076E+03  0.17054046078E+03  0.25500000000E-02 0. -1.
          2   -1    0    0  501    0  0.00000000000E+00 -0.00000000000E+00 -0.11294672545E+04  0.11294672545E+04  0.25500000000E-02 0.  1.
    5000001    1    1    2    0    0 -0.38916250464E+03 -0.73197914757E+02 -0.51158774042E+03  0.67369978914E+03  0.18800000000E+03 0.  0.
   -5000001    1    1    2    0    0  0.38916250464E+03  0.73197914757E+02 -0.44733905333E+03  0.62630792616E+03  0.18800000000E+03 0.  0.
<mgrwt>
<rscale>  0 0.87776960E+03</rscale>
<asrwt>0</asrwt>
<pdfrwt beam="1">  1        2 0.16135246E+00 0.87776960E+03</pdfrwt>
<pdfrwt beam="2">  1       -2 0.24362924E-01 0.87776960E+03</pdfrwt>
<totfact> 0.35278366E+02</totfact>
</mgrwt>
</event>
<event>
 4    1  0.6165923E-005  0.5384080E+03  0.7818608E-02  0.1004213E+00
          2   -1    0    0  501    0  0.00000000000E+00  0.00000000000E+00  0.25255730360E+03  0.25255730362E+03  0.25500000000E-02 0.  1.
         -2   -1    0    0    0  501 -0.00000000000E+00 -0.00000000000E+00 -0.28694788857E+03  0.28694788858E+03  0.25500000000E-02 0. -1.
    5000001    1    1    2    0    0  0.92117607983E+02  0.11412287669E+02  0.15200049462E+03  0.25896726506E+03  0.18800000000E+03 0.  0.
   -5000001    1    1    2    0    0 -0.92117607983E+02 -0.11412287669E+02 -0.18639107958E+03  0.28053792713E+03  0.18800000000E+03 0.  0.
<mgrwt>
<rscale>  0 0.53840797E+03</rscale>
<asrwt>0</asrwt>
<pdfrwt beam="1">  1        2 0.36079615E-01 0.53840797E+03</pdfrwt>
<pdfrwt beam="2">  1       -2 0.40992555E-01 0.53840797E+03</pdfrwt>
<totfact> 0.81801538E+02</totfact>
</mgrwt>
</event>
<event>
 4    1  0.6165923E-005  0.4852200E+03  0.7818608E-02  0.1017710E+00
         -2   -1    0    0    0  501 -0.00000000000E+00  0.00000000000E+00  0.27614424553E+02  0.27614424670E+02  0.25500000000E-02 0. -1.
          2   -1    0    0  501    0  0.00000000000E+00 -0.00000000000E+00 -0.21314807955E+04  0.21314807955E+04  0.25500000000E-02 0.  1.
    5000001    1    1    2    0    0 -0.21348730036E+02 -0.14902020689E+03 -0.92198711418E+03  0.95292551076E+03  0.18800000000E+03 0.  0.
   -5000001    1    1    2    0    0  0.21348730036E+02  0.14902020689E+03 -0.11818792567E+04  0.12061697094E+04  0.18800000000E+03 0.  0.
<mgrwt>
<rscale>  0 0.48522002E+03</rscale>
<asrwt>0</asrwt>
<pdfrwt beam="1">  1        2 0.30449715E+00 0.48522002E+03</pdfrwt>
<pdfrwt beam="2">  1       -2 0.39449192E-02 0.48522002E+03</pdfrwt>
<totfact> 0.21146139E+03</totfact>
</mgrwt>
</event>
<event>
 4    1  0.6165923E-005  0.8507312E+03  0.7818608E-02  0.9489356E-01
          2   -1    0    0  501    0  0.00000000000E+00  0.00000000000E+00  0.92376822655E+03  0.92376822655E+03  0.25500000000E-02 0.  1.
         -2   -1    0    0    0  501 -0.00000000000E+00 -0.00000000000E+00 -0.19586718205E+03  0.19586718207E+03  0.25500000000E-02 0. -1.
    5000001    1    1    2    0    0  0.11622906870E+03  0.35364672384E+03  0.47419327422E+03  0.63148908384E+03  0.18800000000E+03 0.  0.
   -5000001    1    1    2    0    0 -0.11622906870E+03 -0.35364672384E+03  0.25370777028E+03  0.48814632478E+03  0.18800000000E+03 0.  0.
<mgrwt>
<rscale>  0 0.85073117E+03</rscale>
<asrwt>0</asrwt>
<pdfrwt beam="1">  1        2 0.13196689E+00 0.85073117E+03</pdfrwt>
<pdfrwt beam="2">  1       -2 0.27981026E-01 0.85073117E+03</pdfrwt>
<totfact> 0.36654889E+02</totfact>
</mgrwt>
</event>
<event>
 4    1  0.6165923E-005  0.5261708E+03  0.7818608E-02  0.1007165E+00
          2   -1    0    0  501    0  0.00000000000E+00  0.00000000000E+00  0.22016512608E+04  0.22016512608E+04  0.25500000000E-02 0.  1.
         -2   -1    0    0    0  501 -0.00000000000E+00 -0.00000000000E+00 -0.31437276404E+02  0.31437276507E+02  0.25500000000E-02 0. -1.
    5000001    1    1    2    0    0 -0.10293961047E+03 -0.11522308587E+03  0.15094470135E+04  0.15289366270E+04  0.18800000000E+03 0.  0.
   -5000001    1    1    2    0    0  0.10293961047E+03  0.11522308587E+03  0.66076697094E+03  0.70415191032E+03  0.18800000000E+03 0.  0.
<mgrwt>
<rscale>  0 0.52617077E+03</rscale>
<asrwt>0</asrwt>
<pdfrwt beam="1">  1        2 0.31452175E+00 0.52617077E+03</pdfrwt>
<pdfrwt beam="2">  1       -2 0.44910375E-02 0.52617077E+03</pdfrwt>
<totfact> 0.15955044E+03</totfact>
</mgrwt>
</event>
<event>
 4    1  0.6165923E-005  0.4640348E+03  0.7818608E-02  0.1023617E+00
         -2   -1    0    0    0  501 -0.00000000000E+00  0.00000000000E+00  0.47107477346E+02  0.47107477415E+02  0.25500000000E-02 0. -1.
          2   -1    0    0  501    0  0.00000000000E+00 -0.00000000000E+00 -0.11427502209E+04  0.11427502209E+04  0.25500000000E-02 0.  1.
    5000001    1    1    2    0    0 -0.50227583453E+02  0.91180080430E+02 -0.77211487220E+03  0.80146240902E+03  0.18800000000E+03 0.  0.
   -5000001    1    1    2    0    0  0.50227583453E+02 -0.91180080430E+02 -0.32352787139E+03  0.38839528933E+03  0.18800000000E+03 0.  0.
<mgrwt>
<rscale>  0 0.46403483E+03</rscale>
<asrwt>0</asrwt>
<pdfrwt beam="1">  1        2 0.16325001E+00 0.46403483E+03</pdfrwt>
<pdfrwt beam="2">  1       -2 0.67296403E-02 0.46403483E+03</pdfrwt>
<totfact> 0.29958584E+03</totfact>
</mgrwt>
</event>
<event>
 4    1  0.6165923E-005  0.5458053E+03  0.7818608E-02  0.1002470E+00
          2   -1    0    0  501    0  0.00000000000E+00  0.00000000000E+00  0.48477997722E+03  0.48477997723E+03  0.25500000000E-02 0.  1.
         -2   -1    0    0    0  501 -0.00000000000E+00 -0.00000000000E+00 -0.15362813848E+03  0.15362813850E+03  0.25500000000E-02 0. -1.
    5000001    1    1    2    0    0 -0.11123102395E+03 -0.14488166280E+03  0.25441493683E+03  0.36528618505E+03  0.18800000000E+03 0.  0.
   -5000001    1    1    2    0    0  0.11123102395E+03  0.14488166280E+03  0.76736901915E+02  0.27312193068E+03  0.18800000000E+03 0.  0.
<mgrwt>
<rscale>  0 0.54580526E+03</rscale>
<asrwt>0</asrwt>
<pdfrwt beam="1">  1        2 0.69254282E-01 0.54580526E+03</pdfrwt>
<pdfrwt beam="2">  1       -2 0.21946877E-01 0.54580526E+03</pdfrwt>
<totfact> 0.12594214E+03</totfact>
</mgrwt>
</event>
<event>
 4    1  0.6165923E-005  0.5614677E+03  0.7818608E-02  0.9988739E-01
          2   -1    0    0  501    0  0.00000000000E+00  0.00000000000E+00  0.27770853782E+04  0.27770853782E+04  0.25500000000E-02 0.  1.
         -2   -1    0    0    0  501 -0.00000000000E+00 -0.00000000000E+00 -0.28379213213E+02  0.28379213327E+02  0.25500000000E-02 0. -1.
    5000001    1    1    2    0    0  0.19008325506E+03 -0.85109690061E+02  0.13263760104E+04  0.13557258662E+04  0.18800000000E+03 0.  0.
   -5000001    1    1    2    0    0 -0.19008325506E+03  0.85109690061E+02  0.14223301545E+04  0.14497387253E+04  0.18800000000E+03 0.  0.
<mgrwt>
<rscale>  0 0.56146771E+03</rscale>
<asrwt>0</asrwt>
<pdfrwt beam="1">  1        2 0.39672620E+00 0.56146771E+03</pdfrwt>
<pdfrwt beam="2">  1       -2 0.40541763E-02 0.56146771E+03</pdfrwt>
<totfact> 0.94506426E+02</totfact>
</mgrwt>
</event>
<event>
 4    1  0.6165923E-005  0.1192277E+04  0.7818608E-02  0.9119644E-01
         -2   -1    0    0    0  501 -0.00000000000E+00  0.00000000000E+00  0.74905187021E+03  0.74905187022E+03  0.25500000000E-02 0. -1.
          2   -1    0    0  501    0  0.00000000000E+00 -0.00000000000E+00 -0.47444105256E+03  0.47444105257E+03  0.25500000000E-02 0.  1.
    5000001    1    1    2    0    0 -0.20925935861E+03  0.45387336043E+03  0.40928516731E+03  0.67279183605E+03  0.18800000000E+03 0.  0.
   -5000001    1    1    2    0    0  0.20925935861E+03 -0.45387336043E+03 -0.13467434966E+03  0.55070108674E+03  0.18800000000E+03 0.  0.
<mgrwt>
<rscale>  0 0.11922767E+04</rscale>
<asrwt>0</asrwt>
<pdfrwt beam="1">  1        2 0.67777293E-01 0.11922767E+04</pdfrwt>
<pdfrwt beam="2">  1       -2 0.10700741E+00 0.11922767E+04</pdfrwt>
<totfact> 0.49490550E+01</totfact>
</mgrwt>
</event>
<event>
 4    1  0.6165923E-005  0.4266217E+03  0.7818608E-02  0.1034932E+00
          2   -1    0    0  501    0  0.00000000000E+00  0.00000000000E+00  0.13716497973E+04  0.13716497973E+04  0.25500000000E-02 0.  1.
         -2   -1    0    0    0  501 -0.00000000000E+00 -0.00000000000E+00 -0.33172846360E+02  0.33172846458E+02  0.25500000000E-02 0. -1.
    5000001    1    1    2    0    0 -0.92735201543E+02 -0.29830103620E+02  0.58413912882E+03  0.62133097018E+03  0.18800000000E+03 0.  0.
   -5000001    1    1    2    0    0  0.92735201543E+02  0.29830103620E+02  0.75433782209E+03  0.78349167355E+03  0.18800000000E+03 0.  0.
<mgrwt>
<rscale>  0 0.42662174E+03</rscale>
<asrwt>0</asrwt>
<pdfrwt beam="1">  1        2 0.19594995E+00 0.42662174E+03</pdfrwt>
<pdfrwt beam="2">  1       -2 0.47389786E-02 0.42662174E+03</pdfrwt>
<totfact> 0.38705868E+03</totfact>
</mgrwt>
</event>
<event>
 4    1  0.6165923E-005  0.3987364E+03  0.7818608E-02  0.1044218E+00
          2   -1    0    0  501    0  0.00000000000E+00  0.00000000000E+00  0.76818009486E+03  0.76818009487E+03  0.25500000000E-02 0. -1.
         -2   -1    0    0    0  501 -0.00000000000E+00 -0.00000000000E+00 -0.51742647824E+02  0.51742647887E+02  0.25500000000E-02 0.  1.
    5000001    1    1    2    0    0  0.52024335769E+02 -0.19423939387E+02  0.28351373989E+03  0.34468516307E+03  0.18800000000E+03 0.  0.
   -5000001    1    1    2    0    0 -0.52024335769E+02  0.19423939387E+02  0.43292370714E+03  0.47523757968E+03  0.18800000000E+03 0.  0.
<mgrwt>
<rscale>  0 0.39873636E+03</rscale>
<asrwt>0</asrwt>
<pdfrwt beam="1">  1        2 0.10974002E+00 0.39873636E+03</pdfrwt>
<pdfrwt beam="2">  1       -2 0.73918066E-02 0.39873636E+03</pdfrwt>
<totfact> 0.44162437E+03</totfact>
</mgrwt>
</event>
<event>
 4    1  0.6165923E-005  0.5035265E+03  0.7818608E-02  0.1012863E+00
         -2   -1    0    0    0  501 -0.00000000000E+00  0.00000000000E+00  0.63978972899E+02  0.63978972950E+02  0.25500000000E-02 0. -1.
          2   -1    0    0  501    0  0.00000000000E+00 -0.00000000000E+00 -0.99071197952E+03  0.99071197952E+03  0.25500000000E-02 0.  1.
    5000001    1    1    2    0    0  0.15728468127E+03  0.56730908091E+02 -0.44418418545E+03  0.51049040882E+03  0.18800000000E+03 0.  0.
   -5000001    1    1    2    0    0 -0.15728468127E+03 -0.56730908091E+02 -0.48254882117E+03  0.54420054365E+03  0.18800000000E+03 0.  0.
<mgrwt>
<rscale>  0 0.50352650E+03</rscale>
<asrwt>0</asrwt>
<pdfrwt beam="1">  1        2 0.14153027E+00 0.50352650E+03</pdfrwt>
<pdfrwt beam="2">  1       -2 0.91398539E-02 0.50352650E+03</pdfrwt>
<totfact> 0.22647244E+03</totfact>
</mgrwt>
</event>
<event>
 4    1  0.6165923E-005  0.8172093E+03  0.7818608E-02  0.9535436E-01
         -2   -1    0    0    0  501 -0.00000000000E+00  0.00000000000E+00  0.97339551821E+02  0.97339551855E+02  0.25500000000E-02 0. -1.
          2   -1    0    0  501    0  0.00000000000E+00 -0.00000000000E+00 -0.17152098474E+04  0.17152098474E+04  0.25500000000E-02 0.  1.
    5000001    1    1    2    0    0  0.24698025780E+03 -0.26500819698E+03 -0.76540598353E+03  0.86742083895E+03  0.18800000000E+03 0.  0.
   -5000001    1    1    2    0    0 -0.24698025780E+03  0.26500819698E+03 -0.85246431208E+03  0.94512856035E+03  0.18800000000E+03 0.  0.
<mgrwt>
<rscale>  0 0.81720929E+03</rscale>
<asrwt>0</asrwt>
<pdfrwt beam="1">  1        2 0.24502996E+00 0.81720929E+03</pdfrwt>
<pdfrwt beam="2">  1       -2 0.13905651E-01 0.81720929E+03</pdfrwt>
<totfact> 0.45280509E+02</totfact>
</mgrwt>
</event>
<event>
 4    1  0.6165923E-005  0.7610987E+03  0.7818608E-02  0.9618097E-01
         -2   -1    0    0    0  501 -0.00000000000E+00  0.00000000000E+00  0.62320878082E+02  0.62320878134E+02  0.25500000000E-02 0. -1.
          2   -1    0    0  501    0  0.00000000000E+00 -0.00000000000E+00 -0.23237444951E+04  0.23237444951E+04  0.25500000000E-02 0.  1.
    5000001    1    1    2    0    0 -0.25996166227E+03 -0.18844437232E+03 -0.88025370455E+03  0.95565785283E+03  0.18800000000E+03 0.  0.
   -5000001    1    1    2    0    0  0.25996166227E+03  0.18844437232E+03 -0.13811699124E+04  0.14304075204E+04  0.18800000000E+03 0.  0.
<mgrwt>
<rscale>  0 0.76109867E+03</rscale>
<asrwt>0</asrwt>
<pdfrwt beam="1">  1        2 0.33196344E+00 0.76109867E+03</pdfrwt>
<pdfrwt beam="2">  1       -2 0.89029841E-02 0.76109867E+03</pdfrwt>
<totfact> 0.46414618E+02</totfact>
</mgrwt>
</event>
<event>
 4    1  0.6165923E-005  0.5518568E+03  0.7818608E-02  0.1001065E+00
         -2   -1    0    0    0  501 -0.00000000000E+00  0.00000000000E+00  0.40535931082E+03  0.40535931083E+03  0.25500000000E-02 0. -1.
          2   -1    0    0  501    0  0.00000000000E+00 -0.00000000000E+00 -0.18782468446E+03  0.18782468447E+03  0.25500000000E-02 0.  1.
    5000001    1    1    2    0    0 -0.15550098041E+02 -0.18445998231E+03  0.19559530046E+03  0.32843387794E+03  0.18800000000E+03 0.  0.
   -5000001    1    1    2    0    0  0.15550098041E+02  0.18445998231E+03  0.21939325910E+02  0.26475011736E+03  0.18800000000E+03 0.  0.
<mgrwt>
<rscale>  0 0.55185681E+03</rscale>
<asrwt>0</asrwt>
<pdfrwt beam="1">  1        2 0.26832098E-01 0.55185681E+03</pdfrwt>
<pdfrwt beam="2">  1       -2 0.57908472E-01 0.55185681E+03</pdfrwt>
<totfact> 0.56822876E+02</totfact>
</mgrwt>
</event>
<event>
 4    1  0.6165923E-005  0.4492078E+03  0.7818608E-02  0.1027959E+00
          2   -1    0    0  501    0  0.00000000000E+00  0.00000000000E+00  0.15781379111E+03  0.15781379114E+03  0.25500000000E-02 0.  1.
         -2   -1    0    0    0  501 -0.00000000000E+00 -0.00000000000E+00 -0.31966093487E+03  0.31966093488E+03  0.25500000000E-02 0. -1.
    5000001    1    1    2    0    0 -0.19836242021E+02 -0.11625047303E+03 -0.11767154786E+03  0.25119363478E+03  0.18800000000E+03 0.  0.
   -5000001    1    1    2    0    0  0.19836242021E+02  0.11625047303E+03 -0.44175595888E+02  0.22628109123E+03  0.18800000000E+03 0.  0.
<mgrwt>
<rscale>  0 0.44920776E+03</rscale>
<asrwt>0</asrwt>
<pdfrwt beam="1">  1        2 0.22544827E-01 0.44920776E+03</pdfrwt>
<pdfrwt beam="2">  1       -2 0.45665848E-01 0.44920776E+03</pdfrwt>
<totfact> 0.11226604E+03</totfact>
</mgrwt>
</event>
<event>
 4    1  0.6165923E-005  0.4789175E+03  0.7818608E-02  0.1019433E+00
         -2   -1    0    0    0  501 -0.00000000000E+00  0.00000000000E+00  0.31898732994E+02  0.31898733096E+02  0.25500000000E-02 0. -1.
          2   -1    0    0  501    0  0.00000000000E+00 -0.00000000000E+00 -0.17975786708E+04  0.17975786708E+04  0.25500000000E-02 0.  1.
    5000001    1    1    2    0    0  0.10997131267E+03 -0.98739006010E+02 -0.83552693373E+03  0.86907556513E+03  0.18800000000E+03 0.  0.
   -5000001    1    1    2    0    0 -0.10997131267E+03  0.98739006010E+02 -0.93015300405E+03  0.96040183874E+03  0.18800000000E+03 0.  0.
<mgrwt>
<rscale>  0 0.47891745E+03</rscale>
<asrwt>0</asrwt>
<pdfrwt beam="1">  1        2 0.25679689E+00 0.47891745E+03</pdfrwt>
<pdfrwt beam="2">  1       -2 0.45569630E-02 0.47891745E+03</pdfrwt>
<totfact> 0.24886281E+03</totfact>
</mgrwt>
</event>
<event>
 4    1  0.6165923E-005  0.8900253E+03  0.7818608E-02  0.9438137E-01
          2   -1    0    0  501    0  0.00000000000E+00  0.00000000000E+00  0.17097980607E+03  0.17097980609E+03  0.25500000000E-02 0.  1.
         -2   -1    0    0    0  501 -0.00000000000E+00 -0.00000000000E+00 -0.11582436824E+04  0.11582436824E+04  0.25500000000E-02 0. -1.
    5000001    1    1    2    0    0 -0.62875770372E+01 -0.29550148500E+03 -0.83725932141E+02  0.36015926057E+03  0.18800000000E+03 0.  0.
   -5000001    1    1    2    0    0  0.62875770372E+01  0.29550148500E+03 -0.90353794422E+03  0.96906422796E+03  0.18800000000E+03 0.  0.
<mgrwt>
<rscale>  0 0.89002535E+03</rscale>
<asrwt>0</asrwt>
<pdfrwt beam="1">  1        2 0.24425687E-01 0.89002535E+03</pdfrwt>
<pdfrwt beam="2">  1       -2 0.16546338E+00 0.89002535E+03</pdfrwt>
<totfact> 0.51978891E+01</totfact>
</mgrwt>
</event>
<event>
 4    1  0.6165923E-005  0.4127823E+03  0.7818608E-02  0.1039441E+00
          2   -1    0    0  501    0  0.00000000000E+00  0.00000000000E+00  0.16239147062E+04  0.16239147062E+04  0.25500000000E-02 0.  1.
         -2   -1    0    0    0  501 -0.00000000000E+00 -0.00000000000E+00 -0.26231246985E+02  0.26231247109E+02  0.25500000000E-02 0. -1.
    5000001    1    1    2    0    0  0.74671364411E+02  0.12745631732E+02  0.95444327912E+03  0.97572754232E+03  0.18800000000E+03 0.  0.
   -5000001    1    1    2    0    0 -0.74671364411E+02 -0.12745631732E+02  0.64324018011E+03  0.67441841100E+03  0.18800000000E+03 0.  0.
<mgrwt>
<rscale>  0 0.41278231E+03</rscale>
<asrwt>0</asrwt>
<pdfrwt beam="1">  1        2 0.23198794E+00 0.41278231E+03</pdfrwt>
<pdfrwt beam="2">  1       -2 0.37473190E-02 0.41278231E+03</pdfrwt>
<totfact> 0.41063866E+03</totfact>
</mgrwt>
</event>
<event>
 4    1  0.6165923E-005  0.4309155E+03  0.7818608E-02  0.1033571E+00
         -2   -1    0    0    0  501 -0.00000000000E+00  0.00000000000E+00  0.78183300766E+02  0.78183300808E+02  0.25500000000E-02 0. -1.
          2   -1    0    0  501    0  0.00000000000E+00 -0.00000000000E+00 -0.59375898203E+03  0.59375898204E+03  0.25500000000E-02 0.  1.
    5000001    1    1    2    0    0 -0.73373387893E+02 -0.43963873820E+02 -0.35342439547E+03  0.40935226830E+03  0.18800000000E+03 0.  0.
   -5000001    1    1    2    0    0  0.73373387893E+02  0.43963873820E+02 -0.16215128580E+03  0.26259001454E+03  0.18800000000E+03 0.  0.
<mgrwt>
<rscale>  0 0.43091548E+03</rscale>
<asrwt>0</asrwt>
<pdfrwt beam="1">  1        2 0.84822709E-01 0.43091548E+03</pdfrwt>
<pdfrwt beam="2">  1       -2 0.11169043E-01 0.43091548E+03</pdfrwt>
<totfact> 0.31149842E+03</totfact>
</mgrwt>
</event>
<event>
 4    1  0.6165923E-005  0.5121562E+03  0.7818608E-02  0.1010654E+00
          2   -1    0    0  501    0  0.00000000000E+00  0.00000000000E+00  0.14682179524E+03  0.14682179527E+03  0.25500000000E-02 0.  1.
         -2   -1    0    0    0  501 -0.00000000000E+00 -0.00000000000E+00 -0.44663655739E+03  0.44663655739E+03  0.25500000000E-02 0. -1.
    5000001    1    1    2    0    0 -0.12152435383E+03 -0.71008828413E+02 -0.26819906005E+03  0.35649005329E+03  0.18800000000E+03 0.  0.
   -5000001    1    1    2    0    0  0.12152435383E+03  0.71008828413E+02 -0.31615702095E+02  0.23696829937E+03  0.18800000000E+03 0.  0.
<mgrwt>
<rscale>  0 0.51215615E+03</rscale>
<asrwt>0</asrwt>
<pdfrwt beam="1">  1        2 0.20974542E-01 0.51215615E+03</pdfrwt>
<pdfrwt beam="2">  1       -2 0.63805222E-01 0.51215615E+03</pdfrwt>
<totfact> 0.61474117E+02</totfact>
</mgrwt>
</event>
<event>
 4    1  0.6165923E-005  0.4227378E+03  0.7818608E-02  0.1036179E+00
          2   -1    0    0  501    0  0.00000000000E+00  0.00000000000E+00  0.26762148977E+03  0.26762148978E+03  0.25500000000E-02 0.  1.
         -2   -1    0    0    0  501 -0.00000000000E+00 -0.00000000000E+00 -0.16694029816E+03  0.16694029818E+03  0.25500000000E-02 0. -1.
    5000001    1    1    2    0    0  0.94052689368E+02 -0.21745144622E+02  0.46487200819E+02  0.21638812244E+03  0.18800000000E+03 0.  0.
   -5000001    1    1    2    0    0 -0.94052689368E+02  0.21745144622E+02  0.54193990784E+02  0.21817366553E+03  0.18800000000E+03 0.  0.
<mgrwt>
<rscale>  0 0.42273780E+03</rscale>
<asrwt>0</asrwt>
<pdfrwt beam="1">  1        2 0.38231641E-01 0.42273780E+03</pdfrwt>
<pdfrwt beam="2">  1       -2 0.23848614E-01 0.42273780E+03</pdfrwt>
<totfact> 0.20916609E+03</totfact>
</mgrwt>
</event>
<event>
 4    1  0.6165923E-005  0.7510191E+03  0.7818608E-02  0.9633753E-01
          2   -1    0    0  501    0  0.00000000000E+00  0.00000000000E+00  0.68862390520E+03  0.68862390520E+03  0.25500000000E-02 0.  1.
         -2   -1    0    0    0  501 -0.00000000000E+00 -0.00000000000E+00 -0.20476697190E+03  0.20476697192E+03  0.25500000000E-02 0. -1.
    5000001    1    1    2    0    0  0.27331962288E+03  0.46549577215E+02  0.40076206602E+02  0.33737306017E+03  0.18800000000E+03 0.  0.
   -5000001    1    1    2    0    0 -0.27331962288E+03 -0.46549577215E+02  0.44378072669E+03  0.55601781696E+03  0.18800000000E+03 0.  0.
<mgrwt>
<rscale>  0 0.75101913E+03</rscale>
<asrwt>0</asrwt>
<pdfrwt beam="1">  1        2 0.98374844E-01 0.75101913E+03</pdfrwt>
<pdfrwt beam="2">  1       -2 0.29252425E-01 0.75101913E+03</pdfrwt>
<totfact> 0.49531689E+02</totfact>
</mgrwt>
</event>
<event>
 4    1  0.6165923E-005  0.1225679E+04  0.7818608E-02  0.9090672E-01
          2   -1    0    0  501    0  0.00000000000E+00  0.00000000000E+00  0.16722469366E+04  0.16722469366E+04  0.25500000000E-02 0.  1.
         -2   -1    0    0    0  501 -0.00000000000E+00 -0.00000000000E+00 -0.22459137064E+03  0.22459137065E+03  0.25500000000E-02 0. -1.
    5000001    1    1    2    0    0 -0.33631824598E+03 -0.38890366078E+03  0.29754778938E+03  0.62308483123E+03  0.18800000000E+03 0.  0.
   -5000001    1    1    2    0    0  0.33631824598E+03  0.38890366078E+03  0.11501077766E+04  0.12737534760E+04  0.18800000000E+03 0.  0.
<mgrwt>
<rscale>  0 0.12256790E+04</rscale>
<asrwt>0</asrwt>
<pdfrwt beam="1">  1        2 0.23889242E+00 0.12256790E+04</pdfrwt>
<pdfrwt beam="2">  1       -2 0.32084482E-01 0.12256790E+04</pdfrwt>
<totfact> 0.10553916E+02</totfact>
</mgrwt>
</event>
<event>
 4    1  0.6165923E-005  0.4428516E+03  0.7818608E-02  0.1029875E+00
         -2   -1    0    0    0  501 -0.00000000000E+00  0.00000000000E+00  0.43733527529E+03  0.43733527530E+03  0.25500000000E-02 0. -1.
          2   -1    0    0  501    0  0.00000000000E+00 -0.00000000000E+00 -0.11210937721E+03  0.11210937724E+03  0.25500000000E-02 0.  1.
    5000001    1    1    2    0    0 -0.36161509494E+02  0.11082029574E+03  0.15041918602E+03  0.26750462470E+03  0.18800000000E+03 0.  0.
   -5000001    1    1    2    0    0  0.36161509494E+02 -0.11082029574E+03  0.17480671206E+03  0.28194002784E+03  0.18800000000E+03 0.  0.
<mgrwt>
<rscale>  0 0.44285160E+03</rscale>
<asrwt>0</asrwt>
<pdfrwt beam="1">  1        2 0.16015625E-01 0.44285160E+03</pdfrwt>
<pdfrwt beam="2">  1       -2 0.62476468E-01 0.44285160E+03</pdfrwt>
<totfact> 0.88268637E+02</totfact>
</mgrwt>
</event>
<event>
 4    1  0.6165923E-005  0.5824690E+03  0.7818608E-02  0.9942460E-01
         -2   -1    0    0    0  501 -0.00000000000E+00  0.00000000000E+00  0.21587532806E+03  0.21587532808E+03  0.25500000000E-02 0. -1.
          2   -1    0    0  501    0  0.00000000000E+00 -0.00000000000E+00 -0.39290053739E+03  0.39290053740E+03  0.25500000000E-02 0.  1.
    5000001    1    1    2    0    0 -0.76002115369E+02 -0.20276496813E+03 -0.35388031817E+02  0.28893990143E+03  0.18800000000E+03 0.  0.
   -5000001    1    1    2    0    0  0.76002115369E+02  0.20276496813E+03 -0.14163717751E+03  0.31983596404E+03  0.18800000000E+03 0.  0.
<mgrwt>
<rscale>  0 0.58246899E+03</rscale>
<asrwt>0</asrwt>
<pdfrwt beam="1">  1        2 0.56128648E-01 0.58246899E+03</pdfrwt>
<pdfrwt beam="2">  1       -2 0.30839333E-01 0.58246899E+03</pdfrwt>
<totfact> 0.86184679E+02</totfact>
</mgrwt>
</event>
<event>
 4    1  0.6165923E-005  0.6719147E+03  0.7818608E-02  0.9766505E-01
          2   -1    0    0  501    0  0.00000000000E+00  0.00000000000E+00  0.11998577774E+04  0.11998577775E+04  0.25500000000E-02 0.  1.
         -2   -1    0    0    0  501 -0.00000000000E+00 -0.00000000000E+00 -0.94067252652E+02  0.94067252687E+02  0.25500000000E-02 0. -1.
    5000001    1    1    2    0    0 -0.18009712592E+03 -0.17896204174E+03  0.77297607439E+03  0.83504395018E+03  0.18800000000E+03 0.  0.
   -5000001    1    1    2    0    0  0.18009712592E+03  0.17896204174E+03  0.33281445040E+03  0.45888107996E+03  0.18800000000E+03 0.  0.
<mgrwt>
<rscale>  0 0.67191465E+03</rscale>
<asrwt>0</asrwt>
<pdfrwt beam="1">  1        2 0.17140825E+00 0.67191465E+03</pdfrwt>
<pdfrwt beam="2">  1       -2 0.13438179E-01 0.67191465E+03</pdfrwt>
<totfact> 0.90760283E+02</totfact>
</mgrwt>
</event>
<event>
 4    1  0.6165923E-005  0.6414205E+03  0.7818608E-02  0.9823012E-01
          2   -1    0    0  501    0  0.00000000000E+00  0.00000000000E+00  0.16298613358E+03  0.16298613359E+03  0.25500000000E-02 0.  1.
         -2   -1    0    0    0  501 -0.00000000000E+00 -0.00000000000E+00 -0.63106639844E+03  0.63106639844E+03  0.25500000000E-02 0. -1.
    5000001    1    1    2    0    0 -0.25490712449E+03 -0.34795715811E+01 -0.29620150660E+03  0.43366932339E+03  0.18800000000E+03 0.  0.
   -5000001    1    1    2    0    0  0.25490712449E+03  0.34795715811E+01 -0.17187875826E+03  0.36038320865E+03  0.18800000000E+03 0.  0.
<mgrwt>
<rscale>  0 0.64142052E+03</rscale>
<asrwt>0</asrwt>
<pdfrwt beam="1">  1        2 0.23283734E-01 0.64142052E+03</pdfrwt>
<pdfrwt beam="2">  1       -2 0.90152341E-01 0.64142052E+03</pdfrwt>
<totfact> 0.25312070E+02</totfact>
</mgrwt>
</event>
<event>
 4    1  0.6165923E-005  0.7739436E+03  0.7818608E-02  0.9598518E-01
         -2   -1    0    0    0  501 -0.00000000000E+00  0.00000000000E+00  0.71871674842E+02  0.71871674887E+02  0.25500000000E-02 0. -1.
          2   -1    0    0  501    0  0.00000000000E+00 -0.00000000000E+00 -0.20835355658E+04  0.20835355658E+04  0.25500000000E-02 0.  1.
    5000001    1    1    2    0    0  0.26635962316E+02 -0.33395183403E+03 -0.11355614443E+04  0.11987815046E+04  0.18800000000E+03 0.  0.
   -5000001    1    1    2    0    0 -0.26635962316E+02  0.33395183403E+03 -0.87610244664E+03  0.95662573609E+03  0.18800000000E+03 0.  0.
<mgrwt>
<rscale>  0 0.77394364E+03</rscale>
<asrwt>0</asrwt>
<pdfrwt beam="1">  1        2 0.29764790E+00 0.77394364E+03</pdfrwt>
<pdfrwt beam="2">  1       -2 0.10267383E-01 0.77394364E+03</pdfrwt>
<totfact> 0.48732322E+02</totfact>
</mgrwt>
</event>
<event>
 4    1  0.6165923E-005  0.5385752E+03  0.7818608E-02  0.1004173E+00
          2   -1    0    0  501    0  0.00000000000E+00  0.00000000000E+00  0.97676415925E+02  0.97676415958E+02  0.25500000000E-02 0.  1.
         -2   -1    0    0    0  501 -0.00000000000E+00 -0.00000000000E+00 -0.74240866554E+03  0.74240866554E+03  0.25500000000E-02 0. -1.
    5000001    1    1    2    0    0 -0.68336493430E+02  0.18006719246E+03 -0.30861240824E+03  0.40948710438E+03  0.18800000000E+03 0.  0.
   -5000001    1    1    2    0    0  0.68336493430E+02 -0.18006719246E+03 -0.33611984137E+03  0.43059797712E+03  0.18800000000E+03 0.  0.
<mgrwt>
<rscale>  0 0.53857522E+03</rscale>
<asrwt>0</asrwt>
<pdfrwt beam="1">  1        2 0.13953774E-01 0.53857522E+03</pdfrwt>
<pdfrwt beam="2">  1       -2 0.10605838E+00 0.53857522E+03</pdfrwt>
<totfact> 0.31807733E+02</totfact>
</mgrwt>
</event>
<event>
 4    1  0.6165923E-005  0.4600899E+03  0.7818608E-02  0.1024755E+00
          2   -1    0    0  501    0  0.00000000000E+00  0.00000000000E+00  0.50118957303E+03  0.50118957303E+03  0.25500000000E-02 0.  1.
         -2   -1    0    0    0  501 -0.00000000000E+00 -0.00000000000E+00 -0.10559012487E+03  0.10559012490E+03  0.25500000000E-02 0. -1.
    5000001    1    1    2    0    0 -0.11370101867E+03 -0.62159634068E+02  0.23474877198E+03  0.32747935462E+03  0.18800000000E+03 0.  0.
   -5000001    1    1    2    0    0  0.11370101867E+03  0.62159634068E+02  0.16085067617E+03  0.27930034332E+03  0.18800000000E+03 0.  0.
<mgrwt>
<rscale>  0 0.46008986E+03</rscale>
<asrwt>0</asrwt>
<pdfrwt beam="1">  1        2 0.71598509E-01 0.46008986E+03</pdfrwt>
<pdfrwt beam="2">  1       -2 0.15084304E-01 0.46008986E+03</pdfrwt>
<totfact> 0.23060274E+03</totfact>
</mgrwt>
</event>
<event>
 4    1  0.6165923E-005  0.5169304E+03  0.7818608E-02  0.1009452E+00
          2   -1    0    0  501    0  0.00000000000E+00  0.00000000000E+00  0.38944246016E+03  0.38944246017E+03  0.25500000000E-02 0.  1.
         -2   -1    0    0    0  501 -0.00000000000E+00 -0.00000000000E+00 -0.17153822312E+03  0.17153822314E+03  0.25500000000E-02 0. -1.
    5000001    1    1    2    0    0 -0.16292542171E+03  0.69155963565E+02  0.12146871326E+03  0.28535221856E+03  0.18800000000E+03 0.  0.
   -5000001    1    1    2    0    0  0.16292542171E+03 -0.69155963565E+02  0.96435523777E+02  0.27562846475E+03  0.18800000000E+03 0.  0.
<mgrwt>
<rscale>  0 0.51693043E+03</rscale>
<asrwt>0</asrwt>
<pdfrwt beam="1">  1        2 0.55634637E-01 0.51693043E+03</pdfrwt>
<pdfrwt beam="2">  1       -2 0.24505461E-01 0.51693043E+03</pdfrwt>
<totfact> 0.13224684E+03</totfact>
</mgrwt>
</event>
<event>
 4    1  0.6165923E-005  0.6326352E+03  0.7818608E-02  0.9839920E-01
         -2   -1    0    0    0  501 -0.00000000000E+00  0.00000000000E+00  0.52907402988E+02  0.52907403050E+02  0.25500000000E-02 0. -1.
          2   -1    0    0  501    0  0.00000000000E+00 -0.00000000000E+00 -0.18911685200E+04  0.18911685200E+04  0.25500000000E-02 0.  1.
    5000001    1    1    2    0    0  0.91732874856E+02 -0.21862722559E+03 -0.12024459329E+04  0.12399326618E+04  0.18800000000E+03 0.  0.
   -5000001    1    1    2    0    0 -0.91732874856E+02  0.21862722559E+03 -0.63581518403E+03  0.70414326123E+03  0.18800000000E+03 0.  0.
<mgrwt>
<rscale>  0 0.63263517E+03</rscale>
<asrwt>0</asrwt>
<pdfrwt beam="1">  1        2 0.27016689E+00 0.63263517E+03</pdfrwt>
<pdfrwt beam="2">  1       -2 0.75582016E-02 0.63263517E+03</pdfrwt>
<totfact> 0.10066956E+03</totfact>
</mgrwt>
</event>
<event>
 4    1  0.6165923E-005  0.4953531E+03  0.7818608E-02  0.1014999E+00
         -2   -1    0    0    0  501 -0.00000000000E+00  0.00000000000E+00  0.24082049177E+03  0.24082049178E+03  0.25500000000E-02 0. -1.
          2   -1    0    0  501    0  0.00000000000E+00 -0.00000000000E+00 -0.25472782725E+03  0.25472782726E+03  0.25500000000E-02 0.  1.
    5000001    1    1    2    0    0  0.50298648283E+01 -0.16095880594E+03  0.12131193228E+01  0.24754496240E+03  0.18800000000E+03 0.  0.
   -5000001    1    1    2    0    0 -0.50298648283E+01  0.16095880594E+03 -0.15120454799E+02  0.24800335664E+03  0.18800000000E+03 0.  0.
<mgrwt>
<rscale>  0 0.49535313E+03</rscale>
<asrwt>0</asrwt>
<pdfrwt beam="1">  1        2 0.36389690E-01 0.49535313E+03</pdfrwt>
<pdfrwt beam="2">  1       -2 0.34402927E-01 0.49535313E+03</pdfrwt>
<totfact> 0.11332520E+03</totfact>
</mgrwt>
</event>
<event>
 4    1  0.6165923E-005  0.5537732E+03  0.7818608E-02  0.1000624E+00
         -2   -1    0    0    0  501 -0.00000000000E+00  0.00000000000E+00  0.26647626475E+02  0.26647626597E+02  0.25500000000E-02 0. -1.
          2   -1    0    0  501    0  0.00000000000E+00 -0.00000000000E+00 -0.28770367096E+04  0.28770367096E+04  0.25500000000E-02 0.  1.
    5000001    1    1    2    0    0  0.18402413188E+02  0.18443102719E+03 -0.98747615259E+03  0.10221578178E+04  0.18800000000E+03 0.  0.
   -5000001    1    1    2    0    0 -0.18402413188E+02 -0.18443102719E+03 -0.18629129306E+04  0.18815265184E+04  0.18800000000E+03 0.  0.
<mgrwt>
<rscale>  0 0.55377324E+03</rscale>
<asrwt>0</asrwt>
<pdfrwt beam="1">  1        2 0.41100505E+00 0.55377324E+03</pdfrwt>
<pdfrwt beam="2">  1       -2 0.38068056E-02 0.55377324E+03</pdfrwt>
<totfact> 0.92186496E+02</totfact>
</mgrwt>
</event>
<event>
 4    1  0.6165923E-005  0.5173227E+03  0.7818608E-02  0.1009354E+00
          2   -1    0    0  501    0  0.00000000000E+00  0.00000000000E+00  0.23303288451E+04  0.23303288451E+04  0.25500000000E-02 0.  1.
         -2   -1    0    0    0  501 -0.00000000000E+00 -0.00000000000E+00 -0.28710838627E+02  0.28710838740E+02  0.25500000000E-02 0. -1.
    5000001    1    1    2    0    0 -0.17528225578E+03  0.28888326129E+02  0.11590814888E+04  0.11875909659E+04  0.18800000000E+03 0.  0.
   -5000001    1    1    2    0    0  0.17528225578E+03 -0.28888326129E+02  0.11425365177E+04  0.11714487180E+04  0.18800000000E+03 0.  0.
<mgrwt>
<rscale>  0 0.51732271E+03</rscale>
<asrwt>0</asrwt>
<pdfrwt beam="1">  1        2 0.33290426E+00 0.51732271E+03</pdfrwt>
<pdfrwt beam="2">  1       -2 0.41015467E-02 0.51732271E+03</pdfrwt>
<totfact> 0.15809592E+03</totfact>
</mgrwt>
</event>
<event>
 4    1  0.6165923E-005  0.6845109E+03  0.7818608E-02  0.9744093E-01
          2   -1    0    0  501    0  0.00000000000E+00  0.00000000000E+00  0.32388487146E+04  0.32388487146E+04  0.25500000000E-02 0.  1.
         -2   -1    0    0    0  501 -0.00000000000E+00 -0.00000000000E+00 -0.36166799098E+02  0.36166799188E+02  0.25500000000E-02 0. -1.
    5000001    1    1    2    0    0 -0.17292724227E+03 -0.12604694151E+03  0.25091680029E+04  0.25252840888E+04  0.18800000000E+03 0.  0.
   -5000001    1    1    2    0    0  0.17292724227E+03  0.12604694151E+03  0.69351391262E+03  0.74973142497E+03  0.18800000000E+03 0.  0.
<mgrwt>
<rscale>  0 0.68451089E+03</rscale>
<asrwt>0</asrwt>
<pdfrwt beam="1">  1        2 0.46269244E+00 0.68451089E+03</pdfrwt>
<pdfrwt beam="2">  1       -2 0.51666882E-02 0.68451089E+03</pdfrwt>
<totfact> 0.35927157E+02</totfact>
</mgrwt>
</event>
<event>
 4    1  0.6165923E-005  0.6921267E+03  0.7818608E-02  0.9730792E-01
         -2   -1    0    0    0  501 -0.00000000000E+00  0.00000000000E+00  0.50942429656E+02  0.50942429720E+02  0.25500000000E-02 0. -1.
          2   -1    0    0  501    0  0.00000000000E+00 -0.00000000000E+00 -0.23508858383E+04  0.23508858383E+04  0.25500000000E-02 0.  1.
    5000001    1    1    2    0    0 -0.96837621167E+00 -0.23966729172E+03 -0.58002668276E+03  0.65514601516E+03  0.18800000000E+03 0.  0.
   -5000001    1    1    2    0    0  0.96837621167E+00  0.23966729172E+03 -0.17199167259E+04  0.17466822529E+04  0.18800000000E+03 0.  0.
<mgrwt>
<rscale>  0 0.69212668E+03</rscale>
<asrwt>0</asrwt>
<pdfrwt beam="1">  1        2 0.33584077E+00 0.69212668E+03</pdfrwt>
<pdfrwt beam="2">  1       -2 0.72774914E-02 0.69212668E+03</pdfrwt>
<totfact> 0.62393767E+02</totfact>
</mgrwt>
</event>
<event>
 4    1  0.6165923E-005  0.1240349E+04  0.7818608E-02  0.9078255E-01
          2   -1    0    0  501    0  0.00000000000E+00  0.00000000000E+00  0.53363584558E+03  0.53363584559E+03  0.25500000000E-02 0.  1.
         -2   -1    0    0    0  501 -0.00000000000E+00 -0.00000000000E+00 -0.72074646656E+03  0.72074646656E+03  0.25500000000E-02 0. -1.
    5000001    1    1    2    0    0  0.24979410223E+03  0.45204141094E+03 -0.38409242107E+03  0.67052928246E+03  0.18800000000E+03 0.  0.
   -5000001    1    1    2    0    0 -0.24979410223E+03 -0.45204141094E+03  0.19698180010E+03  0.58385302969E+03  0.18800000000E+03 0.  0.
<mgrwt>
<rscale>  0 0.12403486E+04</rscale>
<asrwt>0</asrwt>
<pdfrwt beam="1">  1        2 0.76233692E-01 0.12403486E+04</pdfrwt>
<pdfrwt beam="2">  1       -2 0.10296378E+00 0.12403486E+04</pdfrwt>
<totfact> 0.47279811E+01</totfact>
</mgrwt>
</event>
<event>
 4    1  0.6165923E-005  0.8249877E+03  0.7818608E-02  0.9524537E-01
          2   -1    0    0  501    0  0.00000000000E+00  0.00000000000E+00  0.69175771214E+03  0.69175771214E+03  0.25500000000E-02 0.  1.
         -2   -1    0    0    0  501 -0.00000000000E+00 -0.00000000000E+00 -0.24596930037E+03  0.24596930038E+03  0.25500000000E-02 0. -1.
    5000001    1    1    2    0    0 -0.15208380862E+03  0.30658166668E+03  0.71734550757E+02  0.39700333621E+03  0.18800000000E+03 0.  0.
   -5000001    1    1    2    0    0  0.15208380862E+03 -0.30658166668E+03  0.37405386101E+03  0.54072367631E+03  0.18800000000E+03 0.  0.
<mgrwt>
<rscale>  0 0.82498766E+03</rscale>
<asrwt>0</asrwt>
<pdfrwt beam="1">  1        2 0.98822531E-01 0.82498766E+03</pdfrwt>
<pdfrwt beam="2">  1       -2 0.35138471E-01 0.82498766E+03</pdfrwt>
<totfact> 0.34831436E+02</totfact>
</mgrwt>
</event>
<event>
 4    1  0.6165923E-005  0.6353024E+03  0.7818608E-02  0.9834756E-01
         -2   -1    0    0    0  501 -0.00000000000E+00  0.00000000000E+00  0.16541226508E+03  0.16541226510E+03  0.25500000000E-02 0. -1.
          2   -1    0    0  501    0  0.00000000000E+00 -0.00000000000E+00 -0.61000478233E+03  0.61000478233E+03  0.25500000000E-02 0.  1.
    5000001    1    1    2    0    0  0.10697131530E+03 -0.22900346361E+03 -0.17237563336E+03  0.35908607271E+03  0.18800000000E+03 0.  0.
   -5000001    1    1    2    0    0 -0.10697131530E+03  0.22900346361E+03 -0.27221688389E+03  0.41633097472E+03  0.18800000000E+03 0.  0.
<mgrwt>
<rscale>  0 0.63530236E+03</rscale>
<asrwt>0</asrwt>
<pdfrwt beam="1">  1        2 0.87143539E-01 0.63530236E+03</pdfrwt>
<pdfrwt beam="2">  1       -2 0.23630324E-01 0.63530236E+03</pdfrwt>
<totfact> 0.84666761E+02</totfact>
</mgrwt>
</event>
<event>
 4    1  0.6165923E-005  0.6473106E+03  0.7818608E-02  0.9811839E-01
         -2   -1    0    0    0  501 -0.00000000000E+00  0.00000000000E+00  0.25965931893E+03  0.25965931894E+03  0.25500000000E-02 0. -1.
          2   -1    0    0  501    0  0.00000000000E+00 -0.00000000000E+00 -0.40342384562E+03  0.40342384563E+03  0.25500000000E-02 0.  1.
    5000001    1    1    2    0    0  0.19265782950E+03 -0.10979046770E+03  0.73843603503E+02  0.29994643496E+03  0.18800000000E+03 0.  0.
   -5000001    1    1    2    0    0 -0.19265782950E+03  0.10979046770E+03 -0.21760813020E+03  0.36313672961E+03  0.18800000000E+03 0.  0.
<mgrwt>
<rscale>  0 0.64731062E+03</rscale>
<asrwt>0</asrwt>
<pdfrwt beam="1">  1        2 0.57631977E-01 0.64731062E+03</pdfrwt>
<pdfrwt beam="2">  1       -2 0.37094189E-01 0.64731062E+03</pdfrwt>
<totfact> 0.59023219E+02</totfact>
</mgrwt>
</event>
<event>
 4    1  0.6165923E-005  0.4422876E+03  0.7818608E-02  0.1030047E+00
         -2   -1    0    0    0  501 -0.00000000000E+00  0.00000000000E+00  0.89606816547E+03  0.89606816547E+03  0.25500000000E-02 0. -1.
          2   -1    0    0  501    0  0.00000000000E+00 -0.00000000000E+00 -0.54576846942E+02  0.54576847002E+02  0.25500000000E-02 0.  1.
    5000001    1    1    2    0    0  0.33781200457E+02 -0.95368975521E+02  0.54466949972E+03  0.58501732873E+03  0.18800000000E+03 0.  0.
   -5000001    1    1    2    0    0 -0.33781200457E+02  0.95368975521E+02  0.29682181881E+03  0.36562768374E+03  0.18800000000E+03 0.  0.
<mgrwt>
<rscale>  0 0.44228758E+03</rscale>
<asrwt>0</asrwt>
<pdfrwt beam="1">  1        2 0.77966921E-02 0.44228758E+03</pdfrwt>
<pdfrwt beam="2">  1       -2 0.12800974E+00 0.44228758E+03</pdfrwt>
<totfact> 0.41848353E+02</totfact>
</mgrwt>
</event>
<event>
 4    1  0.6165923E-005  0.1027865E+04  0.7818608E-02  0.9278500E-01
          2   -1    0    0  501    0  0.00000000000E+00  0.00000000000E+00  0.84192483620E+03  0.84192483621E+03  0.25500000000E-02 0.  1.
         -2   -1    0    0    0  501 -0.00000000000E+00 -0.00000000000E+00 -0.31371770960E+03  0.31371770961E+03  0.25500000000E-02 0. -1.
    5000001    1    1    2    0    0 -0.30930924982E+03  0.36024636265E+03  0.32901333042E+03  0.60748944470E+03  0.18800000000E+03 0.  0.
   -5000001    1    1    2    0    0  0.30930924982E+03 -0.36024636265E+03  0.19919379618E+03  0.54815310112E+03  0.18800000000E+03 0.  0.
<mgrwt>
<rscale>  0 0.10278652E+04</rscale>
<asrwt>0</asrwt>
<pdfrwt beam="1">  1        2 0.12027498E+00 0.10278652E+04</pdfrwt>
<pdfrwt beam="2">  1       -2 0.44816815E-01 0.10278652E+04</pdfrwt>
<totfact> 0.16722134E+02</totfact>
</mgrwt>
</event>
<event>
 4    1  0.6165923E-005  0.6278446E+03  0.7818608E-02  0.9849264E-01
          2   -1    0    0  501    0  0.00000000000E+00  0.00000000000E+00  0.12844747898E+04  0.12844747898E+04  0.25500000000E-02 0.  1.
         -2   -1    0    0    0  501 -0.00000000000E+00 -0.00000000000E+00 -0.76721790624E+02  0.76721790666E+02  0.25500000000E-02 0. -1.
    5000001    1    1    2    0    0 -0.13247063679E+03  0.43019523107E+02  0.15011686078E+03  0.27798960569E+03  0.18800000000E+03 0.  0.
   -5000001    1    1    2    0    0  0.13247063679E+03 -0.43019523107E+02  0.10576361384E+04  0.10832069748E+04  0.18800000000E+03 0.  0.
<mgrwt>
<rscale>  0 0.62784459E+03</rscale>
<asrwt>0</asrwt>
<pdfrwt beam="1">  1        2 0.18349638E+00 0.62784459E+03</pdfrwt>
<pdfrwt beam="2">  1       -2 0.10960257E-01 0.62784459E+03</pdfrwt>
<totfact> 0.11422042E+03</totfact>
</mgrwt>
</event>
<event>
 4    1  0.6165923E-005  0.5112086E+03  0.7818608E-02  0.1010894E+00
         -2   -1    0    0    0  501 -0.00000000000E+00  0.00000000000E+00  0.64573890790E+02  0.64573890840E+02  0.25500000000E-02 0. -1.
          2   -1    0    0  501    0  0.00000000000E+00 -0.00000000000E+00 -0.10117642888E+04  0.10117642888E+04  0.25500000000E-02 0.  1.
    5000001    1    1    2    0    0 -0.99289135284E+02  0.13386489967E+03 -0.37458372508E+03  0.45103781531E+03  0.18800000000E+03 0.  0.
   -5000001    1    1    2    0    0  0.99289135284E+02 -0.13386489967E+03 -0.57260667295E+03  0.62530036435E+03  0.18800000000E+03 0.  0.
<mgrwt>
<rscale>  0 0.51120859E+03</rscale>
<asrwt>0</asrwt>
<pdfrwt beam="1">  1        2 0.14453775E+00 0.51120859E+03</pdfrwt>
<pdfrwt beam="2">  1       -2 0.92248422E-02 0.51120859E+03</pdfrwt>
<totfact> 0.21667605E+03</totfact>
</mgrwt>
</event>
<event>
 4    1  0.6165923E-005  0.7339326E+03  0.7818608E-02  0.9660900E-01
         -2   -1    0    0    0  501 -0.00000000000E+00  0.00000000000E+00  0.13768016695E+03  0.13768016698E+03  0.25500000000E-02 0. -1.
          2   -1    0    0  501    0  0.00000000000E+00 -0.00000000000E+00 -0.97809483087E+03  0.97809483088E+03  0.25500000000E-02 0.  1.
    5000001    1    1    2    0    0 -0.26065180735E+03  0.11027304349E+02 -0.68899543063E+03  0.76034181099E+03  0.18800000000E+03 0.  0.
   -5000001    1    1    2    0    0  0.26065180735E+03 -0.11027304349E+02 -0.15141923330E+03  0.35543318687E+03  0.18800000000E+03 0.  0.
<mgrwt>
<rscale>  0 0.73393258E+03</rscale>
<asrwt>0</asrwt>
<pdfrwt beam="1">  1        2 0.13972783E+00 0.73393258E+03</pdfrwt>
<pdfrwt beam="2">  1       -2 0.19668596E-01 0.73393258E+03</pdfrwt>
<totfact> 0.63918781E+02</totfact>
</mgrwt>
</event>
<event>
 4    1  0.6165923E-005  0.7606018E+03  0.7818608E-02  0.9618863E-01
         -2   -1    0    0    0  501 -0.00000000000E+00  0.00000000000E+00  0.76983318384E+02  0.76983318426E+02  0.25500000000E-02 0. -1.
          2   -1    0    0  501    0  0.00000000000E+00 -0.00000000000E+00 -0.18787026483E+04  0.18787026483E+04  0.25500000000E-02 0.  1.
    5000001    1    1    2    0    0  0.24797234675E+03 -0.21672171983E+03 -0.82695396048E+03  0.90975570421E+03  0.18800000000E+03 0.  0.
   -5000001    1    1    2    0    0 -0.24797234675E+03  0.21672171983E+03 -0.97476536947E+03  0.10459302625E+04  0.18800000000E+03 0.  0.
<mgrwt>
<rscale>  0 0.76060177E+03</rscale>
<asrwt>0</asrwt>
<pdfrwt beam="1">  1        2 0.26838607E+00 0.76060177E+03</pdfrwt>
<pdfrwt beam="2">  1       -2 0.10997618E-01 0.76060177E+03</pdfrwt>
<totfact> 0.55347217E+02</totfact>
</mgrwt>
</event>
<event>
 4    1  0.6165923E-005  0.4099105E+03  0.7818608E-02  0.1040401E+00
         -2   -1    0    0    0  501 -0.00000000000E+00  0.00000000000E+00  0.33555063200E+02  0.33555063297E+02  0.25500000000E-02 0. -1.
          2   -1    0    0  501    0  0.00000000000E+00 -0.00000000000E+00 -0.12518723844E+04  0.12518723844E+04  0.25500000000E-02 0.  1.
    5000001    1    1    2    0    0 -0.57729479702E+02  0.57607923224E+02 -0.59862128776E+03  0.63272649052E+03  0.18800000000E+03 0.  0.
   -5000001    1    1    2    0    0  0.57729479702E+02 -0.57607923224E+02 -0.61969603347E+03  0.65270095721E+03  0.18800000000E+03 0.  0.
<mgrwt>
<rscale>  0 0.40991051E+03</rscale>
<asrwt>0</asrwt>
<pdfrwt beam="1">  1        2 0.17883888E+00 0.40991051E+03</pdfrwt>
<pdfrwt beam="2">  1       -2 0.47935813E-02 0.40991051E+03</pdfrwt>
<totfact> 0.44068421E+03</totfact>
</mgrwt>
</event>
<event>
 4    1  0.6165923E-005  0.7153716E+03  0.7818608E-02  0.9691300E-01
         -2   -1    0    0    0  501 -0.00000000000E+00  0.00000000000E+00  0.25048852273E+03  0.25048852274E+03  0.25500000000E-02 0. -1.
          2   -1    0    0  501    0  0.00000000000E+00 -0.00000000000E+00 -0.51075843544E+03  0.51075843544E+03  0.25500000000E-02 0.  1.
    5000001    1    1    2    0    0  0.91862467560E+01  0.30269234797E+03 -0.16184670957E+03  0.39146570993E+03  0.18800000000E+03 0.  0.
   -5000001    1    1    2    0    0 -0.91862467560E+01 -0.30269234797E+03 -0.98423203137E+02  0.36978124826E+03  0.18800000000E+03 0.  0.
<mgrwt>
<rscale>  0 0.71537158E+03</rscale>
<asrwt>0</asrwt>
<pdfrwt beam="1">  1        2 0.72965490E-01 0.71537158E+03</pdfrwt>
<pdfrwt beam="2">  1       -2 0.35784075E-01 0.71537158E+03</pdfrwt>
<totfact> 0.48367567E+02</totfact>
</mgrwt>
</event>
<event>
 4    1  0.6165923E-005  0.4808472E+03  0.7818608E-02  0.1018903E+00
          2   -1    0    0  501    0  0.00000000000E+00  0.00000000000E+00  0.49539735509E+03  0.49539735510E+03  0.25500000000E-02 0.  1.
         -2   -1    0    0    0  501 -0.00000000000E+00 -0.00000000000E+00 -0.11668109119E+03  0.11668109122E+03  0.25500000000E-02 0. -1.
    5000001    1    1    2    0    0 -0.40395289086E+02  0.82147983535E+02  0.34039834758E+03  0.39949356142E+03  0.18800000000E+03 0.  0.
   -5000001    1    1    2    0    0  0.40395289086E+02 -0.82147983535E+02  0.38317916320E+02  0.21258488491E+03  0.18800000000E+03 0.  0.
<mgrwt>
<rscale>  0 0.48084719E+03</rscale>
<asrwt>0</asrwt>
<pdfrwt beam="1">  1        2 0.70771050E-01 0.48084719E+03</pdfrwt>
<pdfrwt beam="2">  1       -2 0.16668728E-01 0.48084719E+03</pdfrwt>
<totfact> 0.19753892E+03</totfact>
</mgrwt>
</event>
<event>
 4    1  0.6165923E-005  0.4136122E+03  0.7818608E-02  0.1039166E+00
         -2   -1    0    0    0  501 -0.00000000000E+00  0.00000000000E+00  0.19253836884E+03  0.19253836886E+03  0.25500000000E-02 0. -1.
          2   -1    0    0  501    0  0.00000000000E+00 -0.00000000000E+00 -0.22213109862E+03  0.22213109863E+03  0.25500000000E-02 0.  1.
    5000001    1    1    2    0    0 -0.15669928656E+01  0.59193675710E+02 -0.77553603255E+02  0.21181338033E+03  0.18800000000E+03 0.  0.
   -5000001    1    1    2    0    0  0.15669928656E+01 -0.59193675710E+02  0.47960873482E+02  0.20285608715E+03  0.18800000000E+03 0.  0.
<mgrwt>
<rscale>  0 0.41361218E+03</rscale>
<asrwt>0</asrwt>
<pdfrwt beam="1">  1        2 0.31733014E-01 0.41361218E+03</pdfrwt>
<pdfrwt beam="2">  1       -2 0.27505481E-01 0.41361218E+03</pdfrwt>
<totfact> 0.19893954E+03</totfact>
</mgrwt>
</event>
<event>
 4    1  0.6165923E-005  0.4753382E+03  0.7818608E-02  0.1020424E+00
          2   -1    0    0  501    0  0.00000000000E+00  0.00000000000E+00  0.56056632325E+03  0.56056632325E+03  0.25500000000E-02 0.  1.
         -2   -1    0    0    0  501 -0.00000000000E+00 -0.00000000000E+00 -0.10076703376E+03  0.10076703380E+03  0.25500000000E-02 0. -1.
    5000001    1    1    2    0    0 -0.69146861802E+02  0.12790909344E+03  0.22883920169E+03  0.32992939383E+03  0.18800000000E+03 0.  0.
   -5000001    1    1    2    0    0  0.69146861802E+02 -0.12790909344E+03  0.23096008779E+03  0.33140396322E+03  0.18800000000E+03 0.  0.
<mgrwt>
<rscale>  0 0.47533822E+03</rscale>
<asrwt>0</asrwt>
<pdfrwt beam="1">  1        2 0.80080905E-01 0.47533822E+03</pdfrwt>
<pdfrwt beam="2">  1       -2 0.14395290E-01 0.47533822E+03</pdfrwt>
<totfact> 0.21953973E+03</totfact>
</mgrwt>
</event>
<event>
 4    1  0.6165923E-005  0.8305621E+03  0.7818608E-02  0.9516804E-01
          2   -1    0    0  501    0  0.00000000000E+00  0.00000000000E+00  0.15130827242E+04  0.15130827242E+04  0.25500000000E-02 0.  1.
         -2   -1    0    0    0  501 -0.00000000000E+00 -0.00000000000E+00 -0.11397812756E+03  0.11397812759E+03  0.25500000000E-02 0. -1.
    5000001    1    1    2    0    0 -0.35078704790E+03 -0.11746408484E+03  0.73144059649E+03  0.84095107491E+03  0.18800000000E+03 0.  0.
   -5000001    1    1    2    0    0  0.35078704790E+03  0.11746408484E+03  0.66766400015E+03  0.78610977687E+03  0.18800000000E+03 0.  0.
<mgrwt>
<rscale>  0 0.83056206E+03</rscale>
<asrwt>0</asrwt>
<pdfrwt beam="1">  1        2 0.21615466E+00 0.83056206E+03</pdfrwt>
<pdfrwt beam="2">  1       -2 0.16282591E-01 0.83056206E+03</pdfrwt>
<totfact> 0.44094995E+02</totfact>
</mgrwt>
</event>
<event>
 4    1  0.6165923E-005  0.6906301E+03  0.7818608E-02  0.9733391E-01
         -2   -1    0    0    0  501 -0.00000000000E+00  0.00000000000E+00  0.19148992300E+03  0.19148992302E+03  0.25500000000E-02 0. -1.
          2   -1    0    0  501    0  0.00000000000E+00 -0.00000000000E+00 -0.62270893515E+03  0.62270893515E+03  0.25500000000E-02 0.  1.
    5000001    1    1    2    0    0  0.15873731998E+03  0.24025628839E+03 -0.25247537504E+03  0.42662446703E+03  0.18800000000E+03 0.  0.
   -5000001    1    1    2    0    0 -0.15873731998E+03 -0.24025628839E+03 -0.17874363711E+03  0.38757439114E+03  0.18800000000E+03 0.  0.
<mgrwt>
<rscale>  0 0.69063011E+03</rscale>
<asrwt>0</asrwt>
<pdfrwt beam="1">  1        2 0.88958419E-01 0.69063011E+03</pdfrwt>
<pdfrwt beam="2">  1       -2 0.27355704E-01 0.69063011E+03</pdfrwt>
<totfact> 0.63372739E+02</totfact>
</mgrwt>
</event>
<event>
 4    1  0.6165923E-005  0.5623395E+03  0.7818608E-02  0.9986775E-01
         -2   -1    0    0    0  501 -0.00000000000E+00  0.00000000000E+00  0.48187598805E+02  0.48187598873E+02  0.25500000000E-02 0. -1.
          2   -1    0    0  501    0  0.00000000000E+00 -0.00000000000E+00 -0.16405968247E+04  0.16405968247E+04  0.25500000000E-02 0.  1.
    5000001    1    1    2    0    0  0.79615129562E+01  0.20502744054E+03 -0.67560002638E+03  0.73067026264E+03  0.18800000000E+03 0.  0.
   -5000001    1    1    2    0    0 -0.79615129562E+01 -0.20502744054E+03 -0.91680919951E+03  0.95811416093E+03  0.18800000000E+03 0.  0.
<mgrwt>
<rscale>  0 0.56233948E+03</rscale>
<asrwt>0</asrwt>
<pdfrwt beam="1">  1        2 0.23437094E+00 0.56233948E+03</pdfrwt>
<pdfrwt beam="2">  1       -2 0.68839437E-02 0.56233948E+03</pdfrwt>
<totfact> 0.15682168E+03</totfact>
</mgrwt>
</event>
<event>
 4    1  0.6165923E-005  0.5036261E+03  0.7818608E-02  0.1012837E+00
          2   -1    0    0  501    0  0.00000000000E+00  0.00000000000E+00  0.28212206981E+03  0.28212206982E+03  0.25500000000E-02 0.  1.
         -2   -1    0    0    0  501 -0.00000000000E+00 -0.00000000000E+00 -0.22476018602E+03  0.22476018604E+03  0.25500000000E-02 0. -1.
    5000001    1    1    2    0    0 -0.12951789411E+03  0.76033819273E+02  0.10338876667E+03  0.26189552047E+03  0.18800000000E+03 0.  0.
   -5000001    1    1    2    0    0  0.12951789411E+03 -0.76033819273E+02 -0.46026882884E+02  0.24498673539E+03  0.18800000000E+03 0.  0.
<mgrwt>
<rscale>  0 0.50362609E+03</rscale>
<asrwt>0</asrwt>
<pdfrwt beam="1">  1        2 0.40303153E-01 0.50362609E+03</pdfrwt>
<pdfrwt beam="2">  1       -2 0.32108598E-01 0.50362609E+03</pdfrwt>
<totfact> 0.11522513E+03</totfact>
</mgrwt>
</event>
<event>
 4    1  0.6165923E-005  0.5125989E+03  0.7818608E-02  0.1010542E+00
         -2   -1    0    0    0  501 -0.00000000000E+00  0.00000000000E+00  0.66303676071E+02  0.66303676120E+02  0.25500000000E-02 0. -1.
          2   -1    0    0  501    0  0.00000000000E+00 -0.00000000000E+00 -0.99073536488E+03  0.99073536489E+03  0.25500000000E-02 0.  1.
    5000001    1    1    2    0    0  0.16435922577E+03  0.30492284255E+02 -0.56327353292E+03  0.61689934947E+03  0.18800000000E+03 0.  0.
   -5000001    1    1    2    0    0 -0.16435922577E+03 -0.30492284255E+02 -0.36115815589E+03  0.44013969153E+03  0.18800000000E+03 0.  0.
<mgrwt>
<rscale>  0 0.51259886E+03</rscale>
<asrwt>0</asrwt>
<pdfrwt beam="1">  1        2 0.14153362E+00 0.51259886E+03</pdfrwt>
<pdfrwt beam="2">  1       -2 0.94719543E-02 0.51259886E+03</pdfrwt>
<totfact> 0.21384278E+03</totfact>
</mgrwt>
</event>
<event>
 4    1  0.6165923E-005  0.4387383E+03  0.7818608E-02  0.1031135E+00
         -2   -1    0    0    0  501 -0.00000000000E+00  0.00000000000E+00  0.18299137157E+03  0.18299137159E+03  0.25500000000E-02 0. -1.
          2   -1    0    0  501    0  0.00000000000E+00 -0.00000000000E+00 -0.26297866019E+03  0.26297866020E+03  0.25500000000E-02 0.  1.
    5000001    1    1    2    0    0  0.59222599522E+02  0.96257763197E+02 -0.42473625128E+02  0.22342981471E+03  0.18800000000E+03 0.  0.
   -5000001    1    1    2    0    0 -0.59222599522E+02 -0.96257763197E+02 -0.37513663489E+02  0.22254021708E+03  0.18800000000E+03 0.  0.
<mgrwt>
<rscale>  0 0.43873831E+03</rscale>
<asrwt>0</asrwt>
<pdfrwt beam="1">  1        2 0.37568380E-01 0.43873831E+03</pdfrwt>
<pdfrwt beam="2">  1       -2 0.26141625E-01 0.43873831E+03</pdfrwt>
<totfact> 0.18111028E+03</totfact>
</mgrwt>
</event>
<event>
 4    1  0.6165923E-005  0.4470581E+03  0.7818608E-02  0.1028603E+00
          2   -1    0    0  501    0  0.00000000000E+00  0.00000000000E+00  0.24326517335E+03  0.24326517336E+03  0.25500000000E-02 0.  1.
         -2   -1    0    0    0  501 -0.00000000000E+00 -0.00000000000E+00 -0.20539416567E+03  0.20539416568E+03  0.25500000000E-02 0. -1.
    5000001    1    1    2    0    0  0.11065677081E+03  0.18061533828E+02 -0.26504776438E+02  0.22049408859E+03  0.18800000000E+03 0.  0.
   -5000001    1    1    2    0    0 -0.11065677081E+03 -0.18061533828E+02  0.64375784119E+02  0.22816525045E+03  0.18800000000E+03 0.  0.
<mgrwt>
<rscale>  0 0.44705815E+03</rscale>
<asrwt>0</asrwt>
<pdfrwt beam="1">  1        2 0.34752168E-01 0.44705815E+03</pdfrwt>
<pdfrwt beam="2">  1       -2 0.29342024E-01 0.44705815E+03</pdfrwt>
<totfact> 0.16009612E+03</totfact>
</mgrwt>
</event>
<event>
 4    1  0.6165923E-005  0.4897591E+03  0.7818608E-02  0.1016487E+00
         -2   -1    0    0    0  501 -0.00000000000E+00  0.00000000000E+00  0.35433936229E+03  0.35433936230E+03  0.25500000000E-02 0. -1.
          2   -1    0    0  501    0  0.00000000000E+00 -0.00000000000E+00 -0.16923324715E+03  0.16923324717E+03  0.25500000000E-02 0.  1.
    5000001    1    1    2    0    0  0.15369893467E+03 -0.29863993298E+02  0.81506171420E+02  0.25788074103E+03  0.18800000000E+03 0.  0.
   -5000001    1    1    2    0    0 -0.15369893467E+03  0.29863993298E+02  0.10359994372E+03  0.26569186844E+03  0.18800000000E+03 0.  0.
<mgrwt>
<rscale>  0 0.48975913E+03</rscale>
<asrwt>0</asrwt>
<pdfrwt beam="1">  1        2 0.24176178E-01 0.48975913E+03</pdfrwt>
<pdfrwt beam="2">  1       -2 0.50619909E-01 0.48975913E+03</pdfrwt>
<totfact> 0.84363053E+02</totfact>
</mgrwt>
</event>
<event>
 4    1  0.6165923E-005  0.8506287E+03  0.7818608E-02  0.9489494E-01
          2   -1    0    0  501    0  0.00000000000E+00  0.00000000000E+00  0.37236627451E+03  0.37236627451E+03  0.25500000000E-02 0.  1.
         -2   -1    0    0    0  501 -0.00000000000E+00 -0.00000000000E+00 -0.48579126213E+03  0.48579126214E+03  0.25500000000E-02 0. -1.
    5000001    1    1    2    0    0 -0.25010574046E+03  0.16203411532E+03  0.18359814499E+03  0.39731626544E+03  0.18800000000E+03 0.  0.
   -5000001    1    1    2    0    0  0.25010574046E+03 -0.16203411532E+03 -0.29702313262E+03  0.46084127121E+03  0.18800000000E+03 0.  0.
<mgrwt>
<rscale>  0 0.85062867E+03</rscale>
<asrwt>0</asrwt>
<pdfrwt beam="1">  1        2 0.53195182E-01 0.85062867E+03</pdfrwt>
<pdfrwt beam="2">  1       -2 0.69398751E-01 0.85062867E+03</pdfrwt>
<totfact> 0.17852670E+02</totfact>
</mgrwt>
</event>
<event>
 4    1  0.6165923E-005  0.5519303E+03  0.7818608E-02  0.1001048E+00
         -2   -1    0    0    0  501 -0.00000000000E+00  0.00000000000E+00  0.87169159187E+03  0.87169159187E+03  0.25500000000E-02 0. -1.
          2   -1    0    0  501    0  0.00000000000E+00 -0.00000000000E+00 -0.87366641517E+02  0.87366641555E+02  0.25500000000E-02 0.  1.
    5000001    1    1    2    0    0  0.20110091917E+03  0.64381921658E+01  0.36060919862E+03  0.45372461266E+03  0.18800000000E+03 0.  0.
   -5000001    1    1    2    0    0 -0.20110091917E+03 -0.64381921658E+01  0.42371575173E+03  0.50533362076E+03  0.18800000000E+03 0.  0.
<mgrwt>
<rscale>  0 0.55193031E+03</rscale>
<asrwt>0</asrwt>
<pdfrwt beam="1">  1        2 0.12480949E-01 0.55193031E+03</pdfrwt>
<pdfrwt beam="2">  1       -2 0.12452737E+00 0.55193031E+03</pdfrwt>
<totfact> 0.24673603E+02</totfact>
</mgrwt>
</event>
<event>
 4    1  0.6165923E-005  0.4444203E+03  0.7818608E-02  0.1029399E+00
         -2   -1    0    0    0  501 -0.00000000000E+00  0.00000000000E+00  0.25227580448E+03  0.25227580449E+03  0.25500000000E-02 0. -1.
          2   -1    0    0  501    0  0.00000000000E+00 -0.00000000000E+00 -0.19572760908E+03  0.19572760910E+03  0.25500000000E-02 0.  1.
    5000001    1    1    2    0    0  0.10611478525E+02 -0.83133591115E+02 -0.56123934678E+02  0.21334876023E+03  0.18800000000E+03 0.  0.
   -5000001    1    1    2    0    0 -0.10611478525E+02  0.83133591115E+02  0.11267213007E+03  0.23465465336E+03  0.18800000000E+03 0.  0.
<mgrwt>
<rscale>  0 0.44442025E+03</rscale>
<asrwt>0</asrwt>
<pdfrwt beam="1">  1        2 0.27961087E-01 0.44442025E+03</pdfrwt>
<pdfrwt beam="2">  1       -2 0.36039401E-01 0.44442025E+03</pdfrwt>
<totfact> 0.13905399E+03</totfact>
</mgrwt>
</event>
<event>
 4    1  0.6165923E-005  0.4875691E+03  0.7818608E-02  0.1017075E+00
          2   -1    0    0  501    0  0.00000000000E+00  0.00000000000E+00  0.93521050105E+03  0.93521050105E+03  0.25500000000E-02 0.  1.
         -2   -1    0    0    0  501 -0.00000000000E+00 -0.00000000000E+00 -0.63548162627E+02  0.63548162678E+02  0.25500000000E-02 0. -1.
    5000001    1    1    2    0    0  0.27000128204E+02  0.77294603659E+02  0.70591110289E+03  0.73509043516E+03  0.18800000000E+03 0.  0.
   -5000001    1    1    2    0    0 -0.27000128204E+02 -0.77294603659E+02  0.16575123553E+03  0.26366822857E+03  0.18800000000E+03 0.  0.
<mgrwt>
<rscale>  0 0.48756911E+03</rscale>
<asrwt>0</asrwt>
<pdfrwt beam="1">  1        2 0.13360149E+00 0.48756911E+03</pdfrwt>
<pdfrwt beam="2">  1       -2 0.90783093E-02 0.48756911E+03</pdfrwt>
<totfact> 0.24772991E+03</totfact>
</mgrwt>
</event>
<event>
 4    1  0.6165923E-005  0.7311838E+03  0.7818608E-02  0.9665341E-01
         -2   -1    0    0    0  501 -0.00000000000E+00  0.00000000000E+00  0.99272413316E+03  0.99272413317E+03  0.25500000000E-02 0. -1.
          2   -1    0    0  501    0  0.00000000000E+00 -0.00000000000E+00 -0.13463704318E+03  0.13463704321E+03  0.25500000000E-02 0.  1.
    5000001    1    1    2    0    0 -0.79283339667E+02  0.29659882214E+03  0.52724653386E+03  0.63842745610E+03  0.18800000000E+03 0.  0.
   -5000001    1    1    2    0    0  0.79283339667E+02 -0.29659882214E+03  0.33084055612E+03  0.48893372027E+03  0.18800000000E+03 0.  0.
<mgrwt>
<rscale>  0 0.73118381E+03</rscale>
<asrwt>0</asrwt>
<pdfrwt beam="1">  1        2 0.19233863E-01 0.73118381E+03</pdfrwt>
<pdfrwt beam="2">  1       -2 0.14181773E+00 0.73118381E+03</pdfrwt>
<totfact> 0.10450256E+02</totfact>
</mgrwt>
</event>
<event>
 4    1  0.6165923E-005  0.4147145E+03  0.7818608E-02  0.1038800E+00
          2   -1    0    0  501    0  0.00000000000E+00  0.00000000000E+00  0.80406056486E+03  0.80406056486E+03  0.25500000000E-02 0.  1.
         -2   -1    0    0    0  501 -0.00000000000E+00 -0.00000000000E+00 -0.53474874324E+02  0.53474874385E+02  0.25500000000E-02 0. -1.
    5000001    1    1    2    0    0  0.34507626616E+02  0.75802331463E+02  0.31995266521E+03  0.38032943315E+03  0.18800000000E+03 0.  0.
   -5000001    1    1    2    0    0 -0.34507626616E+02 -0.75802331463E+02  0.43063302533E+03  0.47720600609E+03  0.18800000000E+03 0.  0.
<mgrwt>
<rscale>  0 0.41471454E+03</rscale>
<asrwt>0</asrwt>
<pdfrwt beam="1">  1        2 0.11486579E+00 0.41471454E+03</pdfrwt>
<pdfrwt beam="2">  1       -2 0.76392679E-02 0.41471454E+03</pdfrwt>
<totfact> 0.39629631E+03</totfact>
</mgrwt>
</event>
<event>
 4    1  0.6165923E-005  0.6662827E+03  0.7818608E-02  0.9776697E-01
          2   -1    0    0  501    0  0.00000000000E+00  0.00000000000E+00  0.35692099891E+04  0.35692099891E+04  0.25500000000E-02 0.  1.
         -2   -1    0    0    0  501 -0.00000000000E+00 -0.00000000000E+00 -0.31094601422E+02  0.31094601527E+02  0.25500000000E-02 0. -1.
    5000001    1    1    2    0    0  0.18182288225E+02  0.18797676690E+03  0.28494107674E+04  0.28618440876E+04  0.18800000000E+03 0.  0.
   -5000001    1    1    2    0    0 -0.18182288225E+02 -0.18797676690E+03  0.68870462024E+03  0.73846050296E+03  0.18800000000E+03 0.  0.
<mgrwt>
<rscale>  0 0.66628271E+03</rscale>
<asrwt>0</asrwt>
<pdfrwt beam="1">  1        2 0.50988684E+00 0.66628271E+03</pdfrwt>
<pdfrwt beam="2">  1       -2 0.44420885E-02 0.66628271E+03</pdfrwt>
<totfact> 0.29169501E+02</totfact>
</mgrwt>
</event>
<event>
 4    1  0.6165923E-005  0.6355626E+03  0.7818608E-02  0.9834254E-01
          2   -1    0    0  501    0  0.00000000000E+00  0.00000000000E+00  0.10955875697E+04  0.10955875697E+04  0.25500000000E-02 0.  1.
         -2   -1    0    0    0  501 -0.00000000000E+00 -0.00000000000E+00 -0.92174238711E+02  0.92174238746E+02  0.25500000000E-02 0. -1.
    5000001    1    1    2    0    0 -0.24444645189E+03 -0.30060552554E+01  0.35842845962E+03  0.47284042221E+03  0.18800000000E+03 0.  0.
   -5000001    1    1    2    0    0  0.24444645189E+03  0.30060552554E+01  0.64498487139E+03  0.71492138626E+03  0.18800000000E+03 0.  0.
<mgrwt>
<rscale>  0 0.63556259E+03</rscale>
<asrwt>0</asrwt>
<pdfrwt beam="1">  1        2 0.15651251E+00 0.63556259E+03</pdfrwt>
<pdfrwt beam="2">  1       -2 0.13167749E-01 0.63556259E+03</pdfrwt>
<totfact> 0.10785358E+03</totfact>
</mgrwt>
</event>
<event>
 4    1  0.6165923E-005  0.4210061E+03  0.7818608E-02  0.1036739E+00
          2   -1    0    0  501    0  0.00000000000E+00  0.00000000000E+00  0.34868030630E+03  0.34868030631E+03  0.25500000000E-02 0.  1.
         -2   -1    0    0    0  501 -0.00000000000E+00 -0.00000000000E+00 -0.12708356227E+03  0.12708356230E+03  0.25500000000E-02 0. -1.
    5000001    1    1    2    0    0  0.11803509101E+02  0.93536127442E+02  0.12085565416E+03  0.24256631899E+03  0.18800000000E+03 0.  0.
   -5000001    1    1    2    0    0 -0.11803509101E+02 -0.93536127442E+02  0.10074108987E+03  0.23319754963E+03  0.18800000000E+03 0.  0.
<mgrwt>
<rscale>  0 0.42100611E+03</rscale>
<asrwt>0</asrwt>
<pdfrwt beam="1">  1        2 0.49811473E-01 0.42100611E+03</pdfrwt>
<pdfrwt beam="2">  1       -2 0.18154794E-01 0.42100611E+03</pdfrwt>
<totfact> 0.25162788E+03</totfact>
</mgrwt>
</event>
<event>
 4    1  0.6165923E-005  0.4181404E+03  0.7818608E-02  0.1037673E+00
         -2   -1    0    0    0  501 -0.00000000000E+00  0.00000000000E+00  0.20517958550E+02  0.20517958709E+02  0.25500000000E-02 0. -1.
          2   -1    0    0  501    0  0.00000000000E+00 -0.00000000000E+00 -0.21303462805E+04  0.21303462805E+04  0.25500000000E-02 0.  1.
    5000001    1    1    2    0    0 -0.35808097415E+02 -0.69949521581E+02 -0.12957005755E+04  0.13116246173E+04  0.18800000000E+03 0.  0.
   -5000001    1    1    2    0    0  0.35808097415E+02  0.69949521581E+02 -0.81412774644E+03  0.83923962188E+03  0.18800000000E+03 0.  0.
<mgrwt>
<rscale>  0 0.41814044E+03</rscale>
<asrwt>0</asrwt>
<pdfrwt beam="1">  1        2 0.30433504E+00 0.41814044E+03</pdfrwt>
<pdfrwt beam="2">  1       -2 0.29311383E-02 0.41814044E+03</pdfrwt>
<totfact> 0.33306764E+03</totfact>
</mgrwt>
</event>
<event>
 4    1  0.6165923E-005  0.7033996E+03  0.7818608E-02  0.9711436E-01
          2   -1    0    0  501    0  0.00000000000E+00  0.00000000000E+00  0.16245278612E+04  0.16245278612E+04  0.25500000000E-02 0.  1.
         -2   -1    0    0    0  501 -0.00000000000E+00 -0.00000000000E+00 -0.76140743295E+02  0.76140743338E+02  0.25500000000E-02 0. -1.
    5000001    1    1    2    0    0 -0.25186173577E+03 -0.13808225051E+03  0.58930470277E+03  0.68200078780E+03  0.18800000000E+03 0.  0.
   -5000001    1    1    2    0    0  0.25186173577E+03  0.13808225051E+03  0.95908241515E+03  0.10186678168E+04  0.18800000000E+03 0.  0.
<mgrwt>
<rscale>  0 0.70339963E+03</rscale>
<asrwt>0</asrwt>
<pdfrwt beam="1">  1        2 0.23207538E+00 0.70339963E+03</pdfrwt>
<pdfrwt beam="2">  1       -2 0.10877251E-01 0.70339963E+03</pdfrwt>
<totfact> 0.76214334E+02</totfact>
</mgrwt>
</event>
<event>
 4    1  0.6165923E-005  0.6689125E+03  0.7818608E-02  0.9771924E-01
         -2   -1    0    0    0  501 -0.00000000000E+00  0.00000000000E+00  0.18479173596E+03  0.18479173598E+03  0.25500000000E-02 0. -1.
          2   -1    0    0  501    0  0.00000000000E+00 -0.00000000000E+00 -0.60533533968E+03  0.60533533968E+03  0.25500000000E-02 0.  1.
    5000001    1    1    2    0    0 -0.11430985394E+03 -0.25182098721E+03 -0.21739989791E+03  0.39885745314E+03  0.18800000000E+03 0.  0.
   -5000001    1    1    2    0    0  0.11430985394E+03  0.25182098721E+03 -0.20314370580E+03  0.39126962253E+03  0.18800000000E+03 0.  0.
<mgrwt>
<rscale>  0 0.66891246E+03</rscale>
<asrwt>0</asrwt>
<pdfrwt beam="1">  1        2 0.86476476E-01 0.66891246E+03</pdfrwt>
<pdfrwt beam="2">  1       -2 0.26398820E-01 0.66891246E+03</pdfrwt>
<totfact> 0.69959293E+02</totfact>
</mgrwt>
</event>
<event>
 4    1  0.6165923E-005  0.4644367E+03  0.7818608E-02  0.1023502E+00
         -2   -1    0    0    0  501 -0.00000000000E+00  0.00000000000E+00  0.56219322532E+02  0.56219322590E+02  0.25500000000E-02 0. -1.
          2   -1    0    0  501    0  0.00000000000E+00 -0.00000000000E+00 -0.95919621614E+03  0.95919621614E+03  0.25500000000E-02 0.  1.
    5000001    1    1    2    0    0 -0.96420342814E+02 -0.76234146715E+02 -0.32264590633E+03  0.39313217689E+03  0.18800000000E+03 0.  0.
   -5000001    1    1    2    0    0  0.96420342814E+02  0.76234146715E+02 -0.58033098728E+03  0.62228336185E+03  0.18800000000E+03 0.  0.
<mgrwt>
<rscale>  0 0.46443670E+03</rscale>
<asrwt>0</asrwt>
<pdfrwt beam="1">  1        2 0.13702802E+00 0.46443670E+03</pdfrwt>
<pdfrwt beam="2">  1       -2 0.80313324E-02 0.46443670E+03</pdfrwt>
<totfact> 0.29090368E+03</totfact>
</mgrwt>
</event>
<event>
 4    1  0.6165923E-005  0.7051630E+03  0.7818608E-02  0.9708443E-01
          2   -1    0    0  501    0  0.00000000000E+00  0.00000000000E+00  0.76308309570E+03  0.76308309571E+03  0.25500000000E-02 0.  1.
         -2   -1    0    0    0  501 -0.00000000000E+00 -0.00000000000E+00 -0.16290981838E+03  0.16290981840E+03  0.25500000000E-02 0. -1.
    5000001    1    1    2    0    0 -0.70335218797E+02  0.16343566609E+03  0.61445504258E+03  0.66675127244E+03  0.18800000000E+03 0.  0.
   -5000001    1    1    2    0    0  0.70335218797E+02 -0.16343566609E+03 -0.14281765251E+02  0.25924164166E+03  0.18800000000E+03 0.  0.
<mgrwt>
<rscale>  0 0.70516304E+03</rscale>
<asrwt>0</asrwt>
<pdfrwt beam="1">  1        2 0.10901187E+00 0.70516304E+03</pdfrwt>
<pdfrwt beam="2">  1       -2 0.23272832E-01 0.70516304E+03</pdfrwt>
<totfact> 0.66087157E+02</totfact>
</mgrwt>
</event>
<event>
 4    1  0.6165923E-005  0.4410481E+03  0.7818608E-02  0.1030426E+00
         -2   -1    0    0    0  501 -0.00000000000E+00  0.00000000000E+00  0.26323775000E+02  0.26323775124E+02  0.25500000000E-02 0. -1.
          2   -1    0    0  501    0  0.00000000000E+00 -0.00000000000E+00 -0.18474122833E+04  0.18474122833E+04  0.25500000000E-02 0.  1.
    5000001    1    1    2    0    0 -0.11328416164E+03  0.20680593878E+02 -0.93215554333E+03  0.95787209230E+03  0.18800000000E+03 0.  0.
   -5000001    1    1    2    0    0  0.11328416164E+03 -0.20680593878E+02 -0.88893296499E+03  0.91586396615E+03  0.18800000000E+03 0.  0.
<mgrwt>
<rscale>  0 0.44104814E+03</rscale>
<asrwt>0</asrwt>
<pdfrwt beam="1">  1        2 0.26391596E+00 0.44104814E+03</pdfrwt>
<pdfrwt beam="2">  1       -2 0.37605405E-02 0.44104814E+03</pdfrwt>
<totfact> 0.31550453E+03</totfact>
</mgrwt>
</event>
<event>
 4    1  0.6165923E-005  0.4178730E+03  0.7818608E-02  0.1037761E+00
         -2   -1    0    0    0  501 -0.00000000000E+00  0.00000000000E+00  0.78177830537E+02  0.78177830578E+02  0.25500000000E-02 0. -1.
          2   -1    0    0  501    0  0.00000000000E+00 -0.00000000000E+00 -0.55839953693E+03  0.55839953694E+03  0.25500000000E-02 0.  1.
    5000001    1    1    2    0    0 -0.72614165744E+02 -0.31246523607E+02 -0.17094723781E+03  0.26611298431E+03  0.18800000000E+03 0.  0.
   -5000001    1    1    2    0    0  0.72614165744E+02  0.31246523607E+02 -0.30927446859E+03  0.37046438321E+03  0.18800000000E+03 0.  0.
<mgrwt>
<rscale>  0 0.41787302E+03</rscale>
<asrwt>0</asrwt>
<pdfrwt beam="1">  1        2 0.79771360E-01 0.41787302E+03</pdfrwt>
<pdfrwt beam="2">  1       -2 0.11168262E-01 0.41787302E+03</pdfrwt>
<totfact> 0.33423702E+03</totfact>
</mgrwt>
</event>
<event>
 4    1  0.6165923E-005  0.8085568E+03  0.7818608E-02  0.9547713E-01
          2   -1    0    0  501    0  0.00000000000E+00  0.00000000000E+00  0.17754932687E+04  0.17754932687E+04  0.25500000000E-02 0.  1.
         -2   -1    0    0    0  501 -0.00000000000E+00 -0.00000000000E+00 -0.92053868527E+02  0.92053868562E+02  0.25500000000E-02 0. -1.
    5000001    1    1    2    0    0 -0.10541895251E+03 -0.32486323944E+03  0.59459224588E+03  0.71100859260E+03  0.18800000000E+03 0.  0.
   -5000001    1    1    2    0    0  0.10541895251E+03  0.32486323944E+03  0.10888471543E+04  0.11565385447E+04  0.18800000000E+03 0.  0.
<mgrwt>
<rscale>  0 0.80855680E+03</rscale>
<asrwt>0</asrwt>
<pdfrwt beam="1">  1        2 0.25364188E+00 0.80855680E+03</pdfrwt>
<pdfrwt beam="2">  1       -2 0.13150553E-01 0.80855680E+03</pdfrwt>
<totfact> 0.46331989E+02</totfact>
</mgrwt>
</event>
<event>
 4    1  0.6165923E-005  0.4773204E+03  0.7818608E-02  0.1019874E+00
          2   -1    0    0  501    0  0.00000000000E+00  0.00000000000E+00  0.10115649735E+04  0.10115649735E+04  0.25500000000E-02 0.  1.
         -2   -1    0    0    0  501 -0.00000000000E+00 -0.00000000000E+00 -0.56307497027E+02  0.56307497085E+02  0.25500000000E-02 0. -1.
    5000001    1    1    2    0    0 -0.79550355202E+02  0.10123213965E+03  0.31882546545E+03  0.39187993382E+03  0.18800000000E+03 0.  0.
   -5000001    1    1    2    0    0  0.79550355202E+02 -0.10123213965E+03  0.63643201101E+03  0.67599253675E+03  0.18800000000E+03 0.  0.
<mgrwt>
<rscale>  0 0.47732040E+03</rscale>
<asrwt>0</asrwt>
<pdfrwt beam="1">  1        2 0.14450927E+00 0.47732040E+03</pdfrwt>
<pdfrwt beam="2">  1       -2 0.80439287E-02 0.47732040E+03</pdfrwt>
<totfact> 0.26967383E+03</totfact>
</mgrwt>
</event>
<event>
 4    1  0.6165923E-005  0.5284367E+03  0.7818608E-02  0.1006612E+00
          2   -1    0    0  501    0  0.00000000000E+00  0.00000000000E+00  0.61705189675E+03  0.61705189675E+03  0.25500000000E-02 0.  1.
         -2   -1    0    0    0  501 -0.00000000000E+00 -0.00000000000E+00 -0.11313689069E+03  0.11313689072E+03  0.25500000000E-02 0. -1.
    5000001    1    1    2    0    0 -0.13563241858E+02 -0.18141906670E+03  0.30311163534E+03  0.40039668177E+03  0.18800000000E+03 0.  0.
   -5000001    1    1    2    0    0  0.13563241858E+02  0.18141906670E+03  0.20080337072E+03  0.32979210570E+03  0.18800000000E+03 0.  0.
<mgrwt>
<rscale>  0 0.52843669E+03</rscale>
<asrwt>0</asrwt>
<pdfrwt beam="1">  1        2 0.88150273E-01 0.52843669E+03</pdfrwt>
<pdfrwt beam="2">  1       -2 0.16162413E-01 0.52843669E+03</pdfrwt>
<totfact> 0.16167581E+03</totfact>
</mgrwt>
</event>
<event>
 4    1  0.6165923E-005  0.4978594E+03  0.7818608E-02  0.1014339E+00
          2   -1    0    0  501    0  0.00000000000E+00  0.00000000000E+00  0.54772115153E+03  0.54772115154E+03  0.25500000000E-02 0.  1.
         -2   -1    0    0    0  501 -0.00000000000E+00 -0.00000000000E+00 -0.11313418889E+03  0.11313418892E+03  0.25500000000E-02 0. -1.
    5000001    1    1    2    0    0 -0.17359963851E+02  0.80070250511E+02  0.29997469387E+02  0.20725940638E+03  0.18800000000E+03 0.  0.
   -5000001    1    1    2    0    0  0.17359963851E+02 -0.80070250511E+02  0.40458949325E+03  0.45359593408E+03  0.18800000000E+03 0.  0.
<mgrwt>
<rscale>  0 0.49785937E+03</rscale>
<asrwt>0</asrwt>
<pdfrwt beam="1">  1        2 0.78245880E-01 0.49785937E+03</pdfrwt>
<pdfrwt beam="2">  1       -2 0.16162027E-01 0.49785937E+03</pdfrwt>
<totfact> 0.18570039E+03</totfact>
</mgrwt>
</event>
<event>
 4    1  0.6165923E-005  0.8828284E+03  0.7818608E-02  0.9447305E-01
          2   -1    0    0  501    0  0.00000000000E+00  0.00000000000E+00  0.10292367699E+04  0.10292367699E+04  0.25500000000E-02 0.  1.
         -2   -1    0    0    0  501 -0.00000000000E+00 -0.00000000000E+00 -0.18931165238E+03  0.18931165240E+03  0.25500000000E-02 0. -1.
    5000001    1    1    2    0    0  0.14459542754E+03 -0.13144040875E+03 -0.60798482665E+02  0.27789363831E+03  0.18800000000E+03 0.  0.
   -5000001    1    1    2    0    0 -0.14459542754E+03  0.13144040875E+03  0.90072360022E+03  0.94065478403E+03  0.18800000000E+03 0.  0.
<mgrwt>
<rscale>  0 0.88282844E+03</rscale>
<asrwt>0</asrwt>
<pdfrwt beam="1">  1        2 0.14703383E+00 0.88282844E+03</pdfrwt>
<pdfrwt beam="2">  1       -2 0.27044522E-01 0.88282844E+03</pdfrwt>
<totfact> 0.33476106E+02</totfact>
</mgrwt>
</event>
<event>
 4    1  0.6165923E-005  0.4520032E+03  0.7818608E-02  0.1027126E+00
          2   -1    0    0  501    0  0.00000000000E+00  0.00000000000E+00  0.20265371335E+04  0.20265371335E+04  0.25500000000E-02 0.  1.
         -2   -1    0    0    0  501 -0.00000000000E+00 -0.00000000000E+00 -0.25203945929E+02  0.25203946058E+02  0.25500000000E-02 0. -1.
    5000001    1    1    2    0    0 -0.38402533961E+01 -0.66773555341E+02  0.51901138485E+03  0.55604880437E+03  0.18800000000E+03 0.  0.
   -5000001    1    1    2    0    0  0.38402533961E+01  0.66773555341E+02  0.14823218028E+04  0.14956922752E+04  0.18800000000E+03 0.  0.
<mgrwt>
<rscale>  0 0.45200324E+03</rscale>
<asrwt>0</asrwt>
<pdfrwt beam="1">  1        2 0.28950533E+00 0.45200324E+03</pdfrwt>
<pdfrwt beam="2">  1       -2 0.36005634E-02 0.45200324E+03</pdfrwt>
<totfact> 0.27447288E+03</totfact>
</mgrwt>
</event>
<event>
 4    1  0.6165923E-005  0.3882009E+03  0.7818608E-02  0.1047944E+00
         -2   -1    0    0    0  501 -0.00000000000E+00  0.00000000000E+00  0.21964352507E+02  0.21964352655E+02  0.25500000000E-02 0. -1.
          2   -1    0    0  501    0  0.00000000000E+00 -0.00000000000E+00 -0.17152786471E+04  0.17152786471E+04  0.25500000000E-02 0.  1.
    5000001    1    1    2    0    0 -0.25042569242E+02  0.10512109930E+02 -0.66802498402E+03  0.69450630955E+03  0.18800000000E+03 0.  0.
   -5000001    1    1    2    0    0  0.25042569242E+02 -0.10512109930E+02 -0.10252893106E+04  0.10427366902E+04  0.18800000000E+03 0.  0.
<mgrwt>
<rscale>  0 0.38820090E+03</rscale>
<asrwt>0</asrwt>
<pdfrwt beam="1">  1        2 0.24503972E+00 0.38820090E+03</pdfrwt>
<pdfrwt beam="2">  1       -2 0.31377657E-02 0.38820090E+03</pdfrwt>
<totfact> 0.48319377E+03</totfact>
</mgrwt>
</event>
<event>
 4    1  0.6165923E-005  0.4280509E+03  0.7818608E-02  0.1034477E+00
          2   -1    0    0  501    0  0.00000000000E+00  0.00000000000E+00  0.17172577175E+04  0.17172577175E+04  0.25500000000E-02 0.  1.
         -2   -1    0    0    0  501 -0.00000000000E+00 -0.00000000000E+00 -0.26674439176E+02  0.26674439297E+02  0.25500000000E-02 0. -1.
    5000001    1    1    2    0    0 -0.89376642951E+02 -0.17641830547E+02  0.65579153381E+03  0.68826299792E+03  0.18800000000E+03 0.  0.
   -5000001    1    1    2    0    0  0.89376642951E+02  0.17641830547E+02  0.10347917445E+04  0.10556691588E+04  0.18800000000E+03 0.  0.
<mgrwt>
<rscale>  0 0.42805087E+03</rscale>
<asrwt>0</asrwt>
<pdfrwt beam="1">  1        2 0.24532254E+00 0.42805087E+03</pdfrwt>
<pdfrwt beam="2">  1       -2 0.38106340E-02 0.42805087E+03</pdfrwt>
<totfact> 0.35924321E+03</totfact>
</mgrwt>
</event>
<event>
 4    1  0.6165923E-005  0.6462106E+03  0.7818608E-02  0.9813916E-01
         -2   -1    0    0    0  501 -0.00000000000E+00  0.00000000000E+00  0.11182639459E+03  0.11182639462E+03  0.25500000000E-02 0. -1.
          2   -1    0    0  501    0  0.00000000000E+00 -0.00000000000E+00 -0.93356350216E+03  0.93356350216E+03  0.25500000000E-02 0.  1.
    5000001    1    1    2    0    0  0.16560935197E+03 -0.17117112989E+03 -0.23125736386E+03  0.38151013291E+03  0.18800000000E+03 0.  0.
   -5000001    1    1    2    0    0 -0.16560935197E+03  0.17117112989E+03 -0.59047974370E+03  0.66387976388E+03  0.18800000000E+03 0.  0.
<mgrwt>
<rscale>  0 0.64621062E+03</rscale>
<asrwt>0</asrwt>
<pdfrwt beam="1">  1        2 0.13336621E+00 0.64621062E+03</pdfrwt>
<pdfrwt beam="2">  1       -2 0.15975200E-01 0.64621062E+03</pdfrwt>
<totfact> 0.97743075E+02</totfact>
</mgrwt>
</event>
<event>
 4    1  0.6165923E-005  0.5412886E+03  0.7818608E-02  0.1003531E+00
          2   -1    0    0  501    0  0.00000000000E+00  0.00000000000E+00  0.10150771588E+04  0.10150771588E+04  0.25500000000E-02 0. -1.
         -2   -1    0    0    0  501 -0.00000000000E+00 -0.00000000000E+00 -0.72160367521E+02  0.72160367566E+02  0.25500000000E-02 0.  1.
    5000001    1    1    2    0    0 -0.17026494892E+03  0.20443398463E+02  0.28631453133E+03  0.38305103606E+03  0.18800000000E+03 0.  0.
   -5000001    1    1    2    0    0  0.17026494892E+03 -0.20443398463E+02  0.65660225993E+03  0.70418649030E+03  0.18800000000E+03 0.  0.
<mgrwt>
<rscale>  0 0.54128861E+03</rscale>
<asrwt>0</asrwt>
<pdfrwt beam="1">  1        2 0.14501102E+00 0.54128861E+03</pdfrwt>
<pdfrwt beam="2">  1       -2 0.10308624E-01 0.54128861E+03</pdfrwt>
<totfact> 0.18025710E+03</totfact>
</mgrwt>
</event>
<event>
 4    1  0.6165923E-005  0.6195551E+03  0.7818608E-02  0.9865646E-01
         -2   -1    0    0    0  501 -0.00000000000E+00  0.00000000000E+00  0.98960608304E+02  0.98960608337E+02  0.25500000000E-02 0. -1.
          2   -1    0    0  501    0  0.00000000000E+00 -0.00000000000E+00 -0.96970018550E+03  0.96970018551E+03  0.25500000000E-02 0.  1.
    5000001    1    1    2    0    0  0.26920995824E+02  0.21907864993E+03 -0.24722353117E+03  0.38102974849E+03  0.18800000000E+03 0.  0.
   -5000001    1    1    2    0    0 -0.26920995824E+02 -0.21907864993E+03 -0.62351604603E+03  0.68763104535E+03  0.18800000000E+03 0.  0.
<mgrwt>
<rscale>  0 0.61955507E+03</rscale>
<asrwt>0</asrwt>
<pdfrwt beam="1">  1        2 0.13852859E+00 0.61955507E+03</pdfrwt>
<pdfrwt beam="2">  1       -2 0.14137230E-01 0.61955507E+03</pdfrwt>
<totfact> 0.11407540E+03</totfact>
</mgrwt>
</event>
<event>
 4    1  0.6165923E-005  0.6053965E+03  0.7818608E-02  0.9894273E-01
          2   -1    0    0  501    0  0.00000000000E+00  0.00000000000E+00  0.21806055356E+03  0.21806055358E+03  0.25500000000E-02 0.  1.
         -2   -1    0    0    0  501 -0.00000000000E+00 -0.00000000000E+00 -0.42018711563E+03  0.42018711564E+03  0.25500000000E-02 0. -1.
    5000001    1    1    2    0    0 -0.58788947062E+02  0.22554435668E+03 -0.14768794896E+03  0.33388939395E+03  0.18800000000E+03 0.  0.
   -5000001    1    1    2    0    0  0.58788947062E+02 -0.22554435668E+03 -0.54438613107E+02  0.30435827527E+03  0.18800000000E+03 0.  0.
<mgrwt>
<rscale>  0 0.60539651E+03</rscale>
<asrwt>0</asrwt>
<pdfrwt beam="1">  1        2 0.31151508E-01 0.60539651E+03</pdfrwt>
<pdfrwt beam="2">  1       -2 0.60026730E-01 0.60539651E+03</pdfrwt>
<totfact> 0.44514396E+02</totfact>
</mgrwt>
</event>
<event>
 4    1  0.6165923E-005  0.6203189E+03  0.7818608E-02  0.9864125E-01
         -2   -1    0    0    0  501 -0.00000000000E+00  0.00000000000E+00  0.10690229707E+03  0.10690229710E+03  0.25500000000E-02 0. -1.
          2   -1    0    0  501    0  0.00000000000E+00 -0.00000000000E+00 -0.89987657104E+03  0.89987657104E+03  0.25500000000E-02 0.  1.
    5000001    1    1    2    0    0  0.74958945067E+02  0.18116600305E+03 -0.63947668274E+03  0.69477650498E+03  0.18800000000E+03 0.  0.
   -5000001    1    1    2    0    0 -0.74958945067E+02 -0.18116600305E+03 -0.15349759123E+03  0.31200236316E+03  0.18800000000E+03 0.  0.
<mgrwt>
<rscale>  0 0.62031886E+03</rscale>
<asrwt>0</asrwt>
<pdfrwt beam="1">  1        2 0.12855379E+00 0.62031886E+03</pdfrwt>
<pdfrwt beam="2">  1       -2 0.15271757E-01 0.62031886E+03</pdfrwt>
<totfact> 0.11092093E+03</totfact>
</mgrwt>
</event>
<event>
 4    1  0.6165923E-005  0.1001404E+04  0.7818608E-02  0.9307006E-01
         -2   -1    0    0    0  501 -0.00000000000E+00  0.00000000000E+00  0.25997671094E+03  0.25997671095E+03  0.25500000000E-02 0. -1.
          2   -1    0    0  501    0  0.00000000000E+00 -0.00000000000E+00 -0.96432658051E+03  0.96432658052E+03  0.25500000000E-02 0.  1.
    5000001    1    1    2    0    0 -0.42395131624E+03 -0.18331123857E+03 -0.29721664310E+03  0.58053377306E+03  0.18800000000E+03 0.  0.
   -5000001    1    1    2    0    0  0.42395131624E+03  0.18331123857E+03 -0.40713322648E+03  0.64376951841E+03  0.18800000000E+03 0.  0.
<mgrwt>
<rscale>  0 0.10014039E+04</rscale>
<asrwt>0</asrwt>
<pdfrwt beam="1">  1        2 0.13776094E+00 0.10014039E+04</pdfrwt>
<pdfrwt beam="2">  1       -2 0.37139531E-01 0.10014039E+04</pdfrwt>
<totfact> 0.20130469E+02</totfact>
</mgrwt>
</event>
<event>
 4    1  0.6165923E-005  0.6472907E+03  0.7818608E-02  0.9811876E-01
          2   -1    0    0  501    0  0.00000000000E+00  0.00000000000E+00  0.41625576367E+03  0.41625576368E+03  0.25500000000E-02 0.  1.
         -2   -1    0    0    0  501 -0.00000000000E+00 -0.00000000000E+00 -0.25163931807E+03  0.25163931808E+03  0.25500000000E-02 0. -1.
    5000001    1    1    2    0    0 -0.15590816475E+03  0.21049090041E+03  0.11128307001E+03  0.34108898643E+03  0.18800000000E+03 0.  0.
   -5000001    1    1    2    0    0  0.15590816475E+03 -0.21049090041E+03  0.53333375596E+02  0.32680609533E+03  0.18800000000E+03 0.  0.
<mgrwt>
<rscale>  0 0.64729071E+03</rscale>
<asrwt>0</asrwt>
<pdfrwt beam="1">  1        2 0.59465109E-01 0.64729071E+03</pdfrwt>
<pdfrwt beam="2">  1       -2 0.35948474E-01 0.64729071E+03</pdfrwt>
<totfact> 0.60521040E+02</totfact>
</mgrwt>
</event>
<event>
 4    1  0.6165923E-005  0.4468132E+03  0.7818608E-02  0.1028677E+00
         -2   -1    0    0    0  501 -0.00000000000E+00  0.00000000000E+00  0.20100357583E+04  0.20100357583E+04  0.25500000000E-02 0. -1.
          2   -1    0    0  501    0  0.00000000000E+00 -0.00000000000E+00 -0.24830657235E+02  0.24830657365E+02  0.25500000000E-02 0.  1.
    5000001    1    1    2    0    0 -0.11111394283E+03  0.22828611708E+02  0.11803238978E+04  0.12005731788E+04  0.18800000000E+03 0.  0.
   -5000001    1    1    2    0    0  0.11111394283E+03 -0.22828611708E+02  0.80488120322E+03  0.83429323688E+03  0.18800000000E+03 0.  0.
<mgrwt>
<rscale>  0 0.44681320E+03</rscale>
<asrwt>0</asrwt>
<pdfrwt beam="1">  1        2 0.35472367E-02 0.44681320E+03</pdfrwt>
<pdfrwt beam="2">  1       -2 0.28714797E+00 0.44681320E+03</pdfrwt>
<totfact> 0.10697066E+02</totfact>
</mgrwt>
</event>
<event>
 4    1  0.6165923E-005  0.4302415E+03  0.7818608E-02  0.1033784E+00
          2   -1    0    0  501    0  0.00000000000E+00  0.00000000000E+00  0.18528759901E+04  0.18528759901E+04  0.25500000000E-02 0.  1.
         -2   -1    0    0    0  501 -0.00000000000E+00 -0.00000000000E+00 -0.24975732929E+02  0.24975733059E+02  0.25500000000E-02 0. -1.
    5000001    1    1    2    0    0  0.62891404053E+02 -0.36196345420E+02  0.12425309094E+04  0.12587662869E+04  0.18800000000E+03 0.  0.
   -5000001    1    1    2    0    0 -0.62891404053E+02  0.36196345420E+02  0.58536934775E+03  0.61908543628E+03  0.18800000000E+03 0.  0.
<mgrwt>
<rscale>  0 0.43024149E+03</rscale>
<asrwt>0</asrwt>
<pdfrwt beam="1">  1        2 0.26469665E+00 0.43024149E+03</pdfrwt>
<pdfrwt beam="2">  1       -2 0.35679607E-02 0.43024149E+03</pdfrwt>
<totfact> 0.33966985E+03</totfact>
</mgrwt>
</event>
<event>
 4    1  0.6165923E-005  0.8641772E+03  0.7818608E-02  0.9471504E-01
         -2   -1    0    0    0  501 -0.00000000000E+00  0.00000000000E+00  0.94867542190E+02  0.94867542224E+02  0.25500000000E-02 0. -1.
          2   -1    0    0  501    0  0.00000000000E+00 -0.00000000000E+00 -0.19680131879E+04  0.19680131879E+04  0.25500000000E-02 0.  1.
    5000001    1    1    2    0    0  0.26906761582E+03  0.27370218281E+03 -0.10884179060E+04  0.11693193767E+04  0.18800000000E+03 0.  0.
   -5000001    1    1    2    0    0 -0.26906761582E+03 -0.27370218281E+03 -0.78472773972E+03  0.89356135337E+03  0.18800000000E+03 0.  0.
<mgrwt>
<rscale>  0 0.86417724E+03</rscale>
<asrwt>0</asrwt>
<pdfrwt beam="1">  1        2 0.28114472E+00 0.86417724E+03</pdfrwt>
<pdfrwt beam="2">  1       -2 0.13552507E-01 0.86417724E+03</pdfrwt>
<totfact> 0.35031987E+02</totfact>
</mgrwt>
</event>
<event>
 4    1  0.6165923E-005  0.4737154E+03  0.7818608E-02  0.1020877E+00
         -2   -1    0    0    0  501 -0.00000000000E+00  0.00000000000E+00  0.12139642303E+03  0.12139642305E+03  0.25500000000E-02 0. -1.
          2   -1    0    0  501    0  0.00000000000E+00 -0.00000000000E+00 -0.46213521424E+03  0.46213521425E+03  0.25500000000E-02 0.  1.
    5000001    1    1    2    0    0  0.13856440361E+03 -0.16067026928E+02 -0.21477162485E+03  0.31769339644E+03  0.18800000000E+03 0.  0.
   -5000001    1    1    2    0    0 -0.13856440361E+03  0.16067026928E+02 -0.12596716636E+03  0.26583824086E+03  0.18800000000E+03 0.  0.
<mgrwt>
<rscale>  0 0.47371537E+03</rscale>
<asrwt>0</asrwt>
<pdfrwt beam="1">  1        2 0.66019315E-01 0.47371537E+03</pdfrwt>
<pdfrwt beam="2">  1       -2 0.17342346E-01 0.47371537E+03</pdfrwt>
<totfact> 0.19965118E+03</totfact>
</mgrwt>
</event>
<event>
 4    1  0.6165923E-005  0.4093147E+03  0.7818608E-02  0.1040601E+00
         -2   -1    0    0    0  501 -0.00000000000E+00  0.00000000000E+00  0.34982582825E+02  0.34982582918E+02  0.25500000000E-02 0. -1.
          2   -1    0    0  501    0  0.00000000000E+00 -0.00000000000E+00 -0.11972996205E+04  0.11972996205E+04  0.25500000000E-02 0.  1.
    5000001    1    1    2    0    0 -0.46052623000E+02 -0.22987558694E+02 -0.76896198259E+03  0.79328166663E+03  0.18800000000E+03 0.  0.
   -5000001    1    1    2    0    0  0.46052623000E+02  0.22987558694E+02 -0.39335505504E+03  0.43900053675E+03  0.18800000000E+03 0.  0.
<mgrwt>
<rscale>  0 0.40931471E+03</rscale>
<asrwt>0</asrwt>
<pdfrwt beam="1">  1        2 0.17104278E+00 0.40931471E+03</pdfrwt>
<pdfrwt beam="2">  1       -2 0.49975126E-02 0.40931471E+03</pdfrwt>
<totfact> 0.44283088E+03</totfact>
</mgrwt>
</event>
<event>
 4    1  0.6165923E-005  0.8898359E+03  0.7818608E-02  0.9438377E-01
         -2   -1    0    0    0  501 -0.00000000000E+00  0.00000000000E+00  0.58587914446E+03  0.58587914447E+03  0.25500000000E-02 0. -1.
          2   -1    0    0  501    0  0.00000000000E+00 -0.00000000000E+00 -0.33787173653E+03  0.33787173654E+03  0.25500000000E-02 0.  1.
    5000001    1    1    2    0    0  0.35396743505E+03  0.41582601299E+01  0.32449076002E+03  0.51570193866E+03  0.18800000000E+03 0.  0.
   -5000001    1    1    2    0    0 -0.35396743505E+03 -0.41582601299E+01 -0.76483352089E+02  0.40804894234E+03  0.18800000000E+03 0.  0.
<mgrwt>
<rscale>  0 0.88983595E+03</rscale>
<asrwt>0</asrwt>
<pdfrwt beam="1">  1        2 0.48267391E-01 0.88983595E+03</pdfrwt>
<pdfrwt beam="2">  1       -2 0.83697021E-01 0.88983595E+03</pdfrwt>
<totfact> 0.13091842E+02</totfact>
</mgrwt>
</event>
<event>
 4    1  0.6165923E-005  0.5786650E+03  0.7818608E-02  0.9950685E-01
         -2   -1    0    0    0  501 -0.00000000000E+00  0.00000000000E+00  0.16047486890E+03  0.16047486892E+03  0.25500000000E-02 0. -1.
          2   -1    0    0  501    0  0.00000000000E+00 -0.00000000000E+00 -0.52165984675E+03  0.52165984676E+03  0.25500000000E-02 0.  1.
    5000001    1    1    2    0    0 -0.15902728422E+03  0.15056203899E+03 -0.15670335358E+03  0.32841824818E+03  0.18800000000E+03 0.  0.
   -5000001    1    1    2    0    0  0.15902728422E+03 -0.15056203899E+03 -0.20448162427E+03  0.35371646750E+03  0.18800000000E+03 0.  0.
<mgrwt>
<rscale>  0 0.57866500E+03</rscale>
<asrwt>0</asrwt>
<pdfrwt beam="1">  1        2 0.74522834E-01 0.57866500E+03</pdfrwt>
<pdfrwt beam="2">  1       -2 0.22924982E-01 0.57866500E+03</pdfrwt>
<totfact> 0.10726401E+03</totfact>
</mgrwt>
</event>
<event>
 4    1  0.6165923E-005  0.6495381E+03  0.7818608E-02  0.9807646E-01
          2   -1    0    0  501    0  0.00000000000E+00  0.00000000000E+00  0.34423589572E+03  0.34423589573E+03  0.25500000000E-02 0.  1.
         -2   -1    0    0    0  501 -0.00000000000E+00 -0.00000000000E+00 -0.30640308981E+03  0.30640308982E+03  0.25500000000E-02 0. -1.
    5000001    1    1    2    0    0  0.14065786749E+03  0.22231234256E+03 -0.11524718341E+02  0.32354942818E+03  0.18800000000E+03 0.  0.
   -5000001    1    1    2    0    0 -0.14065786749E+03 -0.22231234256E+03  0.49357524249E+02  0.32708955737E+03  0.18800000000E+03 0.  0.
<mgrwt>
<rscale>  0 0.64953812E+03</rscale>
<asrwt>0</asrwt>
<pdfrwt beam="1">  1        2 0.49176557E-01 0.64953812E+03</pdfrwt>
<pdfrwt beam="2">  1       -2 0.43771870E-01 0.64953812E+03</pdfrwt>
<totfact> 0.51003856E+02</totfact>
</mgrwt>
</event>
<event>
 4    1  0.6165923E-005  0.7230399E+03  0.7818608E-02  0.9678622E-01
          2   -1    0    0  501    0  0.00000000000E+00  0.00000000000E+00  0.12960815255E+03  0.12960815257E+03  0.25500000000E-02 0.  1.
         -2   -1    0    0    0  501 -0.00000000000E+00 -0.00000000000E+00 -0.10083984727E+04  0.10083984727E+04  0.25500000000E-02 0. -1.
    5000001    1    1    2    0    0 -0.15285696540E+03 -0.20013127518E+03 -0.15813046893E+03  0.35180537856E+03  0.18800000000E+03 0.  0.
   -5000001    1    1    2    0    0  0.15285696540E+03  0.20013127518E+03 -0.72065985119E+03  0.78620124669E+03  0.18800000000E+03 0.  0.
<mgrwt>
<rscale>  0 0.72303987E+03</rscale>
<asrwt>0</asrwt>
<pdfrwt beam="1">  1        2 0.18515451E-01 0.72303987E+03</pdfrwt>
<pdfrwt beam="2">  1       -2 0.14405692E+00 0.72303987E+03</pdfrwt>
<totfact> 0.10498872E+02</totfact>
</mgrwt>
</event>
<event>
 4    1  0.6165923E-005  0.3874870E+03  0.7818608E-02  0.1048201E+00
         -2   -1    0    0    0  501 -0.00000000000E+00  0.00000000000E+00  0.41191271558E+02  0.41191271637E+02  0.25500000000E-02 0. -1.
          2   -1    0    0  501    0  0.00000000000E+00 -0.00000000000E+00 -0.91127423138E+03  0.91127423138E+03  0.25500000000E-02 0.  1.
    5000001    1    1    2    0    0 -0.46021885310E+01  0.40490140770E+02 -0.37835071633E+03  0.42444539836E+03  0.18800000000E+03 0.  0.
   -5000001    1    1    2    0    0  0.46021885310E+01 -0.40490140770E+02 -0.49173224349E+03  0.52802010466E+03  0.18800000000E+03 0.  0.
<mgrwt>
<rscale>  0 0.38748700E+03</rscale>
<asrwt>0</asrwt>
<pdfrwt beam="1">  1        2 0.13018202E+00 0.38748700E+03</pdfrwt>
<pdfrwt beam="2">  1       -2 0.58844679E-02 0.38748700E+03</pdfrwt>
<totfact> 0.50616296E+03</totfact>
</mgrwt>
</event>
<event>
 4    1  0.6165923E-005  0.5560399E+03  0.7818608E-02  0.1000106E+00
         -2   -1    0    0    0  501 -0.00000000000E+00  0.00000000000E+00  0.23847715027E+02  0.23847715164E+02  0.25500000000E-02 0. -1.
          2   -1    0    0  501    0  0.00000000000E+00 -0.00000000000E+00 -0.32411951381E+04  0.32411951381E+04  0.25500000000E-02 0.  1.
    5000001    1    1    2    0    0 -0.19100226370E+03 -0.23376863592E+02 -0.11966833492E+04  0.12265493797E+04  0.18800000000E+03 0.  0.
   -5000001    1    1    2    0    0  0.19100226370E+03  0.23376863592E+02 -0.20206640738E+04  0.20384934735E+04  0.18800000000E+03 0.  0.
<mgrwt>
<rscale>  0 0.55603992E+03</rscale>
<asrwt>0</asrwt>
<pdfrwt beam="1">  1        2 0.46302760E+00 0.55603992E+03</pdfrwt>
<pdfrwt beam="2">  1       -2 0.34068185E-02 0.55603992E+03</pdfrwt>
<totfact> 0.68967645E+02</totfact>
</mgrwt>
</event>
<event>
 4    1  0.6165923E-005  0.5982861E+03  0.7818608E-02  0.9908968E-01
          2   -1    0    0  501    0  0.00000000000E+00  0.00000000000E+00  0.17491797284E+04  0.17491797284E+04  0.25500000000E-02 0.  1.
         -2   -1    0    0    0  501 -0.00000000000E+00 -0.00000000000E+00 -0.51159152298E+02  0.51159152362E+02  0.25500000000E-02 0. -1.
    5000001    1    1    2    0    0  0.16606490499E+03  0.73578935325E+02  0.41137506882E+03  0.48740625728E+03  0.18800000000E+03 0.  0.
   -5000001    1    1    2    0    0 -0.16606490499E+03 -0.73578935325E+02  0.12866455073E+04  0.13129326235E+04  0.18800000000E+03 0.  0.
<mgrwt>
<rscale>  0 0.59828606E+03</rscale>
<asrwt>0</asrwt>
<pdfrwt beam="1">  1        2 0.24988283E+00 0.59828606E+03</pdfrwt>
<pdfrwt beam="2">  1       -2 0.73084501E-02 0.59828606E+03</pdfrwt>
<totfact> 0.12545893E+03</totfact>
</mgrwt>
</event>
<event>
 4    1  0.6165923E-005  0.3960855E+03  0.7818608E-02  0.1045144E+00
          2   -1    0    0  501    0  0.00000000000E+00  0.00000000000E+00  0.11739015674E+04  0.11739015674E+04  0.25500000000E-02 0.  1.
         -2   -1    0    0    0  501 -0.00000000000E+00 -0.00000000000E+00 -0.33410755873E+02  0.33410755971E+02  0.25500000000E-02 0. -1.
    5000001    1    1    2    0    0 -0.45120310263E+02 -0.40809999631E+02  0.61064180968E+03  0.64181673256E+03  0.18800000000E+03 0.  0.
   -5000001    1    1    2    0    0  0.45120310263E+02  0.40809999631E+02  0.52984900184E+03  0.56549559080E+03  0.18800000000E+03 0.  0.
<mgrwt>
<rscale>  0 0.39608554E+03</rscale>
<asrwt>0</asrwt>
<pdfrwt beam="1">  1        2 0.16770023E+00 0.39608554E+03</pdfrwt>
<pdfrwt beam="2">  1       -2 0.47729650E-02 0.39608554E+03</pdfrwt>
<totfact> 0.48944595E+03</totfact>
</mgrwt>
</event>
<event>
 4    1  0.6165923E-005  0.4720006E+03  0.7818608E-02  0.1021357E+00
         -2   -1    0    0    0  501 -0.00000000000E+00  0.00000000000E+00  0.25036644480E+02  0.25036644609E+02  0.25500000000E-02 0. -1.
          2   -1    0    0  501    0  0.00000000000E+00 -0.00000000000E+00 -0.22245852744E+04  0.22245852744E+04  0.25500000000E-02 0.  1.
    5000001    1    1    2    0    0  0.58833993098E+02 -0.18905311694E+02 -0.48693483193E+03  0.52561238580E+03  0.18800000000E+03 0.  0.
   -5000001    1    1    2    0    0 -0.58833993098E+02  0.18905311694E+02 -0.17126137980E+04  0.17240095332E+04  0.18800000000E+03 0.  0.
<mgrwt>
<rscale>  0 0.47200064E+03</rscale>
<asrwt>0</asrwt>
<pdfrwt beam="1">  1        2 0.31779777E+00 0.47200064E+03</pdfrwt>
<pdfrwt beam="2">  1       -2 0.35766649E-02 0.47200064E+03</pdfrwt>
<totfact> 0.22073237E+03</totfact>
</mgrwt>
</event>
<event>
 4    1  0.6165923E-005  0.9098012E+03  0.7818608E-02  0.9413412E-01
         -2   -1    0    0    0  501 -0.00000000000E+00  0.00000000000E+00  0.81480089075E+02  0.81480089115E+02  0.25500000000E-02 0. -1.
          2   -1    0    0  501    0  0.00000000000E+00 -0.00000000000E+00 -0.25396949004E+04  0.25396949004E+04  0.25500000000E-02 0.  1.
    5000001    1    1    2    0    0 -0.33070792392E+03 -0.13258142079E+03 -0.18378531320E+04  0.18814870978E+04  0.18800000000E+03 0.  0.
   -5000001    1    1    2    0    0  0.33070792392E+03  0.13258142079E+03 -0.62036167926E+03  0.73968789174E+03  0.18800000000E+03 0.  0.
<mgrwt>
<rscale>  0 0.90980122E+03</rscale>
<asrwt>0</asrwt>
<pdfrwt beam="1">  1        2 0.36281351E+00 0.90980122E+03</pdfrwt>
<pdfrwt beam="2">  1       -2 0.11640014E-01 0.90980122E+03</pdfrwt>
<totfact> 0.22914789E+02</totfact>
</mgrwt>
</event>
<event>
 4    1  0.6165923E-005  0.5596405E+03  0.7818608E-02  0.9992868E-01
          2   -1    0    0  501    0  0.00000000000E+00  0.00000000000E+00  0.90844851448E+03  0.90844851448E+03  0.25500000000E-02 0.  1.
         -2   -1    0    0    0  501 -0.00000000000E+00 -0.00000000000E+00 -0.86190208853E+02  0.86190208891E+02  0.25500000000E-02 0. -1.
    5000001    1    1    2    0    0  0.27467810712E+02  0.20542785573E+03  0.41018421467E+03  0.49653819037E+03  0.18800000000E+03 0.  0.
   -5000001    1    1    2    0    0 -0.27467810712E+02 -0.20542785573E+03  0.41207409096E+03  0.49810053300E+03  0.18800000000E+03 0.  0.
<mgrwt>
<rscale>  0 0.55964048E+03</rscale>
<asrwt>0</asrwt>
<pdfrwt beam="1">  1        2 0.12977836E+00 0.55964048E+03</pdfrwt>
<pdfrwt beam="2">  1       -2 0.12312887E-01 0.55964048E+03</pdfrwt>
<totfact> 0.15699578E+03</totfact>
</mgrwt>
</event>
<event>
 4    1  0.6165923E-005  0.8241754E+03  0.7818608E-02  0.9525669E-01
          2   -1    0    0  501    0  0.00000000000E+00  0.00000000000E+00  0.15607326584E+03  0.15607326586E+03  0.25500000000E-02 0.  1.
         -2   -1    0    0    0  501 -0.00000000000E+00 -0.00000000000E+00 -0.10880548501E+04  0.10880548501E+04  0.25500000000E-02 0. -1.
    5000001    1    1    2    0    0  0.18377431268E+03  0.29348692937E+03 -0.64816890537E+03  0.75853444589E+03  0.18800000000E+03 0.  0.
   -5000001    1    1    2    0    0 -0.18377431268E+03 -0.29348692937E+03 -0.28381267888E+03  0.48559367006E+03  0.18800000000E+03 0.  0.
<mgrwt>
<rscale>  0 0.82417540E+03</rscale>
<asrwt>0</asrwt>
<pdfrwt beam="1">  1        2 0.22296182E-01 0.82417540E+03</pdfrwt>
<pdfrwt beam="2">  1       -2 0.15543640E+00 0.82417540E+03</pdfrwt>
<totfact> 0.68712138E+01</totfact>
</mgrwt>
</event>
<event>
 4    1  0.6165923E-005  0.4198855E+03  0.7818608E-02  0.1037104E+00
         -2   -1    0    0    0  501 -0.00000000000E+00  0.00000000000E+00  0.62799385882E+02  0.62799385933E+02  0.25500000000E-02 0. -1.
          2   -1    0    0  501    0  0.00000000000E+00 -0.00000000000E+00 -0.70185344489E+03  0.70185344490E+03  0.25500000000E-02 0.  1.
    5000001    1    1    2    0    0 -0.20303556629E+02 -0.85161981665E+02 -0.37901782089E+03  0.43204549076E+03  0.18800000000E+03 0.  0.
   -5000001    1    1    2    0    0  0.20303556629E+02  0.85161981665E+02 -0.26003623812E+03  0.33260734007E+03  0.18800000000E+03 0.  0.
<mgrwt>
<rscale>  0 0.41988553E+03</rscale>
<asrwt>0</asrwt>
<pdfrwt beam="1">  1        2 0.10026477E+00 0.41988553E+03</pdfrwt>
<pdfrwt beam="2">  1       -2 0.89713413E-02 0.41988553E+03</pdfrwt>
<totfact> 0.36341656E+03</totfact>
</mgrwt>
</event>
<event>
 4    1  0.6165923E-005  0.4288483E+03  0.7818608E-02  0.1034224E+00
          2   -1    0    0  501    0  0.00000000000E+00  0.00000000000E+00  0.44974844086E+03  0.44974844087E+03  0.25500000000E-02 0.  1.
         -2   -1    0    0    0  501 -0.00000000000E+00 -0.00000000000E+00 -0.10222983171E+03  0.10222983174E+03  0.25500000000E-02 0. -1.
    5000001    1    1    2    0    0 -0.86869947643E+02 -0.55375227464E+02  0.16787451349E+03  0.27228414552E+03  0.18800000000E+03 0.  0.
   -5000001    1    1    2    0    0  0.86869947643E+02  0.55375227464E+02  0.17964409567E+03  0.27969412709E+03  0.18800000000E+03 0.  0.
<mgrwt>
<rscale>  0 0.42884826E+03</rscale>
<asrwt>0</asrwt>
<pdfrwt beam="1">  1        2 0.64249777E-01 0.42884826E+03</pdfrwt>
<pdfrwt beam="2">  1       -2 0.14604262E-01 0.42884826E+03</pdfrwt>
<totfact> 0.27453615E+03</totfact>
</mgrwt>
</event>
<event>
 4    1  0.6165923E-005  0.1856217E+04  0.7818608E-02  0.8676962E-01
          2   -1    0    0  501    0  0.00000000000E+00  0.00000000000E+00  0.34701815004E+04  0.34701815004E+04  0.25500000000E-02 0.  1.
         -2   -1    0    0    0  501 -0.00000000000E+00 -0.00000000000E+00 -0.24822479679E+03  0.24822479680E+03  0.25500000000E-02 0. -1.
    5000001    1    1    2    0    0 -0.37167216229E+03 -0.82613414363E+03  0.17582288721E+04  0.19867940472E+04  0.18800000000E+03 0.  0.
   -5000001    1    1    2    0    0  0.37167216229E+03  0.82613414363E+03  0.14637278316E+04  0.17316122500E+04  0.18800000000E+03 0.  0.
<mgrwt>
<rscale>  0 0.18562167E+04</rscale>
<asrwt>0</asrwt>
<pdfrwt beam="1">  1        2 0.49574018E+00 0.18562167E+04</pdfrwt>
<pdfrwt beam="2">  1       -2 0.35460688E-01 0.18562167E+04</pdfrwt>
<totfact> 0.88679931E+00</totfact>
</mgrwt>
</event>
<event>
 4    1  0.6165923E-005  0.1229408E+04  0.7818608E-02  0.9087498E-01
         -2   -1    0    0    0  501 -0.00000000000E+00  0.00000000000E+00  0.24550867539E+03  0.24550867540E+03  0.25500000000E-02 0. -1.
          2   -1    0    0  501    0  0.00000000000E+00 -0.00000000000E+00 -0.15390941372E+04  0.15390941372E+04  0.25500000000E-02 0.  1.
    5000001    1    1    2    0    0 -0.30567868081E+03  0.43641395902E+03 -0.99824780444E+03  0.11470567896E+04  0.18800000000E+03 0.  0.
   -5000001    1    1    2    0    0  0.30567868081E+03 -0.43641395902E+03 -0.29533765733E+03  0.63754602294E+03  0.18800000000E+03 0.  0.
<mgrwt>
<rscale>  0 0.12294079E+04</rscale>
<asrwt>0</asrwt>
<pdfrwt beam="1">  1        2 0.21987059E+00 0.12294079E+04</pdfrwt>
<pdfrwt beam="2">  1       -2 0.35072669E-01 0.12294079E+04</pdfrwt>
<totfact> 0.10465091E+02</totfact>
</mgrwt>
</event>
<event>
 4    1  0.6165923E-005  0.5213266E+03  0.7818608E-02  0.1008358E+00
         -2   -1    0    0    0  501 -0.00000000000E+00  0.00000000000E+00  0.11406919738E+04  0.11406919738E+04  0.25500000000E-02 0. -1.
          2   -1    0    0  501    0  0.00000000000E+00 -0.00000000000E+00 -0.59565027341E+02  0.59565027395E+02  0.25500000000E-02 0.  1.
    5000001    1    1    2    0    0 -0.54859748328E+02  0.11651286104E+03  0.83193581827E+03  0.86258103648E+03  0.18800000000E+03 0.  0.
   -5000001    1    1    2    0    0  0.54859748328E+02 -0.11651286104E+03  0.24919112816E+03  0.33767596469E+03  0.18800000000E+03 0.  0.
<mgrwt>
<rscale>  0 0.52132657E+03</rscale>
<asrwt>0</asrwt>
<pdfrwt beam="1">  1        2 0.85092894E-02 0.52132657E+03</pdfrwt>
<pdfrwt beam="2">  1       -2 0.16295600E+00 0.52132657E+03</pdfrwt>
<totfact> 0.19972939E+02</totfact>
</mgrwt>
</event>
<event>
 4    1  0.6165923E-005  0.1022796E+04  0.7818608E-02  0.9283890E-01
         -2   -1    0    0    0  501 -0.00000000000E+00  0.00000000000E+00  0.76342829241E+03  0.76342829241E+03  0.25500000000E-02 0. -1.
          2   -1    0    0  501    0  0.00000000000E+00 -0.00000000000E+00 -0.34257017127E+03  0.34257017128E+03  0.25500000000E-02 0.  1.
    5000001    1    1    2    0    0 -0.43409159633E+03 -0.22172081462E+02  0.17074073092E+01  0.47357579166E+03  0.18800000000E+03 0.  0.
   -5000001    1    1    2    0    0  0.43409159633E+03  0.22172081462E+02  0.41915071383E+03  0.63242267204E+03  0.18800000000E+03 0.  0.
<mgrwt>
<rscale>  0 0.10227957E+04</rscale>
<asrwt>0</asrwt>
<pdfrwt beam="1">  1        2 0.48938596E-01 0.10227957E+04</pdfrwt>
<pdfrwt beam="2">  1       -2 0.10906118E+00 0.10227957E+04</pdfrwt>
<totfact> 0.68838214E+01</totfact>
</mgrwt>
</event>
<event>
 4    1  0.6165923E-005  0.5634166E+03  0.7818608E-02  0.9984354E-01
          2   -1    0    0  501    0  0.00000000000E+00  0.00000000000E+00  0.13900784990E+03  0.13900784992E+03  0.25500000000E-02 0.  1.
         -2   -1    0    0    0  501 -0.00000000000E+00 -0.00000000000E+00 -0.57089982042E+03  0.57089982043E+03  0.25500000000E-02 0. -1.
    5000001    1    1    2    0    0 -0.16128878142E+03  0.12586287126E+03 -0.27450603848E+03  0.39058046359E+03  0.18800000000E+03 0.  0.
   -5000001    1    1    2    0    0  0.16128878142E+03 -0.12586287126E+03 -0.15738593205E+03  0.31932720676E+03  0.18800000000E+03 0.  0.
<mgrwt>
<rscale>  0 0.56341657E+03</rscale>
<asrwt>0</asrwt>
<pdfrwt beam="1">  1        2 0.19858265E-01 0.56341657E+03</pdfrwt>
<pdfrwt beam="2">  1       -2 0.81557116E-01 0.56341657E+03</pdfrwt>
<totfact> 0.38305334E+02</totfact>
</mgrwt>
</event>
<event>
 4    1  0.6165923E-005  0.5101898E+03  0.7818608E-02  0.1011153E+00
          2   -1    0    0  501    0  0.00000000000E+00  0.00000000000E+00  0.21821671238E+03  0.21821671240E+03  0.25500000000E-02 0.  1.
         -2   -1    0    0    0  501 -0.00000000000E+00 -0.00000000000E+00 -0.29820541717E+03  0.29820541718E+03  0.25500000000E-02 0. -1.
    5000001    1    1    2    0    0  0.91720495122E+02 -0.12693078238E+03  0.33034981527E+02  0.24689953979E+03  0.18800000000E+03 0.  0.
   -5000001    1    1    2    0    0 -0.91720495122E+02  0.12693078238E+03 -0.11302368631E+03  0.26952258979E+03  0.18800000000E+03 0.  0.
<mgrwt>
<rscale>  0 0.51018979E+03</rscale>
<asrwt>0</asrwt>
<pdfrwt beam="1">  1        2 0.31173816E-01 0.51018979E+03</pdfrwt>
<pdfrwt beam="2">  1       -2 0.42600774E-01 0.51018979E+03</pdfrwt>
<totfact> 0.89274751E+02</totfact>
</mgrwt>
</event>
<event>
 4    1  0.6165923E-005  0.4959915E+03  0.7818608E-02  0.1014831E+00
         -2   -1    0    0    0  501 -0.00000000000E+00  0.00000000000E+00  0.48025198921E+03  0.48025198922E+03  0.25500000000E-02 0. -1.
          2   -1    0    0  501    0  0.00000000000E+00 -0.00000000000E+00 -0.12806172719E+03  0.12806172722E+03  0.25500000000E-02 0.  1.
    5000001    1    1    2    0    0  0.15026806326E+03  0.42532769976E+02  0.22767023943E+03  0.33401686376E+03  0.18800000000E+03 0.  0.
   -5000001    1    1    2    0    0 -0.15026806326E+03 -0.42532769976E+02  0.12452002259E+03  0.27429685267E+03  0.18800000000E+03 0.  0.
<mgrwt>
<rscale>  0 0.49599153E+03</rscale>
<asrwt>0</asrwt>
<pdfrwt beam="1">  1        2 0.18294532E-01 0.49599153E+03</pdfrwt>
<pdfrwt beam="2">  1       -2 0.68607427E-01 0.49599153E+03</pdfrwt>
<totfact> 0.61756288E+02</totfact>
</mgrwt>
</event>
<event>
 4    1  0.6165923E-005  0.5491474E+03  0.7818608E-02  0.1001691E+00
         -2   -1    0    0    0  501 -0.00000000000E+00  0.00000000000E+00  0.16941834126E+03  0.16941834128E+03  0.25500000000E-02 0. -1.
          2   -1    0    0  501    0  0.00000000000E+00 -0.00000000000E+00 -0.44499742825E+03  0.44499742826E+03  0.25500000000E-02 0.  1.
    5000001    1    1    2    0    0 -0.14085077817E+03  0.81064367387E+02 -0.26844348299E+03  0.36580907169E+03  0.18800000000E+03 0.  0.
   -5000001    1    1    2    0    0  0.14085077817E+03 -0.81064367387E+02 -0.71356039934E+01  0.24860669785E+03  0.18800000000E+03 0.  0.
<mgrwt>
<rscale>  0 0.54914743E+03</rscale>
<asrwt>0</asrwt>
<pdfrwt beam="1">  1        2 0.63571061E-01 0.54914743E+03</pdfrwt>
<pdfrwt beam="2">  1       -2 0.24202620E-01 0.54914743E+03</pdfrwt>
<totfact> 0.11659425E+03</totfact>
</mgrwt>
</event>
<event>
 4    1  0.6165923E-005  0.4232961E+03  0.7818608E-02  0.1035999E+00
          2   -1    0    0  501    0  0.00000000000E+00  0.00000000000E+00  0.71026073168E+02  0.71026073213E+02  0.25500000000E-02 0.  1.
         -2   -1    0    0    0  501 -0.00000000000E+00 -0.00000000000E+00 -0.63068241491E+03  0.63068241492E+03  0.25500000000E-02 0. -1.
    5000001    1    1    2    0    0  0.30408267683E+02  0.92310756819E+02 -0.28351890732E+03  0.35379783688E+03  0.18800000000E+03 0.  0.
   -5000001    1    1    2    0    0 -0.30408267683E+02 -0.92310756819E+02 -0.27613743442E+03  0.34791065125E+03  0.18800000000E+03 0.  0.
<mgrwt>
<rscale>  0 0.42329609E+03</rscale>
<asrwt>0</asrwt>
<pdfrwt beam="1">  1        2 0.10146582E-01 0.42329609E+03</pdfrwt>
<pdfrwt beam="2">  1       -2 0.90097484E-01 0.42329609E+03</pdfrwt>
<totfact> 0.69123852E+02</totfact>
</mgrwt>
</event>
<event>
 4    1  0.6165923E-005  0.5543304E+03  0.7818608E-02  0.1000497E+00
         -2   -1    0    0    0  501 -0.00000000000E+00  0.00000000000E+00  0.71962440002E+02  0.71962440047E+02  0.25500000000E-02 0. -1.
          2   -1    0    0  501    0  0.00000000000E+00 -0.00000000000E+00 -0.10675089454E+04  0.10675089454E+04  0.25500000000E-02 0.  1.
    5000001    1    1    2    0    0  0.15716921467E+03  0.12194497747E+03 -0.40808276166E+03  0.49137386981E+03  0.18800000000E+03 0.  0.
   -5000001    1    1    2    0    0 -0.15716921467E+03 -0.12194497747E+03 -0.58746374373E+03  0.64809751563E+03  0.18800000000E+03 0.  0.
<mgrwt>
<rscale>  0 0.55433040E+03</rscale>
<asrwt>0</asrwt>
<pdfrwt beam="1">  1        2 0.15250127E+00 0.55433040E+03</pdfrwt>
<pdfrwt beam="2">  1       -2 0.10280349E-01 0.55433040E+03</pdfrwt>
<totfact> 0.16847841E+03</totfact>
</mgrwt>
</event>
<event>
 4    1  0.6165923E-005  0.8547534E+03  0.7818608E-02  0.9483979E-01
          2   -1    0    0  501    0  0.00000000000E+00  0.00000000000E+00  0.11559774559E+04  0.11559774559E+04  0.25500000000E-02 0.  1.
         -2   -1    0    0    0  501 -0.00000000000E+00 -0.00000000000E+00 -0.15800554454E+03  0.15800554456E+03  0.25500000000E-02 0. -1.
    5000001    1    1    2    0    0  0.20030402805E+03  0.30759512749E+03  0.67134065570E+03  0.78789513395E+03  0.18800000000E+03 0.  0.
   -5000001    1    1    2    0    0 -0.20030402805E+03 -0.30759512749E+03  0.32663125565E+03  0.52608786650E+03  0.18800000000E+03 0.  0.
<mgrwt>
<rscale>  0 0.85475341E+03</rscale>
<asrwt>0</asrwt>
<pdfrwt beam="1">  1        2 0.16513963E+00 0.85475341E+03</pdfrwt>
<pdfrwt beam="2">  1       -2 0.22572221E-01 0.85475341E+03</pdfrwt>
<totfact> 0.39082365E+02</totfact>
</mgrwt>
</event>
<event>
 4    1  0.6165923E-005  0.6916795E+03  0.7818608E-02  0.9731568E-01
          2   -1    0    0  501    0  0.00000000000E+00  0.00000000000E+00  0.15622249965E+03  0.15622249967E+03  0.25500000000E-02 0.  1.
         -2   -1    0    0    0  501 -0.00000000000E+00 -0.00000000000E+00 -0.76560753185E+03  0.76560753185E+03  0.25500000000E-02 0. -1.
    5000001    1    1    2    0    0 -0.52791042180E+02  0.15039870299E+03 -0.62801480952E+03  0.67465047615E+03  0.18800000000E+03 0.  0.
   -5000001    1    1    2    0    0  0.52791042180E+02 -0.15039870299E+03  0.18629777319E+02  0.24717955538E+03  0.18800000000E+03 0.  0.
<mgrwt>
<rscale>  0 0.69167947E+03</rscale>
<asrwt>0</asrwt>
<pdfrwt beam="1">  1        2 0.22317500E-01 0.69167947E+03</pdfrwt>
<pdfrwt beam="2">  1       -2 0.10937250E+00 0.69167947E+03</pdfrwt>
<totfact> 0.16827319E+02</totfact>
</mgrwt>
</event>
<event>
 4    1  0.6165923E-005  0.6229528E+03  0.7818608E-02  0.9858898E-01
          2   -1    0    0  501    0  0.00000000000E+00  0.00000000000E+00  0.14917747753E+04  0.14917747753E+04  0.25500000000E-02 0.  1.
         -2   -1    0    0    0  501 -0.00000000000E+00 -0.00000000000E+00 -0.65034993211E+02  0.65034993261E+02  0.25500000000E-02 0. -1.
    5000001    1    1    2    0    0 -0.33498299808E+02  0.21364055661E+03  0.40822461328E+03  0.49875420640E+03  0.18800000000E+03 0.  0.
   -5000001    1    1    2    0    0  0.33498299808E+02 -0.21364055661E+03  0.10185151688E+04  0.10580555621E+04  0.18800000000E+03 0.  0.
<mgrwt>
<rscale>  0 0.62295285E+03</rscale>
<asrwt>0</asrwt>
<pdfrwt beam="1">  1        2 0.21311068E+00 0.62295285E+03</pdfrwt>
<pdfrwt beam="2">  1       -2 0.92907132E-02 0.62295285E+03</pdfrwt>
<totfact> 0.11579700E+03</totfact>
</mgrwt>
</event>
<event>
 4    1  0.6165923E-005  0.6454090E+03  0.7818608E-02  0.9815432E-01
         -2   -1    0    0    0  501 -0.00000000000E+00  0.00000000000E+00  0.88593569840E+03  0.88593569840E+03  0.25500000000E-02 0. -1.
          2   -1    0    0  501    0  0.00000000000E+00 -0.00000000000E+00 -0.11754598092E+03  0.11754598095E+03  0.25500000000E-02 0.  1.
    5000001    1    1    2    0    0 -0.71483461096E+02  0.25231517819E+03  0.39137836306E+03  0.50724141928E+03  0.18800000000E+03 0.  0.
   -5000001    1    1    2    0    0  0.71483461096E+02 -0.25231517819E+03  0.37701135441E+03  0.49624026007E+03  0.18800000000E+03 0.  0.
<mgrwt>
<rscale>  0 0.64540896E+03</rscale>
<asrwt>0</asrwt>
<pdfrwt beam="1">  1        2 0.16792283E-01 0.64540896E+03</pdfrwt>
<pdfrwt beam="2">  1       -2 0.12656224E+00 0.64540896E+03</pdfrwt>
<totfact> 0.16466786E+02</totfact>
</mgrwt>
</event>
<event>
 4    1  0.6165923E-005  0.5053669E+03  0.7818608E-02  0.1012387E+00
          2   -1    0    0  501    0  0.00000000000E+00  0.00000000000E+00  0.19888583856E+03  0.19888583858E+03  0.25500000000E-02 0.  1.
         -2   -1    0    0    0  501 -0.00000000000E+00 -0.00000000000E+00 -0.32103307516E+03  0.32103307517E+03  0.25500000000E-02 0. -1.
    5000001    1    1    2    0    0 -0.53505054848E+02 -0.12506641512E+03  0.41808614465E+02  0.23578880238E+03  0.18800000000E+03 0.  0.
   -5000001    1    1    2    0    0  0.53505054848E+02  0.12506641512E+03 -0.16395585106E+03  0.28413011136E+03  0.18800000000E+03 0.  0.
<mgrwt>
<rscale>  0 0.50536693E+03</rscale>
<asrwt>0</asrwt>
<pdfrwt beam="1">  1        2 0.28412263E-01 0.50536693E+03</pdfrwt>
<pdfrwt beam="2">  1       -2 0.45861868E-01 0.50536693E+03</pdfrwt>
<totfact> 0.85639176E+02</totfact>
</mgrwt>
</event>
<event>
 4    1  0.6165923E-005  0.5349892E+03  0.7818608E-02  0.1005029E+00
          2   -1    0    0  501    0  0.00000000000E+00  0.00000000000E+00  0.19026691566E+03  0.19026691568E+03  0.25500000000E-02 0.  1.
         -2   -1    0    0    0  501 -0.00000000000E+00 -0.00000000000E+00 -0.37606830499E+03  0.37606830500E+03  0.25500000000E-02 0. -1.
    5000001    1    1    2    0    0  0.85343509243E+02 -0.16936538626E+03 -0.10934154529E+03  0.28856147033E+03  0.18800000000E+03 0.  0.
   -5000001    1    1    2    0    0 -0.85343509243E+02  0.16936538626E+03 -0.76459844036E+02  0.27777375035E+03  0.18800000000E+03 0.  0.
<mgrwt>
<rscale>  0 0.53498918E+03</rscale>
<asrwt>0</asrwt>
<pdfrwt beam="1">  1        2 0.27180988E-01 0.53498918E+03</pdfrwt>
<pdfrwt beam="2">  1       -2 0.53724044E-01 0.53498918E+03</pdfrwt>
<totfact> 0.65403813E+02</totfact>
</mgrwt>
</event>
<event>
 4    1  0.6165923E-005  0.6152768E+03  0.7818608E-02  0.9874209E-01
          2   -1    0    0  501    0  0.00000000000E+00  0.00000000000E+00  0.89514963453E+03  0.89514963454E+03  0.25500000000E-02 0.  1.
         -2   -1    0    0    0  501 -0.00000000000E+00 -0.00000000000E+00 -0.10572687220E+03  0.10572687223E+03  0.25500000000E-02 0. -1.
    5000001    1    1    2    0    0  0.18443638261E+03 -0.15339156139E+03  0.46279302323E+03  0.55413638455E+03  0.18800000000E+03 0.  0.
   -5000001    1    1    2    0    0 -0.18443638261E+03  0.15339156139E+03  0.32662973910E+03  0.44674012222E+03  0.18800000000E+03 0.  0.
<mgrwt>
<rscale>  0 0.61527675E+03</rscale>
<asrwt>0</asrwt>
<pdfrwt beam="1">  1        2 0.12787851E+00 0.61527675E+03</pdfrwt>
<pdfrwt beam="2">  1       -2 0.15103840E-01 0.61527675E+03</pdfrwt>
<totfact> 0.11381995E+03</totfact>
</mgrwt>
</event>
<event>
 4    1  0.6165923E-005  0.4563362E+03  0.7818608E-02  0.1025849E+00
         -2   -1    0    0    0  501 -0.00000000000E+00  0.00000000000E+00  0.46976535945E+02  0.46976536014E+02  0.25500000000E-02 0. -1.
          2   -1    0    0  501    0  0.00000000000E+00 -0.00000000000E+00 -0.11082274298E+04  0.11082274298E+04  0.25500000000E-02 0.  1.
    5000001    1    1    2    0    0  0.63799188665E+02 -0.10870770158E+03 -0.60351193692E+03  0.64456059363E+03  0.18800000000E+03 0.  0.
   -5000001    1    1    2    0    0 -0.63799188665E+02  0.10870770158E+03 -0.45773895690E+03  0.51064337215E+03  0.18800000000E+03 0.  0.
<mgrwt>
<rscale>  0 0.45633622E+03</rscale>
<asrwt>0</asrwt>
<pdfrwt beam="1">  1        2 0.15831819E+00 0.45633622E+03</pdfrwt>
<pdfrwt beam="2">  1       -2 0.67109344E-02 0.45633622E+03</pdfrwt>
<totfact> 0.31483005E+03</totfact>
</mgrwt>
</event>
<event>
 4    1  0.6165923E-005  0.4936905E+03  0.7818608E-02  0.1015439E+00
          2   -1    0    0  501    0  0.00000000000E+00  0.00000000000E+00  0.15210868956E+04  0.15210868956E+04  0.25500000000E-02 0.  1.
         -2   -1    0    0    0  501 -0.00000000000E+00 -0.00000000000E+00 -0.40058571250E+02  0.40058571331E+02  0.25500000000E-02 0. -1.
    5000001    1    1    2    0    0  0.10551816203E+01 -0.13005418803E+03  0.44601613607E+03  0.50118818708E+03  0.18800000000E+03 0.  0.
   -5000001    1    1    2    0    0 -0.10551816203E+01  0.13005418803E+03  0.10350121883E+04  0.10599572799E+04  0.18800000000E+03 0.  0.
<mgrwt>
<rscale>  0 0.49369046E+03</rscale>
<asrwt>0</asrwt>
<pdfrwt beam="1">  1        2 0.21729816E+00 0.49369046E+03</pdfrwt>
<pdfrwt beam="2">  1       -2 0.57226522E-02 0.49369046E+03</pdfrwt>
<totfact> 0.24163462E+03</totfact>
</mgrwt>
</event>
<event>
 4    1  0.6165923E-005  0.6086510E+03  0.7818608E-02  0.9887619E-01
          2   -1    0    0  501    0  0.00000000000E+00  0.00000000000E+00  0.72826442994E+03  0.72826442994E+03  0.25500000000E-02 0.  1.
         -2   -1    0    0    0  501 -0.00000000000E+00 -0.00000000000E+00 -0.12717083554E+03  0.12717083557E+03  0.25500000000E-02 0. -1.
    5000001    1    1    2    0    0  0.22886895636E+03 -0.25186202685E+02  0.20887180782E+03  0.36329984323E+03  0.18800000000E+03 0.  0.
   -5000001    1    1    2    0    0 -0.22886895636E+03  0.25186202685E+02  0.39222178658E+03  0.49213542228E+03  0.18800000000E+03 0.  0.
<mgrwt>
<rscale>  0 0.60865095E+03</rscale>
<asrwt>0</asrwt>
<pdfrwt beam="1">  1        2 0.10403777E+00 0.60865095E+03</pdfrwt>
<pdfrwt beam="2">  1       -2 0.18167262E-01 0.60865095E+03</pdfrwt>
<totfact> 0.10834372E+03</totfact>
</mgrwt>
</event>
<event>
 4    1  0.6165923E-005  0.5821979E+03  0.7818608E-02  0.9943044E-01
         -2   -1    0    0    0  501 -0.00000000000E+00  0.00000000000E+00  0.57864544250E+02  0.57864544306E+02  0.25500000000E-02 0. -1.
          2   -1    0    0  501    0  0.00000000000E+00 -0.00000000000E+00 -0.14644304788E+04  0.14644304788E+04  0.25500000000E-02 0.  1.
    5000001    1    1    2    0    0 -0.22135494444E+03 -0.47462951679E+01 -0.75385388944E+03  0.80787389200E+03  0.18800000000E+03 0.  0.
   -5000001    1    1    2    0    0  0.22135494444E+03  0.47462951679E+01 -0.65271204513E+03  0.71442113113E+03  0.18800000000E+03 0.  0.
<mgrwt>
<rscale>  0 0.58219791E+03</rscale>
<asrwt>0</asrwt>
<pdfrwt beam="1">  1        2 0.20920433E+00 0.58219791E+03</pdfrwt>
<pdfrwt beam="2">  1       -2 0.82663644E-02 0.58219791E+03</pdfrwt>
<totfact> 0.14455655E+03</totfact>
</mgrwt>
</event>
<event>
 4    1  0.6165923E-005  0.1660547E+04  0.7818608E-02  0.8784191E-01
         -2   -1    0    0    0  501 -0.00000000000E+00  0.00000000000E+00  0.15669757532E+04  0.15669757532E+04  0.25500000000E-02 0. -1.
          2   -1    0    0  501    0  0.00000000000E+00 -0.00000000000E+00 -0.43992642873E+03  0.43992642873E+03  0.25500000000E-02 0.  1.
    5000001    1    1    2    0    0 -0.10142189574E+03 -0.73620596279E+03  0.17805724885E+03  0.78697776617E+03  0.18800000000E+03 0.  0.
   -5000001    1    1    2    0    0  0.10142189574E+03  0.73620596279E+03  0.94899207561E+03  0.12199244158E+04  0.18800000000E+03 0.  0.
<mgrwt>
<rscale>  0 0.16605470E+04</rscale>
<asrwt>0</asrwt>
<pdfrwt beam="1">  1        2 0.62846631E-01 0.16605470E+04</pdfrwt>
<pdfrwt beam="2">  1       -2 0.22385368E+00 0.16605470E+04</pdfrwt>
<totfact> 0.69419568E+00</totfact>
</mgrwt>
</event>
<event>
 4    1  0.6165923E-005  0.8039596E+03  0.7818608E-02  0.9554303E-01
         -2   -1    0    0    0  501 -0.00000000000E+00  0.00000000000E+00  0.13598580873E+03  0.13598580876E+03  0.25500000000E-02 0. -1.
          2   -1    0    0  501    0  0.00000000000E+00 -0.00000000000E+00 -0.11882691393E+04  0.11882691393E+04  0.25500000000E-02 0.  1.
    5000001    1    1    2    0    0 -0.31930011949E+03 -0.14378533914E+03 -0.62520402066E+03  0.74084469189E+03  0.18800000000E+03 0.  0.
   -5000001    1    1    2    0    0  0.31930011949E+03  0.14378533914E+03 -0.42707930993E+03  0.58341025619E+03  0.18800000000E+03 0.  0.
<mgrwt>
<rscale>  0 0.80395955E+03</rscale>
<asrwt>0</asrwt>
<pdfrwt beam="1">  1        2 0.16975273E+00 0.80395955E+03</pdfrwt>
<pdfrwt beam="2">  1       -2 0.19426545E-01 0.80395955E+03</pdfrwt>
<totfact> 0.48905960E+02</totfact>
</mgrwt>
</event>
<event>
 4    1  0.6165923E-005  0.1229516E+04  0.7818608E-02  0.9087406E-01
          2   -1    0    0  501    0  0.00000000000E+00  0.00000000000E+00  0.24470000127E+04  0.24470000127E+04  0.25500000000E-02 0.  1.
         -2   -1    0    0    0  501 -0.00000000000E+00 -0.00000000000E+00 -0.15444528965E+03  0.15444528967E+03  0.25500000000E-02 0. -1.
    5000001    1    1    2    0    0 -0.57263942837E+03 -0.98936388193E+02  0.12940721873E+04  0.14309686054E+04  0.18800000000E+03 0.  0.
   -5000001    1    1    2    0    0  0.57263942837E+03  0.98936388193E+02  0.99848253582E+03  0.11704766970E+04  0.18800000000E+03 0.  0.
<mgrwt>
<rscale>  0 0.12295164E+04</rscale>
<asrwt>0</asrwt>
<pdfrwt beam="1">  1        2 0.34957145E+00 0.12295164E+04</pdfrwt>
<pdfrwt beam="2">  1       -2 0.22063612E-01 0.12295164E+04</pdfrwt>
<totfact> 0.83484113E+01</totfact>
</mgrwt>
</event>
<event>
 4    1  0.6165923E-005  0.9321057E+03  0.7818608E-02  0.9386314E-01
         -2   -1    0    0    0  501 -0.00000000000E+00  0.00000000000E+00  0.11894939175E+03  0.11894939177E+03  0.25500000000E-02 0. -1.
          2   -1    0    0  501    0  0.00000000000E+00 -0.00000000000E+00 -0.18260309897E+04  0.18260309898E+04  0.25500000000E-02 0.  1.
    5000001    1    1    2    0    0  0.39309989423E+03  0.16011221310E+03 -0.93952068858E+03  0.10479535161E+04  0.18800000000E+03 0.  0.
   -5000001    1    1    2    0    0 -0.39309989423E+03 -0.16011221310E+03 -0.76756090943E+03  0.89702686543E+03  0.18800000000E+03 0.  0.
<mgrwt>
<rscale>  0 0.93210574E+03</rscale>
<asrwt>0</asrwt>
<pdfrwt beam="1">  1        2 0.26086155E+00 0.93210574E+03</pdfrwt>
<pdfrwt beam="2">  1       -2 0.16992771E-01 0.93210574E+03</pdfrwt>
<totfact> 0.28064318E+02</totfact>
</mgrwt>
</event>
<event>
 4    1  0.6165923E-005  0.5758140E+03  0.7818608E-02  0.9956895E-01
         -2   -1    0    0    0  501 -0.00000000000E+00  0.00000000000E+00  0.72245819323E+03  0.72245819323E+03  0.25500000000E-02 0. -1.
          2   -1    0    0  501    0  0.00000000000E+00 -0.00000000000E+00 -0.11473389929E+03  0.11473389932E+03  0.25500000000E-02 0.  1.
    5000001    1    1    2    0    0 -0.12113428426E+03  0.10470125188E+03  0.88648499357E+02  0.26237077468E+03  0.18800000000E+03 0.  0.
   -5000001    1    1    2    0    0  0.12113428426E+03 -0.10470125188E+03  0.51907579458E+03  0.57482131788E+03  0.18800000000E+03 0.  0.
<mgrwt>
<rscale>  0 0.57581402E+03</rscale>
<asrwt>0</asrwt>
<pdfrwt beam="1">  1        2 0.16390557E-01 0.57581402E+03</pdfrwt>
<pdfrwt beam="2">  1       -2 0.10320831E+00 0.57581402E+03</pdfrwt>
<totfact> 0.27919992E+02</totfact>
</mgrwt>
</event>
<event>
 4    1  0.6165923E-005  0.4306821E+03  0.7818608E-02  0.1033645E+00
         -2   -1    0    0    0  501 -0.00000000000E+00  0.00000000000E+00  0.55345722789E+02  0.55345722848E+02  0.25500000000E-02 0. -1.
          2   -1    0    0  501    0  0.00000000000E+00 -0.00000000000E+00 -0.83785625081E+03  0.83785625082E+03  0.25500000000E-02 0.  1.
    5000001    1    1    2    0    0 -0.71851538651E+02 -0.30995057095E+02 -0.53649546267E+03  0.57384206768E+03  0.18800000000E+03 0.  0.
   -5000001    1    1    2    0    0  0.71851538651E+02  0.30995057095E+02 -0.24601506535E+03  0.31935990599E+03  0.18800000000E+03 0.  0.
<mgrwt>
<rscale>  0 0.43068206E+03</rscale>
<asrwt>0</asrwt>
<pdfrwt beam="1">  1        2 0.11969374E+00 0.43068206E+03</pdfrwt>
<pdfrwt beam="2">  1       -2 0.79065324E-02 0.43068206E+03</pdfrwt>
<totfact> 0.35636455E+03</totfact>
</mgrwt>
</event>
<event>
 4    1  0.6165923E-005  0.6714376E+03  0.7818608E-02  0.9767364E-01
          2   -1    0    0  501    0  0.00000000000E+00  0.00000000000E+00  0.49963022499E+03  0.49963022500E+03  0.25500000000E-02 0.  1.
         -2   -1    0    0    0  501 -0.00000000000E+00 -0.00000000000E+00 -0.22558106934E+03  0.22558106936E+03  0.25500000000E-02 0. -1.
    5000001    1    1    2    0    0 -0.76112277263E+02  0.26632556934E+03  0.16436450578E+03  0.37293709710E+03  0.18800000000E+03 0.  0.
   -5000001    1    1    2    0    0  0.76112277263E+02 -0.26632556934E+03  0.10968464987E+03  0.35227419725E+03  0.18800000000E+03 0.  0.
<mgrwt>
<rscale>  0 0.67143762E+03</rscale>
<asrwt>0</asrwt>
<pdfrwt beam="1">  1        2 0.71375746E-01 0.67143762E+03</pdfrwt>
<pdfrwt beam="2">  1       -2 0.32225867E-01 0.67143762E+03</pdfrwt>
<totfact> 0.60527312E+02</totfact>
</mgrwt>
</event>
<event>
 4    1  0.6165923E-005  0.5918699E+03  0.7818608E-02  0.9922418E-01
          2   -1    0    0  501    0  0.00000000000E+00  0.00000000000E+00  0.87585196719E+02  0.87585196756E+02  0.25500000000E-02 0.  1.
         -2   -1    0    0    0  501 -0.00000000000E+00 -0.00000000000E+00 -0.99991207356E+03  0.99991207356E+03  0.25500000000E-02 0. -1.
    5000001    1    1    2    0    0 -0.74438653567E+02 -0.12696132049E+03 -0.77743509118E+03  0.81327093336E+03  0.18800000000E+03 0.  0.
   -5000001    1    1    2    0    0  0.74438653567E+02  0.12696132049E+03 -0.13489178566E+03  0.27422633696E+03  0.18800000000E+03 0.  0.
<mgrwt>
<rscale>  0 0.59186990E+03</rscale>
<asrwt>0</asrwt>
<pdfrwt beam="1">  1        2 0.12512172E-01 0.59186990E+03</pdfrwt>
<pdfrwt beam="2">  1       -2 0.14284458E+00 0.59186990E+03</pdfrwt>
<totfact> 0.17348547E+02</totfact>
</mgrwt>
</event>
<event>
 4    1  0.6165923E-005  0.6491502E+03  0.7818608E-02  0.9808375E-01
          2   -1    0    0  501    0  0.00000000000E+00  0.00000000000E+00  0.86895037623E+03  0.86895037623E+03  0.25500000000E-02 0. -1.
         -2   -1    0    0    0  501 -0.00000000000E+00 -0.00000000000E+00 -0.12123706874E+03  0.12123706876E+03  0.25500000000E-02 0.  1.
    5000001    1    1    2    0    0  0.43052191960E+02 -0.26048135674E+03  0.34739405909E+03  0.47511120881E+03  0.18800000000E+03 0.  0.
   -5000001    1    1    2    0    0 -0.43052191960E+02  0.26048135674E+03  0.40031924841E+03  0.51507623619E+03  0.18800000000E+03 0.  0.
<mgrwt>
<rscale>  0 0.64915020E+03</rscale>
<asrwt>0</asrwt>
<pdfrwt beam="1">  1        2 0.12413577E+00 0.64915020E+03</pdfrwt>
<pdfrwt beam="2">  1       -2 0.17319581E-01 0.64915020E+03</pdfrwt>
<totfact> 0.93760425E+02</totfact>
</mgrwt>
</event>
<event>
 4    1  0.6165923E-005  0.6171280E+03  0.7818608E-02  0.9870494E-01
          2   -1    0    0  501    0  0.00000000000E+00  0.00000000000E+00  0.39909448523E+03  0.39909448524E+03  0.25500000000E-02 0.  1.
         -2   -1    0    0    0  501 -0.00000000000E+00 -0.00000000000E+00 -0.23856945110E+03  0.23856945111E+03  0.25500000000E-02 0. -1.
    5000001    1    1    2    0    0  0.88933466360E+02  0.22742165795E+03  0.64322560844E+02  0.31481925573E+03  0.18800000000E+03 0.  0.
   -5000001    1    1    2    0    0 -0.88933466360E+02 -0.22742165795E+03  0.96202473290E+02  0.32284468063E+03  0.18800000000E+03 0.  0.
<mgrwt>
<rscale>  0 0.61712803E+03</rscale>
<asrwt>0</asrwt>
<pdfrwt beam="1">  1        2 0.57013497E-01 0.61712803E+03</pdfrwt>
<pdfrwt beam="2">  1       -2 0.34081350E-01 0.61712803E+03</pdfrwt>
<totfact> 0.70220132E+02</totfact>
</mgrwt>
</event>
<event>
 4    1  0.6165923E-005  0.5652008E+03  0.7818608E-02  0.9980355E-01
          2   -1    0    0  501    0  0.00000000000E+00  0.00000000000E+00  0.51839250182E+03  0.51839250182E+03  0.25500000000E-02 0.  1.
         -2   -1    0    0    0  501 -0.00000000000E+00 -0.00000000000E+00 -0.15405891223E+03  0.15405891225E+03  0.25500000000E-02 0. -1.
    5000001    1    1    2    0    0 -0.19884027997E+03  0.40317636415E+02  0.25109074674E+03  0.37356864408E+03  0.18800000000E+03 0.  0.
   -5000001    1    1    2    0    0  0.19884027997E+03 -0.40317636415E+02  0.11324284285E+03  0.29888276999E+03  0.18800000000E+03 0.  0.
<mgrwt>
<rscale>  0 0.56520080E+03</rscale>
<asrwt>0</asrwt>
<pdfrwt beam="1">  1        2 0.74056071E-01 0.56520080E+03</pdfrwt>
<pdfrwt beam="2">  1       -2 0.22008416E-01 0.56520080E+03</pdfrwt>
<totfact> 0.11612495E+03</totfact>
</mgrwt>
</event>
<event>
 4    1  0.6165923E-005  0.7522839E+03  0.7818608E-02  0.9631774E-01
         -2   -1    0    0    0  501 -0.00000000000E+00  0.00000000000E+00  0.38937174873E+02  0.38937174956E+02  0.25500000000E-02 0. -1.
          2   -1    0    0  501    0  0.00000000000E+00 -0.00000000000E+00 -0.36336162336E+04  0.36336162336E+04  0.25500000000E-02 0.  1.
    5000001    1    1    2    0    0  0.12922811138E+03 -0.25487740941E+03 -0.10335745790E+04  0.10887069435E+04  0.18800000000E+03 0.  0.
   -5000001    1    1    2    0    0 -0.12922811138E+03  0.25487740941E+03 -0.25611044798E+04  0.25838464650E+04  0.18800000000E+03 0.  0.
<mgrwt>
<rscale>  0 0.75228386E+03</rscale>
<asrwt>0</asrwt>
<pdfrwt beam="1">  1        2 0.51908782E+00 0.75228386E+03</pdfrwt>
<pdfrwt beam="2">  1       -2 0.55624559E-02 0.75228386E+03</pdfrwt>
<totfact> 0.18585559E+02</totfact>
</mgrwt>
</event>
<event>
 4    1  0.6165923E-005  0.4570836E+03  0.7818608E-02  0.1025630E+00
         -2   -1    0    0    0  501 -0.00000000000E+00  0.00000000000E+00  0.22245554672E+03  0.22245554674E+03  0.25500000000E-02 0. -1.
          2   -1    0    0  501    0  0.00000000000E+00 -0.00000000000E+00 -0.23479458698E+03  0.23479458699E+03  0.25500000000E-02 0.  1.
    5000001    1    1    2    0    0 -0.12121880145E+03  0.44285853485E+02 -0.21410672762E+02  0.22903635422E+03  0.18800000000E+03 0.  0.
   -5000001    1    1    2    0    0  0.12121880145E+03 -0.44285853485E+02  0.90716325062E+01  0.22821377951E+03  0.18800000000E+03 0.  0.
<mgrwt>
<rscale>  0 0.45708362E+03</rscale>
<asrwt>0</asrwt>
<pdfrwt beam="1">  1        2 0.33542084E-01 0.45708362E+03</pdfrwt>
<pdfrwt beam="2">  1       -2 0.31779364E-01 0.45708362E+03</pdfrwt>
<totfact> 0.14375971E+03</totfact>
</mgrwt>
</event>
<event>
 4    1  0.6165923E-005  0.6185024E+03  0.7818608E-02  0.9867746E-01
         -2   -1    0    0    0  501 -0.00000000000E+00  0.00000000000E+00  0.21966184963E+03  0.21966184964E+03  0.25500000000E-02 0. -1.
          2   -1    0    0  501    0  0.00000000000E+00 -0.00000000000E+00 -0.43537972999E+03  0.43537973000E+03  0.25500000000E-02 0.  1.
    5000001    1    1    2    0    0  0.46661408566E+02  0.22456883181E+03 -0.20069515876E+03  0.35809355484E+03  0.18800000000E+03 0.  0.
   -5000001    1    1    2    0    0 -0.46661408566E+02 -0.22456883181E+03 -0.15022721610E+02  0.29694802480E+03  0.18800000000E+03 0.  0.
<mgrwt>
<rscale>  0 0.61850244E+03</rscale>
<asrwt>0</asrwt>
<pdfrwt beam="1">  1        2 0.62197104E-01 0.61850244E+03</pdfrwt>
<pdfrwt beam="2">  1       -2 0.31380264E-01 0.61850244E+03</pdfrwt>
<totfact> 0.74389983E+02</totfact>
</mgrwt>
</event>
<event>
 4    1  0.6165923E-005  0.6268119E+03  0.7818608E-02  0.9851290E-01
         -2   -1    0    0    0  501 -0.00000000000E+00  0.00000000000E+00  0.21681690317E+03  0.21681690319E+03  0.25500000000E-02 0. -1.
          2   -1    0    0  501    0  0.00000000000E+00 -0.00000000000E+00 -0.45302414973E+03  0.45302414974E+03  0.25500000000E-02 0.  1.
    5000001    1    1    2    0    0  0.62391089396E+02  0.64217557594E+02 -0.36841080363E+03  0.42318679442E+03  0.18800000000E+03 0.  0.
   -5000001    1    1    2    0    0 -0.62391089396E+02 -0.64217557594E+02  0.13220355707E+03  0.24665425851E+03  0.18800000000E+03 0.  0.
<mgrwt>
<rscale>  0 0.62681191E+03</rscale>
<asrwt>0</asrwt>
<pdfrwt beam="1">  1        2 0.64717735E-01 0.62681191E+03</pdfrwt>
<pdfrwt beam="2">  1       -2 0.30973844E-01 0.62681191E+03</pdfrwt>
<totfact> 0.72882106E+02</totfact>
</mgrwt>
</event>
<event>
 4    1  0.6165923E-005  0.9546599E+03  0.7818608E-02  0.9359720E-01
         -2   -1    0    0    0  501 -0.00000000000E+00  0.00000000000E+00  0.99947307068E+02  0.99947307100E+02  0.25500000000E-02 0. -1.
          2   -1    0    0  501    0  0.00000000000E+00 -0.00000000000E+00 -0.22796399196E+04  0.22796399196E+04  0.25500000000E-02 0.  1.
    5000001    1    1    2    0    0  0.13516105745E+03 -0.41217924503E+03 -0.12540486266E+04  0.13402022979E+04  0.18800000000E+03 0.  0.
   -5000001    1    1    2    0    0 -0.13516105745E+03  0.41217924503E+03 -0.92564398599E+03  0.10393849288E+04  0.18800000000E+03 0.  0.
<mgrwt>
<rscale>  0 0.95465988E+03</rscale>
<asrwt>0</asrwt>
<pdfrwt beam="1">  1        2 0.32566281E+00 0.95465988E+03</pdfrwt>
<pdfrwt beam="2">  1       -2 0.14278188E-01 0.95465988E+03</pdfrwt>
<totfact> 0.22118788E+02</totfact>
</mgrwt>
</event>
<event>
 4    1  0.6165923E-005  0.4426533E+03  0.7818608E-02  0.1029936E+00
          2   -1    0    0  501    0  0.00000000000E+00  0.00000000000E+00  0.26696256678E+03  0.26696256680E+03  0.25500000000E-02 0.  1.
         -2   -1    0    0    0  501 -0.00000000000E+00 -0.00000000000E+00 -0.18349193240E+03  0.18349193242E+03  0.25500000000E-02 0. -1.
    5000001    1    1    2    0    0 -0.10591935971E+03 -0.48809204831E+02  0.35280980395E+02  0.22403124071E+03  0.18800000000E+03 0.  0.
   -5000001    1    1    2    0    0  0.10591935971E+03  0.48809204831E+02  0.48189653990E+02  0.22642325850E+03  0.18800000000E+03 0.  0.
<mgrwt>
<rscale>  0 0.44265326E+03</rscale>
<asrwt>0</asrwt>
<pdfrwt beam="1">  1        2 0.38137509E-01 0.44265326E+03</pdfrwt>
<pdfrwt beam="2">  1       -2 0.26213133E-01 0.44265326E+03</pdfrwt>
<totfact> 0.17728622E+03</totfact>
</mgrwt>
</event>
<event>
 4    1  0.6165923E-005  0.5755405E+03  0.7818608E-02  0.9957493E-01
         -2   -1    0    0    0  501 -0.00000000000E+00  0.00000000000E+00  0.25891622628E+04  0.25891622628E+04  0.25500000000E-02 0. -1.
          2   -1    0    0  501    0  0.00000000000E+00 -0.00000000000E+00 -0.31983980631E+02  0.31983980733E+02  0.25500000000E-02 0.  1.
    5000001    1    1    2    0    0 -0.64081278868E+02  0.17098516995E+03  0.73731735294E+03  0.78251084184E+03  0.18800000000E+03 0.  0.
   -5000001    1    1    2    0    0  0.64081278868E+02 -0.17098516995E+03  0.18198609292E+04  0.18386354016E+04  0.18800000000E+03 0.  0.
<mgrwt>
<rscale>  0 0.57554050E+03</rscale>
<asrwt>0</asrwt>
<pdfrwt beam="1">  1        2 0.45691397E-02 0.57554050E+03</pdfrwt>
<pdfrwt beam="2">  1       -2 0.36988036E+00 0.57554050E+03</pdfrwt>
<totfact> 0.23531343E+01</totfact>
</mgrwt>
</event>
<event>
 4    1  0.6165923E-005  0.5358311E+03  0.7818608E-02  0.1004828E+00
          2   -1    0    0  501    0  0.00000000000E+00  0.00000000000E+00  0.21342814242E+04  0.21342814242E+04  0.25500000000E-02 0.  1.
         -2   -1    0    0    0  501 -0.00000000000E+00 -0.00000000000E+00 -0.33631343091E+02  0.33631343188E+02  0.25500000000E-02 0. -1.
    5000001    1    1    2    0    0 -0.51603267429E+02 -0.15605327421E+03  0.14429894549E+04  0.14644378063E+04  0.18800000000E+03 0.  0.
   -5000001    1    1    2    0    0  0.51603267429E+02  0.15605327421E+03  0.65766062621E+03  0.70347496108E+03  0.18800000000E+03 0.  0.
<mgrwt>
<rscale>  0 0.53583113E+03</rscale>
<asrwt>0</asrwt>
<pdfrwt beam="1">  1        2 0.30489739E+00 0.53583113E+03</pdfrwt>
<pdfrwt beam="2">  1       -2 0.48044769E-02 0.53583113E+03</pdfrwt>
<totfact> 0.15533130E+03</totfact>
</mgrwt>
</event>
<event>
 4    1  0.6165923E-005  0.4724396E+03  0.7818608E-02  0.1021234E+00
         -2   -1    0    0    0  501 -0.00000000000E+00  0.00000000000E+00  0.11656150980E+03  0.11656150982E+03  0.25500000000E-02 0. -1.
          2   -1    0    0  501    0  0.00000000000E+00 -0.00000000000E+00 -0.47871544228E+03  0.47871544229E+03  0.25500000000E-02 0.  1.
    5000001    1    1    2    0    0  0.10970941275E+03  0.87486725428E+02 -0.14621068746E+03  0.27642656801E+03  0.18800000000E+03 0.  0.
   -5000001    1    1    2    0    0 -0.10970941275E+03 -0.87486725428E+02 -0.21594324502E+03  0.31885038410E+03  0.18800000000E+03 0.  0.
<mgrwt>
<rscale>  0 0.47243960E+03</rscale>
<asrwt>0</asrwt>
<pdfrwt beam="1">  1        2 0.68387919E-01 0.47243960E+03</pdfrwt>
<pdfrwt beam="2">  1       -2 0.16651645E-01 0.47243960E+03</pdfrwt>
<totfact> 0.20563063E+03</totfact>
</mgrwt>
</event>
<event>
 4    1  0.6165923E-005  0.8159179E+03  0.7818608E-02  0.9537258E-01
          2   -1    0    0  501    0  0.00000000000E+00  0.00000000000E+00  0.96219253946E+03  0.96219253946E+03  0.25500000000E-02 0.  1.
         -2   -1    0    0    0  501 -0.00000000000E+00 -0.00000000000E+00 -0.17297007137E+03  0.17297007139E+03  0.25500000000E-02 0. -1.
    5000001    1    1    2    0    0  0.14367884697E+03 -0.25462102423E+03  0.69174128142E+03  0.77416114438E+03  0.18800000000E+03 0.  0.
   -5000001    1    1    2    0    0 -0.14367884697E+03  0.25462102423E+03  0.97481186668E+02  0.36100146648E+03  0.18800000000E+03 0.  0.
<mgrwt>
<rscale>  0 0.81591792E+03</rscale>
<asrwt>0</asrwt>
<pdfrwt beam="1">  1        2 0.13745608E+00 0.81591792E+03</pdfrwt>
<pdfrwt beam="2">  1       -2 0.24710010E-01 0.81591792E+03</pdfrwt>
<totfact> 0.43506412E+02</totfact>
</mgrwt>
</event>
<event>
 4    1  0.6165923E-005  0.1042594E+04  0.7818608E-02  0.9263024E-01
          2   -1    0    0  501    0  0.00000000000E+00  0.00000000000E+00  0.82921286702E+03  0.82921286703E+03  0.25500000000E-02 0.  1.
         -2   -1    0    0    0  501 -0.00000000000E+00 -0.00000000000E+00 -0.32772110292E+03  0.32772110293E+03  0.25500000000E-02 0. -1.
    5000001    1    1    2    0    0  0.24119398163E+03 -0.20372074557E+03 -0.15957636825E+03  0.40060616103E+03  0.18800000000E+03 0.  0.
   -5000001    1    1    2    0    0 -0.24119398163E+03  0.20372074557E+03  0.66106813235E+03  0.75632780893E+03  0.18800000000E+03 0.  0.
<mgrwt>
<rscale>  0 0.10425940E+04</rscale>
<asrwt>0</asrwt>
<pdfrwt beam="1">  1        2 0.11845898E+00 0.10425940E+04</pdfrwt>
<pdfrwt beam="2">  1       -2 0.46817301E-01 0.10425940E+04</pdfrwt>
<totfact> 0.15618740E+02</totfact>
</mgrwt>
</event>
<event>
 4    1  0.6165923E-005  0.6117374E+03  0.7818608E-02  0.9881349E-01
          2   -1    0    0  501    0  0.00000000000E+00  0.00000000000E+00  0.13646667378E+03  0.13646667380E+03  0.25500000000E-02 0.  1.
         -2   -1    0    0    0  501 -0.00000000000E+00 -0.00000000000E+00 -0.68555691549E+03  0.68555691549E+03  0.25500000000E-02 0. -1.
    5000001    1    1    2    0    0 -0.23085541836E+03  0.98311775279E+01 -0.36784446435E+03  0.47333331405E+03  0.18800000000E+03 0.  0.
   -5000001    1    1    2    0    0  0.23085541836E+03 -0.98311775279E+01 -0.18124577735E+03  0.34869027524E+03  0.18800000000E+03 0.  0.
<mgrwt>
<rscale>  0 0.61173743E+03</rscale>
<asrwt>0</asrwt>
<pdfrwt beam="1">  1        2 0.19495239E-01 0.61173743E+03</pdfrwt>
<pdfrwt beam="2">  1       -2 0.97936701E-01 0.61173743E+03</pdfrwt>
<totfact> 0.25700055E+02</totfact>
</mgrwt>
</event>
<event>
 4    1  0.6165923E-005  0.6005846E+03  0.7818608E-02  0.9904194E-01
         -2   -1    0    0    0  501 -0.00000000000E+00  0.00000000000E+00  0.25707405104E+02  0.25707405230E+02  0.25500000000E-02 0.  1.
          2   -1    0    0  501    0  0.00000000000E+00 -0.00000000000E+00 -0.35077621647E+04  0.35077621647E+04  0.25500000000E-02 0. -1.
    5000001    1    1    2    0    0 -0.17841364069E+03 -0.13049905330E+03 -0.12864419219E+04  0.13187639093E+04  0.18800000000E+03 0.  0.
   -5000001    1    1    2    0    0  0.17841364069E+03  0.13049905330E+03 -0.21956128377E+04  0.22147056607E+04  0.18800000000E+03 0.  0.
<mgrwt>
<rscale>  0 0.60058459E+03</rscale>
<asrwt>0</asrwt>
<pdfrwt beam="1">  1        2 0.50110858E+00 0.60058459E+03</pdfrwt>
<pdfrwt beam="2">  1       -2 0.36724887E-02 0.60058459E+03</pdfrwt>
<totfact> 0.42881023E+02</totfact>
</mgrwt>
</event>
<event>
 4    1  0.6165923E-005  0.4897914E+03  0.7818608E-02  0.1016478E+00
          2   -1    0    0  501    0  0.00000000000E+00  0.00000000000E+00  0.13973828499E+04  0.13973828499E+04  0.25500000000E-02 0.  1.
         -2   -1    0    0    0  501 -0.00000000000E+00 -0.00000000000E+00 -0.42918739739E+02  0.42918739815E+02  0.25500000000E-02 0. -1.
    5000001    1    1    2    0    0  0.44952823698E+01  0.15419108679E+03  0.59226772722E+03  0.64025007577E+03  0.18800000000E+03 0.  0.
   -5000001    1    1    2    0    0 -0.44952823698E+01 -0.15419108679E+03  0.76219638291E+03  0.80005151392E+03  0.18800000000E+03 0.  0.
<mgrwt>
<rscale>  0 0.48979143E+03</rscale>
<asrwt>0</asrwt>
<pdfrwt beam="1">  1        2 0.19962614E+00 0.48979143E+03</pdfrwt>
<pdfrwt beam="2">  1       -2 0.61312479E-02 0.48979143E+03</pdfrwt>
<totfact> 0.25177477E+03</totfact>
</mgrwt>
</event>
<event>
 4    1  0.6165923E-005  0.4750714E+03  0.7818608E-02  0.1020499E+00
          2   -1    0    0  501    0  0.00000000000E+00  0.00000000000E+00  0.22522925079E+04  0.22522925079E+04  0.25500000000E-02 0.  1.
         -2   -1    0    0    0  501 -0.00000000000E+00 -0.00000000000E+00 -0.25051459885E+02  0.25051460015E+02  0.25500000000E-02 0. -1.
    5000001    1    1    2    0    0 -0.50423432225E+02  0.12983208086E+03  0.91711886968E+03  0.94649348274E+03  0.18800000000E+03 0.  0.
   -5000001    1    1    2    0    0  0.50423432225E+02 -0.12983208086E+03  0.13101221783E+04  0.13308504851E+04  0.18800000000E+03 0.  0.
<mgrwt>
<rscale>  0 0.47507143E+03</rscale>
<asrwt>0</asrwt>
<pdfrwt beam="1">  1        2 0.32175611E+00 0.47507143E+03</pdfrwt>
<pdfrwt beam="2">  1       -2 0.35787796E-02 0.47507143E+03</pdfrwt>
<totfact> 0.21357147E+03</totfact>
</mgrwt>
</event>
<event>
 4    1  0.6165923E-005  0.6316740E+03  0.7818608E-02  0.9841788E-01
         -2   -1    0    0    0  501 -0.00000000000E+00  0.00000000000E+00  0.46203029854E+02  0.46203029924E+02  0.25500000000E-02 0. -1.
          2   -1    0    0  501    0  0.00000000000E+00 -0.00000000000E+00 -0.21590144071E+04  0.21590144071E+04  0.25500000000E-02 0.  1.
    5000001    1    1    2    0    0 -0.19014630161E+03  0.16721690963E+03 -0.99676086989E+03  0.10454632192E+04  0.18800000000E+03 0.  0.
   -5000001    1    1    2    0    0  0.19014630161E+03 -0.16721690963E+03 -0.11160505074E+04  0.11597542179E+04  0.18800000000E+03 0.  0.
<mgrwt>
<rscale>  0 0.63167399E+03</rscale>
<asrwt>0</asrwt>
<pdfrwt beam="1">  1        2 0.30843057E+00 0.63167399E+03</pdfrwt>
<pdfrwt beam="2">  1       -2 0.66004342E-02 0.63167399E+03</pdfrwt>
<totfact> 0.91465555E+02</totfact>
</mgrwt>
</event>
<event>
 4    1  0.6165923E-005  0.6209523E+03  0.7818608E-02  0.9862866E-01
         -2   -1    0    0    0  501 -0.00000000000E+00  0.00000000000E+00  0.28224559295E+03  0.28224559296E+03  0.25500000000E-02 0. -1.
          2   -1    0    0  501    0  0.00000000000E+00 -0.00000000000E+00 -0.34153032681E+03  0.34153032682E+03  0.25500000000E-02 0.  1.
    5000001    1    1    2    0    0  0.70105934097E+02 -0.23642971138E+03 -0.14158672864E+02  0.31041636303E+03  0.18800000000E+03 0.  0.
   -5000001    1    1    2    0    0 -0.70105934097E+02  0.23642971138E+03 -0.45126060997E+02  0.31335955674E+03  0.18800000000E+03 0.  0.
<mgrwt>
<rscale>  0 0.62095227E+03</rscale>
<asrwt>0</asrwt>
<pdfrwt beam="1">  1        2 0.48790046E-01 0.62095227E+03</pdfrwt>
<pdfrwt beam="2">  1       -2 0.40320799E-01 0.62095227E+03</pdfrwt>
<totfact> 0.60474300E+02</totfact>
</mgrwt>
</event>
<event>
 4    1  0.6165923E-005  0.8797085E+03  0.7818608E-02  0.9451308E-01
          2   -1    0    0  501    0  0.00000000000E+00  0.00000000000E+00  0.20431321924E+03  0.20431321925E+03  0.25500000000E-02 0.  1.
         -2   -1    0    0    0  501 -0.00000000000E+00 -0.00000000000E+00 -0.94693703188E+03  0.94693703189E+03  0.25500000000E-02 0. -1.
    5000001    1    1    2    0    0 -0.21360973153E+03  0.31979487358E+02  0.65627834150E+02  0.29377341205E+03  0.18800000000E+03 0.  0.
   -5000001    1    1    2    0    0  0.21360973153E+03 -0.31979487358E+02 -0.80825164680E+03  0.85747683908E+03  0.18800000000E+03 0.  0.
<mgrwt>
<rscale>  0 0.87970848E+03</rscale>
<asrwt>0</asrwt>
<pdfrwt beam="1">  1        2 0.29187603E-01 0.87970848E+03</pdfrwt>
<pdfrwt beam="2">  1       -2 0.13527672E+00 0.87970848E+03</pdfrwt>
<totfact> 0.72361460E+01</totfact>
</mgrwt>
</event>
<event>
 4    1  0.6165923E-005  0.7549475E+03  0.7818608E-02  0.9627620E-01
         -2   -1    0    0    0  501 -0.00000000000E+00  0.00000000000E+00  0.17726425383E+03  0.17726425385E+03  0.25500000000E-02 0.  1.
          2   -1    0    0  501    0  0.00000000000E+00 -0.00000000000E+00 -0.80380814193E+03  0.80380814193E+03  0.25500000000E-02 0. -1.
    5000001    1    1    2    0    0  0.31265170579E+01  0.30882459320E+03 -0.45419718548E+03  0.58053551810E+03  0.18800000000E+03 0.  0.
   -5000001    1    1    2    0    0 -0.31265170579E+01 -0.30882459320E+03 -0.17234670262E+03  0.40053687768E+03  0.18800000000E+03 0.  0.
<mgrwt>
<rscale>  0 0.75494755E+03</rscale>
<asrwt>0</asrwt>
<pdfrwt beam="1">  1        2 0.11482973E+00 0.75494755E+03</pdfrwt>
<pdfrwt beam="2">  1       -2 0.25323465E-01 0.75494755E+03</pdfrwt>
<totfact> 0.53066726E+02</totfact>
</mgrwt>
</event>
<event>
 4    1  0.6165923E-005  0.5106767E+03  0.7818608E-02  0.1011029E+00
         -2   -1    0    0    0  501 -0.00000000000E+00  0.00000000000E+00  0.18205497825E+03  0.18205497827E+03  0.25500000000E-02 0. -1.
          2   -1    0    0  501    0  0.00000000000E+00 -0.00000000000E+00 -0.35812084694E+03  0.35812084695E+03  0.25500000000E-02 0.  1.
    5000001    1    1    2    0    0  0.11602944957E+03 -0.12481804306E+03 -0.57904164295E+02  0.26026768774E+03  0.18800000000E+03 0.  0.
   -5000001    1    1    2    0    0 -0.11602944957E+03  0.12481804306E+03 -0.11816170440E+03  0.27990813748E+03  0.18800000000E+03 0.  0.
<mgrwt>
<rscale>  0 0.51067674E+03</rscale>
<asrwt>0</asrwt>
<pdfrwt beam="1">  1        2 0.51160121E-01 0.51067674E+03</pdfrwt>
<pdfrwt beam="2">  1       -2 0.26007854E-01 0.51067674E+03</pdfrwt>
<totfact> 0.13038578E+03</totfact>
</mgrwt>
</event>
<event>
 4    1  0.6165923E-005  0.4536662E+03  0.7818608E-02  0.1026634E+00
          2   -1    0    0  501    0  0.00000000000E+00  0.00000000000E+00  0.25908239537E+04  0.25908239537E+04  0.25500000000E-02 0.  1.
         -2   -1    0    0    0  501 -0.00000000000E+00 -0.00000000000E+00 -0.19859805196E+02  0.19859805360E+02  0.25500000000E-02 0. -1.
    5000001    1    1    2    0    0 -0.62005237685E+02  0.10286676209E+03  0.15215651832E+04  0.15378331596E+04  0.18800000000E+03 0.  0.
   -5000001    1    1    2    0    0  0.62005237685E+02 -0.10286676209E+03  0.10493989653E+04  0.10728505994E+04  0.18800000000E+03 0.  0.
<mgrwt>
<rscale>  0 0.45366622E+03</rscale>
<asrwt>0</asrwt>
<pdfrwt beam="1">  1        2 0.37011783E+00 0.45366622E+03</pdfrwt>
<pdfrwt beam="2">  1       -2 0.28371141E-02 0.45366622E+03</pdfrwt>
<totfact> 0.20488435E+03</totfact>
</mgrwt>
</event>
<event>
 4    1  0.6165923E-005  0.7758649E+03  0.7818608E-02  0.9595624E-01
         -2   -1    0    0    0  501 -0.00000000000E+00  0.00000000000E+00  0.12445172648E+04  0.12445172648E+04  0.25500000000E-02 0. -1.
          2   -1    0    0  501    0  0.00000000000E+00 -0.00000000000E+00 -0.12092365494E+03  0.12092365497E+03  0.25500000000E-02 0.  1.
    5000001    1    1    2    0    0 -0.27335433926E+03 -0.19947450332E+03  0.51745219174E+03  0.64623017804E+03  0.18800000000E+03 0.  0.
   -5000001    1    1    2    0    0  0.27335433926E+03  0.19947450332E+03  0.60614141811E+03  0.71921074173E+03  0.18800000000E+03 0.  0.
<mgrwt>
<rscale>  0 0.77586488E+03</rscale>
<asrwt>0</asrwt>
<pdfrwt beam="1">  1        2 0.17274808E-01 0.77586488E+03</pdfrwt>
<pdfrwt beam="2">  1       -2 0.17778818E+00 0.77586488E+03</pdfrwt>
<totfact> 0.64334139E+01</totfact>
</mgrwt>
</event>
<event>
 4    1  0.6165923E-005  0.6403464E+03  0.7818608E-02  0.9825064E-01
          2   -1    0    0  501    0  0.00000000000E+00  0.00000000000E+00  0.35654333133E+04  0.35654333133E+04  0.25500000000E-02 0.  1.
         -2   -1    0    0    0  501 -0.00000000000E+00 -0.00000000000E+00 -0.28751313511E+02  0.28751313624E+02  0.25500000000E-02 0. -1.
    5000001    1    1    2    0    0 -0.17276252209E+03 -0.17270725598E+03  0.12825043943E+04  0.13190285087E+04  0.18800000000E+03 0.  0.
   -5000001    1    1    2    0    0  0.17276252209E+03  0.17270725598E+03  0.22541776055E+04  0.22751561183E+04  0.18800000000E+03 0.  0.
<mgrwt>
<rscale>  0 0.64034644E+03</rscale>
<asrwt>0</asrwt>
<pdfrwt beam="1">  1        2 0.50934740E+00 0.64034644E+03</pdfrwt>
<pdfrwt beam="2">  1       -2 0.41073323E-02 0.64034644E+03</pdfrwt>
<totfact> 0.33195100E+02</totfact>
</mgrwt>
</event>
<event>
 4    1  0.6165923E-005  0.6849545E+03  0.7818608E-02  0.9743314E-01
         -2   -1    0    0    0  501 -0.00000000000E+00  0.00000000000E+00  0.40590565491E+02  0.40590565571E+02  0.25500000000E-02 0. -1.
          2   -1    0    0  501    0  0.00000000000E+00 -0.00000000000E+00 -0.28896039068E+04  0.28896039068E+04  0.25500000000E-02 0.  1.
    5000001    1    1    2    0    0 -0.19097531578E+03 -0.17599557063E+03 -0.90936296865E+03  0.96422560683E+03  0.18800000000E+03 0.  0.
   -5000001    1    1    2    0    0  0.19097531578E+03  0.17599557063E+03 -0.19396503727E+04  0.19659688655E+04  0.18800000000E+03 0.  0.
<mgrwt>
<rscale>  0 0.68495447E+03</rscale>
<asrwt>0</asrwt>
<pdfrwt beam="1">  1        2 0.41280043E+00 0.68495447E+03</pdfrwt>
<pdfrwt beam="2">  1       -2 0.57986540E-02 0.68495447E+03</pdfrwt>
<totfact> 0.46754658E+02</totfact>
</mgrwt>
</event>
<event>
 4    1  0.6165923E-005  0.4972514E+03  0.7818608E-02  0.1014499E+00
          2   -1    0    0  501    0  0.00000000000E+00  0.00000000000E+00  0.15343752940E+03  0.15343752942E+03  0.25500000000E-02 0.  1.
         -2   -1    0    0    0  501 -0.00000000000E+00 -0.00000000000E+00 -0.40286579863E+03  0.40286579864E+03  0.25500000000E-02 0. -1.
    5000001    1    1    2    0    0  0.15908719259E+03  0.17093312865E+02 -0.15770924001E+03  0.29294559320E+03  0.18800000000E+03 0.  0.
   -5000001    1    1    2    0    0 -0.15908719259E+03 -0.17093312865E+02 -0.91719029217E+02  0.26335773486E+03  0.18800000000E+03 0.  0.
<mgrwt>
<rscale>  0 0.49725138E+03</rscale>
<asrwt>0</asrwt>
<pdfrwt beam="1">  1        2 0.21919647E-01 0.49725138E+03</pdfrwt>
<pdfrwt beam="2">  1       -2 0.57552257E-01 0.49725138E+03</pdfrwt>
<totfact> 0.72555387E+02</totfact>
</mgrwt>
</event>
<event>
 4    1  0.6165923E-005  0.5264691E+03  0.7818608E-02  0.1007092E+00
          2   -1    0    0  501    0  0.00000000000E+00  0.00000000000E+00  0.32453907528E+04  0.32453907529E+04  0.25500000000E-02 0.  1.
         -2   -1    0    0    0  501 -0.00000000000E+00 -0.00000000000E+00 -0.21351027275E+02  0.21351027427E+02  0.25500000000E-02 0. -1.
    5000001    1    1    2    0    0 -0.20836968741E+02 -0.18150933418E+03  0.14640583314E+04  0.14873434759E+04  0.18800000000E+03 0.  0.
   -5000001    1    1    2    0    0  0.20836968741E+02  0.18150933418E+03  0.17599813942E+04  0.17793983043E+04  0.18800000000E+03 0.  0.
<mgrwt>
<rscale>  0 0.52646909E+03</rscale>
<asrwt>0</asrwt>
<pdfrwt beam="1">  1        2 0.46362732E+00 0.52646909E+03</pdfrwt>
<pdfrwt beam="2">  1       -2 0.30501463E-02 0.52646909E+03</pdfrwt>
<totfact> 0.81407049E+02</totfact>
</mgrwt>
</event>
<event>
 4    1  0.6165923E-005  0.5788976E+03  0.7818608E-02  0.9950181E-01
         -2   -1    0    0    0  501 -0.00000000000E+00  0.00000000000E+00  0.13951300806E+03  0.13951300809E+03  0.25500000000E-02 0. -1.
          2   -1    0    0  501    0  0.00000000000E+00 -0.00000000000E+00 -0.60052177540E+03  0.60052177541E+03  0.25500000000E-02 0.  1.
    5000001    1    1    2    0    0 -0.12519526275E+03 -0.17963998424E+03 -0.25886598312E+03  0.38768540722E+03  0.18800000000E+03 0.  0.
   -5000001    1    1    2    0    0  0.12519526275E+03  0.17963998424E+03 -0.20214278422E+03  0.35234937628E+03  0.18800000000E+03 0.  0.
<mgrwt>
<rscale>  0 0.57889757E+03</rscale>
<asrwt>0</asrwt>
<pdfrwt beam="1">  1        2 0.85788824E-01 0.57889757E+03</pdfrwt>
<pdfrwt beam="2">  1       -2 0.19930430E-01 0.57889757E+03</pdfrwt>
<totfact> 0.11649772E+03</totfact>
</mgrwt>
</event>
<event>
 4    1  0.6165923E-005  0.1174448E+04  0.7818608E-02  0.9135521E-01
          2   -1    0    0  501    0  0.00000000000E+00  0.00000000000E+00  0.13051580847E+04  0.13051580847E+04  0.25500000000E-02 0.  1.
         -2   -1    0    0    0  501 -0.00000000000E+00 -0.00000000000E+00 -0.26420698993E+03  0.26420698994E+03  0.25500000000E-02 0. -1.
    5000001    1    1    2    0    0  0.38374728446E+03 -0.21954547775E+03  0.69252121144E+02  0.48538855715E+03  0.18800000000E+03 0.  0.
   -5000001    1    1    2    0    0 -0.38374728446E+03  0.21954547775E+03  0.97169897365E+03  0.10839765175E+04  0.18800000000E+03 0.  0.
<mgrwt>
<rscale>  0 0.11744478E+04</rscale>
<asrwt>0</asrwt>
<pdfrwt beam="1">  1        2 0.18645116E+00 0.11744478E+04</pdfrwt>
<pdfrwt beam="2">  1       -2 0.37743855E-01 0.11744478E+04</pdfrwt>
<totfact> 0.12196322E+02</totfact>
</mgrwt>
</event>
<event>
 4    1  0.6165923E-005  0.1483718E+04  0.7818608E-02  0.8895353E-01
         -2   -1    0    0    0  501 -0.00000000000E+00  0.00000000000E+00  0.58789614724E+03  0.58789614725E+03  0.25500000000E-02 0. -1.
          2   -1    0    0  501    0  0.00000000000E+00 -0.00000000000E+00 -0.93614314111E+03  0.93614314111E+03  0.25500000000E-02 0.  1.
    5000001    1    1    2    0    0  0.43635211168E+03 -0.30705311387E+03  0.31884182481E+03  0.64937576899E+03  0.18800000000E+03 0.  0.
   -5000001    1    1    2    0    0 -0.43635211168E+03  0.30705311387E+03 -0.66708881867E+03  0.87466351936E+03  0.18800000000E+03 0.  0.
<mgrwt>
<rscale>  0 0.14837182E+04</rscale>
<asrwt>0</asrwt>
<pdfrwt beam="1">  1        2 0.13373473E+00 0.14837182E+04</pdfrwt>
<pdfrwt beam="2">  1       -2 0.83985165E-01 0.14837182E+04</pdfrwt>
<totfact> 0.36985120E+01</totfact>
</mgrwt>
</event>
<event>
 4    1  0.6165923E-005  0.4402808E+03  0.7818608E-02  0.1030661E+00
         -2   -1    0    0    0  501 -0.00000000000E+00  0.00000000000E+00  0.53443808152E+02  0.53443808213E+02  0.25500000000E-02 0. -1.
          2   -1    0    0  501    0  0.00000000000E+00 -0.00000000000E+00 -0.90678048548E+03  0.90678048548E+03  0.25500000000E-02 0.  1.
    5000001    1    1    2    0    0 -0.74814074755E+02  0.47687989487E+02 -0.58463966219E+03  0.62049885151E+03  0.18800000000E+03 0.  0.
   -5000001    1    1    2    0    0  0.74814074755E+02 -0.47687989487E+02 -0.26869701514E+03  0.33972544218E+03  0.18800000000E+03 0.  0.
<mgrwt>
<rscale>  0 0.44028083E+03</rscale>
<asrwt>0</asrwt>
<pdfrwt beam="1">  1        2 0.12954006E+00 0.44028083E+03</pdfrwt>
<pdfrwt beam="2">  1       -2 0.76348303E-02 0.44028083E+03</pdfrwt>
<totfact> 0.33975767E+03</totfact>
</mgrwt>
</event>
<event>
 4    1  0.6165923E-005  0.5449580E+03  0.7818608E-02  0.1002668E+00
         -2   -1    0    0    0  501 -0.00000000000E+00  0.00000000000E+00  0.35171903699E+02  0.35171903791E+02  0.25500000000E-02 0. -1.
          2   -1    0    0  501    0  0.00000000000E+00 -0.00000000000E+00 -0.21109125795E+04  0.21109125795E+04  0.25500000000E-02 0.  1.
    5000001    1    1    2    0    0  0.25779332494E+02 -0.18695732162E+03 -0.12635188242E+04  0.12912944796E+04  0.18800000000E+03 0.  0.
   -5000001    1    1    2    0    0 -0.25779332494E+02  0.18695732162E+03 -0.81222185160E+03  0.85479000363E+03  0.18800000000E+03 0.  0.
<mgrwt>
<rscale>  0 0.54495803E+03</rscale>
<asrwt>0</asrwt>
<pdfrwt beam="1">  1        2 0.30155886E+00 0.54495803E+03</pdfrwt>
<pdfrwt beam="2">  1       -2 0.50245590E-02 0.54495803E+03</pdfrwt>
<totfact> 0.14882339E+03</totfact>
</mgrwt>
</event>
<event>
 4    1  0.6165923E-005  0.8324796E+03  0.7818608E-02  0.9514159E-01
          2   -1    0    0  501    0  0.00000000000E+00  0.00000000000E+00  0.42648387359E+03  0.42648387360E+03  0.25500000000E-02 0.  1.
         -2   -1    0    0    0  501 -0.00000000000E+00 -0.00000000000E+00 -0.40624179670E+03  0.40624179671E+03  0.25500000000E-02 0. -1.
    5000001    1    1    2    0    0 -0.23138600588E+03  0.22608214286E+03  0.19254532418E+03  0.42079724441E+03  0.18800000000E+03 0.  0.
   -5000001    1    1    2    0    0  0.23138600588E+03 -0.22608214286E+03 -0.17230324730E+03  0.41192842590E+03  0.18800000000E+03 0.  0.
<mgrwt>
<rscale>  0 0.83247961E+03</rscale>
<asrwt>0</asrwt>
<pdfrwt beam="1">  1        2 0.60926268E-01 0.83247961E+03</pdfrwt>
<pdfrwt beam="2">  1       -2 0.58034543E-01 0.83247961E+03</pdfrwt>
<totfact> 0.22489521E+02</totfact>
</mgrwt>
</event>
<event>
 4    1  0.6165923E-005  0.9830246E+03  0.7818608E-02  0.9327362E-01
         -2   -1    0    0    0  501 -0.00000000000E+00  0.00000000000E+00  0.98962015296E+03  0.98962015296E+03  0.25500000000E-02 0. -1.
          2   -1    0    0  501    0  0.00000000000E+00 -0.00000000000E+00 -0.24411825501E+03  0.24411825502E+03  0.25500000000E-02 0.  1.
    5000001    1    1    2    0    0 -0.43107476140E+03  0.14248370027E+03  0.38610935700E+03  0.62494118949E+03  0.18800000000E+03 0.  0.
   -5000001    1    1    2    0    0  0.43107476140E+03 -0.14248370027E+03  0.35939254095E+03  0.60879721850E+03  0.18800000000E+03 0.  0.
<mgrwt>
<rscale>  0 0.98302461E+03</rscale>
<asrwt>0</asrwt>
<pdfrwt beam="1">  1        2 0.34874036E-01 0.98302461E+03</pdfrwt>
<pdfrwt beam="2">  1       -2 0.14137431E+00 0.98302461E+03</pdfrwt>
<totfact> 0.52539351E+01</totfact>
</mgrwt>
</event>
<event>
 4    1  0.6165923E-005  0.4524540E+03  0.7818608E-02  0.1026993E+00
         -2   -1    0    0    0  501 -0.00000000000E+00  0.00000000000E+00  0.79342318234E+02  0.79342318275E+02  0.25500000000E-02 0. -1.
          2   -1    0    0  501    0  0.00000000000E+00 -0.00000000000E+00 -0.64503618757E+03  0.64503618757E+03  0.25500000000E-02 0.  1.
    5000001    1    1    2    0    0  0.14463315361E+02 -0.12220855644E+03 -0.32491842785E+03  0.39504443233E+03  0.18800000000E+03 0.  0.
   -5000001    1    1    2    0    0 -0.14463315361E+02  0.12220855644E+03 -0.24077544148E+03  0.32933407352E+03  0.18800000000E+03 0.  0.
<mgrwt>
<rscale>  0 0.45245405E+03</rscale>
<asrwt>0</asrwt>
<pdfrwt beam="1">  1        2 0.92148024E-01 0.45245405E+03</pdfrwt>
<pdfrwt beam="2">  1       -2 0.11334617E-01 0.45245405E+03</pdfrwt>
<totfact> 0.27614697E+03</totfact>
</mgrwt>
</event>
<event>
 4    1  0.6165923E-005  0.7896291E+03  0.7818608E-02  0.9575151E-01
         -2   -1    0    0    0  501 -0.00000000000E+00  0.00000000000E+00  0.16706227565E+03  0.16706227567E+03  0.25500000000E-02 0. -1.
          2   -1    0    0  501    0  0.00000000000E+00 -0.00000000000E+00 -0.93305643906E+03  0.93305643907E+03  0.25500000000E-02 0.  1.
    5000001    1    1    2    0    0  0.30060158480E+03 -0.14005462087E+03 -0.23984237326E+03  0.45038314091E+03  0.18800000000E+03 0.  0.
   -5000001    1    1    2    0    0 -0.30060158480E+03  0.14005462087E+03 -0.52615179015E+03  0.64973557382E+03  0.18800000000E+03 0.  0.
<mgrwt>
<rscale>  0 0.78962911E+03</rscale>
<asrwt>0</asrwt>
<pdfrwt beam="1">  1        2 0.13329377E+00 0.78962911E+03</pdfrwt>
<pdfrwt beam="2">  1       -2 0.23866040E-01 0.78962911E+03</pdfrwt>
<totfact> 0.48369232E+02</totfact>
</mgrwt>
</event>
<event>
 4    1  0.6165923E-005  0.5070801E+03  0.7818608E-02  0.1011947E+00
         -2   -1    0    0    0  501 -0.00000000000E+00  0.00000000000E+00  0.40731869209E+02  0.40731869289E+02  0.25500000000E-02 0. -1.
          2   -1    0    0  501    0  0.00000000000E+00 -0.00000000000E+00 -0.15781879892E+04  0.15781879892E+04  0.25500000000E-02 0.  1.
    5000001    1    1    2    0    0 -0.12084409348E+03  0.10476835369E+03 -0.95375873447E+03  0.98517989547E+03  0.18800000000E+03 0.  0.
   -5000001    1    1    2    0    0  0.12084409348E+03 -0.10476835369E+03 -0.58369738551E+03  0.63373996301E+03  0.18800000000E+03 0.  0.
<mgrwt>
<rscale>  0 0.50708006E+03</rscale>
<asrwt>0</asrwt>
<pdfrwt beam="1">  1        2 0.22545539E+00 0.50708006E+03</pdfrwt>
<pdfrwt beam="2">  1       -2 0.58188394E-02 0.50708006E+03</pdfrwt>
<totfact> 0.21999946E+03</totfact>
</mgrwt>
</event>
<event>
 4    1  0.6165923E-005  0.1238676E+04  0.7818608E-02  0.9079661E-01
          2   -1    0    0  501    0  0.00000000000E+00  0.00000000000E+00  0.21524087355E+04  0.21524087355E+04  0.25500000000E-02 0.  1.
         -2   -1    0    0    0  501 -0.00000000000E+00 -0.00000000000E+00 -0.17820948517E+03  0.17820948518E+03  0.25500000000E-02 0. -1.
    5000001    1    1    2    0    0  0.37344256586E+03 -0.36896607238E+03  0.47998948429E+03  0.73575078498E+03  0.18800000000E+03 0.  0.
   -5000001    1    1    2    0    0 -0.37344256586E+03  0.36896607238E+03  0.14942097660E+04  0.15948674357E+04  0.18800000000E+03 0.  0.
<mgrwt>
<rscale>  0 0.12386762E+04</rscale>
<asrwt>0</asrwt>
<pdfrwt beam="1">  1        2 0.30748694E+00 0.12386762E+04</pdfrwt>
<pdfrwt beam="2">  1       -2 0.25458500E-01 0.12386762E+04</pdfrwt>
<totfact> 0.91569313E+01</totfact>
</mgrwt>
</event>
<event>
 4    1  0.6165923E-005  0.6313800E+03  0.7818608E-02  0.9842359E-01
          2   -1    0    0  501    0  0.00000000000E+00  0.00000000000E+00  0.13504932049E+04  0.13504932049E+04  0.25500000000E-02 0.  1.
         -2   -1    0    0    0  501 -0.00000000000E+00 -0.00000000000E+00 -0.73795401822E+02  0.73795401866E+02  0.25500000000E-02 0. -1.
    5000001    1    1    2    0    0  0.22722308679E+03  0.53228501482E+02  0.86226340749E+03  0.91285584209E+03  0.18800000000E+03 0.  0.
   -5000001    1    1    2    0    0 -0.22722308679E+03 -0.53228501482E+02  0.41443439558E+03  0.51143276468E+03  0.18800000000E+03 0.  0.
<mgrwt>
<rscale>  0 0.63138004E+03</rscale>
<asrwt>0</asrwt>
<pdfrwt beam="1">  1        2 0.19292759E+00 0.63138004E+03</pdfrwt>
<pdfrwt beam="2">  1       -2 0.10542201E-01 0.63138004E+03</pdfrwt>
<totfact> 0.11205961E+03</totfact>
</mgrwt>
</event>
<event>
 4    1  0.6165923E-005  0.1143569E+04  0.7818608E-02  0.9163737E-01
          2   -1    0    0  501    0  0.00000000000E+00  0.00000000000E+00  0.16347429014E+04  0.16347429014E+04  0.25500000000E-02 0.  1.
         -2   -1    0    0    0  501 -0.00000000000E+00 -0.00000000000E+00 -0.19999326682E+03  0.19999326683E+03  0.25500000000E-02 0. -1.
    5000001    1    1    2    0    0  0.49638961108E+03  0.21145362909E+03  0.68228695832E+03  0.88992964707E+03  0.18800000000E+03 0.  0.
   -5000001    1    1    2    0    0 -0.49638961108E+03 -0.21145362909E+03  0.75246267624E+03  0.94480652114E+03  0.18800000000E+03 0.  0.
<mgrwt>
<rscale>  0 0.11435691E+04</rscale>
<asrwt>0</asrwt>
<pdfrwt beam="1">  1        2 0.23353469E+00 0.11435691E+04</pdfrwt>
<pdfrwt beam="2">  1       -2 0.28570468E-01 0.11435691E+04</pdfrwt>
<totfact> 0.13782033E+02</totfact>
</mgrwt>
</event>
<event>
 4    1  0.6165923E-005  0.1553910E+04  0.7818608E-02  0.8849374E-01
         -2   -1    0    0    0  501 -0.00000000000E+00  0.00000000000E+00  0.77259618842E+03  0.77259618842E+03  0.25500000000E-02 0. -1.
          2   -1    0    0  501    0  0.00000000000E+00 -0.00000000000E+00 -0.78133843268E+03  0.78133843268E+03  0.25500000000E-02 0.  1.
    5000001    1    1    2    0    0 -0.84558881166E+02  0.49765646094E+03  0.55555106915E+03  0.77381725746E+03  0.18800000000E+03 0.  0.
   -5000001    1    1    2    0    0  0.84558881166E+02 -0.49765646094E+03 -0.56429331341E+03  0.78011736365E+03  0.18800000000E+03 0.  0.
<mgrwt>
<rscale>  0 0.15539100E+04</rscale>
<asrwt>0</asrwt>
<pdfrwt beam="1">  1        2 0.11161978E+00 0.15539100E+04</pdfrwt>
<pdfrwt beam="2">  1       -2 0.11037089E+00 0.15539100E+04</pdfrwt>
<totfact> 0.24629240E+01</totfact>
</mgrwt>
</event>
<event>
 4    1  0.6165923E-005  0.4636387E+03  0.7818608E-02  0.1023731E+00
          2   -1    0    0  501    0  0.00000000000E+00  0.00000000000E+00  0.43076489195E+03  0.43076489195E+03  0.25500000000E-02 0.  1.
         -2   -1    0    0    0  501 -0.00000000000E+00 -0.00000000000E+00 -0.12475533418E+03  0.12475533420E+03  0.25500000000E-02 0. -1.
    5000001    1    1    2    0    0 -0.11236668621E+01  0.91650801157E+02  0.27279281295E+03  0.34374561928E+03  0.18800000000E+03 0.  0.
   -5000001    1    1    2    0    0  0.11236668621E+01 -0.91650801157E+02  0.33216744818E+02  0.21177460687E+03  0.18800000000E+03 0.  0.
<mgrwt>
<rscale>  0 0.46363873E+03</rscale>
<asrwt>0</asrwt>
<pdfrwt beam="1">  1        2 0.61537842E-01 0.46363873E+03</pdfrwt>
<pdfrwt beam="2">  1       -2 0.17822191E-01 0.46363873E+03</pdfrwt>
<totfact> 0.20604578E+03</totfact>
</mgrwt>
</event>
<event>
 4    1  0.6165923E-005  0.5877072E+03  0.7818608E-02  0.9931243E-01
         -2   -1    0    0    0  501 -0.00000000000E+00  0.00000000000E+00  0.18285786290E+03  0.18285786291E+03  0.25500000000E-02 0. -1.
          2   -1    0    0  501    0  0.00000000000E+00 -0.00000000000E+00 -0.47222441730E+03  0.47222441730E+03  0.25500000000E-02 0.  1.
    5000001    1    1    2    0    0  0.63297684076E+01  0.20332339627E+03 -0.35326430988E+02  0.27923543143E+03  0.18800000000E+03 0.  0.
   -5000001    1    1    2    0    0 -0.63297684076E+01 -0.20332339627E+03 -0.25404012341E+03  0.37584684879E+03  0.18800000000E+03 0.  0.
<mgrwt>
<rscale>  0 0.58770723E+03</rscale>
<asrwt>0</asrwt>
<pdfrwt beam="1">  1        2 0.67460630E-01 0.58770723E+03</pdfrwt>
<pdfrwt beam="2">  1       -2 0.26122552E-01 0.58770723E+03</pdfrwt>
<totfact> 0.95079904E+02</totfact>
</mgrwt>
</event>
<event>
 4    1  0.6165923E-005  0.6011200E+03  0.7818608E-02  0.9903085E-01
          2   -1    0    0  501    0  0.00000000000E+00  0.00000000000E+00  0.24310845101E+04  0.24310845101E+04  0.25500000000E-02 0.  1.
         -2   -1    0    0    0  501 -0.00000000000E+00 -0.00000000000E+00 -0.37158849612E+02  0.37158849699E+02  0.25500000000E-02 0. -1.
    5000001    1    1    2    0    0  0.20815068037E+03  0.97833162029E+02  0.10090557220E+04  0.10518723703E+04  0.18800000000E+03 0.  0.
   -5000001    1    1    2    0    0 -0.20815068037E+03 -0.97833162029E+02  0.13848699385E+04  0.14163709895E+04  0.18800000000E+03 0.  0.
<mgrwt>
<rscale>  0 0.60111997E+03</rscale>
<asrwt>0</asrwt>
<pdfrwt beam="1">  1        2 0.34729779E+00 0.60111997E+03</pdfrwt>
<pdfrwt beam="2">  1       -2 0.53084070E-02 0.60111997E+03</pdfrwt>
<totfact> 0.93849778E+02</totfact>
</mgrwt>
</event>
<event>
 4    1  0.6165923E-005  0.4299061E+03  0.7818608E-02  0.1033890E+00
         -2   -1    0    0    0  501 -0.00000000000E+00  0.00000000000E+00  0.17881648779E+02  0.17881648961E+02  0.25500000000E-02 0. -1.
          2   -1    0    0  501    0  0.00000000000E+00 -0.00000000000E+00 -0.25839241516E+04  0.25839241516E+04  0.25500000000E-02 0.  1.
    5000001    1    1    2    0    0 -0.10155477336E+03  0.11742457099E+02 -0.11605416539E+04  0.11801068543E+04  0.18800000000E+03 0.  0.
   -5000001    1    1    2    0    0  0.10155477336E+03 -0.11742457099E+02 -0.14055008490E+04  0.14216989463E+04  0.18800000000E+03 0.  0.
<mgrwt>
<rscale>  0 0.42990615E+03</rscale>
<asrwt>0</asrwt>
<pdfrwt beam="1">  1        2 0.36913178E+00 0.42990615E+03</pdfrwt>
<pdfrwt beam="2">  1       -2 0.25545229E-02 0.42990615E+03</pdfrwt>
<totfact> 0.24221238E+03</totfact>
</mgrwt>
</event>
<event>
 4    1  0.6165923E-005  0.5229240E+03  0.7818608E-02  0.1007963E+00
          2   -1    0    0  501    0  0.00000000000E+00  0.00000000000E+00  0.18685579937E+04  0.18685579937E+04  0.25500000000E-02 0.  1.
         -2   -1    0    0    0  501 -0.00000000000E+00 -0.00000000000E+00 -0.36585631274E+02  0.36585631363E+02  0.25500000000E-02 0. -1.
    5000001    1    1    2    0    0  0.11349365772E+03  0.13109676936E+03  0.71806670978E+03  0.76225387698E+03  0.18800000000E+03 0.  0.
   -5000001    1    1    2    0    0 -0.11349365772E+03 -0.13109676936E+03  0.11139056526E+04  0.11428897481E+04  0.18800000000E+03 0.  0.
<mgrwt>
<rscale>  0 0.52292399E+03</rscale>
<asrwt>0</asrwt>
<pdfrwt beam="1">  1        2 0.26693683E+00 0.52292399E+03</pdfrwt>
<pdfrwt beam="2">  1       -2 0.52265193E-02 0.52292399E+03</pdfrwt>
<totfact> 0.18529829E+03</totfact>
</mgrwt>
</event>
<event>
 4    1  0.6165923E-005  0.1854783E+04  0.7818608E-02  0.8677697E-01
         -2   -1    0    0    0  501 -0.00000000000E+00  0.00000000000E+00  0.98440543027E+03  0.98440543028E+03  0.25500000000E-02 0. -1.
          2   -1    0    0  501    0  0.00000000000E+00 -0.00000000000E+00 -0.87367919501E+03  0.87367919502E+03  0.25500000000E-02 0.  1.
    5000001    1    1    2    0    0 -0.29380121735E+03  0.71627717086E+03 -0.42018022145E+03  0.90070392433E+03  0.18800000000E+03 0.  0.
   -5000001    1    1    2    0    0  0.29380121735E+03 -0.71627717086E+03  0.53090645671E+03  0.95738070096E+03  0.18800000000E+03 0.  0.
<mgrwt>
<rscale>  0 0.18547825E+04</rscale>
<asrwt>0</asrwt>
<pdfrwt beam="1">  1        2 0.12481131E+00 0.18547825E+04</pdfrwt>
<pdfrwt beam="2">  1       -2 0.14062935E+00 0.18547825E+04</pdfrwt>
<totfact> 0.11329093E+01</totfact>
</mgrwt>
</event>
<event>
 4    1  0.6165923E-005  0.6426164E+03  0.7818608E-02  0.9820733E-01
          2   -1    0    0  501    0  0.00000000000E+00  0.00000000000E+00  0.10784987273E+04  0.10784987273E+04  0.25500000000E-02 0.  1.
         -2   -1    0    0    0  501 -0.00000000000E+00 -0.00000000000E+00 -0.95724700194E+02  0.95724700228E+02  0.25500000000E-02 0. -1.
    5000001    1    1    2    0    0 -0.25050850869E+03 -0.71372604155E+02  0.47893942976E+03  0.57669362657E+03  0.18800000000E+03 0.  0.
   -5000001    1    1    2    0    0  0.25050850869E+03  0.71372604155E+02  0.50383459733E+03  0.59752980095E+03  0.18800000000E+03 0.  0.
<mgrwt>
<rscale>  0 0.64261642E+03</rscale>
<asrwt>0</asrwt>
<pdfrwt beam="1">  1        2 0.15407125E+00 0.64261642E+03</pdfrwt>
<pdfrwt beam="2">  1       -2 0.13674957E-01 0.64261642E+03</pdfrwt>
<totfact> 0.10361225E+03</totfact>
</mgrwt>
</event>
<event>
 4    1  0.6165923E-005  0.6993815E+03  0.7818608E-02  0.9718290E-01
          2   -1    0    0  501    0  0.00000000000E+00  0.00000000000E+00  0.54177519039E+02  0.54177519099E+02  0.25500000000E-02 0.  1.
         -2   -1    0    0    0  501 -0.00000000000E+00 -0.00000000000E+00 -0.22570916432E+04  0.22570916432E+04  0.25500000000E-02 0. -1.
    5000001    1    1    2    0    0  0.17230983270E+02 -0.26772914514E+03 -0.15057141711E+04  0.15409396376E+04  0.18800000000E+03 0.  0.
   -5000001    1    1    2    0    0 -0.17230983270E+02  0.26772914514E+03 -0.69719995308E+03  0.77032952463E+03  0.18800000000E+03 0.  0.
<mgrwt>
<rscale>  0 0.69938151E+03</rscale>
<asrwt>0</asrwt>
<pdfrwt beam="1">  1        2 0.77396470E-02 0.69938151E+03</pdfrwt>
<pdfrwt beam="2">  1       -2 0.32244160E+00 0.69938151E+03</pdfrwt>
<totfact> 0.22533592E+01</totfact>
</mgrwt>
</event>
<event>
 4    1  0.6165923E-005  0.4412237E+03  0.7818608E-02  0.1030372E+00
          2   -1    0    0  501    0  0.00000000000E+00  0.00000000000E+00  0.55886150249E+02  0.55886150307E+02  0.25500000000E-02 0.  1.
         -2   -1    0    0    0  501 -0.00000000000E+00 -0.00000000000E+00 -0.87087045720E+03  0.87087045721E+03  0.25500000000E-02 0. -1.
    5000001    1    1    2    0    0  0.58538233161E+02  0.95409807004E+02 -0.34823783089E+03  0.41127040117E+03  0.18800000000E+03 0.  0.
   -5000001    1    1    2    0    0 -0.58538233161E+02 -0.95409807004E+02 -0.46674647606E+03  0.51548620635E+03  0.18800000000E+03 0.  0.
<mgrwt>
<rscale>  0 0.44122374E+03</rscale>
<asrwt>0</asrwt>
<pdfrwt beam="1">  1        2 0.79837363E-02 0.44122374E+03</pdfrwt>
<pdfrwt beam="2">  1       -2 0.12441006E+00 0.44122374E+03</pdfrwt>
<totfact> 0.43568946E+02</totfact>
</mgrwt>
</event>
<event>
 4    1  0.6165923E-005  0.9350301E+03  0.7818608E-02  0.9382821E-01
         -2   -1    0    0    0  501 -0.00000000000E+00  0.00000000000E+00  0.19321685904E+03  0.19321685905E+03  0.25500000000E-02 0. -1.
          2   -1    0    0  501    0  0.00000000000E+00 -0.00000000000E+00 -0.11312176542E+04  0.11312176542E+04  0.25500000000E-02 0.  1.
    5000001    1    1    2    0    0  0.28661746451E+03 -0.30885619007E+03 -0.36220438402E+03  0.58658139496E+03  0.18800000000E+03 0.  0.
   -5000001    1    1    2    0    0 -0.28661746451E+03  0.30885619007E+03 -0.57579641115E+03  0.73785311831E+03  0.18800000000E+03 0.  0.
<mgrwt>
<rscale>  0 0.93503010E+03</rscale>
<asrwt>0</asrwt>
<pdfrwt beam="1">  1        2 0.16160252E+00 0.93503010E+03</pdfrwt>
<pdfrwt beam="2">  1       -2 0.27602409E-01 0.93503010E+03</pdfrwt>
<totfact> 0.27974103E+02</totfact>
</mgrwt>
</event>
<event>
 4    1  0.6165923E-005  0.5901509E+03  0.7818608E-02  0.9926053E-01
          2   -1    0    0  501    0  0.00000000000E+00  0.00000000000E+00  0.82730823639E+03  0.82730823640E+03  0.25500000000E-02 0.  1.
         -2   -1    0    0    0  501 -0.00000000000E+00 -0.00000000000E+00 -0.10524434885E+03  0.10524434888E+03  0.25500000000E-02 0. -1.
    5000001    1    1    2    0    0 -0.66841621573E+02  0.21733287127E+03  0.36879539898E+03  0.47228743961E+03  0.18800000000E+03 0.  0.
   -5000001    1    1    2    0    0  0.66841621573E+02 -0.21733287127E+03  0.35326848856E+03  0.46026514567E+03  0.18800000000E+03 0.  0.
<mgrwt>
<rscale>  0 0.59015088E+03</rscale>
<asrwt>0</asrwt>
<pdfrwt beam="1">  1        2 0.11818689E+00 0.59015088E+03</pdfrwt>
<pdfrwt beam="2">  1       -2 0.15034907E-01 0.59015088E+03</pdfrwt>
<totfact> 0.12727324E+03</totfact>
</mgrwt>
</event>
<event>
 4    1  0.6165923E-005  0.3940659E+03  0.7818608E-02  0.1045854E+00
          2   -1    0    0  501    0  0.00000000000E+00  0.00000000000E+00  0.17895692476E+04  0.17895692476E+04  0.25500000000E-02 0.  1.
         -2   -1    0    0    0  501 -0.00000000000E+00 -0.00000000000E+00 -0.21693475195E+02  0.21693475345E+02  0.25500000000E-02 0. -1.
    5000001    1    1    2    0    0  0.53129277590E+01 -0.31536472624E+02  0.65618910379E+03  0.68333806877E+03  0.18800000000E+03 0.  0.
   -5000001    1    1    2    0    0 -0.53129277590E+01  0.31536472624E+02  0.11116866686E+04  0.11279246541E+04  0.18800000000E+03 0.  0.
<mgrwt>
<rscale>  0 0.39406586E+03</rscale>
<asrwt>0</asrwt>
<pdfrwt beam="1">  1        2 0.25565276E+00 0.39406586E+03</pdfrwt>
<pdfrwt beam="2">  1       -2 0.30990678E-02 0.39406586E+03</pdfrwt>
<totfact> 0.45207338E+03</totfact>
</mgrwt>
</event>
<event>
 4    1  0.6165923E-005  0.4263558E+03  0.7818608E-02  0.1035017E+00
          2   -1    0    0  501    0  0.00000000000E+00  0.00000000000E+00  0.33432823843E+03  0.33432823844E+03  0.25500000000E-02 0.  1.
         -2   -1    0    0    0  501 -0.00000000000E+00 -0.00000000000E+00 -0.13592872919E+03  0.13592872922E+03  0.25500000000E-02 0. -1.
    5000001    1    1    2    0    0  0.63515489468E+02 -0.76355672248E+02  0.11615846392E+03  0.24228329457E+03  0.18800000000E+03 0.  0.
   -5000001    1    1    2    0    0 -0.63515489468E+02  0.76355672248E+02  0.82241045314E+02  0.22797367309E+03  0.18800000000E+03 0.  0.
<mgrwt>
<rscale>  0 0.42635578E+03</rscale>
<asrwt>0</asrwt>
<pdfrwt beam="1">  1        2 0.47761176E-01 0.42635578E+03</pdfrwt>
<pdfrwt beam="2">  1       -2 0.19418390E-01 0.42635578E+03</pdfrwt>
<totfact> 0.23479215E+03</totfact>
</mgrwt>
</event>
<event>
 4    1  0.6165923E-005  0.5016664E+03  0.7818608E-02  0.1013345E+00
         -2   -1    0    0    0  501 -0.00000000000E+00  0.00000000000E+00  0.32170998106E+02  0.32170998207E+02  0.25500000000E-02 0. -1.
          2   -1    0    0  501    0  0.00000000000E+00 -0.00000000000E+00 -0.19557144324E+04  0.19557144324E+04  0.25500000000E-02 0.  1.
    5000001    1    1    2    0    0 -0.67963684464E+02  0.14623075445E+03 -0.11188207820E+04  0.11459085645E+04  0.18800000000E+03 0.  0.
   -5000001    1    1    2    0    0  0.67963684464E+02 -0.14623075445E+03 -0.80472265227E+03  0.84197686609E+03  0.18800000000E+03 0.  0.
<mgrwt>
<rscale>  0 0.50166636E+03</rscale>
<asrwt>0</asrwt>
<pdfrwt beam="1">  1        2 0.27938770E+00 0.50166636E+03</pdfrwt>
<pdfrwt beam="2">  1       -2 0.45958581E-02 0.50166636E+03</pdfrwt>
<totfact> 0.20460021E+03</totfact>
</mgrwt>
</event>
<event>
 4    1  0.6165923E-005  0.3995736E+03  0.7818608E-02  0.1043927E+00
          2   -1    0    0  501    0  0.00000000000E+00  0.00000000000E+00  0.73701763274E+03  0.73701763275E+03  0.25500000000E-02 0.  1.
         -2   -1    0    0    0  501 -0.00000000000E+00 -0.00000000000E+00 -0.54157126910E+02  0.54157126970E+02  0.25500000000E-02 0. -1.
    5000001    1    1    2    0    0 -0.56239671637E+02  0.19903740496E+02  0.40441002934E+03  0.44994503151E+03  0.18800000000E+03 0.  0.
   -5000001    1    1    2    0    0  0.56239671637E+02 -0.19903740496E+02  0.27845047649E+03  0.34122972820E+03  0.18800000000E+03 0.  0.
<mgrwt>
<rscale>  0 0.39957356E+03</rscale>
<asrwt>0</asrwt>
<pdfrwt beam="1">  1        2 0.10528824E+00 0.39957356E+03</pdfrwt>
<pdfrwt beam="2">  1       -2 0.77367321E-02 0.39957356E+03</pdfrwt>
<totfact> 0.43260232E+03</totfact>
</mgrwt>
</event>
<event>
 4    1  0.6165923E-005  0.5141963E+03  0.7818608E-02  0.1010138E+00
          2   -1    0    0  501    0  0.00000000000E+00  0.00000000000E+00  0.82973003475E+03  0.82973003476E+03  0.25500000000E-02 0.  1.
         -2   -1    0    0    0  501 -0.00000000000E+00 -0.00000000000E+00 -0.79663826178E+02  0.79663826219E+02  0.25500000000E-02 0. -1.
    5000001    1    1    2    0    0 -0.29103950865E+02  0.16483404224E+03  0.46757812762E+03  0.53102787768E+03  0.18800000000E+03 0.  0.
   -5000001    1    1    2    0    0  0.29103950865E+02 -0.16483404224E+03  0.28248808095E+03  0.37836598330E+03  0.18800000000E+03 0.  0.
<mgrwt>
<rscale>  0 0.51419634E+03</rscale>
<asrwt>0</asrwt>
<pdfrwt beam="1">  1        2 0.11853287E+00 0.51419634E+03</pdfrwt>
<pdfrwt beam="2">  1       -2 0.11380546E-01 0.51419634E+03</pdfrwt>
<totfact> 0.20127668E+03</totfact>
</mgrwt>
</event>
<event>
 4    1  0.6165923E-005  0.8658013E+03  0.7818608E-02  0.9469371E-01
         -2   -1    0    0    0  501 -0.00000000000E+00  0.00000000000E+00  0.14440059034E+04  0.14440059034E+04  0.25500000000E-02 0. -1.
          2   -1    0    0  501    0  0.00000000000E+00 -0.00000000000E+00 -0.12977993417E+03  0.12977993420E+03  0.25500000000E-02 0.  1.
    5000001    1    1    2    0    0 -0.36067271538E+03  0.14815167922E+03  0.66624935138E+03  0.79452245147E+03  0.18800000000E+03 0.  0.
   -5000001    1    1    2    0    0  0.36067271538E+03 -0.14815167922E+03  0.64797661782E+03  0.77926338610E+03  0.18800000000E+03 0.  0.
<mgrwt>
<rscale>  0 0.86580134E+03</rscale>
<asrwt>0</asrwt>
<pdfrwt beam="1">  1        2 0.18539990E-01 0.86580134E+03</pdfrwt>
<pdfrwt beam="2">  1       -2 0.20628656E+00 0.86580134E+03</pdfrwt>
<totfact> 0.38026526E+01</totfact>
</mgrwt>
</event>
<event>
 4    1  0.6165923E-005  0.6902520E+03  0.7818608E-02  0.9734049E-01
          2   -1    0    0  501    0  0.00000000000E+00  0.00000000000E+00  0.10118010446E+04  0.10118010446E+04  0.25500000000E-02 0.  1.
         -2   -1    0    0    0  501 -0.00000000000E+00 -0.00000000000E+00 -0.11772270268E+03  0.11772270271E+03  0.25500000000E-02 0. -1.
    5000001    1    1    2    0    0  0.21949904593E+03 -0.18859072267E+03  0.45465529867E+03  0.57079044530E+03  0.18800000000E+03 0.  0.
   -5000001    1    1    2    0    0 -0.21949904593E+03  0.18859072267E+03  0.43942304322E+03  0.55873330199E+03  0.18800000000E+03 0.  0.
<mgrwt>
<rscale>  0 0.69025199E+03</rscale>
<asrwt>0</asrwt>
<pdfrwt beam="1">  1        2 0.14454301E+00 0.69025199E+03</pdfrwt>
<pdfrwt beam="2">  1       -2 0.16817528E-01 0.69025199E+03</pdfrwt>
<totfact> 0.79975296E+02</totfact>
</mgrwt>
</event>
<event>
 4    1  0.6165923E-005  0.6881037E+03  0.7818608E-02  0.9737795E-01
          2   -1    0    0  501    0  0.00000000000E+00  0.00000000000E+00  0.71414724512E+03  0.71414724512E+03  0.25500000000E-02 0.  1.
         -2   -1    0    0    0  501 -0.00000000000E+00 -0.00000000000E+00 -0.16575248943E+03  0.16575248945E+03  0.25500000000E-02 0. -1.
    5000001    1    1    2    0    0 -0.86116984457E+02  0.20295766344E+03  0.51143471633E+03  0.58780729600E+03  0.18800000000E+03 0.  0.
   -5000001    1    1    2    0    0  0.86116984457E+02 -0.20295766344E+03  0.36960039353E+02  0.29209243857E+03  0.18800000000E+03 0.  0.
<mgrwt>
<rscale>  0 0.68810372E+03</rscale>
<asrwt>0</asrwt>
<pdfrwt beam="1">  1        2 0.10202104E+00 0.68810372E+03</pdfrwt>
<pdfrwt beam="2">  1       -2 0.23678927E-01 0.68810372E+03</pdfrwt>
<totfact> 0.69644297E+02</totfact>
</mgrwt>
</event>
<event>
 4    1  0.6165923E-005  0.8003093E+03  0.7818608E-02  0.9559570E-01
          2   -1    0    0  501    0  0.00000000000E+00  0.00000000000E+00  0.12994973663E+04  0.12994973663E+04  0.25500000000E-02 0.  1.
         -2   -1    0    0    0  501 -0.00000000000E+00 -0.00000000000E+00 -0.12321975382E+03  0.12321975384E+03  0.25500000000E-02 0. -1.
    5000001    1    1    2    0    0 -0.15481773932E+03  0.28988097201E+03  0.35785695392E+03  0.52096555530E+03  0.18800000000E+03 0.  0.
   -5000001    1    1    2    0    0  0.15481773932E+03 -0.28988097201E+03  0.81842065860E+03  0.90175156488E+03  0.18800000000E+03 0.  0.
<mgrwt>
<rscale>  0 0.80030930E+03</rscale>
<asrwt>0</asrwt>
<pdfrwt beam="1">  1        2 0.18564248E+00 0.80030930E+03</pdfrwt>
<pdfrwt beam="2">  1       -2 0.17602822E-01 0.80030930E+03</pdfrwt>
<totfact> 0.50296703E+02</totfact>
</mgrwt>
</event>
<event>
 4    1  0.6165923E-005  0.8844051E+03  0.7818608E-02  0.9445288E-01
         -2   -1    0    0    0  501 -0.00000000000E+00  0.00000000000E+00  0.10510936361E+03  0.10510936364E+03  0.25500000000E-02 0. -1.
          2   -1    0    0  501    0  0.00000000000E+00 -0.00000000000E+00 -0.18603776729E+04  0.18603776729E+04  0.25500000000E-02 0.  1.
    5000001    1    1    2    0    0 -0.65110485268E+02  0.36751795372E+03 -0.11988457227E+04  0.12695998931E+04  0.18800000000E+03 0.  0.
   -5000001    1    1    2    0    0  0.65110485268E+02 -0.36751795372E+03 -0.55642258652E+03  0.69588714343E+03  0.18800000000E+03 0.  0.
<mgrwt>
<rscale>  0 0.88440514E+03</rscale>
<asrwt>0</asrwt>
<pdfrwt beam="1">  1        2 0.26576822E+00 0.88440514E+03</pdfrwt>
<pdfrwt beam="2">  1       -2 0.15015625E-01 0.88440514E+03</pdfrwt>
<totfact> 0.33390614E+02</totfact>
</mgrwt>
</event>
<event>
 4    1  0.6165923E-005  0.5849752E+03  0.7818608E-02  0.9937077E-01
         -2   -1    0    0    0  501 -0.00000000000E+00  0.00000000000E+00  0.23552378608E+03  0.23552378610E+03  0.25500000000E-02 0. -1.
          2   -1    0    0  501    0  0.00000000000E+00 -0.00000000000E+00 -0.36322872975E+03  0.36322872976E+03  0.25500000000E-02 0.  1.
    5000001    1    1    2    0    0 -0.34647012061E+02  0.18573321357E+03 -0.18713743435E+03  0.32567109390E+03  0.18800000000E+03 0.  0.
   -5000001    1    1    2    0    0  0.34647012061E+02 -0.18573321357E+03  0.59432490683E+02  0.27308142195E+03  0.18800000000E+03 0.  0.
<mgrwt>
<rscale>  0 0.58497523E+03</rscale>
<asrwt>0</asrwt>
<pdfrwt beam="1">  1        2 0.51889818E-01 0.58497523E+03</pdfrwt>
<pdfrwt beam="2">  1       -2 0.33646255E-01 0.58497523E+03</pdfrwt>
<totfact> 0.79898874E+02</totfact>
</mgrwt>
</event>
<event>
 4    1  0.6165923E-005  0.1547333E+04  0.7818608E-02  0.8853573E-01
         -2   -1    0    0    0  501 -0.00000000000E+00  0.00000000000E+00  0.29473276079E+03  0.29473276080E+03  0.25500000000E-02 0. -1.
          2   -1    0    0  501    0  0.00000000000E+00 -0.00000000000E+00 -0.20308567338E+04  0.20308567338E+04  0.25500000000E-02 0.  1.
    5000001    1    1    2    0    0 -0.26026098746E+02  0.74845585997E+03 -0.94095940731E+03  0.12172149105E+04  0.18800000000E+03 0.  0.
   -5000001    1    1    2    0    0  0.26026098746E+02 -0.74845585997E+03 -0.79516456572E+03  0.11083745841E+04  0.18800000000E+03 0.  0.
<mgrwt>
<rscale>  0 0.15473332E+04</rscale>
<asrwt>0</asrwt>
<pdfrwt beam="1">  1        2 0.29012238E+00 0.15473332E+04</pdfrwt>
<pdfrwt beam="2">  1       -2 0.42104681E-01 0.15473332E+04</pdfrwt>
<totfact> 0.39874579E+01</totfact>
</mgrwt>
</event>
<event>
 4    1  0.6165923E-005  0.5059538E+03  0.7818608E-02  0.1012236E+00
          2   -1    0    0  501    0  0.00000000000E+00  0.00000000000E+00  0.10620455401E+04  0.10620455401E+04  0.25500000000E-02 0.  1.
         -2   -1    0    0    0  501 -0.00000000000E+00 -0.00000000000E+00 -0.60258543864E+02  0.60258543918E+02  0.25500000000E-02 0. -1.
    5000001    1    1    2    0    0 -0.62234553653E+02 -0.10863857291E+03  0.75359094021E+03  0.78671391519E+03  0.18800000000E+03 0.  0.
   -5000001    1    1    2    0    0  0.62234553653E+02  0.10863857291E+03  0.24819605605E+03  0.33559016886E+03  0.18800000000E+03 0.  0.
<mgrwt>
<rscale>  0 0.50595382E+03</rscale>
<asrwt>0</asrwt>
<pdfrwt beam="1">  1        2 0.15172079E+00 0.50595382E+03</pdfrwt>
<pdfrwt beam="2">  1       -2 0.86083635E-02 0.50595382E+03</pdfrwt>
<totfact> 0.22593863E+03</totfact>
</mgrwt>
</event>
<event>
 4    1  0.6165923E-005  0.5321501E+03  0.7818608E-02  0.1005712E+00
         -2   -1    0    0    0  501 -0.00000000000E+00  0.00000000000E+00  0.21500135591E+02  0.21500135743E+02  0.25500000000E-02 0. -1.
          2   -1    0    0  501    0  0.00000000000E+00 -0.00000000000E+00 -0.32928132261E+04  0.32928132261E+04  0.25500000000E-02 0.  1.
    5000001    1    1    2    0    0 -0.11592837374E+03  0.10078401678E+03 -0.95752726650E+03  0.98782552709E+03  0.18800000000E+03 0.  0.
   -5000001    1    1    2    0    0  0.11592837374E+03 -0.10078401678E+03 -0.23137858240E+04  0.23264878347E+04  0.18800000000E+03 0.  0.
<mgrwt>
<rscale>  0 0.53215010E+03</rscale>
<asrwt>0</asrwt>
<pdfrwt beam="1">  1        2 0.47040157E+00 0.53215010E+03</pdfrwt>
<pdfrwt beam="2">  1       -2 0.30714501E-02 0.53215010E+03</pdfrwt>
<totfact> 0.75677274E+02</totfact>
</mgrwt>
</event>
<event>
 4    1  0.6165923E-005  0.5878553E+03  0.7818608E-02  0.9930928E-01
         -2   -1    0    0    0  501 -0.00000000000E+00  0.00000000000E+00  0.87425945688E+02  0.87425945725E+02  0.25500000000E-02 0. -1.
          2   -1    0    0  501    0  0.00000000000E+00 -0.00000000000E+00 -0.98819012841E+03  0.98819012841E+03  0.25500000000E-02 0.  1.
    5000001    1    1    2    0    0  0.15570351375E+03 -0.12005514926E+03 -0.24669258046E+03  0.36723024428E+03  0.18800000000E+03 0.  0.
   -5000001    1    1    2    0    0 -0.15570351375E+03  0.12005514926E+03 -0.65407160226E+03  0.70838582986E+03  0.18800000000E+03 0.  0.
<mgrwt>
<rscale>  0 0.58785528E+03</rscale>
<asrwt>0</asrwt>
<pdfrwt beam="1">  1        2 0.14117001E+00 0.58785528E+03</pdfrwt>
<pdfrwt beam="2">  1       -2 0.12489421E-01 0.58785528E+03</pdfrwt>
<totfact> 0.13664174E+03</totfact>
</mgrwt>
</event>
<event>
 4    1  0.6165923E-005  0.5173195E+03  0.7818608E-02  0.1009355E+00
          2   -1    0    0  501    0  0.00000000000E+00  0.00000000000E+00  0.20855119592E+04  0.20855119592E+04  0.25500000000E-02 0.  1.
         -2   -1    0    0    0  501 -0.00000000000E+00 -0.00000000000E+00 -0.32080786873E+02  0.32080786975E+02  0.25500000000E-02 0. -1.
    5000001    1    1    2    0    0 -0.46795522048E+01  0.74821729193E+02  0.36742900538E+03  0.41948571294E+03  0.18800000000E+03 0.  0.
   -5000001    1    1    2    0    0  0.46795522048E+01 -0.74821729193E+02  0.16860021670E+04  0.16981070333E+04  0.18800000000E+03 0.  0.
<mgrwt>
<rscale>  0 0.51731949E+03</rscale>
<asrwt>0</asrwt>
<pdfrwt beam="1">  1        2 0.29793036E+00 0.51731949E+03</pdfrwt>
<pdfrwt beam="2">  1       -2 0.45829683E-02 0.51731949E+03</pdfrwt>
<totfact> 0.17687973E+03</totfact>
</mgrwt>
</event>
<event>
 4    1  0.6165923E-005  0.6054309E+03  0.7818608E-02  0.9894202E-01
          2   -1    0    0  501    0  0.00000000000E+00  0.00000000000E+00  0.31565467142E+04  0.31565467142E+04  0.25500000000E-02 0.  1.
         -2   -1    0    0    0  501 -0.00000000000E+00 -0.00000000000E+00 -0.29030665769E+02  0.29030665881E+02  0.25500000000E-02 0. -1.
    5000001    1    1    2    0    0  0.12669840500E+03  0.18600571349E+02  0.51281697149E+03  0.56100241829E+03  0.18800000000E+03 0.  0.
   -5000001    1    1    2    0    0 -0.12669840500E+03 -0.18600571349E+02  0.26146990769E+04  0.26245749618E+04  0.18800000000E+03 0.  0.
<mgrwt>
<rscale>  0 0.60543093E+03</rscale>
<asrwt>0</asrwt>
<pdfrwt beam="1">  1        2 0.45093520E+00 0.60543093E+03</pdfrwt>
<pdfrwt beam="2">  1       -2 0.41472384E-02 0.60543093E+03</pdfrwt>
<totfact> 0.56633343E+02</totfact>
</mgrwt>
</event>
<event>
 4    1  0.6165923E-005  0.5106761E+03  0.7818608E-02  0.1011029E+00
          2   -1    0    0  501    0  0.00000000000E+00  0.00000000000E+00  0.78446202701E+03  0.78446202701E+03  0.25500000000E-02 0.  1.
         -2   -1    0    0    0  501 -0.00000000000E+00 -0.00000000000E+00 -0.83111109797E+02  0.83111109836E+02  0.25500000000E-02 0. -1.
    5000001    1    1    2    0    0  0.15217297908E+03 -0.63009406608E+02  0.26196394768E+03  0.36207169286E+03  0.18800000000E+03 0.  0.
   -5000001    1    1    2    0    0 -0.15217297908E+03  0.63009406608E+02  0.43938696953E+03  0.50550144399E+03  0.18800000000E+03 0.  0.
<mgrwt>
<rscale>  0 0.51067606E+03</rscale>
<asrwt>0</asrwt>
<pdfrwt beam="1">  1        2 0.11206601E+00 0.51067606E+03</pdfrwt>
<pdfrwt beam="2">  1       -2 0.11873015E-01 0.51067606E+03</pdfrwt>
<totfact> 0.20171902E+03</totfact>
</mgrwt>
</event>
<event>
 4    1  0.6165923E-005  0.5487427E+03  0.7818608E-02  0.1001785E+00
         -2   -1    0    0    0  501 -0.00000000000E+00  0.00000000000E+00  0.66063742573E+03  0.66063742573E+03  0.25500000000E-02 0. -1.
          2   -1    0    0  501    0  0.00000000000E+00 -0.00000000000E+00 -0.11395001586E+03  0.11395001588E+03  0.25500000000E-02 0.  1.
    5000001    1    1    2    0    0  0.14867090720E+03 -0.84374784476E+02  0.41944948815E+03  0.49041208796E+03  0.18800000000E+03 0.  0.
   -5000001    1    1    2    0    0 -0.14867090720E+03  0.84374784476E+02  0.12723792172E+03  0.28417535366E+03  0.18800000000E+03 0.  0.
<mgrwt>
<rscale>  0 0.54874273E+03</rscale>
<asrwt>0</asrwt>
<pdfrwt beam="1">  1        2 0.16278574E-01 0.54874273E+03</pdfrwt>
<pdfrwt beam="2">  1       -2 0.94376774E-01 0.54874273E+03</pdfrwt>
<totfact> 0.34749256E+02</totfact>
</mgrwt>
</event>
<event>
 4    1  0.6165923E-005  0.4957097E+03  0.7818608E-02  0.1014905E+00
          2   -1    0    0  501    0  0.00000000000E+00  0.00000000000E+00  0.14372397815E+04  0.14372397815E+04  0.25500000000E-02 0.  1.
         -2   -1    0    0    0  501 -0.00000000000E+00 -0.00000000000E+00 -0.42743061219E+02  0.42743061295E+02  0.25500000000E-02 0. -1.
    5000001    1    1    2    0    0 -0.12204319000E+03 -0.92180117491E+02  0.85227790460E+03  0.88606621702E+03  0.18800000000E+03 0.  0.
   -5000001    1    1    2    0    0  0.12204319000E+03  0.92180117491E+02  0.54221881566E+03  0.59391662575E+03  0.18800000000E+03 0.  0.
<mgrwt>
<rscale>  0 0.49570971E+03</rscale>
<asrwt>0</asrwt>
<pdfrwt beam="1">  1        2 0.20531996E+00 0.49570971E+03</pdfrwt>
<pdfrwt beam="2">  1       -2 0.61061520E-02 0.49570971E+03</pdfrwt>
<totfact> 0.24144420E+03</totfact>
</mgrwt>
</event>
<event>
 4    1  0.6165923E-005  0.6134157E+03  0.7818608E-02  0.9877957E-01
         -2   -1    0    0    0  501 -0.00000000000E+00  0.00000000000E+00  0.12989828005E+03  0.12989828007E+03  0.25500000000E-02 0. -1.
          2   -1    0    0  501    0  0.00000000000E+00 -0.00000000000E+00 -0.72417980427E+03  0.72417980427E+03  0.25500000000E-02 0.  1.
    5000001    1    1    2    0    0 -0.23759648061E+03 -0.10030247450E+02 -0.23223633869E+03  0.38187748097E+03  0.18800000000E+03 0.  0.
   -5000001    1    1    2    0    0  0.23759648061E+03  0.10030247450E+02 -0.36204518553E+03  0.47220060338E+03  0.18800000000E+03 0.  0.
<mgrwt>
<rscale>  0 0.61341572E+03</rscale>
<asrwt>0</asrwt>
<pdfrwt beam="1">  1        2 0.10345426E+00 0.61341572E+03</pdfrwt>
<pdfrwt beam="2">  1       -2 0.18556898E-01 0.61341572E+03</pdfrwt>
<totfact> 0.10517538E+03</totfact>
</mgrwt>
</event>
<event>
 4    1  0.6165923E-005  0.9953939E+03  0.7818608E-02  0.9313611E-01
         -2   -1    0    0    0  501 -0.00000000000E+00  0.00000000000E+00  0.13557988088E+03  0.13557988091E+03  0.25500000000E-02 0. -1.
          2   -1    0    0  501    0  0.00000000000E+00 -0.00000000000E+00 -0.18269838560E+04  0.18269838560E+04  0.25500000000E-02 0.  1.
    5000001    1    1    2    0    0 -0.28878916171E+03  0.35893269696E+03 -0.82353585968E+03  0.96217834784E+03  0.18800000000E+03 0.  0.
   -5000001    1    1    2    0    0  0.28878916171E+03 -0.35893269696E+03 -0.86786811539E+03  0.10003853890E+04  0.18800000000E+03 0.  0.
<mgrwt>
<rscale>  0 0.99539390E+03</rscale>
<asrwt>0</asrwt>
<pdfrwt beam="1">  1        2 0.26099768E+00 0.99539390E+03</pdfrwt>
<pdfrwt beam="2">  1       -2 0.19368555E-01 0.99539390E+03</pdfrwt>
<totfact> 0.22252365E+02</totfact>
</mgrwt>
</event>
<event>
 4    1  0.6165923E-005  0.4376612E+03  0.7818608E-02  0.1031467E+00
         -2   -1    0    0    0  501 -0.00000000000E+00  0.00000000000E+00  0.20807987318E+02  0.20807987474E+02  0.25500000000E-02 0. -1.
          2   -1    0    0  501    0  0.00000000000E+00 -0.00000000000E+00 -0.23013682798E+04  0.23013682798E+04  0.25500000000E-02 0.  1.
    5000001    1    1    2    0    0  0.97374572651E+02 -0.18048609686E+02 -0.86278322013E+03  0.88856426029E+03  0.18800000000E+03 0.  0.
   -5000001    1    1    2    0    0 -0.97374572651E+02  0.18048609686E+02 -0.14177770723E+04  0.14336120069E+04  0.18800000000E+03 0.  0.
<mgrwt>
<rscale>  0 0.43766125E+03</rscale>
<asrwt>0</asrwt>
<pdfrwt beam="1">  1        2 0.32876674E+00 0.43766125E+03</pdfrwt>
<pdfrwt beam="2">  1       -2 0.29725711E-02 0.43766125E+03</pdfrwt>
<totfact> 0.26780993E+03</totfact>
</mgrwt>
</event>
<event>
 4    1  0.6165923E-005  0.8265911E+03  0.7818608E-02  0.9522306E-01
         -2   -1    0    0    0  501 -0.00000000000E+00  0.00000000000E+00  0.11003380038E+03  0.11003380040E+03  0.25500000000E-02 0. -1.
          2   -1    0    0  501    0  0.00000000000E+00 -0.00000000000E+00 -0.15523704572E+04  0.15523704573E+04  0.25500000000E-02 0.  1.
    5000001    1    1    2    0    0  0.28012942800E+03 -0.21416738335E+03 -0.93333398193E+03  0.10152814813E+04  0.18800000000E+03 0.  0.
   -5000001    1    1    2    0    0 -0.28012942800E+03  0.21416738335E+03 -0.50900267494E+03  0.64712277632E+03  0.18800000000E+03 0.  0.
<mgrwt>
<rscale>  0 0.82659112E+03</rscale>
<asrwt>0</asrwt>
<pdfrwt beam="1">  1        2 0.22176720E+00 0.82659112E+03</pdfrwt>
<pdfrwt beam="2">  1       -2 0.15719115E-01 0.82659112E+03</pdfrwt>
<totfact> 0.44664556E+02</totfact>
</mgrwt>
</event>
<event>
 4    1  0.6165923E-005  0.6597924E+03  0.7818608E-02  0.9788576E-01
          2   -1    0    0  501    0  0.00000000000E+00  0.00000000000E+00  0.29870881474E+03  0.29870881475E+03  0.25500000000E-02 0.  1.
         -2   -1    0    0    0  501 -0.00000000000E+00 -0.00000000000E+00 -0.36433977646E+03  0.36433977647E+03  0.25500000000E-02 0. -1.
    5000001    1    1    2    0    0 -0.12437815735E+03  0.18206732277E+03  0.12566208497E+03  0.31583760961E+03  0.18800000000E+03 0.  0.
   -5000001    1    1    2    0    0  0.12437815735E+03 -0.18206732277E+03 -0.19129304668E+03  0.34721098161E+03  0.18800000000E+03 0.  0.
<mgrwt>
<rscale>  0 0.65979240E+03</rscale>
<asrwt>0</asrwt>
<pdfrwt beam="1">  1        2 0.42672688E-01 0.65979240E+03</pdfrwt>
<pdfrwt beam="2">  1       -2 0.52048539E-01 0.65979240E+03</pdfrwt>
<totfact> 0.42114311E+02</totfact>
</mgrwt>
</event>
<event>
 4    1  0.6165923E-005  0.9354040E+03  0.7818608E-02  0.9382376E-01
          2   -1    0    0  501    0  0.00000000000E+00  0.00000000000E+00  0.13975086451E+04  0.13975086451E+04  0.25500000000E-02 0.  1.
         -2   -1    0    0    0  501 -0.00000000000E+00 -0.00000000000E+00 -0.15652509175E+03  0.15652509177E+03  0.25500000000E-02 0. -1.
    5000001    1    1    2    0    0 -0.18262303342E+02 -0.40900119132E+03  0.41175792049E+03  0.61033111613E+03  0.18800000000E+03 0.  0.
   -5000001    1    1    2    0    0  0.18262303342E+02  0.40900119132E+03  0.82922563281E+03  0.94370262071E+03  0.18800000000E+03 0.  0.
<mgrwt>
<rscale>  0 0.93540402E+03</rscale>
<asrwt>0</asrwt>
<pdfrwt beam="1">  1        2 0.19964410E+00 0.93540402E+03</pdfrwt>
<pdfrwt beam="2">  1       -2 0.22360727E-01 0.93540402E+03</pdfrwt>
<totfact> 0.29061440E+02</totfact>
</mgrwt>
</event>
<event>
 4    1  0.6165923E-005  0.7332799E+03  0.7818608E-02  0.9661953E-01
          2   -1    0    0  501    0  0.00000000000E+00  0.00000000000E+00  0.74443626128E+03  0.74443626128E+03  0.25500000000E-02 0.  1.
         -2   -1    0    0    0  501 -0.00000000000E+00 -0.00000000000E+00 -0.18057268416E+03  0.18057268418E+03  0.25500000000E-02 0. -1.
    5000001    1    1    2    0    0  0.24758830100E+03 -0.18398177970E+03  0.36102885254E+03  0.51072017233E+03  0.18800000000E+03 0.  0.
   -5000001    1    1    2    0    0 -0.24758830100E+03  0.18398177970E+03  0.20283472457E+03  0.41428877313E+03  0.18800000000E+03 0.  0.
<mgrwt>
<rscale>  0 0.73327990E+03</rscale>
<asrwt>0</asrwt>
<pdfrwt beam="1">  1        2 0.10634804E+00 0.73327990E+03</pdfrwt>
<pdfrwt beam="2">  1       -2 0.25796097E-01 0.73327990E+03</pdfrwt>
<totfact> 0.56622086E+02</totfact>
</mgrwt>
</event>
<event>
 4    1  0.6165923E-005  0.7399860E+03  0.7818608E-02  0.9651193E-01
         -2   -1    0    0    0  501 -0.00000000000E+00  0.00000000000E+00  0.43389394268E+02  0.43389394343E+02  0.25500000000E-02 0. -1.
          2   -1    0    0  501    0  0.00000000000E+00 -0.00000000000E+00 -0.31550294155E+04  0.31550294155E+04  0.25500000000E-02 0.  1.
    5000001    1    1    2    0    0  0.26439367033E+03 -0.17073464017E+03 -0.13398585164E+04  0.13891073300E+04  0.18800000000E+03 0.  0.
   -5000001    1    1    2    0    0 -0.26439367033E+03  0.17073464017E+03 -0.17717815048E+04  0.18093114798E+04  0.18800000000E+03 0.  0.
<mgrwt>
<rscale>  0 0.73998599E+03</rscale>
<asrwt>0</asrwt>
<pdfrwt beam="1">  1        2 0.45071834E+00 0.73998599E+03</pdfrwt>
<pdfrwt beam="2">  1       -2 0.61984869E-02 0.73998599E+03</pdfrwt>
<totfact> 0.29945285E+02</totfact>
</mgrwt>
</event>
<event>
 4    1  0.6165923E-005  0.5370404E+03  0.7818608E-02  0.1004539E+00
         -2   -1    0    0    0  501 -0.00000000000E+00  0.00000000000E+00  0.45151975968E+03  0.45151975969E+03  0.25500000000E-02 0. -1.
          2   -1    0    0  501    0  0.00000000000E+00 -0.00000000000E+00 -0.15968979405E+03  0.15968979407E+03  0.25500000000E-02 0.  1.
    5000001    1    1    2    0    0 -0.10721628602E+03 -0.13924848364E+03  0.23313904223E+03  0.34725104059E+03  0.18800000000E+03 0.  0.
   -5000001    1    1    2    0    0  0.10721628602E+03  0.13924848364E+03  0.58690923399E+02  0.26395851317E+03  0.18800000000E+03 0.  0.
<mgrwt>
<rscale>  0 0.53704040E+03</rscale>
<asrwt>0</asrwt>
<pdfrwt beam="1">  1        2 0.22812828E-01 0.53704040E+03</pdfrwt>
<pdfrwt beam="2">  1       -2 0.64502822E-01 0.53704040E+03</pdfrwt>
<totfact> 0.54498876E+02</totfact>
</mgrwt>
</event>
<event>
 4    1  0.6165923E-005  0.6681377E+03  0.7818608E-02  0.9773328E-01
          2   -1    0    0  501    0  0.00000000000E+00  0.00000000000E+00  0.90375494688E+02  0.90375494724E+02  0.25500000000E-02 0.  1.
         -2   -1    0    0    0  501 -0.00000000000E+00 -0.00000000000E+00 -0.12348702425E+04  0.12348702425E+04  0.25500000000E-02 0. -1.
    5000001    1    1    2    0    0  0.32042862951E+02 -0.26774554061E+03 -0.69032078668E+03  0.76459218418E+03  0.18800000000E+03 0.  0.
   -5000001    1    1    2    0    0 -0.32042862951E+02  0.26774554061E+03 -0.45417396118E+03  0.56065355310E+03  0.18800000000E+03 0.  0.
<mgrwt>
<rscale>  0 0.66813774E+03</rscale>
<asrwt>0</asrwt>
<pdfrwt beam="1">  1        2 0.12910786E-01 0.66813774E+03</pdfrwt>
<pdfrwt beam="2">  1       -2 0.17641002E+00 0.66813774E+03</pdfrwt>
<totfact> 0.94261140E+01</totfact>
</mgrwt>
</event>
<event>
 4    1  0.6165923E-005  0.5617099E+03  0.7818608E-02  0.9988193E-01
          2   -1    0    0  501    0  0.00000000000E+00  0.00000000000E+00  0.97990769064E+03  0.97990769064E+03  0.25500000000E-02 0.  1.
         -2   -1    0    0    0  501 -0.00000000000E+00 -0.00000000000E+00 -0.80496857778E+02  0.80496857819E+02  0.25500000000E-02 0. -1.
    5000001    1    1    2    0    0  0.14630695092E+03 -0.84602850172E+02  0.68069970674E+03  0.72612633674E+03  0.18800000000E+03 0.  0.
   -5000001    1    1    2    0    0 -0.14630695092E+03  0.84602850172E+02  0.21871112611E+03  0.33427821172E+03  0.18800000000E+03 0.  0.
<mgrwt>
<rscale>  0 0.56170985E+03</rscale>
<asrwt>0</asrwt>
<pdfrwt beam="1">  1        2 0.13998679E+00 0.56170985E+03</pdfrwt>
<pdfrwt beam="2">  1       -2 0.11499553E-01 0.56170985E+03</pdfrwt>
<totfact> 0.15842325E+03</totfact>
</mgrwt>
</event>
<event>
 4    1  0.6165923E-005  0.6849467E+03  0.7818608E-02  0.9743327E-01
         -2   -1    0    0    0  501 -0.00000000000E+00  0.00000000000E+00  0.11285310595E+03  0.11285310598E+03  0.25500000000E-02 0.  1.
          2   -1    0    0  501    0  0.00000000000E+00 -0.00000000000E+00 -0.10392979512E+04  0.10392979512E+04  0.25500000000E-02 0. -1.
    5000001    1    1    2    0    0  0.26991419868E+03 -0.79642859716E+02 -0.37505482624E+03  0.50517995055E+03  0.18800000000E+03 0.  0.
   -5000001    1    1    2    0    0 -0.26991419868E+03  0.79642859716E+02 -0.55139001906E+03  0.64697110668E+03  0.18800000000E+03 0.  0.
<mgrwt>
<rscale>  0 0.68494672E+03</rscale>
<asrwt>0</asrwt>
<pdfrwt beam="1">  1        2 0.14847113E+00 0.68494672E+03</pdfrwt>
<pdfrwt beam="2">  1       -2 0.16121873E-01 0.68494672E+03</pdfrwt>
<totfact> 0.82735036E+02</totfact>
</mgrwt>
</event>
<event>
 4    1  0.6165923E-005  0.4930595E+03  0.7818608E-02  0.1015607E+00
          2   -1    0    0  501    0  0.00000000000E+00  0.00000000000E+00  0.33468266943E+04  0.33468266943E+04  0.25500000000E-02 0.  1.
         -2   -1    0    0    0  501 -0.00000000000E+00 -0.00000000000E+00 -0.18159566465E+02  0.18159566645E+02  0.25500000000E-02 0. -1.
    5000001    1    1    2    0    0 -0.81081731833E+02  0.56122738417E+02  0.25197094779E+04  0.25286367596E+04  0.18800000000E+03 0.  0.
   -5000001    1    1    2    0    0  0.81081731833E+02 -0.56122738417E+02  0.80895764991E+03  0.83634950132E+03  0.18800000000E+03 0.  0.
<mgrwt>
<rscale>  0 0.49305952E+03</rscale>
<asrwt>0</asrwt>
<pdfrwt beam="1">  1        2 0.47811862E+00 0.49305952E+03</pdfrwt>
<pdfrwt beam="2">  1       -2 0.25942210E-02 0.49305952E+03</pdfrwt>
<totfact> 0.91373418E+02</totfact>
</mgrwt>
</event>
<event>
 4    1  0.6165923E-005  0.7258496E+03  0.7818608E-02  0.9674019E-01
          2   -1    0    0  501    0  0.00000000000E+00  0.00000000000E+00  0.55342065306E+03  0.55342065307E+03  0.25500000000E-02 0.  1.
         -2   -1    0    0    0  501 -0.00000000000E+00 -0.00000000000E+00 -0.23800050292E+03  0.23800050293E+03  0.25500000000E-02 0. -1.
    5000001    1    1    2    0    0 -0.30209741513E+03 -0.56064144529E+02  0.10938514037E+03  0.37645072116E+03  0.18800000000E+03 0.  0.
   -5000001    1    1    2    0    0  0.30209741513E+03  0.56064144529E+02  0.20603500978E+03  0.41497043483E+03  0.18800000000E+03 0.  0.
<mgrwt>
<rscale>  0 0.72584955E+03</rscale>
<asrwt>0</asrwt>
<pdfrwt beam="1">  1        2 0.79060093E-01 0.72584955E+03</pdfrwt>
<pdfrwt beam="2">  1       -2 0.34000072E-01 0.72584955E+03</pdfrwt>
<totfact> 0.48569898E+02</totfact>
</mgrwt>
</event>
<event>
 4    1  0.6165923E-005  0.4481336E+03  0.7818608E-02  0.1028280E+00
         -2   -1    0    0    0  501 -0.00000000000E+00  0.00000000000E+00  0.19962640216E+02  0.19962640378E+02  0.25500000000E-02 0. -1.
          2   -1    0    0  501    0  0.00000000000E+00 -0.00000000000E+00 -0.25149939935E+04  0.25149939935E+04  0.25500000000E-02 0.  1.
    5000001    1    1    2    0    0  0.93392883297E+02  0.66976609801E+02 -0.14775579525E+04  0.14938974530E+04  0.18800000000E+03 0.  0.
   -5000001    1    1    2    0    0 -0.93392883297E+02 -0.66976609801E+02 -0.10174734008E+04  0.10410591809E+04  0.18800000000E+03 0.  0.
<mgrwt>
<rscale>  0 0.44813355E+03</rscale>
<asrwt>0</asrwt>
<pdfrwt beam="1">  1        2 0.35928466E+00 0.44813355E+03</pdfrwt>
<pdfrwt beam="2">  1       -2 0.28518073E-02 0.44813355E+03</pdfrwt>
<totfact> 0.22233057E+03</totfact>
</mgrwt>
</event>
