<event>
 4    1  0.5562790E-004  0.2086856E+03  0.7818608E-02  0.1142611E+00
         -2   -1    0    0    0  501 -0.00000000000E+00  0.00000000000E+00  0.31452278906E+03  0.31452278907E+03  0.25500000000E-02 0. -1.
          2   -1    0    0  501    0  0.00000000000E+00 -0.00000000000E+00 -0.34615686596E+02  0.34615686690E+02  0.25500000000E-02 0.  1.
    5000001    1    1    2    0    0  0.60301829344E+02 -0.28142406636E+02  0.17847396105E+03  0.20545135786E+03  0.77000000000E+02 0.  0.
   -5000001    1    1    2    0    0 -0.60301829344E+02  0.28142406636E+02  0.10143314141E+03  0.14368711790E+03  0.77000000000E+02 0.  0.
<mgrwt>
<rscale>  0 0.20868562E+03</rscale>
<asrwt>0</asrwt>
<pdfrwt beam="1">  1        2 0.49450980E-02 0.20868562E+03</pdfrwt>
<pdfrwt beam="2">  1       -2 0.44931828E-01 0.20868562E+03</pdfrwt>
<totfact> 0.73932153E+03</totfact>
</mgrwt>
</event>
<event>
 4    1  0.5562790E-004  0.2732340E+03  0.7818608E-02  0.1099443E+00
         -2   -1    0    0    0  501 -0.00000000000E+00  0.00000000000E+00  0.10645185254E+02  0.10645185559E+02  0.25500000000E-02 0. -1.
          2   -1    0    0  501    0  0.00000000000E+00 -0.00000000000E+00 -0.17533005026E+04  0.17533005026E+04  0.25500000000E-02 0.  1.
    5000001    1    1    2    0    0  0.10201307034E+03 -0.77090386820E+01 -0.11788512899E+04  0.11857847441E+04  0.77000000000E+02 0.  0.
   -5000001    1    1    2    0    0 -0.10201307034E+03  0.77090386820E+01 -0.56380402750E+03  0.57816094405E+03  0.77000000000E+02 0.  0.
<mgrwt>
<rscale>  0 0.27323403E+03</rscale>
<asrwt>0</asrwt>
<pdfrwt beam="1">  1        2 0.25047132E+00 0.27323403E+03</pdfrwt>
<pdfrwt beam="2">  1       -2 0.15207419E-02 0.27323403E+03</pdfrwt>
<totfact> 0.13483653E+04</totfact>
</mgrwt>
</event>
<event>
 4    1  0.5562790E-004  0.1955118E+03  0.7818608E-02  0.1153582E+00
          2   -1    0    0  501    0  0.00000000000E+00  0.00000000000E+00  0.20732226343E+04  0.20732226343E+04  0.25500000000E-02 0.  1.
         -2   -1    0    0    0  501 -0.00000000000E+00 -0.00000000000E+00 -0.46093527618E+01  0.46093534672E+01  0.25500000000E-02 0. -1.
    5000001    1    1    2    0    0 -0.50724211612E+02  0.25553883475E+02  0.12471965430E+04  0.12508613686E+04  0.77000000000E+02 0.  0.
   -5000001    1    1    2    0    0  0.50724211612E+02 -0.25553883475E+02  0.82141673851E+03  0.82697061914E+03  0.77000000000E+02 0.  0.
<mgrwt>
<rscale>  0 0.19551179E+03</rscale>
<asrwt>0</asrwt>
<pdfrwt beam="1">  1        2 0.29617407E+00 0.19551179E+03</pdfrwt>
<pdfrwt beam="2">  1       -2 0.65848034E-03 0.19551179E+03</pdfrwt>
<totfact> 0.31267295E+04</totfact>
</mgrwt>
</event>
<event>
 4    1  0.5562790E-004  0.3441004E+03  0.7818608E-02  0.1065063E+00
         -2   -1    0    0    0  501 -0.00000000000E+00  0.00000000000E+00  0.22754774625E+03  0.22754774626E+03  0.25500000000E-02 0. -1.
          2   -1    0    0  501    0  0.00000000000E+00 -0.00000000000E+00 -0.13008821335E+03  0.13008821337E+03  0.25500000000E-02 0.  1.
    5000001    1    1    2    0    0 -0.13870613320E+03  0.16078907649E+02  0.11588049672E+03  0.19711725490E+03  0.77000000000E+02 0.  0.
   -5000001    1    1    2    0    0  0.13870613320E+03 -0.16078907649E+02 -0.18420963823E+02  0.16051870473E+03  0.77000000000E+02 0.  0.
<mgrwt>
<rscale>  0 0.34410045E+03</rscale>
<asrwt>0</asrwt>
<pdfrwt beam="1">  1        2 0.18584030E-01 0.34410045E+03</pdfrwt>
<pdfrwt beam="2">  1       -2 0.32506821E-01 0.34410045E+03</pdfrwt>
<totfact> 0.26786394E+03</totfact>
</mgrwt>
</event>
<event>
 4    1  0.5562790E-004  0.1922515E+03  0.7818608E-02  0.1156446E+00
         -2   -1    0    0    0  501 -0.00000000000E+00  0.00000000000E+00  0.10210266228E+02  0.10210266546E+02  0.25500000000E-02 0. -1.
          2   -1    0    0  501    0  0.00000000000E+00 -0.00000000000E+00 -0.90498681814E+03  0.90498681815E+03  0.25500000000E-02 0.  1.
    5000001    1    1    2    0    0  0.41913271526E+02  0.39131047030E+02 -0.42446138480E+03  0.43518321240E+03  0.77000000000E+02 0.  0.
   -5000001    1    1    2    0    0 -0.41913271526E+02 -0.39131047030E+02 -0.47031516712E+03  0.48001387229E+03  0.77000000000E+02 0.  0.
<mgrwt>
<rscale>  0 0.19225147E+03</rscale>
<asrwt>0</asrwt>
<pdfrwt beam="1">  1        2 0.12928378E+00 0.19225147E+03</pdfrwt>
<pdfrwt beam="2">  1       -2 0.14586101E-02 0.19225147E+03</pdfrwt>
<totfact> 0.39665587E+04</totfact>
</mgrwt>
</event>
<event>
 4    1  0.5562790E-004  0.1952034E+03  0.7818608E-02  0.1153850E+00
          2   -1    0    0  501    0  0.00000000000E+00  0.00000000000E+00  0.98944801518E+03  0.98944801518E+03  0.25500000000E-02 0.  1.
         -2   -1    0    0    0  501 -0.00000000000E+00 -0.00000000000E+00 -0.96276846711E+01  0.96276850088E+01  0.25500000000E-02 0. -1.
    5000001    1    1    2    0    0 -0.54814115159E+02  0.21124202400E+02  0.42800950170E+03  0.43883020941E+03  0.77000000000E+02 0.  0.
   -5000001    1    1    2    0    0  0.54814115159E+02 -0.21124202400E+02  0.55181082881E+03  0.56024549078E+03  0.77000000000E+02 0.  0.
<mgrwt>
<rscale>  0 0.19520342E+03</rscale>
<asrwt>0</asrwt>
<pdfrwt beam="1">  1        2 0.14134971E+00 0.19520342E+03</pdfrwt>
<pdfrwt beam="2">  1       -2 0.13753836E-02 0.19520342E+03</pdfrwt>
<totfact> 0.38473170E+04</totfact>
</mgrwt>
</event>
<event>
 4    1  0.5562790E-004  0.1881777E+03  0.7818608E-02  0.1160115E+00
          2   -1    0    0  501    0  0.00000000000E+00  0.00000000000E+00  0.23391133937E+04  0.23391133937E+04  0.25500000000E-02 0.  1.
         -2   -1    0    0    0  501 -0.00000000000E+00 -0.00000000000E+00 -0.37846427786E+01  0.37846436377E+01  0.25500000000E-02 0. -1.
    5000001    1    1    2    0    0 -0.35134611495E+00 -0.44785984754E+02  0.15448539873E+04  0.15474200303E+04  0.77000000000E+02 0.  0.
   -5000001    1    1    2    0    0  0.35134611495E+00  0.44785984754E+02  0.79047476357E+03  0.79547800706E+03  0.77000000000E+02 0.  0.
<mgrwt>
<rscale>  0 0.18817768E+03</rscale>
<asrwt>0</asrwt>
<pdfrwt beam="1">  1        2 0.33416017E+00 0.18817768E+03</pdfrwt>
<pdfrwt beam="2">  1       -2 0.54066151E-03 0.18817768E+03</pdfrwt>
<totfact> 0.30777237E+04</totfact>
</mgrwt>
</event>
<event>
 4    1  0.5562790E-004  0.6030472E+03  0.7818608E-02  0.9899104E-01
          2   -1    0    0  501    0  0.00000000000E+00  0.00000000000E+00  0.38281482872E+03  0.38281482873E+03  0.25500000000E-02 0.  1.
         -2   -1    0    0    0  501 -0.00000000000E+00 -0.00000000000E+00 -0.23749470017E+03  0.23749470018E+03  0.25500000000E-02 0. -1.
    5000001    1    1    2    0    0  0.12156373947E+03 -0.23913918922E+03  0.19004146115E+03  0.33765374503E+03  0.77000000000E+02 0.  0.
   -5000001    1    1    2    0    0 -0.12156373947E+03  0.23913918922E+03 -0.44721332596E+02  0.28265578388E+03  0.77000000000E+02 0.  0.
<mgrwt>
<rscale>  0 0.60304724E+03</rscale>
<asrwt>0</asrwt>
<pdfrwt beam="1">  1        2 0.54687832E-01 0.60304724E+03</pdfrwt>
<pdfrwt beam="2">  1       -2 0.33927815E-01 0.60304724E+03</pdfrwt>
<totfact> 0.74192618E+02</totfact>
</mgrwt>
</event>
<event>
 4    1  0.5562790E-004  0.2164668E+03  0.7818608E-02  0.1136545E+00
          2   -1    0    0  501    0  0.00000000000E+00  0.00000000000E+00  0.58675214367E+03  0.58675214368E+03  0.25500000000E-02 0.  1.
         -2   -1    0    0    0  501 -0.00000000000E+00 -0.00000000000E+00 -0.19964929200E+02  0.19964929362E+02  0.25500000000E-02 0. -1.
    5000001    1    1    2    0    0 -0.10202407786E+02 -0.58736360636E+02  0.41579277304E+03  0.42704411868E+03  0.77000000000E+02 0.  0.
   -5000001    1    1    2    0    0  0.10202407786E+02  0.58736360636E+02  0.15099444143E+03  0.17967295436E+03  0.77000000000E+02 0.  0.
<mgrwt>
<rscale>  0 0.21646676E+03</rscale>
<asrwt>0</asrwt>
<pdfrwt beam="1">  1        2 0.83821730E-01 0.21646676E+03</pdfrwt>
<pdfrwt beam="2">  1       -2 0.28521329E-02 0.21646676E+03</pdfrwt>
<totfact> 0.25172370E+04</totfact>
</mgrwt>
</event>
<event>
 4    1  0.5562790E-004  0.2316912E+03  0.7818608E-02  0.1125455E+00
          2   -1    0    0  501    0  0.00000000000E+00  0.00000000000E+00  0.21460667060E+02  0.21460667211E+02  0.25500000000E-02 0.  1.
         -2   -1    0    0    0  501 -0.00000000000E+00 -0.00000000000E+00 -0.62533945840E+03  0.62533945840E+03  0.25500000000E-02 0. -1.
    5000001    1    1    2    0    0  0.54091352214E+02 -0.64376577536E+02 -0.35921811381E+03  0.37687779373E+03  0.77000000000E+02 0.  0.
   -5000001    1    1    2    0    0 -0.54091352214E+02  0.64376577536E+02 -0.24466067753E+03  0.26992233188E+03  0.77000000000E+02 0.  0.
<mgrwt>
<rscale>  0 0.23169119E+03</rscale>
<asrwt>0</asrwt>
<pdfrwt beam="1">  1        2 0.30658100E-02 0.23169119E+03</pdfrwt>
<pdfrwt beam="2">  1       -2 0.89334197E-01 0.23169119E+03</pdfrwt>
<totfact> 0.33440695E+03</totfact>
</mgrwt>
</event>
<event>
 4    1  0.5562790E-004  0.2318634E+03  0.7818608E-02  0.1125335E+00
          2   -1    0    0  501    0  0.00000000000E+00  0.00000000000E+00  0.71326614740E+03  0.71326614740E+03  0.25500000000E-02 0.  1.
         -2   -1    0    0    0  501 -0.00000000000E+00 -0.00000000000E+00 -0.18843127105E+02  0.18843127277E+02  0.25500000000E-02 0. -1.
    5000001    1    1    2    0    0 -0.69431452368E+02  0.19069330499E+02  0.19490339899E+03  0.22158677958E+03  0.77000000000E+02 0.  0.
   -5000001    1    1    2    0    0  0.69431452368E+02 -0.19069330499E+02  0.49951962130E+03  0.51052249511E+03  0.77000000000E+02 0.  0.
<mgrwt>
<rscale>  0 0.23186345E+03</rscale>
<asrwt>0</asrwt>
<pdfrwt beam="1">  1        2 0.10189516E+00 0.23186345E+03</pdfrwt>
<pdfrwt beam="2">  1       -2 0.26918755E-02 0.23186345E+03</pdfrwt>
<totfact> 0.21975879E+04</totfact>
</mgrwt>
</event>
<event>
 4    1  0.5562790E-004  0.1998670E+03  0.7818608E-02  0.1149851E+00
         -2   -1    0    0    0  501 -0.00000000000E+00  0.00000000000E+00  0.29350003648E+02  0.29350003759E+02  0.25500000000E-02 0. -1.
          2   -1    0    0  501    0  0.00000000000E+00 -0.00000000000E+00 -0.34026249092E+03  0.34026249092E+03  0.25500000000E-02 0.  1.
    5000001    1    1    2    0    0 -0.18328220499E+01 -0.63658148002E+02 -0.15284990374E+03  0.18261383331E+03  0.77000000000E+02 0.  0.
   -5000001    1    1    2    0    0  0.18328220499E+01  0.63658148002E+02 -0.15806258352E+03  0.18699866137E+03  0.77000000000E+02 0.  0.
<mgrwt>
<rscale>  0 0.19986701E+03</rscale>
<asrwt>0</asrwt>
<pdfrwt beam="1">  1        2 0.48608925E-01 0.19986701E+03</pdfrwt>
<pdfrwt beam="2">  1       -2 0.41928579E-02 0.19986701E+03</pdfrwt>
<totfact> 0.25529392E+04</totfact>
</mgrwt>
</event>
<event>
 4    1  0.5562790E-004  0.1662021E+03  0.7818608E-02  0.1181867E+00
          2   -1    0    0  501    0  0.00000000000E+00  0.00000000000E+00  0.56839423474E+03  0.56839423474E+03  0.25500000000E-02 0.  1.
         -2   -1    0    0    0  501 -0.00000000000E+00 -0.00000000000E+00 -0.12149632285E+02  0.12149632552E+02  0.25500000000E-02 0. -1.
    5000001    1    1    2    0    0  0.20784022206E+02 -0.18558605855E+02  0.32756813732E+03  0.33764816306E+03  0.77000000000E+02 0.  0.
   -5000001    1    1    2    0    0 -0.20784022206E+02  0.18558605855E+02  0.22867646513E+03  0.24289570423E+03  0.77000000000E+02 0.  0.
<mgrwt>
<rscale>  0 0.16620206E+03</rscale>
<asrwt>0</asrwt>
<pdfrwt beam="1">  1        2 0.81199199E-01 0.16620206E+03</pdfrwt>
<pdfrwt beam="2">  1       -2 0.17356613E-02 0.16620206E+03</pdfrwt>
<totfact> 0.52818853E+04</totfact>
</mgrwt>
</event>
<event>
 4    1  0.5562790E-004  0.2971143E+03  0.7818608E-02  0.1086692E+00
         -2   -1    0    0    0  501 -0.00000000000E+00  0.00000000000E+00  0.37011111403E+02  0.37011111491E+02  0.25500000000E-02 0. -1.
          2   -1    0    0  501    0  0.00000000000E+00 -0.00000000000E+00 -0.59628650375E+03  0.59628650375E+03  0.25500000000E-02 0.  1.
    5000001    1    1    2    0    0  0.65867065831E+02  0.96082143343E+02 -0.17158167450E+03  0.22122278286E+03  0.77000000000E+02 0.  0.
   -5000001    1    1    2    0    0 -0.65867065831E+02 -0.96082143343E+02 -0.38769371784E+03  0.41207483239E+03  0.77000000000E+02 0.  0.
<mgrwt>
<rscale>  0 0.29711430E+03</rscale>
<asrwt>0</asrwt>
<pdfrwt beam="1">  1        2 0.85183780E-01 0.29711430E+03</pdfrwt>
<pdfrwt beam="2">  1       -2 0.52873020E-02 0.29711430E+03</pdfrwt>
<totfact> 0.99459584E+03</totfact>
</mgrwt>
</event>
<event>
 4    1  0.5562790E-004  0.1770652E+03  0.7818608E-02  0.1170674E+00
         -2   -1    0    0    0  501 -0.00000000000E+00  0.00000000000E+00  0.23750715653E+02  0.23750715790E+02  0.25500000000E-02 0. -1.
          2   -1    0    0  501    0  0.00000000000E+00 -0.00000000000E+00 -0.33001214538E+03  0.33001214539E+03  0.25500000000E-02 0.  1.
    5000001    1    1    2    0    0  0.33390012339E+02 -0.10696573451E+02 -0.10104215252E+03  0.13178704865E+03  0.77000000000E+02 0.  0.
   -5000001    1    1    2    0    0 -0.33390012339E+02  0.10696573451E+02 -0.20521927721E+03  0.22197581252E+03  0.77000000000E+02 0.  0.
<mgrwt>
<rscale>  0 0.17706524E+03</rscale>
<asrwt>0</asrwt>
<pdfrwt beam="1">  1        2 0.47144590E-01 0.17706524E+03</pdfrwt>
<pdfrwt beam="2">  1       -2 0.33929596E-02 0.17706524E+03</pdfrwt>
<totfact> 0.35791184E+04</totfact>
</mgrwt>
</event>
<event>
 4    1  0.5562790E-004  0.2128738E+03  0.7818608E-02  0.1139310E+00
         -2   -1    0    0    0  501 -0.00000000000E+00  0.00000000000E+00  0.62272080070E+02  0.62272080122E+02  0.25500000000E-02 0. -1.
          2   -1    0    0  501    0  0.00000000000E+00 -0.00000000000E+00 -0.18192451732E+03  0.18192451734E+03  0.25500000000E-02 0.  1.
    5000001    1    1    2    0    0 -0.10717406883E+02  0.61718948135E+02 -0.15758528674E+02  0.10050583364E+03  0.77000000000E+02 0.  0.
   -5000001    1    1    2    0    0  0.10717406883E+02 -0.61718948135E+02 -0.10389390858E+03  0.14369076383E+03  0.77000000000E+02 0.  0.
<mgrwt>
<rscale>  0 0.21287384E+03</rscale>
<asrwt>0</asrwt>
<pdfrwt beam="1">  1        2 0.25989216E-01 0.21287384E+03</pdfrwt>
<pdfrwt beam="2">  1       -2 0.88960115E-02 0.21287384E+03</pdfrwt>
<totfact> 0.15968834E+04</totfact>
</mgrwt>
</event>
<event>
 4    1  0.5562790E-004  0.5248583E+03  0.7818608E-02  0.1007487E+00
          2   -1    0    0  501    0  0.00000000000E+00  0.00000000000E+00  0.29792972487E+03  0.29792972488E+03  0.25500000000E-02 0.  1.
         -2   -1    0    0    0  501 -0.00000000000E+00 -0.00000000000E+00 -0.23115875993E+03  0.23115875994E+03  0.25500000000E-02 0. -1.
    5000001    1    1    2    0    0 -0.17150109367E+03  0.23595928050E+02 -0.14965625218E+03  0.24144437614E+03  0.77000000000E+02 0.  0.
   -5000001    1    1    2    0    0  0.17150109367E+03 -0.23595928050E+02  0.21642721712E+03  0.28764410869E+03  0.77000000000E+02 0.  0.
<mgrwt>
<rscale>  0 0.52485833E+03</rscale>
<asrwt>0</asrwt>
<pdfrwt beam="1">  1        2 0.42561389E-01 0.52485833E+03</pdfrwt>
<pdfrwt beam="2">  1       -2 0.33022680E-01 0.52485833E+03</pdfrwt>
<totfact> 0.10298340E+03</totfact>
</mgrwt>
</event>
<event>
 4    1  0.5562790E-004  0.2192954E+03  0.7818608E-02  0.1134409E+00
         -2   -1    0    0    0  501 -0.00000000000E+00  0.00000000000E+00  0.59628595347E+01  0.59628600799E+01  0.25500000000E-02 0. -1.
          2   -1    0    0  501    0  0.00000000000E+00 -0.00000000000E+00 -0.20162495998E+04  0.20162495998E+04  0.25500000000E-02 0.  1.
    5000001    1    1    2    0    0 -0.46914518988E+02  0.11675383977E+02 -0.15703132869E+04  0.15729431349E+04  0.77000000000E+02 0.  0.
   -5000001    1    1    2    0    0  0.46914518988E+02 -0.11675383977E+02 -0.43997345333E+03  0.44926932492E+03  0.77000000000E+02 0.  0.
<mgrwt>
<rscale>  0 0.21929536E+03</rscale>
<asrwt>0</asrwt>
<pdfrwt beam="1">  1        2 0.28803522E+00 0.21929536E+03</pdfrwt>
<pdfrwt beam="2">  1       -2 0.85183841E-03 0.21929536E+03</pdfrwt>
<totfact> 0.23128733E+04</totfact>
</mgrwt>
</event>
<event>
 4    1  0.5562790E-004  0.1627557E+03  0.7818608E-02  0.1185620E+00
          2   -1    0    0  501    0  0.00000000000E+00  0.00000000000E+00  0.12730900376E+04  0.12730900376E+04  0.25500000000E-02 0.  1.
         -2   -1    0    0    0  501 -0.00000000000E+00 -0.00000000000E+00 -0.52017954849E+01  0.52017961099E+01  0.25500000000E-02 0. -1.
    5000001    1    1    2    0    0 -0.22233949447E+02 -0.12855381463E+02  0.58831953082E+03  0.59389264997E+03  0.77000000000E+02 0.  0.
   -5000001    1    1    2    0    0  0.22233949447E+02  0.12855381463E+02  0.67956871133E+03  0.68439918378E+03  0.77000000000E+02 0.  0.
<mgrwt>
<rscale>  0 0.16275570E+03</rscale>
<asrwt>0</asrwt>
<pdfrwt beam="1">  1        2 0.18187023E+00 0.16275570E+03</pdfrwt>
<pdfrwt beam="2">  1       -2 0.74311276E-03 0.16275570E+03</pdfrwt>
<totfact> 0.64174579E+04</totfact>
</mgrwt>
</event>
<event>
 4    1  0.5562790E-004  0.1691744E+03  0.7818608E-02  0.1178712E+00
          2   -1    0    0  501    0  0.00000000000E+00  0.00000000000E+00  0.62460996620E+03  0.62460996620E+03  0.25500000000E-02 0.  1.
         -2   -1    0    0    0  501 -0.00000000000E+00 -0.00000000000E+00 -0.11455145014E+02  0.11455145298E+02  0.25500000000E-02 0. -1.
    5000001    1    1    2    0    0  0.22366973048E+02  0.25549934933E+02  0.33868308066E+03  0.34898181870E+03  0.77000000000E+02 0.  0.
   -5000001    1    1    2    0    0 -0.22366973048E+02 -0.25549934933E+02  0.27447174052E+03  0.28708329280E+03  0.77000000000E+02 0.  0.
<mgrwt>
<rscale>  0 0.16917444E+03</rscale>
<asrwt>0</asrwt>
<pdfrwt beam="1">  1        2 0.89230008E-01 0.16917444E+03</pdfrwt>
<pdfrwt beam="2">  1       -2 0.16364491E-02 0.16917444E+03</pdfrwt>
<totfact> 0.51827283E+04</totfact>
</mgrwt>
</event>
<event>
 4    1  0.5562790E-004  0.3005084E+03  0.7818608E-02  0.1084987E+00
         -2   -1    0    0    0  501 -0.00000000000E+00  0.00000000000E+00  0.26426185643E+02  0.26426185766E+02  0.25500000000E-02 0. -1.
          2   -1    0    0  501    0  0.00000000000E+00 -0.00000000000E+00 -0.85431636821E+03  0.85431636822E+03  0.25500000000E-02 0.  1.
    5000001    1    1    2    0    0  0.70104915797E+02 -0.10378935522E+03 -0.32311766857E+03  0.35499430590E+03  0.77000000000E+02 0.  0.
   -5000001    1    1    2    0    0 -0.70104915797E+02  0.10378935522E+03 -0.50477251400E+03  0.52574824808E+03  0.77000000000E+02 0.  0.
<mgrwt>
<rscale>  0 0.30050839E+03</rscale>
<asrwt>0</asrwt>
<pdfrwt beam="1">  1        2 0.12204518E+00 0.30050839E+03</pdfrwt>
<pdfrwt beam="2">  1       -2 0.37751699E-02 0.30050839E+03</pdfrwt>
<totfact> 0.10762352E+04</totfact>
</mgrwt>
</event>
<event>
 4    1  0.5562790E-004  0.3609722E+03  0.7818608E-02  0.1058200E+00
         -2   -1    0    0    0  501 -0.00000000000E+00  0.00000000000E+00  0.44945398526E+02  0.44945398598E+02  0.25500000000E-02 0. -1.
          2   -1    0    0  501    0  0.00000000000E+00 -0.00000000000E+00 -0.72477332287E+03  0.72477332287E+03  0.25500000000E-02 0.  1.
    5000001    1    1    2    0    0 -0.39310729634E+02 -0.15843106166E+03 -0.33841963562E+03  0.38353954755E+03  0.77000000000E+02 0.  0.
   -5000001    1    1    2    0    0  0.39310729634E+02  0.15843106166E+03 -0.34140828872E+03  0.38617917392E+03  0.77000000000E+02 0.  0.
<mgrwt>
<rscale>  0 0.36097216E+03</rscale>
<asrwt>0</asrwt>
<pdfrwt beam="1">  1        2 0.10353904E+00 0.36097216E+03</pdfrwt>
<pdfrwt beam="2">  1       -2 0.64207716E-02 0.36097216E+03</pdfrwt>
<totfact> 0.58972081E+03</totfact>
</mgrwt>
</event>
<event>
 4    1  0.5562790E-004  0.2719431E+03  0.7818608E-02  0.1100173E+00
         -2   -1    0    0    0  501 -0.00000000000E+00  0.00000000000E+00  0.67515494585E+01  0.67515499400E+01  0.25500000000E-02 0. -1.
          2   -1    0    0  501    0  0.00000000000E+00 -0.00000000000E+00 -0.27383734969E+04  0.27383734969E+04  0.25500000000E-02 0.  1.
    5000001    1    1    2    0    0 -0.67517942311E+02  0.83219529487E+02 -0.10348255075E+04  0.10432051541E+04  0.77000000000E+02 0.  0.
   -5000001    1    1    2    0    0  0.67517942311E+02 -0.83219529487E+02 -0.16967964399E+04  0.17019198927E+04  0.77000000000E+02 0.  0.
<mgrwt>
<rscale>  0 0.27194312E+03</rscale>
<asrwt>0</asrwt>
<pdfrwt beam="1">  1        2 0.39119550E+00 0.27194312E+03</pdfrwt>
<pdfrwt beam="2">  1       -2 0.96450886E-03 0.27194312E+03</pdfrwt>
<totfact> 0.85376390E+03</totfact>
</mgrwt>
</event>
<event>
 4    1  0.5562790E-004  0.2685219E+03  0.7818608E-02  0.1102129E+00
          2   -1    0    0  501    0  0.00000000000E+00  0.00000000000E+00  0.16752124253E+03  0.16752124255E+03  0.25500000000E-02 0.  1.
         -2   -1    0    0    0  501 -0.00000000000E+00 -0.00000000000E+00 -0.10760427881E+03  0.10760427884E+03  0.25500000000E-02 0. -1.
    5000001    1    1    2    0    0  0.39636097307E+02 -0.85107877354E+02  0.88661743993E+02  0.15034718436E+03  0.77000000000E+02 0.  0.
   -5000001    1    1    2    0    0 -0.39636097307E+02  0.85107877354E+02 -0.28744780270E+02  0.12477833702E+03  0.77000000000E+02 0.  0.
<mgrwt>
<rscale>  0 0.26852190E+03</rscale>
<asrwt>0</asrwt>
<pdfrwt beam="1">  1        2 0.23931606E-01 0.26852190E+03</pdfrwt>
<pdfrwt beam="2">  1       -2 0.15372040E-01 0.26852190E+03</pdfrwt>
<totfact> 0.73538555E+03</totfact>
</mgrwt>
</event>
<event>
 4    1  0.5562790E-004  0.2257648E+03  0.7818608E-02  0.1129657E+00
          2   -1    0    0  501    0  0.00000000000E+00  0.00000000000E+00  0.20279646919E+02  0.20279647079E+02  0.25500000000E-02 0.  1.
         -2   -1    0    0    0  501 -0.00000000000E+00 -0.00000000000E+00 -0.62833599655E+03  0.62833599656E+03  0.25500000000E-02 0. -1.
    5000001    1    1    2    0    0  0.21627092423E+02 -0.69981781310E+02 -0.41336166982E+03  0.42680446450E+03  0.77000000000E+02 0.  0.
   -5000001    1    1    2    0    0 -0.21627092423E+02  0.69981781310E+02 -0.19469467982E+03  0.22181117914E+03  0.77000000000E+02 0.  0.
<mgrwt>
<rscale>  0 0.22576476E+03</rscale>
<asrwt>0</asrwt>
<pdfrwt beam="1">  1        2 0.28970928E-02 0.22576476E+03</pdfrwt>
<pdfrwt beam="2">  1       -2 0.89762273E-01 0.22576476E+03</pdfrwt>
<totfact> 0.35674766E+03</totfact>
</mgrwt>
</event>
<event>
 4    1  0.5562790E-004  0.1952060E+03  0.7818608E-02  0.1153848E+00
          2   -1    0    0  501    0  0.00000000000E+00  0.00000000000E+00  0.15959567200E+02  0.15959567404E+02  0.25500000000E-02 0.  1.
         -2   -1    0    0    0  501 -0.00000000000E+00 -0.00000000000E+00 -0.59690527748E+03  0.59690527748E+03  0.25500000000E-02 0. -1.
    5000001    1    1    2    0    0 -0.27633058616E+02  0.47256966744E+02 -0.21353438509E+03  0.23350105021E+03  0.77000000000E+02 0.  0.
   -5000001    1    1    2    0    0  0.27633058616E+02 -0.47256966744E+02 -0.36741132518E+03  0.37936379467E+03  0.77000000000E+02 0.  0.
<mgrwt>
<rscale>  0 0.19520604E+03</rscale>
<asrwt>0</asrwt>
<pdfrwt beam="1">  1        2 0.22799386E-02 0.19520604E+03</pdfrwt>
<pdfrwt beam="2">  1       -2 0.85272169E-01 0.19520604E+03</pdfrwt>
<totfact> 0.54985388E+03</totfact>
</mgrwt>
</event>
<event>
 4    1  0.5562790E-004  0.2170869E+03  0.7818608E-02  0.1136074E+00
         -2   -1    0    0    0  501 -0.00000000000E+00  0.00000000000E+00  0.70037386161E+01  0.70037390803E+01  0.25500000000E-02 0. -1.
          2   -1    0    0  501    0  0.00000000000E+00 -0.00000000000E+00 -0.16821987868E+04  0.16821987868E+04  0.25500000000E-02 0.  1.
    5000001    1    1    2    0    0  0.49285009032E+02  0.44193833768E+02 -0.11359925156E+04  0.11405218553E+04  0.77000000000E+02 0.  0.
   -5000001    1    1    2    0    0 -0.49285009032E+02 -0.44193833768E+02 -0.53920253261E+03  0.54868067054E+03  0.77000000000E+02 0.  0.
<mgrwt>
<rscale>  0 0.21708690E+03</rscale>
<asrwt>0</asrwt>
<pdfrwt beam="1">  1        2 0.24031385E+00 0.21708690E+03</pdfrwt>
<pdfrwt beam="2">  1       -2 0.10005352E-02 0.21708690E+03</pdfrwt>
<totfact> 0.26620958E+04</totfact>
</mgrwt>
</event>
<event>
 4    1  0.5562790E-004  0.1786803E+03  0.7818608E-02  0.1169086E+00
          2   -1    0    0  501    0  0.00000000000E+00  0.00000000000E+00  0.40184578843E+02  0.40184578924E+02  0.25500000000E-02 0.  1.
         -2   -1    0    0    0  501 -0.00000000000E+00 -0.00000000000E+00 -0.19862511045E+03  0.19862511047E+03  0.25500000000E-02 0. -1.
    5000001    1    1    2    0    0 -0.44202219742E+02 -0.68021309349E+01 -0.69530621669E+02  0.11297615928E+03  0.77000000000E+02 0.  0.
   -5000001    1    1    2    0    0  0.44202219742E+02  0.68021309349E+01 -0.88909909938E+02  0.12583353011E+03  0.77000000000E+02 0.  0.
<mgrwt>
<rscale>  0 0.17868035E+03</rscale>
<asrwt>0</asrwt>
<pdfrwt beam="1">  1        2 0.57406542E-02 0.17868035E+03</pdfrwt>
<pdfrwt beam="2">  1       -2 0.28375015E-01 0.17868035E+03</pdfrwt>
<totfact> 0.14164292E+04</totfact>
</mgrwt>
</event>
<event>
 4    1  0.5562790E-004  0.2242404E+03  0.7818608E-02  0.1130761E+00
         -2   -1    0    0    0  501 -0.00000000000E+00  0.00000000000E+00  0.16467986650E+03  0.16467986652E+03  0.25500000000E-02 0. -1.
          2   -1    0    0  501    0  0.00000000000E+00 -0.00000000000E+00 -0.76335594591E+02  0.76335594634E+02  0.25500000000E-02 0.  1.
    5000001    1    1    2    0    0 -0.45116113550E+02 -0.67575232517E+02  0.50974899918E+02  0.12300128525E+03  0.77000000000E+02 0.  0.
   -5000001    1    1    2    0    0  0.45116113550E+02  0.67575232517E+02  0.37369371993E+02  0.11801417591E+03  0.77000000000E+02 0.  0.
<mgrwt>
<rscale>  0 0.22424037E+03</rscale>
<asrwt>0</asrwt>
<pdfrwt beam="1">  1        2 0.10905085E-01 0.22424037E+03</pdfrwt>
<pdfrwt beam="2">  1       -2 0.23525695E-01 0.22424037E+03</pdfrwt>
<totfact> 0.88999824E+03</totfact>
</mgrwt>
</event>
<event>
 4    1  0.5562790E-004  0.2474547E+03  0.7818608E-02  0.1114924E+00
         -2   -1    0    0    0  501 -0.00000000000E+00  0.00000000000E+00  0.12994371894E+02  0.12994372144E+02  0.25500000000E-02 0. -1.
          2   -1    0    0  501    0  0.00000000000E+00 -0.00000000000E+00 -0.11780835637E+04  0.11780835637E+04  0.25500000000E-02 0.  1.
    5000001    1    1    2    0    0  0.18629939306E+02  0.76002175789E+02 -0.85720121463E+03  0.86420271217E+03  0.77000000000E+02 0.  0.
   -5000001    1    1    2    0    0 -0.18629939306E+02 -0.76002175789E+02 -0.30788797719E+03  0.32687522369E+03  0.77000000000E+02 0.  0.
<mgrwt>
<rscale>  0 0.24745469E+03</rscale>
<asrwt>0</asrwt>
<pdfrwt beam="1">  1        2 0.16829758E+00 0.24745469E+03</pdfrwt>
<pdfrwt beam="2">  1       -2 0.18563396E-02 0.24745469E+03</pdfrwt>
<totfact> 0.19734104E+04</totfact>
</mgrwt>
</event>
<event>
 4    1  0.5562790E-004  0.2172230E+03  0.7818608E-02  0.1135971E+00
         -2   -1    0    0    0  501 -0.00000000000E+00  0.00000000000E+00  0.11612936852E+02  0.11612937132E+02  0.25500000000E-02 0. -1.
          2   -1    0    0  501    0  0.00000000000E+00 -0.00000000000E+00 -0.10158029224E+04  0.10158029225E+04  0.25500000000E-02 0.  1.
    5000001    1    1    2    0    0  0.27733534134E+02 -0.48851960801E+02 -0.74839743682E+03  0.75444243414E+03  0.77000000000E+02 0.  0.
   -5000001    1    1    2    0    0 -0.27733534134E+02  0.48851960801E+02 -0.25579254878E+03  0.27297342545E+03  0.77000000000E+02 0.  0.
<mgrwt>
<rscale>  0 0.21722298E+03</rscale>
<asrwt>0</asrwt>
<pdfrwt beam="1">  1        2 0.14511465E+00 0.21722298E+03</pdfrwt>
<pdfrwt beam="2">  1       -2 0.16589916E-02 0.21722298E+03</pdfrwt>
<totfact> 0.28484902E+04</totfact>
</mgrwt>
</event>
<event>
 4    1  0.5562790E-004  0.2807070E+03  0.7818608E-02  0.1095303E+00
         -2   -1    0    0    0  501 -0.00000000000E+00  0.00000000000E+00  0.53339622553E+03  0.53339622553E+03  0.25500000000E-02 0. -1.
          2   -1    0    0  501    0  0.00000000000E+00 -0.00000000000E+00 -0.36931465241E+02  0.36931465329E+02  0.25500000000E-02 0.  1.
    5000001    1    1    2    0    0 -0.89212322418E+02 -0.64114780097E+02  0.16444718375E+03  0.21222963917E+03  0.77000000000E+02 0.  0.
   -5000001    1    1    2    0    0  0.89212322418E+02  0.64114780097E+02  0.33201757653E+03  0.35809805169E+03  0.77000000000E+02 0.  0.
<mgrwt>
<rscale>  0 0.28070699E+03</rscale>
<asrwt>0</asrwt>
<pdfrwt beam="1">  1        2 0.52759240E-02 0.28070699E+03</pdfrwt>
<pdfrwt beam="2">  1       -2 0.76199456E-01 0.28070699E+03</pdfrwt>
<totfact> 0.23191183E+03</totfact>
</mgrwt>
</event>
<event>
 4    1  0.5562790E-004  0.2743522E+03  0.7818608E-02  0.1098814E+00
          2   -1    0    0  501    0  0.00000000000E+00  0.00000000000E+00  0.16940347161E+03  0.16940347163E+03  0.25500000000E-02 0.  1.
         -2   -1    0    0    0  501 -0.00000000000E+00 -0.00000000000E+00 -0.11107971207E+03  0.11107971210E+03  0.25500000000E-02 0. -1.
    5000001    1    1    2    0    0  0.82029841256E+02  0.66262668039E+02  0.72157043090E+02  0.14918201936E+03  0.77000000000E+02 0.  0.
   -5000001    1    1    2    0    0 -0.82029841256E+02 -0.66262668039E+02 -0.13833283548E+02  0.13130116437E+03  0.77000000000E+02 0.  0.
<mgrwt>
<rscale>  0 0.27435225E+03</rscale>
<asrwt>0</asrwt>
<pdfrwt beam="1">  1        2 0.24200496E-01 0.27435225E+03</pdfrwt>
<pdfrwt beam="2">  1       -2 0.15868530E-01 0.27435225E+03</pdfrwt>
<totfact> 0.68953496E+03</totfact>
</mgrwt>
</event>
<event>
 4    1  0.5562790E-004  0.2906889E+03  0.7818608E-02  0.1089990E+00
         -2   -1    0    0    0  501 -0.00000000000E+00  0.00000000000E+00  0.13971371984E+02  0.13971372216E+02  0.25500000000E-02 0. -1.
          2   -1    0    0  501    0  0.00000000000E+00 -0.00000000000E+00 -0.15120207991E+04  0.15120207991E+04  0.25500000000E-02 0.  1.
    5000001    1    1    2    0    0 -0.10782673257E+03 -0.57278612200E+02 -0.65984971343E+03  0.67545398658E+03  0.77000000000E+02 0.  0.
   -5000001    1    1    2    0    0  0.10782673257E+03  0.57278612200E+02 -0.83819971365E+03  0.85053818471E+03  0.77000000000E+02 0.  0.
<mgrwt>
<rscale>  0 0.29068887E+03</rscale>
<asrwt>0</asrwt>
<pdfrwt beam="1">  1        2 0.21600287E+00 0.29068887E+03</pdfrwt>
<pdfrwt beam="2">  1       -2 0.19959113E-02 0.29068887E+03</pdfrwt>
<totfact> 0.11942888E+04</totfact>
</mgrwt>
</event>
<event>
 4    1  0.5562790E-004  0.2898162E+03  0.7818608E-02  0.1090445E+00
          2   -1    0    0  501    0  0.00000000000E+00  0.00000000000E+00  0.38195477982E+03  0.38195477982E+03  0.25500000000E-02 0.  1.
         -2   -1    0    0    0  501 -0.00000000000E+00 -0.00000000000E+00 -0.54976031702E+02  0.54976031761E+02  0.25500000000E-02 0. -1.
    5000001    1    1    2    0    0  0.10547943283E+03  0.60141447530E+02  0.13624977177E+03  0.19808055122E+03  0.77000000000E+02 0.  0.
   -5000001    1    1    2    0    0 -0.10547943283E+03 -0.60141447530E+02  0.19072897634E+03  0.23885026037E+03  0.77000000000E+02 0.  0.
<mgrwt>
<rscale>  0 0.28981620E+03</rscale>
<asrwt>0</asrwt>
<pdfrwt beam="1">  1        2 0.54564968E-01 0.28981620E+03</pdfrwt>
<pdfrwt beam="2">  1       -2 0.78537189E-02 0.28981620E+03</pdfrwt>
<totfact> 0.88266552E+03</totfact>
</mgrwt>
</event>
<event>
 4    1  0.5562790E-004  0.2446054E+03  0.7818608E-02  0.1116762E+00
          2   -1    0    0  501    0  0.00000000000E+00  0.00000000000E+00  0.80544132629E+02  0.80544132669E+02  0.25500000000E-02 0.  1.
         -2   -1    0    0    0  501 -0.00000000000E+00 -0.00000000000E+00 -0.18571125577E+03  0.18571125578E+03  0.25500000000E-02 0. -1.
    5000001    1    1    2    0    0 -0.23030436080E+02 -0.87623255486E+02 -0.83767346598E+02  0.14544484949E+03  0.77000000000E+02 0.  0.
   -5000001    1    1    2    0    0  0.23030436080E+02  0.87623255486E+02 -0.21399776540E+02  0.12081053896E+03  0.77000000000E+02 0.  0.
<mgrwt>
<rscale>  0 0.24460541E+03</rscale>
<asrwt>0</asrwt>
<pdfrwt beam="1">  1        2 0.11506305E-01 0.24460541E+03</pdfrwt>
<pdfrwt beam="2">  1       -2 0.26530179E-01 0.24460541E+03</pdfrwt>
<totfact> 0.67761489E+03</totfact>
</mgrwt>
</event>
<event>
 4    1  0.5562790E-004  0.1870222E+03  0.7818608E-02  0.1161175E+00
         -2   -1    0    0    0  501 -0.00000000000E+00  0.00000000000E+00  0.75508709872E+02  0.75508709915E+02  0.25500000000E-02 0. -1.
          2   -1    0    0  501    0  0.00000000000E+00 -0.00000000000E+00 -0.11580547099E+03  0.11580547102E+03  0.25500000000E-02 0.  1.
    5000001    1    1    2    0    0  0.15679318557E+01  0.49387082328E+02 -0.39925443153E+02  0.99822759540E+02  0.77000000000E+02 0.  0.
   -5000001    1    1    2    0    0 -0.15679318557E+01 -0.49387082328E+02 -0.37131796360E+00  0.91491421391E+02  0.77000000000E+02 0.  0.
<mgrwt>
<rscale>  0 0.18702216E+03</rscale>
<asrwt>0</asrwt>
<pdfrwt beam="1">  1        2 0.16543639E-01 0.18702216E+03</pdfrwt>
<pdfrwt beam="2">  1       -2 0.10786959E-01 0.18702216E+03</pdfrwt>
<totfact> 0.19477437E+04</totfact>
</mgrwt>
</event>
<event>
 4    1  0.5562790E-004  0.1750930E+03  0.7818608E-02  0.1172638E+00
         -2   -1    0    0    0  501 -0.00000000000E+00  0.00000000000E+00  0.64163952803E+01  0.64163957870E+01  0.25500000000E-02 0. -1.
          2   -1    0    0  501    0  0.00000000000E+00 -0.00000000000E+00 -0.11945009722E+04  0.11945009722E+04  0.25500000000E-02 0.  1.
    5000001    1    1    2    0    0  0.68673719364E+01 -0.45926385660E+01 -0.87408871348E+03  0.87751258233E+03  0.77000000000E+02 0.  0.
   -5000001    1    1    2    0    0 -0.68673719364E+01  0.45926385660E+01 -0.31399586346E+03  0.32340478567E+03  0.77000000000E+02 0.  0.
<mgrwt>
<rscale>  0 0.17509301E+03</rscale>
<asrwt>0</asrwt>
<pdfrwt beam="1">  1        2 0.17064285E+00 0.17509301E+03</pdfrwt>
<pdfrwt beam="2">  1       -2 0.91662870E-03 0.17509301E+03</pdfrwt>
<totfact> 0.52603967E+04</totfact>
</mgrwt>
</event>
<event>
 4    1  0.5562790E-004  0.1965383E+03  0.7818608E-02  0.1152693E+00
         -2   -1    0    0    0  501 -0.00000000000E+00  0.00000000000E+00  0.79778813956E+01  0.79778818031E+01  0.25500000000E-02 0. -1.
          2   -1    0    0  501    0  0.00000000000E+00 -0.00000000000E+00 -0.12104495058E+04  0.12104495058E+04  0.25500000000E-02 0.  1.
    5000001    1    1    2    0    0  0.52234805333E+02 -0.16747749434E+02 -0.43501900393E+03  0.44517355692E+03  0.77000000000E+02 0.  0.
   -5000001    1    1    2    0    0 -0.52234805333E+02  0.16747749434E+02 -0.76745262046E+03  0.77325383067E+03  0.77000000000E+02 0.  0.
<mgrwt>
<rscale>  0 0.19653827E+03</rscale>
<asrwt>0</asrwt>
<pdfrwt beam="1">  1        2 0.17292124E+00 0.19653827E+03</pdfrwt>
<pdfrwt beam="2">  1       -2 0.11396981E-02 0.19653827E+03</pdfrwt>
<totfact> 0.38029698E+04</totfact>
</mgrwt>
</event>
<event>
 4    1  0.5562790E-004  0.4109279E+03  0.7818608E-02  0.1040060E+00
         -2   -1    0    0    0  501 -0.00000000000E+00  0.00000000000E+00  0.32800573105E+02  0.32800573204E+02  0.25500000000E-02 0. -1.
          2   -1    0    0  501    0  0.00000000000E+00 -0.00000000000E+00 -0.12870331472E+04  0.12870331472E+04  0.25500000000E-02 0.  1.
    5000001    1    1    2    0    0  0.19022085349E+03 -0.92861033050E+00 -0.59474365493E+03  0.62915328061E+03  0.77000000000E+02 0.  0.
   -5000001    1    1    2    0    0 -0.19022085349E+03  0.92861033050E+00 -0.65948891912E+03  0.69068043975E+03  0.77000000000E+02 0.  0.
<mgrwt>
<rscale>  0 0.41092785E+03</rscale>
<asrwt>0</asrwt>
<pdfrwt beam="1">  1        2 0.18386185E+00 0.41092785E+03</pdfrwt>
<pdfrwt beam="2">  1       -2 0.46857970E-02 0.41092785E+03</pdfrwt>
<totfact> 0.43679091E+03</totfact>
</mgrwt>
</event>
<event>
 4    1  0.5562790E-004  0.1808683E+03  0.7818608E-02  0.1166965E+00
         -2   -1    0    0    0  501 -0.00000000000E+00  0.00000000000E+00  0.11682598698E+03  0.11682598701E+03  0.25500000000E-02 0. -1.
          2   -1    0    0  501    0  0.00000000000E+00 -0.00000000000E+00 -0.70004409585E+02  0.70004409631E+02  0.25500000000E-02 0.  1.
    5000001    1    1    2    0    0 -0.10695109338E+02 -0.42322509201E+02  0.42562564812E+02  0.98214826132E+02  0.77000000000E+02 0.  0.
   -5000001    1    1    2    0    0  0.10695109338E+02  0.42322509201E+02  0.42590125874E+01  0.88615570511E+02  0.77000000000E+02 0.  0.
<mgrwt>
<rscale>  0 0.18086829E+03</rscale>
<asrwt>0</asrwt>
<pdfrwt beam="1">  1        2 0.10000630E-01 0.18086829E+03</pdfrwt>
<pdfrwt beam="2">  1       -2 0.16689427E-01 0.18086829E+03</pdfrwt>
<totfact> 0.17486040E+04</totfact>
</mgrwt>
</event>
<event>
 4    1  0.5562790E-004  0.2980850E+03  0.7818608E-02  0.1086202E+00
          2   -1    0    0  501    0  0.00000000000E+00  0.00000000000E+00  0.49815544713E+03  0.49815544714E+03  0.25500000000E-02 0.  1.
         -2   -1    0    0    0  501 -0.00000000000E+00 -0.00000000000E+00 -0.44591833250E+02  0.44591833323E+02  0.25500000000E-02 0. -1.
    5000001    1    1    2    0    0  0.12570864335E+03  0.11491093588E+02  0.19272024730E+03  0.24290904051E+03  0.77000000000E+02 0.  0.
   -5000001    1    1    2    0    0 -0.12570864335E+03 -0.11491093588E+02  0.26084336658E+03  0.29983823995E+03  0.77000000000E+02 0.  0.
<mgrwt>
<rscale>  0 0.29808499E+03</rscale>
<asrwt>0</asrwt>
<pdfrwt beam="1">  1        2 0.71165058E-01 0.29808499E+03</pdfrwt>
<pdfrwt beam="2">  1       -2 0.63702625E-02 0.29808499E+03</pdfrwt>
<totfact> 0.91489798E+03</totfact>
</mgrwt>
</event>
<event>
 4    1  0.5562790E-004  0.2200634E+03  0.7818608E-02  0.1133836E+00
         -2   -1    0    0    0  501 -0.00000000000E+00  0.00000000000E+00  0.27332326087E+02  0.27332326206E+02  0.25500000000E-02 0. -1.
          2   -1    0    0  501    0  0.00000000000E+00 -0.00000000000E+00 -0.44295462844E+03  0.44295462844E+03  0.25500000000E-02 0.  1.
    5000001    1    1    2    0    0  0.40836647579E+02  0.61892474272E+02 -0.15209717714E+03  0.18590551753E+03  0.77000000000E+02 0.  0.
   -5000001    1    1    2    0    0 -0.40836647579E+02 -0.61892474272E+02 -0.26352512521E+03  0.28438143712E+03  0.77000000000E+02 0.  0.
<mgrwt>
<rscale>  0 0.22006345E+03</rscale>
<asrwt>0</asrwt>
<pdfrwt beam="1">  1        2 0.63279228E-01 0.22006345E+03</pdfrwt>
<pdfrwt beam="2">  1       -2 0.39046183E-02 0.22006345E+03</pdfrwt>
<totfact> 0.21541963E+04</totfact>
</mgrwt>
</event>
<event>
 4    1  0.5562790E-004  0.2011915E+03  0.7818608E-02  0.1148738E+00
          2   -1    0    0  501    0  0.00000000000E+00  0.00000000000E+00  0.69633548092E+01  0.69633552762E+01  0.25500000000E-02 0.  1.
         -2   -1    0    0    0  501 -0.00000000000E+00 -0.00000000000E+00 -0.14532520081E+04  0.14532520081E+04  0.25500000000E-02 0. -1.
    5000001    1    1    2    0    0  0.47240373262E+02  0.18852608033E+02 -0.10137693454E+04  0.10179608830E+04  0.77000000000E+02 0.  0.
   -5000001    1    1    2    0    0 -0.47240373262E+02 -0.18852608033E+02 -0.43251930795E+03  0.44225448041E+03  0.77000000000E+02 0.  0.
<mgrwt>
<rscale>  0 0.20119155E+03</rscale>
<asrwt>0</asrwt>
<pdfrwt beam="1">  1        2 0.99476593E-03 0.20119155E+03</pdfrwt>
<pdfrwt beam="2">  1       -2 0.20760724E+00 0.20119155E+03</pdfrwt>
<totfact> 0.18498184E+03</totfact>
</mgrwt>
</event>
<event>
 4    1  0.5562790E-004  0.1836155E+03  0.7818608E-02  0.1164349E+00
          2   -1    0    0  501    0  0.00000000000E+00  0.00000000000E+00  0.26960954875E+03  0.26960954876E+03  0.25500000000E-02 0.  1.
         -2   -1    0    0    0  501 -0.00000000000E+00 -0.00000000000E+00 -0.31262469842E+02  0.31262469946E+02  0.25500000000E-02 0. -1.
    5000001    1    1    2    0    0  0.33098209599E+02  0.27467566307E+02  0.77406899675E+02  0.11734899571E+03  0.77000000000E+02 0.  0.
   -5000001    1    1    2    0    0 -0.33098209599E+02 -0.27467566307E+02  0.16094017923E+03  0.18352302299E+03  0.77000000000E+02 0.  0.
<mgrwt>
<rscale>  0 0.18361547E+03</rscale>
<asrwt>0</asrwt>
<pdfrwt beam="1">  1        2 0.38515649E-01 0.18361547E+03</pdfrwt>
<pdfrwt beam="2">  1       -2 0.44660672E-02 0.18361547E+03</pdfrwt>
<totfact> 0.29571758E+04</totfact>
</mgrwt>
</event>
<event>
 4    1  0.5562790E-004  0.2722627E+03  0.7818608E-02  0.1099992E+00
          2   -1    0    0  501    0  0.00000000000E+00  0.00000000000E+00  0.23112660417E+03  0.23112660418E+03  0.25500000000E-02 0.  1.
         -2   -1    0    0    0  501 -0.00000000000E+00 -0.00000000000E+00 -0.80180063902E+02  0.80180063942E+02  0.25500000000E-02 0. -1.
    5000001    1    1    2    0    0 -0.78212853781E+01 -0.10402732666E+03  0.12289205615E+03  0.17864577986E+03  0.77000000000E+02 0.  0.
   -5000001    1    1    2    0    0  0.78212853781E+01  0.10402732666E+03  0.28054484120E+02  0.13266088827E+03  0.77000000000E+02 0.  0.
<mgrwt>
<rscale>  0 0.27226271E+03</rscale>
<asrwt>0</asrwt>
<pdfrwt beam="1">  1        2 0.33018087E-01 0.27226271E+03</pdfrwt>
<pdfrwt beam="2">  1       -2 0.11454295E-01 0.27226271E+03</pdfrwt>
<totfact> 0.83323078E+03</totfact>
</mgrwt>
</event>
<event>
 4    1  0.5562790E-004  0.3103734E+03  0.7818608E-02  0.1080167E+00
          2   -1    0    0  501    0  0.00000000000E+00  0.00000000000E+00  0.98351789328E+02  0.98351789361E+02  0.25500000000E-02 0.  1.
         -2   -1    0    0    0  501 -0.00000000000E+00 -0.00000000000E+00 -0.24486500695E+03  0.24486500696E+03  0.25500000000E-02 0. -1.
    5000001    1    1    2    0    0  0.12875264143E+03 -0.36739997793E+02 -0.89911633115E+02  0.17871813529E+03  0.77000000000E+02 0.  0.
   -5000001    1    1    2    0    0 -0.12875264143E+03  0.36739997793E+02 -0.56601584504E+02  0.16449866103E+03  0.77000000000E+02 0.  0.
<mgrwt>
<rscale>  0 0.31037340E+03</rscale>
<asrwt>0</asrwt>
<pdfrwt beam="1">  1        2 0.14050256E-01 0.31037340E+03</pdfrwt>
<pdfrwt beam="2">  1       -2 0.34980715E-01 0.31037340E+03</pdfrwt>
<totfact> 0.32436675E+03</totfact>
</mgrwt>
</event>
<event>
 4    1  0.5562790E-004  0.2113557E+03  0.7818608E-02  0.1140497E+00
          2   -1    0    0  501    0  0.00000000000E+00  0.00000000000E+00  0.35100006630E+03  0.35100006631E+03  0.25500000000E-02 0.  1.
         -2   -1    0    0    0  501 -0.00000000000E+00 -0.00000000000E+00 -0.31817116109E+02  0.31817116211E+02  0.25500000000E-02 0. -1.
    5000001    1    1    2    0    0 -0.73303088232E+01  0.35353847213E+02  0.45970155374E+02  0.96674107833E+02  0.77000000000E+02 0.  0.
   -5000001    1    1    2    0    0  0.73303088232E+01 -0.35353847213E+02  0.27321279482E+03  0.28614307469E+03  0.77000000000E+02 0.  0.
<mgrwt>
<rscale>  0 0.21135572E+03</rscale>
<asrwt>0</asrwt>
<pdfrwt beam="1">  1        2 0.50142862E-01 0.21135572E+03</pdfrwt>
<pdfrwt beam="2">  1       -2 0.45453027E-02 0.21135572E+03</pdfrwt>
<totfact> 0.21965526E+04</totfact>
</mgrwt>
</event>
<event>
 4    1  0.5562790E-004  0.1711478E+03  0.7818608E-02  0.1176656E+00
         -2   -1    0    0    0  501 -0.00000000000E+00  0.00000000000E+00  0.27338418887E+01  0.27338430780E+01  0.25500000000E-02 0. -1.
          2   -1    0    0  501    0  0.00000000000E+00 -0.00000000000E+00 -0.26786073902E+04  0.26786073902E+04  0.25500000000E-02 0.  1.
    5000001    1    1    2    0    0  0.20115387451E+02  0.31159945496E+02 -0.12708804713E+04  0.12737510524E+04  0.77000000000E+02 0.  0.
   -5000001    1    1    2    0    0 -0.20115387451E+02 -0.31159945496E+02 -0.14049930770E+04  0.14075901809E+04  0.77000000000E+02 0.  0.
<mgrwt>
<rscale>  0 0.17114778E+03</rscale>
<asrwt>0</asrwt>
<pdfrwt beam="1">  1        2 0.38265652E+00 0.17114778E+03</pdfrwt>
<pdfrwt beam="2">  1       -2 0.39055064E-03 0.17114778E+03</pdfrwt>
<totfact> 0.33140140E+04</totfact>
</mgrwt>
</event>
<event>
 4    1  0.5562790E-004  0.2239868E+03  0.7818608E-02  0.1130945E+00
          2   -1    0    0  501    0  0.00000000000E+00  0.00000000000E+00  0.13826228968E+03  0.13826228971E+03  0.25500000000E-02 0.  1.
         -2   -1    0    0    0  501 -0.00000000000E+00 -0.00000000000E+00 -0.90715438315E+02  0.90715438350E+02  0.25500000000E-02 0. -1.
    5000001    1    1    2    0    0  0.66744768507E+02 -0.44849261461E+02  0.11370322883E+02  0.11191337998E+03  0.77000000000E+02 0.  0.
   -5000001    1    1    2    0    0 -0.66744768507E+02  0.44849261461E+02  0.36176528485E+02  0.11706434807E+03  0.77000000000E+02 0.  0.
<mgrwt>
<rscale>  0 0.22398682E+03</rscale>
<asrwt>0</asrwt>
<pdfrwt beam="1">  1        2 0.19751756E-01 0.22398682E+03</pdfrwt>
<pdfrwt beam="2">  1       -2 0.12959348E-01 0.22398682E+03</pdfrwt>
<totfact> 0.11977850E+04</totfact>
</mgrwt>
</event>
<event>
 4    1  0.5562790E-004  0.2634772E+03  0.7818608E-02  0.1105072E+00
          2   -1    0    0  501    0  0.00000000000E+00  0.00000000000E+00  0.29389673227E+03  0.29389673228E+03  0.25500000000E-02 0.  1.
         -2   -1    0    0    0  501 -0.00000000000E+00 -0.00000000000E+00 -0.59051557531E+02  0.59051557586E+02  0.25500000000E-02 0. -1.
    5000001    1    1    2    0    0  0.30210692842E+02  0.10183957563E+03  0.10145547539E+03  0.16584992798E+03  0.77000000000E+02 0.  0.
   -5000001    1    1    2    0    0 -0.30210692842E+02 -0.10183957563E+03  0.13338969936E+03  0.18709836189E+03  0.77000000000E+02 0.  0.
<mgrwt>
<rscale>  0 0.26347721E+03</rscale>
<asrwt>0</asrwt>
<pdfrwt beam="1">  1        2 0.41985247E-01 0.26347721E+03</pdfrwt>
<pdfrwt beam="2">  1       -2 0.84359369E-02 0.26347721E+03</pdfrwt>
<totfact> 0.10423449E+04</totfact>
</mgrwt>
</event>
<event>
 4    1  0.5562790E-004  0.3850155E+03  0.7818608E-02  0.1049095E+00
          2   -1    0    0  501    0  0.00000000000E+00  0.00000000000E+00  0.36512716905E+03  0.36512716905E+03  0.25500000000E-02 0.  1.
         -2   -1    0    0    0  501 -0.00000000000E+00 -0.00000000000E+00 -0.10149680939E+03  0.10149680943E+03  0.25500000000E-02 0. -1.
    5000001    1    1    2    0    0 -0.76478752670E+02 -0.15546040996E+03  0.91376620593E+02  0.21046525953E+03  0.77000000000E+02 0.  0.
   -5000001    1    1    2    0    0  0.76478752670E+02  0.15546040996E+03  0.17225373906E+03  0.25615871895E+03  0.77000000000E+02 0.  0.
<mgrwt>
<rscale>  0 0.38501555E+03</rscale>
<asrwt>0</asrwt>
<pdfrwt beam="1">  1        2 0.52161025E-01 0.38501555E+03</pdfrwt>
<pdfrwt beam="2">  1       -2 0.14499544E-01 0.38501555E+03</pdfrwt>
<totfact> 0.34875482E+03</totfact>
</mgrwt>
</event>
<event>
 4    1  0.5562790E-004  0.1830236E+03  0.7818608E-02  0.1164908E+00
          2   -1    0    0  501    0  0.00000000000E+00  0.00000000000E+00  0.20211490133E+03  0.20211490135E+03  0.25500000000E-02 0.  1.
         -2   -1    0    0    0  501 -0.00000000000E+00 -0.00000000000E+00 -0.41433909645E+02  0.41433909723E+02  0.25500000000E-02 0. -1.
    5000001    1    1    2    0    0 -0.35950783587E+02  0.26826451842E+02  0.52641129363E+02  0.10349978676E+03  0.77000000000E+02 0.  0.
   -5000001    1    1    2    0    0  0.35950783587E+02 -0.26826451842E+02  0.10803986232E+03  0.14004902431E+03  0.77000000000E+02 0.  0.
<mgrwt>
<rscale>  0 0.18302361E+03</rscale>
<asrwt>0</asrwt>
<pdfrwt beam="1">  1        2 0.28873557E-01 0.18302361E+03</pdfrwt>
<pdfrwt beam="2">  1       -2 0.59191300E-02 0.18302361E+03</pdfrwt>
<totfact> 0.26373763E+04</totfact>
</mgrwt>
</event>
<event>
 4    1  0.5562790E-004  0.3384494E+03  0.7818608E-02  0.1067458E+00
         -2   -1    0    0    0  501 -0.00000000000E+00  0.00000000000E+00  0.19517530309E+02  0.19517530476E+02  0.25500000000E-02 0. -1.
          2   -1    0    0  501    0  0.00000000000E+00 -0.00000000000E+00 -0.14672452327E+04  0.14672452327E+04  0.25500000000E-02 0.  1.
    5000001    1    1    2    0    0  0.11440894385E+03 -0.12385324209E+02 -0.29648521538E+03  0.32722360188E+03  0.77000000000E+02 0.  0.
   -5000001    1    1    2    0    0 -0.11440894385E+03  0.12385324209E+02 -0.11512424870E+04  0.11595391613E+04  0.77000000000E+02 0.  0.
<mgrwt>
<rscale>  0 0.33844943E+03</rscale>
<asrwt>0</asrwt>
<pdfrwt beam="1">  1        2 0.20960639E+00 0.33844943E+03</pdfrwt>
<pdfrwt beam="2">  1       -2 0.27882196E-02 0.33844943E+03</pdfrwt>
<totfact> 0.76880806E+03</totfact>
</mgrwt>
</event>
<event>
 4    1  0.5562790E-004  0.5317476E+03  0.7818608E-02  0.1005809E+00
         -2   -1    0    0    0  501 -0.00000000000E+00  0.00000000000E+00  0.11592253931E+03  0.11592253934E+03  0.25500000000E-02 0. -1.
          2   -1    0    0  501    0  0.00000000000E+00 -0.00000000000E+00 -0.60979410807E+03  0.60979410808E+03  0.25500000000E-02 0.  1.
    5000001    1    1    2    0    0  0.39457823050E+02 -0.22684885457E+03 -0.39482718022E+03  0.46350277761E+03  0.77000000000E+02 0.  0.
   -5000001    1    1    2    0    0 -0.39457823050E+02  0.22684885457E+03 -0.99044388542E+02  0.26221386981E+03  0.77000000000E+02 0.  0.
<mgrwt>
<rscale>  0 0.53174761E+03</rscale>
<asrwt>0</asrwt>
<pdfrwt beam="1">  1        2 0.87113442E-01 0.53174761E+03</pdfrwt>
<pdfrwt beam="2">  1       -2 0.16560363E-01 0.53174761E+03</pdfrwt>
<totfact> 0.15732236E+03</totfact>
</mgrwt>
</event>
<event>
 4    1  0.5562790E-004  0.2519198E+03  0.7818608E-02  0.1112098E+00
         -2   -1    0    0    0  501 -0.00000000000E+00  0.00000000000E+00  0.46621902177E+02  0.46621902246E+02  0.25500000000E-02 0. -1.
          2   -1    0    0  501    0  0.00000000000E+00 -0.00000000000E+00 -0.34030997038E+03  0.34030997039E+03  0.25500000000E-02 0.  1.
    5000001    1    1    2    0    0 -0.67073316602E+02 -0.60228264852E+02 -0.81487897490E+02  0.14385948396E+03  0.77000000000E+02 0.  0.
   -5000001    1    1    2    0    0  0.67073316602E+02  0.60228264852E+02 -0.21220017071E+03  0.24307238867E+03  0.77000000000E+02 0.  0.
<mgrwt>
<rscale>  0 0.25191981E+03</rscale>
<asrwt>0</asrwt>
<pdfrwt beam="1">  1        2 0.48615708E-01 0.25191981E+03</pdfrwt>
<pdfrwt beam="2">  1       -2 0.66602720E-02 0.25191981E+03</pdfrwt>
<totfact> 0.12827784E+04</totfact>
</mgrwt>
</event>
<event>
 4    1  0.5562790E-004  0.4859430E+03  0.7818608E-02  0.1017515E+00
         -2   -1    0    0    0  501 -0.00000000000E+00  0.00000000000E+00  0.41508481304E+02  0.41508481382E+02  0.25500000000E-02 0. -1.
          2   -1    0    0  501    0  0.00000000000E+00 -0.00000000000E+00 -0.14222429712E+04  0.14222429712E+04  0.25500000000E-02 0.  1.
    5000001    1    1    2    0    0  0.18526295453E+03 -0.13089973689E+03 -0.81268737503E+03  0.84725844520E+03  0.77000000000E+02 0.  0.
   -5000001    1    1    2    0    0 -0.18526295453E+03  0.13089973689E+03 -0.56804711483E+03  0.61649300735E+03  0.77000000000E+02 0.  0.
<mgrwt>
<rscale>  0 0.48594298E+03</rscale>
<asrwt>0</asrwt>
<pdfrwt beam="1">  1        2 0.20317754E+00 0.48594298E+03</pdfrwt>
<pdfrwt beam="2">  1       -2 0.59297839E-02 0.48594298E+03</pdfrwt>
<totfact> 0.25738184E+03</totfact>
</mgrwt>
</event>
<event>
 4    1  0.5562790E-004  0.2033793E+03  0.7818608E-02  0.1146919E+00
          2   -1    0    0  501    0  0.00000000000E+00  0.00000000000E+00  0.31157944437E+03  0.31157944438E+03  0.25500000000E-02 0.  1.
         -2   -1    0    0    0  501 -0.00000000000E+00 -0.00000000000E+00 -0.33188278846E+02  0.33188278944E+02  0.25500000000E-02 0. -1.
    5000001    1    1    2    0    0  0.11635721688E+02  0.17560435832E+02  0.24597981429E+03  0.25860941198E+03  0.77000000000E+02 0.  0.
   -5000001    1    1    2    0    0 -0.11635721688E+02 -0.17560435832E+02  0.32411351239E+02  0.86158311351E+02  0.77000000000E+02 0.  0.
<mgrwt>
<rscale>  0 0.20337931E+03</rscale>
<asrwt>0</asrwt>
<pdfrwt beam="1">  1        2 0.44511348E-01 0.20337931E+03</pdfrwt>
<pdfrwt beam="2">  1       -2 0.47411828E-02 0.20337931E+03</pdfrwt>
<totfact> 0.23347126E+04</totfact>
</mgrwt>
</event>
<event>
 4    1  0.5562790E-004  0.2651154E+03  0.7818608E-02  0.1104108E+00
          2   -1    0    0  501    0  0.00000000000E+00  0.00000000000E+00  0.46130500819E+03  0.46130500819E+03  0.25500000000E-02 0.  1.
         -2   -1    0    0    0  501 -0.00000000000E+00 -0.00000000000E+00 -0.38090954477E+02  0.38090954562E+02  0.25500000000E-02 0. -1.
    5000001    1    1    2    0    0 -0.11696784252E+02 -0.86647711966E+02  0.33071103608E+03  0.35063289939E+03  0.77000000000E+02 0.  0.
   -5000001    1    1    2    0    0  0.11696784252E+02  0.86647711966E+02  0.92503017631E+02  0.14876306336E+03  0.77000000000E+02 0.  0.
<mgrwt>
<rscale>  0 0.26511543E+03</rscale>
<asrwt>0</asrwt>
<pdfrwt beam="1">  1        2 0.65900714E-01 0.26511543E+03</pdfrwt>
<pdfrwt beam="2">  1       -2 0.54415651E-02 0.26511543E+03</pdfrwt>
<totfact> 0.12617023E+04</totfact>
</mgrwt>
</event>
<event>
 4    1  0.5562790E-004  0.2610422E+03  0.7818608E-02  0.1106519E+00
          2   -1    0    0  501    0  0.00000000000E+00  0.00000000000E+00  0.23940554200E+03  0.23940554202E+03  0.25500000000E-02 0.  1.
         -2   -1    0    0    0  501 -0.00000000000E+00 -0.00000000000E+00 -0.71158585913E+02  0.71158585959E+02  0.25500000000E-02 0. -1.
    5000001    1    1    2    0    0 -0.72140163264E+02 -0.73301723476E+02  0.11149747778E+03  0.17011182608E+03  0.77000000000E+02 0.  0.
   -5000001    1    1    2    0    0  0.72140163264E+02  0.73301723476E+02  0.56749478313E+02  0.14045230190E+03  0.77000000000E+02 0.  0.
<mgrwt>
<rscale>  0 0.26104222E+03</rscale>
<asrwt>0</asrwt>
<pdfrwt beam="1">  1        2 0.34200792E-01 0.26104222E+03</pdfrwt>
<pdfrwt beam="2">  1       -2 0.10165512E-01 0.26104222E+03</pdfrwt>
<totfact> 0.96871590E+03</totfact>
</mgrwt>
</event>
<event>
 4    1  0.5562790E-004  0.1680771E+03  0.7818608E-02  0.1179868E+00
         -2   -1    0    0    0  501 -0.00000000000E+00  0.00000000000E+00  0.68910166660E+01  0.68910171378E+01  0.25500000000E-02 0. -1.
          2   -1    0    0  501    0  0.00000000000E+00 -0.00000000000E+00 -0.10248817078E+04  0.10248817078E+04  0.25500000000E-02 0.  1.
    5000001    1    1    2    0    0 -0.27686999270E+02 -0.22111615363E+01 -0.62579474428E+03  0.63112559854E+03  0.77000000000E+02 0.  0.
   -5000001    1    1    2    0    0  0.27686999270E+02  0.22111615363E+01 -0.39219594681E+03  0.40064712636E+03  0.77000000000E+02 0.  0.
<mgrwt>
<rscale>  0 0.16807709E+03</rscale>
<asrwt>0</asrwt>
<pdfrwt beam="1">  1        2 0.14641158E+00 0.16807709E+03</pdfrwt>
<pdfrwt beam="2">  1       -2 0.98443164E-03 0.16807709E+03</pdfrwt>
<totfact> 0.58708676E+04</totfact>
</mgrwt>
</event>
<event>
 4    1  0.5562790E-004  0.1610286E+03  0.7818608E-02  0.1187540E+00
          2   -1    0    0  501    0  0.00000000000E+00  0.00000000000E+00  0.15318296356E+02  0.15318296568E+02  0.25500000000E-02 0.  1.
         -2   -1    0    0    0  501 -0.00000000000E+00 -0.00000000000E+00 -0.42319029040E+03  0.42319029041E+03  0.25500000000E-02 0. -1.
    5000001    1    1    2    0    0  0.21197283890E+01  0.16239414476E+02 -0.24993604189E+03  0.26204052524E+03  0.77000000000E+02 0.  0.
   -5000001    1    1    2    0    0 -0.21197283890E+01 -0.16239414476E+02 -0.15793595215E+03  0.17646806174E+03  0.77000000000E+02 0.  0.
<mgrwt>
<rscale>  0 0.16102862E+03</rscale>
<asrwt>0</asrwt>
<pdfrwt beam="1">  1        2 0.21883283E-02 0.16102862E+03</pdfrwt>
<pdfrwt beam="2">  1       -2 0.60455749E-01 0.16102862E+03</pdfrwt>
<totfact> 0.11960480E+04</totfact>
</mgrwt>
</event>
<event>
 4    1  0.5562790E-004  0.1685564E+03  0.7818608E-02  0.1179362E+00
          2   -1    0    0  501    0  0.00000000000E+00  0.00000000000E+00  0.54052660033E+03  0.54052660034E+03  0.25500000000E-02 0.  1.
         -2   -1    0    0    0  501 -0.00000000000E+00 -0.00000000000E+00 -0.13140542016E+02  0.13140542264E+02  0.25500000000E-02 0. -1.
    5000001    1    1    2    0    0  0.31971108749E+02 -0.12214413835E+02  0.25853180246E+03  0.27191733410E+03  0.77000000000E+02 0.  0.
   -5000001    1    1    2    0    0 -0.31971108749E+02  0.12214413835E+02  0.26885425585E+03  0.28174980850E+03  0.77000000000E+02 0.  0.
<mgrwt>
<rscale>  0 0.16855637E+03</rscale>
<asrwt>0</asrwt>
<pdfrwt beam="1">  1        2 0.77218076E-01 0.16855637E+03</pdfrwt>
<pdfrwt beam="2">  1       -2 0.18772205E-02 0.16855637E+03</pdfrwt>
<totfact> 0.49903748E+04</totfact>
</mgrwt>
</event>
<event>
 4    1  0.5562790E-004  0.1862763E+03  0.7818608E-02  0.1161863E+00
         -2   -1    0    0    0  501 -0.00000000000E+00  0.00000000000E+00  0.53328484257E+01  0.53328490353E+01  0.25500000000E-02 0. -1.
          2   -1    0    0  501    0  0.00000000000E+00 -0.00000000000E+00 -0.16266562691E+04  0.16266562691E+04  0.25500000000E-02 0.  1.
    5000001    1    1    2    0    0 -0.51180245243E+02  0.44805703045E+01 -0.90095603397E+03  0.90569877341E+03  0.77000000000E+02 0.  0.
   -5000001    1    1    2    0    0  0.51180245243E+02 -0.44805703045E+01 -0.72036738668E+03  0.72629034470E+03  0.77000000000E+02 0.  0.
<mgrwt>
<rscale>  0 0.18627627E+03</rscale>
<asrwt>0</asrwt>
<pdfrwt beam="1">  1        2 0.23237915E+00 0.18627627E+03</pdfrwt>
<pdfrwt beam="2">  1       -2 0.76183657E-03 0.18627627E+03</pdfrwt>
<totfact> 0.41582033E+04</totfact>
</mgrwt>
</event>
<event>
 4    1  0.5562790E-004  0.2450336E+03  0.7818608E-02  0.1116484E+00
         -2   -1    0    0    0  501 -0.00000000000E+00  0.00000000000E+00  0.13382753302E+02  0.13382753545E+02  0.25500000000E-02 0. -1.
          2   -1    0    0  501    0  0.00000000000E+00 -0.00000000000E+00 -0.11216199459E+04  0.11216199459E+04  0.25500000000E-02 0.  1.
    5000001    1    1    2    0    0 -0.72308704769E+02  0.57677798624E+02 -0.44787576303E+03  0.46376392308E+03  0.77000000000E+02 0.  0.
   -5000001    1    1    2    0    0  0.72308704769E+02 -0.57677798624E+02 -0.66036142952E+03  0.67123877632E+03  0.77000000000E+02 0.  0.
<mgrwt>
<rscale>  0 0.24503357E+03</rscale>
<asrwt>0</asrwt>
<pdfrwt beam="1">  1        2 0.16023136E+00 0.24503357E+03</pdfrwt>
<pdfrwt beam="2">  1       -2 0.19118226E-02 0.24503357E+03</pdfrwt>
<totfact> 0.20293172E+04</totfact>
</mgrwt>
</event>
<event>
 4    1  0.5562790E-004  0.5804082E+03  0.7818608E-02  0.9946908E-01
          2   -1    0    0  501    0  0.00000000000E+00  0.00000000000E+00  0.99442893611E+03  0.99442893612E+03  0.25500000000E-02 0.  1.
         -2   -1    0    0    0  501 -0.00000000000E+00 -0.00000000000E+00 -0.84690243408E+02  0.84690243446E+02  0.25500000000E-02 0. -1.
    5000001    1    1    2    0    0  0.15161249549E+03 -0.23225346799E+03  0.38626845532E+03  0.48172641796E+03  0.77000000000E+02 0.  0.
   -5000001    1    1    2    0    0 -0.15161249549E+03  0.23225346799E+03  0.52347023738E+03  0.59739276160E+03  0.77000000000E+02 0.  0.
<mgrwt>
<rscale>  0 0.58040823E+03</rscale>
<asrwt>0</asrwt>
<pdfrwt beam="1">  1        2 0.14206127E+00 0.58040823E+03</pdfrwt>
<pdfrwt beam="2">  1       -2 0.12098606E-01 0.58040823E+03</pdfrwt>
<totfact> 0.14275455E+03</totfact>
</mgrwt>
</event>
<event>
 4    1  0.5562790E-004  0.2241844E+03  0.7818608E-02  0.1130801E+00
          2   -1    0    0  501    0  0.00000000000E+00  0.00000000000E+00  0.12641156667E+04  0.12641156667E+04  0.25500000000E-02 0. -1.
         -2   -1    0    0    0  501 -0.00000000000E+00 -0.00000000000E+00 -0.99394861446E+01  0.99394864717E+01  0.25500000000E-02 0.  1.
    5000001    1    1    2    0    0 -0.64920499734E+02 -0.37507032317E+02  0.44610118909E+03  0.45886459840E+03  0.77000000000E+02 0.  0.
   -5000001    1    1    2    0    0  0.64920499734E+02  0.37507032317E+02  0.80807499151E+03  0.81519055482E+03  0.77000000000E+02 0.  0.
<mgrwt>
<rscale>  0 0.22418439E+03</rscale>
<asrwt>0</asrwt>
<pdfrwt beam="1">  1        2 0.18058807E+00 0.22418439E+03</pdfrwt>
<pdfrwt beam="2">  1       -2 0.14199257E-02 0.22418439E+03</pdfrwt>
<totfact> 0.26110808E+04</totfact>
</mgrwt>
</event>
<event>
 4    1  0.5562790E-004  0.4291235E+03  0.7818608E-02  0.1034137E+00
          2   -1    0    0  501    0  0.00000000000E+00  0.00000000000E+00  0.20507542445E+03  0.20507542446E+03  0.25500000000E-02 0.  1.
         -2   -1    0    0    0  501 -0.00000000000E+00 -0.00000000000E+00 -0.22448685294E+03  0.22448685295E+03  0.25500000000E-02 0. -1.
    5000001    1    1    2    0    0 -0.13031907472E+03  0.23908636107E+02  0.14062459158E+03  0.20798788396E+03  0.77000000000E+02 0.  0.
   -5000001    1    1    2    0    0  0.13031907472E+03 -0.23908636107E+02 -0.16003602007E+03  0.22157439346E+03  0.77000000000E+02 0.  0.
<mgrwt>
<rscale>  0 0.42912346E+03</rscale>
<asrwt>0</asrwt>
<pdfrwt beam="1">  1        2 0.29296489E-01 0.42912346E+03</pdfrwt>
<pdfrwt beam="2">  1       -2 0.32069550E-01 0.42912346E+03</pdfrwt>
<totfact> 0.16420112E+03</totfact>
</mgrwt>
</event>
<event>
 4    1  0.5562790E-004  0.1825640E+03  0.7818608E-02  0.1165344E+00
         -2   -1    0    0    0  501 -0.00000000000E+00  0.00000000000E+00  0.29353954265E+02  0.29353954375E+02  0.25500000000E-02 0. -1.
          2   -1    0    0  501    0  0.00000000000E+00 -0.00000000000E+00 -0.28385976500E+03  0.28385976501E+03  0.25500000000E-02 0.  1.
    5000001    1    1    2    0    0 -0.45465695618E+02 -0.14839967656E+02 -0.14573506558E+03  0.17162477519E+03  0.77000000000E+02 0.  0.
   -5000001    1    1    2    0    0  0.45465695618E+02  0.14839967656E+02 -0.10877074515E+03  0.14158894420E+03  0.77000000000E+02 0.  0.
<mgrwt>
<rscale>  0 0.18256403E+03</rscale>
<asrwt>0</asrwt>
<pdfrwt beam="1">  1        2 0.40551393E-01 0.18256403E+03</pdfrwt>
<pdfrwt beam="2">  1       -2 0.41934222E-02 0.18256403E+03</pdfrwt>
<totfact> 0.30741347E+04</totfact>
</mgrwt>
</event>
<event>
 4    1  0.5562790E-004  0.2269818E+03  0.7818608E-02  0.1128782E+00
          2   -1    0    0  501    0  0.00000000000E+00  0.00000000000E+00  0.20600965428E+04  0.20600965428E+04  0.25500000000E-02 0.  1.
         -2   -1    0    0    0  501 -0.00000000000E+00 -0.00000000000E+00 -0.62522224513E+01  0.62522229713E+01  0.25500000000E-02 0. -1.
    5000001    1    1    2    0    0 -0.29380743917E+02  0.62244110045E+02  0.59860581005E+03  0.60744997586E+03  0.77000000000E+02 0.  0.
   -5000001    1    1    2    0    0  0.29380743917E+02 -0.62244110045E+02  0.14552385103E+04  0.14588987899E+04  0.77000000000E+02 0.  0.
<mgrwt>
<rscale>  0 0.22698178E+03</rscale>
<asrwt>0</asrwt>
<pdfrwt beam="1">  1        2 0.29429985E+00 0.22698178E+03</pdfrwt>
<pdfrwt beam="2">  1       -2 0.89317364E-03 0.22698178E+03</pdfrwt>
<totfact> 0.20597631E+04</totfact>
</mgrwt>
</event>
<event>
 4    1  0.5562790E-004  0.2300303E+03  0.7818608E-02  0.1126618E+00
          2   -1    0    0  501    0  0.00000000000E+00  0.00000000000E+00  0.44039607738E+03  0.44039607738E+03  0.25500000000E-02 0.  1.
         -2   -1    0    0    0  501 -0.00000000000E+00 -0.00000000000E+00 -0.30037693064E+02  0.30037693172E+02  0.25500000000E-02 0. -1.
    5000001    1    1    2    0    0 -0.73149240371E+02  0.44092710836E+02  0.20083910239E+03  0.23143103415E+03  0.77000000000E+02 0.  0.
   -5000001    1    1    2    0    0  0.73149240371E+02 -0.44092710836E+02  0.20951928192E+03  0.23900273641E+03  0.77000000000E+02 0.  0.
<mgrwt>
<rscale>  0 0.23003028E+03</rscale>
<asrwt>0</asrwt>
<pdfrwt beam="1">  1        2 0.62913721E-01 0.23003028E+03</pdfrwt>
<pdfrwt beam="2">  1       -2 0.42910993E-02 0.23003028E+03</pdfrwt>
<totfact> 0.18870240E+04</totfact>
</mgrwt>
</event>
<event>
 4    1  0.5562790E-004  0.3592453E+03  0.7818608E-02  0.1058883E+00
         -2   -1    0    0    0  501 -0.00000000000E+00  0.00000000000E+00  0.10391248992E+03  0.10391248995E+03  0.25500000000E-02 0. -1.
          2   -1    0    0  501    0  0.00000000000E+00 -0.00000000000E+00 -0.31049483007E+03  0.31049483008E+03  0.25500000000E-02 0.  1.
    5000001    1    1    2    0    0  0.10042374820E+03  0.52409003638E+02 -0.23733970627E+03  0.27402694948E+03  0.77000000000E+02 0.  0.
   -5000001    1    1    2    0    0 -0.10042374820E+03 -0.52409003638E+02  0.30757366121E+02  0.14038037055E+03  0.77000000000E+02 0.  0.
<mgrwt>
<rscale>  0 0.35924527E+03</rscale>
<asrwt>0</asrwt>
<pdfrwt beam="1">  1        2 0.44356404E-01 0.35924527E+03</pdfrwt>
<pdfrwt beam="2">  1       -2 0.14844642E-01 0.35924527E+03</pdfrwt>
<totfact> 0.39945646E+03</totfact>
</mgrwt>
</event>
<event>
 4    1  0.5562790E-004  0.1798370E+03  0.7818608E-02  0.1167961E+00
          2   -1    0    0  501    0  0.00000000000E+00  0.00000000000E+00  0.44283884062E+03  0.44283884063E+03  0.25500000000E-02 0.  1.
         -2   -1    0    0    0  501 -0.00000000000E+00 -0.00000000000E+00 -0.18257957666E+02  0.18257957844E+02  0.25500000000E-02 0. -1.
    5000001    1    1    2    0    0 -0.21351412006E+02  0.41064969466E+02  0.20265647985E+03  0.22167738572E+03  0.77000000000E+02 0.  0.
   -5000001    1    1    2    0    0  0.21351412006E+02 -0.41064969466E+02  0.22192440310E+03  0.23941941275E+03  0.77000000000E+02 0.  0.
<mgrwt>
<rscale>  0 0.17983696E+03</rscale>
<asrwt>0</asrwt>
<pdfrwt beam="1">  1        2 0.63262683E-01 0.17983696E+03</pdfrwt>
<pdfrwt beam="2">  1       -2 0.26082800E-02 0.17983696E+03</pdfrwt>
<totfact> 0.38578156E+04</totfact>
</mgrwt>
</event>
<event>
 4    1  0.5562790E-004  0.2185976E+03  0.7818608E-02  0.1134933E+00
         -2   -1    0    0    0  501 -0.00000000000E+00  0.00000000000E+00  0.84271815394E+01  0.84271819252E+01  0.25500000000E-02 0. -1.
          2   -1    0    0  501    0  0.00000000000E+00 -0.00000000000E+00 -0.14175828984E+04  0.14175828984E+04  0.25500000000E-02 0.  1.
    5000001    1    1    2    0    0  0.48378414883E+02 -0.59861135437E+02 -0.64153213758E+03  0.65070447218E+03  0.77000000000E+02 0.  0.
   -5000001    1    1    2    0    0 -0.48378414883E+02  0.59861135437E+02 -0.76762357923E+03  0.77530560810E+03  0.77000000000E+02 0.  0.
<mgrwt>
<rscale>  0 0.21859761E+03</rscale>
<asrwt>0</asrwt>
<pdfrwt beam="1">  1        2 0.20251169E+00 0.21859761E+03</pdfrwt>
<pdfrwt beam="2">  1       -2 0.12038840E-02 0.21859761E+03</pdfrwt>
<totfact> 0.27594882E+04</totfact>
</mgrwt>
</event>
<event>
 4    1  0.5562790E-004  0.1704941E+03  0.7818608E-02  0.1177334E+00
          2   -1    0    0  501    0  0.00000000000E+00  0.00000000000E+00  0.17900995800E+04  0.17900995800E+04  0.25500000000E-02 0.  1.
         -2   -1    0    0    0  501 -0.00000000000E+00 -0.00000000000E+00 -0.40595836659E+01  0.40595844668E+01  0.25500000000E-02 0. -1.
    5000001    1    1    2    0    0 -0.36402487717E+02 -0.30879835077E+01  0.91237536422E+03  0.91634735880E+03  0.77000000000E+02 0.  0.
   -5000001    1    1    2    0    0  0.36402487717E+02  0.30879835077E+01  0.87366463208E+03  0.87781180563E+03  0.77000000000E+02 0.  0.
<mgrwt>
<rscale>  0 0.17049410E+03</rscale>
<asrwt>0</asrwt>
<pdfrwt beam="1">  1        2 0.25572802E+00 0.17049410E+03</pdfrwt>
<pdfrwt beam="2">  1       -2 0.57994170E-03 0.17049410E+03</pdfrwt>
<totfact> 0.50861531E+04</totfact>
</mgrwt>
</event>
<event>
 4    1  0.5562790E-004  0.2622710E+03  0.7818608E-02  0.1105786E+00
         -2   -1    0    0    0  501 -0.00000000000E+00  0.00000000000E+00  0.11352933183E+02  0.11352933470E+02  0.25500000000E-02 0. -1.
          2   -1    0    0  501    0  0.00000000000E+00 -0.00000000000E+00 -0.15147203952E+04  0.15147203952E+04  0.25500000000E-02 0.  1.
    5000001    1    1    2    0    0  0.54056744067E+02  0.79760869212E+02 -0.49253369062E+03  0.50774241918E+03  0.77000000000E+02 0.  0.
   -5000001    1    1    2    0    0 -0.54056744067E+02 -0.79760869212E+02 -0.10108337714E+04  0.10183309095E+04  0.77000000000E+02 0.  0.
<mgrwt>
<rscale>  0 0.26227100E+03</rscale>
<asrwt>0</asrwt>
<pdfrwt beam="1">  1        2 0.21638850E+00 0.26227100E+03</pdfrwt>
<pdfrwt beam="2">  1       -2 0.16218486E-02 0.26227100E+03</pdfrwt>
<totfact> 0.16098050E+04</totfact>
</mgrwt>
</event>
<event>
 4    1  0.5562790E-004  0.2159377E+03  0.7818608E-02  0.1136948E+00
         -2   -1    0    0    0  501 -0.00000000000E+00  0.00000000000E+00  0.39675715412E+02  0.39675715494E+02  0.25500000000E-02 0. -1.
          2   -1    0    0  501    0  0.00000000000E+00 -0.00000000000E+00 -0.29381386450E+03  0.29381386451E+03  0.25500000000E-02 0.  1.
    5000001    1    1    2    0    0  0.73666560161E+02 -0.88368388044E+01 -0.10398469776E+03  0.14915317353E+03  0.77000000000E+02 0.  0.
   -5000001    1    1    2    0    0 -0.73666560161E+02  0.88368388044E+01 -0.15015345133E+03  0.18433640648E+03  0.77000000000E+02 0.  0.
<mgrwt>
<rscale>  0 0.21593773E+03</rscale>
<asrwt>0</asrwt>
<pdfrwt beam="1">  1        2 0.41973408E-01 0.21593773E+03</pdfrwt>
<pdfrwt beam="2">  1       -2 0.56679595E-02 0.21593773E+03</pdfrwt>
<totfact> 0.19049219E+04</totfact>
</mgrwt>
</event>
<event>
 4    1  0.5562790E-004  0.3530033E+03  0.7818608E-02  0.1061389E+00
          2   -1    0    0  501    0  0.00000000000E+00  0.00000000000E+00  0.57896628315E+03  0.57896628315E+03  0.25500000000E-02 0.  1.
         -2   -1    0    0    0  501 -0.00000000000E+00 -0.00000000000E+00 -0.53807669582E+02  0.53807669642E+02  0.25500000000E-02 0. -1.
    5000001    1    1    2    0    0  0.24705926413E+02  0.12936433109E+03  0.42168528573E+03  0.44843393400E+03  0.77000000000E+02 0.  0.
   -5000001    1    1    2    0    0 -0.24705926413E+02 -0.12936433109E+03  0.10347332783E+03  0.18434001880E+03  0.77000000000E+02 0.  0.
<mgrwt>
<rscale>  0 0.35300327E+03</rscale>
<asrwt>0</asrwt>
<pdfrwt beam="1">  1        2 0.82709474E-01 0.35300327E+03</pdfrwt>
<pdfrwt beam="2">  1       -2 0.76868095E-02 0.35300327E+03</pdfrwt>
<totfact> 0.57971837E+03</totfact>
</mgrwt>
</event>
<event>
 4    1  0.5562790E-004  0.2505758E+03  0.7818608E-02  0.1112941E+00
          2   -1    0    0  501    0  0.00000000000E+00  0.00000000000E+00  0.26072420303E+02  0.26072420428E+02  0.25500000000E-02 0.  1.
         -2   -1    0    0    0  501 -0.00000000000E+00 -0.00000000000E+00 -0.60205618321E+03  0.60205618322E+03  0.25500000000E-02 0. -1.
    5000001    1    1    2    0    0  0.74499696709E+02  0.28285860163E+02 -0.43454012868E+03  0.44844667256E+03  0.77000000000E+02 0.  0.
   -5000001    1    1    2    0    0 -0.74499696709E+02 -0.28285860163E+02 -0.14144363422E+03  0.17968193108E+03  0.77000000000E+02 0.  0.
<mgrwt>
<rscale>  0 0.25057583E+03</rscale>
<asrwt>0</asrwt>
<pdfrwt beam="1">  1        2 0.37246318E-02 0.25057583E+03</pdfrwt>
<pdfrwt beam="2">  1       -2 0.86008018E-01 0.25057583E+03</pdfrwt>
<totfact> 0.28097765E+03</totfact>
</mgrwt>
</event>
<event>
 4    1  0.5562790E-004  0.1670011E+03  0.7818608E-02  0.1181012E+00
          2   -1    0    0  501    0  0.00000000000E+00  0.00000000000E+00  0.20626024331E+02  0.20626024489E+02  0.25500000000E-02 0.  1.
         -2   -1    0    0    0  501 -0.00000000000E+00 -0.00000000000E+00 -0.33803614841E+03  0.33803614842E+03  0.25500000000E-02 0. -1.
    5000001    1    1    2    0    0  0.79432312019E+01  0.27821337164E+02 -0.12786382637E+03  0.15203710013E+03  0.77000000000E+02 0.  0.
   -5000001    1    1    2    0    0 -0.79432312019E+01 -0.27821337164E+02 -0.18954629771E+03  0.20662507277E+03  0.77000000000E+02 0.  0.
<mgrwt>
<rscale>  0 0.16700110E+03</rscale>
<asrwt>0</asrwt>
<pdfrwt beam="1">  1        2 0.29465751E-02 0.16700110E+03</pdfrwt>
<pdfrwt beam="2">  1       -2 0.48290875E-01 0.16700110E+03</pdfrwt>
<totfact> 0.12597606E+04</totfact>
</mgrwt>
</event>
<event>
 4    1  0.5562790E-004  0.3972241E+03  0.7818608E-02  0.1044745E+00
         -2   -1    0    0    0  501 -0.00000000000E+00  0.00000000000E+00  0.54124159331E+02  0.54124159391E+02  0.25500000000E-02 0. -1.
          2   -1    0    0  501    0  0.00000000000E+00 -0.00000000000E+00 -0.72881953357E+03  0.72881953357E+03  0.25500000000E-02 0.  1.
    5000001    1    1    2    0    0 -0.44353894984E+02  0.16388471285E+03 -0.47236417087E+03  0.50782120577E+03  0.77000000000E+02 0.  0.
   -5000001    1    1    2    0    0  0.44353894984E+02 -0.16388471285E+03 -0.20233120337E+03  0.27512248720E+03  0.77000000000E+02 0.  0.
<mgrwt>
<rscale>  0 0.39722409E+03</rscale>
<asrwt>0</asrwt>
<pdfrwt beam="1">  1        2 0.10411707E+00 0.39722409E+03</pdfrwt>
<pdfrwt beam="2">  1       -2 0.77320232E-02 0.39722409E+03</pdfrwt>
<totfact> 0.43893127E+03</totfact>
</mgrwt>
</event>
<event>
 4    1  0.5562790E-004  0.2654017E+03  0.7818608E-02  0.1103941E+00
         -2   -1    0    0    0  501 -0.00000000000E+00  0.00000000000E+00  0.78720709014E+01  0.78720713145E+01  0.25500000000E-02 0. -1.
          2   -1    0    0  501    0  0.00000000000E+00 -0.00000000000E+00 -0.22369603739E+04  0.22369603739E+04  0.25500000000E-02 0.  1.
    5000001    1    1    2    0    0  0.83196089253E+02  0.61365582411E+02 -0.13811046756E+04  0.13871072233E+04  0.77000000000E+02 0.  0.
   -5000001    1    1    2    0    0 -0.83196089253E+02 -0.61365582411E+02 -0.84798362738E+03  0.85772522190E+03  0.77000000000E+02 0.  0.
<mgrwt>
<rscale>  0 0.26540167E+03</rscale>
<asrwt>0</asrwt>
<pdfrwt beam="1">  1        2 0.31956536E+00 0.26540167E+03</pdfrwt>
<pdfrwt beam="2">  1       -2 0.11245830E-02 0.26540167E+03</pdfrwt>
<totfact> 0.12149689E+04</totfact>
</mgrwt>
</event>
<event>
 4    1  0.5562790E-004  0.3371624E+03  0.7818608E-02  0.1068011E+00
          2   -1    0    0  501    0  0.00000000000E+00  0.00000000000E+00  0.67413775045E+03  0.67413775045E+03  0.25500000000E-02 0.  1.
         -2   -1    0    0    0  501 -0.00000000000E+00 -0.00000000000E+00 -0.42156988470E+02  0.42156988547E+02  0.25500000000E-02 0. -1.
    5000001    1    1    2    0    0 -0.10054011809E+03  0.87858705211E+02  0.17091545960E+03  0.23014899903E+03  0.77000000000E+02 0.  0.
   -5000001    1    1    2    0    0  0.10054011809E+03 -0.87858705211E+02  0.46106530238E+03  0.48614573997E+03  0.77000000000E+02 0.  0.
<mgrwt>
<rscale>  0 0.33716238E+03</rscale>
<asrwt>0</asrwt>
<pdfrwt beam="1">  1        2 0.96305395E-01 0.33716238E+03</pdfrwt>
<pdfrwt beam="2">  1       -2 0.60224268E-02 0.33716238E+03</pdfrwt>
<totfact> 0.70900938E+03</totfact>
</mgrwt>
</event>
<event>
 4    1  0.5562790E-004  0.2751146E+03  0.7818608E-02  0.1098388E+00
         -2   -1    0    0    0  501 -0.00000000000E+00  0.00000000000E+00  0.29722090744E+02  0.29722090854E+02  0.25500000000E-02 0. -1.
          2   -1    0    0  501    0  0.00000000000E+00 -0.00000000000E+00 -0.63663121203E+03  0.63663121204E+03  0.25500000000E-02 0.  1.
    5000001    1    1    2    0    0 -0.10226967887E+03  0.18670154853E+02 -0.19022722223E+03  0.23005012058E+03  0.77000000000E+02 0.  0.
   -5000001    1    1    2    0    0  0.10226967887E+03 -0.18670154853E+02 -0.41668189905E+03  0.43630318231E+03  0.77000000000E+02 0.  0.
<mgrwt>
<rscale>  0 0.27511460E+03</rscale>
<asrwt>0</asrwt>
<pdfrwt beam="1">  1        2 0.90947308E-01 0.27511460E+03</pdfrwt>
<pdfrwt beam="2">  1       -2 0.42460134E-02 0.27511460E+03</pdfrwt>
<totfact> 0.12828273E+04</totfact>
</mgrwt>
</event>
<event>
 4    1  0.5562790E-004  0.2675991E+03  0.7818608E-02  0.1102662E+00
         -2   -1    0    0    0  501 -0.00000000000E+00  0.00000000000E+00  0.92606567368E+03  0.92606567368E+03  0.25500000000E-02 0. -1.
          2   -1    0    0  501    0  0.00000000000E+00 -0.00000000000E+00 -0.19331584418E+02  0.19331584586E+02  0.25500000000E-02 0.  1.
    5000001    1    1    2    0    0 -0.42377536368E+02 -0.88632673357E+02  0.62359612455E+03  0.63596598410E+03  0.77000000000E+02 0.  0.
   -5000001    1    1    2    0    0  0.42377536368E+02  0.88632673357E+02  0.28313796471E+03  0.30943127417E+03  0.77000000000E+02 0.  0.
<mgrwt>
<rscale>  0 0.26759908E+03</rscale>
<asrwt>0</asrwt>
<pdfrwt beam="1">  1        2 0.27616555E-02 0.26759908E+03</pdfrwt>
<pdfrwt beam="2">  1       -2 0.13229507E+00 0.26759908E+03</pdfrwt>
<totfact> 0.15304857E+03</totfact>
</mgrwt>
</event>
<event>
 4    1  0.5562790E-004  0.2840291E+03  0.7818608E-02  0.1093508E+00
          2   -1    0    0  501    0  0.00000000000E+00  0.00000000000E+00  0.15775244047E+03  0.15775244049E+03  0.25500000000E-02 0.  1.
         -2   -1    0    0    0  501 -0.00000000000E+00 -0.00000000000E+00 -0.12784672273E+03  0.12784672276E+03  0.25500000000E-02 0. -1.
    5000001    1    1    2    0    0 -0.10468784353E+03 -0.52819910672E+02  0.37203101136E+02  0.14512945352E+03  0.77000000000E+02 0.  0.
   -5000001    1    1    2    0    0  0.10468784353E+03  0.52819910672E+02 -0.72973834023E+01  0.14046970972E+03  0.77000000000E+02 0.  0.
<mgrwt>
<rscale>  0 0.28402910E+03</rscale>
<asrwt>0</asrwt>
<pdfrwt beam="1">  1        2 0.22536063E-01 0.28402910E+03</pdfrwt>
<pdfrwt beam="2">  1       -2 0.18263818E-01 0.28402910E+03</pdfrwt>
<totfact> 0.59104055E+03</totfact>
</mgrwt>
</event>
<event>
 4    1  0.5562790E-004  0.2458865E+03  0.7818608E-02  0.1115932E+00
          2   -1    0    0  501    0  0.00000000000E+00  0.00000000000E+00  0.17877174593E+04  0.17877174593E+04  0.25500000000E-02 0.  1.
         -2   -1    0    0    0  501 -0.00000000000E+00 -0.00000000000E+00 -0.84549357729E+01  0.84549361575E+01  0.25500000000E-02 0. -1.
    5000001    1    1    2    0    0 -0.68948715955E+01 -0.81837956226E+02  0.12505433507E+04  0.12556005186E+04  0.77000000000E+02 0.  0.
   -5000001    1    1    2    0    0  0.68948715955E+01  0.81837956226E+02  0.52871917281E+03  0.54057187684E+03  0.77000000000E+02 0.  0.
<mgrwt>
<rscale>  0 0.24588645E+03</rscale>
<asrwt>0</asrwt>
<pdfrwt beam="1">  1        2 0.25538858E+00 0.24588645E+03</pdfrwt>
<pdfrwt beam="2">  1       -2 0.12078462E-02 0.24588645E+03</pdfrwt>
<totfact> 0.18089832E+04</totfact>
</mgrwt>
</event>
<event>
 4    1  0.5562790E-004  0.4042860E+03  0.7818608E-02  0.1042306E+00
         -2   -1    0    0    0  501 -0.00000000000E+00  0.00000000000E+00  0.54555979074E+02  0.54555979134E+02  0.25500000000E-02 0. -1.
          2   -1    0    0  501    0  0.00000000000E+00 -0.00000000000E+00 -0.74898825381E+03  0.74898825381E+03  0.25500000000E-02 0.  1.
    5000001    1    1    2    0    0  0.83510642151E+01  0.18225347889E+03 -0.26656127481E+03  0.33206924590E+03  0.77000000000E+02 0.  0.
   -5000001    1    1    2    0    0 -0.83510642151E+01 -0.18225347889E+03 -0.42787099992E+03  0.47147498705E+03  0.77000000000E+02 0.  0.
<mgrwt>
<rscale>  0 0.40428598E+03</rscale>
<asrwt>0</asrwt>
<pdfrwt beam="1">  1        2 0.10699832E+00 0.40428598E+03</pdfrwt>
<pdfrwt beam="2">  1       -2 0.77937117E-02 0.40428598E+03</pdfrwt>
<totfact> 0.41933887E+03</totfact>
</mgrwt>
</event>
<event>
 4    1  0.5562790E-004  0.1855286E+03  0.7818608E-02  0.1162557E+00
          2   -1    0    0  501    0  0.00000000000E+00  0.00000000000E+00  0.35381251159E+02  0.35381251250E+02  0.25500000000E-02 0.  1.
         -2   -1    0    0    0  501 -0.00000000000E+00 -0.00000000000E+00 -0.24321406649E+03  0.24321406651E+03  0.25500000000E-02 0. -1.
    5000001    1    1    2    0    0 -0.17040369966E+01  0.45110232690E+02 -0.65975920148E+02  0.11099395873E+03  0.77000000000E+02 0.  0.
   -5000001    1    1    2    0    0  0.17040369966E+01 -0.45110232690E+02 -0.14185689519E+03  0.16760135903E+03  0.77000000000E+02 0.  0.
<mgrwt>
<rscale>  0 0.18552863E+03</rscale>
<asrwt>0</asrwt>
<pdfrwt beam="1">  1        2 0.50544646E-02 0.18552863E+03</pdfrwt>
<pdfrwt beam="2">  1       -2 0.34744866E-01 0.18552863E+03</pdfrwt>
<totfact> 0.11605110E+04</totfact>
</mgrwt>
</event>
<event>
 4    1  0.5562790E-004  0.2194611E+03  0.7818608E-02  0.1134285E+00
          2   -1    0    0  501    0  0.00000000000E+00  0.00000000000E+00  0.31038313977E+03  0.31038313978E+03  0.25500000000E-02 0.  1.
         -2   -1    0    0    0  501 -0.00000000000E+00 -0.00000000000E+00 -0.38793324453E+02  0.38793324537E+02  0.25500000000E-02 0. -1.
    5000001    1    1    2    0    0 -0.52649460320E+02 -0.54691083032E+02  0.10608359317E+03  0.15147874100E+03  0.77000000000E+02 0.  0.
   -5000001    1    1    2    0    0  0.52649460320E+02  0.54691083032E+02  0.16550622214E+03  0.19769772331E+03  0.77000000000E+02 0.  0.
<mgrwt>
<rscale>  0 0.21946110E+03</rscale>
<asrwt>0</asrwt>
<pdfrwt beam="1">  1        2 0.44340448E-01 0.21946110E+03</pdfrwt>
<pdfrwt beam="2">  1       -2 0.55419036E-02 0.21946110E+03</pdfrwt>
<totfact> 0.18608769E+04</totfact>
</mgrwt>
</event>
<event>
 4    1  0.5562790E-004  0.4884181E+03  0.7818608E-02  0.1016847E+00
          2   -1    0    0  501    0  0.00000000000E+00  0.00000000000E+00  0.63167628662E+03  0.63167628663E+03  0.25500000000E-02 0.  1.
         -2   -1    0    0    0  501 -0.00000000000E+00 -0.00000000000E+00 -0.94412371519E+02  0.94412371553E+02  0.25500000000E-02 0. -1.
    5000001    1    1    2    0    0 -0.97770679729E+02 -0.20063063642E+03  0.17582517118E+03  0.29437263614E+03  0.77000000000E+02 0.  0.
   -5000001    1    1    2    0    0  0.97770679729E+02  0.20063063642E+03  0.36143874392E+03  0.43171602205E+03  0.77000000000E+02 0.  0.
<mgrwt>
<rscale>  0 0.48841808E+03</rscale>
<asrwt>0</asrwt>
<pdfrwt beam="1">  1        2 0.90239471E-01 0.48841808E+03</pdfrwt>
<pdfrwt beam="2">  1       -2 0.13487481E-01 0.48841808E+03</pdfrwt>
<totfact> 0.21288729E+03</totfact>
</mgrwt>
</event>
<event>
 4    1  0.5562790E-004  0.2984695E+03  0.7818608E-02  0.1086008E+00
          2   -1    0    0  501    0  0.00000000000E+00  0.00000000000E+00  0.33749942115E+02  0.33749942211E+02  0.25500000000E-02 0.  1.
         -2   -1    0    0    0  501 -0.00000000000E+00 -0.00000000000E+00 -0.65988279092E+03  0.65988279092E+03  0.25500000000E-02 0. -1.
    5000001    1    1    2    0    0 -0.61556791253E+02 -0.94980727237E+02 -0.45116999329E+03  0.47148058279E+03  0.77000000000E+02 0.  0.
   -5000001    1    1    2    0    0  0.61556791253E+02  0.94980727237E+02 -0.17496285551E+03  0.22215215035E+03  0.77000000000E+02 0.  0.
<mgrwt>
<rscale>  0 0.29846947E+03</rscale>
<asrwt>0</asrwt>
<pdfrwt beam="1">  1        2 0.48214207E-02 0.29846947E+03</pdfrwt>
<pdfrwt beam="2">  1       -2 0.94268962E-01 0.29846947E+03</pdfrwt>
<totfact> 0.16261278E+03</totfact>
</mgrwt>
</event>
<event>
 4    1  0.5562790E-004  0.2205714E+03  0.7818608E-02  0.1133458E+00
          2   -1    0    0  501    0  0.00000000000E+00  0.00000000000E+00  0.16426576897E+03  0.16426576899E+03  0.25500000000E-02 0.  1.
         -2   -1    0    0    0  501 -0.00000000000E+00 -0.00000000000E+00 -0.74044263559E+02  0.74044263602E+02  0.25500000000E-02 0. -1.
    5000001    1    1    2    0    0 -0.24602434879E+01 -0.77811211453E+02  0.30887695412E+02  0.11377032633E+03  0.77000000000E+02 0.  0.
   -5000001    1    1    2    0    0  0.24602434879E+01  0.77811211453E+02  0.59333809996E+02  0.12453970626E+03  0.77000000000E+02 0.  0.
<mgrwt>
<rscale>  0 0.22057142E+03</rscale>
<asrwt>0</asrwt>
<pdfrwt beam="1">  1        2 0.23466538E-01 0.22057142E+03</pdfrwt>
<pdfrwt beam="2">  1       -2 0.10577752E-01 0.22057142E+03</pdfrwt>
<totfact> 0.13643287E+04</totfact>
</mgrwt>
</event>
<event>
 4    1  0.5562790E-004  0.1946055E+03  0.7818608E-02  0.1154372E+00
          2   -1    0    0  501    0  0.00000000000E+00  0.00000000000E+00  0.44519711991E+03  0.44519711992E+03  0.25500000000E-02 0.  1.
         -2   -1    0    0    0  501 -0.00000000000E+00 -0.00000000000E+00 -0.21266600943E+02  0.21266601095E+02  0.25500000000E-02 0. -1.
    5000001    1    1    2    0    0  0.47844104113E+02 -0.34990006190E+02  0.22406240947E+03  0.24422596539E+03  0.77000000000E+02 0.  0.
   -5000001    1    1    2    0    0 -0.47844104113E+02  0.34990006190E+02  0.19986810949E+03  0.22223775562E+03  0.77000000000E+02 0.  0.
<mgrwt>
<rscale>  0 0.19460554E+03</rscale>
<asrwt>0</asrwt>
<pdfrwt beam="1">  1        2 0.63599586E-01 0.19460554E+03</pdfrwt>
<pdfrwt beam="2">  1       -2 0.30380860E-02 0.19460554E+03</pdfrwt>
<totfact> 0.30841007E+04</totfact>
</mgrwt>
</event>
<event>
 4    1  0.5562790E-004  0.1964974E+03  0.7818608E-02  0.1152728E+00
         -2   -1    0    0    0  501 -0.00000000000E+00  0.00000000000E+00  0.37558385488E+01  0.37558394144E+01  0.25500000000E-02 0. -1.
          2   -1    0    0  501    0  0.00000000000E+00 -0.00000000000E+00 -0.25700797963E+04  0.25700797963E+04  0.25500000000E-02 0.  1.
    5000001    1    1    2    0    0 -0.44823266301E+02  0.30069260185E+02 -0.16560736449E+04  0.16587411501E+04  0.77000000000E+02 0.  0.
   -5000001    1    1    2    0    0  0.44823266301E+02 -0.30069260185E+02 -0.91025031289E+03  0.91509448568E+03  0.77000000000E+02 0.  0.
<mgrwt>
<rscale>  0 0.19649739E+03</rscale>
<asrwt>0</asrwt>
<pdfrwt beam="1">  1        2 0.36715313E+00 0.19649739E+03</pdfrwt>
<pdfrwt beam="2">  1       -2 0.53655007E-03 0.19649739E+03</pdfrwt>
<totfact> 0.24007475E+04</totfact>
</mgrwt>
</event>
<event>
 4    1  0.5562790E-004  0.3182875E+03  0.7818608E-02  0.1076440E+00
          2   -1    0    0  501    0  0.00000000000E+00  0.00000000000E+00  0.53026834867E+03  0.53026834868E+03  0.25500000000E-02 0.  1.
         -2   -1    0    0    0  501 -0.00000000000E+00 -0.00000000000E+00 -0.47762100793E+02  0.47762100861E+02  0.25500000000E-02 0. -1.
    5000001    1    1    2    0    0 -0.25728878937E+01  0.13806085823E+03  0.27425905782E+03  0.31656666142E+03  0.77000000000E+02 0.  0.
   -5000001    1    1    2    0    0  0.25728878937E+01 -0.13806085823E+03  0.20824719006E+03  0.26146378812E+03  0.77000000000E+02 0.  0.
<mgrwt>
<rscale>  0 0.31828748E+03</rscale>
<asrwt>0</asrwt>
<pdfrwt beam="1">  1        2 0.75752618E-01 0.31828748E+03</pdfrwt>
<pdfrwt beam="2">  1       -2 0.68231576E-02 0.31828748E+03</pdfrwt>
<totfact> 0.76900840E+03</totfact>
</mgrwt>
</event>
<event>
 4    1  0.5562790E-004  0.2112571E+03  0.7818608E-02  0.1140574E+00
          2   -1    0    0  501    0  0.00000000000E+00  0.00000000000E+00  0.44378756090E+03  0.44378756091E+03  0.25500000000E-02 0.  1.
         -2   -1    0    0    0  501 -0.00000000000E+00 -0.00000000000E+00 -0.25141282367E+02  0.25141282496E+02  0.25500000000E-02 0. -1.
    5000001    1    1    2    0    0 -0.23282127058E+01  0.43788011975E+02  0.33694332416E+03  0.34840007787E+03  0.77000000000E+02 0.  0.
   -5000001    1    1    2    0    0  0.23282127058E+01 -0.43788011975E+02  0.81702954379E+02  0.12052876554E+03  0.77000000000E+02 0.  0.
<mgrwt>
<rscale>  0 0.21125708E+03</rscale>
<asrwt>0</asrwt>
<pdfrwt beam="1">  1        2 0.63398215E-01 0.21125708E+03</pdfrwt>
<pdfrwt beam="2">  1       -2 0.35916122E-02 0.21125708E+03</pdfrwt>
<totfact> 0.24286799E+04</totfact>
</mgrwt>
</event>
<event>
 4    1  0.5562790E-004  0.2316032E+03  0.7818608E-02  0.1125516E+00
         -2   -1    0    0    0  501 -0.00000000000E+00  0.00000000000E+00  0.13359338210E+02  0.13359338454E+02  0.25500000000E-02 0. -1.
          2   -1    0    0  501    0  0.00000000000E+00 -0.00000000000E+00 -0.10037926030E+04  0.10037926030E+04  0.25500000000E-02 0.  1.
    5000001    1    1    2    0    0 -0.19944129432E+02 -0.70962463973E+02 -0.29648808460E+03  0.31506764972E+03  0.77000000000E+02 0.  0.
   -5000001    1    1    2    0    0  0.19944129432E+02  0.70962463973E+02 -0.69394518019E+03  0.70208429174E+03  0.77000000000E+02 0.  0.
<mgrwt>
<rscale>  0 0.23160315E+03</rscale>
<asrwt>0</asrwt>
<pdfrwt beam="1">  1        2 0.14339890E+00 0.23160315E+03</pdfrwt>
<pdfrwt beam="2">  1       -2 0.19084775E-02 0.23160315E+03</pdfrwt>
<totfact> 0.23680532E+04</totfact>
</mgrwt>
</event>
<event>
 4    1  0.5562790E-004  0.2879788E+03  0.7818608E-02  0.1091409E+00
         -2   -1    0    0    0  501 -0.00000000000E+00  0.00000000000E+00  0.42383939728E+02  0.42383939805E+02  0.25500000000E-02 0. -1.
          2   -1    0    0  501    0  0.00000000000E+00 -0.00000000000E+00 -0.48916979499E+03  0.48916979499E+03  0.25500000000E-02 0.  1.
    5000001    1    1    2    0    0 -0.77669255858E+02 -0.11276911954E+02 -0.51779748089E+02  0.12153116621E+03  0.77000000000E+02 0.  0.
   -5000001    1    1    2    0    0  0.77669255858E+02  0.11276911954E+02 -0.39500610717E+03  0.41002256859E+03  0.77000000000E+02 0.  0.
<mgrwt>
<rscale>  0 0.28797877E+03</rscale>
<asrwt>0</asrwt>
<pdfrwt beam="1">  1        2 0.69881396E-01 0.28797877E+03</pdfrwt>
<pdfrwt beam="2">  1       -2 0.60548488E-02 0.28797877E+03</pdfrwt>
<totfact> 0.10081465E+04</totfact>
</mgrwt>
</event>
<event>
 4    1  0.5562790E-004  0.2462165E+03  0.7818608E-02  0.1115720E+00
         -2   -1    0    0    0  501 -0.00000000000E+00  0.00000000000E+00  0.69554681432E+01  0.69554686106E+01  0.25500000000E-02 0. -1.
          2   -1    0    0  501    0  0.00000000000E+00 -0.00000000000E+00 -0.21789534121E+04  0.21789534121E+04  0.25500000000E-02 0.  1.
    5000001    1    1    2    0    0  0.45100238213E+02  0.55929511703E+02 -0.16520016016E+04  0.16553550778E+04  0.77000000000E+02 0.  0.
   -5000001    1    1    2    0    0 -0.45100238213E+02 -0.55929511703E+02 -0.51999634237E+03  0.53055380297E+03  0.77000000000E+02 0.  0.
<mgrwt>
<rscale>  0 0.24621650E+03</rscale>
<asrwt>0</asrwt>
<pdfrwt beam="1">  1        2 0.31127862E+00 0.24621650E+03</pdfrwt>
<pdfrwt beam="2">  1       -2 0.99363973E-03 0.24621650E+03</pdfrwt>
<totfact> 0.15496880E+04</totfact>
</mgrwt>
</event>
<event>
 4    1  0.5562790E-004  0.2976002E+03  0.7818608E-02  0.1086446E+00
          2   -1    0    0  501    0  0.00000000000E+00  0.00000000000E+00  0.25633426965E+04  0.25633426965E+04  0.25500000000E-02 0.  1.
         -2   -1    0    0    0  501 -0.00000000000E+00 -0.00000000000E+00 -0.86377312411E+01  0.86377316175E+01  0.25500000000E-02 0. -1.
    5000001    1    1    2    0    0  0.12083977258E+03  0.40127256866E+02  0.12785246495E+04  0.12871545077E+04  0.77000000000E+02 0.  0.
   -5000001    1    1    2    0    0 -0.12083977258E+03 -0.40127256866E+02  0.12761803157E+04  0.12848259203E+04  0.77000000000E+02 0.  0.
<mgrwt>
<rscale>  0 0.29760017E+03</rscale>
<asrwt>0</asrwt>
<pdfrwt beam="1">  1        2 0.36619177E+00 0.29760017E+03</pdfrwt>
<pdfrwt beam="2">  1       -2 0.12339618E-02 0.29760017E+03</pdfrwt>
<totfact> 0.73173697E+03</totfact>
</mgrwt>
</event>
<event>
 4    1  0.5562790E-004  0.2393708E+03  0.7818608E-02  0.1120213E+00
         -2   -1    0    0    0  501 -0.00000000000E+00  0.00000000000E+00  0.32504906516E+03  0.32504906517E+03  0.25500000000E-02 0. -1.
          2   -1    0    0  501    0  0.00000000000E+00 -0.00000000000E+00 -0.44069014723E+02  0.44069014797E+02  0.25500000000E-02 0.  1.
    5000001    1    1    2    0    0 -0.75685543853E+02 -0.51623125235E+02  0.13812942907E+03  0.18276210708E+03  0.77000000000E+02 0.  0.
   -5000001    1    1    2    0    0  0.75685543853E+02  0.51623125235E+02  0.14285062136E+03  0.18635597289E+03  0.77000000000E+02 0.  0.
<mgrwt>
<rscale>  0 0.23937078E+03</rscale>
<asrwt>0</asrwt>
<pdfrwt beam="1">  1        2 0.62955735E-02 0.23937078E+03</pdfrwt>
<pdfrwt beam="2">  1       -2 0.46435581E-01 0.23937078E+03</pdfrwt>
<totfact> 0.50958542E+03</totfact>
</mgrwt>
</event>
<event>
 4    1  0.5562790E-004  0.2063047E+03  0.7818608E-02  0.1144526E+00
          2   -1    0    0  501    0  0.00000000000E+00  0.00000000000E+00  0.19698775117E+04  0.19698775117E+04  0.25500000000E-02 0.  1.
         -2   -1    0    0    0  501 -0.00000000000E+00 -0.00000000000E+00 -0.54015573117E+01  0.54015579136E+01  0.25500000000E-02 0. -1.
    5000001    1    1    2    0    0 -0.57807059202E+02  0.37009261655E+02  0.97979072997E+03  0.98520567197E+03  0.77000000000E+02 0.  0.
   -5000001    1    1    2    0    0  0.57807059202E+02 -0.37009261655E+02  0.98468522440E+03  0.99007339763E+03  0.77000000000E+02 0.  0.
<mgrwt>
<rscale>  0 0.20630470E+03</rscale>
<asrwt>0</asrwt>
<pdfrwt beam="1">  1        2 0.28141069E+00 0.20630470E+03</pdfrwt>
<pdfrwt beam="2">  1       -2 0.77165213E-03 0.20630470E+03</pdfrwt>
<totfact> 0.28001519E+04</totfact>
</mgrwt>
</event>
<event>
 4    1  0.5562790E-004  0.2688636E+03  0.7818608E-02  0.1101932E+00
          2   -1    0    0  501    0  0.00000000000E+00  0.00000000000E+00  0.90189451099E+03  0.90189451099E+03  0.25500000000E-02 0.  1.
         -2   -1    0    0    0  501 -0.00000000000E+00 -0.00000000000E+00 -0.20037723124E+02  0.20037723287E+02  0.25500000000E-02 0. -1.
    5000001    1    1    2    0    0 -0.10992163631E+02  0.10359687482E+03  0.56407529634E+03  0.57875995030E+03  0.77000000000E+02 0.  0.
   -5000001    1    1    2    0    0  0.10992163631E+02 -0.10359687482E+03  0.31778149153E+03  0.34317228398E+03  0.77000000000E+02 0.  0.
<mgrwt>
<rscale>  0 0.26886363E+03</rscale>
<asrwt>0</asrwt>
<pdfrwt beam="1">  1        2 0.12884206E+00 0.26886363E+03</pdfrwt>
<pdfrwt beam="2">  1       -2 0.28625323E-02 0.26886363E+03</pdfrwt>
<totfact> 0.15118201E+04</totfact>
</mgrwt>
</event>
<event>
 4    1  0.5562790E-004  0.5583606E+03  0.7818608E-02  0.9995771E-01
         -2   -1    0    0    0  501 -0.00000000000E+00  0.00000000000E+00  0.16427779121E+03  0.16427779123E+03  0.25500000000E-02 0. -1.
          2   -1    0    0  501    0  0.00000000000E+00 -0.00000000000E+00 -0.47445026818E+03  0.47445026818E+03  0.25500000000E-02 0.  1.
    5000001    1    1    2    0    0 -0.17991789485E+03 -0.19687262002E+03 -0.18908563788E+03  0.33587446443E+03  0.77000000000E+02 0.  0.
   -5000001    1    1    2    0    0  0.17991789485E+03  0.19687262002E+03 -0.12108683908E+03  0.30285359499E+03  0.77000000000E+02 0.  0.
<mgrwt>
<rscale>  0 0.55836061E+03</rscale>
<asrwt>0</asrwt>
<pdfrwt beam="1">  1        2 0.67778609E-01 0.55836061E+03</pdfrwt>
<pdfrwt beam="2">  1       -2 0.23468256E-01 0.55836061E+03</pdfrwt>
<totfact> 0.11461430E+03</totfact>
</mgrwt>
</event>
<event>
 4    1  0.5562790E-004  0.2665862E+03  0.7818608E-02  0.1103249E+00
          2   -1    0    0  501    0  0.00000000000E+00  0.00000000000E+00  0.62008329562E+03  0.62008329563E+03  0.25500000000E-02 0. -1.
         -2   -1    0    0    0  501 -0.00000000000E+00 -0.00000000000E+00 -0.28652677600E+02  0.28652677713E+02  0.25500000000E-02 0.  1.
    5000001    1    1    2    0    0 -0.31003770580E+02 -0.10422748647E+03  0.28679262097E+03  0.31623347415E+03  0.77000000000E+02 0.  0.
   -5000001    1    1    2    0    0  0.31003770580E+02  0.10422748647E+03  0.30463799705E+03  0.33250249919E+03  0.77000000000E+02 0.  0.
<mgrwt>
<rscale>  0 0.26658617E+03</rscale>
<asrwt>0</asrwt>
<pdfrwt beam="1">  1        2 0.88583324E-01 0.26658617E+03</pdfrwt>
<pdfrwt beam="2">  1       -2 0.40932399E-02 0.26658617E+03</pdfrwt>
<totfact> 0.13954768E+04</totfact>
</mgrwt>
</event>
<event>
 4    1  0.5562790E-004  0.4755161E+03  0.7818608E-02  0.1020375E+00
          2   -1    0    0  501    0  0.00000000000E+00  0.00000000000E+00  0.15193382730E+04  0.15193382730E+04  0.25500000000E-02 0.  1.
         -2   -1    0    0    0  501 -0.00000000000E+00 -0.00000000000E+00 -0.37206261045E+02  0.37206261133E+02  0.25500000000E-02 0. -1.
    5000001    1    1    2    0    0  0.17347781253E+03 -0.14312535846E+03  0.72625354298E+03  0.76416793204E+03  0.77000000000E+02 0.  0.
   -5000001    1    1    2    0    0 -0.17347781253E+03  0.14312535846E+03  0.75587846897E+03  0.79237660208E+03  0.77000000000E+02 0.  0.
<mgrwt>
<rscale>  0 0.47551613E+03</rscale>
<asrwt>0</asrwt>
<pdfrwt beam="1">  1        2 0.21704832E+00 0.47551613E+03</pdfrwt>
<pdfrwt beam="2">  1       -2 0.53151802E-02 0.47551613E+03</pdfrwt>
<totfact> 0.27161596E+03</totfact>
</mgrwt>
</event>
<event>
 4    1  0.5562790E-004  0.1821926E+03  0.7818608E-02  0.1165698E+00
         -2   -1    0    0    0  501 -0.00000000000E+00  0.00000000000E+00  0.45329164994E+02  0.45329165066E+02  0.25500000000E-02 0. -1.
          2   -1    0    0  501    0  0.00000000000E+00 -0.00000000000E+00 -0.18307286882E+03  0.18307286884E+03  0.25500000000E-02 0.  1.
    5000001    1    1    2    0    0 -0.32446909101E+02  0.22094459531E+02 -0.10495750486E+03  0.13596339537E+03  0.77000000000E+02 0.  0.
   -5000001    1    1    2    0    0  0.32446909101E+02 -0.22094459531E+02 -0.32786198960E+02  0.92438638536E+02  0.77000000000E+02 0.  0.
<mgrwt>
<rscale>  0 0.18219265E+03</rscale>
<asrwt>0</asrwt>
<pdfrwt beam="1">  1        2 0.26153267E-01 0.18219265E+03</pdfrwt>
<pdfrwt beam="2">  1       -2 0.64755951E-02 0.18219265E+03</pdfrwt>
<totfact> 0.25622614E+04</totfact>
</mgrwt>
</event>
<event>
 4    1  0.5562790E-004  0.1997375E+03  0.7818608E-02  0.1149961E+00
         -2   -1    0    0    0  501 -0.00000000000E+00  0.00000000000E+00  0.13835088819E+03  0.13835088821E+03  0.25500000000E-02 0.  1.
          2   -1    0    0  501    0  0.00000000000E+00 -0.00000000000E+00 -0.72090358559E+02  0.72090358604E+02  0.25500000000E-02 0. -1.
    5000001    1    1    2    0    0  0.15865006818E+02 -0.31434356253E+02  0.88930201367E+02  0.12279005623E+03  0.77000000000E+02 0.  0.
   -5000001    1    1    2    0    0 -0.15865006818E+02  0.31434356253E+02 -0.22669671736E+02  0.87651190585E+02  0.77000000000E+02 0.  0.
<mgrwt>
<rscale>  0 0.19973748E+03</rscale>
<asrwt>0</asrwt>
<pdfrwt beam="1">  1        2 0.10298623E-01 0.19973748E+03</pdfrwt>
<pdfrwt beam="2">  1       -2 0.19764412E-01 0.19973748E+03</pdfrwt>
<totfact> 0.12791723E+04</totfact>
</mgrwt>
</event>
<event>
 4    1  0.5562790E-004  0.2468164E+03  0.7818608E-02  0.1115333E+00
          2   -1    0    0  501    0  0.00000000000E+00  0.00000000000E+00  0.41270414721E+03  0.41270414722E+03  0.25500000000E-02 0.  1.
         -2   -1    0    0    0  501 -0.00000000000E+00 -0.00000000000E+00 -0.36901928492E+02  0.36901928580E+02  0.25500000000E-02 0. -1.
    5000001    1    1    2    0    0 -0.92935805942E+02 -0.22880073901E+02  0.20945614932E+03  0.24281976916E+03  0.77000000000E+02 0.  0.
   -5000001    1    1    2    0    0  0.92935805942E+02  0.22880073901E+02  0.16634606940E+03  0.20678630664E+03  0.77000000000E+02 0.  0.
<mgrwt>
<rscale>  0 0.24681636E+03</rscale>
<asrwt>0</asrwt>
<pdfrwt beam="1">  1        2 0.58957731E-01 0.24681636E+03</pdfrwt>
<pdfrwt beam="2">  1       -2 0.52717044E-02 0.24681636E+03</pdfrwt>
<totfact> 0.14890294E+04</totfact>
</mgrwt>
</event>
<event>
 4    1  0.5562790E-004  0.2597834E+03  0.7818608E-02  0.1107273E+00
          2   -1    0    0  501    0  0.00000000000E+00  0.00000000000E+00  0.30758575399E+04  0.30758575399E+04  0.25500000000E-02 0.  1.
         -2   -1    0    0    0  501 -0.00000000000E+00 -0.00000000000E+00 -0.54852519694E+01  0.54852525622E+01  0.25500000000E-02 0. -1.
    5000001    1    1    2    0    0 -0.56618726722E+01  0.98993804015E+02  0.11398282379E+04  0.11467210829E+04  0.77000000000E+02 0.  0.
   -5000001    1    1    2    0    0  0.56618726722E+01 -0.98993804015E+02  0.19305440500E+04  0.19346217095E+04  0.77000000000E+02 0.  0.
<mgrwt>
<rscale>  0 0.25978341E+03</rscale>
<asrwt>0</asrwt>
<pdfrwt beam="1">  1        2 0.43940918E+00 0.25978341E+03</pdfrwt>
<pdfrwt beam="2">  1       -2 0.78360575E-03 0.25978341E+03</pdfrwt>
<totfact> 0.76843099E+03</totfact>
</mgrwt>
</event>
<event>
 4    1  0.5562790E-004  0.2134734E+03  0.7818608E-02  0.1138845E+00
         -2   -1    0    0    0  501 -0.00000000000E+00  0.00000000000E+00  0.67859531706E+01  0.67859536497E+01  0.25500000000E-02 0. -1.
          2   -1    0    0  501    0  0.00000000000E+00 -0.00000000000E+00 -0.16788687240E+04  0.16788687240E+04  0.25500000000E-02 0.  1.
    5000001    1    1    2    0    0 -0.51471990957E+02 -0.44175048164E+02 -0.10680003362E+04  0.10729186916E+04  0.77000000000E+02 0.  0.
   -5000001    1    1    2    0    0  0.51471990957E+02  0.44175048164E+02 -0.60408243461E+03  0.61273598600E+03  0.77000000000E+02 0.  0.
<mgrwt>
<rscale>  0 0.21347342E+03</rscale>
<asrwt>0</asrwt>
<pdfrwt beam="1">  1        2 0.23983812E+00 0.21347342E+03</pdfrwt>
<pdfrwt beam="2">  1       -2 0.96942299E-03 0.21347342E+03</pdfrwt>
<totfact> 0.27944557E+04</totfact>
</mgrwt>
</event>
<event>
 4    1  0.5562790E-004  0.2173215E+03  0.7818608E-02  0.1135896E+00
         -2   -1    0    0    0  501 -0.00000000000E+00  0.00000000000E+00  0.21208046431E+02  0.21208046585E+02  0.25500000000E-02 0. -1.
          2   -1    0    0  501    0  0.00000000000E+00 -0.00000000000E+00 -0.55672989757E+03  0.55672989758E+03  0.25500000000E-02 0.  1.
    5000001    1    1    2    0    0  0.35296437212E+02 -0.62434686952E+02 -0.33982074608E+03  0.35574016934E+03  0.77000000000E+02 0.  0.
   -5000001    1    1    2    0    0 -0.35296437212E+02  0.62434686952E+02 -0.19570110506E+03  0.22219777482E+03  0.77000000000E+02 0.  0.
<mgrwt>
<rscale>  0 0.21732145E+03</rscale>
<asrwt>0</asrwt>
<pdfrwt beam="1">  1        2 0.79532834E-01 0.21732145E+03</pdfrwt>
<pdfrwt beam="2">  1       -2 0.30297213E-02 0.21732145E+03</pdfrwt>
<totfact> 0.24425006E+04</totfact>
</mgrwt>
</event>
<event>
 4    1  0.5562790E-004  0.2565173E+03  0.7818608E-02  0.1109254E+00
         -2   -1    0    0    0  501 -0.00000000000E+00  0.00000000000E+00  0.12880207311E+03  0.12880207314E+03  0.25500000000E-02 0. -1.
          2   -1    0    0  501    0  0.00000000000E+00 -0.00000000000E+00 -0.12771752732E+03  0.12771752735E+03  0.25500000000E-02 0.  1.
    5000001    1    1    2    0    0 -0.63681174094E+02  0.61709810753E+02 -0.51012912422E+02  0.12804182876E+03  0.77000000000E+02 0.  0.
   -5000001    1    1    2    0    0  0.63681174094E+02 -0.61709810753E+02  0.52097458213E+02  0.12847777173E+03  0.77000000000E+02 0.  0.
<mgrwt>
<rscale>  0 0.25651731E+03</rscale>
<asrwt>0</asrwt>
<pdfrwt beam="1">  1        2 0.18245361E-01 0.25651731E+03</pdfrwt>
<pdfrwt beam="2">  1       -2 0.18400296E-01 0.25651731E+03</pdfrwt>
<totfact> 0.73992800E+03</totfact>
</mgrwt>
</event>
<event>
 4    1  0.5562790E-004  0.4394068E+03  0.7818608E-02  0.1030929E+00
          2   -1    0    0  501    0  0.00000000000E+00  0.00000000000E+00  0.35171201183E+03  0.35171201184E+03  0.25500000000E-02 0.  1.
         -2   -1    0    0    0  501 -0.00000000000E+00 -0.00000000000E+00 -0.13724176961E+03  0.13724176963E+03  0.25500000000E-02 0. -1.
    5000001    1    1    2    0    0 -0.13226962983E+03  0.15610921049E+03  0.13149322142E+03  0.25511724335E+03  0.77000000000E+02 0.  0.
   -5000001    1    1    2    0    0  0.13226962983E+03 -0.15610921049E+03  0.82977020802E+02  0.23383653812E+03  0.77000000000E+02 0.  0.
<mgrwt>
<rscale>  0 0.43940678E+03</rscale>
<asrwt>0</asrwt>
<pdfrwt beam="1">  1        2 0.50244573E-01 0.43940678E+03</pdfrwt>
<pdfrwt beam="2">  1       -2 0.19605967E-01 0.43940678E+03</pdfrwt>
<totfact> 0.21855825E+03</totfact>
</mgrwt>
</event>
<event>
 4    1  0.5562790E-004  0.1865103E+03  0.7818608E-02  0.1161647E+00
          2   -1    0    0  501    0  0.00000000000E+00  0.00000000000E+00  0.71147214100E+03  0.71147214100E+03  0.25500000000E-02 0.  1.
         -2   -1    0    0    0  501 -0.00000000000E+00 -0.00000000000E+00 -0.12223282590E+02  0.12223282856E+02  0.25500000000E-02 0. -1.
    5000001    1    1    2    0    0 -0.20403426946E+02  0.34077723633E+02  0.21577565469E+03  0.23252037381E+03  0.77000000000E+02 0.  0.
   -5000001    1    1    2    0    0  0.20403426946E+02 -0.34077723633E+02  0.48347320372E+03  0.49117505005E+03  0.77000000000E+02 0.  0.
<mgrwt>
<rscale>  0 0.18651032E+03</rscale>
<asrwt>0</asrwt>
<pdfrwt beam="1">  1        2 0.10163888E+00 0.18651032E+03</pdfrwt>
<pdfrwt beam="2">  1       -2 0.17461832E-02 0.18651032E+03</pdfrwt>
<totfact> 0.40930070E+04</totfact>
</mgrwt>
</event>
<event>
 4    1  0.5562790E-004  0.2586079E+03  0.7818608E-02  0.1107983E+00
         -2   -1    0    0    0  501 -0.00000000000E+00  0.00000000000E+00  0.84442074064E+03  0.84442074064E+03  0.25500000000E-02 0. -1.
          2   -1    0    0  501    0  0.00000000000E+00 -0.00000000000E+00 -0.19799971401E+02  0.19799971565E+02  0.25500000000E-02 0.  1.
    5000001    1    1    2    0    0 -0.52753042046E+02  0.72065824481E+02  0.58958877615E+03  0.60126557482E+03  0.77000000000E+02 0.  0.
   -5000001    1    1    2    0    0  0.52753042046E+02 -0.72065824481E+02  0.23503199309E+03  0.26295513739E+03  0.77000000000E+02 0.  0.
<mgrwt>
<rscale>  0 0.25860786E+03</rscale>
<asrwt>0</asrwt>
<pdfrwt beam="1">  1        2 0.28285675E-02 0.25860786E+03</pdfrwt>
<pdfrwt beam="2">  1       -2 0.12063153E+00 0.25860786E+03</pdfrwt>
<totfact> 0.18565916E+03</totfact>
</mgrwt>
</event>
<event>
 4    1  0.5562790E-004  0.2307209E+03  0.7818608E-02  0.1126133E+00
          2   -1    0    0  501    0  0.00000000000E+00  0.00000000000E+00  0.73627193457E+03  0.73627193458E+03  0.25500000000E-02 0.  1.
         -2   -1    0    0    0  501 -0.00000000000E+00 -0.00000000000E+00 -0.18074896150E+02  0.18074896330E+02  0.25500000000E-02 0. -1.
    5000001    1    1    2    0    0 -0.75292200163E+02  0.39825408729E+02  0.39551519942E+03  0.41184493630E+03  0.77000000000E+02 0.  0.
   -5000001    1    1    2    0    0  0.75292200163E+02 -0.39825408729E+02  0.32268183900E+03  0.34250189460E+03  0.77000000000E+02 0.  0.
<mgrwt>
<rscale>  0 0.23072095E+03</rscale>
<asrwt>0</asrwt>
<pdfrwt beam="1">  1        2 0.10518173E+00 0.23072095E+03</pdfrwt>
<pdfrwt beam="2">  1       -2 0.25821274E-02 0.23072095E+03</pdfrwt>
<totfact> 0.22494334E+04</totfact>
</mgrwt>
</event>
<event>
 4    1  0.5562790E-004  0.2192411E+03  0.7818608E-02  0.1134450E+00
         -2   -1    0    0    0  501 -0.00000000000E+00  0.00000000000E+00  0.72490344633E+02  0.72490344677E+02  0.25500000000E-02 0. -1.
          2   -1    0    0  501    0  0.00000000000E+00 -0.00000000000E+00 -0.16576920167E+03  0.16576920169E+03  0.25500000000E-02 0.  1.
    5000001    1    1    2    0    0  0.63096596340E+02 -0.21912383168E+02 -0.90465558409E+02  0.13628774803E+03  0.77000000000E+02 0.  0.
   -5000001    1    1    2    0    0 -0.63096596340E+02  0.21912383168E+02 -0.28132986260E+01  0.10197179833E+03  0.77000000000E+02 0.  0.
<mgrwt>
<rscale>  0 0.21924111E+03</rscale>
<asrwt>0</asrwt>
<pdfrwt beam="1">  1        2 0.23681314E-01 0.21924111E+03</pdfrwt>
<pdfrwt beam="2">  1       -2 0.10355764E-01 0.21924111E+03</pdfrwt>
<totfact> 0.13962469E+04</totfact>
</mgrwt>
</event>
<event>
 4    1  0.5562790E-004  0.2729025E+03  0.7818608E-02  0.1099630E+00
         -2   -1    0    0    0  501 -0.00000000000E+00  0.00000000000E+00  0.69842021460E+01  0.69842026115E+01  0.25500000000E-02 0. -1.
          2   -1    0    0  501    0  0.00000000000E+00 -0.00000000000E+00 -0.26658662184E+04  0.26658662184E+04  0.25500000000E-02 0.  1.
    5000001    1    1    2    0    0  0.72124912493E+02 -0.85372526240E+02 -0.11911115988E+04  0.11988187152E+04  0.77000000000E+02 0.  0.
   -5000001    1    1    2    0    0 -0.72124912493E+02  0.85372526240E+02 -0.14677704174E+04  0.14740317057E+04  0.77000000000E+02 0.  0.
<mgrwt>
<rscale>  0 0.27290254E+03</rscale>
<asrwt>0</asrwt>
<pdfrwt beam="1">  1        2 0.38083738E+00 0.27290254E+03</pdfrwt>
<pdfrwt beam="2">  1       -2 0.99774490E-03 0.27290254E+03</pdfrwt>
<totfact> 0.88493574E+03</totfact>
</mgrwt>
</event>
<event>
 4    1  0.5562790E-004  0.2480086E+03  0.7818608E-02  0.1114570E+00
          2   -1    0    0  501    0  0.00000000000E+00  0.00000000000E+00  0.63497260473E+03  0.63497260473E+03  0.25500000000E-02 0.  1.
         -2   -1    0    0    0  501 -0.00000000000E+00 -0.00000000000E+00 -0.24216892428E+02  0.24216892562E+02  0.25500000000E-02 0. -1.
    5000001    1    1    2    0    0 -0.40484608892E+02  0.70092819215E+02  0.44841442822E+03  0.46212174403E+03  0.77000000000E+02 0.  0.
   -5000001    1    1    2    0    0  0.40484608892E+02 -0.70092819215E+02  0.16234128408E+03  0.19706775327E+03  0.77000000000E+02 0.  0.
<mgrwt>
<rscale>  0 0.24800857E+03</rscale>
<asrwt>0</asrwt>
<pdfrwt beam="1">  1        2 0.90710371E-01 0.24800857E+03</pdfrwt>
<pdfrwt beam="2">  1       -2 0.34595561E-02 0.24800857E+03</pdfrwt>
<totfact> 0.17409466E+04</totfact>
</mgrwt>
</event>
<event>
 4    1  0.5562790E-004  0.2727691E+03  0.7818608E-02  0.1099705E+00
          2   -1    0    0  501    0  0.00000000000E+00  0.00000000000E+00  0.20344093583E+04  0.20344093583E+04  0.25500000000E-02 0.  1.
         -2   -1    0    0    0  501 -0.00000000000E+00 -0.00000000000E+00 -0.91430688416E+01  0.91430691972E+01  0.25500000000E-02 0. -1.
    5000001    1    1    2    0    0  0.40169953811E+02  0.10383952169E+03  0.11369788266E+04  0.11450092243E+04  0.77000000000E+02 0.  0.
   -5000001    1    1    2    0    0 -0.40169953811E+02 -0.10383952169E+03  0.88828746279E+03  0.89854320319E+03  0.77000000000E+02 0.  0.
<mgrwt>
<rscale>  0 0.27276910E+03</rscale>
<asrwt>0</asrwt>
<pdfrwt beam="1">  1        2 0.29063009E+00 0.27276910E+03</pdfrwt>
<pdfrwt beam="2">  1       -2 0.13061519E-02 0.27276910E+03</pdfrwt>
<totfact> 0.12274018E+04</totfact>
</mgrwt>
</event>
<event>
 4    1  0.5562790E-004  0.3484928E+03  0.7818608E-02  0.1063235E+00
         -2   -1    0    0    0  501 -0.00000000000E+00  0.00000000000E+00  0.16690439784E+02  0.16690439979E+02  0.25500000000E-02 0. -1.
          2   -1    0    0  501    0  0.00000000000E+00 -0.00000000000E+00 -0.18191138283E+04  0.18191138283E+04  0.25500000000E-02 0.  1.
    5000001    1    1    2    0    0 -0.11922604636E+03 -0.64639184144E+02 -0.49181765140E+03  0.51595220369E+03  0.77000000000E+02 0.  0.
   -5000001    1    1    2    0    0  0.11922604636E+03  0.64639184144E+02 -0.13106057371E+04  0.13198520646E+04  0.77000000000E+02 0.  0.
<mgrwt>
<rscale>  0 0.34849281E+03</rscale>
<asrwt>0</asrwt>
<pdfrwt beam="1">  1        2 0.25987328E+00 0.34849281E+03</pdfrwt>
<pdfrwt beam="2">  1       -2 0.23843497E-02 0.34849281E+03</pdfrwt>
<totfact> 0.64696352E+03</totfact>
</mgrwt>
</event>
<event>
 4    1  0.5562790E-004  0.2885936E+03  0.7818608E-02  0.1091086E+00
         -2   -1    0    0    0  501 -0.00000000000E+00  0.00000000000E+00  0.17228994186E+02  0.17228994375E+02  0.25500000000E-02 0. -1.
          2   -1    0    0  501    0  0.00000000000E+00 -0.00000000000E+00 -0.12085188303E+04  0.12085188303E+04  0.25500000000E-02 0.  1.
    5000001    1    1    2    0    0 -0.50140955351E+02  0.51339616081E+02 -0.10148764668E+04  0.10203201039E+04  0.77000000000E+02 0.  0.
   -5000001    1    1    2    0    0  0.50140955351E+02 -0.51339616081E+02 -0.17641336926E+03  0.20542772071E+03  0.77000000000E+02 0.  0.
<mgrwt>
<rscale>  0 0.28859358E+03</rscale>
<asrwt>0</asrwt>
<pdfrwt beam="1">  1        2 0.17264549E+00 0.28859358E+03</pdfrwt>
<pdfrwt beam="2">  1       -2 0.24612857E-02 0.28859358E+03</pdfrwt>
<totfact> 0.12611435E+04</totfact>
</mgrwt>
</event>
<event>
 4    1  0.5562790E-004  0.2751373E+03  0.7818608E-02  0.1098375E+00
         -2   -1    0    0    0  501 -0.00000000000E+00  0.00000000000E+00  0.13233415464E+02  0.13233415709E+02  0.25500000000E-02 0. -1.
          2   -1    0    0  501    0  0.00000000000E+00 -0.00000000000E+00 -0.14301017989E+04  0.14301017989E+04  0.25500000000E-02 0.  1.
    5000001    1    1    2    0    0  0.10036550741E+03  0.26897748386E+02 -0.95445430262E+03  0.96317638039E+03  0.77000000000E+02 0.  0.
   -5000001    1    1    2    0    0 -0.10036550741E+03 -0.26897748386E+02 -0.46241408080E+03  0.48015883421E+03  0.77000000000E+02 0.  0.
<mgrwt>
<rscale>  0 0.27513729E+03</rscale>
<asrwt>0</asrwt>
<pdfrwt beam="1">  1        2 0.20430016E+00 0.27513729E+03</pdfrwt>
<pdfrwt beam="2">  1       -2 0.18904889E-02 0.27513729E+03</pdfrwt>
<totfact> 0.14215351E+04</totfact>
</mgrwt>
</event>
<event>
 4    1  0.5562790E-004  0.1681309E+03  0.7818608E-02  0.1179811E+00
          2   -1    0    0  501    0  0.00000000000E+00  0.00000000000E+00  0.13633483088E+03  0.13633483091E+03  0.25500000000E-02 0.  1.
         -2   -1    0    0    0  501 -0.00000000000E+00 -0.00000000000E+00 -0.51835627393E+02  0.51835627456E+02  0.25500000000E-02 0. -1.
    5000001    1    1    2    0    0  0.29013906804E+02  0.16876748111E+02  0.38475741941E+02  0.92390552183E+02  0.77000000000E+02 0.  0.
   -5000001    1    1    2    0    0 -0.29013906804E+02 -0.16876748111E+02  0.46023461548E+02  0.95779906179E+02  0.77000000000E+02 0.  0.
<mgrwt>
<rscale>  0 0.16813092E+03</rscale>
<asrwt>0</asrwt>
<pdfrwt beam="1">  1        2 0.19476404E-01 0.16813092E+03</pdfrwt>
<pdfrwt beam="2">  1       -2 0.74050898E-02 0.16813092E+03</pdfrwt>
<totfact> 0.28804713E+04</totfact>
</mgrwt>
</event>
<event>
 4    1  0.5562790E-004  0.4837511E+03  0.7818608E-02  0.1018109E+00
          2   -1    0    0  501    0  0.00000000000E+00  0.00000000000E+00  0.56695832937E+03  0.56695832937E+03  0.25500000000E-02 0.  1.
         -2   -1    0    0    0  501 -0.00000000000E+00 -0.00000000000E+00 -0.10318884976E+03  0.10318884979E+03  0.25500000000E-02 0. -1.
    5000001    1    1    2    0    0 -0.18556378620E+02  0.20279357775E+03  0.85898640859E+02  0.23404518979E+03  0.77000000000E+02 0.  0.
   -5000001    1    1    2    0    0  0.18556378620E+02 -0.20279357775E+03  0.37787083875E+03  0.43610198938E+03  0.77000000000E+02 0.  0.
<mgrwt>
<rscale>  0 0.48375108E+03</rscale>
<asrwt>0</asrwt>
<pdfrwt beam="1">  1        2 0.80994049E-01 0.48375108E+03</pdfrwt>
<pdfrwt beam="2">  1       -2 0.14741264E-01 0.48375108E+03</pdfrwt>
<totfact> 0.20828880E+03</totfact>
</mgrwt>
</event>
<event>
 4    1  0.5562790E-004  0.4127437E+03  0.7818608E-02  0.1039454E+00
         -2   -1    0    0    0  501 -0.00000000000E+00  0.00000000000E+00  0.35855794610E+02  0.35855794701E+02  0.25500000000E-02 0. -1.
          2   -1    0    0  501    0  0.00000000000E+00 -0.00000000000E+00 -0.11877951295E+04  0.11877951295E+04  0.25500000000E-02 0.  1.
    5000001    1    1    2    0    0  0.16665086971E+03 -0.59697842322E+02 -0.35965007336E+03  0.40818319419E+03  0.77000000000E+02 0.  0.
   -5000001    1    1    2    0    0 -0.16665086971E+03  0.59697842322E+02 -0.79228926154E+03  0.81546773003E+03  0.77000000000E+02 0.  0.
<mgrwt>
<rscale>  0 0.41274369E+03</rscale>
<asrwt>0</asrwt>
<pdfrwt beam="1">  1        2 0.16968499E+00 0.41274369E+03</pdfrwt>
<pdfrwt beam="2">  1       -2 0.51222571E-02 0.41274369E+03</pdfrwt>
<totfact> 0.43158004E+03</totfact>
</mgrwt>
</event>
<event>
 4    1  0.5562790E-004  0.3082937E+03  0.7818608E-02  0.1081167E+00
         -2   -1    0    0    0  501 -0.00000000000E+00  0.00000000000E+00  0.93051422164E+01  0.93051425658E+01  0.25500000000E-02 0. -1.
          2   -1    0    0  501    0  0.00000000000E+00 -0.00000000000E+00 -0.25535608326E+04  0.25535608326E+04  0.25500000000E-02 0.  1.
    5000001    1    1    2    0    0  0.19637933068E+02 -0.43653298999E+02 -0.23579180999E+03  0.25262232004E+03  0.77000000000E+02 0.  0.
   -5000001    1    1    2    0    0 -0.19637933068E+02  0.43653298999E+02 -0.23084638804E+04  0.23102436551E+04  0.77000000000E+02 0.  0.
<mgrwt>
<rscale>  0 0.30829367E+03</rscale>
<asrwt>0</asrwt>
<pdfrwt beam="1">  1        2 0.36479396E+00 0.30829367E+03</pdfrwt>
<pdfrwt beam="2">  1       -2 0.13293077E-02 0.30829367E+03</pdfrwt>
<totfact> 0.66371894E+03</totfact>
</mgrwt>
</event>
<event>
 4    1  0.5562790E-004  0.4405349E+03  0.7818608E-02  0.1030583E+00
          2   -1    0    0  501    0  0.00000000000E+00  0.00000000000E+00  0.12465897900E+04  0.12465897900E+04  0.25500000000E-02 0.  1.
         -2   -1    0    0    0  501 -0.00000000000E+00 -0.00000000000E+00 -0.38920384068E+02  0.38920384152E+02  0.25500000000E-02 0. -1.
    5000001    1    1    2    0    0 -0.15449531860E+03 -0.13539604851E+03  0.66130357813E+03  0.69674408205E+03  0.77000000000E+02 0.  0.
   -5000001    1    1    2    0    0  0.15449531860E+03  0.13539604851E+03  0.54636582780E+03  0.58876609211E+03  0.77000000000E+02 0.  0.
<mgrwt>
<rscale>  0 0.44053492E+03</rscale>
<asrwt>0</asrwt>
<pdfrwt beam="1">  1        2 0.17808420E+00 0.44053492E+03</pdfrwt>
<pdfrwt beam="2">  1       -2 0.55600567E-02 0.44053492E+03</pdfrwt>
<totfact> 0.35309930E+03</totfact>
</mgrwt>
</event>
<event>
 4    1  0.5562790E-004  0.1804031E+03  0.7818608E-02  0.1167414E+00
          2   -1    0    0  501    0  0.00000000000E+00  0.00000000000E+00  0.27352290970E+04  0.27352290970E+04  0.25500000000E-02 0.  1.
         -2   -1    0    0    0  501 -0.00000000000E+00 -0.00000000000E+00 -0.29746384332E+01  0.29746395262E+01  0.25500000000E-02 0. -1.
    5000001    1    1    2    0    0  0.19341672595E+02  0.42526169804E+02  0.12906260227E+04  0.12937647027E+04  0.77000000000E+02 0.  0.
   -5000001    1    1    2    0    0 -0.19341672595E+02 -0.42526169804E+02  0.14416284359E+04  0.14444390339E+04  0.77000000000E+02 0.  0.
<mgrwt>
<rscale>  0 0.18040309E+03</rscale>
<asrwt>0</asrwt>
<pdfrwt beam="1">  1        2 0.39074804E+00 0.18040309E+03</pdfrwt>
<pdfrwt beam="2">  1       -2 0.42494730E-03 0.18040309E+03</pdfrwt>
<totfact> 0.27593963E+04</totfact>
</mgrwt>
</event>
<event>
 4    1  0.5562790E-004  0.2225739E+03  0.7818608E-02  0.1131979E+00
          2   -1    0    0  501    0  0.00000000000E+00  0.00000000000E+00  0.22166494391E+03  0.22166494393E+03  0.25500000000E-02 0.  1.
         -2   -1    0    0    0  501 -0.00000000000E+00 -0.00000000000E+00 -0.55871656136E+02  0.55871656194E+02  0.25500000000E-02 0. -1.
    5000001    1    1    2    0    0  0.43233596780E+01  0.75485508609E+02  0.11679496757E+03  0.15901829423E+03  0.77000000000E+02 0.  0.
   -5000001    1    1    2    0    0 -0.43233596780E+01 -0.75485508609E+02  0.48998320204E+02  0.11851830589E+03  0.77000000000E+02 0.  0.
<mgrwt>
<rscale>  0 0.22257392E+03</rscale>
<asrwt>0</asrwt>
<pdfrwt beam="1">  1        2 0.31666420E-01 0.22257392E+03</pdfrwt>
<pdfrwt beam="2">  1       -2 0.79816653E-02 0.22257392E+03</pdfrwt>
<totfact> 0.15274478E+04</totfact>
</mgrwt>
</event>
<event>
 4    1  0.5562790E-004  0.1759370E+03  0.7818608E-02  0.1171794E+00
          2   -1    0    0  501    0  0.00000000000E+00  0.00000000000E+00  0.10142200315E+04  0.10142200315E+04  0.25500000000E-02 0.  1.
         -2   -1    0    0    0  501 -0.00000000000E+00 -0.00000000000E+00 -0.76299559580E+01  0.76299563841E+01  0.25500000000E-02 0. -1.
    5000001    1    1    2    0    0  0.40268579725E+02 -0.73829760182E+01  0.43621586908E+03  0.44484755960E+03  0.77000000000E+02 0.  0.
   -5000001    1    1    2    0    0 -0.40268579725E+02  0.73829760182E+01  0.57037420644E+03  0.57700242827E+03  0.77000000000E+02 0.  0.
<mgrwt>
<rscale>  0 0.17593697E+03</rscale>
<asrwt>0</asrwt>
<pdfrwt beam="1">  1        2 0.14488860E+00 0.17593697E+03</pdfrwt>
<pdfrwt beam="2">  1       -2 0.10899936E-02 0.17593697E+03</pdfrwt>
<totfact> 0.51638713E+04</totfact>
</mgrwt>
</event>
<event>
 4    1  0.5562790E-004  0.2706481E+03  0.7818608E-02  0.1100909E+00
          2   -1    0    0  501    0  0.00000000000E+00  0.00000000000E+00  0.13040354399E+04  0.13040354399E+04  0.25500000000E-02 0. -1.
         -2   -1    0    0    0  501 -0.00000000000E+00 -0.00000000000E+00 -0.14043021208E+02  0.14043021439E+02  0.25500000000E-02 0.  1.
    5000001    1    1    2    0    0  0.57767443378E+02  0.93076795241E+02  0.74033423107E+03  0.75234575896E+03  0.77000000000E+02 0.  0.
   -5000001    1    1    2    0    0 -0.57767443378E+02 -0.93076795241E+02  0.54965818762E+03  0.56573270239E+03  0.77000000000E+02 0.  0.
<mgrwt>
<rscale>  0 0.27064809E+03</rscale>
<asrwt>0</asrwt>
<pdfrwt beam="1">  1        2 0.18629065E+00 0.27064809E+03</pdfrwt>
<pdfrwt beam="2">  1       -2 0.20061473E-02 0.27064809E+03</pdfrwt>
<totfact> 0.15133578E+04</totfact>
</mgrwt>
</event>
<event>
 4    1  0.5562790E-004  0.1654497E+03  0.7818608E-02  0.1182678E+00
          2   -1    0    0  501    0  0.00000000000E+00  0.00000000000E+00  0.10506380780E+04  0.10506380780E+04  0.25500000000E-02 0.  1.
         -2   -1    0    0    0  501 -0.00000000000E+00 -0.00000000000E+00 -0.65135639637E+01  0.65135644629E+01  0.25500000000E-02 0. -1.
    5000001    1    1    2    0    0  0.18155586864E+02 -0.24146163254E+02  0.53048111308E+03  0.53689093294E+03  0.77000000000E+02 0.  0.
   -5000001    1    1    2    0    0 -0.18155586864E+02  0.24146163254E+02  0.51364340092E+03  0.52026070950E+03  0.77000000000E+02 0.  0.
<mgrwt>
<rscale>  0 0.16544967E+03</rscale>
<asrwt>0</asrwt>
<pdfrwt beam="1">  1        2 0.15009095E+00 0.16544967E+03</pdfrwt>
<pdfrwt beam="2">  1       -2 0.93051041E-03 0.16544967E+03</pdfrwt>
<totfact> 0.61450360E+04</totfact>
</mgrwt>
</event>
<event>
 4    1  0.5562790E-004  0.2377115E+03  0.7818608E-02  0.1121327E+00
          2   -1    0    0  501    0  0.00000000000E+00  0.00000000000E+00  0.48420359493E+02  0.48420359560E+02  0.25500000000E-02 0.  1.
         -2   -1    0    0    0  501 -0.00000000000E+00 -0.00000000000E+00 -0.29175103007E+03  0.29175103008E+03  0.25500000000E-02 0. -1.
    5000001    1    1    2    0    0 -0.19749702925E+02 -0.88324741232E+02 -0.11805101175E+03  0.16750030464E+03  0.77000000000E+02 0.  0.
   -5000001    1    1    2    0    0  0.19749702925E+02  0.88324741232E+02 -0.12527965882E+03  0.17267108499E+03  0.77000000000E+02 0.  0.
<mgrwt>
<rscale>  0 0.23771150E+03</rscale>
<asrwt>0</asrwt>
<pdfrwt beam="1">  1        2 0.69171944E-02 0.23771150E+03</pdfrwt>
<pdfrwt beam="2">  1       -2 0.41678717E-01 0.23771150E+03</pdfrwt>
<totfact> 0.55644070E+03</totfact>
</mgrwt>
</event>
<event>
 4    1  0.5562790E-004  0.6175350E+03  0.7818608E-02  0.9869680E-01
          2   -1    0    0  501    0  0.00000000000E+00  0.00000000000E+00  0.15014666673E+04  0.15014666673E+04  0.25500000000E-02 0.  1.
         -2   -1    0    0    0  501 -0.00000000000E+00 -0.00000000000E+00 -0.63496160390E+02  0.63496160441E+02  0.25500000000E-02 0. -1.
    5000001    1    1    2    0    0  0.11352271828E+03  0.27402627781E+03  0.62313451343E+03  0.69440869114E+03  0.77000000000E+02 0.  0.
   -5000001    1    1    2    0    0 -0.11352271828E+03 -0.27402627781E+03  0.81483599352E+03  0.87055413665E+03  0.77000000000E+02 0.  0.
<mgrwt>
<rscale>  0 0.61753500E+03</rscale>
<asrwt>0</asrwt>
<pdfrwt beam="1">  1        2 0.21449528E+00 0.61753500E+03</pdfrwt>
<pdfrwt beam="2">  1       -2 0.90708784E-02 0.61753500E+03</pdfrwt>
<totfact> 0.11898271E+03</totfact>
</mgrwt>
</event>
<event>
 4    1  0.5562790E-004  0.2305462E+03  0.7818608E-02  0.1126256E+00
         -2   -1    0    0    0  501 -0.00000000000E+00  0.00000000000E+00  0.25839552842E+02  0.25839552968E+02  0.25500000000E-02 0. -1.
          2   -1    0    0  501    0  0.00000000000E+00 -0.00000000000E+00 -0.51424614997E+03  0.51424614997E+03  0.25500000000E-02 0.  1.
    5000001    1    1    2    0    0 -0.59087544004E+01  0.78860024203E+02 -0.32207870128E+03  0.34046660132E+03  0.77000000000E+02 0.  0.
   -5000001    1    1    2    0    0  0.59087544004E+01 -0.78860024203E+02 -0.16632789585E+03  0.19961910162E+03  0.77000000000E+02 0.  0.
<mgrwt>
<rscale>  0 0.23054623E+03</rscale>
<asrwt>0</asrwt>
<pdfrwt beam="1">  1        2 0.73463730E-01 0.23054623E+03</pdfrwt>
<pdfrwt beam="2">  1       -2 0.36913650E-02 0.23054623E+03</pdfrwt>
<totfact> 0.19960747E+04</totfact>
</mgrwt>
</event>
<event>
 4    1  0.5562790E-004  0.2368431E+03  0.7818608E-02  0.1121914E+00
          2   -1    0    0  501    0  0.00000000000E+00  0.00000000000E+00  0.15427000572E+04  0.15427000572E+04  0.25500000000E-02 0.  1.
         -2   -1    0    0    0  501 -0.00000000000E+00 -0.00000000000E+00 -0.90903396452E+01  0.90903400028E+01  0.25500000000E-02 0. -1.
    5000001    1    1    2    0    0 -0.26029586542E+02  0.83098115003E+02  0.91503476624E+03  0.92238845370E+03  0.77000000000E+02 0.  0.
   -5000001    1    1    2    0    0  0.26029586542E+02 -0.83098115003E+02  0.61857495131E+03  0.62940194349E+03  0.77000000000E+02 0.  0.
<mgrwt>
<rscale>  0 0.23684314E+03</rscale>
<asrwt>0</asrwt>
<pdfrwt beam="1">  1        2 0.22038585E+00 0.23684314E+03</pdfrwt>
<pdfrwt beam="2">  1       -2 0.12986192E-02 0.23684314E+03</pdfrwt>
<totfact> 0.21468727E+04</totfact>
</mgrwt>
</event>
<event>
 4    1  0.5562790E-004  0.3076278E+03  0.7818608E-02  0.1081489E+00
         -2   -1    0    0    0  501 -0.00000000000E+00  0.00000000000E+00  0.23066700775E+03  0.23066700776E+03  0.25500000000E-02 0. -1.
          2   -1    0    0  501    0  0.00000000000E+00 -0.00000000000E+00 -0.10256653462E+03  0.10256653465E+03  0.25500000000E-02 0.  1.
    5000001    1    1    2    0    0  0.12594817470E+03  0.29231933702E+02  0.29585840818E+02  0.15336808871E+03  0.77000000000E+02 0.  0.
   -5000001    1    1    2    0    0 -0.12594817470E+03 -0.29231933702E+02  0.98514632309E+02  0.17986545370E+03  0.77000000000E+02 0.  0.
<mgrwt>
<rscale>  0 0.30762780E+03</rscale>
<asrwt>0</asrwt>
<pdfrwt beam="1">  1        2 0.14652362E-01 0.30762780E+03</pdfrwt>
<pdfrwt beam="2">  1       -2 0.32952429E-01 0.30762780E+03</pdfrwt>
<totfact> 0.34464017E+03</totfact>
</mgrwt>
</event>
<event>
 4    1  0.5562790E-004  0.2724224E+03  0.7818608E-02  0.1099901E+00
          2   -1    0    0  501    0  0.00000000000E+00  0.00000000000E+00  0.61695505673E+03  0.61695505674E+03  0.25500000000E-02 0.  1.
         -2   -1    0    0    0  501 -0.00000000000E+00 -0.00000000000E+00 -0.30072673025E+02  0.30072673133E+02  0.25500000000E-02 0. -1.
    5000001    1    1    2    0    0 -0.32732485459E+02  0.10577481622E+03  0.24808005331E+03  0.28236933297E+03  0.77000000000E+02 0.  0.
   -5000001    1    1    2    0    0  0.32732485459E+02 -0.10577481622E+03  0.33880233040E+03  0.36465839690E+03  0.77000000000E+02 0.  0.
<mgrwt>
<rscale>  0 0.27242238E+03</rscale>
<asrwt>0</asrwt>
<pdfrwt beam="1">  1        2 0.88136423E-01 0.27242238E+03</pdfrwt>
<pdfrwt beam="2">  1       -2 0.42960968E-02 0.27242238E+03</pdfrwt>
<totfact> 0.13062301E+04</totfact>
</mgrwt>
</event>
<event>
 4    1  0.5562790E-004  0.2172807E+03  0.7818608E-02  0.1135927E+00
          2   -1    0    0  501    0  0.00000000000E+00  0.00000000000E+00  0.22144132092E+04  0.22144132092E+04  0.25500000000E-02 0.  1.
         -2   -1    0    0    0  501 -0.00000000000E+00 -0.00000000000E+00 -0.53299575021E+01  0.53299581121E+01  0.25500000000E-02 0. -1.
    5000001    1    1    2    0    0  0.21224789914E+02 -0.66234914532E+02  0.14333915359E+04  0.14371422514E+04  0.77000000000E+02 0.  0.
   -5000001    1    1    2    0    0 -0.21224789914E+02  0.66234914532E+02  0.77569171586E+03  0.78260091596E+03  0.77000000000E+02 0.  0.
<mgrwt>
<rscale>  0 0.21728073E+03</rscale>
<asrwt>0</asrwt>
<pdfrwt beam="1">  1        2 0.31634503E+00 0.21728073E+03</pdfrwt>
<pdfrwt beam="2">  1       -2 0.76142185E-03 0.21728073E+03</pdfrwt>
<totfact> 0.21789380E+04</totfact>
</mgrwt>
</event>
<event>
 4    1  0.5562790E-004  0.2115847E+03  0.7818608E-02  0.1140317E+00
         -2   -1    0    0    0  501 -0.00000000000E+00  0.00000000000E+00  0.10124768662E+03  0.10124768665E+03  0.25500000000E-02 0. -1.
          2   -1    0    0  501    0  0.00000000000E+00 -0.00000000000E+00 -0.11054101010E+03  0.11054101013E+03  0.25500000000E-02 0.  1.
    5000001    1    1    2    0    0 -0.33706369262E+02 -0.59242818895E+02 -0.29513935613E+02  0.10698552853E+03  0.77000000000E+02 0.  0.
   -5000001    1    1    2    0    0  0.33706369262E+02  0.59242818895E+02  0.20220612133E+02  0.10480316825E+03  0.77000000000E+02 0.  0.
<mgrwt>
<rscale>  0 0.21158470E+03</rscale>
<asrwt>0</asrwt>
<pdfrwt beam="1">  1        2 0.15791573E-01 0.21158470E+03</pdfrwt>
<pdfrwt beam="2">  1       -2 0.14463955E-01 0.21158470E+03</pdfrwt>
<totfact> 0.12928043E+04</totfact>
</mgrwt>
</event>
<event>
 4    1  0.5562790E-004  0.2530800E+03  0.7818608E-02  0.1111374E+00
         -2   -1    0    0    0  501 -0.00000000000E+00  0.00000000000E+00  0.14898211699E+02  0.14898211918E+02  0.25500000000E-02 0. -1.
          2   -1    0    0  501    0  0.00000000000E+00 -0.00000000000E+00 -0.10747845403E+04  0.10747845403E+04  0.25500000000E-02 0.  1.
    5000001    1    1    2    0    0  0.53912127643E+02  0.67311458860E+02 -0.30846104085E+03  0.32941548798E+03  0.77000000000E+02 0.  0.
   -5000001    1    1    2    0    0 -0.53912127643E+02 -0.67311458860E+02 -0.75142528780E+03  0.76026726429E+03  0.77000000000E+02 0.  0.
<mgrwt>
<rscale>  0 0.25307997E+03</rscale>
<asrwt>0</asrwt>
<pdfrwt beam="1">  1        2 0.15354060E+00 0.25307997E+03</pdfrwt>
<pdfrwt beam="2">  1       -2 0.21283166E-02 0.25307997E+03</pdfrwt>
<totfact> 0.18446101E+04</totfact>
</mgrwt>
</event>
<event>
 4    1  0.5562790E-004  0.4708928E+03  0.7818608E-02  0.1021669E+00
         -2   -1    0    0    0  501 -0.00000000000E+00  0.00000000000E+00  0.24914717206E+02  0.24914717337E+02  0.25500000000E-02 0. -1.
          2   -1    0    0  501    0  0.00000000000E+00 -0.00000000000E+00 -0.22249901969E+04  0.22249901969E+04  0.25500000000E-02 0.  1.
    5000001    1    1    2    0    0  0.34424583416E+02  0.13304991972E+03 -0.19360935845E+04  0.19424918792E+04  0.77000000000E+02 0.  0.
   -5000001    1    1    2    0    0 -0.34424583416E+02 -0.13304991972E+03 -0.26398189521E+03  0.30741303498E+03  0.77000000000E+02 0.  0.
<mgrwt>
<rscale>  0 0.47089278E+03</rscale>
<asrwt>0</asrwt>
<pdfrwt beam="1">  1        2 0.31785561E+00 0.47089278E+03</pdfrwt>
<pdfrwt beam="2">  1       -2 0.35592468E-02 0.47089278E+03</pdfrwt>
<totfact> 0.22228532E+03</totfact>
</mgrwt>
</event>
<event>
 4    1  0.5562790E-004  0.3289451E+03  0.7818608E-02  0.1071605E+00
         -2   -1    0    0    0  501 -0.00000000000E+00  0.00000000000E+00  0.28038587925E+02  0.28038588041E+02  0.25500000000E-02 0. -1.
          2   -1    0    0  501    0  0.00000000000E+00 -0.00000000000E+00 -0.96478530043E+03  0.96478530044E+03  0.25500000000E-02 0.  1.
    5000001    1    1    2    0    0  0.27704562939E+02 -0.13910056473E+03 -0.37265732474E+03  0.40610219354E+03  0.77000000000E+02 0.  0.
   -5000001    1    1    2    0    0 -0.27704562939E+02  0.13910056473E+03 -0.56408938777E+03  0.58672169493E+03  0.77000000000E+02 0.  0.
<mgrwt>
<rscale>  0 0.32894509E+03</rscale>
<asrwt>0</asrwt>
<pdfrwt beam="1">  1        2 0.13782645E+00 0.32894509E+03</pdfrwt>
<pdfrwt beam="2">  1       -2 0.40055132E-02 0.32894509E+03</pdfrwt>
<totfact> 0.84170051E+03</totfact>
</mgrwt>
</event>
<event>
 4    1  0.5562790E-004  0.3602084E+03  0.7818608E-02  0.1058501E+00
          2   -1    0    0  501    0  0.00000000000E+00  0.00000000000E+00  0.11780875555E+04  0.11780875555E+04  0.25500000000E-02 0.  1.
         -2   -1    0    0    0  501 -0.00000000000E+00 -0.00000000000E+00 -0.27534046084E+02  0.27534046202E+02  0.25500000000E-02 0. -1.
    5000001    1    1    2    0    0 -0.11119133805E+03  0.11847012181E+03  0.54019954583E+03  0.56933578206E+03  0.77000000000E+02 0.  0.
   -5000001    1    1    2    0    0  0.11119133805E+03 -0.11847012181E+03  0.61035396362E+03  0.63628581968E+03  0.77000000000E+02 0.  0.
<mgrwt>
<rscale>  0 0.36020837E+03</rscale>
<asrwt>0</asrwt>
<pdfrwt beam="1">  1        2 0.16829826E+00 0.36020837E+03</pdfrwt>
<pdfrwt beam="2">  1       -2 0.39334343E-02 0.36020837E+03</pdfrwt>
<totfact> 0.65283677E+03</totfact>
</mgrwt>
</event>
<event>
 4    1  0.5562790E-004  0.2213942E+03  0.7818608E-02  0.1132848E+00
          2   -1    0    0  501    0  0.00000000000E+00  0.00000000000E+00  0.73340167994E+03  0.73340167994E+03  0.25500000000E-02 0.  1.
         -2   -1    0    0    0  501 -0.00000000000E+00 -0.00000000000E+00 -0.16708239839E+02  0.16708240033E+02  0.25500000000E-02 0. -1.
    5000001    1    1    2    0    0 -0.18066332049E+02  0.43849933347E+02  0.14204666086E+03  0.16839080399E+03  0.77000000000E+02 0.  0.
   -5000001    1    1    2    0    0  0.18066332049E+02 -0.43849933347E+02  0.57464677924E+03  0.58171911598E+03  0.77000000000E+02 0.  0.
<mgrwt>
<rscale>  0 0.22139423E+03</rscale>
<asrwt>0</asrwt>
<pdfrwt beam="1">  1        2 0.10477169E+00 0.22139423E+03</pdfrwt>
<pdfrwt beam="2">  1       -2 0.23868909E-02 0.22139423E+03</pdfrwt>
<totfact> 0.25310559E+04</totfact>
</mgrwt>
</event>
<event>
 4    1  0.5562790E-004  0.2324802E+03  0.7818608E-02  0.1124906E+00
          2   -1    0    0  501    0  0.00000000000E+00  0.00000000000E+00  0.28852773221E+03  0.28852773222E+03  0.25500000000E-02 0.  1.
         -2   -1    0    0    0  501 -0.00000000000E+00 -0.00000000000E+00 -0.46830013547E+02  0.46830013616E+02  0.25500000000E-02 0. -1.
    5000001    1    1    2    0    0  0.58375967875E+02 -0.63089870420E+02  0.10072207267E+03  0.15317317421E+03  0.77000000000E+02 0.  0.
   -5000001    1    1    2    0    0 -0.58375967875E+02  0.63089870420E+02  0.14097564599E+03  0.18218457162E+03  0.77000000000E+02 0.  0.
<mgrwt>
<rscale>  0 0.23248017E+03</rscale>
<asrwt>0</asrwt>
<pdfrwt beam="1">  1        2 0.41218250E-01 0.23248017E+03</pdfrwt>
<pdfrwt beam="2">  1       -2 0.66900016E-02 0.23248017E+03</pdfrwt>
<totfact> 0.15141280E+04</totfact>
</mgrwt>
</event>
<event>
 4    1  0.5562790E-004  0.1774240E+03  0.7818608E-02  0.1170320E+00
          2   -1    0    0  501    0  0.00000000000E+00  0.00000000000E+00  0.19991018544E+04  0.19991018544E+04  0.25500000000E-02 0.  1.
         -2   -1    0    0    0  501 -0.00000000000E+00 -0.00000000000E+00 -0.39366762147E+01  0.39366770406E+01  0.25500000000E-02 0. -1.
    5000001    1    1    2    0    0 -0.41981203137E+02 -0.57389143712E+01  0.86142236663E+03  0.86589424890E+03  0.77000000000E+02 0.  0.
   -5000001    1    1    2    0    0  0.41981203137E+02  0.57389143712E+01  0.11337428115E+04  0.11371442825E+04  0.77000000000E+02 0.  0.
<mgrwt>
<rscale>  0 0.17742398E+03</rscale>
<asrwt>0</asrwt>
<pdfrwt beam="1">  1        2 0.28558607E+00 0.17742398E+03</pdfrwt>
<pdfrwt beam="2">  1       -2 0.56238220E-03 0.17742398E+03</pdfrwt>
<totfact> 0.42295486E+04</totfact>
</mgrwt>
</event>
<event>
 4    1  0.5562790E-004  0.1897548E+03  0.7818608E-02  0.1158683E+00
          2   -1    0    0  501    0  0.00000000000E+00  0.00000000000E+00  0.12978518186E+02  0.12978518437E+02  0.25500000000E-02 0.  1.
         -2   -1    0    0    0  501 -0.00000000000E+00 -0.00000000000E+00 -0.69358643768E+03  0.69358643768E+03  0.25500000000E-02 0. -1.
    5000001    1    1    2    0    0 -0.55270357478E+02  0.34135164783E+01 -0.33098776403E+03  0.34430853090E+03  0.77000000000E+02 0.  0.
   -5000001    1    1    2    0    0  0.55270357478E+02 -0.34135164783E+01 -0.34962015546E+03  0.36225642522E+03  0.77000000000E+02 0.  0.
<mgrwt>
<rscale>  0 0.18975483E+03</rscale>
<asrwt>0</asrwt>
<pdfrwt beam="1">  1        2 0.18540745E-02 0.18975483E+03</pdfrwt>
<pdfrwt beam="2">  1       -2 0.99083753E-01 0.18975483E+03</pdfrwt>
<totfact> 0.51865385E+03</totfact>
</mgrwt>
</event>
<event>
 4    1  0.5562790E-004  0.3000714E+03  0.7818608E-02  0.1085205E+00
          2   -1    0    0  501    0  0.00000000000E+00  0.00000000000E+00  0.10937071680E+03  0.10937071683E+03  0.25500000000E-02 0.  1.
         -2   -1    0    0    0  501 -0.00000000000E+00 -0.00000000000E+00 -0.20582021723E+03  0.20582021725E+03  0.25500000000E-02 0. -1.
    5000001    1    1    2    0    0  0.41777585225E+02  0.96302801056E+02 -0.12656210588E+03  0.18156696496E+03  0.77000000000E+02 0.  0.
   -5000001    1    1    2    0    0 -0.41777585225E+02 -0.96302801056E+02  0.30112605452E+02  0.13362396913E+03  0.77000000000E+02 0.  0.
<mgrwt>
<rscale>  0 0.30007136E+03</rscale>
<asrwt>0</asrwt>
<pdfrwt beam="1">  1        2 0.15624388E-01 0.30007136E+03</pdfrwt>
<pdfrwt beam="2">  1       -2 0.29402888E-01 0.30007136E+03</pdfrwt>
<totfact> 0.39316249E+03</totfact>
</mgrwt>
</event>
<event>
 4    1  0.5562790E-004  0.3450719E+03  0.7818608E-02  0.1064656E+00
          2   -1    0    0  501    0  0.00000000000E+00  0.00000000000E+00  0.20859381382E+03  0.20859381383E+03  0.25500000000E-02 0.  1.
         -2   -1    0    0    0  501 -0.00000000000E+00 -0.00000000000E+00 -0.14271106592E+03  0.14271106594E+03  0.25500000000E-02 0. -1.
    5000001    1    1    2    0    0  0.92306876062E+02 -0.60459013198E+02 -0.77008457382E+02  0.15503275187E+03  0.77000000000E+02 0.  0.
   -5000001    1    1    2    0    0 -0.92306876062E+02  0.60459013198E+02  0.14289120528E+03  0.19627212790E+03  0.77000000000E+02 0.  0.
<mgrwt>
<rscale>  0 0.34507185E+03</rscale>
<asrwt>0</asrwt>
<pdfrwt beam="1">  1        2 0.29799116E-01 0.34507185E+03</pdfrwt>
<pdfrwt beam="2">  1       -2 0.20387295E-01 0.34507185E+03</pdfrwt>
<totfact> 0.36053266E+03</totfact>
</mgrwt>
</event>
<event>
 4    1  0.5562790E-004  0.2593030E+03  0.7818608E-02  0.1107563E+00
         -2   -1    0    0    0  501 -0.00000000000E+00  0.00000000000E+00  0.48771162829E+03  0.48771162830E+03  0.25500000000E-02 0. -1.
          2   -1    0    0  501    0  0.00000000000E+00 -0.00000000000E+00 -0.34466097676E+02  0.34466097771E+02  0.25500000000E-02 0.  1.
    5000001    1    1    2    0    0 -0.79107755468E+02 -0.38778336578E+02  0.11416254069E+03  0.16347440797E+03  0.77000000000E+02 0.  0.
   -5000001    1    1    2    0    0  0.79107755468E+02  0.38778336578E+02  0.33908298992E+03  0.35870331810E+03  0.77000000000E+02 0.  0.
<mgrwt>
<rscale>  0 0.25930304E+03</rscale>
<asrwt>0</asrwt>
<pdfrwt beam="1">  1        2 0.49237283E-02 0.25930304E+03</pdfrwt>
<pdfrwt beam="2">  1       -2 0.69673089E-01 0.25930304E+03</pdfrwt>
<totfact> 0.30741736E+03</totfact>
</mgrwt>
</event>
<event>
 4    1  0.5562790E-004  0.4037112E+03  0.7818608E-02  0.1042502E+00
         -2   -1    0    0    0  501 -0.00000000000E+00  0.00000000000E+00  0.80388235023E+02  0.80388235063E+02  0.25500000000E-02 0. -1.
          2   -1    0    0  501    0  0.00000000000E+00 -0.00000000000E+00 -0.50686129416E+03  0.50686129417E+03  0.25500000000E-02 0.  1.
    5000001    1    1    2    0    0 -0.71202414098E+02 -0.17068008384E+03 -0.17715677415E+03  0.26742288126E+03  0.77000000000E+02 0.  0.
   -5000001    1    1    2    0    0  0.71202414098E+02  0.17068008384E+03 -0.24931628499E+03  0.31982664797E+03  0.77000000000E+02 0.  0.
<mgrwt>
<rscale>  0 0.40371121E+03</rscale>
<asrwt>0</asrwt>
<pdfrwt beam="1">  1        2 0.72408754E-01 0.40371121E+03</pdfrwt>
<pdfrwt beam="2">  1       -2 0.11484034E-01 0.40371121E+03</pdfrwt>
<totfact> 0.35634801E+03</totfact>
</mgrwt>
</event>
<event>
 4    1  0.5562790E-004  0.2709923E+03  0.7818608E-02  0.1100713E+00
         -2   -1    0    0    0  501 -0.00000000000E+00  0.00000000000E+00  0.43647956209E+03  0.43647956209E+03  0.25500000000E-02 0. -1.
          2   -1    0    0  501    0  0.00000000000E+00 -0.00000000000E+00 -0.42062015462E+02  0.42062015539E+02  0.25500000000E-02 0.  1.
    5000001    1    1    2    0    0 -0.74575807873E+02  0.61601988608E+02  0.29511364497E+03  0.31996471613E+03  0.77000000000E+02 0.  0.
   -5000001    1    1    2    0    0  0.74575807873E+02 -0.61601988608E+02  0.99303901654E+02  0.15857686150E+03  0.77000000000E+02 0.  0.
<mgrwt>
<rscale>  0 0.27099233E+03</rscale>
<asrwt>0</asrwt>
<pdfrwt beam="1">  1        2 0.60088590E-02 0.27099233E+03</pdfrwt>
<pdfrwt beam="2">  1       -2 0.62354227E-01 0.27099233E+03</pdfrwt>
<totfact> 0.29968833E+03</totfact>
</mgrwt>
</event>
<event>
 4    1  0.5562790E-004  0.2177916E+03  0.7818608E-02  0.1135540E+00
          2   -1    0    0  501    0  0.00000000000E+00  0.00000000000E+00  0.10694771952E+02  0.10694772256E+02  0.25500000000E-02 0.  1.
         -2   -1    0    0    0  501 -0.00000000000E+00 -0.00000000000E+00 -0.11087935486E+04  0.11087935486E+04  0.25500000000E-02 0. -1.
    5000001    1    1    2    0    0 -0.76908982623E+00  0.76783644218E+02 -0.57856620598E+03  0.58869701394E+03  0.77000000000E+02 0.  0.
   -5000001    1    1    2    0    0  0.76908982623E+00 -0.76783644218E+02 -0.51953257070E+03  0.53079130695E+03  0.77000000000E+02 0.  0.
<mgrwt>
<rscale>  0 0.21779159E+03</rscale>
<asrwt>0</asrwt>
<pdfrwt beam="1">  1        2 0.15278253E-02 0.21779159E+03</pdfrwt>
<pdfrwt beam="2">  1       -2 0.15839900E+00 0.21779159E+03</pdfrwt>
<totfact> 0.21650364E+03</totfact>
</mgrwt>
</event>
<event>
 4    1  0.5562790E-004  0.5412198E+03  0.7818608E-02  0.1003547E+00
         -2   -1    0    0    0  501 -0.00000000000E+00  0.00000000000E+00  0.91543839371E+03  0.91543839372E+03  0.25500000000E-02 0. -1.
          2   -1    0    0  501    0  0.00000000000E+00 -0.00000000000E+00 -0.79994151978E+02  0.79994152019E+02  0.25500000000E-02 0.  1.
    5000001    1    1    2    0    0 -0.23990449072E+03 -0.67130352314E+02  0.28458269854E+03  0.38597533753E+03  0.77000000000E+02 0.  0.
   -5000001    1    1    2    0    0  0.23990449072E+03  0.67130352314E+02  0.55086154319E+03  0.60945720821E+03  0.77000000000E+02 0.  0.
<mgrwt>
<rscale>  0 0.54121980E+03</rscale>
<asrwt>0</asrwt>
<pdfrwt beam="1">  1        2 0.11427737E-01 0.54121980E+03</pdfrwt>
<pdfrwt beam="2">  1       -2 0.13077691E+00 0.54121980E+03</pdfrwt>
<totfact> 0.24361342E+02</totfact>
</mgrwt>
</event>
<event>
 4    1  0.5562790E-004  0.3309580E+03  0.7818608E-02  0.1070714E+00
         -2   -1    0    0    0  501 -0.00000000000E+00  0.00000000000E+00  0.19146173625E+02  0.19146173795E+02  0.25500000000E-02 0. -1.
          2   -1    0    0  501    0  0.00000000000E+00 -0.00000000000E+00 -0.14302230894E+04  0.14302230894E+04  0.25500000000E-02 0.  1.
    5000001    1    1    2    0    0  0.11383806842E+03  0.29950946701E+02 -0.32380550196E+03  0.35303706339E+03  0.77000000000E+02 0.  0.
   -5000001    1    1    2    0    0 -0.11383806842E+03 -0.29950946701E+02 -0.10872714138E+04  0.10963321998E+04  0.77000000000E+02 0.  0.
<mgrwt>
<rscale>  0 0.33095800E+03</rscale>
<asrwt>0</asrwt>
<pdfrwt beam="1">  1        2 0.20431752E+00 0.33095800E+03</pdfrwt>
<pdfrwt beam="2">  1       -2 0.27351686E-02 0.33095800E+03</pdfrwt>
<totfact> 0.82629836E+03</totfact>
</mgrwt>
</event>
<event>
 4    1  0.5562790E-004  0.1972003E+03  0.7818608E-02  0.1152123E+00
          2   -1    0    0  501    0  0.00000000000E+00  0.00000000000E+00  0.35225795285E+03  0.35225795286E+03  0.25500000000E-02 0.  1.
         -2   -1    0    0    0  501 -0.00000000000E+00 -0.00000000000E+00 -0.27599053677E+02  0.27599053795E+02  0.25500000000E-02 0. -1.
    5000001    1    1    2    0    0  0.41091313671E+02  0.45870066329E+02  0.16107054687E+03  0.18885253537E+03  0.77000000000E+02 0.  0.
   -5000001    1    1    2    0    0 -0.41091313671E+02 -0.45870066329E+02  0.16358835230E+03  0.19100447129E+03  0.77000000000E+02 0.  0.
<mgrwt>
<rscale>  0 0.19720027E+03</rscale>
<asrwt>0</asrwt>
<pdfrwt beam="1">  1        2 0.50322561E-01 0.19720027E+03</pdfrwt>
<pdfrwt beam="2">  1       -2 0.39427222E-02 0.19720027E+03</pdfrwt>
<totfact> 0.26945491E+04</totfact>
</mgrwt>
</event>
<event>
 4    1  0.5562790E-004  0.1810341E+03  0.7818608E-02  0.1166806E+00
         -2   -1    0    0    0  501 -0.00000000000E+00  0.00000000000E+00  0.33452945096E+02  0.33452945193E+02  0.25500000000E-02 0. -1.
          2   -1    0    0  501    0  0.00000000000E+00 -0.00000000000E+00 -0.24492124756E+03  0.24492124758E+03  0.25500000000E-02 0.  1.
    5000001    1    1    2    0    0  0.31414416639E+02  0.32116988766E+02 -0.12985041895E+03  0.15750713584E+03  0.77000000000E+02 0.  0.
   -5000001    1    1    2    0    0 -0.31414416639E+02 -0.32116988766E+02 -0.81617883516E+02  0.12086705693E+03  0.77000000000E+02 0.  0.
<mgrwt>
<rscale>  0 0.18103411E+03</rscale>
<asrwt>0</asrwt>
<pdfrwt beam="1">  1        2 0.34988749E-01 0.18103411E+03</pdfrwt>
<pdfrwt beam="2">  1       -2 0.47789923E-02 0.18103411E+03</pdfrwt>
<totfact> 0.29576099E+04</totfact>
</mgrwt>
</event>
<event>
 4    1  0.5562790E-004  0.1967267E+03  0.7818608E-02  0.1152530E+00
         -2   -1    0    0    0  501 -0.00000000000E+00  0.00000000000E+00  0.17255742991E+02  0.17255743179E+02  0.25500000000E-02 0. -1.
          2   -1    0    0  501    0  0.00000000000E+00 -0.00000000000E+00 -0.56070296850E+03  0.56070296851E+03  0.25500000000E-02 0.  1.
    5000001    1    1    2    0    0  0.57593079820E+02  0.19926745086E+02 -0.25502459113E+03  0.27327747820E+03  0.77000000000E+02 0.  0.
   -5000001    1    1    2    0    0 -0.57593079820E+02 -0.19926745086E+02 -0.28842263438E+03  0.30468123348E+03  0.77000000000E+02 0.  0.
<mgrwt>
<rscale>  0 0.19672668E+03</rscale>
<asrwt>0</asrwt>
<pdfrwt beam="1">  1        2 0.80100413E-01 0.19672668E+03</pdfrwt>
<pdfrwt beam="2">  1       -2 0.24651065E-02 0.19672668E+03</pdfrwt>
<totfact> 0.32613519E+04</totfact>
</mgrwt>
</event>
<event>
 4    1  0.5562790E-004  0.5556872E+03  0.7818608E-02  0.1000186E+00
          2   -1    0    0  501    0  0.00000000000E+00  0.00000000000E+00  0.41194947641E+03  0.41194947641E+03  0.25500000000E-02 0.  1.
         -2   -1    0    0    0  501 -0.00000000000E+00 -0.00000000000E+00 -0.18739447111E+03  0.18739447112E+03  0.25500000000E-02 0. -1.
    5000001    1    1    2    0    0  0.17118120521E+03 -0.14004165728E+03  0.27353406536E+03  0.36008964953E+03  0.77000000000E+02 0.  0.
   -5000001    1    1    2    0    0 -0.17118120521E+03  0.14004165728E+03 -0.48979060058E+02  0.23925429801E+03  0.77000000000E+02 0.  0.
<mgrwt>
<rscale>  0 0.55568716E+03</rscale>
<asrwt>0</asrwt>
<pdfrwt beam="1">  1        2 0.58849925E-01 0.55568716E+03</pdfrwt>
<pdfrwt beam="2">  1       -2 0.26770639E-01 0.55568716E+03</pdfrwt>
<totfact> 0.10599763E+03</totfact>
</mgrwt>
</event>
<event>
 4    1  0.5562790E-004  0.1726020E+03  0.7818608E-02  0.1175161E+00
         -2   -1    0    0    0  501 -0.00000000000E+00  0.00000000000E+00  0.18283827712E+03  0.18283827714E+03  0.25500000000E-02 0. -1.
          2   -1    0    0  501    0  0.00000000000E+00 -0.00000000000E+00 -0.40734698560E+02  0.40734698639E+02  0.25500000000E-02 0.  1.
    5000001    1    1    2    0    0  0.27787162362E-01 -0.30233109982E+02  0.39196121427E+02  0.91538940600E+02  0.77000000000E+02 0.  0.
   -5000001    1    1    2    0    0 -0.27787162362E-01  0.30233109982E+02  0.10290745713E+03  0.13203403518E+03  0.77000000000E+02 0.  0.
<mgrwt>
<rscale>  0 0.17260199E+03</rscale>
<asrwt>0</asrwt>
<pdfrwt beam="1">  1        2 0.58192425E-02 0.17260199E+03</pdfrwt>
<pdfrwt beam="2">  1       -2 0.26119755E-01 0.17260199E+03</pdfrwt>
<totfact> 0.16074674E+04</totfact>
</mgrwt>
</event>
<event>
 4    1  0.5562790E-004  0.4346852E+03  0.7818608E-02  0.1032390E+00
         -2   -1    0    0    0  501 -0.00000000000E+00  0.00000000000E+00  0.83773444642E+02  0.83773444681E+02  0.25500000000E-02 0. -1.
          2   -1    0    0  501    0  0.00000000000E+00 -0.00000000000E+00 -0.56387570004E+03  0.56387570005E+03  0.25500000000E-02 0.  1.
    5000001    1    1    2    0    0 -0.17811853972E+03  0.54846462416E+02 -0.36085893594E+03  0.41337939024E+03  0.77000000000E+02 0.  0.
   -5000001    1    1    2    0    0  0.17811853972E+03 -0.54846462416E+02 -0.11924331946E+03  0.23426975449E+03  0.77000000000E+02 0.  0.
<mgrwt>
<rscale>  0 0.43468522E+03</rscale>
<asrwt>0</asrwt>
<pdfrwt beam="1">  1        2 0.80553669E-01 0.43468522E+03</pdfrwt>
<pdfrwt beam="2">  1       -2 0.11967635E-01 0.43468522E+03</pdfrwt>
<totfact> 0.29549817E+03</totfact>
</mgrwt>
</event>
<event>
 4    1  0.5562790E-004  0.2372696E+03  0.7818608E-02  0.1121625E+00
          2   -1    0    0  501    0  0.00000000000E+00  0.00000000000E+00  0.37003197327E+03  0.37003197328E+03  0.25500000000E-02 0.  1.
         -2   -1    0    0    0  501 -0.00000000000E+00 -0.00000000000E+00 -0.38035135262E+02  0.38035135348E+02  0.25500000000E-02 0. -1.
    5000001    1    1    2    0    0  0.50791357293E+02  0.69181489282E+02  0.11798496740E+03  0.16497058213E+03  0.77000000000E+02 0.  0.
   -5000001    1    1    2    0    0 -0.50791357293E+02 -0.69181489282E+02  0.21401187061E+03  0.24309652650E+03  0.77000000000E+02 0.  0.
<mgrwt>
<rscale>  0 0.23726960E+03</rscale>
<asrwt>0</asrwt>
<pdfrwt beam="1">  1        2 0.52861709E-01 0.23726960E+03</pdfrwt>
<pdfrwt beam="2">  1       -2 0.54335909E-02 0.23726960E+03</pdfrwt>
<totfact> 0.15961134E+04</totfact>
</mgrwt>
</event>
<event>
 4    1  0.5562790E-004  0.3288114E+03  0.7818608E-02  0.1071664E+00
         -2   -1    0    0    0  501 -0.00000000000E+00  0.00000000000E+00  0.10720109865E+03  0.10720109868E+03  0.25500000000E-02 0. -1.
          2   -1    0    0  501    0  0.00000000000E+00 -0.00000000000E+00 -0.25213581119E+03  0.25213581120E+03  0.25500000000E-02 0.  1.
    5000001    1    1    2    0    0  0.24434259769E+02 -0.12199245948E+03  0.94664993991E+01  0.14662130756E+03  0.77000000000E+02 0.  0.
   -5000001    1    1    2    0    0 -0.24434259769E+02  0.12199245948E+03 -0.15440121194E+03  0.21271560232E+03  0.77000000000E+02 0.  0.
<mgrwt>
<rscale>  0 0.32881141E+03</rscale>
<asrwt>0</asrwt>
<pdfrwt beam="1">  1        2 0.36019402E-01 0.32881141E+03</pdfrwt>
<pdfrwt beam="2">  1       -2 0.15314443E-01 0.32881141E+03</pdfrwt>
<totfact> 0.47454865E+03</totfact>
</mgrwt>
</event>
<event>
 4    1  0.5562790E-004  0.3163715E+03  0.7818608E-02  0.1077331E+00
          2   -1    0    0  501    0  0.00000000000E+00  0.00000000000E+00  0.24591157322E+04  0.24591157322E+04  0.25500000000E-02 0.  1.
         -2   -1    0    0    0  501 -0.00000000000E+00 -0.00000000000E+00 -0.10175499433E+02  0.10175499753E+02  0.25500000000E-02 0. -1.
    5000001    1    1    2    0    0 -0.48915037010E+02  0.11332547956E+03  0.73965316219E+03  0.75382434659E+03  0.77000000000E+02 0.  0.
   -5000001    1    1    2    0    0  0.48915037010E+02 -0.11332547956E+03  0.17092870706E+04  0.17154668854E+04  0.77000000000E+02 0.  0.
<mgrwt>
<rscale>  0 0.31637150E+03</rscale>
<asrwt>0</asrwt>
<pdfrwt beam="1">  1        2 0.35130169E+00 0.31637150E+03</pdfrwt>
<pdfrwt beam="2">  1       -2 0.14536451E-02 0.31637150E+03</pdfrwt>
<totfact> 0.64925695E+03</totfact>
</mgrwt>
</event>
<event>
 4    1  0.5562790E-004  0.2398437E+03  0.7818608E-02  0.1119897E+00
         -2   -1    0    0    0  501 -0.00000000000E+00  0.00000000000E+00  0.29256374230E+02  0.29256374341E+02  0.25500000000E-02 0.  1.
          2   -1    0    0  501    0  0.00000000000E+00 -0.00000000000E+00 -0.49155953779E+03  0.49155953780E+03  0.25500000000E-02 0. -1.
    5000001    1    1    2    0    0  0.80096997528E+02 -0.22650670898E+02 -0.14638960135E+03  0.18516883455E+03  0.77000000000E+02 0.  0.
   -5000001    1    1    2    0    0 -0.80096997528E+02  0.22650670898E+02 -0.31591356222E+03  0.33564707759E+03  0.77000000000E+02 0.  0.
<mgrwt>
<rscale>  0 0.23984370E+03</rscale>
<asrwt>0</asrwt>
<pdfrwt beam="1">  1        2 0.70222786E-01 0.23984370E+03</pdfrwt>
<pdfrwt beam="2">  1       -2 0.41794823E-02 0.23984370E+03</pdfrwt>
<totfact> 0.17456421E+04</totfact>
</mgrwt>
</event>
<event>
 4    1  0.5562790E-004  0.2324915E+03  0.7818608E-02  0.1124898E+00
         -2   -1    0    0    0  501 -0.00000000000E+00  0.00000000000E+00  0.19017396597E+02  0.19017396768E+02  0.25500000000E-02 0. -1.
          2   -1    0    0  501    0  0.00000000000E+00 -0.00000000000E+00 -0.71056400769E+03  0.71056400770E+03  0.25500000000E-02 0.  1.
    5000001    1    1    2    0    0 -0.30118093208E+02  0.80346584925E+02 -0.29907945293E+03  0.32053110989E+03  0.77000000000E+02 0.  0.
   -5000001    1    1    2    0    0  0.30118093208E+02 -0.80346584925E+02 -0.39246715817E+03  0.40905029457E+03  0.77000000000E+02 0.  0.
<mgrwt>
<rscale>  0 0.23249153E+03</rscale>
<asrwt>0</asrwt>
<pdfrwt beam="1">  1        2 0.10150913E+00 0.23249153E+03</pdfrwt>
<pdfrwt beam="2">  1       -2 0.27167714E-02 0.23249153E+03</pdfrwt>
<totfact> 0.21780253E+04</totfact>
</mgrwt>
</event>
<event>
 4    1  0.5562790E-004  0.1847192E+03  0.7818608E-02  0.1163312E+00
         -2   -1    0    0    0  501 -0.00000000000E+00  0.00000000000E+00  0.55800304192E+02  0.55800304251E+02  0.25500000000E-02 0. -1.
          2   -1    0    0  501    0  0.00000000000E+00 -0.00000000000E+00 -0.15287177818E+03  0.15287177820E+03  0.25500000000E-02 0.  1.
    5000001    1    1    2    0    0  0.47223716707E+02 -0.18182906101E+02 -0.55733285740E+02  0.10768424506E+03  0.77000000000E+02 0.  0.
   -5000001    1    1    2    0    0 -0.47223716707E+02  0.18182906101E+02 -0.41338188245E+02  0.10098783739E+03  0.77000000000E+02 0.  0.
<mgrwt>
<rscale>  0 0.18471916E+03</rscale>
<asrwt>0</asrwt>
<pdfrwt beam="1">  1        2 0.21838825E-01 0.18471916E+03</pdfrwt>
<pdfrwt beam="2">  1       -2 0.79714721E-02 0.18471916E+03</pdfrwt>
<totfact> 0.22767797E+04</totfact>
</mgrwt>
</event>
<event>
 4    1  0.5562790E-004  0.2713603E+03  0.7818608E-02  0.1100504E+00
         -2   -1    0    0    0  501 -0.00000000000E+00  0.00000000000E+00  0.12158885508E+03  0.12158885511E+03  0.25500000000E-02 0. -1.
          2   -1    0    0  501    0  0.00000000000E+00 -0.00000000000E+00 -0.15140448159E+03  0.15140448161E+03  0.25500000000E-02 0.  1.
    5000001    1    1    2    0    0 -0.57419321565E+01  0.11145037615E+03 -0.97838866492E+01  0.13593704634E+03  0.77000000000E+02 0.  0.
   -5000001    1    1    2    0    0  0.57419321565E+01 -0.11145037615E+03 -0.20031739858E+02  0.13705629038E+03  0.77000000000E+02 0.  0.
<mgrwt>
<rscale>  0 0.27136026E+03</rscale>
<asrwt>0</asrwt>
<pdfrwt beam="1">  1        2 0.21629211E-01 0.27136026E+03</pdfrwt>
<pdfrwt beam="2">  1       -2 0.17369837E-01 0.27136026E+03</pdfrwt>
<totfact> 0.67264422E+03</totfact>
</mgrwt>
</event>
<event>
 4    1  0.5562790E-004  0.2501727E+03  0.7818608E-02  0.1113196E+00
          2   -1    0    0  501    0  0.00000000000E+00  0.00000000000E+00  0.14072007386E+04  0.14072007386E+04  0.25500000000E-02 0.  1.
         -2   -1    0    0    0  501 -0.00000000000E+00 -0.00000000000E+00 -0.11118947007E+02  0.11118947300E+02  0.25500000000E-02 0. -1.
    5000001    1    1    2    0    0  0.65675195459E+02  0.34259846561E+02  0.10667946073E+04  0.10721318494E+04  0.77000000000E+02 0.  0.
   -5000001    1    1    2    0    0 -0.65675195459E+02 -0.34259846561E+02  0.32928718425E+03  0.34618783644E+03  0.77000000000E+02 0.  0.
<mgrwt>
<rscale>  0 0.25017267E+03</rscale>
<asrwt>0</asrwt>
<pdfrwt beam="1">  1        2 0.20102874E+00 0.25017267E+03</pdfrwt>
<pdfrwt beam="2">  1       -2 0.15884205E-02 0.25017267E+03</pdfrwt>
<totfact> 0.18783341E+04</totfact>
</mgrwt>
</event>
<event>
 4    1  0.5562790E-004  0.2056023E+03  0.7818608E-02  0.1145097E+00
         -2   -1    0    0    0  501 -0.00000000000E+00  0.00000000000E+00  0.13668664657E+02  0.13668664895E+02  0.25500000000E-02 0. -1.
          2   -1    0    0  501    0  0.00000000000E+00 -0.00000000000E+00 -0.77316054739E+03  0.77316054740E+03  0.25500000000E-02 0.  1.
    5000001    1    1    2    0    0 -0.56318275317E+02  0.38265322068E+02 -0.37301950283E+03  0.38692186873E+03  0.77000000000E+02 0.  0.
   -5000001    1    1    2    0    0  0.56318275317E+02 -0.38265322068E+02 -0.38647237990E+03  0.39990734356E+03  0.77000000000E+02 0.  0.
<mgrwt>
<rscale>  0 0.20560226E+03</rscale>
<asrwt>0</asrwt>
<pdfrwt beam="1">  1        2 0.11045148E+00 0.20560226E+03</pdfrwt>
<pdfrwt beam="2">  1       -2 0.19526669E-02 0.20560226E+03</pdfrwt>
<totfact> 0.31724406E+04</totfact>
</mgrwt>
</event>
<event>
 4    1  0.5562790E-004  0.4145698E+03  0.7818608E-02  0.1038848E+00
          2   -1    0    0  501    0  0.00000000000E+00  0.00000000000E+00  0.13173365091E+03  0.13173365093E+03  0.25500000000E-02 0.  1.
         -2   -1    0    0    0  501 -0.00000000000E+00 -0.00000000000E+00 -0.32616595135E+03  0.32616595136E+03  0.25500000000E-02 0. -1.
    5000001    1    1    2    0    0  0.51740608502E+02  0.42080256016E+02 -0.29661197571E+03  0.31361680862E+03  0.77000000000E+02 0.  0.
   -5000001    1    1    2    0    0 -0.51740608502E+02 -0.42080256016E+02  0.10217967526E+03  0.14428279368E+03  0.77000000000E+02 0.  0.
<mgrwt>
<rscale>  0 0.41456981E+03</rscale>
<asrwt>0</asrwt>
<pdfrwt beam="1">  1        2 0.18819093E-01 0.41456981E+03</pdfrwt>
<pdfrwt beam="2">  1       -2 0.46595136E-01 0.41456981E+03</pdfrwt>
<totfact> 0.13286961E+03</totfact>
</mgrwt>
</event>
<event>
 4    1  0.5562790E-004  0.2340139E+03  0.7818608E-02  0.1123846E+00
         -2   -1    0    0    0  501 -0.00000000000E+00  0.00000000000E+00  0.65953724389E+01  0.65953729319E+01  0.25500000000E-02 0. -1.
          2   -1    0    0  501    0  0.00000000000E+00 -0.00000000000E+00 -0.20757935224E+04  0.20757935224E+04  0.25500000000E-02 0.  1.
    5000001    1    1    2    0    0  0.90250999902E+01  0.73352534590E+02 -0.60787726204E+03  0.61717567391E+03  0.77000000000E+02 0.  0.
   -5000001    1    1    2    0    0 -0.90250999902E+01 -0.73352534590E+02 -0.14613208879E+04  0.14652132214E+04  0.77000000000E+02 0.  0.
<mgrwt>
<rscale>  0 0.23401395E+03</rscale>
<asrwt>0</asrwt>
<pdfrwt beam="1">  1        2 0.29654151E+00 0.23401395E+03</pdfrwt>
<pdfrwt beam="2">  1       -2 0.94219742E-03 0.23401395E+03</pdfrwt>
<totfact> 0.18755885E+04</totfact>
</mgrwt>
</event>
<event>
 4    1  0.5562790E-004  0.2166708E+03  0.7818608E-02  0.1136390E+00
          2   -1    0    0  501    0  0.00000000000E+00  0.00000000000E+00  0.10821645739E+04  0.10821645739E+04  0.25500000000E-02 0.  1.
         -2   -1    0    0    0  501 -0.00000000000E+00 -0.00000000000E+00 -0.10845450661E+02  0.10845450961E+02  0.25500000000E-02 0. -1.
    5000001    1    1    2    0    0 -0.30186118833E+02 -0.57908848508E+02  0.33750856593E+03  0.35228634458E+03  0.77000000000E+02 0.  0.
   -5000001    1    1    2    0    0  0.30186118833E+02  0.57908848508E+02  0.73381055734E+03  0.74072368031E+03  0.77000000000E+02 0.  0.
<mgrwt>
<rscale>  0 0.21667083E+03</rscale>
<asrwt>0</asrwt>
<pdfrwt beam="1">  1        2 0.15459494E+00 0.21667083E+03</pdfrwt>
<pdfrwt beam="2">  1       -2 0.15493501E-02 0.21667083E+03</pdfrwt>
<totfact> 0.28831189E+04</totfact>
</mgrwt>
</event>
<event>
 4    1  0.5562790E-004  0.1861078E+03  0.7818608E-02  0.1162019E+00
         -2   -1    0    0    0  501 -0.00000000000E+00  0.00000000000E+00  0.25326343303E+02  0.25326343431E+02  0.25500000000E-02 0. -1.
          2   -1    0    0  501    0  0.00000000000E+00 -0.00000000000E+00 -0.34189814101E+03  0.34189814102E+03  0.25500000000E-02 0.  1.
    5000001    1    1    2    0    0  0.45750247594E+02  0.25110358164E+02 -0.15328845817E+03  0.17930411777E+03  0.77000000000E+02 0.  0.
   -5000001    1    1    2    0    0 -0.45750247594E+02 -0.25110358164E+02 -0.16328333953E+03  0.18792036667E+03  0.77000000000E+02 0.  0.
<mgrwt>
<rscale>  0 0.18610782E+03</rscale>
<asrwt>0</asrwt>
<pdfrwt beam="1">  1        2 0.48842589E-01 0.18610782E+03</pdfrwt>
<pdfrwt beam="2">  1       -2 0.36180493E-02 0.18610782E+03</pdfrwt>
<totfact> 0.31469884E+04</totfact>
</mgrwt>
</event>
<event>
 4    1  0.5562790E-004  0.1763939E+03  0.7818608E-02  0.1171339E+00
          2   -1    0    0  501    0  0.00000000000E+00  0.00000000000E+00  0.28182908933E+03  0.28182908934E+03  0.25500000000E-02 0.  1.
         -2   -1    0    0    0  501 -0.00000000000E+00 -0.00000000000E+00 -0.27600762866E+02  0.27600762984E+02  0.25500000000E-02 0. -1.
    5000001    1    1    2    0    0  0.91474675792E+01  0.38223173443E+02  0.96477862591E+02  0.12954406633E+03  0.77000000000E+02 0.  0.
   -5000001    1    1    2    0    0 -0.91474675792E+01 -0.38223173443E+02  0.15775046387E+03  0.17988578599E+03  0.77000000000E+02 0.  0.
<mgrwt>
<rscale>  0 0.17639385E+03</rscale>
<asrwt>0</asrwt>
<pdfrwt beam="1">  1        2 0.40261300E-01 0.17639385E+03</pdfrwt>
<pdfrwt beam="2">  1       -2 0.39429659E-02 0.17639385E+03</pdfrwt>
<totfact> 0.33858000E+04</totfact>
</mgrwt>
</event>
<event>
 4    1  0.5562790E-004  0.2197057E+03  0.7818608E-02  0.1134103E+00
         -2   -1    0    0    0  501 -0.00000000000E+00  0.00000000000E+00  0.15273681237E+02  0.15273681450E+02  0.25500000000E-02 0. -1.
          2   -1    0    0  501    0  0.00000000000E+00 -0.00000000000E+00 -0.79009414297E+03  0.79009414297E+03  0.25500000000E-02 0.  1.
    5000001    1    1    2    0    0  0.78212219581E+02  0.43847652508E+01 -0.38188890851E+03  0.39737201198E+03  0.77000000000E+02 0.  0.
   -5000001    1    1    2    0    0 -0.78212219581E+02 -0.43847652508E+01 -0.39293155322E+03  0.40799581245E+03  0.77000000000E+02 0.  0.
<mgrwt>
<rscale>  0 0.21970568E+03</rscale>
<asrwt>0</asrwt>
<pdfrwt beam="1">  1        2 0.11287057E+00 0.21970568E+03</pdfrwt>
<pdfrwt beam="2">  1       -2 0.21819550E-02 0.21970568E+03</pdfrwt>
<totfact> 0.26379821E+04</totfact>
</mgrwt>
</event>
<event>
 4    1  0.5562790E-004  0.1971628E+03  0.7818608E-02  0.1152155E+00
          2   -1    0    0  501    0  0.00000000000E+00  0.00000000000E+00  0.10616909531E+04  0.10616909531E+04  0.25500000000E-02 0.  1.
         -2   -1    0    0    0  501 -0.00000000000E+00 -0.00000000000E+00 -0.91536017930E+01  0.91536021482E+01  0.25500000000E-02 0. -1.
    5000001    1    1    2    0    0  0.54330115635E+02  0.16319731595E+02  0.39646231910E+03  0.40783509605E+03  0.77000000000E+02 0.  0.
   -5000001    1    1    2    0    0 -0.54330115635E+02 -0.16319731595E+02  0.65607503219E+03  0.66300945919E+03  0.77000000000E+02 0.  0.
<mgrwt>
<rscale>  0 0.19716284E+03</rscale>
<asrwt>0</asrwt>
<pdfrwt beam="1">  1        2 0.15167000E+00 0.19716284E+03</pdfrwt>
<pdfrwt beam="2">  1       -2 0.13076586E-02 0.19716284E+03</pdfrwt>
<totfact> 0.37636662E+04</totfact>
</mgrwt>
</event>
<event>
 4    1  0.5562790E-004  0.2821085E+03  0.7818608E-02  0.1094543E+00
          2   -1    0    0  501    0  0.00000000000E+00  0.00000000000E+00  0.43848744821E+02  0.43848744895E+02  0.25500000000E-02 0.  1.
         -2   -1    0    0    0  501 -0.00000000000E+00 -0.00000000000E+00 -0.45374848440E+03  0.45374848441E+03  0.25500000000E-02 0. -1.
    5000001    1    1    2    0    0 -0.13883092770E+02 -0.58412858994E+02 -0.25396303667E+02  0.10088991328E+03  0.77000000000E+02 0.  0.
   -5000001    1    1    2    0    0  0.13883092770E+02  0.58412858994E+02 -0.38450343591E+03  0.39670731603E+03  0.77000000000E+02 0.  0.
<mgrwt>
<rscale>  0 0.28210850E+03</rscale>
<asrwt>0</asrwt>
<pdfrwt beam="1">  1        2 0.62641067E-02 0.28210850E+03</pdfrwt>
<pdfrwt beam="2">  1       -2 0.64821209E-01 0.28210850E+03</pdfrwt>
<totfact> 0.26205100E+03</totfact>
</mgrwt>
</event>
<event>
 4    1  0.5562790E-004  0.2623389E+03  0.7818608E-02  0.1105746E+00
         -2   -1    0    0    0  501 -0.00000000000E+00  0.00000000000E+00  0.13757667672E+02  0.13757667908E+02  0.25500000000E-02 0. -1.
          2   -1    0    0  501    0  0.00000000000E+00 -0.00000000000E+00 -0.12506057510E+04  0.12506057510E+04  0.25500000000E-02 0.  1.
    5000001    1    1    2    0    0 -0.21709630322E+02 -0.98186183677E+02 -0.45395102081E+03  0.47128798415E+03  0.77000000000E+02 0.  0.
   -5000001    1    1    2    0    0  0.21709630322E+02  0.98186183677E+02 -0.78289706248E+03  0.79307543472E+03  0.77000000000E+02 0.  0.
<mgrwt>
<rscale>  0 0.26233885E+03</rscale>
<asrwt>0</asrwt>
<pdfrwt beam="1">  1        2 0.17865789E+00 0.26233885E+03</pdfrwt>
<pdfrwt beam="2">  1       -2 0.19653819E-02 0.26233885E+03</pdfrwt>
<totfact> 0.16627973E+04</totfact>
</mgrwt>
</event>
<event>
 4    1  0.5562790E-004  0.2862245E+03  0.7818608E-02  0.1092337E+00
          2   -1    0    0  501    0  0.00000000000E+00  0.00000000000E+00  0.10686237268E+04  0.10686237268E+04  0.25500000000E-02 0.  1.
         -2   -1    0    0    0  501 -0.00000000000E+00 -0.00000000000E+00 -0.19165881298E+02  0.19165881468E+02  0.25500000000E-02 0. -1.
    5000001    1    1    2    0    0 -0.75580087121E+02  0.69851996890E+02  0.28555646242E+03  0.31315035409E+03  0.77000000000E+02 0.  0.
   -5000001    1    1    2    0    0  0.75580087121E+02 -0.69851996890E+02  0.76390138307E+03  0.77463925417E+03  0.77000000000E+02 0.  0.
<mgrwt>
<rscale>  0 0.28622450E+03</rscale>
<asrwt>0</asrwt>
<pdfrwt beam="1">  1        2 0.15266049E+00 0.28622450E+03</pdfrwt>
<pdfrwt beam="2">  1       -2 0.27379838E-02 0.28622450E+03</pdfrwt>
<totfact> 0.12877688E+04</totfact>
</mgrwt>
</event>
<event>
 4    1  0.5562790E-004  0.1804479E+03  0.7818608E-02  0.1167370E+00
          2   -1    0    0  501    0  0.00000000000E+00  0.00000000000E+00  0.30572537409E+03  0.30572537410E+03  0.25500000000E-02 0.  1.
         -2   -1    0    0    0  501 -0.00000000000E+00 -0.00000000000E+00 -0.26626372723E+02  0.26626372845E+02  0.25500000000E-02 0. -1.
    5000001    1    1    2    0    0 -0.40980963410E+02 -0.82996237794E+01  0.17918213837E+03  0.19945817062E+03  0.77000000000E+02 0.  0.
   -5000001    1    1    2    0    0  0.40980963410E+02  0.82996237794E+01  0.99916862996E+02  0.13289357632E+03  0.77000000000E+02 0.  0.
<mgrwt>
<rscale>  0 0.18044786E+03</rscale>
<asrwt>0</asrwt>
<pdfrwt beam="1">  1        2 0.43675053E-01 0.18044786E+03</pdfrwt>
<pdfrwt beam="2">  1       -2 0.38037676E-02 0.18044786E+03</pdfrwt>
<totfact> 0.32818900E+04</totfact>
</mgrwt>
</event>
<event>
 4    1  0.5562790E-004  0.4439962E+03  0.7818608E-02  0.1029528E+00
          2   -1    0    0  501    0  0.00000000000E+00  0.00000000000E+00  0.21342843293E+04  0.21342843293E+04  0.25500000000E-02 0.  1.
         -2   -1    0    0    0  501 -0.00000000000E+00 -0.00000000000E+00 -0.23091189837E+02  0.23091189978E+02  0.25500000000E-02 0. -1.
    5000001    1    1    2    0    0 -0.16877208041E+03  0.60291444385E+02  0.54056392079E+03  0.57468028142E+03  0.77000000000E+02 0.  0.
   -5000001    1    1    2    0    0  0.16877208041E+03 -0.60291444385E+02  0.15706292187E+04  0.15826952379E+04  0.77000000000E+02 0.  0.
<mgrwt>
<rscale>  0 0.44399624E+03</rscale>
<asrwt>0</asrwt>
<pdfrwt beam="1">  1        2 0.30489762E+00 0.44399624E+03</pdfrwt>
<pdfrwt beam="2">  1       -2 0.32987430E-02 0.44399624E+03</pdfrwt>
<totfact> 0.27715810E+03</totfact>
</mgrwt>
</event>
<event>
 4    1  0.5562790E-004  0.2588253E+03  0.7818608E-02  0.1107851E+00
          2   -1    0    0  501    0  0.00000000000E+00  0.00000000000E+00  0.72223118557E+03  0.72223118557E+03  0.25500000000E-02 0.  1.
         -2   -1    0    0    0  501 -0.00000000000E+00 -0.00000000000E+00 -0.23188735583E+02  0.23188735723E+02  0.25500000000E-02 0. -1.
    5000001    1    1    2    0    0 -0.81189385606E+02 -0.44604276041E+02  0.48574825156E+03  0.50046140878E+03  0.77000000000E+02 0.  0.
   -5000001    1    1    2    0    0  0.81189385606E+02  0.44604276041E+02  0.21329419842E+03  0.24495851252E+03  0.77000000000E+02 0.  0.
<mgrwt>
<rscale>  0 0.25882525E+03</rscale>
<asrwt>0</asrwt>
<pdfrwt beam="1">  1        2 0.10317589E+00 0.25882525E+03</pdfrwt>
<pdfrwt beam="2">  1       -2 0.33126764E-02 0.25882525E+03</pdfrwt>
<totfact> 0.16003172E+04</totfact>
</mgrwt>
</event>
<event>
 4    1  0.5562790E-004  0.1762486E+03  0.7818608E-02  0.1171484E+00
         -2   -1    0    0    0  501 -0.00000000000E+00  0.00000000000E+00  0.14825754417E+02  0.14825754637E+02  0.25500000000E-02 0. -1.
          2   -1    0    0  501    0  0.00000000000E+00 -0.00000000000E+00 -0.52381117829E+03  0.52381117829E+03  0.25500000000E-02 0.  1.
    5000001    1    1    2    0    0  0.37671369352E+02  0.20397896104E+02 -0.25846533456E+03  0.27307239956E+03  0.77000000000E+02 0.  0.
   -5000001    1    1    2    0    0 -0.37671369352E+02 -0.20397896104E+02 -0.25052008931E+03  0.26556453337E+03  0.77000000000E+02 0.  0.
<mgrwt>
<rscale>  0 0.17624864E+03</rscale>
<asrwt>0</asrwt>
<pdfrwt beam="1">  1        2 0.74830157E-01 0.17624864E+03</pdfrwt>
<pdfrwt beam="2">  1       -2 0.21179653E-02 0.17624864E+03</pdfrwt>
<totfact> 0.43514260E+04</totfact>
</mgrwt>
</event>
<event>
 4    1  0.5562790E-004  0.2364169E+03  0.7818608E-02  0.1122203E+00
          2   -1    0    0  501    0  0.00000000000E+00  0.00000000000E+00  0.54513338131E+03  0.54513338132E+03  0.25500000000E-02 0.  1.
         -2   -1    0    0    0  501 -0.00000000000E+00 -0.00000000000E+00 -0.25632692465E+02  0.25632692592E+02  0.25500000000E-02 0. -1.
    5000001    1    1    2    0    0 -0.14719271737E+02 -0.74263490931E+02  0.14365313711E+03  0.17971351326E+03  0.77000000000E+02 0.  0.
   -5000001    1    1    2    0    0  0.14719271737E+02  0.74263490931E+02  0.37584755174E+03  0.39105256065E+03  0.77000000000E+02 0.  0.
<mgrwt>
<rscale>  0 0.23641689E+03</rscale>
<asrwt>0</asrwt>
<pdfrwt beam="1">  1        2 0.77876196E-01 0.23641689E+03</pdfrwt>
<pdfrwt beam="2">  1       -2 0.36618133E-02 0.23641689E+03</pdfrwt>
<totfact> 0.18962860E+04</totfact>
</mgrwt>
</event>
<event>
 4    1  0.5562790E-004  0.1679799E+03  0.7818608E-02  0.1179971E+00
         -2   -1    0    0    0  501 -0.00000000000E+00  0.00000000000E+00  0.33481770118E+02  0.33481770215E+02  0.25500000000E-02 0. -1.
          2   -1    0    0  501    0  0.00000000000E+00 -0.00000000000E+00 -0.21069100151E+03  0.21069100152E+03  0.25500000000E-02 0.  1.
    5000001    1    1    2    0    0 -0.17462903820E+02 -0.28547159234E+02 -0.85222297325E+02  0.11963165664E+03  0.77000000000E+02 0.  0.
   -5000001    1    1    2    0    0  0.17462903820E+02  0.28547159234E+02 -0.91986934066E+02  0.12454111509E+03  0.77000000000E+02 0.  0.
<mgrwt>
<rscale>  0 0.16797985E+03</rscale>
<asrwt>0</asrwt>
<pdfrwt beam="1">  1        2 0.30098714E-01 0.16797985E+03</pdfrwt>
<pdfrwt beam="2">  1       -2 0.47831101E-02 0.16797985E+03</pdfrwt>
<totfact> 0.34522656E+04</totfact>
</mgrwt>
</event>
<event>
 4    1  0.5562790E-004  0.2059479E+03  0.7818608E-02  0.1144816E+00
          2   -1    0    0  501    0  0.00000000000E+00  0.00000000000E+00  0.13077107131E+03  0.13077107133E+03  0.25500000000E-02 0.  1.
         -2   -1    0    0    0  501 -0.00000000000E+00 -0.00000000000E+00 -0.81085502768E+02  0.81085502808E+02  0.25500000000E-02 0. -1.
    5000001    1    1    2    0    0 -0.11853224297E+02 -0.22066691335E+02  0.90285580840E+02  0.12127622974E+03  0.77000000000E+02 0.  0.
   -5000001    1    1    2    0    0  0.11853224297E+02  0.22066691335E+02 -0.40600012300E+02  0.90580344399E+02  0.77000000000E+02 0.  0.
<mgrwt>
<rscale>  0 0.20594794E+03</rscale>
<asrwt>0</asrwt>
<pdfrwt beam="1">  1        2 0.18681582E-01 0.20594794E+03</pdfrwt>
<pdfrwt beam="2">  1       -2 0.11583643E-01 0.20594794E+03</pdfrwt>
<totfact> 0.15214247E+04</totfact>
</mgrwt>
</event>
<event>
 4    1  0.5562790E-004  0.2147899E+03  0.7818608E-02  0.1137828E+00
         -2   -1    0    0    0  501 -0.00000000000E+00  0.00000000000E+00  0.63515747039E+01  0.63515752158E+01  0.25500000000E-02 0. -1.
          2   -1    0    0  501    0  0.00000000000E+00 -0.00000000000E+00 -0.18158771338E+04  0.18158771338E+04  0.25500000000E-02 0.  1.
    5000001    1    1    2    0    0  0.49012161456E+02  0.56569682607E+02 -0.91779241434E+03  0.92405315690E+03  0.77000000000E+02 0.  0.
   -5000001    1    1    2    0    0 -0.49012161456E+02 -0.56569682607E+02 -0.89173314474E+03  0.89817555210E+03  0.77000000000E+02 0.  0.
<mgrwt>
<rscale>  0 0.21478994E+03</rscale>
<asrwt>0</asrwt>
<pdfrwt beam="1">  1        2 0.25941069E+00 0.21478994E+03</pdfrwt>
<pdfrwt beam="2">  1       -2 0.90736902E-03 0.21478994E+03</pdfrwt>
<totfact> 0.26372644E+04</totfact>
</mgrwt>
</event>
<event>
 4    1  0.5562790E-004  0.2828701E+03  0.7818608E-02  0.1094132E+00
          2   -1    0    0  501    0  0.00000000000E+00  0.00000000000E+00  0.12214116062E+03  0.12214116065E+03  0.25500000000E-02 0.  1.
         -2   -1    0    0    0  501 -0.00000000000E+00 -0.00000000000E+00 -0.16377671315E+03  0.16377671317E+03  0.25500000000E-02 0. -1.
    5000001    1    1    2    0    0 -0.72165929510E+02 -0.81020508450E+02 -0.69320556968E+02  0.15002194436E+03  0.77000000000E+02 0.  0.
   -5000001    1    1    2    0    0  0.72165929510E+02  0.81020508450E+02  0.27685004441E+02  0.13589592945E+03  0.77000000000E+02 0.  0.
<mgrwt>
<rscale>  0 0.28287013E+03</rscale>
<asrwt>0</asrwt>
<pdfrwt beam="1">  1        2 0.17448737E-01 0.28287013E+03</pdfrwt>
<pdfrwt beam="2">  1       -2 0.23396673E-01 0.28287013E+03</pdfrwt>
<totfact> 0.51773911E+03</totfact>
</mgrwt>
</event>
<event>
 4    1  0.5562790E-004  0.2558479E+03  0.7818608E-02  0.1109664E+00
          2   -1    0    0  501    0  0.00000000000E+00  0.00000000000E+00  0.47043398648E+02  0.47043398717E+02  0.25500000000E-02 0.  1.
         -2   -1    0    0    0  501 -0.00000000000E+00 -0.00000000000E+00 -0.34786045528E+03  0.34786045529E+03  0.25500000000E-02 0. -1.
    5000001    1    1    2    0    0 -0.44534163461E+01 -0.10178257374E+03 -0.13885663039E+03  0.18865229667E+03  0.77000000000E+02 0.  0.
   -5000001    1    1    2    0    0  0.44534163461E+01  0.10178257374E+03 -0.16196042624E+03  0.20625155733E+03  0.77000000000E+02 0.  0.
<mgrwt>
<rscale>  0 0.25584791E+03</rscale>
<asrwt>0</asrwt>
<pdfrwt beam="1">  1        2 0.67204857E-02 0.25584791E+03</pdfrwt>
<pdfrwt beam="2">  1       -2 0.49694349E-01 0.25584791E+03</pdfrwt>
<totfact> 0.41076195E+03</totfact>
</mgrwt>
</event>
<event>
 4    1  0.5562790E-004  0.2543836E+03  0.7818608E-02  0.1110565E+00
          2   -1    0    0  501    0  0.00000000000E+00  0.00000000000E+00  0.98372526328E+02  0.98372526361E+02  0.25500000000E-02 0.  1.
         -2   -1    0    0    0  501 -0.00000000000E+00 -0.00000000000E+00 -0.16445393248E+03  0.16445393250E+03  0.25500000000E-02 0. -1.
    5000001    1    1    2    0    0 -0.27596522014E+02 -0.95242607886E+02 -0.11967017179E+02  0.12611475681E+03  0.77000000000E+02 0.  0.
   -5000001    1    1    2    0    0  0.27596522014E+02  0.95242607886E+02 -0.54114388970E+02  0.13671170205E+03  0.77000000000E+02 0.  0.
<mgrwt>
<rscale>  0 0.25438356E+03</rscale>
<asrwt>0</asrwt>
<pdfrwt beam="1">  1        2 0.14053218E-01 0.25438356E+03</pdfrwt>
<pdfrwt beam="2">  1       -2 0.23493419E-01 0.25438356E+03</pdfrwt>
<totfact> 0.66060292E+03</totfact>
</mgrwt>
</event>
<event>
 4    1  0.5562790E-004  0.2324509E+03  0.7818608E-02  0.1124927E+00
         -2   -1    0    0    0  501 -0.00000000000E+00  0.00000000000E+00  0.38752968537E+01  0.38752976926E+01  0.25500000000E-02 0. -1.
          2   -1    0    0  501    0  0.00000000000E+00 -0.00000000000E+00 -0.34857584048E+04  0.34857584048E+04  0.25500000000E-02 0.  1.
    5000001    1    1    2    0    0  0.40352799987E+02  0.77006695367E+02 -0.16721947477E+04  0.16762227339E+04  0.77000000000E+02 0.  0.
   -5000001    1    1    2    0    0 -0.40352799987E+02 -0.77006695367E+02 -0.18096883602E+04  0.18134109685E+04  0.77000000000E+02 0.  0.
<mgrwt>
<rscale>  0 0.23245086E+03</rscale>
<asrwt>0</asrwt>
<pdfrwt beam="1">  1        2 0.49796348E+00 0.23245086E+03</pdfrwt>
<pdfrwt beam="2">  1       -2 0.55361613E-03 0.23245086E+03</pdfrwt>
<totfact> 0.75184280E+03</totfact>
</mgrwt>
</event>
<event>
 4    1  0.5562790E-004  0.3930268E+03  0.7818608E-02  0.1046221E+00
         -2   -1    0    0    0  501 -0.00000000000E+00  0.00000000000E+00  0.20848694510E+03  0.20848694512E+03  0.25500000000E-02 0. -1.
          2   -1    0    0  501    0  0.00000000000E+00 -0.00000000000E+00 -0.18522751656E+03  0.18522751658E+03  0.25500000000E-02 0.  1.
    5000001    1    1    2    0    0  0.16601254383E+03 -0.63427116292E+02  0.44934767667E+02  0.19882479005E+03  0.77000000000E+02 0.  0.
   -5000001    1    1    2    0    0 -0.16601254383E+03  0.63427116292E+02 -0.21675339128E+02  0.19488967165E+03  0.77000000000E+02 0.  0.
<mgrwt>
<rscale>  0 0.39302681E+03</rscale>
<asrwt>0</asrwt>
<pdfrwt beam="1">  1        2 0.26461073E-01 0.39302681E+03</pdfrwt>
<pdfrwt beam="2">  1       -2 0.29783850E-01 0.39302681E+03</pdfrwt>
<totfact> 0.21062705E+03</totfact>
</mgrwt>
</event>
<event>
 4    1  0.5562790E-004  0.3373250E+03  0.7818608E-02  0.1067941E+00
         -2   -1    0    0    0  501 -0.00000000000E+00  0.00000000000E+00  0.86095339261E+01  0.86095343038E+01  0.25500000000E-02 0. -1.
          2   -1    0    0  501    0  0.00000000000E+00 -0.00000000000E+00 -0.33041328707E+04  0.33041328707E+04  0.25500000000E-02 0.  1.
    5000001    1    1    2    0    0  0.63699173515E+01  0.14938960314E+03 -0.15234559562E+04  0.15327116102E+04  0.77000000000E+02 0.  0.
   -5000001    1    1    2    0    0 -0.63699173515E+01 -0.14938960314E+03 -0.17720673805E+04  0.17800307948E+04  0.77000000000E+02 0.  0.
<mgrwt>
<rscale>  0 0.33732503E+03</rscale>
<asrwt>0</asrwt>
<pdfrwt beam="1">  1        2 0.47201817E+00 0.33732503E+03</pdfrwt>
<pdfrwt beam="2">  1       -2 0.12299356E-02 0.33732503E+03</pdfrwt>
<totfact> 0.29747570E+03</totfact>
</mgrwt>
</event>
<event>
 4    1  0.5562790E-004  0.5479148E+03  0.7818608E-02  0.1001978E+00
          2   -1    0    0  501    0  0.00000000000E+00  0.00000000000E+00  0.91486789501E+03  0.91486789501E+03  0.25500000000E-02 0.  1.
         -2   -1    0    0    0  501 -0.00000000000E+00 -0.00000000000E+00 -0.82036612072E+02  0.82036612112E+02  0.25500000000E-02 0. -1.
    5000001    1    1    2    0    0 -0.65798337813E+02  0.13616957791E+03  0.80771233726E+03  0.82534828707E+03  0.77000000000E+02 0.  0.
   -5000001    1    1    2    0    0  0.65798337813E+02 -0.13616957791E+03  0.25118945676E+02  0.17155622005E+03  0.77000000000E+02 0.  0.
<mgrwt>
<rscale>  0 0.54791482E+03</rscale>
<asrwt>0</asrwt>
<pdfrwt beam="1">  1        2 0.13069541E+00 0.54791482E+03</pdfrwt>
<pdfrwt beam="2">  1       -2 0.11719516E-01 0.54791482E+03</pdfrwt>
<totfact> 0.16869145E+03</totfact>
</mgrwt>
</event>
<event>
 4    1  0.5562790E-004  0.3640135E+03  0.7818608E-02  0.1057006E+00
         -2   -1    0    0    0  501 -0.00000000000E+00  0.00000000000E+00  0.12145450451E+02  0.12145450718E+02  0.25500000000E-02 0. -1.
          2   -1    0    0  501    0  0.00000000000E+00 -0.00000000000E+00 -0.27274790613E+04  0.27274790613E+04  0.25500000000E-02 0.  1.
    5000001    1    1    2    0    0 -0.70789141387E+02  0.89211963959E+02 -0.45995049584E+03  0.48005555478E+03  0.77000000000E+02 0.  0.
   -5000001    1    1    2    0    0  0.70789141387E+02 -0.89211963959E+02 -0.22553831150E+04  0.22595689572E+04  0.77000000000E+02 0.  0.
<mgrwt>
<rscale>  0 0.36401353E+03</rscale>
<asrwt>0</asrwt>
<pdfrwt beam="1">  1        2 0.38963947E+00 0.36401353E+03</pdfrwt>
<pdfrwt beam="2">  1       -2 0.17350661E-02 0.36401353E+03</pdfrwt>
<totfact> 0.36498815E+03</totfact>
</mgrwt>
</event>
<event>
 4    1  0.5562790E-004  0.7464816E+03  0.7818608E-02  0.9640886E-01
          2   -1    0    0  501    0  0.00000000000E+00  0.00000000000E+00  0.21098150303E+03  0.21098150304E+03  0.25500000000E-02 0.  1.
         -2   -1    0    0    0  501 -0.00000000000E+00 -0.00000000000E+00 -0.66028860309E+03  0.66028860309E+03  0.25500000000E-02 0. -1.
    5000001    1    1    2    0    0  0.22774847138E+03  0.23498676795E+03 -0.35401020027E+02  0.33803902075E+03  0.77000000000E+02 0.  0.
   -5000001    1    1    2    0    0 -0.22774847138E+03 -0.23498676795E+03 -0.41390608004E+03  0.53323108538E+03  0.77000000000E+02 0.  0.
<mgrwt>
<rscale>  0 0.74648157E+03</rscale>
<asrwt>0</asrwt>
<pdfrwt beam="1">  1        2 0.30140215E-01 0.74648157E+03</pdfrwt>
<pdfrwt beam="2">  1       -2 0.94326942E-01 0.74648157E+03</pdfrwt>
<totfact> 0.16923370E+02</totfact>
</mgrwt>
</event>
<event>
 4    1  0.5562790E-004  0.2434757E+03  0.7818608E-02  0.1117499E+00
         -2   -1    0    0    0  501 -0.00000000000E+00  0.00000000000E+00  0.38727786079E+03  0.38727786080E+03  0.25500000000E-02 0. -1.
          2   -1    0    0  501    0  0.00000000000E+00 -0.00000000000E+00 -0.38267354282E+02  0.38267354367E+02  0.25500000000E-02 0.  1.
    5000001    1    1    2    0    0  0.36338174224E+02  0.86743697007E+02  0.18638089685E+03  0.22251240546E+03  0.77000000000E+02 0.  0.
   -5000001    1    1    2    0    0 -0.36338174224E+02 -0.86743697007E+02  0.16262960966E+03  0.20303280970E+03  0.77000000000E+02 0.  0.
<mgrwt>
<rscale>  0 0.24347566E+03</rscale>
<asrwt>0</asrwt>
<pdfrwt beam="1">  1        2 0.54667648E-02 0.24347566E+03</pdfrwt>
<pdfrwt beam="2">  1       -2 0.55325410E-01 0.24347566E+03</pdfrwt>
<totfact> 0.43202292E+03</totfact>
</mgrwt>
</event>
<event>
 4    1  0.5562790E-004  0.3727511E+03  0.7818608E-02  0.1053646E+00
          2   -1    0    0  501    0  0.00000000000E+00  0.00000000000E+00  0.19765834389E+04  0.19765834389E+04  0.25500000000E-02 0.  1.
         -2   -1    0    0    0  501 -0.00000000000E+00 -0.00000000000E+00 -0.17573676384E+02  0.17573676569E+02  0.25500000000E-02 0. -1.
    5000001    1    1    2    0    0 -0.14052159789E+03 -0.95115769008E+02  0.99916791364E+03  0.10163950259E+04  0.77000000000E+02 0.  0.
   -5000001    1    1    2    0    0  0.14052159789E+03  0.95115769008E+02  0.95984184889E+03  0.97776208960E+03  0.77000000000E+02 0.  0.
<mgrwt>
<rscale>  0 0.37275106E+03</rscale>
<asrwt>0</asrwt>
<pdfrwt beam="1">  1        2 0.28236905E+00 0.37275106E+03</pdfrwt>
<pdfrwt beam="2">  1       -2 0.25105253E-02 0.37275106E+03</pdfrwt>
<totfact> 0.50099351E+03</totfact>
</mgrwt>
</event>
<event>
 4    1  0.5562790E-004  0.2504083E+03  0.7818608E-02  0.1113047E+00
          2   -1    0    0  501    0  0.00000000000E+00  0.00000000000E+00  0.19120069067E+04  0.19120069067E+04  0.25500000000E-02 0.  1.
         -2   -1    0    0    0  501 -0.00000000000E+00 -0.00000000000E+00 -0.81987536592E+01  0.81987540557E+01  0.25500000000E-02 0. -1.
    5000001    1    1    2    0    0 -0.69139446133E+02 -0.69800244591E+02  0.87726632216E+03  0.88610244168E+03  0.77000000000E+02 0.  0.
   -5000001    1    1    2    0    0  0.69139446133E+02  0.69800244591E+02  0.10265418309E+04  0.10341032191E+04  0.77000000000E+02 0.  0.
<mgrwt>
<rscale>  0 0.25040826E+03</rscale>
<asrwt>0</asrwt>
<pdfrwt beam="1">  1        2 0.27314448E+00 0.25040826E+03</pdfrwt>
<pdfrwt beam="2">  1       -2 0.11712478E-02 0.25040826E+03</pdfrwt>
<totfact> 0.16465346E+04</totfact>
</mgrwt>
</event>
<event>
 4    1  0.5562790E-004  0.3137049E+03  0.7818608E-02  0.1078583E+00
          2   -1    0    0  501    0  0.00000000000E+00  0.00000000000E+00  0.24449354935E+03  0.24449354936E+03  0.25500000000E-02 0.  1.
         -2   -1    0    0    0  501 -0.00000000000E+00 -0.00000000000E+00 -0.10062717641E+03  0.10062717644E+03  0.25500000000E-02 0. -1.
    5000001    1    1    2    0    0 -0.75383431736E+02 -0.64238873720E+02  0.17551282541E+03  0.21573837526E+03  0.77000000000E+02 0.  0.
   -5000001    1    1    2    0    0  0.75383431736E+02  0.64238873720E+02 -0.31646452469E+02  0.12938235054E+03  0.77000000000E+02 0.  0.
<mgrwt>
<rscale>  0 0.31370493E+03</rscale>
<asrwt>0</asrwt>
<pdfrwt beam="1">  1        2 0.34927649E-01 0.31370493E+03</pdfrwt>
<pdfrwt beam="2">  1       -2 0.14375311E-01 0.31370493E+03</pdfrwt>
<totfact> 0.54420705E+03</totfact>
</mgrwt>
</event>
<event>
 4    1  0.5562790E-004  0.2614127E+03  0.7818608E-02  0.1106297E+00
         -2   -1    0    0    0  501 -0.00000000000E+00  0.00000000000E+00  0.33217778524E+02  0.33217778622E+02  0.25500000000E-02 0. -1.
          2   -1    0    0  501    0  0.00000000000E+00 -0.00000000000E+00 -0.51430730082E+03  0.51430730082E+03  0.25500000000E-02 0.  1.
    5000001    1    1    2    0    0 -0.83192150267E+02  0.37866658346E+02 -0.12970850110E+03  0.17637492151E+03  0.77000000000E+02 0.  0.
   -5000001    1    1    2    0    0  0.83192150267E+02 -0.37866658346E+02 -0.35138102119E+03  0.37115015794E+03  0.77000000000E+02 0.  0.
<mgrwt>
<rscale>  0 0.26141267E+03</rscale>
<asrwt>0</asrwt>
<pdfrwt beam="1">  1        2 0.73472467E-01 0.26141267E+03</pdfrwt>
<pdfrwt beam="2">  1       -2 0.47453973E-02 0.26141267E+03</pdfrwt>
<totfact> 0.13772263E+04</totfact>
</mgrwt>
</event>
<event>
 4    1  0.5562790E-004  0.4236169E+03  0.7818608E-02  0.1035896E+00
          2   -1    0    0  501    0  0.00000000000E+00  0.00000000000E+00  0.50247604025E+03  0.50247604025E+03  0.25500000000E-02 0.  1.
         -2   -1    0    0    0  501 -0.00000000000E+00 -0.00000000000E+00 -0.89283509762E+02  0.89283509798E+02  0.25500000000E-02 0. -1.
    5000001    1    1    2    0    0  0.37340703138E+02 -0.14085077652E+03  0.39244748546E+03  0.42564926665E+03  0.77000000000E+02 0.  0.
   -5000001    1    1    2    0    0 -0.37340703138E+02  0.14085077652E+03  0.20745045021E+02  0.16611028340E+03  0.77000000000E+02 0.  0.
<mgrwt>
<rscale>  0 0.42361692E+03</rscale>
<asrwt>0</asrwt>
<pdfrwt beam="1">  1        2 0.71782293E-01 0.42361692E+03</pdfrwt>
<pdfrwt beam="2">  1       -2 0.12754787E-01 0.42361692E+03</pdfrwt>
<totfact> 0.30339408E+03</totfact>
</mgrwt>
</event>
<event>
 4    1  0.5562790E-004  0.2307438E+03  0.7818608E-02  0.1126117E+00
         -2   -1    0    0    0  501 -0.00000000000E+00  0.00000000000E+00  0.67066724646E+01  0.67066729494E+01  0.25500000000E-02 0. -1.
          2   -1    0    0  501    0  0.00000000000E+00 -0.00000000000E+00 -0.19846914361E+04  0.19846914361E+04  0.25500000000E-02 0.  1.
    5000001    1    1    2    0    0  0.29683595761E+02  0.28097422191E+02 -0.16412027954E+04  0.16435164121E+04  0.77000000000E+02 0.  0.
   -5000001    1    1    2    0    0 -0.29683595761E+02 -0.28097422191E+02 -0.33678196819E+03  0.34788169697E+03  0.77000000000E+02 0.  0.
<mgrwt>
<rscale>  0 0.23074381E+03</rscale>
<asrwt>0</asrwt>
<pdfrwt beam="1">  1        2 0.28352697E+00 0.23074381E+03</pdfrwt>
<pdfrwt beam="2">  1       -2 0.95809737E-03 0.23074381E+03</pdfrwt>
<totfact> 0.20256438E+04</totfact>
</mgrwt>
</event>
<event>
 4    1  0.5562790E-004  0.5056551E+03  0.7818608E-02  0.1012313E+00
          2   -1    0    0  501    0  0.00000000000E+00  0.00000000000E+00  0.86362879378E+03  0.86362879379E+03  0.25500000000E-02 0.  1.
         -2   -1    0    0    0  501 -0.00000000000E+00 -0.00000000000E+00 -0.74015340204E+02  0.74015340248E+02  0.25500000000E-02 0. -1.
    5000001    1    1    2    0    0 -0.21780848205E+03 -0.10266228766E+03  0.40141466063E+03  0.47438677251E+03  0.77000000000E+02 0.  0.
   -5000001    1    1    2    0    0  0.21780848205E+03  0.10266228766E+03  0.38819879295E+03  0.46325736153E+03  0.77000000000E+02 0.  0.
<mgrwt>
<rscale>  0 0.50565514E+03</rscale>
<asrwt>0</asrwt>
<pdfrwt beam="1">  1        2 0.12337553E+00 0.50565514E+03</pdfrwt>
<pdfrwt beam="2">  1       -2 0.10573621E-01 0.50565514E+03</pdfrwt>
<totfact> 0.21538253E+03</totfact>
</mgrwt>
</event>
<event>
 4    1  0.5562790E-004  0.2163594E+03  0.7818608E-02  0.1136627E+00
          2   -1    0    0  501    0  0.00000000000E+00  0.00000000000E+00  0.15291939932E+03  0.15291939934E+03  0.25500000000E-02 0.  1.
         -2   -1    0    0    0  501 -0.00000000000E+00 -0.00000000000E+00 -0.76529521834E+02  0.76529521877E+02  0.25500000000E-02 0. -1.
    5000001    1    1    2    0    0 -0.86637742161E+01  0.37124821540E+02 -0.31512480538E+02  0.91516937163E+02  0.77000000000E+02 0.  0.
   -5000001    1    1    2    0    0  0.86637742161E+01 -0.37124821540E+02  0.10790235802E+03  0.13793198405E+03  0.77000000000E+02 0.  0.
<mgrwt>
<rscale>  0 0.21635941E+03</rscale>
<asrwt>0</asrwt>
<pdfrwt beam="1">  1        2 0.21845628E-01 0.21635941E+03</pdfrwt>
<pdfrwt beam="2">  1       -2 0.10932789E-01 0.21635941E+03</pdfrwt>
<totfact> 0.14011668E+04</totfact>
</mgrwt>
</event>
<event>
 4    1  0.5562790E-004  0.2025047E+03  0.7818608E-02  0.1147643E+00
         -2   -1    0    0    0  501 -0.00000000000E+00  0.00000000000E+00  0.90171367033E+01  0.90171370639E+01  0.25500000000E-02 0. -1.
          2   -1    0    0  501    0  0.00000000000E+00 -0.00000000000E+00 -0.11369502009E+04  0.11369502009E+04  0.25500000000E-02 0.  1.
    5000001    1    1    2    0    0 -0.54023700509E+02  0.64272922863E+01 -0.35503141001E+03  0.36733659279E+03  0.77000000000E+02 0.  0.
   -5000001    1    1    2    0    0  0.54023700509E+02 -0.64272922863E+01 -0.77290165417E+03  0.77863074517E+03  0.77000000000E+02 0.  0.
<mgrwt>
<rscale>  0 0.20250467E+03</rscale>
<asrwt>0</asrwt>
<pdfrwt beam="1">  1        2 0.16242137E+00 0.20250467E+03</pdfrwt>
<pdfrwt beam="2">  1       -2 0.12881631E-02 0.20250467E+03</pdfrwt>
<totfact> 0.34987372E+04</totfact>
</mgrwt>
</event>
<event>
 4    1  0.5562790E-004  0.2058391E+03  0.7818608E-02  0.1144904E+00
          2   -1    0    0  501    0  0.00000000000E+00  0.00000000000E+00  0.16328178881E+02  0.16328179080E+02  0.25500000000E-02 0.  1.
         -2   -1    0    0    0  501 -0.00000000000E+00 -0.00000000000E+00 -0.64872100813E+03  0.64872100813E+03  0.25500000000E-02 0. -1.
    5000001    1    1    2    0    0 -0.58847993676E+02  0.11987767870E+02 -0.42122061783E+03  0.43239172265E+03  0.77000000000E+02 0.  0.
   -5000001    1    1    2    0    0  0.58847993676E+02 -0.11987767870E+02 -0.21117221142E+03  0.23265746456E+03  0.77000000000E+02 0.  0.
<mgrwt>
<rscale>  0 0.20583909E+03</rscale>
<asrwt>0</asrwt>
<pdfrwt beam="1">  1        2 0.23325974E-02 0.20583909E+03</pdfrwt>
<pdfrwt beam="2">  1       -2 0.92674413E-01 0.20583909E+03</pdfrwt>
<totfact> 0.44353849E+03</totfact>
</mgrwt>
</event>
<event>
 4    1  0.5562790E-004  0.1881013E+03  0.7818608E-02  0.1160185E+00
          2   -1    0    0  501    0  0.00000000000E+00  0.00000000000E+00  0.12709077455E+04  0.12709077455E+04  0.25500000000E-02 0.  1.
         -2   -1    0    0    0  501 -0.00000000000E+00 -0.00000000000E+00 -0.69600063078E+01  0.69600067750E+01  0.25500000000E-02 0. -1.
    5000001    1    1    2    0    0  0.48864268641E+02 -0.22970652202E+02  0.62466141282E+03  0.63170107509E+03  0.77000000000E+02 0.  0.
   -5000001    1    1    2    0    0 -0.48864268641E+02  0.22970652202E+02  0.63928632640E+03  0.64616667721E+03  0.77000000000E+02 0.  0.
<mgrwt>
<rscale>  0 0.18810132E+03</rscale>
<asrwt>0</asrwt>
<pdfrwt beam="1">  1        2 0.18155840E+00 0.18810132E+03</pdfrwt>
<pdfrwt beam="2">  1       -2 0.99428584E-03 0.18810132E+03</pdfrwt>
<totfact> 0.42879852E+04</totfact>
</mgrwt>
</event>
<event>
 4    1  0.5562790E-004  0.2163257E+03  0.7818608E-02  0.1136652E+00
         -2   -1    0    0    0  501 -0.00000000000E+00  0.00000000000E+00  0.10602931904E+03  0.10602931907E+03  0.25500000000E-02 0. -1.
          2   -1    0    0  501    0  0.00000000000E+00 -0.00000000000E+00 -0.11033931849E+03  0.11033931852E+03  0.25500000000E-02 0.  1.
    5000001    1    1    2    0    0 -0.73708378859E+02 -0.12085555818E+02 -0.15985868832E+02  0.10845982563E+03  0.77000000000E+02 0.  0.
   -5000001    1    1    2    0    0  0.73708378859E+02  0.12085555818E+02  0.11675869379E+02  0.10790881196E+03  0.77000000000E+02 0.  0.
<mgrwt>
<rscale>  0 0.21632571E+03</rscale>
<asrwt>0</asrwt>
<pdfrwt beam="1">  1        2 0.15762760E-01 0.21632571E+03</pdfrwt>
<pdfrwt beam="2">  1       -2 0.15147046E-01 0.21632571E+03</pdfrwt>
<totfact> 0.12026909E+04</totfact>
</mgrwt>
</event>
<event>
 4    1  0.5562790E-004  0.2307826E+03  0.7818608E-02  0.1126090E+00
          2   -1    0    0  501    0  0.00000000000E+00  0.00000000000E+00  0.20932558021E+04  0.20932558021E+04  0.25500000000E-02 0.  1.
         -2   -1    0    0    0  501 -0.00000000000E+00 -0.00000000000E+00 -0.63609761233E+01  0.63609766344E+01  0.25500000000E-02 0. -1.
    5000001    1    1    2    0    0 -0.85716178514E+02 -0.61092777648E+01  0.10548257957E+04  0.10611178285E+04  0.77000000000E+02 0.  0.
   -5000001    1    1    2    0    0  0.85716178514E+02  0.61092777648E+01  0.10320690302E+04  0.10384989502E+04  0.77000000000E+02 0.  0.
<mgrwt>
<rscale>  0 0.23078259E+03</rscale>
<asrwt>0</asrwt>
<pdfrwt beam="1">  1        2 0.29903710E+00 0.23078259E+03</pdfrwt>
<pdfrwt beam="2">  1       -2 0.90870921E-03 0.23078259E+03</pdfrwt>
<totfact> 0.19372377E+04</totfact>
</mgrwt>
</event>
<event>
 4    1  0.5562790E-004  0.1833264E+03  0.7818608E-02  0.1164622E+00
          2   -1    0    0  501    0  0.00000000000E+00  0.00000000000E+00  0.56280195877E+03  0.56280195878E+03  0.25500000000E-02 0.  1.
         -2   -1    0    0    0  501 -0.00000000000E+00 -0.00000000000E+00 -0.14929120928E+02  0.14929121146E+02  0.25500000000E-02 0. -1.
    5000001    1    1    2    0    0  0.20246046539E+02  0.18522091666E+02  0.14323319968E+03  0.16491731192E+03  0.77000000000E+02 0.  0.
   -5000001    1    1    2    0    0 -0.20246046539E+02 -0.18522091666E+02  0.40463963817E+03  0.41281376801E+03  0.77000000000E+02 0.  0.
<mgrwt>
<rscale>  0 0.18332636E+03</rscale>
<asrwt>0</asrwt>
<pdfrwt beam="1">  1        2 0.80400266E-01 0.18332636E+03</pdfrwt>
<pdfrwt beam="2">  1       -2 0.21327320E-02 0.18332636E+03</pdfrwt>
<totfact> 0.39922429E+04</totfact>
</mgrwt>
</event>
<event>
 4    1  0.5562790E-004  0.1858582E+03  0.7818608E-02  0.1162251E+00
          2   -1    0    0  501    0  0.00000000000E+00  0.00000000000E+00  0.10765674507E+04  0.10765674507E+04  0.25500000000E-02 0.  1.
         -2   -1    0    0    0  501 -0.00000000000E+00 -0.00000000000E+00 -0.80216211100E+01  0.80216215153E+01  0.25500000000E-02 0. -1.
    5000001    1    1    2    0    0  0.16089116709E+02  0.46146853500E+02  0.43014027803E+03  0.43970222941E+03  0.77000000000E+02 0.  0.
   -5000001    1    1    2    0    0 -0.16089116709E+02 -0.46146853500E+02  0.63840555155E+03  0.64488684280E+03  0.77000000000E+02 0.  0.
<mgrwt>
<rscale>  0 0.18585819E+03</rscale>
<asrwt>0</asrwt>
<pdfrwt beam="1">  1        2 0.15379518E+00 0.18585819E+03</pdfrwt>
<pdfrwt beam="2">  1       -2 0.11459471E-02 0.18585819E+03</pdfrwt>
<totfact> 0.44477087E+04</totfact>
</mgrwt>
</event>
<event>
 4    1  0.5562790E-004  0.1713052E+03  0.7818608E-02  0.1176494E+00
          2   -1    0    0  501    0  0.00000000000E+00  0.00000000000E+00  0.68952180527E+02  0.68952180574E+02  0.25500000000E-02 0.  1.
         -2   -1    0    0    0  501 -0.00000000000E+00 -0.00000000000E+00 -0.10639786340E+03  0.10639786343E+03  0.25500000000E-02 0. -1.
    5000001    1    1    2    0    0 -0.29654639021E+02  0.15249038403E+02 -0.11288006623E+01  0.83917846604E+02  0.77000000000E+02 0.  0.
   -5000001    1    1    2    0    0  0.29654639021E+02 -0.15249038403E+02 -0.36316882207E+02  0.91432197397E+02  0.77000000000E+02 0.  0.
<mgrwt>
<rscale>  0 0.17130516E+03</rscale>
<asrwt>0</asrwt>
<pdfrwt beam="1">  1        2 0.98503116E-02 0.17130516E+03</pdfrwt>
<pdfrwt beam="2">  1       -2 0.15199695E-01 0.17130516E+03</pdfrwt>
<totfact> 0.20693780E+04</totfact>
</mgrwt>
</event>
<event>
 4    1  0.5562790E-004  0.2035651E+03  0.7818608E-02  0.1146766E+00
         -2   -1    0    0    0  501 -0.00000000000E+00  0.00000000000E+00  0.15916540815E+02  0.15916541019E+02  0.25500000000E-02 0. -1.
          2   -1    0    0  501    0  0.00000000000E+00 -0.00000000000E+00 -0.65087561362E+03  0.65087561363E+03  0.25500000000E-02 0.  1.
    5000001    1    1    2    0    0 -0.39733560305E+02 -0.48543306084E+02 -0.24456733899E+03  0.26396475462E+03  0.77000000000E+02 0.  0.
   -5000001    1    1    2    0    0  0.39733560305E+02  0.48543306084E+02 -0.39039173382E+03  0.40282740003E+03  0.77000000000E+02 0.  0.
<mgrwt>
<rscale>  0 0.20356511E+03</rscale>
<asrwt>0</asrwt>
<pdfrwt beam="1">  1        2 0.92982214E-01 0.20356511E+03</pdfrwt>
<pdfrwt beam="2">  1       -2 0.22737920E-02 0.20356511E+03</pdfrwt>
<totfact> 0.31088715E+04</totfact>
</mgrwt>
</event>
<event>
 4    1  0.5562790E-004  0.3703129E+03  0.7818608E-02  0.1054573E+00
         -2   -1    0    0    0  501 -0.00000000000E+00  0.00000000000E+00  0.11209549347E+03  0.11209549350E+03  0.25500000000E-02 0. -1.
          2   -1    0    0  501    0  0.00000000000E+00 -0.00000000000E+00 -0.30583665492E+03  0.30583665493E+03  0.25500000000E-02 0.  1.
    5000001    1    1    2    0    0  0.15157599567E+03 -0.56113897789E+02 -0.15016424955E+03  0.23367146559E+03  0.77000000000E+02 0.  0.
   -5000001    1    1    2    0    0 -0.15157599567E+03  0.56113897789E+02 -0.43576911908E+02  0.18426068284E+03  0.77000000000E+02 0.  0.
<mgrwt>
<rscale>  0 0.37031290E+03</rscale>
<asrwt>0</asrwt>
<pdfrwt beam="1">  1        2 0.43690951E-01 0.37031290E+03</pdfrwt>
<pdfrwt beam="2">  1       -2 0.16013642E-01 0.37031290E+03</pdfrwt>
<totfact> 0.35806115E+03</totfact>
</mgrwt>
</event>
<event>
 4    1  0.5562790E-004  0.2720580E+03  0.7818608E-02  0.1100108E+00
         -2   -1    0    0    0  501 -0.00000000000E+00  0.00000000000E+00  0.68283260200E+01  0.68283264961E+01  0.25500000000E-02 0. -1.
          2   -1    0    0  501    0  0.00000000000E+00 -0.00000000000E+00 -0.27098710020E+04  0.27098710020E+04  0.25500000000E-02 0.  1.
    5000001    1    1    2    0    0  0.78624882788E+02 -0.77698268438E+02 -0.15399292631E+04  0.15458104763E+04  0.77000000000E+02 0.  0.
   -5000001    1    1    2    0    0 -0.78624882788E+02  0.77698268438E+02 -0.11631134129E+04  0.11708888523E+04  0.77000000000E+02 0.  0.
<mgrwt>
<rscale>  0 0.27205796E+03</rscale>
<asrwt>0</asrwt>
<pdfrwt beam="1">  1        2 0.38712374E+00 0.27205796E+03</pdfrwt>
<pdfrwt beam="2">  1       -2 0.97547691E-03 0.27205796E+03</pdfrwt>
<totfact> 0.86848997E+03</totfact>
</mgrwt>
</event>
<event>
 4    1  0.5562790E-004  0.7126073E+03  0.7818608E-02  0.9695912E-01
          2   -1    0    0  501    0  0.00000000000E+00  0.00000000000E+00  0.11005007474E+03  0.11005007477E+03  0.25500000000E-02 0.  1.
         -2   -1    0    0    0  501 -0.00000000000E+00 -0.00000000000E+00 -0.11535866032E+04  0.11535866032E+04  0.25500000000E-02 0. -1.
    5000001    1    1    2    0    0  0.19496428592E+03 -0.27299986372E+03 -0.35844268687E+03  0.49694079944E+03  0.77000000000E+02 0.  0.
   -5000001    1    1    2    0    0 -0.19496428592E+03  0.27299986372E+03 -0.68509384161E+03  0.76669587855E+03  0.77000000000E+02 0.  0.
<mgrwt>
<rscale>  0 0.71260730E+03</rscale>
<asrwt>0</asrwt>
<pdfrwt beam="1">  1        2 0.15721440E-01 0.71260730E+03</pdfrwt>
<pdfrwt beam="2">  1       -2 0.16479808E+00 0.71260730E+03</pdfrwt>
<totfact> 0.89257062E+01</totfact>
</mgrwt>
</event>
<event>
 4    1  0.5562790E-004  0.1732962E+03  0.7818608E-02  0.1174453E+00
         -2   -1    0    0    0  501 -0.00000000000E+00  0.00000000000E+00  0.64676594838E+02  0.64676594888E+02  0.25500000000E-02 0. -1.
          2   -1    0    0  501    0  0.00000000000E+00 -0.00000000000E+00 -0.11608358607E+03  0.11608358610E+03  0.25500000000E-02 0.  1.
    5000001    1    1    2    0    0 -0.66562644287E+01 -0.33192309604E+02 -0.47404778575E+02  0.96551790790E+02  0.77000000000E+02 0.  0.
   -5000001    1    1    2    0    0  0.66562644287E+01  0.33192309604E+02 -0.40022126548E+01  0.84208390194E+02  0.77000000000E+02 0.  0.
<mgrwt>
<rscale>  0 0.17329618E+03</rscale>
<asrwt>0</asrwt>
<pdfrwt beam="1">  1        2 0.16583369E-01 0.17329618E+03</pdfrwt>
<pdfrwt beam="2">  1       -2 0.92395136E-02 0.17329618E+03</pdfrwt>
<totfact> 0.24639040E+04</totfact>
</mgrwt>
</event>
<event>
 4    1  0.5562790E-004  0.2892577E+03  0.7818608E-02  0.1090737E+00
          2   -1    0    0  501    0  0.00000000000E+00  0.00000000000E+00  0.24629989262E+03  0.24629989263E+03  0.25500000000E-02 0.  1.
         -2   -1    0    0    0  501 -0.00000000000E+00 -0.00000000000E+00 -0.84926987512E+02  0.84926987551E+02  0.25500000000E-02 0. -1.
    5000001    1    1    2    0    0  0.11949401382E+03  0.56199554043E+01  0.11050517116E+03  0.18014104499E+03  0.77000000000E+02 0.  0.
   -5000001    1    1    2    0    0 -0.11949401382E+03 -0.56199554043E+01  0.50867733952E+02  0.15108583519E+03  0.77000000000E+02 0.  0.
<mgrwt>
<rscale>  0 0.28925773E+03</rscale>
<asrwt>0</asrwt>
<pdfrwt beam="1">  1        2 0.35185700E-01 0.28925773E+03</pdfrwt>
<pdfrwt beam="2">  1       -2 0.12132426E-01 0.28925773E+03</pdfrwt>
<totfact> 0.71033072E+03</totfact>
</mgrwt>
</event>
<event>
 4    1  0.5562790E-004  0.3078917E+03  0.7818608E-02  0.1081361E+00
         -2   -1    0    0    0  501 -0.00000000000E+00  0.00000000000E+00  0.42747742002E+02  0.42747742078E+02  0.25500000000E-02 0. -1.
          2   -1    0    0  501    0  0.00000000000E+00 -0.00000000000E+00 -0.55439946766E+03  0.55439946767E+03  0.25500000000E-02 0.  1.
    5000001    1    1    2    0    0  0.10875150194E+02  0.11585688034E+03 -0.38195475339E+03  0.40664421704E+03  0.77000000000E+02 0.  0.
   -5000001    1    1    2    0    0 -0.10875150194E+02 -0.11585688034E+03 -0.12969697227E+03  0.19050299270E+03  0.77000000000E+02 0.  0.
<mgrwt>
<rscale>  0 0.30789170E+03</rscale>
<asrwt>0</asrwt>
<pdfrwt beam="1">  1        2 0.79199920E-01 0.30789170E+03</pdfrwt>
<pdfrwt beam="2">  1       -2 0.61068206E-02 0.30789170E+03</pdfrwt>
<totfact> 0.86731261E+03</totfact>
</mgrwt>
</event>
<event>
 4    1  0.5562790E-004  0.2009333E+03  0.7818608E-02  0.1148954E+00
          2   -1    0    0  501    0  0.00000000000E+00  0.00000000000E+00  0.28213837228E+03  0.28213837229E+03  0.25500000000E-02 0.  1.
         -2   -1    0    0    0  501 -0.00000000000E+00 -0.00000000000E+00 -0.35775177768E+02  0.35775177859E+02  0.25500000000E-02 0. -1.
    5000001    1    1    2    0    0  0.47754166959E+02 -0.26987265837E+02  0.17697068451E+03  0.20063996649E+03  0.77000000000E+02 0.  0.
   -5000001    1    1    2    0    0 -0.47754166959E+02  0.26987265837E+02  0.69392510007E+02  0.11727358366E+03  0.77000000000E+02 0.  0.
<mgrwt>
<rscale>  0 0.20093333E+03</rscale>
<asrwt>0</asrwt>
<pdfrwt beam="1">  1        2 0.40305481E-01 0.20093333E+03</pdfrwt>
<pdfrwt beam="2">  1       -2 0.51107398E-02 0.20093333E+03</pdfrwt>
<totfact> 0.23157953E+04</totfact>
</mgrwt>
</event>
<event>
 4    1  0.5562790E-004  0.6569367E+03  0.7818608E-02  0.9793849E-01
          2   -1    0    0  501    0  0.00000000000E+00  0.00000000000E+00  0.28365803023E+04  0.28365803023E+04  0.25500000000E-02 0.  1.
         -2   -1    0    0    0  501 -0.00000000000E+00 -0.00000000000E+00 -0.38035754414E+02  0.38035754500E+02  0.25500000000E-02 0. -1.
    5000001    1    1    2    0    0 -0.25301175780E+03 -0.18760161368E+03  0.16288722133E+04  0.16608320211E+04  0.77000000000E+02 0.  0.
   -5000001    1    1    2    0    0  0.25301175780E+03  0.18760161368E+03  0.11696723346E+04  0.12137840357E+04  0.77000000000E+02 0.  0.
<mgrwt>
<rscale>  0 0.65693675E+03</rscale>
<asrwt>0</asrwt>
<pdfrwt beam="1">  1        2 0.40522584E+00 0.65693675E+03</pdfrwt>
<pdfrwt beam="2">  1       -2 0.54336781E-02 0.65693675E+03</pdfrwt>
<totfact> 0.55397243E+02</totfact>
</mgrwt>
</event>
<event>
 4    1  0.5562790E-004  0.2281342E+03  0.7818608E-02  0.1127960E+00
         -2   -1    0    0    0  501 -0.00000000000E+00  0.00000000000E+00  0.13660054464E+03  0.13660054467E+03  0.25500000000E-02 0. -1.
          2   -1    0    0  501    0  0.00000000000E+00 -0.00000000000E+00 -0.95250765300E+02  0.95250765335E+02  0.25500000000E-02 0.  1.
    5000001    1    1    2    0    0  0.81693246878E+02 -0.19004069495E+02  0.27669261395E+02  0.11717307399E+03  0.77000000000E+02 0.  0.
   -5000001    1    1    2    0    0 -0.81693246878E+02  0.19004069495E+02  0.13680517948E+02  0.11467823601E+03  0.77000000000E+02 0.  0.
<mgrwt>
<rscale>  0 0.22813423E+03</rscale>
<asrwt>0</asrwt>
<pdfrwt beam="1">  1        2 0.13607252E-01 0.22813423E+03</pdfrwt>
<pdfrwt beam="2">  1       -2 0.19514364E-01 0.22813423E+03</pdfrwt>
<totfact> 0.94004510E+03</totfact>
</mgrwt>
</event>
<event>
 4    1  0.5562790E-004  0.2542026E+03  0.7818608E-02  0.1110677E+00
         -2   -1    0    0    0  501 -0.00000000000E+00  0.00000000000E+00  0.45328657072E+02  0.45328657143E+02  0.25500000000E-02 0. -1.
          2   -1    0    0  501    0  0.00000000000E+00 -0.00000000000E+00 -0.35639125671E+03  0.35639125672E+03  0.25500000000E-02 0.  1.
    5000001    1    1    2    0    0 -0.67393281298E+02  0.31580927469E+02 -0.26371678915E+03  0.28463090877E+03  0.77000000000E+02 0.  0.
   -5000001    1    1    2    0    0  0.67393281298E+02 -0.31580927469E+02 -0.47345810485E+02  0.11708900510E+03  0.77000000000E+02 0.  0.
<mgrwt>
<rscale>  0 0.25420257E+03</rscale>
<asrwt>0</asrwt>
<pdfrwt beam="1">  1        2 0.50913035E-01 0.25420257E+03</pdfrwt>
<pdfrwt beam="2">  1       -2 0.64755227E-02 0.25420257E+03</pdfrwt>
<totfact> 0.12753312E+04</totfact>
</mgrwt>
</event>
<event>
 4    1  0.5562790E-004  0.1696508E+03  0.7818608E-02  0.1178213E+00
         -2   -1    0    0    0  501 -0.00000000000E+00  0.00000000000E+00  0.36001986690E+02  0.36001986780E+02  0.25500000000E-02 0. -1.
          2   -1    0    0  501    0  0.00000000000E+00 -0.00000000000E+00 -0.19985968480E+03  0.19985968481E+03  0.25500000000E-02 0.  1.
    5000001    1    1    2    0    0  0.33702120485E+02 -0.98746333438E+01 -0.73941777645E+02  0.11238206169E+03  0.77000000000E+02 0.  0.
   -5000001    1    1    2    0    0 -0.33702120485E+02  0.98746333438E+01 -0.89915920461E+02  0.12347960990E+03  0.77000000000E+02 0.  0.
<mgrwt>
<rscale>  0 0.16965077E+03</rscale>
<asrwt>0</asrwt>
<pdfrwt beam="1">  1        2 0.28551383E-01 0.16965077E+03</pdfrwt>
<pdfrwt beam="2">  1       -2 0.51431411E-02 0.16965077E+03</pdfrwt>
<totfact> 0.32810292E+04</totfact>
</mgrwt>
</event>
<event>
 4    1  0.5562790E-004  0.2050876E+03  0.7818608E-02  0.1145516E+00
          2   -1    0    0  501    0  0.00000000000E+00  0.00000000000E+00  0.56374399429E+02  0.56374399487E+02  0.25500000000E-02 0.  1.
         -2   -1    0    0    0  501 -0.00000000000E+00 -0.00000000000E+00 -0.18652490395E+03  0.18652490397E+03  0.25500000000E-02 0. -1.
    5000001    1    1    2    0    0 -0.32556381780E+02  0.59301385800E+02 -0.61394723964E+02  0.11947754803E+03  0.77000000000E+02 0.  0.
   -5000001    1    1    2    0    0  0.32556381780E+02 -0.59301385800E+02 -0.68755780557E+02  0.12342175543E+03  0.77000000000E+02 0.  0.
<mgrwt>
<rscale>  0 0.20508759E+03</rscale>
<asrwt>0</asrwt>
<pdfrwt beam="1">  1        2 0.80534857E-02 0.20508759E+03</pdfrwt>
<pdfrwt beam="2">  1       -2 0.26646415E-01 0.20508759E+03</pdfrwt>
<totfact> 0.10370851E+04</totfact>
</mgrwt>
</event>
<event>
 4    1  0.5562790E-004  0.2927571E+03  0.7818608E-02  0.1088918E+00
          2   -1    0    0  501    0  0.00000000000E+00  0.00000000000E+00  0.36293822519E+04  0.36293822519E+04  0.25500000000E-02 0.  1.
         -2   -1    0    0    0  501 -0.00000000000E+00 -0.00000000000E+00 -0.59036701159E+01  0.59036706666E+01  0.25500000000E-02 0. -1.
    5000001    1    1    2    0    0 -0.53747912858E+02 -0.45419637040E+01  0.32049382591E+04  0.32063168453E+04  0.77000000000E+02 0.  0.
   -5000001    1    1    2    0    0  0.53747912858E+02  0.45419637040E+01  0.41854032266E+03  0.42896907728E+03  0.77000000000E+02 0.  0.
<mgrwt>
<rscale>  0 0.29275708E+03</rscale>
<asrwt>0</asrwt>
<pdfrwt beam="1">  1        2 0.51848393E+00 0.29275708E+03</pdfrwt>
<pdfrwt beam="2">  1       -2 0.84338026E-03 0.29275708E+03</pdfrwt>
<totfact> 0.33587056E+03</totfact>
</mgrwt>
</event>
<event>
 4    1  0.5562790E-004  0.1881421E+03  0.7818608E-02  0.1160148E+00
         -2   -1    0    0    0  501 -0.00000000000E+00  0.00000000000E+00  0.13044322684E+02  0.13044322933E+02  0.25500000000E-02 0. -1.
          2   -1    0    0  501    0  0.00000000000E+00 -0.00000000000E+00 -0.67840745718E+03  0.67840745718E+03  0.25500000000E-02 0.  1.
    5000001    1    1    2    0    0 -0.37772577179E+02  0.33591755974E+02 -0.26244931711E+03  0.27814351998E+03  0.77000000000E+02 0.  0.
   -5000001    1    1    2    0    0  0.37772577179E+02 -0.33591755974E+02 -0.40291381739E+03  0.41330826014E+03  0.77000000000E+02 0.  0.
<mgrwt>
<rscale>  0 0.18814214E+03</rscale>
<asrwt>0</asrwt>
<pdfrwt beam="1">  1        2 0.96915328E-01 0.18814214E+03</pdfrwt>
<pdfrwt beam="2">  1       -2 0.18634751E-02 0.18814214E+03</pdfrwt>
<totfact> 0.39395587E+04</totfact>
</mgrwt>
</event>
<event>
 4    1  0.5562790E-004  0.3492972E+03  0.7818608E-02  0.1062904E+00
          2   -1    0    0  501    0  0.00000000000E+00  0.00000000000E+00  0.26563560450E+03  0.26563560451E+03  0.25500000000E-02 0.  1.
         -2   -1    0    0    0  501 -0.00000000000E+00 -0.00000000000E+00 -0.11482699039E+03  0.11482699042E+03  0.25500000000E-02 0. -1.
    5000001    1    1    2    0    0 -0.11499384127E+03 -0.31269515454E+02 -0.35524232055E+02  0.14626119509E+03  0.77000000000E+02 0.  0.
   -5000001    1    1    2    0    0  0.11499384127E+03  0.31269515454E+02  0.18633284616E+03  0.23420139984E+03  0.77000000000E+02 0.  0.
<mgrwt>
<rscale>  0 0.34929722E+03</rscale>
<asrwt>0</asrwt>
<pdfrwt beam="1">  1        2 0.37947943E-01 0.34929722E+03</pdfrwt>
<pdfrwt beam="2">  1       -2 0.16403856E-01 0.34929722E+03</pdfrwt>
<totfact> 0.40032802E+03</totfact>
</mgrwt>
</event>
<event>
 4    1  0.5562790E-004  0.2782255E+03  0.7818608E-02  0.1096662E+00
         -2   -1    0    0    0  501 -0.00000000000E+00  0.00000000000E+00  0.10870808550E+02  0.10870808849E+02  0.25500000000E-02 0. -1.
          2   -1    0    0  501    0  0.00000000000E+00 -0.00000000000E+00 -0.17802128272E+04  0.17802128272E+04  0.25500000000E-02 0.  1.
    5000001    1    1    2    0    0 -0.85643963039E+02 -0.47307602571E+02 -0.48520941518E+03  0.50092921082E+03  0.77000000000E+02 0.  0.
   -5000001    1    1    2    0    0  0.85643963039E+02  0.47307602571E+02 -0.12841326035E+04  0.12901544253E+04  0.77000000000E+02 0.  0.
<mgrwt>
<rscale>  0 0.27822547E+03</rscale>
<asrwt>0</asrwt>
<pdfrwt beam="1">  1        2 0.25431593E+00 0.27822547E+03</pdfrwt>
<pdfrwt beam="2">  1       -2 0.15529738E-02 0.27822547E+03</pdfrwt>
<totfact> 0.12689806E+04</totfact>
</mgrwt>
</event>
<event>
 4    1  0.5562790E-004  0.3372717E+03  0.7818608E-02  0.1067964E+00
          2   -1    0    0  501    0  0.00000000000E+00  0.00000000000E+00  0.48665846849E+03  0.48665846850E+03  0.25500000000E-02 0.  1.
         -2   -1    0    0    0  501 -0.00000000000E+00 -0.00000000000E+00 -0.58435316232E+02  0.58435316288E+02  0.25500000000E-02 0. -1.
    5000001    1    1    2    0    0 -0.97534915366E+02 -0.56424288413E+02  0.54017083680E+02  0.14677740074E+03  0.77000000000E+02 0.  0.
   -5000001    1    1    2    0    0  0.97534915366E+02  0.56424288413E+02  0.37420606858E+03  0.39831638405E+03  0.77000000000E+02 0.  0.
<mgrwt>
<rscale>  0 0.33727165E+03</rscale>
<asrwt>0</asrwt>
<pdfrwt beam="1">  1        2 0.69522636E-01 0.33727165E+03</pdfrwt>
<pdfrwt beam="2">  1       -2 0.83479026E-02 0.33727165E+03</pdfrwt>
<totfact> 0.61853183E+03</totfact>
</mgrwt>
</event>
<event>
 4    1  0.5562790E-004  0.2190027E+03  0.7818608E-02  0.1134629E+00
         -2   -1    0    0    0  501 -0.00000000000E+00  0.00000000000E+00  0.52304094539E+01  0.52304100755E+01  0.25500000000E-02 0. -1.
          2   -1    0    0  501    0  0.00000000000E+00 -0.00000000000E+00 -0.22924668555E+04  0.22924668555E+04  0.25500000000E-02 0.  1.
    5000001    1    1    2    0    0 -0.85106674779E+01 -0.41897259829E+02 -0.46095743247E+03  0.46929581970E+03  0.77000000000E+02 0.  0.
   -5000001    1    1    2    0    0  0.85106674779E+01  0.41897259829E+02 -0.18262790136E+04  0.18284014459E+04  0.77000000000E+02 0.  0.
<mgrwt>
<rscale>  0 0.21900266E+03</rscale>
<asrwt>0</asrwt>
<pdfrwt beam="1">  1        2 0.32749462E+00 0.21900266E+03</pdfrwt>
<pdfrwt beam="2">  1       -2 0.74720286E-03 0.21900266E+03</pdfrwt>
<totfact> 0.20519783E+04</totfact>
</mgrwt>
</event>
<event>
 4    1  0.5562790E-004  0.1857525E+03  0.7818608E-02  0.1162349E+00
         -2   -1    0    0    0  501 -0.00000000000E+00  0.00000000000E+00  0.32788071200E+02  0.32788071299E+02  0.25500000000E-02 0. -1.
          2   -1    0    0  501    0  0.00000000000E+00 -0.00000000000E+00 -0.26308329886E+03  0.26308329887E+03  0.25500000000E-02 0.  1.
    5000001    1    1    2    0    0 -0.33978178911E+02  0.39101878954E+02 -0.10929078297E+03  0.14337694662E+03  0.77000000000E+02 0.  0.
   -5000001    1    1    2    0    0  0.33978178911E+02 -0.39101878954E+02 -0.12100444469E+03  0.15249442355E+03  0.77000000000E+02 0.  0.
<mgrwt>
<rscale>  0 0.18575246E+03</rscale>
<asrwt>0</asrwt>
<pdfrwt beam="1">  1        2 0.37583327E-01 0.18575246E+03</pdfrwt>
<pdfrwt beam="2">  1       -2 0.46840103E-02 0.18575246E+03</pdfrwt>
<totfact> 0.28290197E+04</totfact>
</mgrwt>
</event>
<event>
 4    1  0.5562790E-004  0.3554497E+03  0.7818608E-02  0.1060400E+00
         -2   -1    0    0    0  501 -0.00000000000E+00  0.00000000000E+00  0.40183426627E+02  0.40183426707E+02  0.25500000000E-02 0. -1.
          2   -1    0    0  501    0  0.00000000000E+00 -0.00000000000E+00 -0.78604855852E+03  0.78604855853E+03  0.25500000000E-02 0.  1.
    5000001    1    1    2    0    0  0.13191585291E+03  0.68435676539E+02 -0.23400996482E+03  0.28770626984E+03  0.77000000000E+02 0.  0.
   -5000001    1    1    2    0    0 -0.13191585291E+03 -0.68435676539E+02 -0.51185516708E+03  0.53852571539E+03  0.77000000000E+02 0.  0.
<mgrwt>
<rscale>  0 0.35544971E+03</rscale>
<asrwt>0</asrwt>
<pdfrwt beam="1">  1        2 0.11229264E+00 0.35544971E+03</pdfrwt>
<pdfrwt beam="2">  1       -2 0.57404900E-02 0.35544971E+03</pdfrwt>
<totfact> 0.63450509E+03</totfact>
</mgrwt>
</event>
<event>
 4    1  0.5562790E-004  0.2000147E+03  0.7818608E-02  0.1149727E+00
          2   -1    0    0  501    0  0.00000000000E+00  0.00000000000E+00  0.19159886608E+04  0.19159886608E+04  0.25500000000E-02 0.  1.
         -2   -1    0    0    0  501 -0.00000000000E+00 -0.00000000000E+00 -0.52200032124E+01  0.52200038353E+01  0.25500000000E-02 0. -1.
    5000001    1    1    2    0    0  0.26612953153E+02 -0.58000640195E+02  0.95173903180E+03  0.95697884417E+03  0.77000000000E+02 0.  0.
   -5000001    1    1    2    0    0 -0.26612953153E+02  0.58000640195E+02  0.95902962582E+03  0.96422982050E+03  0.77000000000E+02 0.  0.
<mgrwt>
<rscale>  0 0.20001468E+03</rscale>
<asrwt>0</asrwt>
<pdfrwt beam="1">  1        2 0.27371211E+00 0.20001468E+03</pdfrwt>
<pdfrwt beam="2">  1       -2 0.74571630E-03 0.20001468E+03</pdfrwt>
<totfact> 0.31176310E+04</totfact>
</mgrwt>
</event>
<event>
 4    1  0.5562790E-004  0.3211827E+03  0.7818608E-02  0.1075106E+00
          2   -1    0    0  501    0  0.00000000000E+00  0.00000000000E+00  0.19535141576E+04  0.19535141576E+04  0.25500000000E-02 0.  1.
         -2   -1    0    0    0  501 -0.00000000000E+00 -0.00000000000E+00 -0.13201636275E+02  0.13201636521E+02  0.25500000000E-02 0. -1.
    5000001    1    1    2    0    0 -0.13047820319E+03 -0.18870494121E+02  0.12750923695E+04  0.12842002211E+04  0.77000000000E+02 0.  0.
   -5000001    1    1    2    0    0  0.13047820319E+03  0.18870494121E+02  0.66522015175E+03  0.68251557298E+03  0.77000000000E+02 0.  0.
<mgrwt>
<rscale>  0 0.32118271E+03</rscale>
<asrwt>0</asrwt>
<pdfrwt beam="1">  1        2 0.27907346E+00 0.32118271E+03</pdfrwt>
<pdfrwt beam="2">  1       -2 0.18859480E-02 0.32118271E+03</pdfrwt>
<totfact> 0.78602382E+03</totfact>
</mgrwt>
</event>
<event>
 4    1  0.5562790E-004  0.2053260E+03  0.7818608E-02  0.1145322E+00
          2   -1    0    0  501    0  0.00000000000E+00  0.00000000000E+00  0.22330578804E+02  0.22330578949E+02  0.25500000000E-02 0.  1.
         -2   -1    0    0    0  501 -0.00000000000E+00 -0.00000000000E+00 -0.47198483933E+03  0.47198483934E+03  0.25500000000E-02 0. -1.
    5000001    1    1    2    0    0 -0.35186086314E+02  0.56279038424E+02 -0.19033192820E+03  0.21577913182E+03  0.77000000000E+02 0.  0.
   -5000001    1    1    2    0    0  0.35186086314E+02 -0.56279038424E+02 -0.25932233233E+03  0.27853628647E+03  0.77000000000E+02 0.  0.
<mgrwt>
<rscale>  0 0.20532603E+03</rscale>
<asrwt>0</asrwt>
<pdfrwt beam="1">  1        2 0.31900830E-02 0.20532603E+03</pdfrwt>
<pdfrwt beam="2">  1       -2 0.67426399E-01 0.20532603E+03</pdfrwt>
<totfact> 0.58191978E+03</totfact>
</mgrwt>
</event>
<event>
 4    1  0.5562790E-004  0.2218331E+03  0.7818608E-02  0.1132524E+00
          2   -1    0    0  501    0  0.00000000000E+00  0.00000000000E+00  0.84340481319E+03  0.84340481319E+03  0.25500000000E-02 0.  1.
         -2   -1    0    0    0  501 -0.00000000000E+00 -0.00000000000E+00 -0.14586679292E+02  0.14586679515E+02  0.25500000000E-02 0. -1.
    5000001    1    1    2    0    0  0.47728194998E+02 -0.61340673739E+02  0.34384894402E+03  0.36083480314E+03  0.77000000000E+02 0.  0.
   -5000001    1    1    2    0    0 -0.47728194998E+02  0.61340673739E+02  0.48496918987E+03  0.49715668956E+03  0.77000000000E+02 0.  0.
<mgrwt>
<rscale>  0 0.22183305E+03</rscale>
<asrwt>0</asrwt>
<pdfrwt beam="1">  1        2 0.12048645E+00 0.22183305E+03</pdfrwt>
<pdfrwt beam="2">  1       -2 0.20838104E-02 0.22183305E+03</pdfrwt>
<totfact> 0.26045459E+04</totfact>
</mgrwt>
</event>
<event>
 4    1  0.5562790E-004  0.1697102E+03  0.7818608E-02  0.1178150E+00
          2   -1    0    0  501    0  0.00000000000E+00  0.00000000000E+00  0.33860467962E+02  0.33860468058E+02  0.25500000000E-02 0.  1.
         -2   -1    0    0    0  501 -0.00000000000E+00 -0.00000000000E+00 -0.21264880301E+03  0.21264880302E+03  0.25500000000E-02 0. -1.
    5000001    1    1    2    0    0  0.45769625562E+01 -0.20429716162E+02 -0.13131839270E+03  0.15366145304E+03  0.77000000000E+02 0.  0.
   -5000001    1    1    2    0    0 -0.45769625562E+01  0.20429716162E+02 -0.47469942344E+02  0.92847818040E+02  0.77000000000E+02 0.  0.
<mgrwt>
<rscale>  0 0.16971020E+03</rscale>
<asrwt>0</asrwt>
<pdfrwt beam="1">  1        2 0.48372098E-02 0.16971020E+03</pdfrwt>
<pdfrwt beam="2">  1       -2 0.30378400E-01 0.16971020E+03</pdfrwt>
<totfact> 0.15601372E+04</totfact>
</mgrwt>
</event>
<event>
 4    1  0.5562790E-004  0.1663178E+03  0.7818608E-02  0.1181743E+00
          2   -1    0    0  501    0  0.00000000000E+00  0.00000000000E+00  0.39379424752E+02  0.39379424835E+02  0.25500000000E-02 0.  1.
         -2   -1    0    0    0  501 -0.00000000000E+00 -0.00000000000E+00 -0.17560953837E+03  0.17560953838E+03  0.25500000000E-02 0. -1.
    5000001    1    1    2    0    0  0.17730597399E+02  0.23450758015E+02 -0.82398020433E+02  0.11654503810E+03  0.77000000000E+02 0.  0.
   -5000001    1    1    2    0    0 -0.17730597399E+02 -0.23450758015E+02 -0.53832093181E+02  0.98443925114E+02  0.77000000000E+02 0.  0.
<mgrwt>
<rscale>  0 0.16631780E+03</rscale>
<asrwt>0</asrwt>
<pdfrwt beam="1">  1        2 0.56256322E-02 0.16631780E+03</pdfrwt>
<pdfrwt beam="2">  1       -2 0.25087077E-01 0.16631780E+03</pdfrwt>
<totfact> 0.17971549E+04</totfact>
</mgrwt>
</event>
<event>
 4    1  0.5562790E-004  0.1764760E+03  0.7818608E-02  0.1171258E+00
          2   -1    0    0  501    0  0.00000000000E+00  0.00000000000E+00  0.10574173194E+04  0.10574173194E+04  0.25500000000E-02 0.  1.
         -2   -1    0    0    0  501 -0.00000000000E+00 -0.00000000000E+00 -0.73631736709E+01  0.73631741124E+01  0.25500000000E-02 0. -1.
    5000001    1    1    2    0    0 -0.33362512100E+02  0.26768359547E+02  0.55657826840E+03  0.56350507641E+03  0.77000000000E+02 0.  0.
   -5000001    1    1    2    0    0  0.33362512100E+02 -0.26768359547E+02  0.49347587729E+03  0.50127541707E+03  0.77000000000E+02 0.  0.
<mgrwt>
<rscale>  0 0.17647603E+03</rscale>
<asrwt>0</asrwt>
<pdfrwt beam="1">  1        2 0.15105950E+00 0.17647603E+03</pdfrwt>
<pdfrwt beam="2">  1       -2 0.10518828E-02 0.17647603E+03</pdfrwt>
<totfact> 0.51365734E+04</totfact>
</mgrwt>
</event>
<event>
 4    1  0.5562790E-004  0.2240284E+03  0.7818608E-02  0.1130915E+00
         -2   -1    0    0    0  501 -0.00000000000E+00  0.00000000000E+00  0.25639946753E+02  0.25639946880E+02  0.25500000000E-02 0. -1.
          2   -1    0    0  501    0  0.00000000000E+00 -0.00000000000E+00 -0.48936086626E+03  0.48936086627E+03  0.25500000000E-02 0.  1.
    5000001    1    1    2    0    0  0.54281150362E+02  0.10917155118E+02 -0.36887775565E+03  0.38087455438E+03  0.77000000000E+02 0.  0.
   -5000001    1    1    2    0    0 -0.54281150362E+02 -0.10917155118E+02 -0.94843163858E+02  0.13412625877E+03  0.77000000000E+02 0.  0.
<mgrwt>
<rscale>  0 0.22402845E+03</rscale>
<asrwt>0</asrwt>
<pdfrwt beam="1">  1        2 0.69908690E-01 0.22402845E+03</pdfrwt>
<pdfrwt beam="2">  1       -2 0.36628498E-02 0.22402845E+03</pdfrwt>
<totfact> 0.21287710E+04</totfact>
</mgrwt>
</event>
<event>
 4    1  0.5562790E-004  0.1701866E+03  0.7818608E-02  0.1177653E+00
          2   -1    0    0  501    0  0.00000000000E+00  0.00000000000E+00  0.65227399969E+03  0.65227399970E+03  0.25500000000E-02 0.  1.
         -2   -1    0    0    0  501 -0.00000000000E+00 -0.00000000000E+00 -0.11100969467E+02  0.11100969760E+02  0.25500000000E-02 0. -1.
    5000001    1    1    2    0    0  0.32588201218E+02 -0.11624464164E+02  0.36234253321E+03  0.37204600576E+03  0.77000000000E+02 0.  0.
   -5000001    1    1    2    0    0 -0.32588201218E+02  0.11624464164E+02  0.27883049702E+03  0.29132896370E+03  0.77000000000E+02 0.  0.
<mgrwt>
<rscale>  0 0.17018665E+03</rscale>
<asrwt>0</asrwt>
<pdfrwt beam="1">  1        2 0.93181976E-01 0.17018665E+03</pdfrwt>
<pdfrwt beam="2">  1       -2 0.15858532E-02 0.17018665E+03</pdfrwt>
<totfact> 0.51651623E+04</totfact>
</mgrwt>
</event>
<event>
 4    1  0.5562790E-004  0.2676872E+03  0.7818608E-02  0.1102611E+00
          2   -1    0    0  501    0  0.00000000000E+00  0.00000000000E+00  0.60418005564E+03  0.60418005564E+03  0.25500000000E-02 0.  1.
         -2   -1    0    0    0  501 -0.00000000000E+00 -0.00000000000E+00 -0.29650285098E+02  0.29650285207E+02  0.25500000000E-02 0. -1.
    5000001    1    1    2    0    0  0.68704104456E+02 -0.49788912584E+02  0.12345950250E+03  0.16843526514E+03  0.77000000000E+02 0.  0.
   -5000001    1    1    2    0    0 -0.68704104456E+02  0.49788912584E+02  0.45107026804E+03  0.46539507571E+03  0.77000000000E+02 0.  0.
<mgrwt>
<rscale>  0 0.26768721E+03</rscale>
<asrwt>0</asrwt>
<pdfrwt beam="1">  1        2 0.86311430E-01 0.26768721E+03</pdfrwt>
<pdfrwt beam="2">  1       -2 0.42357554E-02 0.26768721E+03</pdfrwt>
<totfact> 0.13656890E+04</totfact>
</mgrwt>
</event>
<event>
 4    1  0.5562790E-004  0.3773606E+03  0.7818608E-02  0.1051914E+00
          2   -1    0    0  501    0  0.00000000000E+00  0.00000000000E+00  0.16500478693E+04  0.16500478693E+04  0.25500000000E-02 0.  1.
         -2   -1    0    0    0  501 -0.00000000000E+00 -0.00000000000E+00 -0.21575288339E+02  0.21575288490E+02  0.25500000000E-02 0. -1.
    5000001    1    1    2    0    0  0.15217022700E+01 -0.13196322385E+03  0.13046157539E+04  0.13135325932E+04  0.77000000000E+02 0.  0.
   -5000001    1    1    2    0    0 -0.15217022700E+01  0.13196322385E+03  0.32385682705E+03  0.35809056460E+03  0.77000000000E+02 0.  0.
<mgrwt>
<rscale>  0 0.37736062E+03</rscale>
<asrwt>0</asrwt>
<pdfrwt beam="1">  1        2 0.23572118E+00 0.37736062E+03</pdfrwt>
<pdfrwt beam="2">  1       -2 0.30821833E-02 0.37736062E+03</pdfrwt>
<totfact> 0.53509223E+03</totfact>
</mgrwt>
</event>
<event>
 4    1  0.5562790E-004  0.2894371E+03  0.7818608E-02  0.1090643E+00
          2   -1    0    0  501    0  0.00000000000E+00  0.00000000000E+00  0.48833270042E+03  0.48833270042E+03  0.25500000000E-02 0.  1.
         -2   -1    0    0    0  501 -0.00000000000E+00 -0.00000000000E+00 -0.42887681833E+02  0.42887681909E+02  0.25500000000E-02 0. -1.
    5000001    1    1    2    0    0 -0.69014245938E+02  0.11472002684E+02  0.38089935953E+02  0.11078996439E+03  0.77000000000E+02 0.  0.
   -5000001    1    1    2    0    0  0.69014245938E+02 -0.11472002684E+02  0.40735508263E+03  0.42043041795E+03  0.77000000000E+02 0.  0.
<mgrwt>
<rscale>  0 0.28943709E+03</rscale>
<asrwt>0</asrwt>
<pdfrwt beam="1">  1        2 0.69761810E-01 0.28943709E+03</pdfrwt>
<pdfrwt beam="2">  1       -2 0.61268121E-02 0.28943709E+03</pdfrwt>
<totfact> 0.99206602E+03</totfact>
</mgrwt>
</event>
<event>
 4    1  0.5562790E-004  0.2243960E+03  0.7818608E-02  0.1130647E+00
          2   -1    0    0  501    0  0.00000000000E+00  0.00000000000E+00  0.17292284842E+04  0.17292284842E+04  0.25500000000E-02 0.  1.
         -2   -1    0    0    0  501 -0.00000000000E+00 -0.00000000000E+00 -0.72797734022E+01  0.72797738488E+01  0.25500000000E-02 0. -1.
    5000001    1    1    2    0    0 -0.62720320252E+02  0.46680079851E+02  0.10418858432E+04  0.10476487859E+04  0.77000000000E+02 0.  0.
   -5000001    1    1    2    0    0  0.62720320252E+02 -0.46680079851E+02  0.68006286763E+03  0.68885947214E+03  0.77000000000E+02 0.  0.
<mgrwt>
<rscale>  0 0.22439601E+03</rscale>
<asrwt>0</asrwt>
<pdfrwt beam="1">  1        2 0.24703275E+00 0.22439601E+03</pdfrwt>
<pdfrwt beam="2">  1       -2 0.10399672E-02 0.22439601E+03</pdfrwt>
<totfact> 0.23913153E+04</totfact>
</mgrwt>
</event>
<event>
 4    1  0.5562790E-004  0.2858859E+03  0.7818608E-02  0.1092517E+00
          2   -1    0    0  501    0  0.00000000000E+00  0.00000000000E+00  0.13569203100E+04  0.13569203100E+04  0.25500000000E-02 0.  1.
         -2   -1    0    0    0  501 -0.00000000000E+00 -0.00000000000E+00 -0.15058130553E+02  0.15058130769E+02  0.25500000000E-02 0. -1.
    5000001    1    1    2    0    0 -0.40360785465E+02 -0.10671417048E+03  0.85597610087E+03  0.86697231354E+03  0.77000000000E+02 0.  0.
   -5000001    1    1    2    0    0  0.40360785465E+02  0.10671417048E+03  0.48588607858E+03  0.50500612723E+03  0.77000000000E+02 0.  0.
<mgrwt>
<rscale>  0 0.28588587E+03</rscale>
<asrwt>0</asrwt>
<pdfrwt beam="1">  1        2 0.19384567E+00 0.28588587E+03</pdfrwt>
<pdfrwt beam="2">  1       -2 0.21511625E-02 0.28588587E+03</pdfrwt>
<totfact> 0.12834611E+04</totfact>
</mgrwt>
</event>
<event>
 4    1  0.5562790E-004  0.2824462E+03  0.7818608E-02  0.1094360E+00
          2   -1    0    0  501    0  0.00000000000E+00  0.00000000000E+00  0.30503936043E+03  0.30503936044E+03  0.25500000000E-02 0.  1.
         -2   -1    0    0    0  501 -0.00000000000E+00 -0.00000000000E+00 -0.65381606026E+02  0.65381606076E+02  0.25500000000E-02 0. -1.
    5000001    1    1    2    0    0 -0.53599776022E+02 -0.10406007904E+03  0.14305076295E+03  0.20023475427E+03  0.77000000000E+02 0.  0.
   -5000001    1    1    2    0    0  0.53599776022E+02  0.10406007904E+03  0.96606991452E+02  0.17018621224E+03  0.77000000000E+02 0.  0.
<mgrwt>
<rscale>  0 0.28244620E+03</rscale>
<asrwt>0</asrwt>
<pdfrwt beam="1">  1        2 0.43577053E-01 0.28244620E+03</pdfrwt>
<pdfrwt beam="2">  1       -2 0.93402292E-02 0.28244620E+03</pdfrwt>
<totfact> 0.85571789E+03</totfact>
</mgrwt>
</event>
<event>
 4    1  0.5562790E-004  0.1919495E+03  0.7818608E-02  0.1156715E+00
          2   -1    0    0  501    0  0.00000000000E+00  0.00000000000E+00  0.73102117273E+03  0.73102117274E+03  0.25500000000E-02 0.  1.
         -2   -1    0    0    0  501 -0.00000000000E+00 -0.00000000000E+00 -0.12600390462E+02  0.12600390720E+02  0.25500000000E-02 0. -1.
    5000001    1    1    2    0    0  0.23257322378E+02 -0.48077126359E+02  0.27889144516E+03  0.29421378503E+03  0.77000000000E+02 0.  0.
   -5000001    1    1    2    0    0 -0.23257322378E+02  0.48077126359E+02  0.43952933711E+03  0.44940777842E+03  0.77000000000E+02 0.  0.
<mgrwt>
<rscale>  0 0.19194950E+03</rscale>
<asrwt>0</asrwt>
<pdfrwt beam="1">  1        2 0.10443161E+00 0.19194950E+03</pdfrwt>
<pdfrwt beam="2">  1       -2 0.18000556E-02 0.19194950E+03</pdfrwt>
<totfact> 0.38013020E+04</totfact>
</mgrwt>
</event>
<event>
 4    1  0.5562790E-004  0.2472362E+03  0.7818608E-02  0.1115064E+00
          2   -1    0    0  501    0  0.00000000000E+00  0.00000000000E+00  0.64033821326E+02  0.64033821377E+02  0.25500000000E-02 0.  1.
         -2   -1    0    0    0  501 -0.00000000000E+00 -0.00000000000E+00 -0.23864625412E+03  0.23864625413E+03  0.25500000000E-02 0. -1.
    5000001    1    1    2    0    0  0.23392411397E+02  0.93832307091E+02 -0.88348517666E+02  0.15194132861E+03  0.77000000000E+02 0.  0.
   -5000001    1    1    2    0    0 -0.23392411397E+02 -0.93832307091E+02 -0.86263915126E+02  0.15073874690E+03  0.77000000000E+02 0.  0.
<mgrwt>
<rscale>  0 0.24723618E+03</rscale>
<asrwt>0</asrwt>
<pdfrwt beam="1">  1        2 0.91476889E-02 0.24723618E+03</pdfrwt>
<pdfrwt beam="2">  1       -2 0.34092322E-01 0.24723618E+03</pdfrwt>
<totfact> 0.57117157E+03</totfact>
</mgrwt>
</event>
<event>
 4    1  0.5562790E-004  0.2631450E+03  0.7818608E-02  0.1105268E+00
         -2   -1    0    0    0  501 -0.00000000000E+00  0.00000000000E+00  0.10619324146E+03  0.10619324150E+03  0.25500000000E-02 0. -1.
          2   -1    0    0  501    0  0.00000000000E+00 -0.00000000000E+00 -0.16301723265E+03  0.16301723267E+03  0.25500000000E-02 0.  1.
    5000001    1    1    2    0    0  0.10105609543E+03  0.32822988991E+02 -0.38259099461E+02  0.13668372881E+03  0.77000000000E+02 0.  0.
   -5000001    1    1    2    0    0 -0.10105609543E+03 -0.32822988991E+02 -0.18564891729E+02  0.13252674536E+03  0.77000000000E+02 0.  0.
<mgrwt>
<rscale>  0 0.26314504E+03</rscale>
<asrwt>0</asrwt>
<pdfrwt beam="1">  1        2 0.23288176E-01 0.26314504E+03</pdfrwt>
<pdfrwt beam="2">  1       -2 0.15170463E-01 0.26314504E+03</pdfrwt>
<totfact> 0.77431242E+03</totfact>
</mgrwt>
</event>
<event>
 4    1  0.5562790E-004  0.3111041E+03  0.7818608E-02  0.1079818E+00
         -2   -1    0    0    0  501 -0.00000000000E+00  0.00000000000E+00  0.20009963265E+03  0.20009963266E+03  0.25500000000E-02 0. -1.
          2   -1    0    0  501    0  0.00000000000E+00 -0.00000000000E+00 -0.12092195803E+03  0.12092195806E+03  0.25500000000E-02 0.  1.
    5000001    1    1    2    0    0 -0.11580105722E+03 -0.68085243384E+02  0.24215782788E+02  0.15671914164E+03  0.77000000000E+02 0.  0.
   -5000001    1    1    2    0    0  0.11580105722E+03  0.68085243384E+02  0.54961891826E+02  0.16430244908E+03  0.77000000000E+02 0.  0.
<mgrwt>
<rscale>  0 0.31110409E+03</rscale>
<asrwt>0</asrwt>
<pdfrwt beam="1">  1        2 0.17274566E-01 0.31110409E+03</pdfrwt>
<pdfrwt beam="2">  1       -2 0.28585662E-01 0.31110409E+03</pdfrwt>
<totfact> 0.36803861E+03</totfact>
</mgrwt>
</event>
<event>
 4    1  0.5562790E-004  0.2060070E+03  0.7818608E-02  0.1144768E+00
         -2   -1    0    0    0  501 -0.00000000000E+00  0.00000000000E+00  0.41114849221E+01  0.41114857129E+01  0.25500000000E-02 0. -1.
          2   -1    0    0  501    0  0.00000000000E+00 -0.00000000000E+00 -0.25805072369E+04  0.25805072369E+04  0.25500000000E-02 0.  1.
    5000001    1    1    2    0    0  0.10376524716E+01 -0.49551444568E+02 -0.69648530807E+03  0.70247932834E+03  0.77000000000E+02 0.  0.
   -5000001    1    1    2    0    0 -0.10376524716E+01  0.49551444568E+02 -0.18799104439E+04  0.18821393942E+04  0.77000000000E+02 0.  0.
<mgrwt>
<rscale>  0 0.20600697E+03</rscale>
<asrwt>0</asrwt>
<pdfrwt beam="1">  1        2 0.36864285E+00 0.20600697E+03</pdfrwt>
<pdfrwt beam="2">  1       -2 0.58735670E-03 0.20600697E+03</pdfrwt>
<totfact> 0.20875797E+04</totfact>
</mgrwt>
</event>
<event>
 4    1  0.5562790E-004  0.1616867E+03  0.7818608E-02  0.1186806E+00
         -2   -1    0    0    0  501 -0.00000000000E+00  0.00000000000E+00  0.19294600469E+02  0.19294600638E+02  0.25500000000E-02 0. -1.
          2   -1    0    0  501    0  0.00000000000E+00 -0.00000000000E+00 -0.33872923234E+03  0.33872923235E+03  0.25500000000E-02 0.  1.
    5000001    1    1    2    0    0 -0.21933154978E+02 -0.95531094120E+01 -0.14674517480E+03  0.16743796318E+03  0.77000000000E+02 0.  0.
   -5000001    1    1    2    0    0  0.21933154978E+02  0.95531094120E+01 -0.17268945707E+03  0.19058586981E+03  0.77000000000E+02 0.  0.
<mgrwt>
<rscale>  0 0.16168668E+03</rscale>
<asrwt>0</asrwt>
<pdfrwt beam="1">  1        2 0.48389887E-01 0.16168668E+03</pdfrwt>
<pdfrwt beam="2">  1       -2 0.27563717E-02 0.16168668E+03</pdfrwt>
<totfact> 0.46894282E+04</totfact>
</mgrwt>
</event>
<event>
 4    1  0.5562790E-004  0.3211468E+03  0.7818608E-02  0.1075123E+00
          2   -1    0    0  501    0  0.00000000000E+00  0.00000000000E+00  0.14590458469E+04  0.14590458469E+04  0.25500000000E-02 0.  1.
         -2   -1    0    0    0  501 -0.00000000000E+00 -0.00000000000E+00 -0.17671700242E+02  0.17671700426E+02  0.25500000000E-02 0. -1.
    5000001    1    1    2    0    0  0.12053438659E+03 -0.59804809857E+02  0.52834621701E+03  0.55062135689E+03  0.77000000000E+02 0.  0.
   -5000001    1    1    2    0    0 -0.12053438659E+03  0.59804809857E+02  0.91302792967E+03  0.92609619047E+03  0.77000000000E+02 0.  0.
<mgrwt>
<rscale>  0 0.32114683E+03</rscale>
<asrwt>0</asrwt>
<pdfrwt beam="1">  1        2 0.20843519E+00 0.32114683E+03</pdfrwt>
<pdfrwt beam="2">  1       -2 0.25245278E-02 0.32114683E+03</pdfrwt>
<totfact> 0.89936322E+03</totfact>
</mgrwt>
</event>
<event>
 4    1  0.5562790E-004  0.2355915E+03  0.7818608E-02  0.1122765E+00
          2   -1    0    0  501    0  0.00000000000E+00  0.00000000000E+00  0.17403355615E+04  0.17403355615E+04  0.25500000000E-02 0.  1.
         -2   -1    0    0    0  501 -0.00000000000E+00 -0.00000000000E+00 -0.79730843833E+01  0.79730847911E+01  0.25500000000E-02 0. -1.
    5000001    1    1    2    0    0 -0.37646901335E+02  0.49277063114E+02  0.39093302434E+03  0.40324080603E+03  0.77000000000E+02 0.  0.
   -5000001    1    1    2    0    0  0.37646901335E+02 -0.49277063114E+02  0.13414294528E+04  0.13450678403E+04  0.77000000000E+02 0.  0.
<mgrwt>
<rscale>  0 0.23559153E+03</rscale>
<asrwt>0</asrwt>
<pdfrwt beam="1">  1        2 0.24861971E+00 0.23559153E+03</pdfrwt>
<pdfrwt beam="2">  1       -2 0.11390105E-02 0.23559153E+03</pdfrwt>
<totfact> 0.20743484E+04</totfact>
</mgrwt>
</event>
<event>
 4    1  0.5562790E-004  0.2107263E+03  0.7818608E-02  0.1140992E+00
         -2   -1    0    0    0  501 -0.00000000000E+00  0.00000000000E+00  0.73665427479E+02  0.73665427523E+02  0.25500000000E-02 0. -1.
          2   -1    0    0  501    0  0.00000000000E+00 -0.00000000000E+00 -0.15070023132E+03  0.15070023134E+03  0.25500000000E-02 0.  1.
    5000001    1    1    2    0    0 -0.44593827396E+01 -0.47345371150E+02  0.18927726981E+02  0.92459337616E+02  0.77000000000E+02 0.  0.
   -5000001    1    1    2    0    0  0.44593827396E+01  0.47345371150E+02 -0.95962530823E+02  0.13190632125E+03  0.77000000000E+02 0.  0.
<mgrwt>
<rscale>  0 0.21072633E+03</rscale>
<asrwt>0</asrwt>
<pdfrwt beam="1">  1        2 0.21528604E-01 0.21072633E+03</pdfrwt>
<pdfrwt beam="2">  1       -2 0.10523633E-01 0.21072633E+03</pdfrwt>
<totfact> 0.15110272E+04</totfact>
</mgrwt>
</event>
<event>
 4    1  0.5562790E-004  0.2403687E+03  0.7818608E-02  0.1119547E+00
          2   -1    0    0  501    0  0.00000000000E+00  0.00000000000E+00  0.51317053477E+03  0.51317053477E+03  0.25500000000E-02 0.  1.
         -2   -1    0    0    0  501 -0.00000000000E+00 -0.00000000000E+00 -0.28147137906E+02  0.28147138021E+02  0.25500000000E-02 0. -1.
    5000001    1    1    2    0    0 -0.80846766450E+02 -0.35611632736E+02  0.18246673280E+03  0.21685824081E+03  0.77000000000E+02 0.  0.
   -5000001    1    1    2    0    0  0.80846766450E+02  0.35611632736E+02  0.30255666406E+03  0.32445943198E+03  0.77000000000E+02 0.  0.
<mgrwt>
<rscale>  0 0.24036873E+03</rscale>
<asrwt>0</asrwt>
<pdfrwt beam="1">  1        2 0.73310073E-01 0.24036873E+03</pdfrwt>
<pdfrwt beam="2">  1       -2 0.40210199E-02 0.24036873E+03</pdfrwt>
<totfact> 0.17644632E+04</totfact>
</mgrwt>
</event>
<event>
 4    1  0.5562790E-004  0.2574876E+03  0.7818608E-02  0.1108662E+00
         -2   -1    0    0    0  501 -0.00000000000E+00  0.00000000000E+00  0.11385225522E+03  0.11385225525E+03  0.25500000000E-02 0. -1.
          2   -1    0    0  501    0  0.00000000000E+00 -0.00000000000E+00 -0.14558315076E+03  0.14558315078E+03  0.25500000000E-02 0.  1.
    5000001    1    1    2    0    0 -0.55720127074E+02  0.49849122452E+02  0.55780131213E+02  0.12095491147E+03  0.77000000000E+02 0.  0.
   -5000001    1    1    2    0    0  0.55720127074E+02 -0.49849122452E+02 -0.87511026750E+02  0.13848049456E+03  0.77000000000E+02 0.  0.
<mgrwt>
<rscale>  0 0.25748763E+03</rscale>
<asrwt>0</asrwt>
<pdfrwt beam="1">  1        2 0.20797593E-01 0.25748763E+03</pdfrwt>
<pdfrwt beam="2">  1       -2 0.16264608E-01 0.25748763E+03</pdfrwt>
<totfact> 0.78325059E+03</totfact>
</mgrwt>
</event>
<event>
 4    1  0.5562790E-004  0.1759039E+03  0.7818608E-02  0.1171827E+00
         -2   -1    0    0    0  501 -0.00000000000E+00  0.00000000000E+00  0.99996507948E+02  0.99996507981E+02  0.25500000000E-02 0. -1.
          2   -1    0    0  501    0  0.00000000000E+00 -0.00000000000E+00 -0.77358117098E+02  0.77358117140E+02  0.25500000000E-02 0.  1.
    5000001    1    1    2    0    0 -0.69568345202E+01 -0.41872927874E+02  0.91097888372E+01  0.88395293358E+02  0.77000000000E+02 0.  0.
   -5000001    1    1    2    0    0  0.69568345202E+01  0.41872927874E+02  0.13528602013E+02  0.88959331763E+02  0.77000000000E+02 0.  0.
<mgrwt>
<rscale>  0 0.17590386E+03</rscale>
<asrwt>0</asrwt>
<pdfrwt beam="1">  1        2 0.11051160E-01 0.17590386E+03</pdfrwt>
<pdfrwt beam="2">  1       -2 0.14285215E-01 0.17590386E+03</pdfrwt>
<totfact> 0.19938083E+04</totfact>
</mgrwt>
</event>
<event>
 4    1  0.5562790E-004  0.1758539E+03  0.7818608E-02  0.1171877E+00
         -2   -1    0    0    0  501 -0.00000000000E+00  0.00000000000E+00  0.11608201546E+03  0.11608201549E+03  0.25500000000E-02 0. -1.
          2   -1    0    0  501    0  0.00000000000E+00 -0.00000000000E+00 -0.66600712327E+02  0.66600712375E+02  0.25500000000E-02 0.  1.
    5000001    1    1    2    0    0  0.18768139069E+02  0.73164335174E+01  0.63559808702E+02  0.10185589097E+03  0.77000000000E+02 0.  0.
   -5000001    1    1    2    0    0 -0.18768139069E+02 -0.73164335174E+01 -0.14078505564E+02  0.80826836895E+02  0.77000000000E+02 0.  0.
<mgrwt>
<rscale>  0 0.17585386E+03</rscale>
<asrwt>0</asrwt>
<pdfrwt beam="1">  1        2 0.95143876E-02 0.17585386E+03</pdfrwt>
<pdfrwt beam="2">  1       -2 0.16583145E-01 0.17585386E+03</pdfrwt>
<totfact> 0.18750976E+04</totfact>
</mgrwt>
</event>
<event>
 4    1  0.5562790E-004  0.4664098E+03  0.7818608E-02  0.1022938E+00
         -2   -1    0    0    0  501 -0.00000000000E+00  0.00000000000E+00  0.22733566650E+04  0.22733566650E+04  0.25500000000E-02 0. -1.
          2   -1    0    0  501    0  0.00000000000E+00 -0.00000000000E+00 -0.23922566360E+02  0.23922566496E+02  0.25500000000E-02 0.  1.
    5000001    1    1    2    0    0  0.92558575751E+02  0.10608333357E+03  0.29124141522E+03  0.33252266922E+03  0.77000000000E+02 0.  0.
   -5000001    1    1    2    0    0 -0.92558575751E+02 -0.10608333357E+03  0.19581926834E+04  0.19647565623E+04  0.77000000000E+02 0.  0.
<mgrwt>
<rscale>  0 0.46640980E+03</rscale>
<asrwt>0</asrwt>
<pdfrwt beam="1">  1        2 0.34175125E-02 0.46640980E+03</pdfrwt>
<pdfrwt beam="2">  1       -2 0.32476495E+00 0.46640980E+03</pdfrwt>
<totfact> 0.67092127E+01</totfact>
</mgrwt>
</event>
<event>
 4    1  0.5562790E-004  0.2157364E+03  0.7818608E-02  0.1137102E+00
         -2   -1    0    0    0  501 -0.00000000000E+00  0.00000000000E+00  0.96807805846E+02  0.96807805880E+02  0.25500000000E-02 0. -1.
          2   -1    0    0  501    0  0.00000000000E+00 -0.00000000000E+00 -0.12019225654E+03  0.12019225657E+03  0.25500000000E-02 0.  1.
    5000001    1    1    2    0    0 -0.43195685054E+02  0.48192423541E+02  0.27499725587E+02  0.10427661196E+03  0.77000000000E+02 0.  0.
   -5000001    1    1    2    0    0  0.43195685054E+02 -0.48192423541E+02 -0.50884176279E+02  0.11272345049E+03  0.77000000000E+02 0.  0.
<mgrwt>
<rscale>  0 0.21573640E+03</rscale>
<asrwt>0</asrwt>
<pdfrwt beam="1">  1        2 0.17170322E-01 0.21573640E+03</pdfrwt>
<pdfrwt beam="2">  1       -2 0.13829687E-01 0.21573640E+03</pdfrwt>
<totfact> 0.12632821E+04</totfact>
</mgrwt>
</event>
<event>
 4    1  0.5562790E-004  0.5154413E+03  0.7818608E-02  0.1009825E+00
         -2   -1    0    0    0  501 -0.00000000000E+00  0.00000000000E+00  0.43846138215E+02  0.43846138289E+02  0.25500000000E-02 0. -1.
          2   -1    0    0  501    0  0.00000000000E+00 -0.00000000000E+00 -0.15148409398E+04  0.15148409398E+04  0.25500000000E-02 0.  1.
    5000001    1    1    2    0    0 -0.24255792507E+03  0.40110587125E+02 -0.71460801334E+03  0.75962939579E+03  0.77000000000E+02 0.  0.
   -5000001    1    1    2    0    0  0.24255792507E+03 -0.40110587125E+02 -0.75638678821E+03  0.79905768227E+03  0.77000000000E+02 0.  0.
<mgrwt>
<rscale>  0 0.51544127E+03</rscale>
<asrwt>0</asrwt>
<pdfrwt beam="1">  1        2 0.21640582E+00 0.51544127E+03</pdfrwt>
<pdfrwt beam="2">  1       -2 0.62637349E-02 0.51544127E+03</pdfrwt>
<totfact> 0.21134390E+03</totfact>
</mgrwt>
</event>
<event>
 4    1  0.5562790E-004  0.2409989E+03  0.7818608E-02  0.1119129E+00
          2   -1    0    0  501    0  0.00000000000E+00  0.00000000000E+00  0.19726106310E+04  0.19726106310E+04  0.25500000000E-02 0.  1.
         -2   -1    0    0    0  501 -0.00000000000E+00 -0.00000000000E+00 -0.73608653948E+01  0.73608658365E+01  0.25500000000E-02 0. -1.
    5000001    1    1    2    0    0  0.42202435609E+02 -0.80488861817E+02  0.83301381345E+03  0.84148708596E+03  0.77000000000E+02 0.  0.
   -5000001    1    1    2    0    0 -0.42202435609E+02  0.80488861817E+02  0.11322359522E+04  0.11384844109E+04  0.77000000000E+02 0.  0.
<mgrwt>
<rscale>  0 0.24099894E+03</rscale>
<asrwt>0</asrwt>
<pdfrwt beam="1">  1        2 0.28180180E+00 0.24099894E+03</pdfrwt>
<pdfrwt beam="2">  1       -2 0.10515512E-02 0.24099894E+03</pdfrwt>
<totfact> 0.17970383E+04</totfact>
</mgrwt>
</event>
<event>
 4    1  0.5562790E-004  0.2636027E+03  0.7818608E-02  0.1104998E+00
         -2   -1    0    0    0  501 -0.00000000000E+00  0.00000000000E+00  0.88826458164E+01  0.88826461824E+01  0.25500000000E-02 0. -1.
          2   -1    0    0  501    0  0.00000000000E+00 -0.00000000000E+00 -0.19556774214E+04  0.19556774214E+04  0.25500000000E-02 0.  1.
    5000001    1    1    2    0    0 -0.48910963914E+02 -0.56975128273E+02 -0.15411832377E+04  0.15449314611E+04  0.77000000000E+02 0.  0.
   -5000001    1    1    2    0    0  0.48910963914E+02  0.56975128273E+02 -0.40561153788E+03  0.41962860639E+03  0.77000000000E+02 0.  0.
<mgrwt>
<rscale>  0 0.26360266E+03</rscale>
<asrwt>0</asrwt>
<pdfrwt beam="1">  1        2 0.27938221E+00 0.26360266E+03</pdfrwt>
<pdfrwt beam="2">  1       -2 0.12689507E-02 0.26360266E+03</pdfrwt>
<totfact> 0.13973595E+04</totfact>
</mgrwt>
</event>
<event>
 4    1  0.5562790E-004  0.2127204E+03  0.7818608E-02  0.1139430E+00
         -2   -1    0    0    0  501 -0.00000000000E+00  0.00000000000E+00  0.13854612016E+03  0.13854612018E+03  0.25500000000E-02 0. -1.
          2   -1    0    0  501    0  0.00000000000E+00 -0.00000000000E+00 -0.81651474823E+02  0.81651474863E+02  0.25500000000E-02 0.  1.
    5000001    1    1    2    0    0 -0.25566490988E+02 -0.36091781224E+02  0.89047679959E+02  0.12575671529E+03  0.77000000000E+02 0.  0.
   -5000001    1    1    2    0    0  0.25566490988E+02  0.36091781224E+02 -0.32153034627E+02  0.94440879756E+02  0.77000000000E+02 0.  0.
<mgrwt>
<rscale>  0 0.21272043E+03</rscale>
<asrwt>0</asrwt>
<pdfrwt beam="1">  1        2 0.11664496E-01 0.21272043E+03</pdfrwt>
<pdfrwt beam="2">  1       -2 0.19792303E-01 0.21272043E+03</pdfrwt>
<totfact> 0.11003265E+04</totfact>
</mgrwt>
</event>
<event>
 4    1  0.5562790E-004  0.3817390E+03  0.7818608E-02  0.1050293E+00
         -2   -1    0    0    0  501 -0.00000000000E+00  0.00000000000E+00  0.85863390816E+03  0.85863390816E+03  0.25500000000E-02 0. -1.
          2   -1    0    0  501    0  0.00000000000E+00 -0.00000000000E+00 -0.42429226588E+02  0.42429226665E+02  0.25500000000E-02 0.  1.
    5000001    1    1    2    0    0  0.15415243409E+03  0.28538629381E+02  0.22641547515E+03  0.28595523022E+03  0.77000000000E+02 0.  0.
   -5000001    1    1    2    0    0 -0.15415243409E+03 -0.28538629381E+02  0.58978920642E+03  0.61510790461E+03  0.77000000000E+02 0.  0.
<mgrwt>
<rscale>  0 0.38173903E+03</rscale>
<asrwt>0</asrwt>
<pdfrwt beam="1">  1        2 0.60613186E-02 0.38173903E+03</pdfrwt>
<pdfrwt beam="2">  1       -2 0.12266198E+00 0.38173903E+03</pdfrwt>
<totfact> 0.64576667E+02</totfact>
</mgrwt>
</event>
<event>
 4    1  0.5562790E-004  0.3588334E+03  0.7818608E-02  0.1059047E+00
         -2   -1    0    0    0  501 -0.00000000000E+00  0.00000000000E+00  0.11457984657E+03  0.11457984660E+03  0.25500000000E-02 0. -1.
          2   -1    0    0  501    0  0.00000000000E+00 -0.00000000000E+00 -0.28094257749E+03  0.28094257751E+03  0.25500000000E-02 0.  1.
    5000001    1    1    2    0    0 -0.15846461667E+03 -0.33091370962E+02 -0.74985828538E+02  0.19431404491E+03  0.77000000000E+02 0.  0.
   -5000001    1    1    2    0    0  0.15846461667E+03  0.33091370962E+02 -0.91376902385E+02  0.20120837919E+03  0.77000000000E+02 0.  0.
<mgrwt>
<rscale>  0 0.35883343E+03</rscale>
<asrwt>0</asrwt>
<pdfrwt beam="1">  1        2 0.40134654E-01 0.35883343E+03</pdfrwt>
<pdfrwt beam="2">  1       -2 0.16368550E-01 0.35883343E+03</pdfrwt>
<totfact> 0.37823310E+03</totfact>
</mgrwt>
</event>
<event>
 4    1  0.5562790E-004  0.2080936E+03  0.7818608E-02  0.1143085E+00
          2   -1    0    0  501    0  0.00000000000E+00  0.00000000000E+00  0.10415907149E+03  0.10415907152E+03  0.25500000000E-02 0.  1.
         -2   -1    0    0    0  501 -0.00000000000E+00 -0.00000000000E+00 -0.10393466328E+03  0.10393466331E+03  0.25500000000E-02 0. -1.
    5000001    1    1    2    0    0 -0.57489977305E+02 -0.37598221368E+02 -0.13230003212E+02  0.10403247919E+03  0.77000000000E+02 0.  0.
   -5000001    1    1    2    0    0  0.57489977305E+02  0.37598221368E+02  0.13454411417E+02  0.10406125565E+03  0.77000000000E+02 0.  0.
<mgrwt>
<rscale>  0 0.20809361E+03</rscale>
<asrwt>0</asrwt>
<pdfrwt beam="1">  1        2 0.14879867E-01 0.20809361E+03</pdfrwt>
<pdfrwt beam="2">  1       -2 0.14847809E-01 0.20809361E+03</pdfrwt>
<totfact> 0.13267165E+04</totfact>
</mgrwt>
</event>
<event>
 4    1  0.5562790E-004  0.2396930E+03  0.7818608E-02  0.1119998E+00
          2   -1    0    0  501    0  0.00000000000E+00  0.00000000000E+00  0.14261214450E+04  0.14261214450E+04  0.25500000000E-02 0.  1.
         -2   -1    0    0    0  501 -0.00000000000E+00 -0.00000000000E+00 -0.10071500942E+02  0.10071501265E+02  0.25500000000E-02 0. -1.
    5000001    1    1    2    0    0 -0.39483707342E+02  0.82754106839E+02  0.67690313284E+03  0.68741112632E+03  0.77000000000E+02 0.  0.
   -5000001    1    1    2    0    0  0.39483707342E+02 -0.82754106839E+02  0.73914681123E+03  0.74878181995E+03  0.77000000000E+02 0.  0.
<mgrwt>
<rscale>  0 0.23969300E+03</rscale>
<asrwt>0</asrwt>
<pdfrwt beam="1">  1        2 0.20373142E+00 0.23969300E+03</pdfrwt>
<pdfrwt beam="2">  1       -2 0.14387874E-02 0.23969300E+03</pdfrwt>
<totfact> 0.21183968E+04</totfact>
</mgrwt>
</event>
<event>
 4    1  0.5562790E-004  0.2581426E+03  0.7818608E-02  0.1108264E+00
         -2   -1    0    0    0  501 -0.00000000000E+00  0.00000000000E+00  0.16248760151E+02  0.16248760351E+02  0.25500000000E-02 0. -1.
          2   -1    0    0  501    0  0.00000000000E+00 -0.00000000000E+00 -0.10252717137E+04  0.10252717138E+04  0.25500000000E-02 0.  1.
    5000001    1    1    2    0    0  0.46482378835E+02  0.55581058209E+01 -0.87733982520E+03  0.88195559580E+03  0.77000000000E+02 0.  0.
   -5000001    1    1    2    0    0 -0.46482378835E+02 -0.55581058209E+01 -0.13168312839E+03  0.15956487830E+03  0.77000000000E+02 0.  0.
<mgrwt>
<rscale>  0 0.25814255E+03</rscale>
<asrwt>0</asrwt>
<pdfrwt beam="1">  1        2 0.14646735E+00 0.25814255E+03</pdfrwt>
<pdfrwt beam="2">  1       -2 0.23212521E-02 0.25814255E+03</pdfrwt>
<totfact> 0.17347052E+04</totfact>
</mgrwt>
</event>
<event>
 4    1  0.5562790E-004  0.7450073E+03  0.7818608E-02  0.9643216E-01
          2   -1    0    0  501    0  0.00000000000E+00  0.00000000000E+00  0.26245603204E+03  0.26245603205E+03  0.25500000000E-02 0.  1.
         -2   -1    0    0    0  501 -0.00000000000E+00 -0.00000000000E+00 -0.52869420583E+03  0.52869420583E+03  0.25500000000E-02 0. -1.
    5000001    1    1    2    0    0 -0.23742984012E+03  0.26607682361E+03 -0.21301295938E+03  0.42246103478E+03  0.77000000000E+02 0.  0.
   -5000001    1    1    2    0    0  0.23742984012E+03 -0.26607682361E+03 -0.53225214400E+02  0.36868920311E+03  0.77000000000E+02 0.  0.
<mgrwt>
<rscale>  0 0.74500734E+03</rscale>
<asrwt>0</asrwt>
<pdfrwt beam="1">  1        2 0.37493719E-01 0.74500734E+03</pdfrwt>
<pdfrwt beam="2">  1       -2 0.75527743E-01 0.74500734E+03</pdfrwt>
<totfact> 0.21956405E+02</totfact>
</mgrwt>
</event>
<event>
 4    1  0.5562790E-004  0.3206370E+03  0.7818608E-02  0.1075357E+00
         -2   -1    0    0    0  501 -0.00000000000E+00  0.00000000000E+00  0.18811807555E+02  0.18811807728E+02  0.25500000000E-02 0. -1.
          2   -1    0    0  501    0  0.00000000000E+00 -0.00000000000E+00 -0.13662703238E+04  0.13662703238E+04  0.25500000000E-02 0.  1.
    5000001    1    1    2    0    0  0.13957948319E+03  0.15176609947E+02 -0.64019791566E+03  0.65992055039E+03  0.77000000000E+02 0.  0.
   -5000001    1    1    2    0    0 -0.13957948319E+03 -0.15176609947E+02 -0.70726060057E+03  0.72516158112E+03  0.77000000000E+02 0.  0.
<mgrwt>
<rscale>  0 0.32063696E+03</rscale>
<asrwt>0</asrwt>
<pdfrwt beam="1">  1        2 0.19518141E+00 0.32063696E+03</pdfrwt>
<pdfrwt beam="2">  1       -2 0.26874020E-02 0.32063696E+03</pdfrwt>
<totfact> 0.91502612E+03</totfact>
</mgrwt>
</event>
<event>
 4    1  0.5562790E-004  0.2413153E+03  0.7818608E-02  0.1118920E+00
         -2   -1    0    0    0  501 -0.00000000000E+00  0.00000000000E+00  0.37010724991E+02  0.37010725079E+02  0.25500000000E-02 0. -1.
          2   -1    0    0  501    0  0.00000000000E+00 -0.00000000000E+00 -0.39335261066E+03  0.39335261067E+03  0.25500000000E-02 0.  1.
    5000001    1    1    2    0    0 -0.83572193711E+02 -0.27806456896E+02 -0.12551497423E+03  0.17158239817E+03  0.77000000000E+02 0.  0.
   -5000001    1    1    2    0    0  0.83572193711E+02  0.27806456896E+02 -0.23082691144E+03  0.25878093758E+03  0.77000000000E+02 0.  0.
<mgrwt>
<rscale>  0 0.24131527E+03</rscale>
<asrwt>0</asrwt>
<pdfrwt beam="1">  1        2 0.56193228E-01 0.24131527E+03</pdfrwt>
<pdfrwt beam="2">  1       -2 0.52872467E-02 0.24131527E+03</pdfrwt>
<totfact> 0.15593177E+04</totfact>
</mgrwt>
</event>
<event>
 4    1  0.5562790E-004  0.2360175E+03  0.7818608E-02  0.1122475E+00
         -2   -1    0    0    0  501 -0.00000000000E+00  0.00000000000E+00  0.12067827762E+02  0.12067828032E+02  0.25500000000E-02 0. -1.
          2   -1    0    0  501    0  0.00000000000E+00 -0.00000000000E+00 -0.11539826604E+04  0.11539826605E+04  0.25500000000E-02 0.  1.
    5000001    1    1    2    0    0 -0.33392893400E+02 -0.76031703127E+02 -0.40701241955E+03  0.42247368542E+03  0.77000000000E+02 0.  0.
   -5000001    1    1    2    0    0  0.33392893400E+02  0.76031703127E+02 -0.73490241314E+03  0.74357680306E+03  0.77000000000E+02 0.  0.
<mgrwt>
<rscale>  0 0.23601749E+03</rscale>
<asrwt>0</asrwt>
<pdfrwt beam="1">  1        2 0.16485460E+00 0.23601749E+03</pdfrwt>
<pdfrwt beam="2">  1       -2 0.17239761E-02 0.23601749E+03</pdfrwt>
<totfact> 0.22616060E+04</totfact>
</mgrwt>
</event>
<event>
 4    1  0.5562790E-004  0.5270754E+03  0.7818608E-02  0.1006944E+00
          2   -1    0    0  501    0  0.00000000000E+00  0.00000000000E+00  0.66588674791E+03  0.66588674792E+03  0.25500000000E-02 0.  1.
         -2   -1    0    0    0  501 -0.00000000000E+00 -0.00000000000E+00 -0.10430020786E+03  0.10430020789E+03  0.25500000000E-02 0. -1.
    5000001    1    1    2    0    0  0.12936257699E+03 -0.21629535636E+03  0.28398425424E+03  0.38742020360E+03  0.77000000000E+02 0.  0.
   -5000001    1    1    2    0    0 -0.12936257699E+03  0.21629535636E+03  0.27760228581E+03  0.38276675221E+03  0.77000000000E+02 0.  0.
<mgrwt>
<rscale>  0 0.52707543E+03</rscale>
<asrwt>0</asrwt>
<pdfrwt beam="1">  1        2 0.95126680E-01 0.52707543E+03</pdfrwt>
<pdfrwt beam="2">  1       -2 0.14900029E-01 0.52707543E+03</pdfrwt>
<totfact> 0.16935394E+03</totfact>
</mgrwt>
</event>
<event>
 4    1  0.5562790E-004  0.2936391E+03  0.7818608E-02  0.1088464E+00
          2   -1    0    0  501    0  0.00000000000E+00  0.00000000000E+00  0.20911556692E+04  0.20911556692E+04  0.25500000000E-02 0.  1.
         -2   -1    0    0    0  501 -0.00000000000E+00 -0.00000000000E+00 -0.10308167954E+02  0.10308168270E+02  0.25500000000E-02 0. -1.
    5000001    1    1    2    0    0  0.58434567528E+02 -0.74278223841E+02  0.45484199732E+03  0.47089499439E+03  0.77000000000E+02 0.  0.
   -5000001    1    1    2    0    0 -0.58434567528E+02  0.74278223841E+02  0.16260055040E+04  0.16305688431E+04  0.77000000000E+02 0.  0.
<mgrwt>
<rscale>  0 0.29363913E+03</rscale>
<asrwt>0</asrwt>
<pdfrwt beam="1">  1        2 0.29873658E+00 0.29363913E+03</pdfrwt>
<pdfrwt beam="2">  1       -2 0.14725952E-02 0.29363913E+03</pdfrwt>
<totfact> 0.96746589E+03</totfact>
</mgrwt>
</event>
<event>
 4    1  0.5562790E-004  0.2260174E+03  0.7818608E-02  0.1129475E+00
          2   -1    0    0  501    0  0.00000000000E+00  0.00000000000E+00  0.80435811860E+03  0.80435811860E+03  0.25500000000E-02 0.  1.
         -2   -1    0    0    0  501 -0.00000000000E+00 -0.00000000000E+00 -0.15877214288E+02  0.15877214493E+02  0.25500000000E-02 0. -1.
    5000001    1    1    2    0    0  0.66385878886E+02 -0.25210389553E+02  0.54818011015E+03  0.55809773501E+03  0.77000000000E+02 0.  0.
   -5000001    1    1    2    0    0 -0.66385878886E+02  0.25210389553E+02  0.24030079416E+03  0.26213759809E+03  0.77000000000E+02 0.  0.
<mgrwt>
<rscale>  0 0.22601740E+03</rscale>
<asrwt>0</asrwt>
<pdfrwt beam="1">  1        2 0.11490831E+00 0.22601740E+03</pdfrwt>
<pdfrwt beam="2">  1       -2 0.22681734E-02 0.22601740E+03</pdfrwt>
<totfact> 0.24422006E+04</totfact>
</mgrwt>
</event>
<event>
 4    1  0.5562790E-004  0.1746456E+03  0.7818608E-02  0.1173088E+00
         -2   -1    0    0    0  501 -0.00000000000E+00  0.00000000000E+00  0.35950973495E+01  0.35950982538E+01  0.25500000000E-02 0. -1.
          2   -1    0    0  501    0  0.00000000000E+00 -0.00000000000E+00 -0.21210186898E+04  0.21210186898E+04  0.25500000000E-02 0.  1.
    5000001    1    1    2    0    0  0.18934386156E+02 -0.27206000578E+02 -0.76132282928E+03  0.76592436169E+03  0.77000000000E+02 0.  0.
   -5000001    1    1    2    0    0 -0.18934386156E+02  0.27206000578E+02 -0.13561007632E+04  0.13586894264E+04  0.77000000000E+02 0.  0.
<mgrwt>
<rscale>  0 0.17464558E+03</rscale>
<asrwt>0</asrwt>
<pdfrwt beam="1">  1        2 0.30300187E+00 0.17464558E+03</pdfrwt>
<pdfrwt beam="2">  1       -2 0.51358676E-03 0.17464558E+03</pdfrwt>
<totfact> 0.42035278E+04</totfact>
</mgrwt>
</event>
<event>
 4    1  0.5562790E-004  0.2235951E+03  0.7818608E-02  0.1131231E+00
          2   -1    0    0  501    0  0.00000000000E+00  0.00000000000E+00  0.59947716355E+02  0.59947716409E+02  0.25500000000E-02 0.  1.
         -2   -1    0    0    0  501 -0.00000000000E+00 -0.00000000000E+00 -0.20849316871E+03  0.20849316872E+03  0.25500000000E-02 0. -1.
    5000001    1    1    2    0    0  0.51575775475E+02 -0.61497552432E+02 -0.87838591108E+02  0.14172730033E+03  0.77000000000E+02 0.  0.
   -5000001    1    1    2    0    0 -0.51575775475E+02  0.61497552432E+02 -0.60706861243E+02  0.12671358480E+03  0.77000000000E+02 0.  0.
<mgrwt>
<rscale>  0 0.22359507E+03</rscale>
<asrwt>0</asrwt>
<pdfrwt beam="1">  1        2 0.85639596E-02 0.22359507E+03</pdfrwt>
<pdfrwt beam="2">  1       -2 0.29784738E-01 0.22359507E+03</pdfrwt>
<totfact> 0.79042529E+03</totfact>
</mgrwt>
</event>
<event>
 4    1  0.5562790E-004  0.2531866E+03  0.7818608E-02  0.1111307E+00
         -2   -1    0    0    0  501 -0.00000000000E+00  0.00000000000E+00  0.89167308470E+01  0.89167312116E+01  0.25500000000E-02 0. -1.
          2   -1    0    0  501    0  0.00000000000E+00 -0.00000000000E+00 -0.17972797419E+04  0.17972797419E+04  0.25500000000E-02 0.  1.
    5000001    1    1    2    0    0  0.80905848028E+02 -0.22989186583E+02 -0.12863879627E+04  0.12914322474E+04  0.77000000000E+02 0.  0.
   -5000001    1    1    2    0    0 -0.80905848028E+02  0.22989186583E+02 -0.50197504833E+03  0.51476422573E+03  0.77000000000E+02 0.  0.
<mgrwt>
<rscale>  0 0.25318657E+03</rscale>
<asrwt>0</asrwt>
<pdfrwt beam="1">  1        2 0.25675402E+00 0.25318657E+03</pdfrwt>
<pdfrwt beam="2">  1       -2 0.12738199E-02 0.25318657E+03</pdfrwt>
<totfact> 0.16580618E+04</totfact>
</mgrwt>
</event>
<event>
 4    1  0.5562790E-004  0.1611869E+03  0.7818608E-02  0.1187363E+00
          2   -1    0    0  501    0  0.00000000000E+00  0.00000000000E+00  0.10893951785E+04  0.10893951785E+04  0.25500000000E-02 0.  1.
         -2   -1    0    0    0  501 -0.00000000000E+00 -0.00000000000E+00 -0.59623000608E+01  0.59623006061E+01  0.25500000000E-02 0. -1.
    5000001    1    1    2    0    0  0.14766866393E+01 -0.22690199717E+02  0.58941899335E+03  0.59486198020E+03  0.77000000000E+02 0.  0.
   -5000001    1    1    2    0    0 -0.14766866393E+01  0.22690199717E+02  0.49401388509E+03  0.50049549891E+03  0.77000000000E+02 0.  0.
<mgrwt>
<rscale>  0 0.16118686E+03</rscale>
<asrwt>0</asrwt>
<pdfrwt beam="1">  1        2 0.15562801E+00 0.16118686E+03</pdfrwt>
<pdfrwt beam="2">  1       -2 0.85175647E-03 0.16118686E+03</pdfrwt>
<totfact> 0.66187855E+04</totfact>
</mgrwt>
</event>
<event>
 4    1  0.5562790E-004  0.2343801E+03  0.7818608E-02  0.1123594E+00
         -2   -1    0    0    0  501 -0.00000000000E+00  0.00000000000E+00  0.34122985827E+02  0.34122985922E+02  0.25500000000E-02 0. -1.
          2   -1    0    0  501    0  0.00000000000E+00 -0.00000000000E+00 -0.40247090693E+03  0.40247090694E+03  0.25500000000E-02 0.  1.
    5000001    1    1    2    0    0 -0.19443070940E+02  0.85033622250E+02 -0.21023657276E+03  0.24028559350E+03  0.77000000000E+02 0.  0.
   -5000001    1    1    2    0    0  0.19443070940E+02 -0.85033622250E+02 -0.15811134834E+03  0.19630829935E+03  0.77000000000E+02 0.  0.
<mgrwt>
<rscale>  0 0.23438011E+03</rscale>
<asrwt>0</asrwt>
<pdfrwt beam="1">  1        2 0.57495841E-01 0.23438011E+03</pdfrwt>
<pdfrwt beam="2">  1       -2 0.48747125E-02 0.23438011E+03</pdfrwt>
<totfact> 0.17178788E+04</totfact>
</mgrwt>
</event>
<event>
 4    1  0.5562790E-004  0.1749328E+03  0.7818608E-02  0.1172799E+00
         -2   -1    0    0    0  501 -0.00000000000E+00  0.00000000000E+00  0.95973639678E+02  0.95973639711E+02  0.25500000000E-02 0. -1.
          2   -1    0    0  501    0  0.00000000000E+00 -0.00000000000E+00 -0.79713226958E+02  0.79713226999E+02  0.25500000000E-02 0.  1.
    5000001    1    1    2    0    0 -0.13931344917E+02 -0.11263278527E+02 -0.29453361584E+02  0.84364947241E+02  0.77000000000E+02 0.  0.
   -5000001    1    1    2    0    0  0.13931344917E+02  0.11263278527E+02  0.45713774304E+02  0.91321919469E+02  0.77000000000E+02 0.  0.
<mgrwt>
<rscale>  0 0.17493277E+03</rscale>
<asrwt>0</asrwt>
<pdfrwt beam="1">  1        2 0.11387604E-01 0.17493277E+03</pdfrwt>
<pdfrwt beam="2">  1       -2 0.13710520E-01 0.17493277E+03</pdfrwt>
<totfact> 0.20542951E+04</totfact>
</mgrwt>
</event>
<event>
 4    1  0.5562790E-004  0.4375923E+03  0.7818608E-02  0.1031488E+00
          2   -1    0    0  501    0  0.00000000000E+00  0.00000000000E+00  0.75026202168E+03  0.75026202168E+03  0.25500000000E-02 0.  1.
         -2   -1    0    0    0  501 -0.00000000000E+00 -0.00000000000E+00 -0.63806706566E+02  0.63806706617E+02  0.25500000000E-02 0. -1.
    5000001    1    1    2    0    0 -0.76303351231E+02 -0.18310500771E+03  0.43796067052E+03  0.48691703007E+03  0.77000000000E+02 0.  0.
   -5000001    1    1    2    0    0  0.76303351231E+02  0.18310500771E+03  0.24849464460E+03  0.32715169822E+03  0.77000000000E+02 0.  0.
<mgrwt>
<rscale>  0 0.43759227E+03</rscale>
<asrwt>0</asrwt>
<pdfrwt beam="1">  1        2 0.10718029E+00 0.43759227E+03</pdfrwt>
<pdfrwt beam="2">  1       -2 0.91152435E-02 0.43759227E+03</pdfrwt>
<totfact> 0.32673517E+03</totfact>
</mgrwt>
</event>
<event>
 4    1  0.5562790E-004  0.6607357E+03  0.7818608E-02  0.9786840E-01
         -2   -1    0    0    0  501 -0.00000000000E+00  0.00000000000E+00  0.80918436408E+02  0.80918436448E+02  0.25500000000E-02 0. -1.
          2   -1    0    0  501    0  0.00000000000E+00 -0.00000000000E+00 -0.13488017719E+04  0.13488017719E+04  0.25500000000E-02 0.  1.
    5000001    1    1    2    0    0  0.29952505638E+03  0.92860854174E+02 -0.48285216353E+03  0.58087314403E+03  0.77000000000E+02 0.  0.
   -5000001    1    1    2    0    0 -0.29952505638E+03 -0.92860854174E+02 -0.78503117195E+03  0.84884706430E+03  0.77000000000E+02 0.  0.
<mgrwt>
<rscale>  0 0.66073574E+03</rscale>
<asrwt>0</asrwt>
<pdfrwt beam="1">  1        2 0.19268595E+00 0.66073574E+03</pdfrwt>
<pdfrwt beam="2">  1       -2 0.11559777E-01 0.66073574E+03</pdfrwt>
<totfact> 0.96471906E+02</totfact>
</mgrwt>
</event>
<event>
 4    1  0.5562790E-004  0.2388671E+03  0.7818608E-02  0.1120550E+00
         -2   -1    0    0    0  501 -0.00000000000E+00  0.00000000000E+00  0.66569951288E+01  0.66569956172E+01  0.25500000000E-02 0. -1.
          2   -1    0    0  501    0  0.00000000000E+00 -0.00000000000E+00 -0.21427635589E+04  0.21427635589E+04  0.25500000000E-02 0.  1.
    5000001    1    1    2    0    0 -0.68099842181E+02  0.48160728928E+02 -0.14021256965E+04  0.14067133728E+04  0.77000000000E+02 0.  0.
   -5000001    1    1    2    0    0  0.68099842181E+02 -0.48160728928E+02 -0.73398086727E+03  0.74270718176E+03  0.77000000000E+02 0.  0.
<mgrwt>
<rscale>  0 0.23886705E+03</rscale>
<asrwt>0</asrwt>
<pdfrwt beam="1">  1        2 0.30610864E+00 0.23886705E+03</pdfrwt>
<pdfrwt beam="2">  1       -2 0.95100071E-03 0.23886705E+03</pdfrwt>
<totfact> 0.17181783E+04</totfact>
</mgrwt>
</event>
<event>
 4    1  0.5562790E-004  0.2092454E+03  0.7818608E-02  0.1142165E+00
          2   -1    0    0  501    0  0.00000000000E+00  0.00000000000E+00  0.27452388938E+04  0.27452388938E+04  0.25500000000E-02 0.  1.
         -2   -1    0    0    0  501 -0.00000000000E+00 -0.00000000000E+00 -0.39872331673E+01  0.39872339827E+01  0.25500000000E-02 0. -1.
    5000001    1    1    2    0    0  0.52195005818E+02  0.30944629319E+02  0.89056260509E+03  0.89594232086E+03  0.77000000000E+02 0.  0.
   -5000001    1    1    2    0    0 -0.52195005818E+02 -0.30944629319E+02  0.18506890556E+04  0.18532838070E+04  0.77000000000E+02 0.  0.
<mgrwt>
<rscale>  0 0.20924539E+03</rscale>
<asrwt>0</asrwt>
<pdfrwt beam="1">  1        2 0.39217474E+00 0.20924539E+03</pdfrwt>
<pdfrwt beam="2">  1       -2 0.56960806E-03 0.20924539E+03</pdfrwt>
<totfact> 0.18037340E+04</totfact>
</mgrwt>
</event>
<event>
 4    1  0.5562790E-004  0.2350999E+03  0.7818608E-02  0.1123101E+00
          2   -1    0    0  501    0  0.00000000000E+00  0.00000000000E+00  0.35671314325E+03  0.35671314326E+03  0.25500000000E-02 0.  1.
         -2   -1    0    0    0  501 -0.00000000000E+00 -0.00000000000E+00 -0.38736983883E+02  0.38736983967E+02  0.25500000000E-02 0. -1.
    5000001    1    1    2    0    0 -0.72456200656E+01 -0.57692419046E+02  0.46051421500E+02  0.10691420695E+03  0.77000000000E+02 0.  0.
   -5000001    1    1    2    0    0  0.72456200656E+01  0.57692419046E+02  0.27192473787E+03  0.28853592028E+03  0.77000000000E+02 0.  0.
<mgrwt>
<rscale>  0 0.23509990E+03</rscale>
<asrwt>0</asrwt>
<pdfrwt beam="1">  1        2 0.50959021E-01 0.23509990E+03</pdfrwt>
<pdfrwt beam="2">  1       -2 0.55338548E-02 0.23509990E+03</pdfrwt>
<totfact> 0.16137855E+04</totfact>
</mgrwt>
</event>
<event>
 4    1  0.5562790E-004  0.5934938E+03  0.7818608E-02  0.9918997E-01
         -2   -1    0    0    0  501 -0.00000000000E+00  0.00000000000E+00  0.11801318411E+03  0.11801318414E+03  0.25500000000E-02 0. -1.
          2   -1    0    0  501    0  0.00000000000E+00 -0.00000000000E+00 -0.74617686635E+03  0.74617686636E+03  0.25500000000E-02 0.  1.
    5000001    1    1    2    0    0 -0.26723976163E+03 -0.85880189853E+02 -0.39819906413E+03  0.49323827090E+03  0.77000000000E+02 0.  0.
   -5000001    1    1    2    0    0  0.26723976163E+03  0.85880189853E+02 -0.22996461811E+03  0.37095177960E+03  0.77000000000E+02 0.  0.
<mgrwt>
<rscale>  0 0.59349375E+03</rscale>
<asrwt>0</asrwt>
<pdfrwt beam="1">  1        2 0.10659669E+00 0.59349375E+03</pdfrwt>
<pdfrwt beam="2">  1       -2 0.16859027E-01 0.59349375E+03</pdfrwt>
<totfact> 0.11950167E+03</totfact>
</mgrwt>
</event>
<event>
 4    1  0.5562790E-004  0.3293613E+03  0.7818608E-02  0.1071420E+00
          2   -1    0    0  501    0  0.00000000000E+00  0.00000000000E+00  0.83030862847E+03  0.83030862848E+03  0.25500000000E-02 0. -1.
         -2   -1    0    0    0  501 -0.00000000000E+00 -0.00000000000E+00 -0.32662214154E+02  0.32662214253E+02  0.25500000000E-02 0.  1.
    5000001    1    1    2    0    0 -0.95140646802E+02  0.61054703758E-01  0.11014467223E+03  0.16465902715E+03  0.77000000000E+02 0.  0.
   -5000001    1    1    2    0    0  0.95140646802E+02 -0.61054703758E-01  0.68750174209E+03  0.69831181558E+03  0.77000000000E+02 0.  0.
<mgrwt>
<rscale>  0 0.32936131E+03</rscale>
<asrwt>0</asrwt>
<pdfrwt beam="1">  1        2 0.11861553E+00 0.32936131E+03</pdfrwt>
<pdfrwt beam="2">  1       -2 0.46660302E-02 0.32936131E+03</pdfrwt>
<totfact> 0.81210173E+03</totfact>
</mgrwt>
</event>
<event>
 4    1  0.5562790E-004  0.4350248E+03  0.7818608E-02  0.1032284E+00
          2   -1    0    0  501    0  0.00000000000E+00  0.00000000000E+00  0.29869964282E+04  0.29869964282E+04  0.25500000000E-02 0.  1.
         -2   -1    0    0    0  501 -0.00000000000E+00 -0.00000000000E+00 -0.15839204841E+02  0.15839205047E+02  0.25500000000E-02 0. -1.
    5000001    1    1    2    0    0 -0.13904956450E+03  0.11757113946E+03  0.85956656729E+03  0.88200988533E+03  0.77000000000E+02 0.  0.
   -5000001    1    1    2    0    0  0.13904956450E+03 -0.11757113946E+03  0.21115906560E+04  0.21208257479E+04  0.77000000000E+02 0.  0.
<mgrwt>
<rscale>  0 0.43502482E+03</rscale>
<asrwt>0</asrwt>
<pdfrwt beam="1">  1        2 0.42671419E+00 0.43502482E+03</pdfrwt>
<pdfrwt beam="2">  1       -2 0.22627413E-02 0.43502482E+03</pdfrwt>
<totfact> 0.17863661E+03</totfact>
</mgrwt>
</event>
<event>
 4    1  0.5562790E-004  0.4240962E+03  0.7818608E-02  0.1035741E+00
         -2   -1    0    0    0  501 -0.00000000000E+00  0.00000000000E+00  0.24466622370E+03  0.24466622372E+03  0.25500000000E-02 0. -1.
          2   -1    0    0  501    0  0.00000000000E+00 -0.00000000000E+00 -0.18377854027E+03  0.18377854029E+03  0.25500000000E-02 0.  1.
    5000001    1    1    2    0    0 -0.35714078513E+02  0.16057360369E+03  0.14100097316E+03  0.22993401670E+03  0.77000000000E+02 0.  0.
   -5000001    1    1    2    0    0  0.35714078513E+02 -0.16057360369E+03 -0.80113289723E+02  0.19851074730E+03  0.77000000000E+02 0.  0.
<mgrwt>
<rscale>  0 0.42409622E+03</rscale>
<asrwt>0</asrwt>
<pdfrwt beam="1">  1        2 0.26254077E-01 0.42409622E+03</pdfrwt>
<pdfrwt beam="2">  1       -2 0.34952317E-01 0.42409622E+03</pdfrwt>
<totfact> 0.15807885E+03</totfact>
</mgrwt>
</event>
<event>
 4    1  0.5562790E-004  0.3093061E+03  0.7818608E-02  0.1080679E+00
         -2   -1    0    0    0  501 -0.00000000000E+00  0.00000000000E+00  0.30858558235E+02  0.30858558340E+02  0.25500000000E-02 0. -1.
          2   -1    0    0  501    0  0.00000000000E+00 -0.00000000000E+00 -0.77507074820E+03  0.77507074821E+03  0.25500000000E-02 0.  1.
    5000001    1    1    2    0    0 -0.68569836235E+02  0.10076122502E+03 -0.51797151412E+03  0.53765987050E+03  0.77000000000E+02 0.  0.
   -5000001    1    1    2    0    0  0.68569836235E+02 -0.10076122502E+03 -0.22624067585E+03  0.26826943605E+03  0.77000000000E+02 0.  0.
<mgrwt>
<rscale>  0 0.30930610E+03</rscale>
<asrwt>0</asrwt>
<pdfrwt beam="1">  1        2 0.11072438E+00 0.30930610E+03</pdfrwt>
<pdfrwt beam="2">  1       -2 0.44083659E-02 0.30930610E+03</pdfrwt>
<totfact> 0.96283877E+03</totfact>
</mgrwt>
</event>
<event>
 4    1  0.5562790E-004  0.1603008E+03  0.7818608E-02  0.1188358E+00
          2   -1    0    0  501    0  0.00000000000E+00  0.00000000000E+00  0.32862196224E+04  0.32862196224E+04  0.25500000000E-02 0.  1.
         -2   -1    0    0    0  501 -0.00000000000E+00 -0.00000000000E+00 -0.19548547553E+01  0.19548564185E+01  0.25500000000E-02 0. -1.
    5000001    1    1    2    0    0  0.16325552020E+01  0.18033522422E+02  0.19073805923E+04  0.19090200620E+04  0.77000000000E+02 0.  0.
   -5000001    1    1    2    0    0 -0.16325552020E+01 -0.18033522422E+02  0.13768841753E+04  0.13791544168E+04  0.77000000000E+02 0.  0.
<mgrwt>
<rscale>  0 0.16030078E+03</rscale>
<asrwt>0</asrwt>
<pdfrwt beam="1">  1        2 0.46945131E+00 0.16030078E+03</pdfrwt>
<pdfrwt beam="2">  1       -2 0.27927022E-03 0.16030078E+03</pdfrwt>
<totfact> 0.25650944E+04</totfact>
</mgrwt>
</event>
<event>
 4    1  0.5562790E-004  0.2311734E+03  0.7818608E-02  0.1125817E+00
         -2   -1    0    0    0  501 -0.00000000000E+00  0.00000000000E+00  0.40306670882E+02  0.40306670963E+02  0.25500000000E-02 0. -1.
          2   -1    0    0  501    0  0.00000000000E+00 -0.00000000000E+00 -0.33146594993E+03  0.33146594994E+03  0.25500000000E-02 0.  1.
    5000001    1    1    2    0    0 -0.53123885906E+02  0.63344560411E+02 -0.18486078619E+03  0.21664992698E+03  0.77000000000E+02 0.  0.
   -5000001    1    1    2    0    0  0.53123885906E+02 -0.63344560411E+02 -0.10629849286E+03  0.15512269393E+03  0.77000000000E+02 0.  0.
<mgrwt>
<rscale>  0 0.23117343E+03</rscale>
<asrwt>0</asrwt>
<pdfrwt beam="1">  1        2 0.47352277E-01 0.23117343E+03</pdfrwt>
<pdfrwt beam="2">  1       -2 0.57580960E-02 0.23117343E+03</pdfrwt>
<totfact> 0.16416993E+04</totfact>
</mgrwt>
</event>
<event>
 4    1  0.5562790E-004  0.2139727E+03  0.7818608E-02  0.1138458E+00
          2   -1    0    0  501    0  0.00000000000E+00  0.00000000000E+00  0.31193802133E+04  0.31193802133E+04  0.25500000000E-02 0.  1.
         -2   -1    0    0    0  501 -0.00000000000E+00 -0.00000000000E+00 -0.36693430677E+01  0.36693439537E+01  0.25500000000E-02 0. -1.
    5000001    1    1    2    0    0  0.14333281909E+02 -0.47824050463E+02  0.75516708967E+03  0.76072262756E+03  0.77000000000E+02 0.  0.
   -5000001    1    1    2    0    0 -0.14333281909E+02  0.47824050463E+02  0.23605437806E+04  0.23623269297E+04  0.77000000000E+02 0.  0.
<mgrwt>
<rscale>  0 0.21397269E+03</rscale>
<asrwt>0</asrwt>
<pdfrwt beam="1">  1        2 0.44562401E+00 0.21397269E+03</pdfrwt>
<pdfrwt beam="2">  1       -2 0.52419398E-03 0.21397269E+03</pdfrwt>
<totfact> 0.12978605E+04</totfact>
</mgrwt>
</event>
<event>
 4    1  0.5562790E-004  0.2671344E+03  0.7818608E-02  0.1102931E+00
          2   -1    0    0  501    0  0.00000000000E+00  0.00000000000E+00  0.13411223412E+02  0.13411223654E+02  0.25500000000E-02 0.  1.
         -2   -1    0    0    0  501 -0.00000000000E+00 -0.00000000000E+00 -0.13302440949E+04  0.13302440949E+04  0.25500000000E-02 0. -1.
    5000001    1    1    2    0    0 -0.66261440247E+02 -0.86720763529E+02 -0.66024127212E+03  0.67361606773E+03  0.77000000000E+02 0.  0.
   -5000001    1    1    2    0    0  0.66261440247E+02  0.86720763529E+02 -0.65659159940E+03  0.67003925086E+03  0.77000000000E+02 0.  0.
<mgrwt>
<rscale>  0 0.26713443E+03</rscale>
<asrwt>0</asrwt>
<pdfrwt beam="1">  1        2 0.19158899E-02 0.26713443E+03</pdfrwt>
<pdfrwt beam="2">  1       -2 0.19003479E+00 0.26713443E+03</pdfrwt>
<totfact> 0.97105284E+02</totfact>
</mgrwt>
</event>
<event>
 4    1  0.5562790E-004  0.3116053E+03  0.7818608E-02  0.1079579E+00
         -2   -1    0    0    0  501 -0.00000000000E+00  0.00000000000E+00  0.11193285562E+02  0.11193285852E+02  0.25500000000E-02 0. -1.
          2   -1    0    0  501    0  0.00000000000E+00 -0.00000000000E+00 -0.21686634349E+04  0.21686634349E+04  0.25500000000E-02 0.  1.
    5000001    1    1    2    0    0  0.13189112648E+03 -0.14723616924E+02 -0.12681865802E+04  0.12774342474E+04  0.77000000000E+02 0.  0.
   -5000001    1    1    2    0    0 -0.13189112648E+03  0.14723616924E+02 -0.88928356917E+03  0.90242247342E+03  0.77000000000E+02 0.  0.
<mgrwt>
<rscale>  0 0.31160532E+03</rscale>
<asrwt>0</asrwt>
<pdfrwt beam="1">  1        2 0.30980879E+00 0.31160532E+03</pdfrwt>
<pdfrwt beam="2">  1       -2 0.15990422E-02 0.31160532E+03</pdfrwt>
<totfact> 0.78592062E+03</totfact>
</mgrwt>
</event>
<event>
 4    1  0.5562790E-004  0.2201097E+03  0.7818608E-02  0.1133801E+00
         -2   -1    0    0    0  501 -0.00000000000E+00  0.00000000000E+00  0.21966048949E+03  0.21966048951E+03  0.25500000000E-02 0. -1.
          2   -1    0    0  501    0  0.00000000000E+00 -0.00000000000E+00 -0.55139952536E+02  0.55139952595E+02  0.25500000000E-02 0.  1.
    5000001    1    1    2    0    0 -0.70004401835E+02  0.31341663704E+02  0.60630619375E+02  0.12445074594E+03  0.77000000000E+02 0.  0.
   -5000001    1    1    2    0    0  0.70004401835E+02 -0.31341663704E+02  0.10388991758E+03  0.15034969616E+03  0.77000000000E+02 0.  0.
<mgrwt>
<rscale>  0 0.22010969E+03</rscale>
<asrwt>0</asrwt>
<pdfrwt beam="1">  1        2 0.78771360E-02 0.22010969E+03</pdfrwt>
<pdfrwt beam="2">  1       -2 0.31380070E-01 0.22010969E+03</pdfrwt>
<totfact> 0.79830820E+03</totfact>
</mgrwt>
</event>
<event>
 4    1  0.5562790E-004  0.3083373E+03  0.7818608E-02  0.1081146E+00
          2   -1    0    0  501    0  0.00000000000E+00  0.00000000000E+00  0.20010912973E+04  0.20010912973E+04  0.25500000000E-02 0.  1.
         -2   -1    0    0    0  501 -0.00000000000E+00 -0.00000000000E+00 -0.11877502337E+02  0.11877502611E+02  0.25500000000E-02 0. -1.
    5000001    1    1    2    0    0  0.71252358320E+02  0.11224142127E+03  0.91101919282E+03  0.92388311214E+03  0.77000000000E+02 0.  0.
   -5000001    1    1    2    0    0 -0.71252358320E+02 -0.11224142127E+03  0.10781946021E+04  0.10890856877E+04  0.77000000000E+02 0.  0.
<mgrwt>
<rscale>  0 0.30833726E+03</rscale>
<asrwt>0</asrwt>
<pdfrwt beam="1">  1        2 0.28587051E+00 0.30833726E+03</pdfrwt>
<pdfrwt beam="2">  1       -2 0.16967841E-02 0.30833726E+03</pdfrwt>
<totfact> 0.87015314E+03</totfact>
</mgrwt>
</event>
<event>
 4    1  0.5562790E-004  0.2624359E+03  0.7818608E-02  0.1105688E+00
         -2   -1    0    0    0  501 -0.00000000000E+00  0.00000000000E+00  0.58777502936E+02  0.58777502992E+02  0.25500000000E-02 0. -1.
          2   -1    0    0  501    0  0.00000000000E+00 -0.00000000000E+00 -0.29293769298E+03  0.29293769299E+03  0.25500000000E-02 0.  1.
    5000001    1    1    2    0    0  0.96919359461E+02  0.24291618610E+02 -0.16550734809E+03  0.20809884009E+03  0.77000000000E+02 0.  0.
   -5000001    1    1    2    0    0 -0.96919359461E+02 -0.24291618610E+02 -0.68652841953E+02  0.14361635590E+03  0.77000000000E+02 0.  0.
<mgrwt>
<rscale>  0 0.26243587E+03</rscale>
<asrwt>0</asrwt>
<pdfrwt beam="1">  1        2 0.41848241E-01 0.26243587E+03</pdfrwt>
<pdfrwt beam="2">  1       -2 0.83967863E-02 0.26243587E+03</pdfrwt>
<totfact> 0.10534696E+04</totfact>
</mgrwt>
</event>
<event>
 4    1  0.5562790E-004  0.2594744E+03  0.7818608E-02  0.1107459E+00
         -2   -1    0    0    0  501 -0.00000000000E+00  0.00000000000E+00  0.49595791939E+01  0.49595798495E+01  0.25500000000E-02 0. -1.
          2   -1    0    0  501    0  0.00000000000E+00 -0.00000000000E+00 -0.33937838258E+04  0.33937838258E+04  0.25500000000E-02 0.  1.
    5000001    1    1    2    0    0  0.81532835396E+02  0.20187647767E+02 -0.88192100897E+03  0.88925182622E+03  0.77000000000E+02 0.  0.
   -5000001    1    1    2    0    0 -0.81532835396E+02 -0.20187647767E+02 -0.25069032376E+04  0.25094915794E+04  0.77000000000E+02 0.  0.
<mgrwt>
<rscale>  0 0.25947440E+03</rscale>
<asrwt>0</asrwt>
<pdfrwt beam="1">  1        2 0.48482477E+00 0.25947440E+03</pdfrwt>
<pdfrwt beam="2">  1       -2 0.70851353E-03 0.25947440E+03</pdfrwt>
<totfact> 0.59413793E+03</totfact>
</mgrwt>
</event>
<event>
 4    1  0.5562790E-004  0.2901268E+03  0.7818608E-02  0.1090283E+00
          2   -1    0    0  501    0  0.00000000000E+00  0.00000000000E+00  0.30386762752E+03  0.30386762753E+03  0.25500000000E-02 0.  1.
         -2   -1    0    0    0  501 -0.00000000000E+00 -0.00000000000E+00 -0.69251849209E+02  0.69251849256E+02  0.25500000000E-02 0. -1.
    5000001    1    1    2    0    0  0.40949026118E+02 -0.10941173307E+03  0.16655973716E+03  0.21752906959E+03  0.77000000000E+02 0.  0.
   -5000001    1    1    2    0    0 -0.40949026118E+02  0.10941173307E+03  0.68056041143E+02  0.15559040719E+03  0.77000000000E+02 0.  0.
<mgrwt>
<rscale>  0 0.29012684E+03</rscale>
<asrwt>0</asrwt>
<pdfrwt beam="1">  1        2 0.43409661E-01 0.29012684E+03</pdfrwt>
<pdfrwt beam="2">  1       -2 0.98931213E-02 0.29012684E+03</pdfrwt>
<totfact> 0.78516550E+03</totfact>
</mgrwt>
</event>
<event>
 4    1  0.5562790E-004  0.1846566E+03  0.7818608E-02  0.1163371E+00
          2   -1    0    0  501    0  0.00000000000E+00  0.00000000000E+00  0.10438054706E+04  0.10438054706E+04  0.25500000000E-02 0.  1.
         -2   -1    0    0    0  501 -0.00000000000E+00 -0.00000000000E+00 -0.81667616159E+01  0.81667620140E+01  0.25500000000E-02 0. -1.
    5000001    1    1    2    0    0  0.89576517811E+01 -0.49989304223E+02  0.54084827414E+03  0.54865747576E+03  0.77000000000E+02 0.  0.
   -5000001    1    1    2    0    0 -0.89576517811E+01  0.49989304223E+02  0.49479043488E+03  0.50331475690E+03  0.77000000000E+02 0.  0.
<mgrwt>
<rscale>  0 0.18465655E+03</rscale>
<asrwt>0</asrwt>
<pdfrwt beam="1">  1        2 0.14911507E+00 0.18465655E+03</pdfrwt>
<pdfrwt beam="2">  1       -2 0.11666802E-02 0.18465655E+03</pdfrwt>
<totfact> 0.45206609E+04</totfact>
</mgrwt>
</event>
<event>
 4    1  0.5562790E-004  0.3482291E+03  0.7818608E-02  0.1063344E+00
          2   -1    0    0  501    0  0.00000000000E+00  0.00000000000E+00  0.71141858983E+03  0.71141858983E+03  0.25500000000E-02 0.  1.
         -2   -1    0    0    0  501 -0.00000000000E+00 -0.00000000000E+00 -0.42613264319E+02  0.42613264395E+02  0.25500000000E-02 0. -1.
    5000001    1    1    2    0    0 -0.14303571637E+03 -0.48897314534E+02  0.24951981711E+03  0.30172719907E+03  0.77000000000E+02 0.  0.
   -5000001    1    1    2    0    0  0.14303571637E+03  0.48897314534E+02  0.41928550840E+03  0.45230465516E+03  0.77000000000E+02 0.  0.
<mgrwt>
<rscale>  0 0.34822905E+03</rscale>
<asrwt>0</asrwt>
<pdfrwt beam="1">  1        2 0.10163122E+00 0.34822905E+03</pdfrwt>
<pdfrwt beam="2">  1       -2 0.60876099E-02 0.34822905E+03</pdfrwt>
<totfact> 0.65445722E+03</totfact>
</mgrwt>
</event>
<event>
 4    1  0.5562790E-004  0.3326737E+03  0.7818608E-02  0.1069960E+00
          2   -1    0    0  501    0  0.00000000000E+00  0.00000000000E+00  0.18615271023E+04  0.18615271023E+04  0.25500000000E-02 0.  1.
         -2   -1    0    0    0  501 -0.00000000000E+00 -0.00000000000E+00 -0.14863034949E+02  0.14863035167E+02  0.25500000000E-02 0. -1.
    5000001    1    1    2    0    0 -0.14681661829E+03  0.13430116779E+02  0.91284777176E+03  0.92787690016E+03  0.77000000000E+02 0.  0.
   -5000001    1    1    2    0    0  0.14681661829E+03 -0.13430116779E+02  0.93381629563E+03  0.94851323734E+03  0.77000000000E+02 0.  0.
<mgrwt>
<rscale>  0 0.33267367E+03</rscale>
<asrwt>0</asrwt>
<pdfrwt beam="1">  1        2 0.26593254E+00 0.33267367E+03</pdfrwt>
<pdfrwt beam="2">  1       -2 0.21232900E-02 0.33267367E+03</pdfrwt>
<totfact> 0.73217857E+03</totfact>
</mgrwt>
</event>
<event>
 4    1  0.5562790E-004  0.1840222E+03  0.7818608E-02  0.1163966E+00
          2   -1    0    0  501    0  0.00000000000E+00  0.00000000000E+00  0.89702084063E+02  0.89702084100E+02  0.25500000000E-02 0.  1.
         -2   -1    0    0    0  501 -0.00000000000E+00 -0.00000000000E+00 -0.94379508653E+02  0.94379508687E+02  0.25500000000E-02 0. -1.
    5000001    1    1    2    0    0 -0.47680449048E+02  0.10307028033E+02 -0.14887825945E+02  0.92359663326E+02  0.77000000000E+02 0.  0.
   -5000001    1    1    2    0    0  0.47680449048E+02 -0.10307028033E+02  0.10210401356E+02  0.91721929461E+02  0.77000000000E+02 0.  0.
<mgrwt>
<rscale>  0 0.18402216E+03</rscale>
<asrwt>0</asrwt>
<pdfrwt beam="1">  1        2 0.12814583E-01 0.18402216E+03</pdfrwt>
<pdfrwt beam="2">  1       -2 0.13482787E-01 0.18402216E+03</pdfrwt>
<totfact> 0.18384055E+04</totfact>
</mgrwt>
</event>
<event>
 4    1  0.5562790E-004  0.3127489E+03  0.7818608E-02  0.1079036E+00
         -2   -1    0    0    0  501 -0.00000000000E+00  0.00000000000E+00  0.22390895359E+02  0.22390895504E+02  0.25500000000E-02 0. -1.
          2   -1    0    0  501    0  0.00000000000E+00 -0.00000000000E+00 -0.10920941571E+04  0.10920941571E+04  0.25500000000E-02 0.  1.
    5000001    1    1    2    0    0 -0.16703670187E+02 -0.12263333986E+03 -0.33307938895E+03  0.36357781559E+03  0.77000000000E+02 0.  0.
   -5000001    1    1    2    0    0  0.16703670187E+02  0.12263333986E+03 -0.73662387284E+03  0.75090723706E+03  0.77000000000E+02 0.  0.
<mgrwt>
<rscale>  0 0.31274888E+03</rscale>
<asrwt>0</asrwt>
<pdfrwt beam="1">  1        2 0.15601342E+00 0.31274888E+03</pdfrwt>
<pdfrwt beam="2">  1       -2 0.31987000E-02 0.31274888E+03</pdfrwt>
<totfact> 0.99286895E+03</totfact>
</mgrwt>
</event>
<event>
 4    1  0.5562790E-004  0.1813731E+03  0.7818608E-02  0.1166481E+00
         -2   -1    0    0    0  501 -0.00000000000E+00  0.00000000000E+00  0.13175429589E+03  0.13175429591E+03  0.25500000000E-02 0. -1.
          2   -1    0    0  501    0  0.00000000000E+00 -0.00000000000E+00 -0.62419618591E+02  0.62419618643E+02  0.25500000000E-02 0.  1.
    5000001    1    1    2    0    0  0.19395837101E+02 -0.43731634169E+02  0.31959269405E+02  0.96119973080E+02  0.77000000000E+02 0.  0.
   -5000001    1    1    2    0    0 -0.19395837101E+02  0.43731634169E+02  0.37375407892E+02  0.98053941476E+02  0.77000000000E+02 0.  0.
<mgrwt>
<rscale>  0 0.18137313E+03</rscale>
<asrwt>0</asrwt>
<pdfrwt beam="1">  1        2 0.89170885E-02 0.18137313E+03</pdfrwt>
<pdfrwt beam="2">  1       -2 0.18822042E-01 0.18137313E+03</pdfrwt>
<totfact> 0.16489545E+04</totfact>
</mgrwt>
</event>
<event>
 4    1  0.5562790E-004  0.2333602E+03  0.7818608E-02  0.1124297E+00
         -2   -1    0    0    0  501 -0.00000000000E+00  0.00000000000E+00  0.10987141578E+03  0.10987141581E+03  0.25500000000E-02 0. -1.
          2   -1    0    0  501    0  0.00000000000E+00 -0.00000000000E+00 -0.12391066844E+03  0.12391066847E+03  0.25500000000E-02 0.  1.
    5000001    1    1    2    0    0  0.61753436157E+02  0.60251180599E+02 -0.22589571580E+02  0.11782605987E+03  0.77000000000E+02 0.  0.
   -5000001    1    1    2    0    0 -0.61753436157E+02 -0.60251180599E+02  0.85503189162E+01  0.11595602440E+03  0.77000000000E+02 0.  0.
<mgrwt>
<rscale>  0 0.23336016E+03</rscale>
<asrwt>0</asrwt>
<pdfrwt beam="1">  1        2 0.17701524E-01 0.23336016E+03</pdfrwt>
<pdfrwt beam="2">  1       -2 0.15695917E-01 0.23336016E+03</pdfrwt>
<totfact> 0.99506883E+03</totfact>
</mgrwt>
</event>
<event>
 4    1  0.5562790E-004  0.3050934E+03  0.7818608E-02  0.1082722E+00
          2   -1    0    0  501    0  0.00000000000E+00  0.00000000000E+00  0.70255798408E+03  0.70255798408E+03  0.25500000000E-02 0.  1.
         -2   -1    0    0    0  501 -0.00000000000E+00 -0.00000000000E+00 -0.33122517346E+02  0.33122517444E+02  0.25500000000E-02 0. -1.
    5000001    1    1    2    0    0 -0.10843138434E+03 -0.72840501429E+02  0.29448499074E+03  0.33123030285E+03  0.77000000000E+02 0.  0.
   -5000001    1    1    2    0    0  0.10843138434E+03  0.72840501429E+02  0.37495047599E+03  0.40445019867E+03  0.77000000000E+02 0.  0.
<mgrwt>
<rscale>  0 0.30509336E+03</rscale>
<asrwt>0</asrwt>
<pdfrwt beam="1">  1        2 0.10036542E+00 0.30509336E+03</pdfrwt>
<pdfrwt beam="2">  1       -2 0.47317886E-02 0.30509336E+03</pdfrwt>
<totfact> 0.97356470E+03</totfact>
</mgrwt>
</event>
<event>
 4    1  0.5562790E-004  0.2978468E+03  0.7818608E-02  0.1086322E+00
         -2   -1    0    0    0  501 -0.00000000000E+00  0.00000000000E+00  0.11782850773E+02  0.11782851048E+02  0.25500000000E-02 0. -1.
          2   -1    0    0  501    0  0.00000000000E+00 -0.00000000000E+00 -0.18822417853E+04  0.18822417853E+04  0.25500000000E-02 0.  1.
    5000001    1    1    2    0    0 -0.12202343569E+03  0.34338019892E+01 -0.70178497980E+03  0.71647237751E+03  0.77000000000E+02 0.  0.
   -5000001    1    1    2    0    0  0.12202343569E+03 -0.34338019892E+01 -0.11686739547E+04  0.11775522588E+04  0.77000000000E+02 0.  0.
<mgrwt>
<rscale>  0 0.29784677E+03</rscale>
<asrwt>0</asrwt>
<pdfrwt beam="1">  1        2 0.26889149E+00 0.29784677E+03</pdfrwt>
<pdfrwt beam="2">  1       -2 0.16832656E-02 0.29784677E+03</pdfrwt>
<totfact> 0.10062344E+04</totfact>
</mgrwt>
</event>
<event>
 4    1  0.5562790E-004  0.3269774E+03  0.7818608E-02  0.1072482E+00
         -2   -1    0    0    0  501 -0.00000000000E+00  0.00000000000E+00  0.33269953105E+02  0.33269953202E+02  0.25500000000E-02 0. -1.
          2   -1    0    0  501    0  0.00000000000E+00 -0.00000000000E+00 -0.80338443464E+03  0.80338443464E+03  0.25500000000E-02 0.  1.
    5000001    1    1    2    0    0 -0.13842767384E+03  0.40306757047E+02 -0.37593610097E+03  0.40993146691E+03  0.77000000000E+02 0.  0.
   -5000001    1    1    2    0    0  0.13842767384E+03 -0.40306757047E+02 -0.39417838056E+03  0.42672292094E+03  0.77000000000E+02 0.  0.
<mgrwt>
<rscale>  0 0.32697745E+03</rscale>
<asrwt>0</asrwt>
<pdfrwt beam="1">  1        2 0.11476919E+00 0.32697745E+03</pdfrwt>
<pdfrwt beam="2">  1       -2 0.47528509E-02 0.32697745E+03</pdfrwt>
<totfact> 0.82285060E+03</totfact>
</mgrwt>
</event>
<event>
 4    1  0.5562790E-004  0.2445155E+03  0.7818608E-02  0.1116821E+00
         -2   -1    0    0    0  501 -0.00000000000E+00  0.00000000000E+00  0.11964173137E+02  0.11964173409E+02  0.25500000000E-02 0. -1.
          2   -1    0    0  501    0  0.00000000000E+00 -0.00000000000E+00 -0.12493100332E+04  0.12493100332E+04  0.25500000000E-02 0.  1.
    5000001    1    1    2    0    0  0.90104315688E+02 -0.13883582752E+02 -0.75577202657E+03  0.76513521532E+03  0.77000000000E+02 0.  0.
   -5000001    1    1    2    0    0 -0.90104315688E+02  0.13883582752E+02 -0.48157383348E+03  0.49613899128E+03  0.77000000000E+02 0.  0.
<mgrwt>
<rscale>  0 0.24451553E+03</rscale>
<asrwt>0</asrwt>
<pdfrwt beam="1">  1        2 0.17847278E+00 0.24451553E+03</pdfrwt>
<pdfrwt beam="2">  1       -2 0.17091684E-02 0.24451553E+03</pdfrwt>
<totfact> 0.20377501E+04</totfact>
</mgrwt>
</event>
<event>
 4    1  0.5562790E-004  0.3316303E+03  0.7818608E-02  0.1070418E+00
         -2   -1    0    0    0  501 -0.00000000000E+00  0.00000000000E+00  0.28007683124E+02  0.28007683240E+02  0.25500000000E-02 0. -1.
          2   -1    0    0  501    0  0.00000000000E+00 -0.00000000000E+00 -0.98168301055E+03  0.98168301055E+03  0.25500000000E-02 0.  1.
    5000001    1    1    2    0    0  0.42205962618E+02 -0.10259178237E+03 -0.18386842348E+03  0.22812938049E+03  0.77000000000E+02 0.  0.
   -5000001    1    1    2    0    0 -0.42205962618E+02  0.10259178237E+03 -0.76980690394E+03  0.78156131330E+03  0.77000000000E+02 0.  0.
<mgrwt>
<rscale>  0 0.33163032E+03</rscale>
<asrwt>0</asrwt>
<pdfrwt beam="1">  1        2 0.14024041E+00 0.33163032E+03</pdfrwt>
<pdfrwt beam="2">  1       -2 0.40010982E-02 0.33163032E+03</pdfrwt>
<totfact> 0.82371369E+03</totfact>
</mgrwt>
</event>
<event>
 4    1  0.5562790E-004  0.3727100E+03  0.7818608E-02  0.1053662E+00
          2   -1    0    0  501    0  0.00000000000E+00  0.00000000000E+00  0.26203106729E+04  0.26203106729E+04  0.25500000000E-02 0.  1.
         -2   -1    0    0    0  501 -0.00000000000E+00 -0.00000000000E+00 -0.13253459039E+02  0.13253459285E+02  0.25500000000E-02 0. -1.
    5000001    1    1    2    0    0  0.71977044773E+02  0.10447872093E+03  0.20999090893E+04  0.21051469501E+04  0.77000000000E+02 0.  0.
   -5000001    1    1    2    0    0 -0.71977044773E+02 -0.10447872093E+03  0.50714812462E+03  0.52841718217E+03  0.77000000000E+02 0.  0.
<mgrwt>
<rscale>  0 0.37270997E+03</rscale>
<asrwt>0</asrwt>
<pdfrwt beam="1">  1        2 0.37433028E+00 0.37270997E+03</pdfrwt>
<pdfrwt beam="2">  1       -2 0.18933504E-02 0.37270997E+03</pdfrwt>
<totfact> 0.36387831E+03</totfact>
</mgrwt>
</event>
<event>
 4    1  0.5562790E-004  0.1653367E+03  0.7818608E-02  0.1182800E+00
          2   -1    0    0  501    0  0.00000000000E+00  0.00000000000E+00  0.19272746871E+03  0.19272746873E+03  0.25500000000E-02 0.  1.
         -2   -1    0    0    0  501 -0.00000000000E+00 -0.00000000000E+00 -0.35459706045E+02  0.35459706137E+02  0.25500000000E-02 0. -1.
    5000001    1    1    2    0    0 -0.11929738906E+02  0.17451189281E+02  0.10817642255E+03  0.13445445725E+03  0.77000000000E+02 0.  0.
   -5000001    1    1    2    0    0  0.11929738906E+02 -0.17451189281E+02  0.49091340113E+02  0.93732717617E+02  0.77000000000E+02 0.  0.
<mgrwt>
<rscale>  0 0.16533674E+03</rscale>
<asrwt>0</asrwt>
<pdfrwt beam="1">  1        2 0.27532495E-01 0.16533674E+03</pdfrwt>
<pdfrwt beam="2">  1       -2 0.50656723E-02 0.16533674E+03</pdfrwt>
<totfact> 0.34845105E+04</totfact>
</mgrwt>
</event>
<event>
 4    1  0.5562790E-004  0.3478649E+03  0.7818608E-02  0.1063495E+00
         -2   -1    0    0    0  501 -0.00000000000E+00  0.00000000000E+00  0.11818408940E+02  0.11818409215E+02  0.25500000000E-02 0. -1.
          2   -1    0    0  501    0  0.00000000000E+00 -0.00000000000E+00 -0.25597775558E+04  0.25597775558E+04  0.25500000000E-02 0.  1.
    5000001    1    1    2    0    0 -0.45221755449E+02 -0.14863380278E+03 -0.11730280948E+04  0.11857743991E+04  0.77000000000E+02 0.  0.
   -5000001    1    1    2    0    0  0.45221755449E+02  0.14863380278E+03 -0.13749310521E+04  0.13858215659E+04  0.77000000000E+02 0.  0.
<mgrwt>
<rscale>  0 0.34786491E+03</rscale>
<asrwt>0</asrwt>
<pdfrwt beam="1">  1        2 0.36568215E+00 0.34786491E+03</pdfrwt>
<pdfrwt beam="2">  1       -2 0.16883458E-02 0.34786491E+03</pdfrwt>
<totfact> 0.46322355E+03</totfact>
</mgrwt>
</event>
<event>
 4    1  0.5562790E-004  0.2068433E+03  0.7818608E-02  0.1144090E+00
          2   -1    0    0  501    0  0.00000000000E+00  0.00000000000E+00  0.22294416101E+04  0.22294416101E+04  0.25500000000E-02 0.  1.
         -2   -1    0    0    0  501 -0.00000000000E+00 -0.00000000000E+00 -0.47976285926E+01  0.47976292703E+01  0.25500000000E-02 0. -1.
    5000001    1    1    2    0    0 -0.38719743775E+02 -0.57124260598E+02  0.10890700061E+04  0.10939674940E+04  0.77000000000E+02 0.  0.
   -5000001    1    1    2    0    0  0.38719743775E+02  0.57124260598E+02  0.11355739753E+04  0.11402717453E+04  0.77000000000E+02 0.  0.
<mgrwt>
<rscale>  0 0.20684326E+03</rscale>
<asrwt>0</asrwt>
<pdfrwt beam="1">  1        2 0.31849171E+00 0.20684326E+03</pdfrwt>
<pdfrwt beam="2">  1       -2 0.68537545E-03 0.20684326E+03</pdfrwt>
<totfact> 0.24877763E+04</totfact>
</mgrwt>
</event>
<event>
 4    1  0.5562790E-004  0.1782593E+03  0.7818608E-02  0.1169498E+00
         -2   -1    0    0    0  501 -0.00000000000E+00  0.00000000000E+00  0.29137665027E+01  0.29137676185E+01  0.25500000000E-02 0. -1.
          2   -1    0    0  501    0  0.00000000000E+00 -0.00000000000E+00 -0.27264006349E+04  0.27264006349E+04  0.25500000000E-02 0.  1.
    5000001    1    1    2    0    0  0.42010320346E+02 -0.11976528422E+02 -0.15199669098E+04  0.15225428438E+04  0.77000000000E+02 0.  0.
   -5000001    1    1    2    0    0 -0.42010320346E+02  0.11976528422E+02 -0.12035199586E+04  0.12067715587E+04  0.77000000000E+02 0.  0.
<mgrwt>
<rscale>  0 0.17825932E+03</rscale>
<asrwt>0</asrwt>
<pdfrwt beam="1">  1        2 0.38948417E+00 0.17825932E+03</pdfrwt>
<pdfrwt beam="2">  1       -2 0.41625418E-03 0.17825932E+03</pdfrwt>
<totfact> 0.28696674E+04</totfact>
</mgrwt>
</event>
<event>
 4    1  0.5562790E-004  0.2768050E+03  0.7818608E-02  0.1097447E+00
          2   -1    0    0  501    0  0.00000000000E+00  0.00000000000E+00  0.52881442224E+03  0.52881442225E+03  0.25500000000E-02 0.  1.
         -2   -1    0    0    0  501 -0.00000000000E+00 -0.00000000000E+00 -0.36223018099E+02  0.36223018188E+02  0.25500000000E-02 0. -1.
    5000001    1    1    2    0    0  0.48187537117E+01  0.11403399399E+03  0.27511195898E+03  0.30764031294E+03  0.77000000000E+02 0.  0.
   -5000001    1    1    2    0    0 -0.48187537117E+01 -0.11403399399E+03  0.21747944517E+03  0.25739712750E+03  0.77000000000E+02 0.  0.
<mgrwt>
<rscale>  0 0.27680502E+03</rscale>
<asrwt>0</asrwt>
<pdfrwt beam="1">  1        2 0.75544908E-01 0.27680502E+03</pdfrwt>
<pdfrwt beam="2">  1       -2 0.51747175E-02 0.27680502E+03</pdfrwt>
<totfact> 0.11737988E+04</totfact>
</mgrwt>
</event>
<event>
 4    1  0.5562790E-004  0.2748851E+03  0.7818608E-02  0.1098516E+00
         -2   -1    0    0    0  501 -0.00000000000E+00  0.00000000000E+00  0.21735543286E+02  0.21735543435E+02  0.25500000000E-02 0. -1.
          2   -1    0    0  501    0  0.00000000000E+00 -0.00000000000E+00 -0.86910456221E+03  0.86910456222E+03  0.25500000000E-02 0.  1.
    5000001    1    1    2    0    0  0.66656943118E+02 -0.89620816419E+02 -0.49515959794E+03  0.51340731026E+03  0.77000000000E+02 0.  0.
   -5000001    1    1    2    0    0 -0.66656943118E+02  0.89620816419E+02 -0.35220942099E+03  0.37743279539E+03  0.77000000000E+02 0.  0.
<mgrwt>
<rscale>  0 0.27488514E+03</rscale>
<asrwt>0</asrwt>
<pdfrwt beam="1">  1        2 0.12415777E+00 0.27488514E+03</pdfrwt>
<pdfrwt beam="2">  1       -2 0.31050782E-02 0.27488514E+03</pdfrwt>
<totfact> 0.14061962E+04</totfact>
</mgrwt>
</event>
<event>
 4    1  0.5562790E-004  0.2422393E+03  0.7818608E-02  0.1118310E+00
          2   -1    0    0  501    0  0.00000000000E+00  0.00000000000E+00  0.31855744585E+04  0.31855744585E+04  0.25500000000E-02 0.  1.
         -2   -1    0    0    0  501 -0.00000000000E+00 -0.00000000000E+00 -0.46051268636E+01  0.46051275696E+01  0.25500000000E-02 0. -1.
    5000001    1    1    2    0    0  0.45958643094E+02  0.79140654096E+02  0.18422728242E+04  0.18461510227E+04  0.77000000000E+02 0.  0.
   -5000001    1    1    2    0    0 -0.45958643094E+02 -0.79140654096E+02  0.13386965074E+04  0.13440285633E+04  0.77000000000E+02 0.  0.
<mgrwt>
<rscale>  0 0.24223935E+03</rscale>
<asrwt>0</asrwt>
<pdfrwt beam="1">  1        2 0.45508123E+00 0.24223935E+03</pdfrwt>
<pdfrwt beam="2">  1       -2 0.65787653E-03 0.24223935E+03</pdfrwt>
<totfact> 0.86312897E+03</totfact>
</mgrwt>
</event>
<event>
 4    1  0.5562790E-004  0.5757925E+03  0.7818608E-02  0.9956942E-01
         -2   -1    0    0    0  501 -0.00000000000E+00  0.00000000000E+00  0.13318718765E+03  0.13318718767E+03  0.25500000000E-02 0. -1.
          2   -1    0    0  501    0  0.00000000000E+00 -0.00000000000E+00 -0.62231391153E+03  0.62231391153E+03  0.25500000000E-02 0.  1.
    5000001    1    1    2    0    0  0.11957960950E+03  0.25029584189E+03 -0.24826253603E+03  0.38014546988E+03  0.77000000000E+02 0.  0.
   -5000001    1    1    2    0    0 -0.11957960950E+03 -0.25029584189E+03 -0.24086418785E+03  0.37535562932E+03  0.77000000000E+02 0.  0.
<mgrwt>
<rscale>  0 0.57579246E+03</rscale>
<asrwt>0</asrwt>
<pdfrwt beam="1">  1        2 0.88901986E-01 0.57579246E+03</pdfrwt>
<pdfrwt beam="2">  1       -2 0.19026741E-01 0.57579246E+03</pdfrwt>
<totfact> 0.12106406E+03</totfact>
</mgrwt>
</event>
<event>
 4    1  0.5562790E-004  0.1922253E+03  0.7818608E-02  0.1156469E+00
          2   -1    0    0  501    0  0.00000000000E+00  0.00000000000E+00  0.35305240974E+02  0.35305241066E+02  0.25500000000E-02 0.  1.
         -2   -1    0    0    0  501 -0.00000000000E+00 -0.00000000000E+00 -0.26165076326E+03  0.26165076327E+03  0.25500000000E-02 0. -1.
    5000001    1    1    2    0    0 -0.54904197060E+02 -0.17126413226E+02 -0.11174149329E+03  0.14738706255E+03  0.77000000000E+02 0.  0.
   -5000001    1    1    2    0    0  0.54904197060E+02  0.17126413226E+02 -0.11460402899E+03  0.14956894179E+03  0.77000000000E+02 0.  0.
<mgrwt>
<rscale>  0 0.19222532E+03</rscale>
<asrwt>0</asrwt>
<pdfrwt beam="1">  1        2 0.50436060E-02 0.19222532E+03</pdfrwt>
<pdfrwt beam="2">  1       -2 0.37378679E-01 0.19222532E+03</pdfrwt>
<totfact> 0.10183625E+04</totfact>
</mgrwt>
</event>
<event>
 4    1  0.5562790E-004  0.2150233E+03  0.7818608E-02  0.1137649E+00
         -2   -1    0    0    0  501 -0.00000000000E+00  0.00000000000E+00  0.73371194831E+02  0.73371194875E+02  0.25500000000E-02 0. -1.
          2   -1    0    0  501    0  0.00000000000E+00 -0.00000000000E+00 -0.15753807372E+03  0.15753807374E+03  0.25500000000E-02 0.  1.
    5000001    1    1    2    0    0  0.71138001035E+02 -0.16663671787E+02 -0.60417047422E+02  0.12213727018E+03  0.77000000000E+02 0.  0.
   -5000001    1    1    2    0    0 -0.71138001035E+02  0.16663671787E+02 -0.23749831469E+02  0.10877199843E+03  0.77000000000E+02 0.  0.
<mgrwt>
<rscale>  0 0.21502332E+03</rscale>
<asrwt>0</asrwt>
<pdfrwt beam="1">  1        2 0.22505439E-01 0.21502332E+03</pdfrwt>
<pdfrwt beam="2">  1       -2 0.10481599E-01 0.21502332E+03</pdfrwt>
<totfact> 0.14484191E+04</totfact>
</mgrwt>
</event>
<event>
 4    1  0.5562790E-004  0.2203137E+03  0.7818608E-02  0.1133649E+00
          2   -1    0    0  501    0  0.00000000000E+00  0.00000000000E+00  0.16224482177E+04  0.16224482177E+04  0.25500000000E-02 0.  1.
         -2   -1    0    0    0  501 -0.00000000000E+00 -0.00000000000E+00 -0.74791504684E+01  0.74791509031E+01  0.25500000000E-02 0. -1.
    5000001    1    1    2    0    0 -0.49941140181E+02  0.59210625298E+02  0.91354481099E+03  0.92005061672E+03  0.77000000000E+02 0.  0.
   -5000001    1    1    2    0    0  0.49941140181E+02 -0.59210625298E+02  0.70142425628E+03  0.70987675193E+03  0.77000000000E+02 0.  0.
<mgrwt>
<rscale>  0 0.22031373E+03</rscale>
<asrwt>0</asrwt>
<pdfrwt beam="1">  1        2 0.23177844E+00 0.22031373E+03</pdfrwt>
<pdfrwt beam="2">  1       -2 0.10684495E-02 0.22031373E+03</pdfrwt>
<totfact> 0.25921207E+04</totfact>
</mgrwt>
</event>
<event>
 4    1  0.5562790E-004  0.1847069E+03  0.7818608E-02  0.1163324E+00
         -2   -1    0    0    0  501 -0.00000000000E+00  0.00000000000E+00  0.59306809638E+02  0.59306809693E+02  0.25500000000E-02 0. -1.
          2   -1    0    0  501    0  0.00000000000E+00 -0.00000000000E+00 -0.14381417365E+03  0.14381417367E+03  0.25500000000E-02 0.  1.
    5000001    1    1    2    0    0  0.12807513278E+02  0.47170307992E+02 -0.26276324292E+02  0.94913200192E+02  0.77000000000E+02 0.  0.
   -5000001    1    1    2    0    0 -0.12807513278E+02 -0.47170307992E+02 -0.58231039718E+02  0.10820778317E+03  0.77000000000E+02 0.  0.
<mgrwt>
<rscale>  0 0.18470690E+03</rscale>
<asrwt>0</asrwt>
<pdfrwt beam="1">  1        2 0.20544882E-01 0.18470690E+03</pdfrwt>
<pdfrwt beam="2">  1       -2 0.84724014E-02 0.18470690E+03</pdfrwt>
<totfact> 0.22187940E+04</totfact>
</mgrwt>
</event>
<event>
 4    1  0.5562790E-004  0.3163705E+03  0.7818608E-02  0.1077332E+00
         -2   -1    0    0    0  501 -0.00000000000E+00  0.00000000000E+00  0.20271787312E+02  0.20271787473E+02  0.25500000000E-02 0. -1.
          2   -1    0    0  501    0  0.00000000000E+00 -0.00000000000E+00 -0.12343542349E+04  0.12343542349E+04  0.25500000000E-02 0.  1.
    5000001    1    1    2    0    0  0.11652975461E+03  0.60359442464E+02 -0.43549970133E+03  0.46131489881E+03  0.77000000000E+02 0.  0.
   -5000001    1    1    2    0    0 -0.11652975461E+03 -0.60359442464E+02 -0.77858274629E+03  0.79331112360E+03  0.77000000000E+02 0.  0.
<mgrwt>
<rscale>  0 0.31637046E+03</rscale>
<asrwt>0</asrwt>
<pdfrwt beam="1">  1        2 0.17633627E+00 0.31637046E+03</pdfrwt>
<pdfrwt beam="2">  1       -2 0.28959704E-02 0.31637046E+03</pdfrwt>
<totfact> 0.96128720E+03</totfact>
</mgrwt>
</event>
<event>
 4    1  0.5562790E-004  0.3068978E+03  0.7818608E-02  0.1081842E+00
         -2   -1    0    0    0  501 -0.00000000000E+00  0.00000000000E+00  0.31451732005E+02  0.31451732108E+02  0.25500000000E-02 0. -1.
          2   -1    0    0  501    0  0.00000000000E+00 -0.00000000000E+00 -0.74865730104E+03  0.74865730105E+03  0.25500000000E-02 0.  1.
    5000001    1    1    2    0    0  0.24541324240E+02 -0.10849055376E+03 -0.54269611296E+03  0.55930362763E+03  0.77000000000E+02 0.  0.
   -5000001    1    1    2    0    0 -0.24541324240E+02  0.10849055376E+03 -0.17450945607E+03  0.22080540553E+03  0.77000000000E+02 0.  0.
<mgrwt>
<rscale>  0 0.30689783E+03</rscale>
<asrwt>0</asrwt>
<pdfrwt beam="1">  1        2 0.10695103E+00 0.30689783E+03</pdfrwt>
<pdfrwt beam="2">  1       -2 0.44931050E-02 0.30689783E+03</pdfrwt>
<totfact> 0.97573301E+03</totfact>
</mgrwt>
</event>
<event>
 4    1  0.5562790E-004  0.3145542E+03  0.7818608E-02  0.1078183E+00
         -2   -1    0    0    0  501 -0.00000000000E+00  0.00000000000E+00  0.13529075838E+03  0.13529075840E+03  0.25500000000E-02 0. -1.
          2   -1    0    0  501    0  0.00000000000E+00 -0.00000000000E+00 -0.18283644481E+03  0.18283644483E+03  0.25500000000E-02 0.  1.
    5000001    1    1    2    0    0  0.74043024660E+02 -0.53256606079E+02  0.79803584645E+02  0.14358359138E+03  0.77000000000E+02 0.  0.
   -5000001    1    1    2    0    0 -0.74043024660E+02  0.53256606079E+02 -0.12734927108E+03  0.17454361185E+03  0.77000000000E+02 0.  0.
<mgrwt>
<rscale>  0 0.31455417E+03</rscale>
<asrwt>0</asrwt>
<pdfrwt beam="1">  1        2 0.26119492E-01 0.31455417E+03</pdfrwt>
<pdfrwt beam="2">  1       -2 0.19327251E-01 0.31455417E+03</pdfrwt>
<totfact> 0.45629973E+03</totfact>
</mgrwt>
</event>
<event>
 4    1  0.5562790E-004  0.2265792E+03  0.7818608E-02  0.1129071E+00
          2   -1    0    0  501    0  0.00000000000E+00  0.00000000000E+00  0.92004634191E+03  0.92004634191E+03  0.25500000000E-02 0.  1.
         -2   -1    0    0    0  501 -0.00000000000E+00 -0.00000000000E+00 -0.13949871168E+02  0.13949871401E+02  0.25500000000E-02 0. -1.
    5000001    1    1    2    0    0 -0.81573407340E+02  0.74884629574E+01  0.51064507478E+03  0.52287444981E+03  0.77000000000E+02 0.  0.
   -5000001    1    1    2    0    0  0.81573407340E+02 -0.74884629574E+01  0.39545139596E+03  0.41112176351E+03  0.77000000000E+02 0.  0.
<mgrwt>
<rscale>  0 0.22657915E+03</rscale>
<asrwt>0</asrwt>
<pdfrwt beam="1">  1        2 0.13143516E+00 0.22657915E+03</pdfrwt>
<pdfrwt beam="2">  1       -2 0.19928392E-02 0.22657915E+03</pdfrwt>
<totfact> 0.24917096E+04</totfact>
</mgrwt>
</event>
<event>
 4    1  0.5562790E-004  0.2209842E+03  0.7818608E-02  0.1133151E+00
          2   -1    0    0  501    0  0.00000000000E+00  0.00000000000E+00  0.16978597462E+03  0.16978597464E+03  0.25500000000E-02 0.  1.
         -2   -1    0    0    0  501 -0.00000000000E+00 -0.00000000000E+00 -0.71905256300E+02  0.71905256345E+02  0.25500000000E-02 0. -1.
    5000001    1    1    2    0    0 -0.59281184291E+02  0.35643428360E+02  0.66550078033E+01  0.10372078830E+03  0.77000000000E+02 0.  0.
   -5000001    1    1    2    0    0  0.59281184291E+02 -0.35643428360E+02  0.91225710520E+02  0.13797044269E+03  0.77000000000E+02 0.  0.
<mgrwt>
<rscale>  0 0.22098420E+03</rscale>
<asrwt>0</asrwt>
<pdfrwt beam="1">  1        2 0.24255139E-01 0.22098420E+03</pdfrwt>
<pdfrwt beam="2">  1       -2 0.10272179E-01 0.22098420E+03</pdfrwt>
<totfact> 0.13776794E+04</totfact>
</mgrwt>
</event>
<event>
 4    1  0.5562790E-004  0.2507560E+03  0.7818608E-02  0.1112828E+00
         -2   -1    0    0    0  501 -0.00000000000E+00  0.00000000000E+00  0.10748893883E+02  0.10748894185E+02  0.25500000000E-02 0. -1.
          2   -1    0    0  501    0  0.00000000000E+00 -0.00000000000E+00 -0.14624428327E+04  0.14624428327E+04  0.25500000000E-02 0.  1.
    5000001    1    1    2    0    0 -0.82219579262E+02 -0.43352605185E+02 -0.92517627341E+03  0.93301642240E+03  0.77000000000E+02 0.  0.
   -5000001    1    1    2    0    0  0.82219579262E+02  0.43352605185E+02 -0.52651766541E+03  0.54017530449E+03  0.77000000000E+02 0.  0.
<mgrwt>
<rscale>  0 0.25075600E+03</rscale>
<asrwt>0</asrwt>
<pdfrwt beam="1">  1        2 0.20892028E+00 0.25075600E+03</pdfrwt>
<pdfrwt beam="2">  1       -2 0.15355572E-02 0.25075600E+03</pdfrwt>
<totfact> 0.18499159E+04</totfact>
</mgrwt>
</event>
<event>
 4    1  0.5562790E-004  0.1965565E+03  0.7818608E-02  0.1152677E+00
          2   -1    0    0  501    0  0.00000000000E+00  0.00000000000E+00  0.22176258634E+02  0.22176258781E+02  0.25500000000E-02 0.  1.
         -2   -1    0    0    0  501 -0.00000000000E+00 -0.00000000000E+00 -0.43553836409E+03  0.43553836409E+03  0.25500000000E-02 0. -1.
    5000001    1    1    2    0    0 -0.49349646812E+02 -0.35079758298E+02 -0.18810500652E+03  0.21208128291E+03  0.77000000000E+02 0.  0.
   -5000001    1    1    2    0    0  0.49349646812E+02  0.35079758298E+02 -0.22525709893E+03  0.24563333996E+03  0.77000000000E+02 0.  0.
<mgrwt>
<rscale>  0 0.19655647E+03</rscale>
<asrwt>0</asrwt>
<pdfrwt beam="1">  1        2 0.31680372E-02 0.19655647E+03</pdfrwt>
<pdfrwt beam="2">  1       -2 0.62219761E-01 0.19655647E+03</pdfrwt>
<totfact> 0.69321855E+03</totfact>
</mgrwt>
</event>
<event>
 4    1  0.5562790E-004  0.2397406E+03  0.7818608E-02  0.1119966E+00
          2   -1    0    0  501    0  0.00000000000E+00  0.00000000000E+00  0.11890467422E+03  0.11890467425E+03  0.25500000000E-02 0.  1.
         -2   -1    0    0    0  501 -0.00000000000E+00 -0.00000000000E+00 -0.12084380966E+03  0.12084380969E+03  0.25500000000E-02 0. -1.
    5000001    1    1    2    0    0 -0.83199559942E+02  0.80765393106E+01  0.37143311876E+02  0.11956597710E+03  0.77000000000E+02 0.  0.
   -5000001    1    1    2    0    0  0.83199559942E+02 -0.80765393106E+01 -0.39082447316E+02  0.12018250684E+03  0.77000000000E+02 0.  0.
<mgrwt>
<rscale>  0 0.23974064E+03</rscale>
<asrwt>0</asrwt>
<pdfrwt beam="1">  1        2 0.16986382E-01 0.23974064E+03</pdfrwt>
<pdfrwt beam="2">  1       -2 0.17263401E-01 0.23974064E+03</pdfrwt>
<totfact> 0.89212961E+03</totfact>
</mgrwt>
</event>
<event>
 4    1  0.5562790E-004  0.4408774E+03  0.7818608E-02  0.1030478E+00
          2   -1    0    0  501    0  0.00000000000E+00  0.00000000000E+00  0.93309370325E+02  0.93309370360E+02  0.25500000000E-02 0.  1.
         -2   -1    0    0    0  501 -0.00000000000E+00 -0.00000000000E+00 -0.52077546059E+03  0.52077546060E+03  0.25500000000E-02 0. -1.
    5000001    1    1    2    0    0  0.74620495274E+02  0.17670562939E+03 -0.10700675058E+03  0.23274995691E+03  0.77000000000E+02 0.  0.
   -5000001    1    1    2    0    0 -0.74620495274E+02 -0.17670562939E+03 -0.32045933969E+03  0.38133487405E+03  0.77000000000E+02 0.  0.
<mgrwt>
<rscale>  0 0.44087744E+03</rscale>
<asrwt>0</asrwt>
<pdfrwt beam="1">  1        2 0.13329910E-01 0.44087744E+03</pdfrwt>
<pdfrwt beam="2">  1       -2 0.74396493E-01 0.44087744E+03</pdfrwt>
<totfact> 0.75674898E+02</totfact>
</mgrwt>
</event>
<event>
 4    1  0.5562790E-004  0.2235100E+03  0.7818608E-02  0.1131293E+00
          2   -1    0    0  501    0  0.00000000000E+00  0.00000000000E+00  0.11709750550E+04  0.11709750550E+04  0.25500000000E-02 0.  1.
         -2   -1    0    0    0  501 -0.00000000000E+00 -0.00000000000E+00 -0.10665624378E+02  0.10665624683E+02  0.25500000000E-02 0. -1.
    5000001    1    1    2    0    0  0.67443164751E+01 -0.47909774468E+02  0.92356329632E+03  0.92802963024E+03  0.77000000000E+02 0.  0.
   -5000001    1    1    2    0    0 -0.67443164751E+01  0.47909774468E+02  0.23674613430E+03  0.25361104944E+03  0.77000000000E+02 0.  0.
<mgrwt>
<rscale>  0 0.22351000E+03</rscale>
<asrwt>0</asrwt>
<pdfrwt beam="1">  1        2 0.16728208E+00 0.22351000E+03</pdfrwt>
<pdfrwt beam="2">  1       -2 0.15236613E-02 0.22351000E+03</pdfrwt>
<totfact> 0.26430189E+04</totfact>
</mgrwt>
</event>
<event>
 4    1  0.5562790E-004  0.2435767E+03  0.7818608E-02  0.1117433E+00
         -2   -1    0    0    0  501 -0.00000000000E+00  0.00000000000E+00  0.95607873877E+01  0.95607877278E+01  0.25500000000E-02 0. -1.
          2   -1    0    0  501    0  0.00000000000E+00 -0.00000000000E+00 -0.15513789390E+04  0.15513789390E+04  0.25500000000E-02 0.  1.
    5000001    1    1    2    0    0 -0.57375545467E+02  0.74885810842E+02 -0.78301160716E+03  0.79242413822E+03  0.77000000000E+02 0.  0.
   -5000001    1    1    2    0    0  0.57375545467E+02 -0.74885810842E+02 -0.75880654450E+03  0.76851558856E+03  0.77000000000E+02 0.  0.
<mgrwt>
<rscale>  0 0.24357672E+03</rscale>
<asrwt>0</asrwt>
<pdfrwt beam="1">  1        2 0.22162540E+00 0.24357672E+03</pdfrwt>
<pdfrwt beam="2">  1       -2 0.13658278E-02 0.24357672E+03</pdfrwt>
<totfact> 0.19774714E+04</totfact>
</mgrwt>
</event>
<event>
 4    1  0.5562790E-004  0.1861050E+03  0.7818608E-02  0.1162022E+00
         -2   -1    0    0    0  501 -0.00000000000E+00  0.00000000000E+00  0.13949010430E+02  0.13949010663E+02  0.25500000000E-02 0. -1.
          2   -1    0    0  501    0  0.00000000000E+00 -0.00000000000E+00 -0.62074417637E+03  0.62074417638E+03  0.25500000000E-02 0.  1.
    5000001    1    1    2    0    0 -0.25520650958E+02 -0.36997143553E+02 -0.39424979537E+03  0.40420538517E+03  0.77000000000E+02 0.  0.
   -5000001    1    1    2    0    0  0.25520650958E+02  0.36997143553E+02 -0.21254537057E+03  0.23048780186E+03  0.77000000000E+02 0.  0.
<mgrwt>
<rscale>  0 0.18610499E+03</rscale>
<asrwt>0</asrwt>
<pdfrwt beam="1">  1        2 0.88677722E-01 0.18610499E+03</pdfrwt>
<pdfrwt beam="2">  1       -2 0.19927162E-02 0.18610499E+03</pdfrwt>
<totfact> 0.39531632E+04</totfact>
</mgrwt>
</event>
<event>
 4    1  0.5562790E-004  0.2088007E+03  0.7818608E-02  0.1142519E+00
          2   -1    0    0  501    0  0.00000000000E+00  0.00000000000E+00  0.82558549323E+02  0.82558549362E+02  0.25500000000E-02 0.  1.
         -2   -1    0    0    0  501 -0.00000000000E+00 -0.00000000000E+00 -0.13202068149E+03  0.13202068151E+03  0.25500000000E-02 0. -1.
    5000001    1    1    2    0    0 -0.31272076912E+02  0.61866547957E+02 -0.11529409143E+02  0.10424653388E+03  0.77000000000E+02 0.  0.
   -5000001    1    1    2    0    0  0.31272076912E+02 -0.61866547957E+02 -0.37932723021E+02  0.11033269700E+03  0.77000000000E+02 0.  0.
<mgrwt>
<rscale>  0 0.20880073E+03</rscale>
<asrwt>0</asrwt>
<pdfrwt beam="1">  1        2 0.11794079E-01 0.20880073E+03</pdfrwt>
<pdfrwt beam="2">  1       -2 0.18860097E-01 0.20880073E+03</pdfrwt>
<totfact> 0.11768025E+04</totfact>
</mgrwt>
</event>
<event>
 4    1  0.5562790E-004  0.2722930E+03  0.7818608E-02  0.1099974E+00
         -2   -1    0    0    0  501 -0.00000000000E+00  0.00000000000E+00  0.15996744128E+03  0.15996744130E+03  0.25500000000E-02 0. -1.
          2   -1    0    0  501    0  0.00000000000E+00 -0.00000000000E+00 -0.11587272738E+03  0.11587272741E+03  0.25500000000E-02 0.  1.
    5000001    1    1    2    0    0 -0.72906632017E+02  0.37184473918E+02  0.99917469996E+02  0.15036809137E+03  0.77000000000E+02 0.  0.
   -5000001    1    1    2    0    0  0.72906632017E+02 -0.37184473918E+02 -0.55822756094E+02  0.12547207733E+03  0.77000000000E+02 0.  0.
<mgrwt>
<rscale>  0 0.27229296E+03</rscale>
<asrwt>0</asrwt>
<pdfrwt beam="1">  1        2 0.16553247E-01 0.27229296E+03</pdfrwt>
<pdfrwt beam="2">  1       -2 0.22852492E-01 0.27229296E+03</pdfrwt>
<totfact> 0.57287197E+03</totfact>
</mgrwt>
</event>
<event>
 4    1  0.5562790E-004  0.2063298E+03  0.7818608E-02  0.1144506E+00
         -2   -1    0    0    0  501 -0.00000000000E+00  0.00000000000E+00  0.55206688678E+01  0.55206694568E+01  0.25500000000E-02 0. -1.
          2   -1    0    0  501    0  0.00000000000E+00 -0.00000000000E+00 -0.19278447106E+04  0.19278447106E+04  0.25500000000E-02 0.  1.
    5000001    1    1    2    0    0 -0.47936516326E+02 -0.43120914214E+02 -0.11822427905E+04  0.11865008801E+04  0.77000000000E+02 0.  0.
   -5000001    1    1    2    0    0  0.47936516326E+02  0.43120914214E+02 -0.74008125121E+03  0.74686449991E+03  0.77000000000E+02 0.  0.
<mgrwt>
<rscale>  0 0.20632976E+03</rscale>
<asrwt>0</asrwt>
<pdfrwt beam="1">  1        2 0.27540596E+00 0.20632976E+03</pdfrwt>
<pdfrwt beam="2">  1       -2 0.78866826E-03 0.20632976E+03</pdfrwt>
<totfact> 0.28434280E+04</totfact>
</mgrwt>
</event>
<event>
 4    1  0.5562790E-004  0.1624102E+03  0.7818608E-02  0.1186002E+00
          2   -1    0    0  501    0  0.00000000000E+00  0.00000000000E+00  0.10750270413E+04  0.10750270413E+04  0.25500000000E-02 0.  1.
         -2   -1    0    0    0  501 -0.00000000000E+00 -0.00000000000E+00 -0.61340456399E+01  0.61340461699E+01  0.25500000000E-02 0. -1.
    5000001    1    1    2    0    0  0.24203793074E+02 -0.29411501126E+01  0.59045668557E+03  0.59595517574E+03  0.77000000000E+02 0.  0.
   -5000001    1    1    2    0    0 -0.24203793074E+02  0.29411501126E+01  0.47843631011E+03  0.48520591175E+03  0.77000000000E+02 0.  0.
<mgrwt>
<rscale>  0 0.16241016E+03</rscale>
<asrwt>0</asrwt>
<pdfrwt beam="1">  1        2 0.15357539E+00 0.16241016E+03</pdfrwt>
<pdfrwt beam="2">  1       -2 0.87629172E-03 0.16241016E+03</pdfrwt>
<totfact> 0.64778583E+04</totfact>
</mgrwt>
</event>
<event>
 4    1  0.5562790E-004  0.2637196E+03  0.7818608E-02  0.1104929E+00
          2   -1    0    0  501    0  0.00000000000E+00  0.00000000000E+00  0.12070785737E+04  0.12070785737E+04  0.25500000000E-02 0.  1.
         -2   -1    0    0    0  501 -0.00000000000E+00 -0.00000000000E+00 -0.14404200995E+02  0.14404201220E+02  0.25500000000E-02 0. -1.
    5000001    1    1    2    0    0 -0.10492982974E+03 -0.20853721995E+02  0.57973016000E+03  0.59452603417E+03  0.77000000000E+02 0.  0.
   -5000001    1    1    2    0    0  0.10492982974E+03  0.20853721995E+02  0.61294421275E+03  0.62695674080E+03  0.77000000000E+02 0.  0.
<mgrwt>
<rscale>  0 0.26371957E+03</rscale>
<asrwt>0</asrwt>
<pdfrwt beam="1">  1        2 0.17243981E+00 0.26371957E+03</pdfrwt>
<pdfrwt beam="2">  1       -2 0.20577429E-02 0.26371957E+03</pdfrwt>
<totfact> 0.16405020E+04</totfact>
</mgrwt>
</event>
<event>
 4    1  0.5562790E-004  0.3236893E+03  0.7818608E-02  0.1073964E+00
         -2   -1    0    0    0  501 -0.00000000000E+00  0.00000000000E+00  0.18503548112E+02  0.18503548288E+02  0.25500000000E-02 0. -1.
          2   -1    0    0  501    0  0.00000000000E+00 -0.00000000000E+00 -0.14156034516E+04  0.14156034516E+04  0.25500000000E-02 0.  1.
    5000001    1    1    2    0    0  0.12953563132E+03  0.24626396159E+02 -0.46083580127E+03  0.48547355737E+03  0.77000000000E+02 0.  0.
   -5000001    1    1    2    0    0 -0.12953563132E+03 -0.24626396159E+02 -0.93626410216E+03  0.94863344247E+03  0.77000000000E+02 0.  0.
<mgrwt>
<rscale>  0 0.32368928E+03</rscale>
<asrwt>0</asrwt>
<pdfrwt beam="1">  1        2 0.20222900E+00 0.32368928E+03</pdfrwt>
<pdfrwt beam="2">  1       -2 0.26433649E-02 0.32368928E+03</pdfrwt>
<totfact> 0.88430878E+03</totfact>
</mgrwt>
</event>
<event>
 4    1  0.5562790E-004  0.4765488E+03  0.7818608E-02  0.1020088E+00
          2   -1    0    0  501    0  0.00000000000E+00  0.00000000000E+00  0.39444703759E+03  0.39444703759E+03  0.25500000000E-02 0.  1.
         -2   -1    0    0    0  501 -0.00000000000E+00 -0.00000000000E+00 -0.14393488445E+03  0.14393488447E+03  0.25500000000E-02 0. -1.
    5000001    1    1    2    0    0 -0.17456098531E+03 -0.13934672520E+03  0.90313279133E+02  0.25293187977E+03  0.77000000000E+02 0.  0.
   -5000001    1    1    2    0    0  0.17456098531E+03  0.13934672520E+03  0.16019887400E+03  0.28545004230E+03  0.77000000000E+02 0.  0.
<mgrwt>
<rscale>  0 0.47654880E+03</rscale>
<asrwt>0</asrwt>
<pdfrwt beam="1">  1        2 0.56349577E-01 0.47654880E+03</pdfrwt>
<pdfrwt beam="2">  1       -2 0.20562126E-01 0.47654880E+03</pdfrwt>
<totfact> 0.17755849E+03</totfact>
</mgrwt>
</event>
<event>
 4    1  0.5562790E-004  0.3816964E+03  0.7818608E-02  0.1050309E+00
          2   -1    0    0  501    0  0.00000000000E+00  0.00000000000E+00  0.15840426282E+03  0.15840426284E+03  0.25500000000E-02 0.  1.
         -2   -1    0    0    0  501 -0.00000000000E+00 -0.00000000000E+00 -0.22993725296E+03  0.22993725298E+03  0.25500000000E-02 0. -1.
    5000001    1    1    2    0    0  0.14439579381E+03  0.96238693426E+02 -0.55651829747E+02  0.19783366128E+03  0.77000000000E+02 0.  0.
   -5000001    1    1    2    0    0 -0.14439579381E+03 -0.96238693426E+02 -0.15881160397E+02  0.19050785453E+03  0.77000000000E+02 0.  0.
<mgrwt>
<rscale>  0 0.38169643E+03</rscale>
<asrwt>0</asrwt>
<pdfrwt beam="1">  1        2 0.22629180E-01 0.38169643E+03</pdfrwt>
<pdfrwt beam="2">  1       -2 0.32848179E-01 0.38169643E+03</pdfrwt>
<totfact> 0.20981696E+03</totfact>
</mgrwt>
</event>
<event>
 4    1  0.5562790E-004  0.2268691E+03  0.7818608E-02  0.1128863E+00
          2   -1    0    0  501    0  0.00000000000E+00  0.00000000000E+00  0.19911669042E+04  0.19911669042E+04  0.25500000000E-02 0.  1.
         -2   -1    0    0    0  501 -0.00000000000E+00 -0.00000000000E+00 -0.64622389099E+01  0.64622394130E+01  0.25500000000E-02 0. -1.
    5000001    1    1    2    0    0  0.34435294866E+02 -0.75735817729E+02  0.10283279613E+04  0.10345574415E+04  0.77000000000E+02 0.  0.
   -5000001    1    1    2    0    0 -0.34435294866E+02  0.75735817729E+02  0.95637670392E+03  0.96307170211E+03  0.77000000000E+02 0.  0.
<mgrwt>
<rscale>  0 0.22686910E+03</rscale>
<asrwt>0</asrwt>
<pdfrwt beam="1">  1        2 0.28445289E+00 0.22686910E+03</pdfrwt>
<pdfrwt beam="2">  1       -2 0.92317548E-03 0.22686910E+03</pdfrwt>
<totfact> 0.21205898E+04</totfact>
</mgrwt>
</event>
<event>
 4    1  0.5562790E-004  0.2563245E+03  0.7818608E-02  0.1109372E+00
          2   -1    0    0  501    0  0.00000000000E+00  0.00000000000E+00  0.42951135817E+04  0.42951135817E+04  0.25500000000E-02 0.  1.
         -2   -1    0    0    0  501 -0.00000000000E+00 -0.00000000000E+00 -0.38242423125E+01  0.38242431626E+01  0.25500000000E-02 0. -1.
    5000001    1    1    2    0    0 -0.65990760618E+02 -0.27873351557E+02  0.33740735498E+04  0.33757122247E+04  0.77000000000E+02 0.  0.
   -5000001    1    1    2    0    0  0.65990760618E+02  0.27873351557E+02  0.91721578953E+03  0.92322560016E+03  0.77000000000E+02 0.  0.
<mgrwt>
<rscale>  0 0.25632446E+03</rscale>
<asrwt>0</asrwt>
<pdfrwt beam="1">  1        2 0.61358687E+00 0.25632446E+03</pdfrwt>
<pdfrwt beam="2">  1       -2 0.54632109E-03 0.25632446E+03</pdfrwt>
<totfact> 0.23424532E+03</totfact>
</mgrwt>
</event>
<event>
 4    1  0.5562790E-004  0.1923671E+03  0.7818608E-02  0.1156344E+00
         -2   -1    0    0    0  501 -0.00000000000E+00  0.00000000000E+00  0.63347762689E+02  0.63347762741E+02  0.25500000000E-02 0. -1.
          2   -1    0    0  501    0  0.00000000000E+00 -0.00000000000E+00 -0.14603950338E+03  0.14603950340E+03  0.25500000000E-02 0.  1.
    5000001    1    1    2    0    0  0.48430528633E+02  0.26002262357E+02 -0.22472723215E+02  0.97240202797E+02  0.77000000000E+02 0.  0.
   -5000001    1    1    2    0    0 -0.48430528633E+02 -0.26002262357E+02 -0.60219017476E+02  0.11214706335E+03  0.77000000000E+02 0.  0.
<mgrwt>
<rscale>  0 0.19236711E+03</rscale>
<asrwt>0</asrwt>
<pdfrwt beam="1">  1        2 0.20862786E-01 0.19236711E+03</pdfrwt>
<pdfrwt beam="2">  1       -2 0.90496804E-02 0.19236711E+03</pdfrwt>
<totfact> 0.19736727E+04</totfact>
</mgrwt>
</event>
<event>
 4    1  0.5562790E-004  0.2135191E+03  0.7818608E-02  0.1138809E+00
         -2   -1    0    0    0  501 -0.00000000000E+00  0.00000000000E+00  0.20192531175E+03  0.20192531177E+03  0.25500000000E-02 0. -1.
          2   -1    0    0  501    0  0.00000000000E+00 -0.00000000000E+00 -0.56444664491E+02  0.56444664549E+02  0.25500000000E-02 0.  1.
    5000001    1    1    2    0    0  0.32812817599E+02 -0.33260316148E+02  0.33789564705E+01  0.90129612092E+02  0.77000000000E+02 0.  0.
   -5000001    1    1    2    0    0 -0.32812817599E+02  0.33260316148E+02  0.14210169079E+03  0.16824036423E+03  0.77000000000E+02 0.  0.
<mgrwt>
<rscale>  0 0.21351915E+03</rscale>
<asrwt>0</asrwt>
<pdfrwt beam="1">  1        2 0.80635234E-02 0.21351915E+03</pdfrwt>
<pdfrwt beam="2">  1       -2 0.28846473E-01 0.21351915E+03</pdfrwt>
<totfact> 0.90098150E+03</totfact>
</mgrwt>
</event>
<event>
 4    1  0.5562790E-004  0.2661952E+03  0.7818608E-02  0.1103477E+00
          2   -1    0    0  501    0  0.00000000000E+00  0.00000000000E+00  0.41270154829E+03  0.41270154830E+03  0.25500000000E-02 0.  1.
         -2   -1    0    0    0  501 -0.00000000000E+00 -0.00000000000E+00 -0.42924419406E+02  0.42924419482E+02  0.25500000000E-02 0. -1.
    5000001    1    1    2    0    0 -0.94859708898E+02  0.20477499018E+02  0.26818471245E+03  0.29541450934E+03  0.77000000000E+02 0.  0.
   -5000001    1    1    2    0    0  0.94859708898E+02 -0.20477499018E+02  0.10159241644E+03  0.16021145844E+03  0.77000000000E+02 0.  0.
<mgrwt>
<rscale>  0 0.26619522E+03</rscale>
<asrwt>0</asrwt>
<pdfrwt beam="1">  1        2 0.58957370E-01 0.26619522E+03</pdfrwt>
<pdfrwt beam="2">  1       -2 0.61320594E-02 0.26619522E+03</pdfrwt>
<totfact> 0.11864516E+04</totfact>
</mgrwt>
</event>
<event>
 4    1  0.5562790E-004  0.2174807E+03  0.7818608E-02  0.1135775E+00
          2   -1    0    0  501    0  0.00000000000E+00  0.00000000000E+00  0.94739579761E+03  0.94739579761E+03  0.25500000000E-02 0.  1.
         -2   -1    0    0    0  501 -0.00000000000E+00 -0.00000000000E+00 -0.12481012785E+02  0.12481013046E+02  0.25500000000E-02 0. -1.
    5000001    1    1    2    0    0 -0.62693519600E+02  0.22027469686E+02  0.29767512954E+03  0.31457140615E+03  0.77000000000E+02 0.  0.
   -5000001    1    1    2    0    0  0.62693519600E+02 -0.22027469686E+02  0.63723965529E+03  0.64530540451E+03  0.77000000000E+02 0.  0.
<mgrwt>
<rscale>  0 0.21748066E+03</rscale>
<asrwt>0</asrwt>
<pdfrwt beam="1">  1        2 0.13534231E+00 0.21748066E+03</pdfrwt>
<pdfrwt beam="2">  1       -2 0.17830012E-02 0.21748066E+03</pdfrwt>
<totfact> 0.28147157E+04</totfact>
</mgrwt>
</event>
<event>
 4    1  0.5562790E-004  0.2904926E+03  0.7818608E-02  0.1090092E+00
          2   -1    0    0  501    0  0.00000000000E+00  0.00000000000E+00  0.21335762119E+04  0.21335762119E+04  0.25500000000E-02 0.  1.
         -2   -1    0    0    0  501 -0.00000000000E+00 -0.00000000000E+00 -0.98878542442E+01  0.98878545730E+01  0.25500000000E-02 0. -1.
    5000001    1    1    2    0    0  0.15280841000E+02  0.10904409107E+03  0.14689044293E+04  0.14750367251E+04  0.77000000000E+02 0.  0.
   -5000001    1    1    2    0    0 -0.15280841000E+02 -0.10904409107E+03  0.65478392836E+03  0.66842734140E+03  0.77000000000E+02 0.  0.
<mgrwt>
<rscale>  0 0.29049262E+03</rscale>
<asrwt>0</asrwt>
<pdfrwt beam="1">  1        2 0.30479682E+00 0.29049262E+03</pdfrwt>
<pdfrwt beam="2">  1       -2 0.14125496E-02 0.29049262E+03</pdfrwt>
<totfact> 0.98015880E+03</totfact>
</mgrwt>
</event>
<event>
 4    1  0.5562790E-004  0.1793172E+03  0.7818608E-02  0.1168465E+00
          2   -1    0    0  501    0  0.00000000000E+00  0.00000000000E+00  0.12218491159E+04  0.12218491159E+04  0.25500000000E-02 0.  1.
         -2   -1    0    0    0  501 -0.00000000000E+00 -0.00000000000E+00 -0.65791006962E+01  0.65791011904E+01  0.25500000000E-02 0. -1.
    5000001    1    1    2    0    0 -0.33887109766E+02 -0.30433022921E+02  0.56701179381E+03  0.57402602677E+03  0.77000000000E+02 0.  0.
   -5000001    1    1    2    0    0  0.33887109766E+02  0.30433022921E+02  0.64825822144E+03  0.65440219036E+03  0.77000000000E+02 0.  0.
<mgrwt>
<rscale>  0 0.17931725E+03</rscale>
<asrwt>0</asrwt>
<pdfrwt beam="1">  1        2 0.17455010E+00 0.17931725E+03</pdfrwt>
<pdfrwt beam="2">  1       -2 0.93987033E-03 0.17931725E+03</pdfrwt>
<totfact> 0.49166834E+04</totfact>
</mgrwt>
</event>
<event>
 4    1  0.5562790E-004  0.1917457E+03  0.7818608E-02  0.1156896E+00
         -2   -1    0    0    0  501 -0.00000000000E+00  0.00000000000E+00  0.59082770279E+03  0.59082770280E+03  0.25500000000E-02 0. -1.
          2   -1    0    0  501    0  0.00000000000E+00 -0.00000000000E+00 -0.15557159039E+02  0.15557159248E+02  0.25500000000E-02 0.  1.
    5000001    1    1    2    0    0  0.52179171988E+02  0.22503646768E+02  0.26932570826E+03  0.28582235259E+03  0.77000000000E+02 0.  0.
   -5000001    1    1    2    0    0 -0.52179171988E+02 -0.22503646768E+02  0.30594483549E+03  0.32056250945E+03  0.77000000000E+02 0.  0.
<mgrwt>
<rscale>  0 0.19174567E+03</rscale>
<asrwt>0</asrwt>
<pdfrwt beam="1">  1        2 0.22224514E-02 0.19174567E+03</pdfrwt>
<pdfrwt beam="2">  1       -2 0.84403954E-01 0.19174567E+03</pdfrwt>
<totfact> 0.58176365E+03</totfact>
</mgrwt>
</event>
<event>
 4    1  0.5562790E-004  0.9565226E+03  0.7818608E-02  0.9357559E-01
         -2   -1    0    0    0  501 -0.00000000000E+00  0.00000000000E+00  0.16000622089E+03  0.16000622091E+03  0.25500000000E-02 0. -1.
          2   -1    0    0  501    0  0.00000000000E+00 -0.00000000000E+00 -0.14295310568E+04  0.14295310568E+04  0.25500000000E-02 0.  1.
    5000001    1    1    2    0    0  0.35887338764E+03 -0.22067819374E+03 -0.28100892223E+03  0.51223430959E+03  0.77000000000E+02 0.  0.
   -5000001    1    1    2    0    0 -0.35887338764E+03  0.22067819374E+03 -0.98851591370E+03  0.10773029681E+04  0.77000000000E+02 0.  0.
<mgrwt>
<rscale>  0 0.95652258E+03</rscale>
<asrwt>0</asrwt>
<pdfrwt beam="1">  1        2 0.20421872E+00 0.95652258E+03</pdfrwt>
<pdfrwt beam="2">  1       -2 0.22858032E-01 0.95652258E+03</pdfrwt>
<totfact> 0.26826730E+02</totfact>
</mgrwt>
</event>
<event>
 4    1  0.5562790E-004  0.1978994E+03  0.7818608E-02  0.1151523E+00
          2   -1    0    0  501    0  0.00000000000E+00  0.00000000000E+00  0.58517020012E+03  0.58517020013E+03  0.25500000000E-02 0.  1.
         -2   -1    0    0    0  501 -0.00000000000E+00 -0.00000000000E+00 -0.16731955619E+02  0.16731955813E+02  0.25500000000E-02 0. -1.
    5000001    1    1    2    0    0  0.12141883595E+02 -0.58835965439E+02  0.23584700359E+03  0.25526830055E+03  0.77000000000E+02 0.  0.
   -5000001    1    1    2    0    0 -0.12141883595E+02  0.58835965439E+02  0.33259124092E+03  0.34663385539E+03  0.77000000000E+02 0.  0.
<mgrwt>
<rscale>  0 0.19789939E+03</rscale>
<asrwt>0</asrwt>
<pdfrwt beam="1">  1        2 0.83595739E-01 0.19789939E+03</pdfrwt>
<pdfrwt beam="2">  1       -2 0.23902795E-02 0.19789939E+03</pdfrwt>
<totfact> 0.32543574E+04</totfact>
</mgrwt>
</event>
<event>
 4    1  0.5562790E-004  0.2287738E+03  0.7818608E-02  0.1127506E+00
          2   -1    0    0  501    0  0.00000000000E+00  0.00000000000E+00  0.53253188790E+03  0.53253188791E+03  0.25500000000E-02 0.  1.
         -2   -1    0    0    0  501 -0.00000000000E+00 -0.00000000000E+00 -0.24570098703E+02  0.24570098836E+02  0.25500000000E-02 0. -1.
    5000001    1    1    2    0    0  0.38600179306E+02 -0.10504915178E+02  0.43547888132E+03  0.44403961891E+03  0.77000000000E+02 0.  0.
   -5000001    1    1    2    0    0 -0.38600179306E+02  0.10504915178E+02  0.72482907873E+02  0.11306236783E+03  0.77000000000E+02 0.  0.
<mgrwt>
<rscale>  0 0.22877378E+03</rscale>
<asrwt>0</asrwt>
<pdfrwt beam="1">  1        2 0.76075977E-01 0.22877378E+03</pdfrwt>
<pdfrwt beam="2">  1       -2 0.35100144E-02 0.22877378E+03</pdfrwt>
<totfact> 0.20692238E+04</totfact>
</mgrwt>
</event>
<event>
 4    1  0.5562790E-004  0.4555996E+03  0.7818608E-02  0.1026065E+00
         -2   -1    0    0    0  501 -0.00000000000E+00  0.00000000000E+00  0.75700368467E+02  0.75700368510E+02  0.25500000000E-02 0. -1.
          2   -1    0    0  501    0  0.00000000000E+00 -0.00000000000E+00 -0.68550181601E+03  0.68550181602E+03  0.25500000000E-02 0.  1.
    5000001    1    1    2    0    0 -0.81899267489E+02 -0.18970933988E+03 -0.20940898544E+03  0.30410236243E+03  0.77000000000E+02 0.  0.
   -5000001    1    1    2    0    0  0.81899267489E+02  0.18970933988E+03 -0.40039246210E+03  0.45709982210E+03  0.77000000000E+02 0.  0.
<mgrwt>
<rscale>  0 0.45559956E+03</rscale>
<asrwt>0</asrwt>
<pdfrwt beam="1">  1        2 0.97928827E-01 0.45559956E+03</pdfrwt>
<pdfrwt beam="2">  1       -2 0.10814339E-01 0.45559956E+03</pdfrwt>
<totfact> 0.27717064E+03</totfact>
</mgrwt>
</event>
<event>
 4    1  0.5562790E-004  0.5272437E+03  0.7818608E-02  0.1006903E+00
          2   -1    0    0  501    0  0.00000000000E+00  0.00000000000E+00  0.14689640676E+04  0.14689640676E+04  0.25500000000E-02 0.  1.
         -2   -1    0    0    0  501 -0.00000000000E+00 -0.00000000000E+00 -0.47309848149E+02  0.47309848218E+02  0.25500000000E-02 0. -1.
    5000001    1    1    2    0    0 -0.49697433772E+02  0.23145679058E+03  0.96030421775E+03  0.99204600269E+03  0.77000000000E+02 0.  0.
   -5000001    1    1    2    0    0  0.49697433772E+02 -0.23145679058E+03  0.46135000166E+03  0.52422791309E+03  0.77000000000E+02 0.  0.
<mgrwt>
<rscale>  0 0.52724365E+03</rscale>
<asrwt>0</asrwt>
<pdfrwt beam="1">  1        2 0.20985199E+00 0.52724365E+03</pdfrwt>
<pdfrwt beam="2">  1       -2 0.67585504E-02 0.52724365E+03</pdfrwt>
<totfact> 0.19810617E+03</totfact>
</mgrwt>
</event>
<event>
 4    1  0.5562790E-004  0.2396895E+03  0.7818608E-02  0.1120000E+00
          2   -1    0    0  501    0  0.00000000000E+00  0.00000000000E+00  0.14704089442E+03  0.14704089444E+03  0.25500000000E-02 0.  1.
         -2   -1    0    0    0  501 -0.00000000000E+00 -0.00000000000E+00 -0.97678714787E+02  0.97678714820E+02  0.25500000000E-02 0. -1.
    5000001    1    1    2    0    0 -0.84837987000E+02 -0.31608321264E+01 -0.11072236716E+02  0.11514803222E+03  0.77000000000E+02 0.  0.
   -5000001    1    1    2    0    0  0.84837987000E+02  0.31608321264E+01  0.60434416349E+02  0.12957157704E+03  0.77000000000E+02 0.  0.
<mgrwt>
<rscale>  0 0.23968951E+03</rscale>
<asrwt>0</asrwt>
<pdfrwt beam="1">  1        2 0.21005842E-01 0.23968951E+03</pdfrwt>
<pdfrwt beam="2">  1       -2 0.13954102E-01 0.23968951E+03</pdfrwt>
<totfact> 0.99376651E+03</totfact>
</mgrwt>
</event>
<event>
 4    1  0.5562790E-004  0.2695902E+03  0.7818608E-02  0.1101514E+00
          2   -1    0    0  501    0  0.00000000000E+00  0.00000000000E+00  0.29983113316E+04  0.29983113316E+04  0.25500000000E-02 0.  1.
         -2   -1    0    0    0  501 -0.00000000000E+00 -0.00000000000E+00 -0.60599834983E+01  0.60599840348E+01  0.25500000000E-02 0. -1.
    5000001    1    1    2    0    0 -0.64998656395E+02 -0.71613566041E+02  0.89729749515E+03  0.90577321830E+03  0.77000000000E+02 0.  0.
   -5000001    1    1    2    0    0  0.64998656395E+02  0.71613566041E+02  0.20949538530E+04  0.20985980974E+04  0.77000000000E+02 0.  0.
<mgrwt>
<rscale>  0 0.26959019E+03</rscale>
<asrwt>0</asrwt>
<pdfrwt beam="1">  1        2 0.42832934E+00 0.26959019E+03</pdfrwt>
<pdfrwt beam="2">  1       -2 0.86571368E-03 0.26959019E+03</pdfrwt>
<totfact> 0.73144656E+03</totfact>
</mgrwt>
</event>
<event>
 4    1  0.5562790E-004  0.4135153E+03  0.7818608E-02  0.1039198E+00
         -2   -1    0    0    0  501 -0.00000000000E+00  0.00000000000E+00  0.44122067064E+02  0.44122067137E+02  0.25500000000E-02 0. -1.
          2   -1    0    0  501    0  0.00000000000E+00 -0.00000000000E+00 -0.96887398022E+03  0.96887398023E+03  0.25500000000E-02 0.  1.
    5000001    1    1    2    0    0 -0.48752116159E+01 -0.14463507584E+03 -0.15370510672E+03  0.22471611576E+03  0.77000000000E+02 0.  0.
   -5000001    1    1    2    0    0  0.48752116159E+01  0.14463507584E+03 -0.77104680644E+03  0.78827993160E+03  0.77000000000E+02 0.  0.
<mgrwt>
<rscale>  0 0.41351529E+03</rscale>
<asrwt>0</asrwt>
<pdfrwt beam="1">  1        2 0.13841056E+00 0.41351529E+03</pdfrwt>
<pdfrwt beam="2">  1       -2 0.63031530E-02 0.41351529E+03</pdfrwt>
<totfact> 0.41942170E+03</totfact>
</mgrwt>
</event>
<event>
 4    1  0.5562790E-004  0.2862130E+03  0.7818608E-02  0.1092343E+00
         -2   -1    0    0    0  501 -0.00000000000E+00  0.00000000000E+00  0.10560001272E+02  0.10560001580E+02  0.25500000000E-02 0. -1.
          2   -1    0    0  501    0  0.00000000000E+00 -0.00000000000E+00 -0.19393433552E+04  0.19393433552E+04  0.25500000000E-02 0.  1.
    5000001    1    1    2    0    0  0.63931585771E+02  0.38213316273E+02 -0.16108142177E+04  0.16143726178E+04  0.77000000000E+02 0.  0.
   -5000001    1    1    2    0    0 -0.63931585771E+02 -0.38213316273E+02 -0.31796913623E+03  0.33553073897E+03  0.77000000000E+02 0.  0.
<mgrwt>
<rscale>  0 0.28621299E+03</rscale>
<asrwt>0</asrwt>
<pdfrwt beam="1">  1        2 0.27704882E+00 0.28621299E+03</pdfrwt>
<pdfrwt beam="2">  1       -2 0.15085729E-02 0.28621299E+03</pdfrwt>
<totfact> 0.11073610E+04</totfact>
</mgrwt>
</event>
<event>
 4    1  0.5562790E-004  0.3796283E+03  0.7818608E-02  0.1051071E+00
         -2   -1    0    0    0  501 -0.00000000000E+00  0.00000000000E+00  0.86998273834E+02  0.86998273872E+02  0.25500000000E-02 0. -1.
          2   -1    0    0  501    0  0.00000000000E+00 -0.00000000000E+00 -0.41413943842E+03  0.41413943842E+03  0.25500000000E-02 0.  1.
    5000001    1    1    2    0    0 -0.31768185289E+02 -0.11609365289E+03  0.13778107219E+01  0.14289105010E+03  0.77000000000E+02 0.  0.
   -5000001    1    1    2    0    0  0.31768185289E+02  0.11609365289E+03 -0.32851897530E+03  0.35824666219E+03  0.77000000000E+02 0.  0.
<mgrwt>
<rscale>  0 0.37962832E+03</rscale>
<asrwt>0</asrwt>
<pdfrwt beam="1">  1        2 0.59162776E-01 0.37962832E+03</pdfrwt>
<pdfrwt beam="2">  1       -2 0.12428325E-01 0.37962832E+03</pdfrwt>
<totfact> 0.39154744E+03</totfact>
</mgrwt>
</event>
<event>
 4    1  0.5562790E-004  0.2578623E+03  0.7818608E-02  0.1108434E+00
          2   -1    0    0  501    0  0.00000000000E+00  0.00000000000E+00  0.11469751531E+04  0.11469751531E+04  0.25500000000E-02 0.  1.
         -2   -1    0    0    0  501 -0.00000000000E+00 -0.00000000000E+00 -0.14493118782E+02  0.14493119006E+02  0.25500000000E-02 0. -1.
    5000001    1    1    2    0    0  0.66734649104E+01  0.88654131373E+02  0.32831948236E+03  0.34875030128E+03  0.77000000000E+02 0.  0.
   -5000001    1    1    2    0    0 -0.66734649104E+01 -0.88654131373E+02  0.80416255198E+03  0.81271797085E+03  0.77000000000E+02 0.  0.
<mgrwt>
<rscale>  0 0.25786235E+03</rscale>
<asrwt>0</asrwt>
<pdfrwt beam="1">  1        2 0.16385364E+00 0.25786235E+03</pdfrwt>
<pdfrwt beam="2">  1       -2 0.20704450E-02 0.25786235E+03</pdfrwt>
<totfact> 0.17517491E+04</totfact>
</mgrwt>
</event>
<event>
 4    1  0.5562790E-004  0.3482347E+03  0.7818608E-02  0.1063342E+00
          2   -1    0    0  501    0  0.00000000000E+00  0.00000000000E+00  0.54431520079E+03  0.54431520079E+03  0.25500000000E-02 0.  1.
         -2   -1    0    0    0  501 -0.00000000000E+00 -0.00000000000E+00 -0.55697237052E+02  0.55697237111E+02  0.25500000000E-02 0. -1.
    5000001    1    1    2    0    0 -0.12184036971E+03  0.49744430251E+02  0.99450233910E+02  0.18204102026E+03  0.77000000000E+02 0.  0.
   -5000001    1    1    2    0    0  0.12184036971E+03 -0.49744430251E+02  0.38916772982E+03  0.41797141764E+03  0.77000000000E+02 0.  0.
<mgrwt>
<rscale>  0 0.34823471E+03</rscale>
<asrwt>0</asrwt>
<pdfrwt beam="1">  1        2 0.77759320E-01 0.34823471E+03</pdfrwt>
<pdfrwt beam="2">  1       -2 0.79567475E-02 0.34823471E+03</pdfrwt>
<totfact> 0.58890146E+03</totfact>
</mgrwt>
</event>
<event>
 4    1  0.5562790E-004  0.2628355E+03  0.7818608E-02  0.1105451E+00
          2   -1    0    0  501    0  0.00000000000E+00  0.00000000000E+00  0.35447578221E+03  0.35447578222E+03  0.25500000000E-02 0.  1.
         -2   -1    0    0    0  501 -0.00000000000E+00 -0.00000000000E+00 -0.48721608323E+02  0.48721608390E+02  0.25500000000E-02 0. -1.
    5000001    1    1    2    0    0  0.47185740613E+02  0.87548653478E+02  0.94455555491E+02  0.15729625808E+03  0.77000000000E+02 0.  0.
   -5000001    1    1    2    0    0 -0.47185740613E+02 -0.87548653478E+02  0.21129861840E+03  0.24590113253E+03  0.77000000000E+02 0.  0.
<mgrwt>
<rscale>  0 0.26283554E+03</rscale>
<asrwt>0</asrwt>
<pdfrwt beam="1">  1        2 0.50639399E-01 0.26283554E+03</pdfrwt>
<pdfrwt beam="2">  1       -2 0.69602296E-02 0.26283554E+03</pdfrwt>
<totfact> 0.11494312E+04</totfact>
</mgrwt>
</event>
<event>
 4    1  0.5562790E-004  0.2018442E+03  0.7818608E-02  0.1148192E+00
         -2   -1    0    0    0  501 -0.00000000000E+00  0.00000000000E+00  0.33041098381E+03  0.33041098382E+03  0.25500000000E-02 0. -1.
          2   -1    0    0  501    0  0.00000000000E+00 -0.00000000000E+00 -0.30826079047E+02  0.30826079153E+02  0.25500000000E-02 0.  1.
    5000001    1    1    2    0    0  0.63112293780E+02 -0.16522997800E+02  0.15036972800E+03  0.18109728375E+03  0.77000000000E+02 0.  0.
   -5000001    1    1    2    0    0 -0.63112293780E+02  0.16522997800E+02  0.14921517677E+03  0.18013977923E+03  0.77000000000E+02 0.  0.
<mgrwt>
<rscale>  0 0.20184425E+03</rscale>
<asrwt>0</asrwt>
<pdfrwt beam="1">  1        2 0.44037254E-02 0.20184425E+03</pdfrwt>
<pdfrwt beam="2">  1       -2 0.47201571E-01 0.20184425E+03</pdfrwt>
<totfact> 0.78090834E+03</totfact>
</mgrwt>
</event>
<event>
 4    1  0.5562790E-004  0.2886334E+03  0.7818608E-02  0.1091065E+00
          2   -1    0    0  501    0  0.00000000000E+00  0.00000000000E+00  0.73775380397E+03  0.73775380397E+03  0.25500000000E-02 0.  1.
         -2   -1    0    0    0  501 -0.00000000000E+00 -0.00000000000E+00 -0.28230709072E+02  0.28230709188E+02  0.25500000000E-02 0. -1.
    5000001    1    1    2    0    0  0.10390477099E+03 -0.58719372007E+02  0.28688636063E+03  0.32012021179E+03  0.77000000000E+02 0.  0.
   -5000001    1    1    2    0    0 -0.10390477099E+03  0.58719372007E+02  0.42263673426E+03  0.44586430136E+03  0.77000000000E+02 0.  0.
<mgrwt>
<rscale>  0 0.28863342E+03</rscale>
<asrwt>0</asrwt>
<pdfrwt beam="1">  1        2 0.10539339E+00 0.28863342E+03</pdfrwt>
<pdfrwt beam="2">  1       -2 0.40329587E-02 0.28863342E+03</pdfrwt>
<totfact> 0.11669517E+04</totfact>
</mgrwt>
</event>
<event>
 4    1  0.5562790E-004  0.2037207E+03  0.7818608E-02  0.1146637E+00
         -2   -1    0    0    0  501 -0.00000000000E+00  0.00000000000E+00  0.10340561358E+02  0.10340561672E+02  0.25500000000E-02 0. -1.
          2   -1    0    0  501    0  0.00000000000E+00 -0.00000000000E+00 -0.10033820867E+04  0.10033820867E+04  0.25500000000E-02 0.  1.
    5000001    1    1    2    0    0 -0.19412244879E+02  0.63294827830E+02 -0.45687957516E+03  0.46802886308E+03  0.77000000000E+02 0.  0.
   -5000001    1    1    2    0    0  0.19412244879E+02 -0.63294827830E+02 -0.53616195014E+03  0.54569378525E+03  0.77000000000E+02 0.  0.
<mgrwt>
<rscale>  0 0.20372073E+03</rscale>
<asrwt>0</asrwt>
<pdfrwt beam="1">  1        2 0.14334024E+00 0.20372073E+03</pdfrwt>
<pdfrwt beam="2">  1       -2 0.14772237E-02 0.20372073E+03</pdfrwt>
<totfact> 0.34145538E+04</totfact>
</mgrwt>
</event>
<event>
 4    1  0.5562790E-004  0.2038613E+03  0.7818608E-02  0.1146522E+00
          2   -1    0    0  501    0  0.00000000000E+00  0.00000000000E+00  0.44845986829E+03  0.44845986830E+03  0.25500000000E-02 0.  1.
         -2   -1    0    0    0  501 -0.00000000000E+00 -0.00000000000E+00 -0.23167862310E+02  0.23167862450E+02  0.25500000000E-02 0. -1.
    5000001    1    1    2    0    0 -0.29784605323E+02 -0.59770904815E+02  0.21515133399E+03  0.23807305663E+03  0.77000000000E+02 0.  0.
   -5000001    1    1    2    0    0  0.29784605323E+02  0.59770904815E+02  0.21014067199E+03  0.23355467411E+03  0.77000000000E+02 0.  0.
<mgrwt>
<rscale>  0 0.20386129E+03</rscale>
<asrwt>0</asrwt>
<pdfrwt beam="1">  1        2 0.64065696E-01 0.20386129E+03</pdfrwt>
<pdfrwt beam="2">  1       -2 0.33096946E-02 0.20386129E+03</pdfrwt>
<totfact> 0.27047789E+04</totfact>
</mgrwt>
</event>
<event>
 4    1  0.5562790E-004  0.5603382E+03  0.7818608E-02  0.9991290E-01
          2   -1    0    0  501    0  0.00000000000E+00  0.00000000000E+00  0.81762918423E+02  0.81762918463E+02  0.25500000000E-02 0.  1.
         -2   -1    0    0    0  501 -0.00000000000E+00 -0.00000000000E+00 -0.96002830257E+03  0.96002830257E+03  0.25500000000E-02 0. -1.
    5000001    1    1    2    0    0 -0.11991418836E+03 -0.24063498894E+03 -0.47030471843E+03  0.54717468750E+03  0.77000000000E+02 0.  0.
   -5000001    1    1    2    0    0  0.11991418836E+03  0.24063498894E+03 -0.40796066572E+03  0.49461653353E+03  0.77000000000E+02 0.  0.
<mgrwt>
<rscale>  0 0.56033817E+03</rscale>
<asrwt>0</asrwt>
<pdfrwt beam="1">  1        2 0.11680417E-01 0.56033817E+03</pdfrwt>
<pdfrwt beam="2">  1       -2 0.13714689E+00 0.56033817E+03</pdfrwt>
<totfact> 0.21006547E+02</totfact>
</mgrwt>
</event>
<event>
 4    1  0.5562790E-004  0.3220161E+03  0.7818608E-02  0.1074725E+00
         -2   -1    0    0    0  501 -0.00000000000E+00  0.00000000000E+00  0.16447980364E+02  0.16447980562E+02  0.25500000000E-02 0. -1.
          2   -1    0    0  501    0  0.00000000000E+00 -0.00000000000E+00 -0.15760956463E+04  0.15760956463E+04  0.25500000000E-02 0.  1.
    5000001    1    1    2    0    0 -0.12616219719E+02 -0.13697245259E+03 -0.61775124544E+03  0.63754703592E+03  0.77000000000E+02 0.  0.
   -5000001    1    1    2    0    0  0.12616219719E+02  0.13697245259E+03 -0.94189642052E+03  0.95499659097E+03  0.77000000000E+02 0.  0.
<mgrwt>
<rscale>  0 0.32201609E+03</rscale>
<asrwt>0</asrwt>
<pdfrwt beam="1">  1        2 0.22515642E+00 0.32201609E+03</pdfrwt>
<pdfrwt beam="2">  1       -2 0.23497125E-02 0.32201609E+03</pdfrwt>
<totfact> 0.87276901E+03</totfact>
</mgrwt>
</event>
<event>
 4    1  0.5562790E-004  0.2106202E+03  0.7818608E-02  0.1141076E+00
          2   -1    0    0  501    0  0.00000000000E+00  0.00000000000E+00  0.22629278594E+04  0.22629278594E+04  0.25500000000E-02 0.  1.
         -2   -1    0    0    0  501 -0.00000000000E+00 -0.00000000000E+00 -0.49008247286E+01  0.49008253920E+01  0.25500000000E-02 0. -1.
    5000001    1    1    2    0    0 -0.45480138372E+02  0.27413029092E+02  0.16500144418E+04  0.16526634791E+04  0.77000000000E+02 0.  0.
   -5000001    1    1    2    0    0  0.45480138372E+02 -0.27413029092E+02  0.60801259286E+03  0.61516520564E+03  0.77000000000E+02 0.  0.
<mgrwt>
<rscale>  0 0.21062017E+03</rscale>
<asrwt>0</asrwt>
<pdfrwt beam="1">  1        2 0.32327564E+00 0.21062017E+03</pdfrwt>
<pdfrwt beam="2">  1       -2 0.70011737E-03 0.21062017E+03</pdfrwt>
<totfact> 0.23258958E+04</totfact>
</mgrwt>
</event>
<event>
 4    1  0.5562790E-004  0.1612375E+03  0.7818608E-02  0.1187307E+00
         -2   -1    0    0    0  501 -0.00000000000E+00  0.00000000000E+00  0.22209116746E+01  0.22209131385E+01  0.25500000000E-02 0. -1.
          2   -1    0    0  501    0  0.00000000000E+00 -0.00000000000E+00 -0.29264462226E+04  0.29264462226E+04  0.25500000000E-02 0.  1.
    5000001    1    1    2    0    0 -0.93350207480E+01 -0.16171223351E+02 -0.17325806706E+04  0.17343913720E+04  0.77000000000E+02 0.  0.
   -5000001    1    1    2    0    0  0.93350207480E+01  0.16171223351E+02 -0.11916446403E+04  0.11942757638E+04  0.77000000000E+02 0.  0.
<mgrwt>
<rscale>  0 0.16123747E+03</rscale>
<asrwt>0</asrwt>
<pdfrwt beam="1">  1        2 0.41806128E+00 0.16123747E+03</pdfrwt>
<pdfrwt beam="2">  1       -2 0.31727508E-03 0.16123747E+03</pdfrwt>
<totfact> 0.33221105E+04</totfact>
</mgrwt>
</event>
<event>
 4    1  0.5562790E-004  0.3191810E+03  0.7818608E-02  0.1076027E+00
          2   -1    0    0  501    0  0.00000000000E+00  0.00000000000E+00  0.15495535379E+04  0.15495535379E+04  0.25500000000E-02 0.  1.
         -2   -1    0    0    0  501 -0.00000000000E+00 -0.00000000000E+00 -0.16436429230E+02  0.16436429428E+02  0.25500000000E-02 0. -1.
    5000001    1    1    2    0    0 -0.12068104540E+03 -0.56604336273E+02  0.56001882129E+03  0.58079087958E+03  0.77000000000E+02 0.  0.
   -5000001    1    1    2    0    0  0.12068104540E+03  0.56604336273E+02  0.97309828741E+03  0.98519908779E+03  0.77000000000E+02 0.  0.
<mgrwt>
<rscale>  0 0.31918100E+03</rscale>
<asrwt>0</asrwt>
<pdfrwt beam="1">  1        2 0.22136486E+00 0.31918100E+03</pdfrwt>
<pdfrwt beam="2">  1       -2 0.23480606E-02 0.31918100E+03</pdfrwt>
<totfact> 0.90085763E+03</totfact>
</mgrwt>
</event>
<event>
 4    1  0.5562790E-004  0.1689597E+03  0.7818608E-02  0.1178937E+00
          2   -1    0    0  501    0  0.00000000000E+00  0.00000000000E+00  0.21577362164E+03  0.21577362165E+03  0.25500000000E-02 0.  1.
         -2   -1    0    0    0  501 -0.00000000000E+00 -0.00000000000E+00 -0.33075622084E+02  0.33075622182E+02  0.25500000000E-02 0. -1.
    5000001    1    1    2    0    0 -0.10153452351E+02 -0.33082147320E+02  0.96081745478E+02  0.12789926849E+03  0.77000000000E+02 0.  0.
   -5000001    1    1    2    0    0  0.10153452351E+02  0.33082147320E+02  0.86616254074E+02  0.12094997534E+03  0.77000000000E+02 0.  0.
<mgrwt>
<rscale>  0 0.16895972E+03</rscale>
<asrwt>0</asrwt>
<pdfrwt beam="1">  1        2 0.30824804E-01 0.16895972E+03</pdfrwt>
<pdfrwt beam="2">  1       -2 0.47250887E-02 0.16895972E+03</pdfrwt>
<totfact> 0.34282280E+04</totfact>
</mgrwt>
</event>
<event>
 4    1  0.5562790E-004  0.2281917E+03  0.7818608E-02  0.1127919E+00
         -2   -1    0    0    0  501 -0.00000000000E+00  0.00000000000E+00  0.14350528195E+02  0.14350528421E+02  0.25500000000E-02 0. -1.
          2   -1    0    0  501    0  0.00000000000E+00 -0.00000000000E+00 -0.90713513937E+03  0.90713513937E+03  0.25500000000E-02 0.  1.
    5000001    1    1    2    0    0  0.23271213096E+02 -0.79366129410E+02 -0.51002921105E+03  0.52239767226E+03  0.77000000000E+02 0.  0.
   -5000001    1    1    2    0    0 -0.23271213096E+02  0.79366129410E+02 -0.38275540012E+03  0.39908799554E+03  0.77000000000E+02 0.  0.
<mgrwt>
<rscale>  0 0.22819175E+03</rscale>
<asrwt>0</asrwt>
<pdfrwt beam="1">  1        2 0.12959070E+00 0.22819175E+03</pdfrwt>
<pdfrwt beam="2">  1       -2 0.20500760E-02 0.22819175E+03</pdfrwt>
<totfact> 0.24356269E+04</totfact>
</mgrwt>
</event>
<event>
 4    1  0.5562790E-004  0.2017329E+03  0.7818608E-02  0.1148285E+00
          2   -1    0    0  501    0  0.00000000000E+00  0.00000000000E+00  0.15513615184E+04  0.15513615184E+04  0.25500000000E-02 0.  1.
         -2   -1    0    0    0  501 -0.00000000000E+00 -0.00000000000E+00 -0.65581339278E+01  0.65581344236E+01  0.25500000000E-02 0. -1.
    5000001    1    1    2    0    0 -0.52496247062E+02 -0.31659676255E+02  0.94279956949E+03  0.94792310832E+03  0.77000000000E+02 0.  0.
   -5000001    1    1    2    0    0  0.52496247062E+02  0.31659676255E+02  0.60200381500E+03  0.60999654452E+03  0.77000000000E+02 0.  0.
<mgrwt>
<rscale>  0 0.20173286E+03</rscale>
<asrwt>0</asrwt>
<pdfrwt beam="1">  1        2 0.22162298E+00 0.20173286E+03</pdfrwt>
<pdfrwt beam="2">  1       -2 0.93687673E-03 0.20173286E+03</pdfrwt>
<totfact> 0.33812559E+04</totfact>
</mgrwt>
</event>
<event>
 4    1  0.5562790E-004  0.4931772E+03  0.7818608E-02  0.1015575E+00
          2   -1    0    0  501    0  0.00000000000E+00  0.00000000000E+00  0.37859303634E+04  0.37859303634E+04  0.25500000000E-02 0.  1.
         -2   -1    0    0    0  501 -0.00000000000E+00 -0.00000000000E+00 -0.16061031423E+02  0.16061031625E+02  0.25500000000E-02 0. -1.
    5000001    1    1    2    0    0 -0.30590000332E+02  0.13512906686E+03  0.33411602199E+04  0.33449179703E+04  0.77000000000E+02 0.  0.
   -5000001    1    1    2    0    0  0.30590000332E+02 -0.13512906686E+03  0.42870911201E+03  0.45707342468E+03  0.77000000000E+02 0.  0.
<mgrwt>
<rscale>  0 0.49317724E+03</rscale>
<asrwt>0</asrwt>
<pdfrwt beam="1">  1        2 0.54084697E+00 0.49317724E+03</pdfrwt>
<pdfrwt beam="2">  1       -2 0.22944340E-02 0.49317724E+03</pdfrwt>
<totfact> 0.59955230E+02</totfact>
</mgrwt>
</event>
<event>
 4    1  0.5562790E-004  0.1667085E+03  0.7818608E-02  0.1181324E+00
          2   -1    0    0  501    0  0.00000000000E+00  0.00000000000E+00  0.37843901505E+04  0.37843901505E+04  0.25500000000E-02 0.  1.
         -2   -1    0    0    0  501 -0.00000000000E+00 -0.00000000000E+00 -0.18359443838E+01  0.18359461547E+01  0.25500000000E-02 0. -1.
    5000001    1    1    2    0    0  0.27057727213E+02 -0.19916873661E+01  0.15093120931E+04  0.15115184689E+04  0.77000000000E+02 0.  0.
   -5000001    1    1    2    0    0 -0.27057727213E+02  0.19916873661E+01  0.22732421131E+04  0.22747076278E+04  0.77000000000E+02 0.  0.
<mgrwt>
<rscale>  0 0.16670853E+03</rscale>
<asrwt>0</asrwt>
<pdfrwt beam="1">  1        2 0.54062329E+00 0.16670853E+03</pdfrwt>
<pdfrwt beam="2">  1       -2 0.26227977E-03 0.16670853E+03</pdfrwt>
<totfact> 0.14507379E+04</totfact>
</mgrwt>
</event>
<event>
 4    1  0.5562790E-004  0.2795321E+03  0.7818608E-02  0.1095945E+00
         -2   -1    0    0    0  501 -0.00000000000E+00  0.00000000000E+00  0.77096415337E+02  0.77096415379E+02  0.25500000000E-02 0. -1.
          2   -1    0    0  501    0  0.00000000000E+00 -0.00000000000E+00 -0.25337819886E+03  0.25337819888E+03  0.25500000000E-02 0.  1.
    5000001    1    1    2    0    0 -0.25727937602E+02 -0.11284546272E+03 -0.10525384557E+03  0.17436569971E+03  0.77000000000E+02 0.  0.
   -5000001    1    1    2    0    0  0.25727937602E+02  0.11284546272E+03 -0.71027937958E+02  0.15610891454E+03  0.77000000000E+02 0.  0.
<mgrwt>
<rscale>  0 0.27953212E+03</rscale>
<asrwt>0</asrwt>
<pdfrwt beam="1">  1        2 0.36196885E-01 0.27953212E+03</pdfrwt>
<pdfrwt beam="2">  1       -2 0.11013774E-01 0.27953212E+03</pdfrwt>
<totfact> 0.80389813E+03</totfact>
</mgrwt>
</event>
<event>
 4    1  0.5562790E-004  0.1952574E+03  0.7818608E-02  0.1153803E+00
         -2   -1    0    0    0  501 -0.00000000000E+00  0.00000000000E+00  0.86170870430E+02  0.86170870468E+02  0.25500000000E-02 0. -1.
          2   -1    0    0  501    0  0.00000000000E+00 -0.00000000000E+00 -0.11061002018E+03  0.11061002021E+03  0.25500000000E-02 0.  1.
    5000001    1    1    2    0    0 -0.55187188852E+02 -0.48755838059E+01 -0.35485730543E+02  0.10127997928E+03  0.77000000000E+02 0.  0.
   -5000001    1    1    2    0    0  0.55187188852E+02  0.48755838059E+01  0.11046580791E+02  0.95500911399E+02  0.77000000000E+02 0.  0.
<mgrwt>
<rscale>  0 0.19525739E+03</rscale>
<asrwt>0</asrwt>
<pdfrwt beam="1">  1        2 0.15801431E-01 0.19525739E+03</pdfrwt>
<pdfrwt beam="2">  1       -2 0.12310124E-01 0.19525739E+03</pdfrwt>
<totfact> 0.16692522E+04</totfact>
</mgrwt>
</event>
<event>
 4    1  0.5562790E-004  0.3084009E+03  0.7818608E-02  0.1081115E+00
         -2   -1    0    0    0  501 -0.00000000000E+00  0.00000000000E+00  0.10900392078E+02  0.10900392376E+02  0.25500000000E-02 0. -1.
          2   -1    0    0  501    0  0.00000000000E+00 -0.00000000000E+00 -0.21813693779E+04  0.21813693780E+04  0.25500000000E-02 0.  1.
    5000001    1    1    2    0    0  0.12072886684E+03  0.58800683777E+01 -0.68068946833E+03  0.69561281385E+03  0.77000000000E+02 0.  0.
   -5000001    1    1    2    0    0 -0.12072886684E+03 -0.58800683777E+01 -0.14897795175E+04  0.14966569565E+04  0.77000000000E+02 0.  0.
<mgrwt>
<rscale>  0 0.30840092E+03</rscale>
<asrwt>0</asrwt>
<pdfrwt beam="1">  1        2 0.31162392E+00 0.30840092E+03</pdfrwt>
<pdfrwt beam="2">  1       -2 0.15572003E-02 0.30840092E+03</pdfrwt>
<totfact> 0.80543306E+03</totfact>
</mgrwt>
</event>
<event>
 4    1  0.5562790E-004  0.2419639E+03  0.7818608E-02  0.1118491E+00
          2   -1    0    0  501    0  0.00000000000E+00  0.00000000000E+00  0.16075873271E+02  0.16075873473E+02  0.25500000000E-02 0.  1.
         -2   -1    0    0    0  501 -0.00000000000E+00 -0.00000000000E+00 -0.91047172443E+03  0.91047172443E+03  0.25500000000E-02 0. -1.
    5000001    1    1    2    0    0 -0.59546655628E+02  0.24910259065E+02 -0.18914579071E+03  0.21417622498E+03  0.77000000000E+02 0.  0.
   -5000001    1    1    2    0    0  0.59546655628E+02 -0.24910259065E+02 -0.70525006045E+03  0.71237137292E+03  0.77000000000E+02 0.  0.
<mgrwt>
<rscale>  0 0.24196387E+03</rscale>
<asrwt>0</asrwt>
<pdfrwt beam="1">  1        2 0.22965539E-02 0.24196387E+03</pdfrwt>
<pdfrwt beam="2">  1       -2 0.13006736E+00 0.24196387E+03</pdfrwt>
<totfact> 0.20471621E+03</totfact>
</mgrwt>
</event>
<event>
 4    1  0.5562790E-004  0.3187422E+03  0.7818608E-02  0.1076230E+00
          2   -1    0    0  501    0  0.00000000000E+00  0.00000000000E+00  0.49014584155E+04  0.49014584155E+04  0.25500000000E-02 0.  1.
         -2   -1    0    0    0  501 -0.00000000000E+00 -0.00000000000E+00 -0.51819559721E+01  0.51819565995E+01  0.25500000000E-02 0. -1.
    5000001    1    1    2    0    0 -0.11662809971E+03 -0.71767660205E+02  0.28604590246E+04  0.28647700680E+04  0.77000000000E+02 0.  0.
   -5000001    1    1    2    0    0  0.11662809971E+03  0.71767660205E+02  0.20358174348E+04  0.20418703041E+04  0.77000000000E+02 0.  0.
<mgrwt>
<rscale>  0 0.31874217E+03</rscale>
<asrwt>0</asrwt>
<pdfrwt beam="1">  1        2 0.70021237E+00 0.31874217E+03</pdfrwt>
<pdfrwt beam="2">  1       -2 0.74027522E-03 0.31874217E+03</pdfrwt>
<totfact> 0.49469173E+02</totfact>
</mgrwt>
</event>
<event>
 4    1  0.5562790E-004  0.4840676E+03  0.7818608E-02  0.1018023E+00
         -2   -1    0    0    0  501 -0.00000000000E+00  0.00000000000E+00  0.24390296335E+02  0.24390296469E+02  0.25500000000E-02 0. -1.
          2   -1    0    0  501    0  0.00000000000E+00 -0.00000000000E+00 -0.24017900751E+04  0.24017900751E+04  0.25500000000E-02 0.  1.
    5000001    1    1    2    0    0  0.14261749634E+03 -0.12773167450E+03 -0.18226075427E+04  0.18342525414E+04  0.77000000000E+02 0.  0.
   -5000001    1    1    2    0    0 -0.14261749634E+03  0.12773167450E+03 -0.55479223615E+03  0.59192783025E+03  0.77000000000E+02 0.  0.
<mgrwt>
<rscale>  0 0.48406765E+03</rscale>
<asrwt>0</asrwt>
<pdfrwt beam="1">  1        2 0.34311272E+00 0.48406765E+03</pdfrwt>
<pdfrwt beam="2">  1       -2 0.34843296E-02 0.48406765E+03</pdfrwt>
<totfact> 0.18697755E+03</totfact>
</mgrwt>
</event>
<event>
 4    1  0.5562790E-004  0.3104340E+03  0.7818608E-02  0.1080138E+00
          2   -1    0    0  501    0  0.00000000000E+00  0.00000000000E+00  0.48661572209E+03  0.48661572210E+03  0.25500000000E-02 0. -1.
         -2   -1    0    0    0  501 -0.00000000000E+00 -0.00000000000E+00 -0.49509957422E+02  0.49509957487E+02  0.25500000000E-02 0.  1.
    5000001    1    1    2    0    0 -0.12107623633E+03 -0.54165412595E+02  0.25978407039E+03  0.30167881953E+03  0.77000000000E+02 0.  0.
   -5000001    1    1    2    0    0  0.12107623633E+03  0.54165412595E+02  0.17732169428E+03  0.23444686005E+03  0.77000000000E+02 0.  0.
<mgrwt>
<rscale>  0 0.31043404E+03</rscale>
<asrwt>0</asrwt>
<pdfrwt beam="1">  1        2 0.69516534E-01 0.31043404E+03</pdfrwt>
<pdfrwt beam="2">  1       -2 0.70728508E-02 0.31043404E+03</pdfrwt>
<totfact> 0.79964663E+03</totfact>
</mgrwt>
</event>
<event>
 4    1  0.5562790E-004  0.2938115E+03  0.7818608E-02  0.1088376E+00
         -2   -1    0    0    0  501 -0.00000000000E+00  0.00000000000E+00  0.16488260176E+04  0.16488260176E+04  0.25500000000E-02 0. -1.
          2   -1    0    0  501    0  0.00000000000E+00 -0.00000000000E+00 -0.13088891109E+02  0.13088891357E+02  0.25500000000E-02 0.  1.
    5000001    1    1    2    0    0 -0.11515193491E+03 -0.48853525907E+02  0.80440051052E+03  0.81770154484E+03  0.77000000000E+02 0.  0.
   -5000001    1    1    2    0    0  0.11515193491E+03  0.48853525907E+02  0.83133661601E+03  0.84421336416E+03  0.77000000000E+02 0.  0.
<mgrwt>
<rscale>  0 0.29381153E+03</rscale>
<asrwt>0</asrwt>
<pdfrwt beam="1">  1        2 0.18698434E-02 0.29381153E+03</pdfrwt>
<pdfrwt beam="2">  1       -2 0.23554634E+00 0.29381153E+03</pdfrwt>
<totfact> 0.52596049E+02</totfact>
</mgrwt>
</event>
<event>
 4    1  0.5562790E-004  0.2324094E+03  0.7818608E-02  0.1124955E+00
          2   -1    0    0  501    0  0.00000000000E+00  0.00000000000E+00  0.10142485258E+04  0.10142485259E+04  0.25500000000E-02 0.  1.
         -2   -1    0    0    0  501 -0.00000000000E+00 -0.00000000000E+00 -0.13313829621E+02  0.13313829865E+02  0.25500000000E-02 0. -1.
    5000001    1    1    2    0    0  0.26823531879E+01 -0.86949853731E+02  0.51221524903E+03  0.52522465043E+03  0.77000000000E+02 0.  0.
   -5000001    1    1    2    0    0 -0.26823531879E+01  0.86949853731E+02  0.48871944719E+03  0.50233770528E+03  0.77000000000E+02 0.  0.
<mgrwt>
<rscale>  0 0.23240940E+03</rscale>
<asrwt>0</asrwt>
<pdfrwt beam="1">  1        2 0.14489268E+00 0.23240940E+03</pdfrwt>
<pdfrwt beam="2">  1       -2 0.19019752E-02 0.23240940E+03</pdfrwt>
<totfact> 0.23471356E+04</totfact>
</mgrwt>
</event>
<event>
 4    1  0.5562790E-004  0.2333637E+03  0.7818608E-02  0.1124294E+00
          2   -1    0    0  501    0  0.00000000000E+00  0.00000000000E+00  0.92136678258E+02  0.92136678294E+02  0.25500000000E-02 0.  1.
         -2   -1    0    0    0  501 -0.00000000000E+00 -0.00000000000E+00 -0.14776580190E+03  0.14776580193E+03  0.25500000000E-02 0. -1.
    5000001    1    1    2    0    0 -0.82597842291E+02 -0.29047291321E+02 -0.23274777946E+02  0.11889854487E+03  0.77000000000E+02 0.  0.
   -5000001    1    1    2    0    0  0.82597842291E+02  0.29047291321E+02 -0.32354345700E+02  0.12100393535E+03  0.77000000000E+02 0.  0.
<mgrwt>
<rscale>  0 0.23336367E+03</rscale>
<asrwt>0</asrwt>
<pdfrwt beam="1">  1        2 0.13162383E-01 0.23336367E+03</pdfrwt>
<pdfrwt beam="2">  1       -2 0.21109400E-01 0.23336367E+03</pdfrwt>
<totfact> 0.85639894E+03</totfact>
</mgrwt>
</event>
<event>
 4    1  0.5562790E-004  0.2925373E+03  0.7818608E-02  0.1089032E+00
          2   -1    0    0  501    0  0.00000000000E+00  0.00000000000E+00  0.12013659700E+04  0.12013659700E+04  0.25500000000E-02 0.  1.
         -2   -1    0    0    0  501 -0.00000000000E+00 -0.00000000000E+00 -0.17808489311E+02  0.17808489493E+02  0.25500000000E-02 0. -1.
    5000001    1    1    2    0    0  0.26250560162E+02 -0.74600200409E+02  0.19179392809E+03  0.22128757910E+03  0.77000000000E+02 0.  0.
   -5000001    1    1    2    0    0 -0.26250560162E+02  0.74600200409E+02  0.99176355255E+03  0.99788688035E+03  0.77000000000E+02 0.  0.
<mgrwt>
<rscale>  0 0.29253727E+03</rscale>
<asrwt>0</asrwt>
<pdfrwt beam="1">  1        2 0.17162372E+00 0.29253727E+03</pdfrwt>
<pdfrwt beam="2">  1       -2 0.25440697E-02 0.29253727E+03</pdfrwt>
<totfact> 0.12120769E+04</totfact>
</mgrwt>
</event>
<event>
 4    1  0.5562790E-004  0.3797875E+03  0.7818608E-02  0.1051012E+00
         -2   -1    0    0    0  501 -0.00000000000E+00  0.00000000000E+00  0.31012674766E+02  0.31012674871E+02  0.25500000000E-02 0. -1.
          2   -1    0    0  501    0  0.00000000000E+00 -0.00000000000E+00 -0.11627384075E+04  0.11627384075E+04  0.25500000000E-02 0.  1.
    5000001    1    1    2    0    0  0.31966074336E+01  0.93747960717E+02 -0.10678516674E+03  0.16165076639E+03  0.77000000000E+02 0.  0.
   -5000001    1    1    2    0    0 -0.31966074336E+01 -0.93747960717E+02 -0.10249405660E+04  0.10321003160E+04  0.77000000000E+02 0.  0.
<mgrwt>
<rscale>  0 0.37978746E+03</rscale>
<asrwt>0</asrwt>
<pdfrwt beam="1">  1        2 0.16610546E+00 0.37978746E+03</pdfrwt>
<pdfrwt beam="2">  1       -2 0.44303828E-02 0.37978746E+03</pdfrwt>
<totfact> 0.55608506E+03</totfact>
</mgrwt>
</event>
<event>
 4    1  0.5562790E-004  0.3550592E+03  0.7818608E-02  0.1060557E+00
          2   -1    0    0  501    0  0.00000000000E+00  0.00000000000E+00  0.17713225453E+04  0.17713225453E+04  0.25500000000E-02 0.  1.
         -2   -1    0    0    0  501 -0.00000000000E+00 -0.00000000000E+00 -0.17792783704E+02  0.17792783887E+02  0.25500000000E-02 0. -1.
    5000001    1    1    2    0    0  0.10043858236E+03 -0.70676184429E+02  0.13932168702E+04  0.14007374055E+04  0.77000000000E+02 0.  0.
   -5000001    1    1    2    0    0 -0.10043858236E+03  0.70676184429E+02  0.36031289143E+03  0.38837792368E+03  0.77000000000E+02 0.  0.
<mgrwt>
<rscale>  0 0.35505920E+03</rscale>
<asrwt>0</asrwt>
<pdfrwt beam="1">  1        2 0.25304598E+00 0.35505920E+03</pdfrwt>
<pdfrwt beam="2">  1       -2 0.25418272E-02 0.35505920E+03</pdfrwt>
<totfact> 0.62113985E+03</totfact>
</mgrwt>
</event>
<event>
 4    1  0.5562790E-004  0.1897724E+03  0.7818608E-02  0.1158667E+00
          2   -1    0    0  501    0  0.00000000000E+00  0.00000000000E+00  0.10466006601E+04  0.10466006601E+04  0.25500000000E-02 0.  1.
         -2   -1    0    0    0  501 -0.00000000000E+00 -0.00000000000E+00 -0.86025072531E+01  0.86025076310E+01  0.25500000000E-02 0. -1.
    5000001    1    1    2    0    0 -0.53293066827E+02  0.49516009276E+01  0.59952276385E+03  0.60681233812E+03  0.77000000000E+02 0.  0.
   -5000001    1    1    2    0    0  0.53293066827E+02 -0.49516009276E+01  0.43847538899E+03  0.44839082961E+03  0.77000000000E+02 0.  0.
<mgrwt>
<rscale>  0 0.18977239E+03</rscale>
<asrwt>0</asrwt>
<pdfrwt beam="1">  1        2 0.14951439E+00 0.18977239E+03</pdfrwt>
<pdfrwt beam="2">  1       -2 0.12289295E-02 0.18977239E+03</pdfrwt>
<totfact> 0.41874434E+04</totfact>
</mgrwt>
</event>
<event>
 4    1  0.5562790E-004  0.8638779E+03  0.7818608E-02  0.9471898E-01
          2   -1    0    0  501    0  0.00000000000E+00  0.00000000000E+00  0.74478714528E+03  0.74478714528E+03  0.25500000000E-02 0.  1.
         -2   -1    0    0    0  501 -0.00000000000E+00 -0.00000000000E+00 -0.25050277974E+03  0.25050277976E+03  0.25500000000E-02 0. -1.
    5000001    1    1    2    0    0 -0.74933626856E+02 -0.41630710684E+03  0.19942172686E+03  0.47394586271E+03  0.77000000000E+02 0.  0.
   -5000001    1    1    2    0    0  0.74933626856E+02  0.41630710684E+03  0.29486263868E+03  0.52134406233E+03  0.77000000000E+02 0.  0.
<mgrwt>
<rscale>  0 0.86387789E+03</rscale>
<asrwt>0</asrwt>
<pdfrwt beam="1">  1        2 0.10639817E+00 0.86387789E+03</pdfrwt>
<pdfrwt beam="2">  1       -2 0.35786111E-01 0.86387789E+03</pdfrwt>
<totfact> 0.30634497E+02</totfact>
</mgrwt>
</event>
<event>
 4    1  0.5562790E-004  0.5865228E+03  0.7818608E-02  0.9933768E-01
         -2   -1    0    0    0  501 -0.00000000000E+00  0.00000000000E+00  0.58606299944E+02  0.58606300000E+02  0.25500000000E-02 0. -1.
          2   -1    0    0  501    0  0.00000000000E+00 -0.00000000000E+00 -0.14674573782E+04  0.14674573782E+04  0.25500000000E-02 0.  1.
    5000001    1    1    2    0    0 -0.17095775966E+03 -0.21196087615E+03 -0.90460621646E+03  0.94783720937E+03  0.77000000000E+02 0.  0.
   -5000001    1    1    2    0    0  0.17095775966E+03  0.21196087615E+03 -0.50424486176E+03  0.57822646880E+03  0.77000000000E+02 0.  0.
<mgrwt>
<rscale>  0 0.58652280E+03</rscale>
<asrwt>0</asrwt>
<pdfrwt beam="1">  1        2 0.20963675E+00 0.58652280E+03</pdfrwt>
<pdfrwt beam="2">  1       -2 0.83723295E-02 0.58652280E+03</pdfrwt>
<totfact> 0.14110910E+03</totfact>
</mgrwt>
</event>
<event>
 4    1  0.5562790E-004  0.2317344E+03  0.7818608E-02  0.1125425E+00
          2   -1    0    0  501    0  0.00000000000E+00  0.00000000000E+00  0.37931131031E+03  0.37931131032E+03  0.25500000000E-02 0.  1.
         -2   -1    0    0    0  501 -0.00000000000E+00 -0.00000000000E+00 -0.35393632472E+02  0.35393632563E+02  0.25500000000E-02 0. -1.
    5000001    1    1    2    0    0 -0.70896460929E+02  0.43115484710E+02  0.12772524020E+03  0.17066924204E+03  0.77000000000E+02 0.  0.
   -5000001    1    1    2    0    0  0.70896460929E+02 -0.43115484710E+02  0.21619243763E+03  0.24403570084E+03  0.77000000000E+02 0.  0.
<mgrwt>
<rscale>  0 0.23173437E+03</rscale>
<asrwt>0</asrwt>
<pdfrwt beam="1">  1        2 0.54187331E-01 0.23173437E+03</pdfrwt>
<pdfrwt beam="2">  1       -2 0.50562331E-02 0.23173437E+03</pdfrwt>
<totfact> 0.17313019E+04</totfact>
</mgrwt>
</event>
<event>
 4    1  0.5562790E-004  0.2222835E+03  0.7818608E-02  0.1132192E+00
         -2   -1    0    0    0  501 -0.00000000000E+00  0.00000000000E+00  0.11657934713E+02  0.11657934992E+02  0.25500000000E-02 0. -1.
          2   -1    0    0  501    0  0.00000000000E+00 -0.00000000000E+00 -0.10595776269E+04  0.10595776270E+04  0.25500000000E-02 0.  1.
    5000001    1    1    2    0    0 -0.10375843420E+01 -0.28535101994E+02 -0.88486070602E+03  0.88866348957E+03  0.77000000000E+02 0.  0.
   -5000001    1    1    2    0    0  0.10375843420E+01  0.28535101994E+02 -0.16305898621E+03  0.18257207238E+03  0.77000000000E+02 0.  0.
<mgrwt>
<rscale>  0 0.22228349E+03</rscale>
<asrwt>0</asrwt>
<pdfrwt beam="1">  1        2 0.15136817E+00 0.22228349E+03</pdfrwt>
<pdfrwt beam="2">  1       -2 0.16654199E-02 0.22228349E+03</pdfrwt>
<totfact> 0.26767627E+04</totfact>
</mgrwt>
</event>
<event>
 4    1  0.5562790E-004  0.3151418E+03  0.7818608E-02  0.1077907E+00
          2   -1    0    0  501    0  0.00000000000E+00  0.00000000000E+00  0.38983403578E+02  0.38983403661E+02  0.25500000000E-02 0.  1.
         -2   -1    0    0    0  501 -0.00000000000E+00 -0.00000000000E+00 -0.63690160434E+03  0.63690160434E+03  0.25500000000E-02 0. -1.
    5000001    1    1    2    0    0 -0.93544549925E+01  0.93036638335E+02 -0.51509847807E+03  0.52914909431E+03  0.77000000000E+02 0.  0.
   -5000001    1    1    2    0    0  0.93544549925E+01 -0.93036638335E+02 -0.82819722691E+02  0.14673591369E+03  0.77000000000E+02 0.  0.
<mgrwt>
<rscale>  0 0.31514182E+03</rscale>
<asrwt>0</asrwt>
<pdfrwt beam="1">  1        2 0.55690580E-02 0.31514182E+03</pdfrwt>
<pdfrwt beam="2">  1       -2 0.90985937E-01 0.31514182E+03</pdfrwt>
<totfact> 0.14589089E+03</totfact>
</mgrwt>
</event>
<event>
 4    1  0.5562790E-004  0.1633743E+03  0.7818608E-02  0.1184939E+00
          2   -1    0    0  501    0  0.00000000000E+00  0.00000000000E+00  0.34417833880E+03  0.34417833881E+03  0.25500000000E-02 0.  1.
         -2   -1    0    0    0  501 -0.00000000000E+00 -0.00000000000E+00 -0.19387603124E+02  0.19387603292E+02  0.25500000000E-02 0. -1.
    5000001    1    1    2    0    0  0.13852821778E+02 -0.18681423202E+02  0.19409374247E+03  0.21010063567E+03  0.77000000000E+02 0.  0.
   -5000001    1    1    2    0    0 -0.13852821778E+02  0.18681423202E+02  0.13069699320E+03  0.15346530643E+03  0.77000000000E+02 0.  0.
<mgrwt>
<rscale>  0 0.16337433E+03</rscale>
<asrwt>0</asrwt>
<pdfrwt beam="1">  1        2 0.49168333E-01 0.16337433E+03</pdfrwt>
<pdfrwt beam="2">  1       -2 0.27696576E-02 0.16337433E+03</pdfrwt>
<totfact> 0.45828188E+04</totfact>
</mgrwt>
</event>
<event>
 4    1  0.5562790E-004  0.2347666E+03  0.7818608E-02  0.1123329E+00
          2   -1    0    0  501    0  0.00000000000E+00  0.00000000000E+00  0.14958840105E+03  0.14958840108E+03  0.25500000000E-02 0.  1.
         -2   -1    0    0    0  501 -0.00000000000E+00 -0.00000000000E+00 -0.92111655071E+02  0.92111655106E+02  0.25500000000E-02 0. -1.
    5000001    1    1    2    0    0 -0.15375969567E+02  0.86191225044E+02  0.14754612818E+02  0.11752466258E+03  0.77000000000E+02 0.  0.
   -5000001    1    1    2    0    0  0.15375969567E+02 -0.86191225044E+02  0.42722133166E+02  0.12417539360E+03  0.77000000000E+02 0.  0.
<mgrwt>
<rscale>  0 0.23476657E+03</rscale>
<asrwt>0</asrwt>
<pdfrwt beam="1">  1        2 0.21369771E-01 0.23476657E+03</pdfrwt>
<pdfrwt beam="2">  1       -2 0.13158808E-01 0.23476657E+03</pdfrwt>
<totfact> 0.10712890E+04</totfact>
</mgrwt>
</event>
<event>
 4    1  0.5562790E-004  0.1976186E+03  0.7818608E-02  0.1151764E+00
          2   -1    0    0  501    0  0.00000000000E+00  0.00000000000E+00  0.55905147540E+03  0.55905147540E+03  0.25500000000E-02 0.  1.
         -2   -1    0    0    0  501 -0.00000000000E+00 -0.00000000000E+00 -0.17464009240E+02  0.17464009426E+02  0.25500000000E-02 0. -1.
    5000001    1    1    2    0    0 -0.48429615874E+02  0.37170592389E+02  0.24058868050E+03  0.25988265394E+03  0.77000000000E+02 0.  0.
   -5000001    1    1    2    0    0  0.48429615874E+02 -0.37170592389E+02  0.30099878566E+03  0.31663283089E+03  0.77000000000E+02 0.  0.
<mgrwt>
<rscale>  0 0.19761862E+03</rscale>
<asrwt>0</asrwt>
<pdfrwt beam="1">  1        2 0.79864484E-01 0.19761862E+03</pdfrwt>
<pdfrwt beam="2">  1       -2 0.24948589E-02 0.19761862E+03</pdfrwt>
<totfact> 0.32160436E+04</totfact>
</mgrwt>
</event>
<event>
 4    1  0.5562790E-004  0.3688240E+03  0.7818608E-02  0.1055144E+00
          2   -1    0    0  501    0  0.00000000000E+00  0.00000000000E+00  0.37840169489E+03  0.37840169490E+03  0.25500000000E-02 0.  1.
         -2   -1    0    0    0  501 -0.00000000000E+00 -0.00000000000E+00 -0.89872185999E+02  0.89872186035E+02  0.25500000000E-02 0. -1.
    5000001    1    1    2    0    0  0.11815385695E+03  0.11095138348E+03  0.19825425116E+03  0.26740286369E+03  0.77000000000E+02 0.  0.
   -5000001    1    1    2    0    0 -0.11815385695E+03 -0.11095138348E+03  0.90275257732E+02  0.20087101724E+03  0.77000000000E+02 0.  0.
<mgrwt>
<rscale>  0 0.36882401E+03</rscale>
<asrwt>0</asrwt>
<pdfrwt beam="1">  1        2 0.54057386E-01 0.36882401E+03</pdfrwt>
<pdfrwt beam="2">  1       -2 0.12838883E-01 0.36882401E+03</pdfrwt>
<totfact> 0.40954884E+03</totfact>
</mgrwt>
</event>
<event>
 4    1  0.5562790E-004  0.2223343E+03  0.7818608E-02  0.1132155E+00
          2   -1    0    0  501    0  0.00000000000E+00  0.00000000000E+00  0.14127849652E+04  0.14127849652E+04  0.25500000000E-02 0.  1.
         -2   -1    0    0    0  501 -0.00000000000E+00 -0.00000000000E+00 -0.87473596586E+01  0.87473600303E+01  0.25500000000E-02 0. -1.
    5000001    1    1    2    0    0  0.47059030429E+02  0.86625161452E+01  0.11133831242E+04  0.11170678461E+04  0.77000000000E+02 0.  0.
   -5000001    1    1    2    0    0 -0.47059030429E+02 -0.86625161452E+01  0.29065448132E+03  0.30446447912E+03  0.77000000000E+02 0.  0.
<mgrwt>
<rscale>  0 0.22233433E+03</rscale>
<asrwt>0</asrwt>
<pdfrwt beam="1">  1        2 0.20182603E+00 0.22233433E+03</pdfrwt>
<pdfrwt beam="2">  1       -2 0.12496253E-02 0.22233433E+03</pdfrwt>
<totfact> 0.26314030E+04</totfact>
</mgrwt>
</event>
<event>
 4    1  0.5562790E-004  0.2320229E+03  0.7818608E-02  0.1125224E+00
         -2   -1    0    0    0  501 -0.00000000000E+00  0.00000000000E+00  0.81784461758E+03  0.81784461758E+03  0.25500000000E-02 0. -1.
          2   -1    0    0  501    0  0.00000000000E+00 -0.00000000000E+00 -0.16456257160E+02  0.16456257358E+02  0.25500000000E-02 0.  1.
    5000001    1    1    2    0    0  0.74662312712E+02  0.20152240676E+02  0.25917028607E+03  0.28120954985E+03  0.77000000000E+02 0.  0.
   -5000001    1    1    2    0    0 -0.74662312712E+02 -0.20152240676E+02  0.54221807434E+03  0.55309132509E+03  0.77000000000E+02 0.  0.
<mgrwt>
<rscale>  0 0.23202294E+03</rscale>
<asrwt>0</asrwt>
<pdfrwt beam="1">  1        2 0.23508938E-02 0.23202294E+03</pdfrwt>
<pdfrwt beam="2">  1       -2 0.11683495E+00 0.23202294E+03</pdfrwt>
<totfact> 0.25710283E+03</totfact>
</mgrwt>
</event>
<event>
 4    1  0.5562790E-004  0.2253024E+03  0.7818608E-02  0.1129990E+00
         -2   -1    0    0    0  501 -0.00000000000E+00  0.00000000000E+00  0.61397096427E+01  0.61397101722E+01  0.25500000000E-02 0. -1.
          2   -1    0    0  501    0  0.00000000000E+00 -0.00000000000E+00 -0.20669210345E+04  0.20669210345E+04  0.25500000000E-02 0.  1.
    5000001    1    1    2    0    0  0.13261292396E+02  0.64833811206E+02 -0.58131656140E+03  0.59011628474E+03  0.77000000000E+02 0.  0.
   -5000001    1    1    2    0    0 -0.13261292396E+02 -0.64833811206E+02 -0.14794647634E+04  0.14829444599E+04  0.77000000000E+02 0.  0.
<mgrwt>
<rscale>  0 0.22530242E+03</rscale>
<asrwt>0</asrwt>
<pdfrwt beam="1">  1        2 0.29527399E+00 0.22530242E+03</pdfrwt>
<pdfrwt beam="2">  1       -2 0.87710273E-03 0.22530242E+03</pdfrwt>
<totfact> 0.20978841E+04</totfact>
</mgrwt>
</event>
<event>
 4    1  0.5562790E-004  0.3305123E+03  0.7818608E-02  0.1070910E+00
          2   -1    0    0  501    0  0.00000000000E+00  0.00000000000E+00  0.99041246667E+03  0.99041246667E+03  0.25500000000E-02 0.  1.
         -2   -1    0    0    0  501 -0.00000000000E+00 -0.00000000000E+00 -0.27573965482E+02  0.27573965600E+02  0.25500000000E-02 0. -1.
    5000001    1    1    2    0    0 -0.58195543903E+02  0.13008503528E+03  0.58225241720E+03  0.60436389292E+03  0.77000000000E+02 0.  0.
   -5000001    1    1    2    0    0  0.58195543903E+02 -0.13008503528E+03  0.38058608398E+03  0.41362253935E+03  0.77000000000E+02 0.  0.
<mgrwt>
<rscale>  0 0.33051232E+03</rscale>
<asrwt>0</asrwt>
<pdfrwt beam="1">  1        2 0.14148747E+00 0.33051232E+03</pdfrwt>
<pdfrwt beam="2">  1       -2 0.39391387E-02 0.33051232E+03</pdfrwt>
<totfact> 0.83320708E+03</totfact>
</mgrwt>
</event>
<event>
 4    1  0.5562790E-004  0.2099193E+03  0.7818608E-02  0.1141630E+00
          2   -1    0    0  501    0  0.00000000000E+00  0.00000000000E+00  0.26338727011E+03  0.26338727013E+03  0.25500000000E-02 0.  1.
         -2   -1    0    0    0  501 -0.00000000000E+00 -0.00000000000E+00 -0.41826343746E+02  0.41826343824E+02  0.25500000000E-02 0. -1.
    5000001    1    1    2    0    0 -0.70176940354E+02 -0.12645084389E+02  0.11322440673E+03  0.15438091655E+03  0.77000000000E+02 0.  0.
   -5000001    1    1    2    0    0  0.70176940354E+02  0.12645084389E+02  0.10833651964E+03  0.15083269740E+03  0.77000000000E+02 0.  0.
<mgrwt>
<rscale>  0 0.20991928E+03</rscale>
<asrwt>0</asrwt>
<pdfrwt beam="1">  1        2 0.37626751E-01 0.20991928E+03</pdfrwt>
<pdfrwt beam="2">  1       -2 0.59751923E-02 0.20991928E+03</pdfrwt>
<totfact> 0.19724880E+04</totfact>
</mgrwt>
</event>
<event>
 4    1  0.5562790E-004  0.2071719E+03  0.7818608E-02  0.1143825E+00
          2   -1    0    0  501    0  0.00000000000E+00  0.00000000000E+00  0.12762747929E+04  0.12762747929E+04  0.25500000000E-02 0. -1.
         -2   -1    0    0    0  501 -0.00000000000E+00 -0.00000000000E+00 -0.84073194901E+01  0.84073198768E+01  0.25500000000E-02 0.  1.
    5000001    1    1    2    0    0  0.53358714821E+02  0.44178837728E+02  0.62488777509E+03  0.63341349339E+03  0.77000000000E+02 0.  0.
   -5000001    1    1    2    0    0 -0.53358714821E+02 -0.44178837728E+02  0.64297969827E+03  0.65126861934E+03  0.77000000000E+02 0.  0.
<mgrwt>
<rscale>  0 0.20717191E+03</rscale>
<asrwt>0</asrwt>
<pdfrwt beam="1">  1        2 0.18232525E+00 0.20717191E+03</pdfrwt>
<pdfrwt beam="2">  1       -2 0.12010438E-02 0.20717191E+03</pdfrwt>
<totfact> 0.32648676E+04</totfact>
</mgrwt>
</event>
<event>
 4    1  0.5562790E-004  0.2203190E+03  0.7818608E-02  0.1133645E+00
          2   -1    0    0  501    0  0.00000000000E+00  0.00000000000E+00  0.13692074278E+04  0.13692074278E+04  0.25500000000E-02 0.  1.
         -2   -1    0    0    0  501 -0.00000000000E+00 -0.00000000000E+00 -0.88628738136E+01  0.88628741804E+01  0.25500000000E-02 0. -1.
    5000001    1    1    2    0    0 -0.73859285906E+02 -0.27395669150E+02  0.68410892580E+03  0.69292116374E+03  0.77000000000E+02 0.  0.
   -5000001    1    1    2    0    0  0.73859285906E+02  0.27395669150E+02  0.67623562817E+03  0.68514913822E+03  0.77000000000E+02 0.  0.
<mgrwt>
<rscale>  0 0.22031898E+03</rscale>
<asrwt>0</asrwt>
<pdfrwt beam="1">  1        2 0.19560106E+00 0.22031898E+03</pdfrwt>
<pdfrwt beam="2">  1       -2 0.12661249E-02 0.22031898E+03</pdfrwt>
<totfact> 0.27164165E+04</totfact>
</mgrwt>
</event>
<event>
 4    1  0.5562790E-004  0.1993094E+03  0.7818608E-02  0.1150323E+00
          2   -1    0    0  501    0  0.00000000000E+00  0.00000000000E+00  0.24467523502E+04  0.24467523502E+04  0.25500000000E-02 0.  1.
         -2   -1    0    0    0  501 -0.00000000000E+00 -0.00000000000E+00 -0.40588735001E+01  0.40588743011E+01  0.25500000000E-02 0. -1.
    5000001    1    1    2    0    0  0.50797374186E+02 -0.18708532928E+02  0.81880214399E+03  0.82419435416E+03  0.77000000000E+02 0.  0.
   -5000001    1    1    2    0    0 -0.50797374186E+02  0.18708532928E+02  0.16238913327E+04  0.16266168704E+04  0.77000000000E+02 0.  0.
<mgrwt>
<rscale>  0 0.19930940E+03</rscale>
<asrwt>0</asrwt>
<pdfrwt beam="1">  1        2 0.34953611E+00 0.19930940E+03</pdfrwt>
<pdfrwt beam="2">  1       -2 0.57983903E-03 0.19930940E+03</pdfrwt>
<totfact> 0.24732369E+04</totfact>
</mgrwt>
</event>
<event>
 4    1  0.5562790E-004  0.2020882E+03  0.7818608E-02  0.1147989E+00
          2   -1    0    0  501    0  0.00000000000E+00  0.00000000000E+00  0.96621400694E+03  0.96621400695E+03  0.25500000000E-02 0.  1.
         -2   -1    0    0    0  501 -0.00000000000E+00 -0.00000000000E+00 -0.10566928768E+02  0.10566929076E+02  0.25500000000E-02 0. -1.
    5000001    1    1    2    0    0 -0.24075276357E+02 -0.60817584367E+02  0.48549217766E+03  0.49589318615E+03  0.77000000000E+02 0.  0.
   -5000001    1    1    2    0    0  0.24075276357E+02  0.60817584367E+02  0.47015490051E+03  0.48088774987E+03  0.77000000000E+02 0.  0.
<mgrwt>
<rscale>  0 0.20208825E+03</rscale>
<asrwt>0</asrwt>
<pdfrwt beam="1">  1        2 0.13803053E+00 0.20208825E+03</pdfrwt>
<pdfrwt beam="2">  1       -2 0.15095617E-02 0.20208825E+03</pdfrwt>
<totfact> 0.34779154E+04</totfact>
</mgrwt>
</event>
<event>
 4    1  0.5562790E-004  0.3759092E+03  0.7818608E-02  0.1052456E+00
          2   -1    0    0  501    0  0.00000000000E+00  0.00000000000E+00  0.79549831486E+03  0.79549831486E+03  0.25500000000E-02 0.  1.
         -2   -1    0    0    0  501 -0.00000000000E+00 -0.00000000000E+00 -0.44408559574E+02  0.44408559647E+02  0.25500000000E-02 0. -1.
    5000001    1    1    2    0    0  0.70068272559E+02 -0.13871155037E+03  0.53739888236E+03  0.56469196540E+03  0.77000000000E+02 0.  0.
   -5000001    1    1    2    0    0 -0.70068272559E+02  0.13871155037E+03  0.21369087292E+03  0.27521490911E+03  0.77000000000E+02 0.  0.
<mgrwt>
<rscale>  0 0.37590921E+03</rscale>
<asrwt>0</asrwt>
<pdfrwt beam="1">  1        2 0.11364262E+00 0.37590921E+03</pdfrwt>
<pdfrwt beam="2">  1       -2 0.63440796E-02 0.37590921E+03</pdfrwt>
<totfact> 0.53617366E+03</totfact>
</mgrwt>
</event>
<event>
 4    1  0.5562790E-004  0.2198552E+03  0.7818608E-02  0.1133991E+00
          2   -1    0    0  501    0  0.00000000000E+00  0.00000000000E+00  0.11639146932E+03  0.11639146934E+03  0.25500000000E-02 0.  1.
         -2   -1    0    0    0  501 -0.00000000000E+00 -0.00000000000E+00 -0.10382271585E+03  0.10382271588E+03  0.25500000000E-02 0. -1.
    5000001    1    1    2    0    0  0.54011611903E+02 -0.43596575204E+02 -0.30342566917E+02  0.10801660501E+03  0.77000000000E+02 0.  0.
   -5000001    1    1    2    0    0 -0.54011611903E+02  0.43596575204E+02  0.42911320383E+02  0.11219758022E+03  0.77000000000E+02 0.  0.
<mgrwt>
<rscale>  0 0.21985521E+03</rscale>
<asrwt>0</asrwt>
<pdfrwt beam="1">  1        2 0.16627353E-01 0.21985521E+03</pdfrwt>
<pdfrwt beam="2">  1       -2 0.14831817E-01 0.21985521E+03</pdfrwt>
<totfact> 0.11708437E+04</totfact>
</mgrwt>
</event>
<event>
 4    1  0.5562790E-004  0.4918714E+03  0.7818608E-02  0.1015923E+00
          2   -1    0    0  501    0  0.00000000000E+00  0.00000000000E+00  0.20733989878E+03  0.20733989880E+03  0.25500000000E-02 0.  1.
         -2   -1    0    0    0  501 -0.00000000000E+00 -0.00000000000E+00 -0.29171598413E+03  0.29171598414E+03  0.25500000000E-02 0. -1.
    5000001    1    1    2    0    0 -0.22713469916E+02 -0.23226773752E+03 -0.32500860860E+02  0.24789011591E+03  0.77000000000E+02 0.  0.
   -5000001    1    1    2    0    0  0.22713469916E+02  0.23226773752E+03 -0.51875224487E+02  0.25116576702E+03  0.77000000000E+02 0.  0.
<mgrwt>
<rscale>  0 0.49187138E+03</rscale>
<asrwt>0</asrwt>
<pdfrwt beam="1">  1        2 0.29619986E-01 0.49187138E+03</pdfrwt>
<pdfrwt beam="2">  1       -2 0.41673712E-01 0.49187138E+03</pdfrwt>
<totfact> 0.98674117E+02</totfact>
</mgrwt>
</event>
<event>
 4    1  0.5562790E-004  0.1887147E+03  0.7818608E-02  0.1159626E+00
         -2   -1    0    0    0  501 -0.00000000000E+00  0.00000000000E+00  0.46694390791E+02  0.46694390861E+02  0.25500000000E-02 0. -1.
          2   -1    0    0  501    0  0.00000000000E+00 -0.00000000000E+00 -0.19067189724E+03  0.19067189725E+03  0.25500000000E-02 0.  1.
    5000001    1    1    2    0    0 -0.22420101100E+02 -0.44181143692E+02 -0.10066212142E+03  0.13607533604E+03  0.77000000000E+02 0.  0.
   -5000001    1    1    2    0    0  0.22420101100E+02  0.44181143692E+02 -0.43315385029E+02  0.10129095207E+03  0.77000000000E+02 0.  0.
<mgrwt>
<rscale>  0 0.18871469E+03</rscale>
<asrwt>0</asrwt>
<pdfrwt beam="1">  1        2 0.27238842E-01 0.18871469E+03</pdfrwt>
<pdfrwt beam="2">  1       -2 0.66706273E-02 0.18871469E+03</pdfrwt>
<totfact> 0.23480558E+04</totfact>
</mgrwt>
</event>
<event>
 4    1  0.5562790E-004  0.2272794E+03  0.7818608E-02  0.1128569E+00
         -2   -1    0    0    0  501 -0.00000000000E+00  0.00000000000E+00  0.85682222068E+03  0.85682222069E+03  0.25500000000E-02 0. -1.
          2   -1    0    0  501    0  0.00000000000E+00 -0.00000000000E+00 -0.15071949669E+02  0.15071949885E+02  0.25500000000E-02 0.  1.
    5000001    1    1    2    0    0 -0.28564489036E+02  0.77182395136E+02  0.36502821511E+03  0.38203095422E+03  0.77000000000E+02 0.  0.
   -5000001    1    1    2    0    0  0.28564489036E+02 -0.77182395136E+02  0.47672205590E+03  0.48986321635E+03  0.77000000000E+02 0.  0.
<mgrwt>
<rscale>  0 0.22727940E+03</rscale>
<asrwt>0</asrwt>
<pdfrwt beam="1">  1        2 0.21531354E-02 0.22727940E+03</pdfrwt>
<pdfrwt beam="2">  1       -2 0.12240319E+00 0.22727940E+03</pdfrwt>
<totfact> 0.25887470E+03</totfact>
</mgrwt>
</event>
<event>
 4    1  0.5562790E-004  0.2130039E+03  0.7818608E-02  0.1139209E+00
          2   -1    0    0  501    0  0.00000000000E+00  0.00000000000E+00  0.24234131734E+03  0.24234131736E+03  0.25500000000E-02 0.  1.
         -2   -1    0    0    0  501 -0.00000000000E+00 -0.00000000000E+00 -0.46804515388E+02  0.46804515458E+02  0.25500000000E-02 0. -1.
    5000001    1    1    2    0    0 -0.66483003306E+02  0.11223954739E+02  0.13775499304E+03  0.17161411654E+03  0.77000000000E+02 0.  0.
   -5000001    1    1    2    0    0  0.66483003306E+02 -0.11223954739E+02  0.57781808910E+02  0.11753171627E+03  0.77000000000E+02 0.  0.
<mgrwt>
<rscale>  0 0.21300392E+03</rscale>
<asrwt>0</asrwt>
<pdfrwt beam="1">  1        2 0.34620189E-01 0.21300392E+03</pdfrwt>
<pdfrwt beam="2">  1       -2 0.66863592E-02 0.21300392E+03</pdfrwt>
<totfact> 0.18181872E+04</totfact>
</mgrwt>
</event>
<event>
 4    1  0.5562790E-004  0.2396999E+03  0.7818608E-02  0.1119993E+00
          2   -1    0    0  501    0  0.00000000000E+00  0.00000000000E+00  0.12209042306E+04  0.12209042306E+04  0.25500000000E-02 0.  1.
         -2   -1    0    0    0  501 -0.00000000000E+00 -0.00000000000E+00 -0.11765054721E+02  0.11765054997E+02  0.25500000000E-02 0. -1.
    5000001    1    1    2    0    0  0.44666688789E+02  0.59825577767E+02  0.87962612693E+03  0.88614069764E+03  0.77000000000E+02 0.  0.
   -5000001    1    1    2    0    0 -0.44666688789E+02 -0.59825577767E+02  0.32951304892E+03  0.34652858793E+03  0.77000000000E+02 0.  0.
<mgrwt>
<rscale>  0 0.23969986E+03</rscale>
<asrwt>0</asrwt>
<pdfrwt beam="1">  1        2 0.17441494E+00 0.23969986E+03</pdfrwt>
<pdfrwt beam="2">  1       -2 0.16807217E-02 0.23969986E+03</pdfrwt>
<totfact> 0.21606103E+04</totfact>
</mgrwt>
</event>
<event>
 4    1  0.5562790E-004  0.1927761E+03  0.7818608E-02  0.1155981E+00
          2   -1    0    0  501    0  0.00000000000E+00  0.00000000000E+00  0.44899092403E+03  0.44899092404E+03  0.25500000000E-02 0.  1.
         -2   -1    0    0    0  501 -0.00000000000E+00 -0.00000000000E+00 -0.20692310006E+02  0.20692310164E+02  0.25500000000E-02 0. -1.
    5000001    1    1    2    0    0  0.15170845136E+02  0.32475878224E+02  0.32518214819E+03  0.33609115833E+03  0.77000000000E+02 0.  0.
   -5000001    1    1    2    0    0 -0.15170845136E+02 -0.32475878224E+02  0.10311646583E+03  0.13359207587E+03  0.77000000000E+02 0.  0.
<mgrwt>
<rscale>  0 0.19277613E+03</rscale>
<asrwt>0</asrwt>
<pdfrwt beam="1">  1        2 0.64141559E-01 0.19277613E+03</pdfrwt>
<pdfrwt beam="2">  1       -2 0.29560444E-02 0.19277613E+03</pdfrwt>
<totfact> 0.31797416E+04</totfact>
</mgrwt>
</event>
<event>
 4    1  0.5562790E-004  0.1931302E+03  0.7818608E-02  0.1155668E+00
         -2   -1    0    0    0  501 -0.00000000000E+00  0.00000000000E+00  0.36273729487E+01  0.36273738450E+01  0.25500000000E-02 0. -1.
          2   -1    0    0  501    0  0.00000000000E+00 -0.00000000000E+00 -0.25706815045E+04  0.25706815045E+04  0.25500000000E-02 0.  1.
    5000001    1    1    2    0    0  0.54636335820E+02  0.30365345055E+01 -0.10164491334E+04  0.10208291681E+04  0.77000000000E+02 0.  0.
   -5000001    1    1    2    0    0 -0.54636335820E+02 -0.30365345055E+01 -0.15506049982E+04  0.15534797102E+04  0.77000000000E+02 0.  0.
<mgrwt>
<rscale>  0 0.19313023E+03</rscale>
<asrwt>0</asrwt>
<pdfrwt beam="1">  1        2 0.36723905E+00 0.19313023E+03</pdfrwt>
<pdfrwt beam="2">  1       -2 0.51819785E-03 0.19313023E+03</pdfrwt>
<totfact> 0.25197541E+04</totfact>
</mgrwt>
</event>
<event>
 4    1  0.5562790E-004  0.3456957E+03  0.7818608E-02  0.1064396E+00
          2   -1    0    0  501    0  0.00000000000E+00  0.00000000000E+00  0.24997008309E+04  0.24997008309E+04  0.25500000000E-02 0.  1.
         -2   -1    0    0    0  501 -0.00000000000E+00 -0.00000000000E+00 -0.11951982217E+02  0.11951982489E+02  0.25500000000E-02 0. -1.
    5000001    1    1    2    0    0 -0.14562060963E+03 -0.46452741975E+02  0.10682714311E+04  0.10818946666E+04  0.77000000000E+02 0.  0.
   -5000001    1    1    2    0    0  0.14562060963E+03  0.46452741975E+02  0.14194774175E+04  0.14297581467E+04  0.77000000000E+02 0.  0.
<mgrwt>
<rscale>  0 0.34569571E+03</rscale>
<asrwt>0</asrwt>
<pdfrwt beam="1">  1        2 0.35710011E+00 0.34569571E+03</pdfrwt>
<pdfrwt beam="2">  1       -2 0.17074261E-02 0.34569571E+03</pdfrwt>
<totfact> 0.48858166E+03</totfact>
</mgrwt>
</event>
<event>
 4    1  0.5562790E-004  0.1681566E+03  0.7818608E-02  0.1179784E+00
          2   -1    0    0  501    0  0.00000000000E+00  0.00000000000E+00  0.17319704001E+03  0.17319704003E+03  0.25500000000E-02 0.  1.
         -2   -1    0    0    0  501 -0.00000000000E+00 -0.00000000000E+00 -0.40815698579E+02  0.40815698659E+02  0.25500000000E-02 0. -1.
    5000001    1    1    2    0    0  0.23615662832E+02  0.24043214303E+02  0.63526346845E+02  0.10535830498E+03  0.77000000000E+02 0.  0.
   -5000001    1    1    2    0    0 -0.23615662832E+02 -0.24043214303E+02  0.68854994589E+02  0.10865443371E+03  0.77000000000E+02 0.  0.
<mgrwt>
<rscale>  0 0.16815657E+03</rscale>
<asrwt>0</asrwt>
<pdfrwt beam="1">  1        2 0.24742434E-01 0.16815657E+03</pdfrwt>
<pdfrwt beam="2">  1       -2 0.58308142E-02 0.16815657E+03</pdfrwt>
<totfact> 0.31736665E+04</totfact>
</mgrwt>
</event>
<event>
 4    1  0.5562790E-004  0.2157644E+03  0.7818608E-02  0.1137081E+00
         -2   -1    0    0    0  501 -0.00000000000E+00  0.00000000000E+00  0.90952568743E+01  0.90952572318E+01  0.25500000000E-02 0. -1.
          2   -1    0    0  501    0  0.00000000000E+00 -0.00000000000E+00 -0.12796302499E+04  0.12796302499E+04  0.25500000000E-02 0.  1.
    5000001    1    1    2    0    0 -0.37970916990E+02  0.37442984401E+02 -0.31552268067E+03  0.32913117390E+03  0.77000000000E+02 0.  0.
   -5000001    1    1    2    0    0  0.37970916990E+02 -0.37442984401E+02 -0.95501231240E+03  0.95959433327E+03  0.77000000000E+02 0.  0.
<mgrwt>
<rscale>  0 0.21576437E+03</rscale>
<asrwt>0</asrwt>
<pdfrwt beam="1">  1        2 0.18280421E+00 0.21576437E+03</pdfrwt>
<pdfrwt beam="2">  1       -2 0.12993233E-02 0.21576437E+03</pdfrwt>
<totfact> 0.29086295E+04</totfact>
</mgrwt>
</event>
<event>
 4    1  0.5562790E-004  0.2688341E+03  0.7818608E-02  0.1101949E+00
          2   -1    0    0  501    0  0.00000000000E+00  0.00000000000E+00  0.41514935314E+02  0.41514935392E+02  0.25500000000E-02 0.  1.
         -2   -1    0    0    0  501 -0.00000000000E+00 -0.00000000000E+00 -0.43521539534E+03  0.43521539535E+03  0.25500000000E-02 0. -1.
    5000001    1    1    2    0    0  0.92696915570E+01 -0.72914707681E+02 -0.51302894811E+02  0.11816712230E+03  0.77000000000E+02 0.  0.
   -5000001    1    1    2    0    0 -0.92696915570E+01  0.72914707681E+02 -0.34239756522E+03  0.35856320843E+03  0.77000000000E+02 0.  0.
<mgrwt>
<rscale>  0 0.26883407E+03</rscale>
<asrwt>0</asrwt>
<pdfrwt beam="1">  1        2 0.59307053E-02 0.26883407E+03</pdfrwt>
<pdfrwt beam="2">  1       -2 0.62173625E-01 0.26883407E+03</pdfrwt>
<totfact> 0.30661356E+03</totfact>
</mgrwt>
</event>
<event>
 4    1  0.5562790E-004  0.1893920E+03  0.7818608E-02  0.1159011E+00
          2   -1    0    0  501    0  0.00000000000E+00  0.00000000000E+00  0.19604615557E+04  0.19604615557E+04  0.25500000000E-02 0.  1.
         -2   -1    0    0    0  501 -0.00000000000E+00 -0.00000000000E+00 -0.45740936613E+01  0.45740943721E+01  0.25500000000E-02 0. -1.
    5000001    1    1    2    0    0  0.31134190969E+02 -0.52926999588E+01  0.14466800781E+04  0.14490719785E+04  0.77000000000E+02 0.  0.
   -5000001    1    1    2    0    0 -0.31134190969E+02  0.52926999588E+01  0.50920738396E+03  0.51596367159E+03  0.77000000000E+02 0.  0.
<mgrwt>
<rscale>  0 0.18939203E+03</rscale>
<asrwt>0</asrwt>
<pdfrwt beam="1">  1        2 0.28006536E+00 0.18939203E+03</pdfrwt>
<pdfrwt beam="2">  1       -2 0.65344335E-03 0.18939203E+03</pdfrwt>
<totfact> 0.35758052E+04</totfact>
</mgrwt>
</event>
<event>
 4    1  0.5562790E-004  0.2144827E+03  0.7818608E-02  0.1138065E+00
          2   -1    0    0  501    0  0.00000000000E+00  0.00000000000E+00  0.25767969093E+04  0.25767969093E+04  0.25500000000E-02 0.  1.
         -2   -1    0    0    0  501 -0.00000000000E+00 -0.00000000000E+00 -0.44631801555E+01  0.44631808840E+01  0.25500000000E-02 0. -1.
    5000001    1    1    2    0    0 -0.41985505066E+02  0.16940892178E+02  0.20003835847E+04  0.20023769032E+04  0.77000000000E+02 0.  0.
   -5000001    1    1    2    0    0  0.41985505066E+02 -0.16940892178E+02  0.57195014442E+03  0.57888318697E+03  0.77000000000E+02 0.  0.
<mgrwt>
<rscale>  0 0.21448272E+03</rscale>
<asrwt>0</asrwt>
<pdfrwt beam="1">  1        2 0.36811477E+00 0.21448272E+03</pdfrwt>
<pdfrwt beam="2">  1       -2 0.63759562E-03 0.21448272E+03</pdfrwt>
<totfact> 0.18659073E+04</totfact>
</mgrwt>
</event>
<event>
 4    1  0.5562790E-004  0.3217796E+03  0.7818608E-02  0.1074833E+00
         -2   -1    0    0    0  501 -0.00000000000E+00  0.00000000000E+00  0.33447986340E+02  0.33447986437E+02  0.25500000000E-02 0. -1.
          2   -1    0    0  501    0  0.00000000000E+00 -0.00000000000E+00 -0.77390398423E+03  0.77390398423E+03  0.25500000000E-02 0.  1.
    5000001    1    1    2    0    0 -0.87693227214E+02  0.11027228261E+03 -0.34434108238E+03  0.37993401983E+03  0.77000000000E+02 0.  0.
   -5000001    1    1    2    0    0  0.87693227214E+02 -0.11027228261E+03 -0.39611491551E+03  0.42741795084E+03  0.77000000000E+02 0.  0.
<mgrwt>
<rscale>  0 0.32177961E+03</rscale>
<asrwt>0</asrwt>
<pdfrwt beam="1">  1        2 0.11055770E+00 0.32177961E+03</pdfrwt>
<pdfrwt beam="2">  1       -2 0.47782843E-02 0.32177961E+03</pdfrwt>
<totfact> 0.85453201E+03</totfact>
</mgrwt>
</event>
<event>
 4    1  0.5562790E-004  0.1792728E+03  0.7818608E-02  0.1168509E+00
          2   -1    0    0  501    0  0.00000000000E+00  0.00000000000E+00  0.59627374937E+03  0.59627374938E+03  0.25500000000E-02 0.  1.
         -2   -1    0    0    0  501 -0.00000000000E+00 -0.00000000000E+00 -0.13474824816E+02  0.13474825057E+02  0.25500000000E-02 0. -1.
    5000001    1    1    2    0    0  0.24937671378E+01  0.40764492851E+02  0.22023955146E+03  0.23685950008E+03  0.77000000000E+02 0.  0.
   -5000001    1    1    2    0    0 -0.24937671378E+01 -0.40764492851E+02  0.36255937310E+03  0.37288907435E+03  0.77000000000E+02 0.  0.
<mgrwt>
<rscale>  0 0.17927280E+03</rscale>
<asrwt>0</asrwt>
<pdfrwt beam="1">  1        2 0.85181975E-01 0.17927280E+03</pdfrwt>
<pdfrwt beam="2">  1       -2 0.19249747E-02 0.17927280E+03</pdfrwt>
<totfact> 0.43370540E+04</totfact>
</mgrwt>
</event>
<event>
 4    1  0.5562790E-004  0.2880768E+03  0.7818608E-02  0.1091358E+00
         -2   -1    0    0    0  501 -0.00000000000E+00  0.00000000000E+00  0.15516025417E+02  0.15516025627E+02  0.25500000000E-02 0. -1.
          2   -1    0    0  501    0  0.00000000000E+00 -0.00000000000E+00 -0.13371371563E+04  0.13371371563E+04  0.25500000000E-02 0.  1.
    5000001    1    1    2    0    0 -0.49494781558E+02 -0.10981166854E+03 -0.74344511661E+03  0.75706537192E+03  0.77000000000E+02 0.  0.
   -5000001    1    1    2    0    0  0.49494781558E+02  0.10981166854E+03 -0.57817601423E+03  0.59558780997E+03  0.77000000000E+02 0.  0.
<mgrwt>
<rscale>  0 0.28807676E+03</rscale>
<asrwt>0</asrwt>
<pdfrwt beam="1">  1        2 0.19101952E+00 0.28807676E+03</pdfrwt>
<pdfrwt beam="2">  1       -2 0.22165759E-02 0.28807676E+03</pdfrwt>
<totfact> 0.12577269E+04</totfact>
</mgrwt>
</event>
<event>
 4    1  0.5562790E-004  0.2083696E+03  0.7818608E-02  0.1142864E+00
          2   -1    0    0  501    0  0.00000000000E+00  0.00000000000E+00  0.28958621188E+04  0.28958621188E+04  0.25500000000E-02 0.  1.
         -2   -1    0    0    0  501 -0.00000000000E+00 -0.00000000000E+00 -0.37482686268E+01  0.37482694942E+01  0.25500000000E-02 0. -1.
    5000001    1    1    2    0    0 -0.20524574446E+02  0.16227687116E+02  0.53983818786E+03  0.54592935904E+03  0.77000000000E+02 0.  0.
   -5000001    1    1    2    0    0  0.20524574446E+02 -0.16227687116E+02  0.23522756623E+04  0.23536810293E+04  0.77000000000E+02 0.  0.
<mgrwt>
<rscale>  0 0.20836958E+03</rscale>
<asrwt>0</asrwt>
<pdfrwt beam="1">  1        2 0.41369591E+00 0.20836958E+03</pdfrwt>
<pdfrwt beam="2">  1       -2 0.53546529E-03 0.20836958E+03</pdfrwt>
<totfact> 0.16497442E+04</totfact>
</mgrwt>
</event>
<event>
 4    1  0.5562790E-004  0.2039488E+03  0.7818608E-02  0.1146450E+00
          2   -1    0    0  501    0  0.00000000000E+00  0.00000000000E+00  0.17861745457E+04  0.17861745457E+04  0.25500000000E-02 0.  1.
         -2   -1    0    0    0  501 -0.00000000000E+00 -0.00000000000E+00 -0.58218154690E+01  0.58218160275E+01  0.25500000000E-02 0. -1.
    5000001    1    1    2    0    0 -0.42856082120E+02  0.17658823128E+02  0.46684377063E+03  0.47541622183E+03  0.77000000000E+02 0.  0.
   -5000001    1    1    2    0    0  0.42856082120E+02 -0.17658823128E+02  0.13135089596E+04  0.13165801399E+04  0.77000000000E+02 0.  0.
<mgrwt>
<rscale>  0 0.20394881E+03</rscale>
<asrwt>0</asrwt>
<pdfrwt beam="1">  1        2 0.25516763E+00 0.20394881E+03</pdfrwt>
<pdfrwt beam="2">  1       -2 0.83168849E-03 0.20394881E+03</pdfrwt>
<totfact> 0.30824737E+04</totfact>
</mgrwt>
</event>
<event>
 4    1  0.5562790E-004  0.5243576E+03  0.7818608E-02  0.1007610E+00
         -2   -1    0    0    0  501 -0.00000000000E+00  0.00000000000E+00  0.21179670850E+03  0.21179670851E+03  0.25500000000E-02 0. -1.
          2   -1    0    0  501    0  0.00000000000E+00 -0.00000000000E+00 -0.32454581089E+03  0.32454581090E+03  0.25500000000E-02 0.  1.
    5000001    1    1    2    0    0 -0.19631095847E+03 -0.85368294619E+01 -0.21548662872E+03  0.30161955678E+03  0.77000000000E+02 0.  0.
   -5000001    1    1    2    0    0  0.19631095847E+03  0.85368294619E+01  0.10273752633E+03  0.23472296264E+03  0.77000000000E+02 0.  0.
<mgrwt>
<rscale>  0 0.52435764E+03</rscale>
<asrwt>0</asrwt>
<pdfrwt beam="1">  1        2 0.46363687E-01 0.52435764E+03</pdfrwt>
<pdfrwt beam="2">  1       -2 0.30256673E-01 0.52435764E+03</pdfrwt>
<totfact> 0.11028352E+03</totfact>
</mgrwt>
</event>
<event>
 4    1  0.5562790E-004  0.1868004E+03  0.7818608E-02  0.1161379E+00
          2   -1    0    0  501    0  0.00000000000E+00  0.00000000000E+00  0.13316862435E+04  0.13316862436E+04  0.25500000000E-02 0.  1.
         -2   -1    0    0    0  501 -0.00000000000E+00 -0.00000000000E+00 -0.65507917074E+01  0.65507922038E+01  0.25500000000E-02 0. -1.
    5000001    1    1    2    0    0 -0.10268852363E+02 -0.39805998445E+02  0.42446512729E+03  0.43334698699E+03  0.77000000000E+02 0.  0.
   -5000001    1    1    2    0    0  0.10268852363E+02  0.39805998445E+02  0.90067032455E+03  0.90489004877E+03  0.77000000000E+02 0.  0.
<mgrwt>
<rscale>  0 0.18680042E+03</rscale>
<asrwt>0</asrwt>
<pdfrwt beam="1">  1        2 0.19024114E+00 0.18680042E+03</pdfrwt>
<pdfrwt beam="2">  1       -2 0.93582620E-03 0.18680042E+03</pdfrwt>
<totfact> 0.43484334E+04</totfact>
</mgrwt>
</event>
<event>
 4    1  0.5562790E-004  0.2346466E+03  0.7818608E-02  0.1123411E+00
          2   -1    0    0  501    0  0.00000000000E+00  0.00000000000E+00  0.33131912522E+02  0.33131912621E+02  0.25500000000E-02 0.  1.
         -2   -1    0    0    0  501 -0.00000000000E+00 -0.00000000000E+00 -0.41545318412E+03  0.41545318413E+03  0.25500000000E-02 0. -1.
    5000001    1    1    2    0    0  0.79091273706E+02 -0.18456078107E+01 -0.11524421000E+03  0.15959029978E+03  0.77000000000E+02 0.  0.
   -5000001    1    1    2    0    0 -0.79091273706E+02  0.18456078107E+01 -0.26707706160E+03  0.28899479698E+03  0.77000000000E+02 0.  0.
<mgrwt>
<rscale>  0 0.23464662E+03</rscale>
<asrwt>0</asrwt>
<pdfrwt beam="1">  1        2 0.47331306E-02 0.23464662E+03</pdfrwt>
<pdfrwt beam="2">  1       -2 0.59350452E-01 0.23464662E+03</pdfrwt>
<totfact> 0.45158201E+03</totfact>
</mgrwt>
</event>
<event>
 4    1  0.5562790E-004  0.2850577E+03  0.7818608E-02  0.1092958E+00
          2   -1    0    0  501    0  0.00000000000E+00  0.00000000000E+00  0.29088879856E+03  0.29088879857E+03  0.25500000000E-02 0.  1.
         -2   -1    0    0    0  501 -0.00000000000E+00 -0.00000000000E+00 -0.69835869711E+02  0.69835869757E+02  0.25500000000E-02 0. -1.
    5000001    1    1    2    0    0  0.10134796161E+02 -0.93821930088E+02  0.16847642323E+02  0.12295573069E+03  0.77000000000E+02 0.  0.
   -5000001    1    1    2    0    0 -0.10134796161E+02  0.93821930088E+02  0.20420528653E+03  0.23776893764E+03  0.77000000000E+02 0.  0.
<mgrwt>
<rscale>  0 0.28505769E+03</rscale>
<asrwt>0</asrwt>
<pdfrwt beam="1">  1        2 0.41555543E-01 0.28505769E+03</pdfrwt>
<pdfrwt beam="2">  1       -2 0.99765528E-02 0.28505769E+03</pdfrwt>
<totfact> 0.81152838E+03</totfact>
</mgrwt>
</event>
<event>
 4    1  0.5562790E-004  0.3319981E+03  0.7818608E-02  0.1070256E+00
          2   -1    0    0  501    0  0.00000000000E+00  0.00000000000E+00  0.16951814601E+03  0.16951814603E+03  0.25500000000E-02 0. -1.
         -2   -1    0    0    0  501 -0.00000000000E+00 -0.00000000000E+00 -0.16255297316E+03  0.16255297318E+03  0.25500000000E-02 0.  1.
    5000001    1    1    2    0    0 -0.47743250855E+02  0.13906456770E+03  0.63653470368E+01  0.16609602534E+03  0.77000000000E+02 0.  0.
   -5000001    1    1    2    0    0  0.47743250855E+02 -0.13906456770E+03  0.59982581633E+00  0.16597509386E+03  0.77000000000E+02 0.  0.
<mgrwt>
<rscale>  0 0.33199806E+03</rscale>
<asrwt>0</asrwt>
<pdfrwt beam="1">  1        2 0.24216878E-01 0.33199806E+03</pdfrwt>
<pdfrwt beam="2">  1       -2 0.23221853E-01 0.33199806E+03</pdfrwt>
<totfact> 0.36209494E+03</totfact>
</mgrwt>
</event>
<event>
 4    1  0.5562790E-004  0.2434034E+03  0.7818608E-02  0.1117546E+00
         -2   -1    0    0    0  501 -0.00000000000E+00  0.00000000000E+00  0.15018624085E+02  0.15018624302E+02  0.25500000000E-02 0. -1.
          2   -1    0    0  501    0  0.00000000000E+00 -0.00000000000E+00 -0.98619609318E+03  0.98619609318E+03  0.25500000000E-02 0.  1.
    5000001    1    1    2    0    0  0.33606744595E+02 -0.88035836162E+02 -0.47897297072E+03  0.49419007316E+03  0.77000000000E+02 0.  0.
   -5000001    1    1    2    0    0 -0.33606744595E+02  0.88035836162E+02 -0.49220449837E+03  0.50702464432E+03  0.77000000000E+02 0.  0.
<mgrwt>
<rscale>  0 0.24340344E+03</rscale>
<asrwt>0</asrwt>
<pdfrwt beam="1">  1        2 0.14088511E+00 0.24340344E+03</pdfrwt>
<pdfrwt beam="2">  1       -2 0.21455184E-02 0.24340344E+03</pdfrwt>
<totfact> 0.20478315E+04</totfact>
</mgrwt>
</event>
<event>
 4    1  0.5562790E-004  0.4481309E+03  0.7818608E-02  0.1028281E+00
          2   -1    0    0  501    0  0.00000000000E+00  0.00000000000E+00  0.79023984001E+02  0.79023984042E+02  0.25500000000E-02 0.  1.
         -2   -1    0    0    0  501 -0.00000000000E+00 -0.00000000000E+00 -0.63531750676E+03  0.63531750677E+03  0.25500000000E-02 0. -1.
    5000001    1    1    2    0    0 -0.18573571240E+03  0.74663764657E+02 -0.17479293230E+03  0.27668393845E+03  0.77000000000E+02 0.  0.
   -5000001    1    1    2    0    0  0.18573571240E+03 -0.74663764657E+02 -0.38150059046E+03  0.43765755236E+03  0.77000000000E+02 0.  0.
<mgrwt>
<rscale>  0 0.44813088E+03</rscale>
<asrwt>0</asrwt>
<pdfrwt beam="1">  1        2 0.11289141E-01 0.44813088E+03</pdfrwt>
<pdfrwt beam="2">  1       -2 0.90759641E-01 0.44813088E+03</pdfrwt>
<totfact> 0.59495755E+02</totfact>
</mgrwt>
</event>
<event>
 4    1  0.5562790E-004  0.2248693E+03  0.7818608E-02  0.1130304E+00
          2   -1    0    0  501    0  0.00000000000E+00  0.00000000000E+00  0.52414281894E+03  0.52414281894E+03  0.25500000000E-02 0.  1.
         -2   -1    0    0    0  501 -0.00000000000E+00 -0.00000000000E+00 -0.24118512699E+02  0.24118512834E+02  0.25500000000E-02 0. -1.
    5000001    1    1    2    0    0  0.20009533897E+02 -0.70869507616E+02  0.16245372254E+03  0.19427578471E+03  0.77000000000E+02 0.  0.
   -5000001    1    1    2    0    0 -0.20009533897E+02  0.70869507616E+02  0.33757058370E+03  0.35398554707E+03  0.77000000000E+02 0.  0.
<mgrwt>
<rscale>  0 0.22486925E+03</rscale>
<asrwt>0</asrwt>
<pdfrwt beam="1">  1        2 0.74877530E-01 0.22486925E+03</pdfrwt>
<pdfrwt beam="2">  1       -2 0.34455025E-02 0.22486925E+03</pdfrwt>
<totfact> 0.21626626E+04</totfact>
</mgrwt>
</event>
<event>
 4    1  0.5562790E-004  0.2676061E+03  0.7818608E-02  0.1102658E+00
         -2   -1    0    0    0  501 -0.00000000000E+00  0.00000000000E+00  0.26824543982E+02  0.26824544103E+02  0.25500000000E-02 0. -1.
          2   -1    0    0  501    0  0.00000000000E+00 -0.00000000000E+00 -0.66742085566E+03  0.66742085566E+03  0.25500000000E-02 0.  1.
    5000001    1    1    2    0    0 -0.16197359399E+02 -0.10349692100E+03 -0.23824777978E+03  0.27141291731E+03  0.77000000000E+02 0.  0.
   -5000001    1    1    2    0    0  0.16197359399E+02  0.10349692100E+03 -0.40234853189E+03  0.42283248246E+03  0.77000000000E+02 0.  0.
<mgrwt>
<rscale>  0 0.26760613E+03</rscale>
<asrwt>0</asrwt>
<pdfrwt beam="1">  1        2 0.95345826E-01 0.26760613E+03</pdfrwt>
<pdfrwt beam="2">  1       -2 0.38320781E-02 0.26760613E+03</pdfrwt>
<totfact> 0.14150722E+04</totfact>
</mgrwt>
</event>
<event>
 4    1  0.5562790E-004  0.1647881E+03  0.7818608E-02  0.1183395E+00
          2   -1    0    0  501    0  0.00000000000E+00  0.00000000000E+00  0.57205802018E+03  0.57205802018E+03  0.25500000000E-02 0.  1.
         -2   -1    0    0    0  501 -0.00000000000E+00 -0.00000000000E+00 -0.11867293596E+02  0.11867293870E+02  0.25500000000E-02 0. -1.
    5000001    1    1    2    0    0 -0.23920253402E+02 -0.16887188077E+02  0.28561334024E+03  0.29725634689E+03  0.77000000000E+02 0.  0.
   -5000001    1    1    2    0    0  0.23920253402E+02  0.16887188077E+02  0.27457738634E+03  0.28666896716E+03  0.77000000000E+02 0.  0.
<mgrwt>
<rscale>  0 0.16478811E+03</rscale>
<asrwt>0</asrwt>
<pdfrwt beam="1">  1        2 0.81722586E-01 0.16478811E+03</pdfrwt>
<pdfrwt beam="2">  1       -2 0.16953274E-02 0.16478811E+03</pdfrwt>
<totfact> 0.54216236E+04</totfact>
</mgrwt>
</event>
<event>
 4    1  0.5562790E-004  0.2241454E+03  0.7818608E-02  0.1130830E+00
         -2   -1    0    0    0  501 -0.00000000000E+00  0.00000000000E+00  0.87700541962E+01  0.87700545669E+01  0.25500000000E-02 0. -1.
          2   -1    0    0  501    0  0.00000000000E+00 -0.00000000000E+00 -0.14321788131E+04  0.14321788131E+04  0.25500000000E-02 0.  1.
    5000001    1    1    2    0    0  0.49582685168E+02 -0.62107605198E+02 -0.82588983069E+03  0.83326995009E+03  0.77000000000E+02 0.  0.
   -5000001    1    1    2    0    0 -0.49582685168E+02  0.62107605198E+02 -0.59751892821E+03  0.60767891757E+03  0.77000000000E+02 0.  0.
<mgrwt>
<rscale>  0 0.22414536E+03</rscale>
<asrwt>0</asrwt>
<pdfrwt beam="1">  1        2 0.20459682E+00 0.22414536E+03</pdfrwt>
<pdfrwt beam="2">  1       -2 0.12528658E-02 0.22414536E+03</pdfrwt>
<totfact> 0.25637866E+04</totfact>
</mgrwt>
</event>
<event>
 4    1  0.5562790E-004  0.2319584E+03  0.7818608E-02  0.1125269E+00
          2   -1    0    0  501    0  0.00000000000E+00  0.00000000000E+00  0.21048645619E+04  0.21048645619E+04  0.25500000000E-02 0.  1.
         -2   -1    0    0    0  501 -0.00000000000E+00 -0.00000000000E+00 -0.63905196527E+01  0.63905201615E+01  0.25500000000E-02 0. -1.
    5000001    1    1    2    0    0  0.24914502910E+02 -0.23935184251E+02  0.32516333951E+03  0.33593723054E+03  0.77000000000E+02 0.  0.
   -5000001    1    1    2    0    0 -0.24914502910E+02  0.23935184251E+02  0.17733107027E+04  0.17753178515E+04  0.77000000000E+02 0.  0.
<mgrwt>
<rscale>  0 0.23195843E+03</rscale>
<asrwt>0</asrwt>
<pdfrwt beam="1">  1        2 0.30069578E+00 0.23195843E+03</pdfrwt>
<pdfrwt beam="2">  1       -2 0.91292886E-03 0.23195843E+03</pdfrwt>
<totfact> 0.18998435E+04</totfact>
</mgrwt>
</event>
<event>
 4    1  0.5562790E-004  0.5080569E+03  0.7818608E-02  0.1011697E+00
          2   -1    0    0  501    0  0.00000000000E+00  0.00000000000E+00  0.52183772077E+03  0.52183772078E+03  0.25500000000E-02 0.  1.
         -2   -1    0    0    0  501 -0.00000000000E+00 -0.00000000000E+00 -0.12366002496E+03  0.12366002499E+03  0.25500000000E-02 0. -1.
    5000001    1    1    2    0    0  0.21216763098E+03 -0.67857794387E+02  0.31949846210E+03  0.39702399321E+03  0.77000000000E+02 0.  0.
   -5000001    1    1    2    0    0 -0.21216763098E+03  0.67857794387E+02  0.78679233703E+02  0.24847375256E+03  0.77000000000E+02 0.  0.
<mgrwt>
<rscale>  0 0.50805695E+03</rscale>
<asrwt>0</asrwt>
<pdfrwt beam="1">  1        2 0.74548247E-01 0.50805695E+03</pdfrwt>
<pdfrwt beam="2">  1       -2 0.17665717E-01 0.50805695E+03</pdfrwt>
<totfact> 0.16874783E+03</totfact>
</mgrwt>
</event>
<event>
 4    1  0.5562790E-004  0.2861191E+03  0.7818608E-02  0.1092393E+00
          2   -1    0    0  501    0  0.00000000000E+00  0.00000000000E+00  0.38439158977E+03  0.38439158978E+03  0.25500000000E-02 0.  1.
         -2   -1    0    0    0  501 -0.00000000000E+00 -0.00000000000E+00 -0.53242675456E+02  0.53242675517E+02  0.25500000000E-02 0. -1.
    5000001    1    1    2    0    0 -0.61478616331E+02 -0.99077922252E+02  0.11865477676E+03  0.18331396835E+03  0.77000000000E+02 0.  0.
   -5000001    1    1    2    0    0  0.61478616331E+02  0.99077922252E+02  0.21249413755E+03  0.25432029695E+03  0.77000000000E+02 0.  0.
<mgrwt>
<rscale>  0 0.28611911E+03</rscale>
<asrwt>0</asrwt>
<pdfrwt beam="1">  1        2 0.54913082E-01 0.28611911E+03</pdfrwt>
<pdfrwt beam="2">  1       -2 0.76060968E-02 0.28611911E+03</pdfrwt>
<totfact> 0.92109910E+03</totfact>
</mgrwt>
</event>
<event>
 4    1  0.5562790E-004  0.3685474E+03  0.7818608E-02  0.1055250E+00
          2   -1    0    0  501    0  0.00000000000E+00  0.00000000000E+00  0.11415631148E+04  0.11415631148E+04  0.25500000000E-02 0.  1.
         -2   -1    0    0    0  501 -0.00000000000E+00 -0.00000000000E+00 -0.29745876510E+02  0.29745876619E+02  0.25500000000E-02 0. -1.
    5000001    1    1    2    0    0 -0.12899111127E+03 -0.90766685106E+02  0.37751976824E+03  0.41632616219E+03  0.77000000000E+02 0.  0.
   -5000001    1    1    2    0    0  0.12899111127E+03  0.90766685106E+02  0.73429747008E+03  0.75498282926E+03  0.77000000000E+02 0.  0.
<mgrwt>
<rscale>  0 0.36854739E+03</rscale>
<asrwt>0</asrwt>
<pdfrwt beam="1">  1        2 0.16308046E+00 0.36854739E+03</pdfrwt>
<pdfrwt beam="2">  1       -2 0.42494105E-02 0.36854739E+03</pdfrwt>
<totfact> 0.60866986E+03</totfact>
</mgrwt>
</event>
<event>
 4    1  0.5562790E-004  0.2058402E+03  0.7818608E-02  0.1144903E+00
          2   -1    0    0  501    0  0.00000000000E+00  0.00000000000E+00  0.31797530556E+03  0.31797530557E+03  0.25500000000E-02 0.  1.
         -2   -1    0    0    0  501 -0.00000000000E+00 -0.00000000000E+00 -0.33312472087E+02  0.33312472185E+02  0.25500000000E-02 0. -1.
    5000001    1    1    2    0    0 -0.20243305858E+02  0.58798985294E+02  0.19049370410E+03  0.21467175735E+03  0.77000000000E+02 0.  0.
   -5000001    1    1    2    0    0  0.20243305858E+02 -0.58798985294E+02  0.94169129376E+02  0.13661602040E+03  0.77000000000E+02 0.  0.
<mgrwt>
<rscale>  0 0.20584017E+03</rscale>
<asrwt>0</asrwt>
<pdfrwt beam="1">  1        2 0.45425045E-01 0.20584017E+03</pdfrwt>
<pdfrwt beam="2">  1       -2 0.47589244E-02 0.20584017E+03</pdfrwt>
<totfact> 0.22737527E+04</totfact>
</mgrwt>
</event>
<event>
 4    1  0.5562790E-004  0.5066369E+03  0.7818608E-02  0.1012061E+00
         -2   -1    0    0    0  501 -0.00000000000E+00  0.00000000000E+00  0.27375005642E+03  0.27375005643E+03  0.25500000000E-02 0. -1.
          2   -1    0    0  501    0  0.00000000000E+00 -0.00000000000E+00 -0.23441178523E+03  0.23441178525E+03  0.25500000000E-02 0.  1.
    5000001    1    1    2    0    0 -0.21660056904E+03  0.77153516890E+02 -0.53850654617E+02  0.24838954221E+03  0.77000000000E+02 0.  0.
   -5000001    1    1    2    0    0  0.21660056904E+03 -0.77153516890E+02  0.93188925804E+02  0.25977229947E+03  0.77000000000E+02 0.  0.
<mgrwt>
<rscale>  0 0.50663691E+03</rscale>
<asrwt>0</asrwt>
<pdfrwt beam="1">  1        2 0.33487398E-01 0.50663691E+03</pdfrwt>
<pdfrwt beam="2">  1       -2 0.39107151E-01 0.50663691E+03</pdfrwt>
<totfact> 0.97343546E+02</totfact>
</mgrwt>
</event>
<event>
 4    1  0.5562790E-004  0.1835312E+03  0.7818608E-02  0.1164429E+00
         -2   -1    0    0    0  501 -0.00000000000E+00  0.00000000000E+00  0.31546980255E+01  0.31546990561E+01  0.25500000000E-02 0. -1.
          2   -1    0    0  501    0  0.00000000000E+00 -0.00000000000E+00 -0.26693274227E+04  0.26693274227E+04  0.25500000000E-02 0.  1.
    5000001    1    1    2    0    0 -0.29029035399E+02  0.39052553649E+02 -0.14953251454E+04  0.14980968184E+04  0.77000000000E+02 0.  0.
   -5000001    1    1    2    0    0  0.29029035399E+02 -0.39052553649E+02 -0.11708475793E+04  0.11743853034E+04  0.77000000000E+02 0.  0.
<mgrwt>
<rscale>  0 0.18353118E+03</rscale>
<asrwt>0</asrwt>
<pdfrwt beam="1">  1        2 0.38133104E+00 0.18353118E+03</pdfrwt>
<pdfrwt beam="2">  1       -2 0.45067293E-03 0.18353118E+03</pdfrwt>
<totfact> 0.27407398E+04</totfact>
</mgrwt>
</event>
<event>
 4    1  0.5562790E-004  0.3189455E+03  0.7818608E-02  0.1076136E+00
         -2   -1    0    0    0  501 -0.00000000000E+00  0.00000000000E+00  0.71411510066E+01  0.71411514619E+01  0.25500000000E-02 0. -1.
          2   -1    0    0  501    0  0.00000000000E+00 -0.00000000000E+00 -0.35612695585E+04  0.35612695585E+04  0.25500000000E-02 0.  1.
    5000001    1    1    2    0    0 -0.10981886158E+03 -0.79789990160E+02 -0.21440525294E+04  0.21497248368E+04  0.77000000000E+02 0.  0.
   -5000001    1    1    2    0    0  0.10981886158E+03  0.79789990160E+02 -0.14100758781E+04  0.14186858732E+04  0.77000000000E+02 0.  0.
<mgrwt>
<rscale>  0 0.31894554E+03</rscale>
<asrwt>0</asrwt>
<pdfrwt beam="1">  1        2 0.50875166E+00 0.31894554E+03</pdfrwt>
<pdfrwt beam="2">  1       -2 0.10201667E-02 0.31894554E+03</pdfrwt>
<totfact> 0.27868492E+03</totfact>
</mgrwt>
</event>
<event>
 4    1  0.5562790E-004  0.3091799E+03  0.7818608E-02  0.1080740E+00
         -2   -1    0    0    0  501 -0.00000000000E+00  0.00000000000E+00  0.13827389705E+02  0.13827389940E+02  0.25500000000E-02 0. -1.
          2   -1    0    0  501    0  0.00000000000E+00 -0.00000000000E+00 -0.17283126309E+04  0.17283126309E+04  0.25500000000E-02 0.  1.
    5000001    1    1    2    0    0  0.76433194294E+02 -0.95157214246E+02 -0.11695564160E+04  0.11784261279E+04  0.77000000000E+02 0.  0.
   -5000001    1    1    2    0    0 -0.76433194294E+02  0.95157214246E+02 -0.54492882518E+03  0.56371389297E+03  0.77000000000E+02 0.  0.
<mgrwt>
<rscale>  0 0.30917990E+03</rscale>
<asrwt>0</asrwt>
<pdfrwt beam="1">  1        2 0.24690167E+00 0.30917990E+03</pdfrwt>
<pdfrwt beam="2">  1       -2 0.19753425E-02 0.30917990E+03</pdfrwt>
<totfact> 0.94696162E+03</totfact>
</mgrwt>
</event>
<event>
 4    1  0.5562790E-004  0.1840845E+03  0.7818608E-02  0.1163908E+00
         -2   -1    0    0    0  501 -0.00000000000E+00  0.00000000000E+00  0.63272273369E+02  0.63272273420E+02  0.25500000000E-02 0. -1.
          2   -1    0    0  501    0  0.00000000000E+00 -0.00000000000E+00 -0.13389399537E+03  0.13389399539E+03  0.25500000000E-02 0.  1.
    5000001    1    1    2    0    0  0.42106505475E+02 -0.29897272643E+01 -0.57665557033E+01  0.88000849071E+02  0.77000000000E+02 0.  0.
   -5000001    1    1    2    0    0 -0.42106505475E+02  0.29897272643E+01 -0.64855166298E+02  0.10916541974E+03  0.77000000000E+02 0.  0.
<mgrwt>
<rscale>  0 0.18408452E+03</rscale>
<asrwt>0</asrwt>
<pdfrwt beam="1">  1        2 0.19127714E-01 0.18408452E+03</pdfrwt>
<pdfrwt beam="2">  1       -2 0.90388962E-02 0.18408452E+03</pdfrwt>
<totfact> 0.21747166E+04</totfact>
</mgrwt>
</event>
<event>
 4    1  0.5562790E-004  0.1661034E+03  0.7818608E-02  0.1181973E+00
          2   -1    0    0  501    0  0.00000000000E+00  0.00000000000E+00  0.20367467374E+03  0.20367467376E+03  0.25500000000E-02 0.  1.
         -2   -1    0    0    0  501 -0.00000000000E+00 -0.00000000000E+00 -0.33865697190E+02  0.33865697286E+02  0.25500000000E-02 0. -1.
    5000001    1    1    2    0    0 -0.20496938013E+02  0.22930937054E+02  0.78101101684E+02  0.11390669175E+03  0.77000000000E+02 0.  0.
   -5000001    1    1    2    0    0  0.20496938013E+02 -0.22930937054E+02  0.91707874870E+02  0.12363367929E+03  0.77000000000E+02 0.  0.
<mgrwt>
<rscale>  0 0.16610340E+03</rscale>
<asrwt>0</asrwt>
<pdfrwt beam="1">  1        2 0.29096381E-01 0.16610340E+03</pdfrwt>
<pdfrwt beam="2">  1       -2 0.48379568E-02 0.16610340E+03</pdfrwt>
<totfact> 0.35172123E+04</totfact>
</mgrwt>
</event>
<event>
 4    1  0.5562790E-004  0.3346599E+03  0.7818608E-02  0.1069093E+00
          2   -1    0    0  501    0  0.00000000000E+00  0.00000000000E+00  0.10224240172E+03  0.10224240175E+03  0.25500000000E-02 0.  1.
         -2   -1    0    0    0  501 -0.00000000000E+00 -0.00000000000E+00 -0.27385231619E+03  0.27385231620E+03  0.25500000000E-02 0. -1.
    5000001    1    1    2    0    0 -0.12016592597E+03 -0.29086824480E+02 -0.17837064745E+03  0.23028456525E+03  0.77000000000E+02 0.  0.
   -5000001    1    1    2    0    0  0.12016592597E+03  0.29086824480E+02  0.67607329842E+01  0.14581015271E+03  0.77000000000E+02 0.  0.
<mgrwt>
<rscale>  0 0.33465994E+03</rscale>
<asrwt>0</asrwt>
<pdfrwt beam="1">  1        2 0.14606058E-01 0.33465994E+03</pdfrwt>
<pdfrwt beam="2">  1       -2 0.39121759E-01 0.33465994E+03</pdfrwt>
<totfact> 0.25111853E+03</totfact>
</mgrwt>
</event>
<event>
 4    1  0.5562790E-004  0.3975384E+03  0.7818608E-02  0.1044635E+00
          2   -1    0    0  501    0  0.00000000000E+00  0.00000000000E+00  0.52652663869E+03  0.52652663869E+03  0.25500000000E-02 0.  1.
         -2   -1    0    0    0  501 -0.00000000000E+00 -0.00000000000E+00 -0.75037405915E+02  0.75037405958E+02  0.25500000000E-02 0. -1.
    5000001    1    1    2    0    0 -0.32421713236E+02  0.17873439093E+03  0.26228332029E+03  0.32820525604E+03  0.77000000000E+02 0.  0.
   -5000001    1    1    2    0    0  0.32421713236E+02 -0.17873439093E+03  0.18920591248E+03  0.27335878861E+03  0.77000000000E+02 0.  0.
<mgrwt>
<rscale>  0 0.39753839E+03</rscale>
<asrwt>0</asrwt>
<pdfrwt beam="1">  1        2 0.75218095E-01 0.39753839E+03</pdfrwt>
<pdfrwt beam="2">  1       -2 0.10719629E-01 0.39753839E+03</pdfrwt>
<totfact> 0.38154246E+03</totfact>
</mgrwt>
</event>
<event>
 4    1  0.5562790E-004  0.4974761E+03  0.7818608E-02  0.1014440E+00
         -2   -1    0    0    0  501 -0.00000000000E+00  0.00000000000E+00  0.19159261212E+03  0.19159261214E+03  0.25500000000E-02 0. -1.
          2   -1    0    0  501    0  0.00000000000E+00 -0.00000000000E+00 -0.32292802981E+03  0.32292802982E+03  0.25500000000E-02 0.  1.
    5000001    1    1    2    0    0  0.18739558235E+03 -0.11888804095E+03 -0.15026347351E+03  0.27885405149E+03  0.77000000000E+02 0.  0.
   -5000001    1    1    2    0    0 -0.18739558235E+03  0.11888804095E+03  0.18928055822E+02  0.23566659046E+03  0.77000000000E+02 0.  0.
<mgrwt>
<rscale>  0 0.49747613E+03</rscale>
<asrwt>0</asrwt>
<pdfrwt beam="1">  1        2 0.46132575E-01 0.49747613E+03</pdfrwt>
<pdfrwt beam="2">  1       -2 0.27370373E-01 0.49747613E+03</pdfrwt>
<totfact> 0.13320286E+03</totfact>
</mgrwt>
</event>
<event>
 4    1  0.5562790E-004  0.2703129E+03  0.7818608E-02  0.1101101E+00
          2   -1    0    0  501    0  0.00000000000E+00  0.00000000000E+00  0.15586897387E+03  0.15586897389E+03  0.25500000000E-02 0.  1.
         -2   -1    0    0    0  501 -0.00000000000E+00 -0.00000000000E+00 -0.11719628430E+03  0.11719628433E+03  0.25500000000E-02 0. -1.
    5000001    1    1    2    0    0  0.88623548986E+02  0.74534393332E+01  0.86561499874E+02  0.14605334797E+03  0.77000000000E+02 0.  0.
   -5000001    1    1    2    0    0 -0.88623548986E+02 -0.74534393332E+01 -0.47888810300E+02  0.12701191025E+03  0.77000000000E+02 0.  0.
<mgrwt>
<rscale>  0 0.27031289E+03</rscale>
<asrwt>0</asrwt>
<pdfrwt beam="1">  1        2 0.22266996E-01 0.27031289E+03</pdfrwt>
<pdfrwt beam="2">  1       -2 0.16742326E-01 0.27031289E+03</pdfrwt>
<totfact> 0.69214773E+03</totfact>
</mgrwt>
</event>
<event>
 4    1  0.5562790E-004  0.3841648E+03  0.7818608E-02  0.1049405E+00
         -2   -1    0    0    0  501 -0.00000000000E+00  0.00000000000E+00  0.21809140098E+02  0.21809140247E+02  0.25500000000E-02 0. -1.
          2   -1    0    0  501    0  0.00000000000E+00 -0.00000000000E+00 -0.16917520206E+04  0.16917520206E+04  0.25500000000E-02 0.  1.
    5000001    1    1    2    0    0 -0.11010611103E+03 -0.13709811966E+03 -0.86568304980E+03  0.88671043346E+03  0.77000000000E+02 0.  0.
   -5000001    1    1    2    0    0  0.11010611103E+03  0.13709811966E+03 -0.80425983069E+03  0.82685072738E+03  0.77000000000E+02 0.  0.
<mgrwt>
<rscale>  0 0.38416484E+03</rscale>
<asrwt>0</asrwt>
<pdfrwt beam="1">  1        2 0.24167878E+00 0.38416484E+03</pdfrwt>
<pdfrwt beam="2">  1       -2 0.31155925E-02 0.38416484E+03</pdfrwt>
<totfact> 0.50177902E+03</totfact>
</mgrwt>
</event>
<event>
 4    1  0.5562790E-004  0.2009018E+03  0.7818608E-02  0.1148980E+00
          2   -1    0    0  501    0  0.00000000000E+00  0.00000000000E+00  0.20309662640E+04  0.20309662640E+04  0.25500000000E-02 0.  1.
         -2   -1    0    0    0  501 -0.00000000000E+00 -0.00000000000E+00 -0.49682676058E+01  0.49682682602E+01  0.25500000000E-02 0. -1.
    5000001    1    1    2    0    0  0.56090952097E+02 -0.30685094326E+02  0.92605050409E+03  0.93144313088E+03  0.77000000000E+02 0.  0.
   -5000001    1    1    2    0    0 -0.56090952097E+02  0.30685094326E+02  0.10999474923E+04  0.11044914014E+04  0.77000000000E+02 0.  0.
<mgrwt>
<rscale>  0 0.20090181E+03</rscale>
<asrwt>0</asrwt>
<pdfrwt beam="1">  1        2 0.29013782E+00 0.20090181E+03</pdfrwt>
<pdfrwt beam="2">  1       -2 0.70975309E-03 0.20090181E+03</pdfrwt>
<totfact> 0.29467032E+04</totfact>
</mgrwt>
</event>
<event>
 4    1  0.5562790E-004  0.2612268E+03  0.7818608E-02  0.1106408E+00
          2   -1    0    0  501    0  0.00000000000E+00  0.00000000000E+00  0.10553083885E+04  0.10553083885E+04  0.25500000000E-02 0.  1.
         -2   -1    0    0    0  501 -0.00000000000E+00 -0.00000000000E+00 -0.16165762455E+02  0.16165762656E+02  0.25500000000E-02 0. -1.
    5000001    1    1    2    0    0  0.70660061189E+02 -0.69642253673E+02  0.37236786637E+03  0.39297546443E+03  0.77000000000E+02 0.  0.
   -5000001    1    1    2    0    0 -0.70660061189E+02  0.69642253673E+02  0.66677475968E+03  0.67849868672E+03  0.77000000000E+02 0.  0.
<mgrwt>
<rscale>  0 0.26122684E+03</rscale>
<asrwt>0</asrwt>
<pdfrwt beam="1">  1        2 0.15075836E+00 0.26122684E+03</pdfrwt>
<pdfrwt beam="2">  1       -2 0.23093944E-02 0.26122684E+03</pdfrwt>
<totfact> 0.16802901E+04</totfact>
</mgrwt>
</event>
<event>
 4    1  0.5562790E-004  0.4641190E+03  0.7818608E-02  0.1023593E+00
          2   -1    0    0  501    0  0.00000000000E+00  0.00000000000E+00  0.75203053529E+03  0.75203053529E+03  0.25500000000E-02 0.  1.
         -2   -1    0    0    0  501 -0.00000000000E+00 -0.00000000000E+00 -0.71608270417E+02  0.71608270462E+02  0.25500000000E-02 0. -1.
    5000001    1    1    2    0    0 -0.19610261880E+03  0.85976360002E+02  0.42103829345E+03  0.47859211875E+03  0.77000000000E+02 0.  0.
   -5000001    1    1    2    0    0  0.19610261880E+03 -0.85976360002E+02  0.25938397142E+03  0.34504668700E+03  0.77000000000E+02 0.  0.
<mgrwt>
<rscale>  0 0.46411898E+03</rscale>
<asrwt>0</asrwt>
<pdfrwt beam="1">  1        2 0.10743293E+00 0.46411898E+03</pdfrwt>
<pdfrwt beam="2">  1       -2 0.10229753E-01 0.46411898E+03</pdfrwt>
<totfact> 0.27084332E+03</totfact>
</mgrwt>
</event>
<event>
 4    1  0.5562790E-004  0.2842891E+03  0.7818608E-02  0.1093369E+00
         -2   -1    0    0    0  501 -0.00000000000E+00  0.00000000000E+00  0.20766402423E+02  0.20766402579E+02  0.25500000000E-02 0. -1.
          2   -1    0    0  501    0  0.00000000000E+00 -0.00000000000E+00 -0.97296963037E+03  0.97296963037E+03  0.25500000000E-02 0.  1.
    5000001    1    1    2    0    0  0.95515751387E+02  0.43981230783E+02 -0.67440749903E+03  0.68688578539E+03  0.77000000000E+02 0.  0.
   -5000001    1    1    2    0    0 -0.95515751387E+02 -0.43981230783E+02 -0.27779572892E+03  0.30685024756E+03  0.77000000000E+02 0.  0.
<mgrwt>
<rscale>  0 0.28428914E+03</rscale>
<asrwt>0</asrwt>
<pdfrwt beam="1">  1        2 0.13899563E+00 0.28428914E+03</pdfrwt>
<pdfrwt beam="2">  1       -2 0.29666295E-02 0.28428914E+03</pdfrwt>
<totfact> 0.12999114E+04</totfact>
</mgrwt>
</event>
<event>
 4    1  0.5562790E-004  0.3118662E+03  0.7818608E-02  0.1079455E+00
         -2   -1    0    0    0  501 -0.00000000000E+00  0.00000000000E+00  0.34563669962E+02  0.34563670056E+02  0.25500000000E-02 0. -1.
          2   -1    0    0  501    0  0.00000000000E+00 -0.00000000000E+00 -0.70348797275E+03  0.70348797275E+03  0.25500000000E-02 0.  1.
    5000001    1    1    2    0    0  0.58815072734E+02  0.11607317206E+03 -0.42470037842E+03  0.45081216208E+03  0.77000000000E+02 0.  0.
   -5000001    1    1    2    0    0 -0.58815072734E+02 -0.11607317206E+03 -0.24422392436E+03  0.28723948072E+03  0.77000000000E+02 0.  0.
<mgrwt>
<rscale>  0 0.31186616E+03</rscale>
<asrwt>0</asrwt>
<pdfrwt beam="1">  1        2 0.10049827E+00 0.31186616E+03</pdfrwt>
<pdfrwt beam="2">  1       -2 0.49376676E-02 0.31186616E+03</pdfrwt>
<totfact> 0.91168584E+03</totfact>
</mgrwt>
</event>
<event>
 4    1  0.5562790E-004  0.3214255E+03  0.7818608E-02  0.1074995E+00
          2   -1    0    0  501    0  0.00000000000E+00  0.00000000000E+00  0.33703892308E+04  0.33703892308E+04  0.25500000000E-02 0.  1.
         -2   -1    0    0    0  501 -0.00000000000E+00 -0.00000000000E+00 -0.76633820800E+01  0.76633825042E+01  0.25500000000E-02 0. -1.
    5000001    1    1    2    0    0  0.49038611044E+02 -0.11837482882E+03  0.23015357393E+04  0.23063852984E+04  0.77000000000E+02 0.  0.
   -5000001    1    1    2    0    0 -0.49038611044E+02  0.11837482882E+03  0.10611901094E+04  0.10716673149E+04  0.77000000000E+02 0.  0.
<mgrwt>
<rscale>  0 0.32142546E+03</rscale>
<asrwt>0</asrwt>
<pdfrwt beam="1">  1        2 0.48148458E+00 0.32142546E+03</pdfrwt>
<pdfrwt beam="2">  1       -2 0.10947680E-02 0.32142546E+03</pdfrwt>
<totfact> 0.32410145E+03</totfact>
</mgrwt>
</event>
<event>
 4    1  0.5562790E-004  0.1550206E+03  0.7818608E-02  0.1194436E+00
         -2   -1    0    0    0  501 -0.00000000000E+00  0.00000000000E+00  0.82429827409E+01  0.82429831353E+01  0.25500000000E-02 0. -1.
          2   -1    0    0  501    0  0.00000000000E+00 -0.00000000000E+00 -0.72884337772E+03  0.72884337772E+03  0.25500000000E-02 0.  1.
    5000001    1    1    2    0    0 -0.81656148052E+01  0.30883620872E+01 -0.36800861598E+03  0.37607918937E+03  0.77000000000E+02 0.  0.
   -5000001    1    1    2    0    0  0.81656148052E+01 -0.30883620872E+01 -0.35259177900E+03  0.36100717148E+03  0.77000000000E+02 0.  0.
<mgrwt>
<rscale>  0 0.15502056E+03</rscale>
<asrwt>0</asrwt>
<pdfrwt beam="1">  1        2 0.10412044E+00 0.15502056E+03</pdfrwt>
<pdfrwt beam="2">  1       -2 0.11775695E-02 0.15502056E+03</pdfrwt>
<totfact> 0.69111261E+04</totfact>
</mgrwt>
</event>
<event>
 4    1  0.5562790E-004  0.2760162E+03  0.7818608E-02  0.1097885E+00
         -2   -1    0    0    0  501 -0.00000000000E+00  0.00000000000E+00  0.41763483523E+03  0.41763483524E+03  0.25500000000E-02 0. -1.
          2   -1    0    0  501    0  0.00000000000E+00 -0.00000000000E+00 -0.45604989775E+02  0.45604989847E+02  0.25500000000E-02 0.  1.
    5000001    1    1    2    0    0 -0.68094315535E+02  0.91455850689E+02  0.16792156305E+03  0.21708905954E+03  0.77000000000E+02 0.  0.
   -5000001    1    1    2    0    0  0.68094315535E+02 -0.91455850689E+02  0.20410828240E+03  0.24615076555E+03  0.77000000000E+02 0.  0.
<mgrwt>
<rscale>  0 0.27601618E+03</rscale>
<asrwt>0</asrwt>
<pdfrwt beam="1">  1        2 0.65149981E-02 0.27601618E+03</pdfrwt>
<pdfrwt beam="2">  1       -2 0.59662124E-01 0.27601618E+03</pdfrwt>
<totfact> 0.29589074E+03</totfact>
</mgrwt>
</event>
<event>
 4    1  0.5562790E-004  0.2045654E+03  0.7818608E-02  0.1145943E+00
          2   -1    0    0  501    0  0.00000000000E+00  0.00000000000E+00  0.14993739201E+04  0.14993739201E+04  0.25500000000E-02 0.  1.
         -2   -1    0    0    0  501 -0.00000000000E+00 -0.00000000000E+00 -0.69774108433E+01  0.69774113093E+01  0.25500000000E-02 0. -1.
    5000001    1    1    2    0    0  0.77327435978E+00  0.51861157287E+02  0.10622849519E+04  0.10663341393E+04  0.77000000000E+02 0.  0.
   -5000001    1    1    2    0    0 -0.77327435978E+00 -0.51861157287E+02  0.43011155738E+03  0.44001719214E+03  0.77000000000E+02 0.  0.
<mgrwt>
<rscale>  0 0.20456538E+03</rscale>
<asrwt>0</asrwt>
<pdfrwt beam="1">  1        2 0.21419652E+00 0.20456538E+03</pdfrwt>
<pdfrwt beam="2">  1       -2 0.99677185E-03 0.20456538E+03</pdfrwt>
<totfact> 0.32847778E+04</totfact>
</mgrwt>
</event>
<event>
 4    1  0.5562790E-004  0.1991395E+03  0.7818608E-02  0.1150467E+00
         -2   -1    0    0    0  501 -0.00000000000E+00  0.00000000000E+00  0.14156171553E+02  0.14156171783E+02  0.25500000000E-02 0. -1.
          2   -1    0    0  501    0  0.00000000000E+00 -0.00000000000E+00 -0.70033996060E+03  0.70033996061E+03  0.25500000000E-02 0.  1.
    5000001    1    1    2    0    0 -0.20219035640E+02 -0.26411643559E+02 -0.53559794186E+03  0.54212594445E+03  0.77000000000E+02 0.  0.
   -5000001    1    1    2    0    0  0.20219035640E+02  0.26411643559E+02 -0.15058584719E+03  0.17237018794E+03  0.77000000000E+02 0.  0.
<mgrwt>
<rscale>  0 0.19913948E+03</rscale>
<asrwt>0</asrwt>
<pdfrwt beam="1">  1        2 0.10004854E+00 0.19913948E+03</pdfrwt>
<pdfrwt beam="2">  1       -2 0.20223107E-02 0.19913948E+03</pdfrwt>
<totfact> 0.33837959E+04</totfact>
</mgrwt>
</event>
<event>
 4    1  0.5562790E-004  0.5592223E+03  0.7818608E-02  0.9993816E-01
         -2   -1    0    0    0  501 -0.00000000000E+00  0.00000000000E+00  0.56296767102E+02  0.56296767160E+02  0.25500000000E-02 0. -1.
          2   -1    0    0  501    0  0.00000000000E+00 -0.00000000000E+00 -0.13887545666E+04  0.13887545666E+04  0.25500000000E-02 0.  1.
    5000001    1    1    2    0    0 -0.78223783540E+02  0.14179147291E+03 -0.12206215329E+04  0.12337218928E+04  0.77000000000E+02 0.  0.
   -5000001    1    1    2    0    0  0.78223783540E+02 -0.14179147291E+03 -0.11183626657E+03  0.21132944097E+03  0.77000000000E+02 0.  0.
<mgrwt>
<rscale>  0 0.55922229E+03</rscale>
<asrwt>0</asrwt>
<pdfrwt beam="1">  1        2 0.19839349E+00 0.55922229E+03</pdfrwt>
<pdfrwt beam="2">  1       -2 0.80423962E-02 0.55922229E+03</pdfrwt>
<totfact> 0.16567348E+03</totfact>
</mgrwt>
</event>
<event>
 4    1  0.5562790E-004  0.3419384E+03  0.7818608E-02  0.1065973E+00
         -2   -1    0    0    0  501 -0.00000000000E+00  0.00000000000E+00  0.20045879621E+02  0.20045879783E+02  0.25500000000E-02 0. -1.
          2   -1    0    0  501    0  0.00000000000E+00 -0.00000000000E+00 -0.14581780021E+04  0.14581780021E+04  0.25500000000E-02 0.  1.
    5000001    1    1    2    0    0  0.40727976402E+02 -0.13971661335E+03 -0.91820723234E+03  0.93285208990E+03  0.77000000000E+02 0.  0.
   -5000001    1    1    2    0    0 -0.40727976402E+02  0.13971661335E+03 -0.51992489018E+03  0.54537179202E+03  0.77000000000E+02 0.  0.
<mgrwt>
<rscale>  0 0.34193836E+03</rscale>
<asrwt>0</asrwt>
<pdfrwt beam="1">  1        2 0.20831108E+00 0.34193836E+03</pdfrwt>
<pdfrwt beam="2">  1       -2 0.28636980E-02 0.34193836E+03</pdfrwt>
<totfact> 0.74678549E+03</totfact>
</mgrwt>
</event>
<event>
 4    1  0.5562790E-004  0.3497336E+03  0.7818608E-02  0.1062724E+00
         -2   -1    0    0    0  501 -0.00000000000E+00  0.00000000000E+00  0.53730571390E+02  0.53730571451E+02  0.25500000000E-02 0. -1.
          2   -1    0    0  501    0  0.00000000000E+00 -0.00000000000E+00 -0.56910607040E+03  0.56910607041E+03  0.25500000000E-02 0.  1.
    5000001    1    1    2    0    0 -0.12330558911E+03 -0.40583425548E+02 -0.41495255568E+03  0.44154943800E+03  0.77000000000E+02 0.  0.
   -5000001    1    1    2    0    0  0.12330558911E+03  0.40583425548E+02 -0.10042294333E+03  0.18128720386E+03  0.77000000000E+02 0.  0.
<mgrwt>
<rscale>  0 0.34973358E+03</rscale>
<asrwt>0</asrwt>
<pdfrwt beam="1">  1        2 0.81300864E-01 0.34973358E+03</pdfrwt>
<pdfrwt beam="2">  1       -2 0.76757962E-02 0.34973358E+03</pdfrwt>
<totfact> 0.59240799E+03</totfact>
</mgrwt>
</event>
<event>
 4    1  0.5562790E-004  0.2798209E+03  0.7818608E-02  0.1095787E+00
         -2   -1    0    0    0  501 -0.00000000000E+00  0.00000000000E+00  0.22087246242E+02  0.22087246389E+02  0.25500000000E-02 0. -1.
          2   -1    0    0  501    0  0.00000000000E+00 -0.00000000000E+00 -0.88625489396E+03  0.88625489397E+03  0.25500000000E-02 0.  1.
    5000001    1    1    2    0    0 -0.85750583895E+02 -0.37650761068E+02 -0.65873867931E+03  0.66980324728E+03  0.77000000000E+02 0.  0.
   -5000001    1    1    2    0    0  0.85750583895E+02  0.37650761068E+02 -0.20542896841E+03  0.23853889308E+03  0.77000000000E+02 0.  0.
<mgrwt>
<rscale>  0 0.27982087E+03</rscale>
<asrwt>0</asrwt>
<pdfrwt beam="1">  1        2 0.12660782E+00 0.27982087E+03</pdfrwt>
<pdfrwt beam="2">  1       -2 0.31553215E-02 0.27982087E+03</pdfrwt>
<totfact> 0.13398948E+04</totfact>
</mgrwt>
</event>
<event>
 4    1  0.5562790E-004  0.2201379E+03  0.7818608E-02  0.1133780E+00
          2   -1    0    0  501    0  0.00000000000E+00  0.00000000000E+00  0.16411233987E+04  0.16411233987E+04  0.25500000000E-02 0.  1.
         -2   -1    0    0    0  501 -0.00000000000E+00 -0.00000000000E+00 -0.73822434397E+01  0.73822438802E+01  0.25500000000E-02 0. -1.
    5000001    1    1    2    0    0  0.26464926778E+02 -0.73784991024E+02  0.76859692081E+03  0.77641151713E+03  0.77000000000E+02 0.  0.
   -5000001    1    1    2    0    0 -0.26464926778E+02  0.73784991024E+02  0.86514423445E+03  0.87209412546E+03  0.77000000000E+02 0.  0.
<mgrwt>
<rscale>  0 0.22013789E+03</rscale>
<asrwt>0</asrwt>
<pdfrwt beam="1">  1        2 0.23444625E+00 0.22013789E+03</pdfrwt>
<pdfrwt beam="2">  1       -2 0.10546060E-02 0.22013789E+03</pdfrwt>
<totfact> 0.25860489E+04</totfact>
</mgrwt>
</event>
<event>
 4    1  0.5562790E-004  0.1751681E+03  0.7818608E-02  0.1172563E+00
         -2   -1    0    0    0  501 -0.00000000000E+00  0.00000000000E+00  0.43521879930E+01  0.43521887400E+01  0.25500000000E-02 0. -1.
          2   -1    0    0  501    0  0.00000000000E+00 -0.00000000000E+00 -0.17625532339E+04  0.17625532339E+04  0.25500000000E-02 0.  1.
    5000001    1    1    2    0    0 -0.31712033333E+02  0.20562315783E+02 -0.10576992505E+04  0.10611716008E+04  0.77000000000E+02 0.  0.
   -5000001    1    1    2    0    0  0.31712033333E+02 -0.20562315783E+02 -0.70050179544E+03  0.70573382185E+03  0.77000000000E+02 0.  0.
<mgrwt>
<rscale>  0 0.17516808E+03</rscale>
<asrwt>0</asrwt>
<pdfrwt beam="1">  1        2 0.25179286E+00 0.17516808E+03</pdfrwt>
<pdfrwt beam="2">  1       -2 0.62174233E-03 0.17516808E+03</pdfrwt>
<totfact> 0.47573370E+04</totfact>
</mgrwt>
</event>
<event>
 4    1  0.5562790E-004  0.1996413E+03  0.7818608E-02  0.1150042E+00
         -2   -1    0    0    0  501 -0.00000000000E+00  0.00000000000E+00  0.13547478691E+02  0.13547478931E+02  0.25500000000E-02 0. -1.
          2   -1    0    0  501    0  0.00000000000E+00 -0.00000000000E+00 -0.73549924974E+03  0.73549924975E+03  0.25500000000E-02 0.  1.
    5000001    1    1    2    0    0  0.62317114536E+02 -0.12206678895E+02 -0.35477125555E+03  0.36854317188E+03  0.77000000000E+02 0.  0.
   -5000001    1    1    2    0    0 -0.62317114536E+02  0.12206678895E+02 -0.36718051550E+03  0.38050355680E+03  0.77000000000E+02 0.  0.
<mgrwt>
<rscale>  0 0.19964128E+03</rscale>
<asrwt>0</asrwt>
<pdfrwt beam="1">  1        2 0.10507130E+00 0.19964128E+03</pdfrwt>
<pdfrwt beam="2">  1       -2 0.19353546E-02 0.19964128E+03</pdfrwt>
<totfact> 0.34055554E+04</totfact>
</mgrwt>
</event>
<event>
 4    1  0.5562790E-004  0.1919611E+03  0.7818608E-02  0.1156704E+00
          2   -1    0    0  501    0  0.00000000000E+00  0.00000000000E+00  0.19736143459E+03  0.19736143461E+03  0.25500000000E-02 0.  1.
         -2   -1    0    0    0  501 -0.00000000000E+00 -0.00000000000E+00 -0.46677156078E+02  0.46677156148E+02  0.25500000000E-02 0. -1.
    5000001    1    1    2    0    0 -0.46968700075E+02  0.14166832538E+02  0.11297994057E+03  0.14525916461E+03  0.77000000000E+02 0.  0.
   -5000001    1    1    2    0    0  0.46968700075E+02 -0.14166832538E+02  0.37704337943E+02  0.98779426150E+02  0.77000000000E+02 0.  0.
<mgrwt>
<rscale>  0 0.19196115E+03</rscale>
<asrwt>0</asrwt>
<pdfrwt beam="1">  1        2 0.28194491E-01 0.19196115E+03</pdfrwt>
<pdfrwt beam="2">  1       -2 0.66681652E-02 0.19196115E+03</pdfrwt>
<totfact> 0.22653274E+04</totfact>
</mgrwt>
</event>
<event>
 4    1  0.5562790E-004  0.1758187E+03  0.7818608E-02  0.1171912E+00
         -2   -1    0    0    0  501 -0.00000000000E+00  0.00000000000E+00  0.13443558947E+02  0.13443559189E+02  0.25500000000E-02 0. -1.
          2   -1    0    0  501    0  0.00000000000E+00 -0.00000000000E+00 -0.57485196774E+03  0.57485196775E+03  0.25500000000E-02 0.  1.
    5000001    1    1    2    0    0 -0.10259948533E+02 -0.40720932076E+02 -0.26074109603E+03  0.27509703745E+03  0.77000000000E+02 0.  0.
   -5000001    1    1    2    0    0  0.10259948533E+02  0.40720932076E+02 -0.30066731276E+03  0.31319848949E+03  0.77000000000E+02 0.  0.
<mgrwt>
<rscale>  0 0.17581873E+03</rscale>
<asrwt>0</asrwt>
<pdfrwt beam="1">  1        2 0.82121694E-01 0.17581873E+03</pdfrwt>
<pdfrwt beam="2">  1       -2 0.19205088E-02 0.17581873E+03</pdfrwt>
<totfact> 0.45261423E+04</totfact>
</mgrwt>
</event>
<event>
 4    1  0.5562790E-004  0.2480361E+03  0.7818608E-02  0.1114552E+00
         -2   -1    0    0    0  501 -0.00000000000E+00  0.00000000000E+00  0.10537210175E+03  0.10537210178E+03  0.25500000000E-02 0. -1.
          2   -1    0    0  501    0  0.00000000000E+00 -0.00000000000E+00 -0.14596350564E+03  0.14596350566E+03  0.25500000000E-02 0.  1.
    5000001    1    1    2    0    0 -0.35302526938E+02 -0.67059727802E+02  0.41409386585E+02  0.11570225926E+03  0.77000000000E+02 0.  0.
   -5000001    1    1    2    0    0  0.35302526938E+02  0.67059727802E+02 -0.82000790474E+02  0.13563334818E+03  0.77000000000E+02 0.  0.
<mgrwt>
<rscale>  0 0.24803614E+03</rscale>
<asrwt>0</asrwt>
<pdfrwt beam="1">  1        2 0.20851929E-01 0.24803614E+03</pdfrwt>
<pdfrwt beam="2">  1       -2 0.15053157E-01 0.24803614E+03</pdfrwt>
<totfact> 0.88627333E+03</totfact>
</mgrwt>
</event>
<event>
 4    1  0.5562790E-004  0.1809172E+03  0.7818608E-02  0.1166918E+00
          2   -1    0    0  501    0  0.00000000000E+00  0.00000000000E+00  0.31895308568E+04  0.31895308568E+04  0.25500000000E-02 0.  1.
         -2   -1    0    0    0  501 -0.00000000000E+00 -0.00000000000E+00 -0.25655055429E+01  0.25655068102E+01  0.25500000000E-02 0. -1.
    5000001    1    1    2    0    0 -0.41949630433E+02  0.20094058204E+02  0.14258943595E+04  0.14287292490E+04  0.77000000000E+02 0.  0.
   -5000001    1    1    2    0    0  0.41949630433E+02 -0.20094058204E+02  0.17610709918E+04  0.17633671146E+04  0.77000000000E+02 0.  0.
<mgrwt>
<rscale>  0 0.18091723E+03</rscale>
<asrwt>0</asrwt>
<pdfrwt beam="1">  1        2 0.45564760E+00 0.18091723E+03</pdfrwt>
<pdfrwt beam="2">  1       -2 0.36650061E-03 0.18091723E+03</pdfrwt>
<totfact> 0.19763922E+04</totfact>
</mgrwt>
</event>
<event>
 4    1  0.5562790E-004  0.3762853E+03  0.7818608E-02  0.1052315E+00
         -2   -1    0    0    0  501 -0.00000000000E+00  0.00000000000E+00  0.85079916502E+02  0.85079916540E+02  0.25500000000E-02 0. -1.
          2   -1    0    0  501    0  0.00000000000E+00 -0.00000000000E+00 -0.41605191594E+03  0.41605191594E+03  0.25500000000E-02 0.  1.
    5000001    1    1    2    0    0 -0.15220978782E+03  0.58710554749E+02 -0.94339242609E+02  0.20357711424E+03  0.77000000000E+02 0.  0.
   -5000001    1    1    2    0    0  0.15220978782E+03 -0.58710554749E+02 -0.23663275682E+03  0.29755471824E+03  0.77000000000E+02 0.  0.
<mgrwt>
<rscale>  0 0.37628533E+03</rscale>
<asrwt>0</asrwt>
<pdfrwt beam="1">  1        2 0.59435987E-01 0.37628533E+03</pdfrwt>
<pdfrwt beam="2">  1       -2 0.12154274E-01 0.37628533E+03</pdfrwt>
<totfact> 0.40393127E+03</totfact>
</mgrwt>
</event>
<event>
 4    1  0.5562790E-004  0.2287356E+03  0.7818608E-02  0.1127533E+00
         -2   -1    0    0    0  501 -0.00000000000E+00  0.00000000000E+00  0.20714373262E+02  0.20714373419E+02  0.25500000000E-02 0. -1.
          2   -1    0    0  501    0  0.00000000000E+00 -0.00000000000E+00 -0.63144515904E+03  0.63144515905E+03  0.25500000000E-02 0.  1.
    5000001    1    1    2    0    0 -0.58929401927E+02 -0.57982288264E+02 -0.35607826373E+03  0.37357107766E+03  0.77000000000E+02 0.  0.
   -5000001    1    1    2    0    0  0.58929401927E+02  0.57982288264E+02 -0.25465252205E+03  0.27858845481E+03  0.77000000000E+02 0.  0.
<mgrwt>
<rscale>  0 0.22873557E+03</rscale>
<asrwt>0</asrwt>
<pdfrwt beam="1">  1        2 0.90206439E-01 0.22873557E+03</pdfrwt>
<pdfrwt beam="2">  1       -2 0.29591966E-02 0.22873557E+03</pdfrwt>
<totfact> 0.22003700E+04</totfact>
</mgrwt>
</event>
<event>
 4    1  0.5562790E-004  0.5392968E+03  0.7818608E-02  0.1004002E+00
          2   -1    0    0  501    0  0.00000000000E+00  0.00000000000E+00  0.64468546015E+03  0.64468546016E+03  0.25500000000E-02 0.  1.
         -2   -1    0    0    0  501 -0.00000000000E+00 -0.00000000000E+00 -0.11278410508E+03  0.11278410511E+03  0.25500000000E-02 0. -1.
    5000001    1    1    2    0    0  0.22992979530E+03 -0.85099165291E+02  0.15122639124E+03  0.29817444577E+03  0.77000000000E+02 0.  0.
   -5000001    1    1    2    0    0 -0.22992979530E+03  0.85099165291E+02  0.38067496383E+03  0.45929511949E+03  0.77000000000E+02 0.  0.
<mgrwt>
<rscale>  0 0.53929685E+03</rscale>
<asrwt>0</asrwt>
<pdfrwt beam="1">  1        2 0.92097921E-01 0.53929685E+03</pdfrwt>
<pdfrwt beam="2">  1       -2 0.16112015E-01 0.53929685E+03</pdfrwt>
<totfact> 0.15430423E+03</totfact>
</mgrwt>
</event>
<event>
 4    1  0.5562790E-004  0.2210224E+03  0.7818608E-02  0.1133123E+00
          2   -1    0    0  501    0  0.00000000000E+00  0.00000000000E+00  0.29238660358E+04  0.29238660358E+04  0.25500000000E-02 0.  1.
         -2   -1    0    0    0  501 -0.00000000000E+00 -0.00000000000E+00 -0.41769094654E+01  0.41769102438E+01  0.25500000000E-02 0. -1.
    5000001    1    1    2    0    0  0.66366342663E+02  0.37117360051E+02  0.11631621617E+04  0.11681855179E+04  0.77000000000E+02 0.  0.
   -5000001    1    1    2    0    0 -0.66366342663E+02 -0.37117360051E+02  0.17565269646E+04  0.17598574281E+04  0.77000000000E+02 0.  0.
<mgrwt>
<rscale>  0 0.22102240E+03</rscale>
<asrwt>0</asrwt>
<pdfrwt beam="1">  1        2 0.41769577E+00 0.22102240E+03</pdfrwt>
<pdfrwt beam="2">  1       -2 0.59670051E-03 0.22102240E+03</pdfrwt>
<totfact> 0.13675211E+04</totfact>
</mgrwt>
</event>
<event>
 4    1  0.5562790E-004  0.2263561E+03  0.7818608E-02  0.1129231E+00
          2   -1    0    0  501    0  0.00000000000E+00  0.00000000000E+00  0.12438978419E+04  0.12438978419E+04  0.25500000000E-02 0.  1.
         -2   -1    0    0    0  501 -0.00000000000E+00 -0.00000000000E+00 -0.10297688574E+02  0.10297688890E+02  0.25500000000E-02 0. -1.
    5000001    1    1    2    0    0  0.81689462406E+02  0.36563173703E+01  0.53967812118E+03  0.55124224386E+03  0.77000000000E+02 0.  0.
   -5000001    1    1    2    0    0 -0.81689462406E+02 -0.36563173703E+01  0.69392203216E+03  0.70295328696E+03  0.77000000000E+02 0.  0.
<mgrwt>
<rscale>  0 0.22635612E+03</rscale>
<asrwt>0</asrwt>
<pdfrwt beam="1">  1        2 0.17769972E+00 0.22635612E+03</pdfrwt>
<pdfrwt beam="2">  1       -2 0.14710981E-02 0.22635612E+03</pdfrwt>
<totfact> 0.25432688E+04</totfact>
</mgrwt>
</event>
<event>
 4    1  0.5562790E-004  0.2741774E+03  0.7818608E-02  0.1098912E+00
          2   -1    0    0  501    0  0.00000000000E+00  0.00000000000E+00  0.38737369728E+04  0.38737369728E+04  0.25500000000E-02 0.  1.
         -2   -1    0    0    0  501 -0.00000000000E+00 -0.00000000000E+00 -0.48514666346E+01  0.48514673047E+01  0.25500000000E-02 0. -1.
    5000001    1    1    2    0    0 -0.56889328568E+02  0.89847675488E+02  0.13765508094E+04  0.13827979358E+04  0.77000000000E+02 0.  0.
   -5000001    1    1    2    0    0  0.56889328568E+02 -0.89847675488E+02  0.24923346968E+04  0.24957905043E+04  0.77000000000E+02 0.  0.
<mgrwt>
<rscale>  0 0.27417737E+03</rscale>
<asrwt>0</asrwt>
<pdfrwt beam="1">  1        2 0.55339032E+00 0.27417737E+03</pdfrwt>
<pdfrwt beam="2">  1       -2 0.69306755E-03 0.27417737E+03</pdfrwt>
<totfact> 0.31671019E+03</totfact>
</mgrwt>
</event>
<event>
 4    1  0.5562790E-004  0.2188763E+03  0.7818608E-02  0.1134724E+00
          2   -1    0    0  501    0  0.00000000000E+00  0.00000000000E+00  0.53345807963E+02  0.53345808024E+02  0.25500000000E-02 0.  1.
         -2   -1    0    0    0  501 -0.00000000000E+00 -0.00000000000E+00 -0.22451070332E+03  0.22451070334E+03  0.25500000000E-02 0. -1.
    5000001    1    1    2    0    0 -0.76290351331E+02  0.14008196895E+02 -0.78485041713E+02  0.13455611862E+03  0.77000000000E+02 0.  0.
   -5000001    1    1    2    0    0  0.76290351331E+02 -0.14008196895E+02 -0.92679853647E+02  0.14330039274E+03  0.77000000000E+02 0.  0.
<mgrwt>
<rscale>  0 0.21887627E+03</rscale>
<asrwt>0</asrwt>
<pdfrwt beam="1">  1        2 0.76208298E-02 0.21887627E+03</pdfrwt>
<pdfrwt beam="2">  1       -2 0.32072957E-01 0.21887627E+03</pdfrwt>
<totfact> 0.79972795E+03</totfact>
</mgrwt>
</event>
<event>
 4    1  0.5562790E-004  0.2155639E+03  0.7818608E-02  0.1137234E+00
          2   -1    0    0  501    0  0.00000000000E+00  0.00000000000E+00  0.28554069327E+02  0.28554069440E+02  0.25500000000E-02 0.  1.
         -2   -1    0    0    0  501 -0.00000000000E+00 -0.00000000000E+00 -0.40684048510E+03  0.40684048511E+03  0.25500000000E-02 0. -1.
    5000001    1    1    2    0    0  0.20941864918E+02 -0.55651446423E+02 -0.95439032420E+02  0.13628372648E+03  0.77000000000E+02 0.  0.
   -5000001    1    1    2    0    0 -0.20941864918E+02  0.55651446423E+02 -0.28284738335E+03  0.29911082807E+03  0.77000000000E+02 0.  0.
<mgrwt>
<rscale>  0 0.21556393E+03</rscale>
<asrwt>0</asrwt>
<pdfrwt beam="1">  1        2 0.40791530E-02 0.21556393E+03</pdfrwt>
<pdfrwt beam="2">  1       -2 0.58120066E-01 0.21556393E+03</pdfrwt>
<totfact> 0.57177484E+03</totfact>
</mgrwt>
</event>
<event>
 4    1  0.5562790E-004  0.1579715E+04  0.7818608E-02  0.8833107E-01
         -2   -1    0    0    0  501 -0.00000000000E+00  0.00000000000E+00  0.27800664532E+03  0.27800664533E+03  0.25500000000E-02 0. -1.
          2   -1    0    0  501    0  0.00000000000E+00 -0.00000000000E+00 -0.22441016201E+04  0.22441016201E+04  0.25500000000E-02 0.  1.
    5000001    1    1    2    0    0 -0.22160887043E+03 -0.57120494724E+03 -0.19673532597E+03  0.64808901525E+03  0.77000000000E+02 0.  0.
   -5000001    1    1    2    0    0  0.22160887043E+03  0.57120494724E+03 -0.17693596488E+04  0.18740192502E+04  0.77000000000E+02 0.  0.
<mgrwt>
<rscale>  0 0.15797154E+04</rscale>
<asrwt>0</asrwt>
<pdfrwt beam="1">  1        2 0.32058593E+00 0.15797154E+04</pdfrwt>
<pdfrwt beam="2">  1       -2 0.39715236E-01 0.15797154E+04</pdfrwt>
<totfact> 0.34636500E+01</totfact>
</mgrwt>
</event>
<event>
 4    1  0.5562790E-004  0.3860895E+03  0.7818608E-02  0.1048706E+00
         -2   -1    0    0    0  501 -0.00000000000E+00  0.00000000000E+00  0.56593604305E+02  0.56593604362E+02  0.25500000000E-02 0. -1.
          2   -1    0    0  501    0  0.00000000000E+00 -0.00000000000E+00 -0.65848915928E+03  0.65848915929E+03  0.25500000000E-02 0.  1.
    5000001    1    1    2    0    0 -0.11437082947E+03  0.13469294635E+03 -0.32075750537E+03  0.37421551769E+03  0.77000000000E+02 0.  0.
   -5000001    1    1    2    0    0  0.11437082947E+03 -0.13469294635E+03 -0.28113804961E+03  0.34086724596E+03  0.77000000000E+02 0.  0.
<mgrwt>
<rscale>  0 0.38608950E+03</rscale>
<asrwt>0</asrwt>
<pdfrwt beam="1">  1        2 0.94069875E-01 0.38608950E+03</pdfrwt>
<pdfrwt beam="2">  1       -2 0.80848010E-02 0.38608950E+03</pdfrwt>
<totfact> 0.46191624E+03</totfact>
</mgrwt>
</event>
<event>
 4    1  0.5562790E-004  0.2093610E+03  0.7818608E-02  0.1142073E+00
         -2   -1    0    0    0  501 -0.00000000000E+00  0.00000000000E+00  0.69596976008E+01  0.69596980680E+01  0.25500000000E-02 0. -1.
          2   -1    0    0  501    0  0.00000000000E+00 -0.00000000000E+00 -0.15744946574E+04  0.15744946574E+04  0.25500000000E-02 0.  1.
    5000001    1    1    2    0    0  0.44821636381E+02  0.54548067679E+02 -0.83417761642E+03  0.84069362226E+03  0.77000000000E+02 0.  0.
   -5000001    1    1    2    0    0 -0.44821636381E+02 -0.54548067679E+02 -0.73335734340E+03  0.74076073323E+03  0.77000000000E+02 0.  0.
<mgrwt>
<rscale>  0 0.20936100E+03</rscale>
<asrwt>0</asrwt>
<pdfrwt beam="1">  1        2 0.22492758E+00 0.20936100E+03</pdfrwt>
<pdfrwt beam="2">  1       -2 0.99424356E-03 0.20936100E+03</pdfrwt>
<totfact> 0.30292798E+04</totfact>
</mgrwt>
</event>
<event>
 4    1  0.5562790E-004  0.2056630E+03  0.7818608E-02  0.1145047E+00
         -2   -1    0    0    0  501 -0.00000000000E+00  0.00000000000E+00  0.51365492019E+01  0.51365498349E+01  0.25500000000E-02 0. -1.
          2   -1    0    0  501    0  0.00000000000E+00 -0.00000000000E+00 -0.20586426282E+04  0.20586426282E+04  0.25500000000E-02 0.  1.
    5000001    1    1    2    0    0  0.48476129727E+02  0.47237256024E+02 -0.11070476121E+04  0.11117844705E+04  0.77000000000E+02 0.  0.
   -5000001    1    1    2    0    0 -0.48476129727E+02 -0.47237256024E+02 -0.94645846687E+03  0.95199470746E+03  0.77000000000E+02 0.  0.
<mgrwt>
<rscale>  0 0.20566302E+03</rscale>
<asrwt>0</asrwt>
<pdfrwt beam="1">  1        2 0.29409128E+00 0.20566302E+03</pdfrwt>
<pdfrwt beam="2">  1       -2 0.73379411E-03 0.20566302E+03</pdfrwt>
<totfact> 0.27271309E+04</totfact>
</mgrwt>
</event>
<event>
 4    1  0.5562790E-004  0.2264609E+03  0.7818608E-02  0.1129156E+00
         -2   -1    0    0    0  501 -0.00000000000E+00  0.00000000000E+00  0.13727161828E+02  0.13727162065E+02  0.25500000000E-02 0. -1.
          2   -1    0    0  501    0  0.00000000000E+00 -0.00000000000E+00 -0.93399788059E+03  0.93399788059E+03  0.25500000000E-02 0.  1.
    5000001    1    1    2    0    0  0.27363401852E+02 -0.43045499056E+02 -0.18601490554E+03  0.20768296953E+03  0.77000000000E+02 0.  0.
   -5000001    1    1    2    0    0 -0.27363401852E+02  0.43045499056E+02 -0.73425581322E+03  0.74004207313E+03  0.77000000000E+02 0.  0.
<mgrwt>
<rscale>  0 0.22646095E+03</rscale>
<asrwt>0</asrwt>
<pdfrwt beam="1">  1        2 0.13342823E+00 0.22646095E+03</pdfrwt>
<pdfrwt beam="2">  1       -2 0.19610237E-02 0.22646095E+03</pdfrwt>
<totfact> 0.25014811E+04</totfact>
</mgrwt>
</event>
<event>
 4    1  0.5562790E-004  0.1959972E+03  0.7818608E-02  0.1153161E+00
         -2   -1    0    0    0  501 -0.00000000000E+00  0.00000000000E+00  0.18515990154E+02  0.18515990330E+02  0.25500000000E-02 0. -1.
          2   -1    0    0  501    0  0.00000000000E+00 -0.00000000000E+00 -0.51867174156E+03  0.51867174157E+03  0.25500000000E-02 0.  1.
    5000001    1    1    2    0    0 -0.47812269976E+02 -0.37123549792E+02 -0.24117565351E+03  0.26030533409E+03  0.77000000000E+02 0.  0.
   -5000001    1    1    2    0    0  0.47812269976E+02  0.37123549792E+02 -0.25898009789E+03  0.27688239780E+03  0.77000000000E+02 0.  0.
<mgrwt>
<rscale>  0 0.19599715E+03</rscale>
<asrwt>0</asrwt>
<pdfrwt beam="1">  1        2 0.74095954E-01 0.19599715E+03</pdfrwt>
<pdfrwt beam="2">  1       -2 0.26451418E-02 0.19599715E+03</pdfrwt>
<totfact> 0.32046106E+04</totfact>
</mgrwt>
</event>
<event>
 4    1  0.5562790E-004  0.2070512E+03  0.7818608E-02  0.1143923E+00
          2   -1    0    0  501    0  0.00000000000E+00  0.00000000000E+00  0.36560847093E+03  0.36560847094E+03  0.25500000000E-02 0.  1.
         -2   -1    0    0    0  501 -0.00000000000E+00 -0.00000000000E+00 -0.29314285746E+02  0.29314285857E+02  0.25500000000E-02 0. -1.
    5000001    1    1    2    0    0  0.25048285766E+02  0.62165424921E+02  0.20099562369E+03  0.22543335472E+03  0.77000000000E+02 0.  0.
   -5000001    1    1    2    0    0 -0.25048285766E+02 -0.62165424921E+02  0.13529856149E+03  0.16948940208E+03  0.77000000000E+02 0.  0.
<mgrwt>
<rscale>  0 0.20705121E+03</rscale>
<asrwt>0</asrwt>
<pdfrwt beam="1">  1        2 0.52229782E-01 0.20705121E+03</pdfrwt>
<pdfrwt beam="2">  1       -2 0.41877551E-02 0.20705121E+03</pdfrwt>
<totfact> 0.23746579E+04</totfact>
</mgrwt>
</event>
<event>
 4    1  0.5562790E-004  0.1775973E+03  0.7818608E-02  0.1170149E+00
          2   -1    0    0  501    0  0.00000000000E+00  0.00000000000E+00  0.17799790128E+03  0.17799790130E+03  0.25500000000E-02 0.  1.
         -2   -1    0    0    0  501 -0.00000000000E+00 -0.00000000000E+00 -0.44299388837E+02  0.44299388910E+02  0.25500000000E-02 0. -1.
    5000001    1    1    2    0    0 -0.23906734593E+02 -0.29193490983E+02  0.95730739163E+02  0.12851912813E+03  0.77000000000E+02 0.  0.
   -5000001    1    1    2    0    0  0.23906734593E+02  0.29193490983E+02  0.37967773278E+02  0.93778162076E+02  0.77000000000E+02 0.  0.
<mgrwt>
<rscale>  0 0.17759728E+03</rscale>
<asrwt>0</asrwt>
<pdfrwt beam="1">  1        2 0.25428271E-01 0.17759728E+03</pdfrwt>
<pdfrwt beam="2">  1       -2 0.63284842E-02 0.17759728E+03</pdfrwt>
<totfact> 0.27315167E+04</totfact>
</mgrwt>
</event>
<event>
 4    1  0.5562790E-004  0.2301219E+03  0.7818608E-02  0.1126554E+00
          2   -1    0    0  501    0  0.00000000000E+00  0.00000000000E+00  0.48309893263E+04  0.48309893263E+04  0.25500000000E-02 0.  1.
         -2   -1    0    0    0  501 -0.00000000000E+00 -0.00000000000E+00 -0.27404354079E+01  0.27404365943E+01  0.25500000000E-02 0. -1.
    5000001    1    1    2    0    0 -0.67991747344E+02  0.31218950239E+01  0.13272470086E+04  0.13312198337E+04  0.77000000000E+02 0.  0.
   -5000001    1    1    2    0    0  0.67991747344E+02 -0.31218950239E+01  0.35010018824E+04  0.35025099292E+04  0.77000000000E+02 0.  0.
<mgrwt>
<rscale>  0 0.23012186E+03</rscale>
<asrwt>0</asrwt>
<pdfrwt beam="1">  1        2 0.69013643E+00 0.23012186E+03</pdfrwt>
<pdfrwt beam="2">  1       -2 0.39149364E-03 0.23012186E+03</pdfrwt>
<totfact> 0.14608883E+03</totfact>
</mgrwt>
</event>
<event>
 4    1  0.5562790E-004  0.2604122E+03  0.7818608E-02  0.1106896E+00
         -2   -1    0    0    0  501 -0.00000000000E+00  0.00000000000E+00  0.97791413763E+02  0.97791413796E+02  0.25500000000E-02 0. -1.
          2   -1    0    0  501    0  0.00000000000E+00 -0.00000000000E+00 -0.17336514145E+03  0.17336514147E+03  0.25500000000E-02 0.  1.
    5000001    1    1    2    0    0 -0.64694578493E+02 -0.75774845778E+02 -0.32929372886E+01  0.12596451554E+03  0.77000000000E+02 0.  0.
   -5000001    1    1    2    0    0  0.64694578493E+02  0.75774845778E+02 -0.72280790399E+02  0.14519203973E+03  0.77000000000E+02 0.  0.
<mgrwt>
<rscale>  0 0.26041215E+03</rscale>
<asrwt>0</asrwt>
<pdfrwt beam="1">  1        2 0.24766449E-01 0.26041215E+03</pdfrwt>
<pdfrwt beam="2">  1       -2 0.13970202E-01 0.26041215E+03</pdfrwt>
<totfact> 0.82728327E+03</totfact>
</mgrwt>
</event>
<event>
 4    1  0.5562790E-004  0.2119791E+03  0.7818608E-02  0.1140008E+00
         -2   -1    0    0    0  501 -0.00000000000E+00  0.00000000000E+00  0.68774710440E+02  0.68774710487E+02  0.25500000000E-02 0. -1.
          2   -1    0    0  501    0  0.00000000000E+00 -0.00000000000E+00 -0.16334179309E+03  0.16334179311E+03  0.25500000000E-02 0.  1.
    5000001    1    1    2    0    0  0.35824611848E+02 -0.11380275447E+02 -0.11559478633E+03  0.14388908266E+03  0.77000000000E+02 0.  0.
   -5000001    1    1    2    0    0 -0.35824611848E+02  0.11380275447E+02  0.21027703676E+02  0.88227420937E+02  0.77000000000E+02 0.  0.
<mgrwt>
<rscale>  0 0.21197910E+03</rscale>
<asrwt>0</asrwt>
<pdfrwt beam="1">  1        2 0.23334542E-01 0.21197910E+03</pdfrwt>
<pdfrwt beam="2">  1       -2 0.98249587E-02 0.21197910E+03</pdfrwt>
<totfact> 0.15394683E+04</totfact>
</mgrwt>
</event>
<event>
 4    1  0.5562790E-004  0.2964558E+03  0.7818608E-02  0.1087026E+00
         -2   -1    0    0    0  501 -0.00000000000E+00  0.00000000000E+00  0.57657910504E+02  0.57657910561E+02  0.25500000000E-02 0. -1.
          2   -1    0    0  501    0  0.00000000000E+00 -0.00000000000E+00 -0.38106668001E+03  0.38106668002E+03  0.25500000000E-02 0.  1.
    5000001    1    1    2    0    0 -0.41019532229E+02 -0.11863683683E+03 -0.13671172423E+03  0.20093878824E+03  0.77000000000E+02 0.  0.
   -5000001    1    1    2    0    0  0.41019532229E+02  0.11863683683E+03 -0.18669704528E+03  0.23778580234E+03  0.77000000000E+02 0.  0.
<mgrwt>
<rscale>  0 0.29645579E+03</rscale>
<asrwt>0</asrwt>
<pdfrwt beam="1">  1        2 0.54438096E-01 0.29645579E+03</pdfrwt>
<pdfrwt beam="2">  1       -2 0.82368446E-02 0.29645579E+03</pdfrwt>
<totfact> 0.82200346E+03</totfact>
</mgrwt>
</event>
<event>
 4    1  0.5562790E-004  0.1782690E+03  0.7818608E-02  0.1169489E+00
          2   -1    0    0  501    0  0.00000000000E+00  0.00000000000E+00  0.13857488435E+03  0.13857488438E+03  0.25500000000E-02 0.  1.
         -2   -1    0    0    0  501 -0.00000000000E+00 -0.00000000000E+00 -0.57333318403E+02  0.57333318460E+02  0.25500000000E-02 0. -1.
    5000001    1    1    2    0    0  0.42412575083E+02 -0.70435302678E+01  0.26397156945E+02  0.92055677384E+02  0.77000000000E+02 0.  0.
   -5000001    1    1    2    0    0 -0.42412575083E+02  0.70435302678E+01  0.54844409007E+02  0.10385252545E+03  0.77000000000E+02 0.  0.
<mgrwt>
<rscale>  0 0.17826899E+03</rscale>
<asrwt>0</asrwt>
<pdfrwt beam="1">  1        2 0.19796412E-01 0.17826899E+03</pdfrwt>
<pdfrwt beam="2">  1       -2 0.81904741E-02 0.17826899E+03</pdfrwt>
<totfact> 0.24319882E+04</totfact>
</mgrwt>
</event>
<event>
 4    1  0.5562790E-004  0.2458357E+03  0.7818608E-02  0.1115965E+00
         -2   -1    0    0    0  501 -0.00000000000E+00  0.00000000000E+00  0.47226721333E+02  0.47226721401E+02  0.25500000000E-02 0.  1.
          2   -1    0    0  501    0  0.00000000000E+00 -0.00000000000E+00 -0.31992063724E+03  0.31992063725E+03  0.25500000000E-02 0. -1.
    5000001    1    1    2    0    0  0.85602266529E+02  0.99463214653E+00 -0.20060186147E+03  0.23129817153E+03  0.77000000000E+02 0.  0.
   -5000001    1    1    2    0    0 -0.85602266529E+02 -0.99463214653E+00 -0.72092054433E+02  0.13584918712E+03  0.77000000000E+02 0.  0.
<mgrwt>
<rscale>  0 0.24583574E+03</rscale>
<asrwt>0</asrwt>
<pdfrwt beam="1">  1        2 0.45702947E-01 0.24583574E+03</pdfrwt>
<pdfrwt beam="2">  1       -2 0.67466746E-02 0.24583574E+03</pdfrwt>
<totfact> 0.13420300E+04</totfact>
</mgrwt>
</event>
<event>
 4    1  0.5562790E-004  0.2144301E+03  0.7818608E-02  0.1138105E+00
         -2   -1    0    0    0  501 -0.00000000000E+00  0.00000000000E+00  0.16610864575E+02  0.16610864771E+02  0.25500000000E-02 0. -1.
          2   -1    0    0  501    0  0.00000000000E+00 -0.00000000000E+00 -0.69202106359E+03  0.69202106359E+03  0.25500000000E-02 0.  1.
    5000001    1    1    2    0    0 -0.46875721215E+02  0.55708629956E+02 -0.39153085126E+03  0.40561828384E+03  0.77000000000E+02 0.  0.
   -5000001    1    1    2    0    0  0.46875721215E+02 -0.55708629956E+02 -0.28387934775E+03  0.30301364453E+03  0.77000000000E+02 0.  0.
<mgrwt>
<rscale>  0 0.21443011E+03</rscale>
<asrwt>0</asrwt>
<pdfrwt beam="1">  1        2 0.98860134E-01 0.21443011E+03</pdfrwt>
<pdfrwt beam="2">  1       -2 0.23729811E-02 0.21443011E+03</pdfrwt>
<totfact> 0.27289256E+04</totfact>
</mgrwt>
</event>
<event>
 4    1  0.5562790E-004  0.1916807E+03  0.7818608E-02  0.1156954E+00
          2   -1    0    0  501    0  0.00000000000E+00  0.00000000000E+00  0.69971962206E+03  0.69971962207E+03  0.25500000000E-02 0.  1.
         -2   -1    0    0    0  501 -0.00000000000E+00 -0.00000000000E+00 -0.13127220104E+02  0.13127220352E+02  0.25500000000E-02 0. -1.
    5000001    1    1    2    0    0  0.42863092353E+02 -0.19036864677E+02  0.46418864515E+03  0.47286334726E+03  0.77000000000E+02 0.  0.
   -5000001    1    1    2    0    0 -0.42863092353E+02  0.19036864677E+02  0.22240375681E+03  0.23998349516E+03  0.77000000000E+02 0.  0.
<mgrwt>
<rscale>  0 0.19168071E+03</rscale>
<asrwt>0</asrwt>
<pdfrwt beam="1">  1        2 0.99959963E-01 0.19168071E+03</pdfrwt>
<pdfrwt beam="2">  1       -2 0.18753169E-02 0.19168071E+03</pdfrwt>
<totfact> 0.37706024E+04</totfact>
</mgrwt>
</event>
<event>
 4    1  0.5562790E-004  0.2008475E+03  0.7818608E-02  0.1149026E+00
          2   -1    0    0  501    0  0.00000000000E+00  0.00000000000E+00  0.57300495385E+03  0.57300495385E+03  0.25500000000E-02 0.  1.
         -2   -1    0    0    0  501 -0.00000000000E+00 -0.00000000000E+00 -0.17600077589E+02  0.17600077774E+02  0.25500000000E-02 0. -1.
    5000001    1    1    2    0    0  0.51400823797E+02 -0.37644724159E+02  0.30662804926E+03  0.32250415584E+03  0.77000000000E+02 0.  0.
   -5000001    1    1    2    0    0 -0.51400823797E+02  0.37644724159E+02  0.24877682700E+03  0.26810087578E+03  0.77000000000E+02 0.  0.
<mgrwt>
<rscale>  0 0.20084752E+03</rscale>
<asrwt>0</asrwt>
<pdfrwt beam="1">  1        2 0.81857845E-01 0.20084752E+03</pdfrwt>
<pdfrwt beam="2">  1       -2 0.25142970E-02 0.20084752E+03</pdfrwt>
<totfact> 0.30968649E+04</totfact>
</mgrwt>
</event>
<event>
 4    1  0.5562790E-004  0.1796778E+03  0.7818608E-02  0.1168115E+00
          2   -1    0    0  501    0  0.00000000000E+00  0.00000000000E+00  0.15627524104E+02  0.15627524312E+02  0.25500000000E-02 0.  1.
         -2   -1    0    0    0  501 -0.00000000000E+00 -0.00000000000E+00 -0.51646237081E+03  0.51646237082E+03  0.25500000000E-02 0. -1.
    5000001    1    1    2    0    0 -0.31926841842E+02 -0.24215636154E+02 -0.18183738921E+03  0.20149331596E+03  0.77000000000E+02 0.  0.
   -5000001    1    1    2    0    0  0.31926841842E+02  0.24215636154E+02 -0.31899745750E+03  0.33059657917E+03  0.77000000000E+02 0.  0.
<mgrwt>
<rscale>  0 0.17967780E+03</rscale>
<asrwt>0</asrwt>
<pdfrwt beam="1">  1        2 0.22325038E-02 0.17967780E+03</pdfrwt>
<pdfrwt beam="2">  1       -2 0.73780328E-01 0.17967780E+03</pdfrwt>
<totfact> 0.77222970E+03</totfact>
</mgrwt>
</event>
<event>
 4    1  0.5562790E-004  0.1816411E+03  0.7818608E-02  0.1166224E+00
          2   -1    0    0  501    0  0.00000000000E+00  0.00000000000E+00  0.24440528652E+03  0.24440528653E+03  0.25500000000E-02 0.  1.
         -2   -1    0    0    0  501 -0.00000000000E+00 -0.00000000000E+00 -0.33748746048E+02  0.33748746144E+02  0.25500000000E-02 0. -1.
    5000001    1    1    2    0    0 -0.10373824241E+02  0.44875731524E+02  0.83784536457E+02  0.12276113415E+03  0.77000000000E+02 0.  0.
   -5000001    1    1    2    0    0  0.10373824241E+02 -0.44875731524E+02  0.12687200401E+03  0.15539289852E+03  0.77000000000E+02 0.  0.
<mgrwt>
<rscale>  0 0.18164110E+03</rscale>
<asrwt>0</asrwt>
<pdfrwt beam="1">  1        2 0.34915041E-01 0.18164110E+03</pdfrwt>
<pdfrwt beam="2">  1       -2 0.48212494E-02 0.18164110E+03</pdfrwt>
<totfact> 0.29261691E+04</totfact>
</mgrwt>
</event>
<event>
 4    1  0.5562790E-004  0.1630207E+03  0.7818608E-02  0.1185328E+00
         -2   -1    0    0    0  501 -0.00000000000E+00  0.00000000000E+00  0.54491680773E+02  0.54491680832E+02  0.25500000000E-02 0. -1.
          2   -1    0    0  501    0  0.00000000000E+00 -0.00000000000E+00 -0.12192569443E+03  0.12192569446E+03  0.25500000000E-02 0.  1.
    5000001    1    1    2    0    0  0.16720563683E+02  0.19915672206E+02 -0.40451316829E+02  0.90782819313E+02  0.77000000000E+02 0.  0.
   -5000001    1    1    2    0    0 -0.16720563683E+02 -0.19915672206E+02 -0.26982696831E+02  0.85634555978E+02  0.77000000000E+02 0.  0.
<mgrwt>
<rscale>  0 0.16302069E+03</rscale>
<asrwt>0</asrwt>
<pdfrwt beam="1">  1        2 0.17417956E-01 0.16302069E+03</pdfrwt>
<pdfrwt beam="2">  1       -2 0.77845259E-02 0.16302069E+03</pdfrwt>
<totfact> 0.30219754E+04</totfact>
</mgrwt>
</event>
<event>
 4    1  0.5562790E-004  0.2113747E+03  0.7818608E-02  0.1140482E+00
          2   -1    0    0  501    0  0.00000000000E+00  0.00000000000E+00  0.21829279930E+02  0.21829280079E+02  0.25500000000E-02 0.  1.
         -2   -1    0    0    0  501 -0.00000000000E+00 -0.00000000000E+00 -0.51168973685E+03  0.51168973686E+03  0.25500000000E-02 0. -1.
    5000001    1    1    2    0    0  0.52417792045E+02 -0.49287236167E+02 -0.26511657733E+03  0.28529398197E+03  0.77000000000E+02 0.  0.
   -5000001    1    1    2    0    0 -0.52417792045E+02  0.49287236167E+02 -0.22474387959E+03  0.24822503497E+03  0.77000000000E+02 0.  0.
<mgrwt>
<rscale>  0 0.21137472E+03</rscale>
<asrwt>0</asrwt>
<pdfrwt beam="1">  1        2 0.31184689E-02 0.21137472E+03</pdfrwt>
<pdfrwt beam="2">  1       -2 0.73098526E-01 0.21137472E+03</pdfrwt>
<totfact> 0.50589410E+03</totfact>
</mgrwt>
</event>
<event>
 4    1  0.5562790E-004  0.2314286E+03  0.7818608E-02  0.1125638E+00
         -2   -1    0    0    0  501 -0.00000000000E+00  0.00000000000E+00  0.10373071565E+04  0.10373071565E+04  0.25500000000E-02 0. -1.
          2   -1    0    0  501    0  0.00000000000E+00 -0.00000000000E+00 -0.12908228432E+02  0.12908228684E+02  0.25500000000E-02 0.  1.
    5000001    1    1    2    0    0 -0.44710370962E+02 -0.67932431286E+02  0.38013249904E+03  0.39628720559E+03  0.77000000000E+02 0.  0.
   -5000001    1    1    2    0    0  0.44710370962E+02  0.67932431286E+02  0.64426642903E+03  0.65392817960E+03  0.77000000000E+02 0.  0.
<mgrwt>
<rscale>  0 0.23142859E+03</rscale>
<asrwt>0</asrwt>
<pdfrwt beam="1">  1        2 0.18440325E-02 0.23142859E+03</pdfrwt>
<pdfrwt beam="2">  1       -2 0.14818675E+00 0.23142859E+03</pdfrwt>
<totfact> 0.19899016E+03</totfact>
</mgrwt>
</event>
<event>
 4    1  0.5562790E-004  0.1791542E+03  0.7818608E-02  0.1168624E+00
          2   -1    0    0  501    0  0.00000000000E+00  0.00000000000E+00  0.94003403864E+02  0.94003403899E+02  0.25500000000E-02 0.  1.
         -2   -1    0    0    0  501 -0.00000000000E+00 -0.00000000000E+00 -0.85359181284E+02  0.85359181322E+02  0.25500000000E-02 0. -1.
    5000001    1    1    2    0    0  0.32743127629E+02 -0.12230185822E+02  0.33909220096E+02  0.91107217386E+02  0.77000000000E+02 0.  0.
   -5000001    1    1    2    0    0 -0.32743127629E+02  0.12230185822E+02 -0.25264997516E+02  0.88255367835E+02  0.77000000000E+02 0.  0.
<mgrwt>
<rscale>  0 0.17915416E+03</rscale>
<asrwt>0</asrwt>
<pdfrwt beam="1">  1        2 0.13429058E-01 0.17915416E+03</pdfrwt>
<pdfrwt beam="2">  1       -2 0.12194169E-01 0.17915416E+03</pdfrwt>
<totfact> 0.20397821E+04</totfact>
</mgrwt>
</event>
<event>
 4    1  0.5562790E-004  0.1956436E+03  0.7818608E-02  0.1153467E+00
         -2   -1    0    0    0  501 -0.00000000000E+00  0.00000000000E+00  0.58664218679E+02  0.58664218735E+02  0.25500000000E-02 0. -1.
          2   -1    0    0  501    0  0.00000000000E+00 -0.00000000000E+00 -0.16311652876E+03  0.16311652878E+03  0.25500000000E-02 0.  1.
    5000001    1    1    2    0    0 -0.25904085641E+02  0.54295504775E+02 -0.47021452796E+02  0.10843910971E+03  0.77000000000E+02 0.  0.
   -5000001    1    1    2    0    0  0.25904085641E+02 -0.54295504775E+02 -0.57430857284E+02  0.11334163780E+03  0.77000000000E+02 0.  0.
<mgrwt>
<rscale>  0 0.19564359E+03</rscale>
<asrwt>0</asrwt>
<pdfrwt beam="1">  1        2 0.23302361E-01 0.19564359E+03</pdfrwt>
<pdfrwt beam="2">  1       -2 0.83806027E-02 0.19564359E+03</pdfrwt>
<totfact> 0.19675593E+04</totfact>
</mgrwt>
</event>
<event>
 4    1  0.5562790E-004  0.1748976E+03  0.7818608E-02  0.1172835E+00
         -2   -1    0    0    0  501 -0.00000000000E+00  0.00000000000E+00  0.89229222558E+01  0.89229226202E+01  0.25500000000E-02 0. -1.
          2   -1    0    0  501    0  0.00000000000E+00 -0.00000000000E+00 -0.85703872330E+03  0.85703872330E+03  0.25500000000E-02 0.  1.
    5000001    1    1    2    0    0  0.33027942404E+02  0.20832432509E+02 -0.49292387116E+03  0.50042759514E+03  0.77000000000E+02 0.  0.
   -5000001    1    1    2    0    0 -0.33027942404E+02 -0.20832432509E+02 -0.35519192989E+03  0.36553405078E+03  0.77000000000E+02 0.  0.
<mgrwt>
<rscale>  0 0.17489757E+03</rscale>
<asrwt>0</asrwt>
<pdfrwt beam="1">  1        2 0.12243405E+00 0.17489757E+03</pdfrwt>
<pdfrwt beam="2">  1       -2 0.12747038E-02 0.17489757E+03</pdfrwt>
<totfact> 0.51241035E+04</totfact>
</mgrwt>
</event>
<event>
 4    1  0.5562790E-004  0.2162605E+03  0.7818608E-02  0.1136702E+00
         -2   -1    0    0    0  501 -0.00000000000E+00  0.00000000000E+00  0.14383791173E+03  0.14383791175E+03  0.25500000000E-02 0. -1.
          2   -1    0    0  501    0  0.00000000000E+00 -0.00000000000E+00 -0.81287011310E+02  0.81287011350E+02  0.25500000000E-02 0.  1.
    5000001    1    1    2    0    0  0.78934520163E+01  0.68873159097E+02 -0.93363302541E+00  0.10361317628E+03  0.77000000000E+02 0.  0.
   -5000001    1    1    2    0    0 -0.78934520163E+01 -0.68873159097E+02  0.63484533446E+02  0.12151174682E+03  0.77000000000E+02 0.  0.
<mgrwt>
<rscale>  0 0.21626053E+03</rscale>
<asrwt>0</asrwt>
<pdfrwt beam="1">  1        2 0.11612430E-01 0.21626053E+03</pdfrwt>
<pdfrwt beam="2">  1       -2 0.20548273E-01 0.21626053E+03</pdfrwt>
<totfact> 0.10388833E+04</totfact>
</mgrwt>
</event>
<event>
 4    1  0.5562790E-004  0.2759420E+03  0.7818608E-02  0.1097926E+00
         -2   -1    0    0    0  501 -0.00000000000E+00  0.00000000000E+00  0.65158004325E+02  0.65158004374E+02  0.25500000000E-02 0. -1.
          2   -1    0    0  501    0  0.00000000000E+00 -0.00000000000E+00 -0.29215140130E+03  0.29215140131E+03  0.25500000000E-02 0.  1.
    5000001    1    1    2    0    0 -0.12842942788E+02 -0.73833017073E+02 -0.14267597910E+01  0.10745832324E+03  0.77000000000E+02 0.  0.
   -5000001    1    1    2    0    0  0.12842942788E+02  0.73833017073E+02 -0.22556663719E+03  0.24985108245E+03  0.77000000000E+02 0.  0.
<mgrwt>
<rscale>  0 0.27594204E+03</rscale>
<asrwt>0</asrwt>
<pdfrwt beam="1">  1        2 0.41735914E-01 0.27594204E+03</pdfrwt>
<pdfrwt beam="2">  1       -2 0.93082865E-02 0.27594204E+03</pdfrwt>
<totfact> 0.90041685E+03</totfact>
</mgrwt>
</event>
<event>
 4    1  0.5562790E-004  0.1847216E+03  0.7818608E-02  0.1163310E+00
          2   -1    0    0  501    0  0.00000000000E+00  0.00000000000E+00  0.57886414586E+03  0.57886414587E+03  0.25500000000E-02 0.  1.
         -2   -1    0    0    0  501 -0.00000000000E+00 -0.00000000000E+00 -0.14736645644E+02  0.14736645864E+02  0.25500000000E-02 0. -1.
    5000001    1    1    2    0    0 -0.25899384094E+02  0.43694632100E+02  0.26715756272E+03  0.28263432610E+03  0.77000000000E+02 0.  0.
   -5000001    1    1    2    0    0  0.25899384094E+02 -0.43694632100E+02  0.29696993750E+03  0.31096646563E+03  0.77000000000E+02 0.  0.
<mgrwt>
<rscale>  0 0.18472158E+03</rscale>
<asrwt>0</asrwt>
<pdfrwt beam="1">  1        2 0.82694893E-01 0.18472158E+03</pdfrwt>
<pdfrwt beam="2">  1       -2 0.21052347E-02 0.18472158E+03</pdfrwt>
<totfact> 0.39452424E+04</totfact>
</mgrwt>
</event>
<event>
 4    1  0.5562790E-004  0.2567245E+03  0.7818608E-02  0.1109127E+00
          2   -1    0    0  501    0  0.00000000000E+00  0.00000000000E+00  0.33680424170E+02  0.33680424266E+02  0.25500000000E-02 0.  1.
         -2   -1    0    0    0  501 -0.00000000000E+00 -0.00000000000E+00 -0.48921208514E+03  0.48921208515E+03  0.25500000000E-02 0. -1.
    5000001    1    1    2    0    0 -0.33520131282E+01 -0.90561363844E+02 -0.12933889192E+03  0.17569901985E+03  0.77000000000E+02 0.  0.
   -5000001    1    1    2    0    0  0.33520131282E+01  0.90561363844E+02 -0.32619276906E+03  0.34719348957E+03  0.77000000000E+02 0.  0.
<mgrwt>
<rscale>  0 0.25672453E+03</rscale>
<asrwt>0</asrwt>
<pdfrwt beam="1">  1        2 0.48114895E-02 0.25672453E+03</pdfrwt>
<pdfrwt beam="2">  1       -2 0.69887436E-01 0.25672453E+03</pdfrwt>
<totfact> 0.31474382E+03</totfact>
</mgrwt>
</event>
<event>
 4    1  0.5562790E-004  0.2917195E+03  0.7818608E-02  0.1089455E+00
         -2   -1    0    0    0  501 -0.00000000000E+00  0.00000000000E+00  0.18367247205E+02  0.18367247382E+02  0.25500000000E-02 0.  1.
          2   -1    0    0  501    0  0.00000000000E+00 -0.00000000000E+00 -0.11583158304E+04  0.11583158304E+04  0.25500000000E-02 0. -1.
    5000001    1    1    2    0    0 -0.39439579161E+02 -0.98466008141E+02 -0.82809506349E+03  0.83840412054E+03  0.77000000000E+02 0.  0.
   -5000001    1    1    2    0    0  0.39439579161E+02  0.98466008141E+02 -0.31185351974E+03  0.33827895728E+03  0.77000000000E+02 0.  0.
<mgrwt>
<rscale>  0 0.29171955E+03</rscale>
<asrwt>0</asrwt>
<pdfrwt beam="1">  1        2 0.16547364E+00 0.29171955E+03</pdfrwt>
<pdfrwt beam="2">  1       -2 0.26238932E-02 0.29171955E+03</pdfrwt>
<totfact> 0.12222871E+04</totfact>
</mgrwt>
</event>
<event>
 4    1  0.5562790E-004  0.2480639E+03  0.7818608E-02  0.1114535E+00
         -2   -1    0    0    0  501 -0.00000000000E+00  0.00000000000E+00  0.34214115184E+03  0.34214115185E+03  0.25500000000E-02 0. -1.
          2   -1    0    0  501    0  0.00000000000E+00 -0.00000000000E+00 -0.44963674684E+02  0.44963674756E+02  0.25500000000E-02 0.  1.
    5000001    1    1    2    0    0  0.35531889009E+02 -0.90240669045E+02  0.13766186597E+03  0.18516393501E+03  0.77000000000E+02 0.  0.
   -5000001    1    1    2    0    0 -0.35531889009E+02  0.90240669045E+02  0.15951561118E+03  0.20194089159E+03  0.77000000000E+02 0.  0.
<mgrwt>
<rscale>  0 0.24806389E+03</rscale>
<asrwt>0</asrwt>
<pdfrwt beam="1">  1        2 0.64233826E-02 0.24806389E+03</pdfrwt>
<pdfrwt beam="2">  1       -2 0.48877303E-01 0.24806389E+03</pdfrwt>
<totfact> 0.44947801E+03</totfact>
</mgrwt>
</event>
<event>
 4    1  0.5562790E-004  0.1928739E+03  0.7818608E-02  0.1155895E+00
          2   -1    0    0  501    0  0.00000000000E+00  0.00000000000E+00  0.61998720686E+02  0.61998720738E+02  0.25500000000E-02 0.  1.
         -2   -1    0    0    0  501 -0.00000000000E+00 -0.00000000000E+00 -0.15000442786E+03  0.15000442788E+03  0.25500000000E-02 0. -1.
    5000001    1    1    2    0    0  0.38199497341E+02  0.40993693067E+02 -0.60723338403E+02  0.11294249995E+03  0.77000000000E+02 0.  0.
   -5000001    1    1    2    0    0 -0.38199497341E+02 -0.40993693067E+02 -0.27282368767E+02  0.99060648665E+02  0.77000000000E+02 0.  0.
<mgrwt>
<rscale>  0 0.19287387E+03</rscale>
<asrwt>0</asrwt>
<pdfrwt beam="1">  1        2 0.88569602E-02 0.19287387E+03</pdfrwt>
<pdfrwt beam="2">  1       -2 0.21429204E-01 0.19287387E+03</pdfrwt>
<totfact> 0.13401106E+04</totfact>
</mgrwt>
</event>
<event>
 4    1  0.5562790E-004  0.3397191E+03  0.7818608E-02  0.1066916E+00
         -2   -1    0    0    0  501 -0.00000000000E+00  0.00000000000E+00  0.34401799487E+02  0.34401799581E+02  0.25500000000E-02 0. -1.
          2   -1    0    0  501    0  0.00000000000E+00 -0.00000000000E+00 -0.83868492241E+03  0.83868492241E+03  0.25500000000E-02 0.  1.
    5000001    1    1    2    0    0  0.91510451088E+02  0.53835580983E+02 -0.67954764057E+03  0.69208845406E+03  0.77000000000E+02 0.  0.
   -5000001    1    1    2    0    0 -0.91510451088E+02 -0.53835580983E+02 -0.12473548236E+03  0.18099826794E+03  0.77000000000E+02 0.  0.
<mgrwt>
<rscale>  0 0.33971912E+03</rscale>
<asrwt>0</asrwt>
<pdfrwt beam="1">  1        2 0.11981212E+00 0.33971912E+03</pdfrwt>
<pdfrwt beam="2">  1       -2 0.49145433E-02 0.33971912E+03</pdfrwt>
<totfact> 0.74145378E+03</totfact>
</mgrwt>
</event>
<event>
 4    1  0.5562790E-004  0.7396348E+03  0.7818608E-02  0.9651754E-01
          2   -1    0    0  501    0  0.00000000000E+00  0.00000000000E+00  0.13356143451E+04  0.13356143451E+04  0.25500000000E-02 0.  1.
         -2   -1    0    0    0  501 -0.00000000000E+00 -0.00000000000E+00 -0.10239849574E+03  0.10239849577E+03  0.25500000000E-02 0. -1.
    5000001    1    1    2    0    0  0.23462091655E+03  0.26776242642E+03  0.49223543959E+03  0.61234664976E+03  0.77000000000E+02 0.  0.
   -5000001    1    1    2    0    0 -0.23462091655E+03 -0.26776242642E+03  0.74098040979E+03  0.82566619113E+03  0.77000000000E+02 0.  0.
<mgrwt>
<rscale>  0 0.73963477E+03</rscale>
<asrwt>0</asrwt>
<pdfrwt beam="1">  1        2 0.19080205E+00 0.73963477E+03</pdfrwt>
<pdfrwt beam="2">  1       -2 0.14628356E-01 0.73963477E+03</pdfrwt>
<totfact> 0.66064848E+02</totfact>
</mgrwt>
</event>
<event>
 4    1  0.5562790E-004  0.2021922E+03  0.7818608E-02  0.1147902E+00
         -2   -1    0    0    0  501 -0.00000000000E+00  0.00000000000E+00  0.98492224394E+02  0.98492224427E+02  0.25500000000E-02 0. -1.
          2   -1    0    0  501    0  0.00000000000E+00 -0.00000000000E+00 -0.10376886106E+03  0.10376886109E+03  0.25500000000E-02 0.  1.
    5000001    1    1    2    0    0 -0.37591268244E+02 -0.45959348001E+02 -0.30325545917E+02  0.10185285392E+03  0.77000000000E+02 0.  0.
   -5000001    1    1    2    0    0  0.37591268244E+02  0.45959348001E+02  0.25048909254E+02  0.10040823159E+03  0.77000000000E+02 0.  0.
<mgrwt>
<rscale>  0 0.20219224E+03</rscale>
<asrwt>0</asrwt>
<pdfrwt beam="1">  1        2 0.14824123E-01 0.20219224E+03</pdfrwt>
<pdfrwt beam="2">  1       -2 0.14070318E-01 0.20219224E+03</pdfrwt>
<totfact> 0.14524755E+04</totfact>
</mgrwt>
</event>
<event>
 4    1  0.5562790E-004  0.1935811E+03  0.7818608E-02  0.1155271E+00
         -2   -1    0    0    0  501 -0.00000000000E+00  0.00000000000E+00  0.23493781490E+02  0.23493781628E+02  0.25500000000E-02 0. -1.
          2   -1    0    0  501    0  0.00000000000E+00 -0.00000000000E+00 -0.39876108748E+03  0.39876108749E+03  0.25500000000E-02 0.  1.
    5000001    1    1    2    0    0  0.77590541745E+01 -0.57709764998E+02 -0.17239805942E+03  0.19758722325E+03  0.77000000000E+02 0.  0.
   -5000001    1    1    2    0    0 -0.77590541745E+01  0.57709764998E+02 -0.20286924657E+03  0.22466764587E+03  0.77000000000E+02 0.  0.
<mgrwt>
<rscale>  0 0.19358105E+03</rscale>
<asrwt>0</asrwt>
<pdfrwt beam="1">  1        2 0.56965866E-01 0.19358105E+03</pdfrwt>
<pdfrwt beam="2">  1       -2 0.33562547E-02 0.19358105E+03</pdfrwt>
<totfact> 0.29945845E+04</totfact>
</mgrwt>
</event>
<event>
 4    1  0.5562790E-004  0.3132801E+03  0.7818608E-02  0.1078784E+00
          2   -1    0    0  501    0  0.00000000000E+00  0.00000000000E+00  0.13093683864E+03  0.13093683867E+03  0.25500000000E-02 0.  1.
         -2   -1    0    0    0  501 -0.00000000000E+00 -0.00000000000E+00 -0.18738884497E+03  0.18738884498E+03  0.25500000000E-02 0. -1.
    5000001    1    1    2    0    0 -0.93146661193E+02  0.83198217344E+02 -0.83962519102E+02  0.16904717825E+03  0.77000000000E+02 0.  0.
   -5000001    1    1    2    0    0  0.93146661193E+02 -0.83198217344E+02  0.27510512776E+02  0.14927850540E+03  0.77000000000E+02 0.  0.
<mgrwt>
<rscale>  0 0.31328009E+03</rscale>
<asrwt>0</asrwt>
<pdfrwt beam="1">  1        2 0.18705263E-01 0.31328009E+03</pdfrwt>
<pdfrwt beam="2">  1       -2 0.26769835E-01 0.31328009E+03</pdfrwt>
<totfact> 0.37754827E+03</totfact>
</mgrwt>
</event>
<event>
 4    1  0.5562790E-004  0.3457999E+03  0.7818608E-02  0.1064352E+00
          2   -1    0    0  501    0  0.00000000000E+00  0.00000000000E+00  0.26484606846E+03  0.26484606847E+03  0.25500000000E-02 0.  1.
         -2   -1    0    0    0  501 -0.00000000000E+00 -0.00000000000E+00 -0.11287456984E+03  0.11287456987E+03  0.25500000000E-02 0. -1.
    5000001    1    1    2    0    0  0.15407894506E+03  0.84984701229E+01  0.89489844251E+02  0.19429353445E+03  0.77000000000E+02 0.  0.
   -5000001    1    1    2    0    0 -0.15407894506E+03 -0.84984701229E+01  0.62481654367E+02  0.18342710388E+03  0.77000000000E+02 0.  0.
<mgrwt>
<rscale>  0 0.34579986E+03</rscale>
<asrwt>0</asrwt>
<pdfrwt beam="1">  1        2 0.37835151E-01 0.34579986E+03</pdfrwt>
<pdfrwt beam="2">  1       -2 0.16124939E-01 0.34579986E+03</pdfrwt>
<totfact> 0.41324484E+03</totfact>
</mgrwt>
</event>
<event>
 4    1  0.5562790E-004  0.2019814E+03  0.7818608E-02  0.1148078E+00
          2   -1    0    0  501    0  0.00000000000E+00  0.00000000000E+00  0.14955305330E+02  0.14955305547E+02  0.25500000000E-02 0.  1.
         -2   -1    0    0    0  501 -0.00000000000E+00 -0.00000000000E+00 -0.68197331502E+03  0.68197331503E+03  0.25500000000E-02 0. -1.
    5000001    1    1    2    0    0  0.34477071024E+02  0.20836729729E+02 -0.51104116278E+03  0.51837718680E+03  0.77000000000E+02 0.  0.
   -5000001    1    1    2    0    0 -0.34477071024E+02 -0.20836729729E+02 -0.15597684691E+03  0.17855143378E+03  0.77000000000E+02 0.  0.
<mgrwt>
<rscale>  0 0.20198138E+03</rscale>
<asrwt>0</asrwt>
<pdfrwt beam="1">  1        2 0.21364726E-02 0.20198138E+03</pdfrwt>
<pdfrwt beam="2">  1       -2 0.97424740E-01 0.20198138E+03</pdfrwt>
<totfact> 0.44571980E+03</totfact>
</mgrwt>
</event>
<event>
 4    1  0.5562790E-004  0.4065378E+03  0.7818608E-02  0.1041539E+00
          2   -1    0    0  501    0  0.00000000000E+00  0.00000000000E+00  0.30004112712E+04  0.30004112712E+04  0.25500000000E-02 0.  1.
         -2   -1    0    0    0  501 -0.00000000000E+00 -0.00000000000E+00 -0.13770858553E+02  0.13770858789E+02  0.25500000000E-02 0. -1.
    5000001    1    1    2    0    0  0.16354065225E+03  0.40115704207E+02  0.87147414285E+03  0.89092704321E+03  0.77000000000E+02 0.  0.
   -5000001    1    1    2    0    0 -0.16354065225E+03 -0.40115704207E+02  0.21151662698E+04  0.21232550868E+04  0.77000000000E+02 0.  0.
<mgrwt>
<rscale>  0 0.40653777E+03</rscale>
<asrwt>0</asrwt>
<pdfrwt beam="1">  1        2 0.42863013E+00 0.40653777E+03</pdfrwt>
<pdfrwt beam="2">  1       -2 0.19672658E-02 0.40653777E+03</pdfrwt>
<totfact> 0.21698742E+03</totfact>
</mgrwt>
</event>
<event>
 4    1  0.5562790E-004  0.4472434E+03  0.7818608E-02  0.1028547E+00
          2   -1    0    0  501    0  0.00000000000E+00  0.00000000000E+00  0.10473194676E+04  0.10473194676E+04  0.25500000000E-02 0.  1.
         -2   -1    0    0    0  501 -0.00000000000E+00 -0.00000000000E+00 -0.47747278385E+02  0.47747278453E+02  0.25500000000E-02 0. -1.
    5000001    1    1    2    0    0 -0.17995087732E+03  0.29471117519E+01  0.76447864849E+03  0.78914359132E+03  0.77000000000E+02 0.  0.
   -5000001    1    1    2    0    0  0.17995087732E+03 -0.29471117519E+01  0.23509354074E+03  0.30592315475E+03  0.77000000000E+02 0.  0.
<mgrwt>
<rscale>  0 0.44724335E+03</rscale>
<asrwt>0</asrwt>
<pdfrwt beam="1">  1        2 0.14961705E+00 0.44724335E+03</pdfrwt>
<pdfrwt beam="2">  1       -2 0.68210407E-02 0.44724335E+03</pdfrwt>
<totfact> 0.33293460E+03</totfact>
</mgrwt>
</event>
<event>
 4    1  0.5562790E-004  0.2489331E+03  0.7818608E-02  0.1113981E+00
          2   -1    0    0  501    0  0.00000000000E+00  0.00000000000E+00  0.31077601103E+03  0.31077601104E+03  0.25500000000E-02 0.  1.
         -2   -1    0    0    0  501 -0.00000000000E+00 -0.00000000000E+00 -0.49849152467E+02  0.49849152532E+02  0.25500000000E-02 0. -1.
    5000001    1    1    2    0    0 -0.26243753315E+02  0.79082369630E+02  0.20461796470E+03  0.23396638061E+03  0.77000000000E+02 0.  0.
   -5000001    1    1    2    0    0  0.26243753315E+02 -0.79082369630E+02  0.56308893854E+02  0.12665878296E+03  0.77000000000E+02 0.  0.
<mgrwt>
<rscale>  0 0.24893309E+03</rscale>
<asrwt>0</asrwt>
<pdfrwt beam="1">  1        2 0.44396573E-01 0.24893309E+03</pdfrwt>
<pdfrwt beam="2">  1       -2 0.71213075E-02 0.24893309E+03</pdfrwt>
<totfact> 0.12743960E+04</totfact>
</mgrwt>
</event>
<event>
 4    1  0.5562790E-004  0.7171156E+03  0.7818608E-02  0.9688402E-01
          2   -1    0    0  501    0  0.00000000000E+00  0.00000000000E+00  0.19966839720E+04  0.19966839720E+04  0.25500000000E-02 0.  1.
         -2   -1    0    0    0  501 -0.00000000000E+00 -0.00000000000E+00 -0.64388606036E+02  0.64388606087E+02  0.25500000000E-02 0. -1.
    5000001    1    1    2    0    0 -0.23789516570E+03 -0.24189634444E+03  0.12154967534E+04  0.12643058605E+04  0.77000000000E+02 0.  0.
   -5000001    1    1    2    0    0  0.23789516570E+03  0.24189634444E+03  0.71679861256E+03  0.79676671760E+03  0.77000000000E+02 0.  0.
<mgrwt>
<rscale>  0 0.71711560E+03</rscale>
<asrwt>0</asrwt>
<pdfrwt beam="1">  1        2 0.28524061E+00 0.71711560E+03</pdfrwt>
<pdfrwt beam="2">  1       -2 0.91983708E-02 0.71711560E+03</pdfrwt>
<totfact> 0.64694771E+02</totfact>
</mgrwt>
</event>
<event>
 4    1  0.5562790E-004  0.1860812E+03  0.7818608E-02  0.1162044E+00
         -2   -1    0    0    0  501 -0.00000000000E+00  0.00000000000E+00  0.58152407698E+01  0.58152413289E+01  0.25500000000E-02 0.  1.
          2   -1    0    0  501    0  0.00000000000E+00 -0.00000000000E+00 -0.14885970041E+04  0.14885970041E+04  0.25500000000E-02 0. -1.
    5000001    1    1    2    0    0  0.21341070229E+02  0.36734010707E+02 -0.98534229083E+03  0.98925894433E+03  0.77000000000E+02 0.  0.
   -5000001    1    1    2    0    0 -0.21341070229E+02 -0.36734010707E+02 -0.49743947250E+03  0.50515330111E+03  0.77000000000E+02 0.  0.
<mgrwt>
<rscale>  0 0.18608117E+03</rscale>
<asrwt>0</asrwt>
<pdfrwt beam="1">  1        2 0.21265647E+00 0.18608117E+03</pdfrwt>
<pdfrwt beam="2">  1       -2 0.83074967E-03 0.18608117E+03</pdfrwt>
<totfact> 0.42961553E+04</totfact>
</mgrwt>
</event>
<event>
 4    1  0.5562790E-004  0.2329537E+03  0.7818608E-02  0.1124578E+00
          2   -1    0    0  501    0  0.00000000000E+00  0.00000000000E+00  0.17819466791E+03  0.17819466793E+03  0.25500000000E-02 0.  1.
         -2   -1    0    0    0  501 -0.00000000000E+00 -0.00000000000E+00 -0.76135002349E+02  0.76135002392E+02  0.25500000000E-02 0. -1.
    5000001    1    1    2    0    0  0.64339898856E+02 -0.58305587692E+02  0.61875547820E+02  0.13151709987E+03  0.77000000000E+02 0.  0.
   -5000001    1    1    2    0    0 -0.64339898856E+02  0.58305587692E+02  0.40184117740E+02  0.12281257045E+03  0.77000000000E+02 0.  0.
<mgrwt>
<rscale>  0 0.23295366E+03</rscale>
<asrwt>0</asrwt>
<pdfrwt beam="1">  1        2 0.25456381E-01 0.23295366E+03</pdfrwt>
<pdfrwt beam="2">  1       -2 0.10876429E-01 0.23295366E+03</pdfrwt>
<totfact> 0.11957852E+04</totfact>
</mgrwt>
</event>
<event>
 4    1  0.5562790E-004  0.1879680E+03  0.7818608E-02  0.1160307E+00
         -2   -1    0    0    0  501 -0.00000000000E+00  0.00000000000E+00  0.30997726755E+01  0.30997737244E+01  0.25500000000E-02 0. -1.
          2   -1    0    0  501    0  0.00000000000E+00 -0.00000000000E+00 -0.28495610246E+04  0.28495610246E+04  0.25500000000E-02 0.  1.
    5000001    1    1    2    0    0  0.16200550210E+02  0.49022359806E+02 -0.11889331114E+04  0.11925420718E+04  0.77000000000E+02 0.  0.
   -5000001    1    1    2    0    0 -0.16200550210E+02 -0.49022359806E+02 -0.16575281406E+04  0.16601187266E+04  0.77000000000E+02 0.  0.
<mgrwt>
<rscale>  0 0.18796801E+03</rscale>
<asrwt>0</asrwt>
<pdfrwt beam="1">  1        2 0.40707847E+00 0.18796801E+03</pdfrwt>
<pdfrwt beam="2">  1       -2 0.44282657E-03 0.18796801E+03</pdfrwt>
<totfact> 0.22797156E+04</totfact>
</mgrwt>
</event>
<event>
 4    1  0.5562790E-004  0.2487587E+03  0.7818608E-02  0.1114092E+00
         -2   -1    0    0    0  501 -0.00000000000E+00  0.00000000000E+00  0.18804055866E+02  0.18804056039E+02  0.25500000000E-02 0. -1.
          2   -1    0    0  501    0  0.00000000000E+00 -0.00000000000E+00 -0.82270655674E+03  0.82270655675E+03  0.25500000000E-02 0.  1.
    5000001    1    1    2    0    0  0.10066406478E+02 -0.96984027491E+02 -0.38223013892E+03  0.40191555485E+03  0.77000000000E+02 0.  0.
   -5000001    1    1    2    0    0 -0.10066406478E+02  0.96984027491E+02 -0.42167236195E+03  0.43959505794E+03  0.77000000000E+02 0.  0.
<mgrwt>
<rscale>  0 0.24875868E+03</rscale>
<asrwt>0</asrwt>
<pdfrwt beam="1">  1        2 0.11752949E+00 0.24875868E+03</pdfrwt>
<pdfrwt beam="2">  1       -2 0.26862942E-02 0.24875868E+03</pdfrwt>
<totfact> 0.18602830E+04</totfact>
</mgrwt>
</event>
<event>
 4    1  0.5562790E-004  0.1866102E+03  0.7818608E-02  0.1161555E+00
          2   -1    0    0  501    0  0.00000000000E+00  0.00000000000E+00  0.31738395958E+03  0.31738395959E+03  0.25500000000E-02 0.  1.
         -2   -1    0    0    0  501 -0.00000000000E+00 -0.00000000000E+00 -0.27429986295E+02  0.27429986413E+02  0.25500000000E-02 0. -1.
    5000001    1    1    2    0    0  0.10871923663E+02  0.37416055651E+02  0.79421836000E+02  0.11728166088E+03  0.77000000000E+02 0.  0.
   -5000001    1    1    2    0    0 -0.10871923663E+02 -0.37416055651E+02  0.21053213729E+03  0.22753228513E+03  0.77000000000E+02 0.  0.
<mgrwt>
<rscale>  0 0.18661016E+03</rscale>
<asrwt>0</asrwt>
<pdfrwt beam="1">  1        2 0.45340567E-01 0.18661016E+03</pdfrwt>
<pdfrwt beam="2">  1       -2 0.39185693E-02 0.18661016E+03</pdfrwt>
<totfact> 0.30256775E+04</totfact>
</mgrwt>
</event>
<event>
 4    1  0.5562790E-004  0.3105637E+03  0.7818608E-02  0.1080076E+00
         -2   -1    0    0    0  501 -0.00000000000E+00  0.00000000000E+00  0.93539017794E+03  0.93539017795E+03  0.25500000000E-02 0. -1.
          2   -1    0    0  501    0  0.00000000000E+00 -0.00000000000E+00 -0.25777967247E+02  0.25777967373E+02  0.25500000000E-02 0.  1.
    5000001    1    1    2    0    0  0.86101226551E+02 -0.62767739050E+02  0.19902595049E+03  0.23852366601E+03  0.77000000000E+02 0.  0.
   -5000001    1    1    2    0    0 -0.86101226551E+02  0.62767739050E+02  0.71058626021E+03  0.72264447931E+03  0.77000000000E+02 0.  0.
<mgrwt>
<rscale>  0 0.31056373E+03</rscale>
<asrwt>0</asrwt>
<pdfrwt beam="1">  1        2 0.36825671E-02 0.31056373E+03</pdfrwt>
<pdfrwt beam="2">  1       -2 0.13362716E+00 0.31056373E+03</pdfrwt>
<totfact> 0.10132553E+03</totfact>
</mgrwt>
</event>
<event>
 4    1  0.5562790E-004  0.2025285E+03  0.7818608E-02  0.1147623E+00
         -2   -1    0    0    0  501 -0.00000000000E+00  0.00000000000E+00  0.10598562531E+03  0.10598562534E+03  0.25500000000E-02 0. -1.
          2   -1    0    0  501    0  0.00000000000E+00 -0.00000000000E+00 -0.96753221731E+02  0.96753221765E+02  0.25500000000E-02 0.  1.
    5000001    1    1    2    0    0 -0.62279914465E+02 -0.99450074464E+01 -0.14051483068E+02  0.10051932697E+03  0.77000000000E+02 0.  0.
   -5000001    1    1    2    0    0  0.62279914465E+02  0.99450074464E+01  0.23283886649E+02  0.10221952013E+03  0.77000000000E+02 0.  0.
<mgrwt>
<rscale>  0 0.20252852E+03</rscale>
<asrwt>0</asrwt>
<pdfrwt beam="1">  1        2 0.13821889E-01 0.20252852E+03</pdfrwt>
<pdfrwt beam="2">  1       -2 0.15140804E-01 0.20252852E+03</pdfrwt>
<totfact> 0.13995862E+04</totfact>
</mgrwt>
</event>
<event>
 4    1  0.5562790E-004  0.2429311E+03  0.7818608E-02  0.1117856E+00
          2   -1    0    0  501    0  0.00000000000E+00  0.00000000000E+00  0.68623846502E+03  0.68623846502E+03  0.25500000000E-02 0.  1.
         -2   -1    0    0    0  501 -0.00000000000E+00 -0.00000000000E+00 -0.21499631714E+02  0.21499631866E+02  0.25500000000E-02 0. -1.
    5000001    1    1    2    0    0  0.47124294087E+02 -0.79085447020E+02  0.27789193199E+03  0.30270139228E+03  0.77000000000E+02 0.  0.
   -5000001    1    1    2    0    0 -0.47124294087E+02  0.79085447020E+02  0.38684690131E+03  0.40503670461E+03  0.77000000000E+02 0.  0.
<mgrwt>
<rscale>  0 0.24293105E+03</rscale>
<asrwt>0</asrwt>
<pdfrwt beam="1">  1        2 0.98034056E-01 0.24293105E+03</pdfrwt>
<pdfrwt beam="2">  1       -2 0.30713763E-02 0.24293105E+03</pdfrwt>
<totfact> 0.18968248E+04</totfact>
</mgrwt>
</event>
<event>
 4    1  0.5562790E-004  0.3306674E+03  0.7818608E-02  0.1070842E+00
          2   -1    0    0  501    0  0.00000000000E+00  0.00000000000E+00  0.25757862053E+03  0.25757862054E+03  0.25500000000E-02 0.  1.
         -2   -1    0    0    0  501 -0.00000000000E+00 -0.00000000000E+00 -0.10612383545E+03  0.10612383548E+03  0.25500000000E-02 0. -1.
    5000001    1    1    2    0    0 -0.13506064958E+02 -0.14460903876E+03  0.56297863595E+02  0.17376028697E+03  0.77000000000E+02 0.  0.
   -5000001    1    1    2    0    0  0.13506064958E+02  0.14460903876E+03  0.95156921483E+02  0.18994216906E+03  0.77000000000E+02 0.  0.
<mgrwt>
<rscale>  0 0.33066739E+03</rscale>
<asrwt>0</asrwt>
<pdfrwt beam="1">  1        2 0.36796946E-01 0.33066739E+03</pdfrwt>
<pdfrwt beam="2">  1       -2 0.15160548E-01 0.33066739E+03</pdfrwt>
<totfact> 0.47155451E+03</totfact>
</mgrwt>
</event>
<event>
 4    1  0.5562790E-004  0.5805247E+03  0.7818608E-02  0.9946656E-01
         -2   -1    0    0    0  501 -0.00000000000E+00  0.00000000000E+00  0.63822344977E+02  0.63822345028E+02  0.25500000000E-02 0. -1.
          2   -1    0    0  501    0  0.00000000000E+00 -0.00000000000E+00 -0.13201055719E+04  0.13201055719E+04  0.25500000000E-02 0.  1.
    5000001    1    1    2    0    0 -0.25872680744E+03 -0.28917001006E+02 -0.38331021850E+03  0.46971425084E+03  0.77000000000E+02 0.  0.
   -5000001    1    1    2    0    0  0.25872680744E+03  0.28917001006E+02 -0.87297300843E+03  0.91421366610E+03  0.77000000000E+02 0.  0.
<mgrwt>
<rscale>  0 0.58052470E+03</rscale>
<asrwt>0</asrwt>
<pdfrwt beam="1">  1        2 0.18858649E+00 0.58052470E+03</pdfrwt>
<pdfrwt beam="2">  1       -2 0.91174787E-02 0.58052470E+03</pdfrwt>
<totfact> 0.14743386E+03</totfact>
</mgrwt>
</event>
<event>
 4    1  0.5562790E-004  0.2762040E+03  0.7818608E-02  0.1097780E+00
          2   -1    0    0  501    0  0.00000000000E+00  0.00000000000E+00  0.12064588298E+03  0.12064588300E+03  0.25500000000E-02 0.  1.
         -2   -1    0    0    0  501 -0.00000000000E+00 -0.00000000000E+00 -0.15808378916E+03  0.15808378918E+03  0.25500000000E-02 0. -1.
    5000001    1    1    2    0    0  0.90004986028E+02  0.46518404132E+02  0.35421418543E+02  0.13209290793E+03  0.77000000000E+02 0.  0.
   -5000001    1    1    2    0    0 -0.90004986028E+02 -0.46518404132E+02 -0.72859324725E+02  0.14663676426E+03  0.77000000000E+02 0.  0.
<mgrwt>
<rscale>  0 0.27620397E+03</rscale>
<asrwt>0</asrwt>
<pdfrwt beam="1">  1        2 0.17235126E-01 0.27620397E+03</pdfrwt>
<pdfrwt beam="2">  1       -2 0.22583398E-01 0.27620397E+03</pdfrwt>
<totfact> 0.55816014E+03</totfact>
</mgrwt>
</event>
<event>
 4    1  0.5562790E-004  0.2789019E+03  0.7818608E-02  0.1096290E+00
          2   -1    0    0  501    0  0.00000000000E+00  0.00000000000E+00  0.59018837394E+03  0.59018837394E+03  0.25500000000E-02 0.  1.
         -2   -1    0    0    0  501 -0.00000000000E+00 -0.00000000000E+00 -0.32949772198E+02  0.32949772297E+02  0.25500000000E-02 0. -1.
    5000001    1    1    2    0    0 -0.11511862619E+03  0.14166232637E+02  0.29657585757E+03  0.32762664656E+03  0.77000000000E+02 0.  0.
   -5000001    1    1    2    0    0  0.11511862619E+03 -0.14166232637E+02  0.26066274417E+03  0.29551149968E+03  0.77000000000E+02 0.  0.
<mgrwt>
<rscale>  0 0.27890194E+03</rscale>
<asrwt>0</asrwt>
<pdfrwt beam="1">  1        2 0.84312619E-01 0.27890194E+03</pdfrwt>
<pdfrwt beam="2">  1       -2 0.47071106E-02 0.27890194E+03</pdfrwt>
<totfact> 0.11980662E+04</totfact>
</mgrwt>
</event>
<event>
 4    1  0.5562790E-004  0.2413529E+03  0.7818608E-02  0.1118895E+00
          2   -1    0    0  501    0  0.00000000000E+00  0.00000000000E+00  0.11479069223E+04  0.11479069223E+04  0.25500000000E-02 0.  1.
         -2   -1    0    0    0  501 -0.00000000000E+00 -0.00000000000E+00 -0.12686399726E+02  0.12686399982E+02  0.25500000000E-02 0. -1.
    5000001    1    1    2    0    0 -0.18817666214E+02  0.60106368328E+02  0.23910449258E+03  0.25897265965E+03  0.77000000000E+02 0.  0.
   -5000001    1    1    2    0    0  0.18817666214E+02 -0.60106368328E+02  0.89611603004E+03  0.90162066268E+03  0.77000000000E+02 0.  0.
<mgrwt>
<rscale>  0 0.24135291E+03</rscale>
<asrwt>0</asrwt>
<pdfrwt beam="1">  1        2 0.16398656E+00 0.24135291E+03</pdfrwt>
<pdfrwt beam="2">  1       -2 0.18123444E-02 0.24135291E+03</pdfrwt>
<totfact> 0.21207307E+04</totfact>
</mgrwt>
</event>
<event>
 4    1  0.5562790E-004  0.3396416E+03  0.7818608E-02  0.1066949E+00
         -2   -1    0    0    0  501 -0.00000000000E+00  0.00000000000E+00  0.15835700145E+03  0.15835700147E+03  0.25500000000E-02 0. -1.
          2   -1    0    0  501    0  0.00000000000E+00 -0.00000000000E+00 -0.18211450122E+03  0.18211450123E+03  0.25500000000E-02 0.  1.
    5000001    1    1    2    0    0  0.48338729674E+02 -0.12536599530E+03 -0.81740072851E+02  0.17511055101E+03  0.77000000000E+02 0.  0.
   -5000001    1    1    2    0    0 -0.48338729674E+02  0.12536599530E+03  0.57982573086E+02  0.16536095170E+03  0.77000000000E+02 0.  0.
<mgrwt>
<rscale>  0 0.33964161E+03</rscale>
<asrwt>0</asrwt>
<pdfrwt beam="1">  1        2 0.26016357E-01 0.33964161E+03</pdfrwt>
<pdfrwt beam="2">  1       -2 0.22622429E-01 0.33964161E+03</pdfrwt>
<totfact> 0.34992386E+03</totfact>
</mgrwt>
</event>
<event>
 4    1  0.5562790E-004  0.2423062E+03  0.7818608E-02  0.1118266E+00
         -2   -1    0    0    0  501 -0.00000000000E+00  0.00000000000E+00  0.50352779941E+01  0.50352786398E+01  0.25500000000E-02 0. -1.
          2   -1    0    0  501    0  0.00000000000E+00 -0.00000000000E+00 -0.29150480526E+04  0.29150480526E+04  0.25500000000E-02 0.  1.
    5000001    1    1    2    0    0 -0.64054957768E+02  0.65293993252E+02 -0.16907716344E+04  0.16949938238E+04  0.77000000000E+02 0.  0.
   -5000001    1    1    2    0    0  0.64054957768E+02 -0.65293993252E+02 -0.12192411402E+04  0.12250895074E+04  0.77000000000E+02 0.  0.
<mgrwt>
<rscale>  0 0.24230624E+03</rscale>
<asrwt>0</asrwt>
<pdfrwt beam="1">  1        2 0.41643436E+00 0.24230624E+03</pdfrwt>
<pdfrwt beam="2">  1       -2 0.71932734E-03 0.24230624E+03</pdfrwt>
<totfact> 0.10572689E+04</totfact>
</mgrwt>
</event>
<event>
 4    1  0.5562790E-004  0.1584522E+03  0.7818608E-02  0.1190455E+00
         -2   -1    0    0    0  501 -0.00000000000E+00  0.00000000000E+00  0.23620995523E+01  0.23621009287E+01  0.25500000000E-02 0. -1.
          2   -1    0    0  501    0  0.00000000000E+00 -0.00000000000E+00 -0.26572851538E+04  0.26572851538E+04  0.25500000000E-02 0.  1.
    5000001    1    1    2    0    0  0.94091938630E+01  0.14863408518E+02 -0.14313671153E+04  0.14335446531E+04  0.77000000000E+02 0.  0.
   -5000001    1    1    2    0    0 -0.94091938630E+01 -0.14863408518E+02 -0.12235559390E+04  0.12261026016E+04  0.77000000000E+02 0.  0.
<mgrwt>
<rscale>  0 0.15845219E+03</rscale>
<asrwt>0</asrwt>
<pdfrwt beam="1">  1        2 0.37961025E+00 0.15845219E+03</pdfrwt>
<pdfrwt beam="2">  1       -2 0.33744460E-03 0.15845219E+03</pdfrwt>
<totfact> 0.41612738E+04</totfact>
</mgrwt>
</event>
<event>
 4    1  0.5562790E-004  0.1922816E+03  0.7818608E-02  0.1156419E+00
          2   -1    0    0  501    0  0.00000000000E+00  0.00000000000E+00  0.78604695920E+03  0.78604695921E+03  0.25500000000E-02 0.  1.
         -2   -1    0    0    0  501 -0.00000000000E+00 -0.00000000000E+00 -0.11758906612E+02  0.11758906888E+02  0.25500000000E-02 0. -1.
    5000001    1    1    2    0    0  0.44674445263E+02  0.28485222240E+02  0.29373378315E+03  0.30824624784E+03  0.77000000000E+02 0.  0.
   -5000001    1    1    2    0    0 -0.44674445263E+02 -0.28485222240E+02  0.48055426945E+03  0.48955961826E+03  0.77000000000E+02 0.  0.
<mgrwt>
<rscale>  0 0.19228159E+03</rscale>
<asrwt>0</asrwt>
<pdfrwt beam="1">  1        2 0.11229247E+00 0.19228159E+03</pdfrwt>
<pdfrwt beam="2">  1       -2 0.16798431E-02 0.19228159E+03</pdfrwt>
<totfact> 0.38528226E+04</totfact>
</mgrwt>
</event>
<event>
 4    1  0.5562790E-004  0.2149854E+03  0.7818608E-02  0.1137678E+00
         -2   -1    0    0    0  501 -0.00000000000E+00  0.00000000000E+00  0.62406964724E+01  0.62406969933E+01  0.25500000000E-02 0.  1.
          2   -1    0    0  501    0  0.00000000000E+00 -0.00000000000E+00 -0.18515043897E+04  0.18515043897E+04  0.25500000000E-02 0. -1.
    5000001    1    1    2    0    0  0.68699814319E+02  0.26976642054E+02 -0.10380092727E+04  0.10434747979E+04  0.77000000000E+02 0.  0.
   -5000001    1    1    2    0    0 -0.68699814319E+02 -0.26976642054E+02 -0.80725442055E+03  0.81427028879E+03  0.77000000000E+02 0.  0.
<mgrwt>
<rscale>  0 0.21498537E+03</rscale>
<asrwt>0</asrwt>
<pdfrwt beam="1">  1        2 0.26450027E+00 0.21498537E+03</pdfrwt>
<pdfrwt beam="2">  1       -2 0.89152929E-03 0.21498537E+03</pdfrwt>
<totfact> 0.25997571E+04</totfact>
</mgrwt>
</event>
<event>
 4    1  0.5562790E-004  0.2182977E+03  0.7818608E-02  0.1135159E+00
         -2   -1    0    0    0  501 -0.00000000000E+00  0.00000000000E+00  0.34408725807E+01  0.34408735256E+01  0.25500000000E-02 0. -1.
          2   -1    0    0  501    0  0.00000000000E+00 -0.00000000000E+00 -0.34623395907E+04  0.34623395907E+04  0.25500000000E-02 0.  1.
    5000001    1    1    2    0    0  0.62013227490E+02  0.63705545331E+01 -0.24566933931E+04  0.24586902311E+04  0.77000000000E+02 0.  0.
   -5000001    1    1    2    0    0 -0.62013227490E+02 -0.63705545331E+01 -0.10022053250E+04  0.10070902332E+04  0.77000000000E+02 0.  0.
<mgrwt>
<rscale>  0 0.21829770E+03</rscale>
<asrwt>0</asrwt>
<pdfrwt beam="1">  1        2 0.49461771E+00 0.21829770E+03</pdfrwt>
<pdfrwt beam="2">  1       -2 0.49155551E-03 0.21829770E+03</pdfrwt>
<totfact> 0.91991748E+03</totfact>
</mgrwt>
</event>
<event>
 4    1  0.5562790E-004  0.3754621E+03  0.7818608E-02  0.1052624E+00
          2   -1    0    0  501    0  0.00000000000E+00  0.00000000000E+00  0.31911839128E+04  0.31911839129E+04  0.25500000000E-02 0.  1.
         -2   -1    0    0    0  501 -0.00000000000E+00 -0.00000000000E+00 -0.11043847322E+02  0.11043847617E+02  0.25500000000E-02 0. -1.
    5000001    1    1    2    0    0  0.13721733065E+03  0.94990587803E+02  0.12639475794E+04  0.12772408900E+04  0.77000000000E+02 0.  0.
   -5000001    1    1    2    0    0 -0.13721733065E+03 -0.94990587803E+02  0.19161924861E+04  0.19249868704E+04  0.77000000000E+02 0.  0.
<mgrwt>
<rscale>  0 0.37546211E+03</rscale>
<asrwt>0</asrwt>
<pdfrwt beam="1">  1        2 0.45588337E+00 0.37546211E+03</pdfrwt>
<pdfrwt beam="2">  1       -2 0.15776927E-02 0.37546211E+03</pdfrwt>
<totfact> 0.23756484E+03</totfact>
</mgrwt>
</event>
<event>
 4    1  0.5562790E-004  0.4105076E+03  0.7818608E-02  0.1040201E+00
          2   -1    0    0  501    0  0.00000000000E+00  0.00000000000E+00  0.24320638801E+04  0.24320638801E+04  0.25500000000E-02 0.  1.
         -2   -1    0    0    0  501 -0.00000000000E+00 -0.00000000000E+00 -0.17322375457E+02  0.17322375645E+02  0.25500000000E-02 0. -1.
    5000001    1    1    2    0    0 -0.17282655690E+03 -0.62911763263E+02  0.14980437068E+04  0.15112547291E+04  0.77000000000E+02 0.  0.
   -5000001    1    1    2    0    0  0.17282655690E+03  0.62911763263E+02  0.91669779784E+03  0.93813152665E+03  0.77000000000E+02 0.  0.
<mgrwt>
<rscale>  0 0.41050761E+03</rscale>
<asrwt>0</asrwt>
<pdfrwt beam="1">  1        2 0.34743789E+00 0.41050761E+03</pdfrwt>
<pdfrwt beam="2">  1       -2 0.24746237E-02 0.41050761E+03</pdfrwt>
<totfact> 0.30364244E+03</totfact>
</mgrwt>
</event>
<event>
 4    1  0.5562790E-004  0.3648240E+03  0.7818608E-02  0.1056690E+00
          2   -1    0    0  501    0  0.00000000000E+00  0.00000000000E+00  0.15235020722E+04  0.15235020722E+04  0.25500000000E-02 0.  1.
         -2   -1    0    0    0  501 -0.00000000000E+00 -0.00000000000E+00 -0.21840555369E+02  0.21840555518E+02  0.25500000000E-02 0. -1.
    5000001    1    1    2    0    0 -0.89563368067E+01  0.15249227306E+03  0.48256270626E+03  0.51198620565E+03  0.77000000000E+02 0.  0.
   -5000001    1    1    2    0    0  0.89563368067E+01 -0.15249227306E+03  0.10190988106E+04  0.10333564221E+04  0.77000000000E+02 0.  0.
<mgrwt>
<rscale>  0 0.36482397E+03</rscale>
<asrwt>0</asrwt>
<pdfrwt beam="1">  1        2 0.21764325E+00 0.36482397E+03</pdfrwt>
<pdfrwt beam="2">  1       -2 0.31200780E-02 0.36482397E+03</pdfrwt>
<totfact> 0.60855595E+03</totfact>
</mgrwt>
</event>
<event>
 4    1  0.5562790E-004  0.2607452E+03  0.7818608E-02  0.1106696E+00
         -2   -1    0    0    0  501 -0.00000000000E+00  0.00000000000E+00  0.17221919445E+02  0.17221919634E+02  0.25500000000E-02 0. -1.
          2   -1    0    0  501    0  0.00000000000E+00 -0.00000000000E+00 -0.98694063993E+03  0.98694063993E+03  0.25500000000E-02 0.  1.
    5000001    1    1    2    0    0 -0.83950122884E+02  0.63331216575E+02 -0.47296058391E+03  0.49059064408E+03  0.77000000000E+02 0.  0.
   -5000001    1    1    2    0    0  0.83950122884E+02 -0.63331216575E+02 -0.49675813658E+03  0.51357191549E+03  0.77000000000E+02 0.  0.
<mgrwt>
<rscale>  0 0.26074518E+03</rscale>
<asrwt>0</asrwt>
<pdfrwt beam="1">  1        2 0.14099148E+00 0.26074518E+03</pdfrwt>
<pdfrwt beam="2">  1       -2 0.24602748E-02 0.26074518E+03</pdfrwt>
<totfact> 0.16773938E+04</totfact>
</mgrwt>
</event>
<event>
 4    1  0.5562790E-004  0.1767899E+03  0.7818608E-02  0.1170946E+00
         -2   -1    0    0    0  501 -0.00000000000E+00  0.00000000000E+00  0.77259808602E+01  0.77259812810E+01  0.25500000000E-02 0. -1.
          2   -1    0    0  501    0  0.00000000000E+00 -0.00000000000E+00 -0.10113493584E+04  0.10113493584E+04  0.25500000000E-02 0.  1.
    5000001    1    1    2    0    0  0.33316857629E+02  0.16989025522E+02 -0.37473127170E+03  0.38438413856E+03  0.77000000000E+02 0.  0.
   -5000001    1    1    2    0    0 -0.33316857629E+02 -0.16989025522E+02 -0.62889210583E+03  0.63469120111E+03  0.77000000000E+02 0.  0.
<mgrwt>
<rscale>  0 0.17678989E+03</rscale>
<asrwt>0</asrwt>
<pdfrwt beam="1">  1        2 0.14447840E+00 0.17678989E+03</pdfrwt>
<pdfrwt beam="2">  1       -2 0.11037122E-02 0.17678989E+03</pdfrwt>
<totfact> 0.50932123E+04</totfact>
</mgrwt>
</event>
<event>
 4    1  0.5562790E-004  0.2772189E+03  0.7818608E-02  0.1097218E+00
          2   -1    0    0  501    0  0.00000000000E+00  0.00000000000E+00  0.80720430044E+03  0.80720430044E+03  0.25500000000E-02 0.  1.
         -2   -1    0    0    0  501 -0.00000000000E+00 -0.00000000000E+00 -0.23801382264E+02  0.23801382401E+02  0.25500000000E-02 0. -1.
    5000001    1    1    2    0    0  0.12224384256E+02 -0.82595561570E+02  0.62986136696E+03  0.64002015902E+03  0.77000000000E+02 0.  0.
   -5000001    1    1    2    0    0 -0.12224384256E+02  0.82595561570E+02  0.15354155122E+03  0.19098552383E+03  0.77000000000E+02 0.  0.
<mgrwt>
<rscale>  0 0.27721889E+03</rscale>
<asrwt>0</asrwt>
<pdfrwt beam="1">  1        2 0.11531491E+00 0.27721889E+03</pdfrwt>
<pdfrwt beam="2">  1       -2 0.34001973E-02 0.27721889E+03</pdfrwt>
<totfact> 0.13482291E+04</totfact>
</mgrwt>
</event>
<event>
 4    1  0.5562790E-004  0.2137586E+03  0.7818608E-02  0.1138624E+00
         -2   -1    0    0    0  501 -0.00000000000E+00  0.00000000000E+00  0.42915667638E+02  0.42915667714E+02  0.25500000000E-02 0. -1.
          2   -1    0    0  501    0  0.00000000000E+00 -0.00000000000E+00 -0.26617751760E+03  0.26617751761E+03  0.25500000000E-02 0.  1.
    5000001    1    1    2    0    0  0.71265331841E+02  0.43560797136E+01 -0.14042261183E+03  0.17534318597E+03  0.77000000000E+02 0.  0.
   -5000001    1    1    2    0    0 -0.71265331841E+02 -0.43560797136E+01 -0.82839238123E+02  0.13374999935E+03  0.77000000000E+02 0.  0.
<mgrwt>
<rscale>  0 0.21375861E+03</rscale>
<asrwt>0</asrwt>
<pdfrwt beam="1">  1        2 0.38025359E-01 0.21375861E+03</pdfrwt>
<pdfrwt beam="2">  1       -2 0.61308098E-02 0.21375861E+03</pdfrwt>
<totfact> 0.18774941E+04</totfact>
</mgrwt>
</event>
<event>
 4    1  0.5562790E-004  0.5051088E+03  0.7818608E-02  0.1012454E+00
         -2   -1    0    0    0  501 -0.00000000000E+00  0.00000000000E+00  0.36971059882E+02  0.36971059970E+02  0.25500000000E-02 0. -1.
          2   -1    0    0  501    0  0.00000000000E+00 -0.00000000000E+00 -0.17252337025E+04  0.17252337025E+04  0.25500000000E-02 0.  1.
    5000001    1    1    2    0    0 -0.47600118408E+02  0.23427151121E+03 -0.93681734340E+03  0.96989929742E+03  0.77000000000E+02 0.  0.
   -5000001    1    1    2    0    0  0.47600118408E+02 -0.23427151121E+03 -0.75144529924E+03  0.79230546507E+03  0.77000000000E+02 0.  0.
<mgrwt>
<rscale>  0 0.50510877E+03</rscale>
<asrwt>0</asrwt>
<pdfrwt beam="1">  1        2 0.24646191E+00 0.50510877E+03</pdfrwt>
<pdfrwt beam="2">  1       -2 0.52815811E-02 0.50510877E+03</pdfrwt>
<totfact> 0.21532888E+03</totfact>
</mgrwt>
</event>
<event>
 4    1  0.5562790E-004  0.3305862E+03  0.7818608E-02  0.1070878E+00
          2   -1    0    0  501    0  0.00000000000E+00  0.00000000000E+00  0.28377355432E+03  0.28377355433E+03  0.25500000000E-02 0.  1.
         -2   -1    0    0    0  501 -0.00000000000E+00 -0.00000000000E+00 -0.96280317958E+02  0.96280317991E+02  0.25500000000E-02 0. -1.
    5000001    1    1    2    0    0  0.16812190553E+02 -0.13350313324E+03  0.15965870133E+03  0.22254356258E+03  0.77000000000E+02 0.  0.
   -5000001    1    1    2    0    0 -0.16812190553E+02  0.13350313324E+03  0.27834535036E+02  0.15751030975E+03  0.77000000000E+02 0.  0.
<mgrwt>
<rscale>  0 0.33058619E+03</rscale>
<asrwt>0</asrwt>
<pdfrwt beam="1">  1        2 0.40539080E-01 0.33058619E+03</pdfrwt>
<pdfrwt beam="2">  1       -2 0.13754331E-01 0.33058619E+03</pdfrwt>
<totfact> 0.49852403E+03</totfact>
</mgrwt>
</event>
<event>
 4    1  0.5562790E-004  0.2576543E+03  0.7818608E-02  0.1108561E+00
         -2   -1    0    0    0  501 -0.00000000000E+00  0.00000000000E+00  0.11895197230E+02  0.11895197504E+02  0.25500000000E-02 0. -1.
          2   -1    0    0  501    0  0.00000000000E+00 -0.00000000000E+00 -0.13952209769E+04  0.13952209769E+04  0.25500000000E-02 0.  1.
    5000001    1    1    2    0    0 -0.22872479980E+02  0.73114396155E+02 -0.10699732752E+04  0.10754723032E+04  0.77000000000E+02 0.  0.
   -5000001    1    1    2    0    0  0.22872479980E+02 -0.73114396155E+02 -0.31335250450E+03  0.33164387126E+03  0.77000000000E+02 0.  0.
<mgrwt>
<rscale>  0 0.25765426E+03</rscale>
<asrwt>0</asrwt>
<pdfrwt beam="1">  1        2 0.19931718E+00 0.25765426E+03</pdfrwt>
<pdfrwt beam="2">  1       -2 0.16993148E-02 0.25765426E+03</pdfrwt>
<totfact> 0.17280612E+04</totfact>
</mgrwt>
</event>
<event>
 4    1  0.5562790E-004  0.3462432E+03  0.7818608E-02  0.1064168E+00
          2   -1    0    0  501    0  0.00000000000E+00  0.00000000000E+00  0.38850049153E+03  0.38850049154E+03  0.25500000000E-02 0.  1.
         -2   -1    0    0    0  501 -0.00000000000E+00 -0.00000000000E+00 -0.77145583259E+02  0.77145583301E+02  0.25500000000E-02 0. -1.
    5000001    1    1    2    0    0  0.70450157995E+02 -0.13761631487E+03  0.13972962793E+03  0.22215950081E+03  0.77000000000E+02 0.  0.
   -5000001    1    1    2    0    0 -0.70450157995E+02  0.13761631487E+03  0.17162528034E+03  0.24348657403E+03  0.77000000000E+02 0.  0.
<mgrwt>
<rscale>  0 0.34624325E+03</rscale>
<asrwt>0</asrwt>
<pdfrwt beam="1">  1        2 0.55500070E-01 0.34624325E+03</pdfrwt>
<pdfrwt beam="2">  1       -2 0.11020798E-01 0.34624325E+03</pdfrwt>
<totfact> 0.50920485E+03</totfact>
</mgrwt>
</event>
<event>
 4    1  0.5562790E-004  0.5928700E+03  0.7818608E-02  0.9920310E-01
         -2   -1    0    0    0  501 -0.00000000000E+00  0.00000000000E+00  0.74200273058E+02  0.74200273102E+02  0.25500000000E-02 0. -1.
          2   -1    0    0  501    0  0.00000000000E+00 -0.00000000000E+00 -0.11842772597E+04  0.11842772597E+04  0.25500000000E-02 0.  1.
    5000001    1    1    2    0    0  0.29623028592E+02 -0.23905404018E+03 -0.88333758514E+03  0.91882460093E+03  0.77000000000E+02 0.  0.
   -5000001    1    1    2    0    0 -0.29623028592E+02  0.23905404018E+03 -0.22673940153E+03  0.33965293191E+03  0.77000000000E+02 0.  0.
<mgrwt>
<rscale>  0 0.59286996E+03</rscale>
<asrwt>0</asrwt>
<pdfrwt beam="1">  1        2 0.16918245E+00 0.59286996E+03</pdfrwt>
<pdfrwt beam="2">  1       -2 0.10600040E-01 0.59286996E+03</pdfrwt>
<totfact> 0.13722992E+03</totfact>
</mgrwt>
</event>
<event>
 4    1  0.5562790E-004  0.2212408E+03  0.7818608E-02  0.1132961E+00
          2   -1    0    0  501    0  0.00000000000E+00  0.00000000000E+00  0.78354913807E+03  0.78354913807E+03  0.25500000000E-02 0. -1.
         -2   -1    0    0    0  501 -0.00000000000E+00 -0.00000000000E+00 -0.15617235748E+02  0.15617235956E+02  0.25500000000E-02 0.  1.
    5000001    1    1    2    0    0 -0.40434568193E+02 -0.61510694377E+02  0.27624285839E+03  0.29607032381E+03  0.77000000000E+02 0.  0.
   -5000001    1    1    2    0    0  0.40434568193E+02  0.61510694377E+02  0.49168904393E+03  0.50309605022E+03  0.77000000000E+02 0.  0.
<mgrwt>
<rscale>  0 0.22124079E+03</rscale>
<asrwt>0</asrwt>
<pdfrwt beam="1">  1        2 0.11193560E+00 0.22124079E+03</pdfrwt>
<pdfrwt beam="2">  1       -2 0.22310334E-02 0.22124079E+03</pdfrwt>
<totfact> 0.25804748E+04</totfact>
</mgrwt>
</event>
<event>
 4    1  0.5562790E-004  0.3107335E+03  0.7818608E-02  0.1079995E+00
          2   -1    0    0  501    0  0.00000000000E+00  0.00000000000E+00  0.15952416097E+04  0.15952416097E+04  0.25500000000E-02 0.  1.
         -2   -1    0    0    0  501 -0.00000000000E+00 -0.00000000000E+00 -0.15131765307E+02  0.15131765522E+02  0.25500000000E-02 0. -1.
    5000001    1    1    2    0    0 -0.13327252534E+03 -0.19552700791E+02  0.83214099302E+03  0.84648184055E+03  0.77000000000E+02 0.  0.
   -5000001    1    1    2    0    0  0.13327252534E+03  0.19552700791E+02  0.74796885137E+03  0.76389153467E+03  0.77000000000E+02 0.  0.
<mgrwt>
<rscale>  0 0.31073347E+03</rscale>
<asrwt>0</asrwt>
<pdfrwt beam="1">  1        2 0.22789148E+00 0.31073347E+03</pdfrwt>
<pdfrwt beam="2">  1       -2 0.21616825E-02 0.31073347E+03</pdfrwt>
<totfact> 0.96539210E+03</totfact>
</mgrwt>
</event>
<event>
 4    1  0.5562790E-004  0.4819529E+03  0.7818608E-02  0.1018600E+00
          2   -1    0    0  501    0  0.00000000000E+00  0.00000000000E+00  0.22392200104E+03  0.22392200105E+03  0.25500000000E-02 0.  1.
         -2   -1    0    0    0  501 -0.00000000000E+00 -0.00000000000E+00 -0.25932981584E+03  0.25932981585E+03  0.25500000000E-02 0. -1.
    5000001    1    1    2    0    0  0.10002628150E+03  0.10614311450E+03  0.15846546501E+03  0.22871799524E+03  0.77000000000E+02 0.  0.
   -5000001    1    1    2    0    0 -0.10002628150E+03 -0.10614311450E+03 -0.19387327981E+03  0.25453382166E+03  0.77000000000E+02 0.  0.
<mgrwt>
<rscale>  0 0.48195291E+03</rscale>
<asrwt>0</asrwt>
<pdfrwt beam="1">  1        2 0.31988857E-01 0.48195291E+03</pdfrwt>
<pdfrwt beam="2">  1       -2 0.37047116E-01 0.48195291E+03</pdfrwt>
<totfact> 0.11360405E+03</totfact>
</mgrwt>
</event>
<event>
 4    1  0.5562790E-004  0.3038996E+03  0.7818608E-02  0.1083307E+00
          2   -1    0    0  501    0  0.00000000000E+00  0.00000000000E+00  0.95772291799E+03  0.95772291799E+03  0.25500000000E-02 0.  1.
         -2   -1    0    0    0  501 -0.00000000000E+00 -0.00000000000E+00 -0.24107954938E+02  0.24107955073E+02  0.25500000000E-02 0. -1.
    5000001    1    1    2    0    0 -0.28594935480E+02 -0.78138103499E+02  0.79368305337E+03  0.80173874969E+03  0.77000000000E+02 0.  0.
   -5000001    1    1    2    0    0  0.28594935480E+02  0.78138103499E+02  0.13993190968E+03  0.18009212337E+03  0.77000000000E+02 0.  0.
<mgrwt>
<rscale>  0 0.30389960E+03</rscale>
<asrwt>0</asrwt>
<pdfrwt beam="1">  1        2 0.13681755E+00 0.30389960E+03</pdfrwt>
<pdfrwt beam="2">  1       -2 0.34439939E-02 0.30389960E+03</pdfrwt>
<totfact> 0.10646977E+04</totfact>
</mgrwt>
</event>
<event>
 4    1  0.5562790E-004  0.1782731E+03  0.7818608E-02  0.1169485E+00
         -2   -1    0    0    0  501 -0.00000000000E+00  0.00000000000E+00  0.20073247339E+02  0.20073247501E+02  0.25500000000E-02 0. -1.
          2   -1    0    0  501    0  0.00000000000E+00 -0.00000000000E+00 -0.39581647336E+03  0.39581647336E+03  0.25500000000E-02 0.  1.
    5000001    1    1    2    0    0 -0.17827257520E+02 -0.31719349426E+02 -0.24925756767E+03  0.26340513146E+03  0.77000000000E+02 0.  0.
   -5000001    1    1    2    0    0  0.17827257520E+02  0.31719349426E+02 -0.12648565834E+03  0.15248458940E+03  0.77000000000E+02 0.  0.
<mgrwt>
<rscale>  0 0.17827307E+03</rscale>
<asrwt>0</asrwt>
<pdfrwt beam="1">  1        2 0.56545206E-01 0.17827307E+03</pdfrwt>
<pdfrwt beam="2">  1       -2 0.28676070E-02 0.17827307E+03</pdfrwt>
<totfact> 0.37823148E+04</totfact>
</mgrwt>
</event>
<event>
 4    1  0.5562790E-004  0.2304162E+03  0.7818608E-02  0.1126347E+00
          2   -1    0    0  501    0  0.00000000000E+00  0.00000000000E+00  0.83910985614E+03  0.83910985614E+03  0.25500000000E-02 0.  1.
         -2   -1    0    0    0  501 -0.00000000000E+00 -0.00000000000E+00 -0.15817837913E+02  0.15817838118E+02  0.25500000000E-02 0. -1.
    5000001    1    1    2    0    0 -0.64988811475E+02  0.14275344935E+02  0.61202529280E+03  0.62042831182E+03  0.77000000000E+02 0.  0.
   -5000001    1    1    2    0    0  0.64988811475E+02 -0.14275344935E+02  0.21126672543E+03  0.23449938244E+03  0.77000000000E+02 0.  0.
<mgrwt>
<rscale>  0 0.23041618E+03</rscale>
<asrwt>0</asrwt>
<pdfrwt beam="1">  1        2 0.11987283E+00 0.23041618E+03</pdfrwt>
<pdfrwt beam="2">  1       -2 0.22596914E-02 0.23041618E+03</pdfrwt>
<totfact> 0.23326511E+04</totfact>
</mgrwt>
</event>
<event>
 4    1  0.5562790E-004  0.2666816E+03  0.7818608E-02  0.1103194E+00
          2   -1    0    0  501    0  0.00000000000E+00  0.00000000000E+00  0.31743368524E+04  0.31743368524E+04  0.25500000000E-02 0.  1.
         -2   -1    0    0    0  501 -0.00000000000E+00 -0.00000000000E+00 -0.56010948654E+01  0.56010954459E+01  0.25500000000E-02 0. -1.
    5000001    1    1    2    0    0  0.72333888117E+02  0.81098572963E+02  0.16612694256E+04  0.16665996143E+04  0.77000000000E+02 0.  0.
   -5000001    1    1    2    0    0 -0.72333888117E+02 -0.81098572963E+02  0.15074663319E+04  0.15133383336E+04  0.77000000000E+02 0.  0.
<mgrwt>
<rscale>  0 0.26668155E+03</rscale>
<asrwt>0</asrwt>
<pdfrwt beam="1">  1        2 0.45347771E+00 0.26668155E+03</pdfrwt>
<pdfrwt beam="2">  1       -2 0.80015466E-03 0.26668155E+03</pdfrwt>
<totfact> 0.65949512E+03</totfact>
</mgrwt>
</event>
<event>
 4    1  0.5562790E-004  0.7292740E+03  0.7818608E-02  0.9668439E-01
          2   -1    0    0  501    0  0.00000000000E+00  0.00000000000E+00  0.50509400771E+03  0.50509400772E+03  0.25500000000E-02 0.  1.
         -2   -1    0    0    0  501 -0.00000000000E+00 -0.00000000000E+00 -0.26323841966E+03  0.26323841968E+03  0.25500000000E-02 0. -1.
    5000001    1    1    2    0    0  0.35420636246E+03  0.21429555485E+02  0.15602527554E+03  0.39521419466E+03  0.77000000000E+02 0.  0.
   -5000001    1    1    2    0    0 -0.35420636246E+03 -0.21429555485E+02  0.85830312502E+02  0.37311823273E+03  0.77000000000E+02 0.  0.
<mgrwt>
<rscale>  0 0.72927402E+03</rscale>
<asrwt>0</asrwt>
<pdfrwt beam="1">  1        2 0.72156286E-01 0.72927402E+03</pdfrwt>
<pdfrwt beam="2">  1       -2 0.37605489E-01 0.72927402E+03</pdfrwt>
<totfact> 0.44525446E+02</totfact>
</mgrwt>
</event>
<event>
 4    1  0.5562790E-004  0.1923510E+03  0.7818608E-02  0.1156358E+00
          2   -1    0    0  501    0  0.00000000000E+00  0.00000000000E+00  0.12738055140E+03  0.12738055142E+03  0.25500000000E-02 0.  1.
         -2   -1    0    0    0  501 -0.00000000000E+00 -0.00000000000E+00 -0.72614896892E+02  0.72614896937E+02  0.25500000000E-02 0. -1.
    5000001    1    1    2    0    0  0.43903419596E+02 -0.33318234236E+02  0.98882368969E+01  0.95207101698E+02  0.77000000000E+02 0.  0.
   -5000001    1    1    2    0    0 -0.43903419596E+02  0.33318234236E+02  0.44877417608E+02  0.10478834666E+03  0.77000000000E+02 0.  0.
<mgrwt>
<rscale>  0 0.19235099E+03</rscale>
<asrwt>0</asrwt>
<pdfrwt beam="1">  1        2 0.18197222E-01 0.19235099E+03</pdfrwt>
<pdfrwt beam="2">  1       -2 0.10373557E-01 0.19235099E+03</pdfrwt>
<totfact> 0.18602425E+04</totfact>
</mgrwt>
</event>
<event>
 4    1  0.5562790E-004  0.2188293E+03  0.7818608E-02  0.1134759E+00
          2   -1    0    0  501    0  0.00000000000E+00  0.00000000000E+00  0.10477842848E+03  0.10477842851E+03  0.25500000000E-02 0.  1.
         -2   -1    0    0    0  501 -0.00000000000E+00 -0.00000000000E+00 -0.11425597447E+03  0.11425597450E+03  0.25500000000E-02 0. -1.
    5000001    1    1    2    0    0  0.69013897728E+02  0.75254467191E+01 -0.39743131616E+02  0.11103182849E+03  0.77000000000E+02 0.  0.
   -5000001    1    1    2    0    0 -0.69013897728E+02 -0.75254467191E+01  0.30265585625E+02  0.10800257451E+03  0.77000000000E+02 0.  0.
<mgrwt>
<rscale>  0 0.21882926E+03</rscale>
<asrwt>0</asrwt>
<pdfrwt beam="1">  1        2 0.14968347E-01 0.21882926E+03</pdfrwt>
<pdfrwt beam="2">  1       -2 0.16322282E-01 0.21882926E+03</pdfrwt>
<totfact> 0.11303451E+04</totfact>
</mgrwt>
</event>
<event>
 4    1  0.5562790E-004  0.2379913E+03  0.7818608E-02  0.1121138E+00
         -2   -1    0    0    0  501 -0.00000000000E+00  0.00000000000E+00  0.13885928530E+02  0.13885928765E+02  0.25500000000E-02 0. -1.
          2   -1    0    0  501    0  0.00000000000E+00 -0.00000000000E+00 -0.10197346435E+04  0.10197346435E+04  0.25500000000E-02 0.  1.
    5000001    1    1    2    0    0 -0.32658811727E+02  0.72288662546E+02 -0.69415476323E+03  0.70290261348E+03  0.77000000000E+02 0.  0.
   -5000001    1    1    2    0    0  0.32658811727E+02 -0.72288662546E+02 -0.31169395172E+03  0.33071795878E+03  0.77000000000E+02 0.  0.
<mgrwt>
<rscale>  0 0.23799128E+03</rscale>
<asrwt>0</asrwt>
<pdfrwt beam="1">  1        2 0.14567633E+00 0.23799128E+03</pdfrwt>
<pdfrwt beam="2">  1       -2 0.19837047E-02 0.23799128E+03</pdfrwt>
<totfact> 0.21934156E+04</totfact>
</mgrwt>
</event>
<event>
 4    1  0.5562790E-004  0.2078114E+03  0.7818608E-02  0.1143311E+00
          2   -1    0    0  501    0  0.00000000000E+00  0.00000000000E+00  0.93606823259E+03  0.93606823260E+03  0.25500000000E-02 0.  1.
         -2   -1    0    0    0  501 -0.00000000000E+00 -0.00000000000E+00 -0.11533768397E+02  0.11533768679E+02  0.25500000000E-02 0. -1.
    5000001    1    1    2    0    0 -0.40082974966E+02 -0.57005684447E+02  0.47746029476E+03  0.48862421759E+03  0.77000000000E+02 0.  0.
   -5000001    1    1    2    0    0  0.40082974966E+02  0.57005684447E+02  0.44707416944E+03  0.45897778369E+03  0.77000000000E+02 0.  0.
<mgrwt>
<rscale>  0 0.20781140E+03</rscale>
<asrwt>0</asrwt>
<pdfrwt beam="1">  1        2 0.13372408E+00 0.20781140E+03</pdfrwt>
<pdfrwt beam="2">  1       -2 0.16476807E-02 0.20781140E+03</pdfrwt>
<totfact> 0.31985881E+04</totfact>
</mgrwt>
</event>
<event>
 4    1  0.5562790E-004  0.1997290E+03  0.7818608E-02  0.1149968E+00
         -2   -1    0    0    0  501 -0.00000000000E+00  0.00000000000E+00  0.10314978480E+03  0.10314978483E+03  0.25500000000E-02 0. -1.
          2   -1    0    0  501    0  0.00000000000E+00 -0.00000000000E+00 -0.96683877511E+02  0.96683877545E+02  0.25500000000E-02 0.  1.
    5000001    1    1    2    0    0  0.35377252090E+02 -0.40915050778E+02  0.36691911646E+02  0.10099944419E+03  0.77000000000E+02 0.  0.
   -5000001    1    1    2    0    0 -0.35377252090E+02  0.40915050778E+02 -0.30226004358E+02  0.98834218189E+02  0.77000000000E+02 0.  0.
<mgrwt>
<rscale>  0 0.19972903E+03</rscale>
<asrwt>0</asrwt>
<pdfrwt beam="1">  1        2 0.13811982E-01 0.19972903E+03</pdfrwt>
<pdfrwt beam="2">  1       -2 0.14735684E-01 0.19972903E+03</pdfrwt>
<totfact> 0.14631959E+04</totfact>
</mgrwt>
</event>
<event>
 4    1  0.5562790E-004  0.2438271E+03  0.7818608E-02  0.1117269E+00
          2   -1    0    0  501    0  0.00000000000E+00  0.00000000000E+00  0.26746786630E+04  0.26746786630E+04  0.25500000000E-02 0.  1.
         -2   -1    0    0    0  501 -0.00000000000E+00 -0.00000000000E+00 -0.55568958456E+01  0.55568964307E+01  0.25500000000E-02 0. -1.
    5000001    1    1    2    0    0 -0.58988078340E+02  0.16105039817E+02  0.54227569896E+03  0.55111786342E+03  0.77000000000E+02 0.  0.
   -5000001    1    1    2    0    0  0.58988078340E+02 -0.16105039817E+02  0.21268460682E+04  0.21291176960E+04  0.77000000000E+02 0.  0.
<mgrwt>
<rscale>  0 0.24382708E+03</rscale>
<asrwt>0</asrwt>
<pdfrwt beam="1">  1        2 0.38209760E+00 0.24382708E+03</pdfrwt>
<pdfrwt beam="2">  1       -2 0.79384096E-03 0.24382708E+03</pdfrwt>
<totfact> 0.12185122E+04</totfact>
</mgrwt>
</event>
<event>
 4    1  0.5562790E-004  0.1876555E+03  0.7818608E-02  0.1160593E+00
         -2   -1    0    0    0  501 -0.00000000000E+00  0.00000000000E+00  0.13263281134E+02  0.13263281379E+02  0.25500000000E-02 0. -1.
          2   -1    0    0  501    0  0.00000000000E+00 -0.00000000000E+00 -0.66376071738E+03  0.66376071738E+03  0.25500000000E-02 0.  1.
    5000001    1    1    2    0    0  0.14993674216E+02  0.38612013422E+02 -0.44807028608E+03  0.45652128003E+03  0.77000000000E+02 0.  0.
   -5000001    1    1    2    0    0 -0.14993674216E+02 -0.38612013422E+02 -0.20242715016E+03  0.22050271873E+03  0.77000000000E+02 0.  0.
<mgrwt>
<rscale>  0 0.18765548E+03</rscale>
<asrwt>0</asrwt>
<pdfrwt beam="1">  1        2 0.94822939E-01 0.18765548E+03</pdfrwt>
<pdfrwt beam="2">  1       -2 0.18947549E-02 0.18765548E+03</pdfrwt>
<totfact> 0.39428507E+04</totfact>
</mgrwt>
</event>
<event>
 4    1  0.5562790E-004  0.1835407E+03  0.7818608E-02  0.1164420E+00
         -2   -1    0    0    0  501 -0.00000000000E+00  0.00000000000E+00  0.25419654782E+03  0.25419654783E+03  0.25500000000E-02 0. -1.
          2   -1    0    0  501    0  0.00000000000E+00 -0.00000000000E+00 -0.33131031462E+02  0.33131031560E+02  0.25500000000E-02 0.  1.
    5000001    1    1    2    0    0 -0.94943793109E+01  0.38167453314E+02  0.15867948136E+03  0.18070715408E+03  0.77000000000E+02 0.  0.
   -5000001    1    1    2    0    0  0.94943793109E+01 -0.38167453314E+02  0.62386034997E+02  0.10662042531E+03  0.77000000000E+02 0.  0.
<mgrwt>
<rscale>  0 0.18354066E+03</rscale>
<asrwt>0</asrwt>
<pdfrwt beam="1">  1        2 0.47330045E-02 0.18354066E+03</pdfrwt>
<pdfrwt beam="2">  1       -2 0.36313793E-01 0.18354066E+03</pdfrwt>
<totfact> 0.11645195E+04</totfact>
</mgrwt>
</event>
<event>
 4    1  0.5562790E-004  0.2695791E+03  0.7818608E-02  0.1101521E+00
         -2   -1    0    0    0  501 -0.00000000000E+00  0.00000000000E+00  0.22218902443E+02  0.22218902589E+02  0.25500000000E-02 0. -1.
          2   -1    0    0  501    0  0.00000000000E+00 -0.00000000000E+00 -0.81769189388E+03  0.81769189389E+03  0.25500000000E-02 0.  1.
    5000001    1    1    2    0    0  0.83089245022E+02 -0.60854195181E+02 -0.27186468262E+03  0.30074318174E+03  0.77000000000E+02 0.  0.
   -5000001    1    1    2    0    0 -0.83089245022E+02  0.60854195181E+02 -0.52360830882E+03  0.53916761473E+03  0.77000000000E+02 0.  0.
<mgrwt>
<rscale>  0 0.26957905E+03</rscale>
<asrwt>0</asrwt>
<pdfrwt beam="1">  1        2 0.11681311E+00 0.26957905E+03</pdfrwt>
<pdfrwt beam="2">  1       -2 0.31741294E-02 0.26957905E+03</pdfrwt>
<totfact> 0.14685307E+04</totfact>
</mgrwt>
</event>
<event>
 4    1  0.5562790E-004  0.1830758E+03  0.7818608E-02  0.1164859E+00
         -2   -1    0    0    0  501 -0.00000000000E+00  0.00000000000E+00  0.10342230906E+03  0.10342230910E+03  0.25500000000E-02 0. -1.
          2   -1    0    0  501    0  0.00000000000E+00 -0.00000000000E+00 -0.81019121264E+02  0.81019121304E+02  0.25500000000E-02 0.  1.
    5000001    1    1    2    0    0  0.31756106769E+02  0.20958074504E+02  0.43099954856E+02  0.96095251249E+02  0.77000000000E+02 0.  0.
   -5000001    1    1    2    0    0 -0.31756106769E+02 -0.20958074504E+02 -0.20696767055E+02  0.88346179151E+02  0.77000000000E+02 0.  0.
<mgrwt>
<rscale>  0 0.18307577E+03</rscale>
<asrwt>0</asrwt>
<pdfrwt beam="1">  1        2 0.11574160E-01 0.18307577E+03</pdfrwt>
<pdfrwt beam="2">  1       -2 0.14774616E-01 0.18307577E+03</pdfrwt>
<totfact> 0.17897687E+04</totfact>
</mgrwt>
</event>
<event>
 4    1  0.5562790E-004  0.1675444E+03  0.7818608E-02  0.1180433E+00
         -2   -1    0    0    0  501 -0.00000000000E+00  0.00000000000E+00  0.28353063230E+03  0.28353063232E+03  0.25500000000E-02 0. -1.
          2   -1    0    0  501    0  0.00000000000E+00 -0.00000000000E+00 -0.24751414241E+02  0.24751414372E+02  0.25500000000E-02 0.  1.
    5000001    1    1    2    0    0  0.30366763711E+02  0.98920074519E+01  0.11412846080E+03  0.14133045572E+03  0.77000000000E+02 0.  0.
   -5000001    1    1    2    0    0 -0.30366763711E+02 -0.98920074519E+01  0.14465075727E+03  0.16695159097E+03  0.77000000000E+02 0.  0.
<mgrwt>
<rscale>  0 0.16754443E+03</rscale>
<asrwt>0</asrwt>
<pdfrwt beam="1">  1        2 0.35359165E-02 0.16754443E+03</pdfrwt>
<pdfrwt beam="2">  1       -2 0.40504374E-01 0.16754443E+03</pdfrwt>
<totfact> 0.13857582E+04</totfact>
</mgrwt>
</event>
<event>
 4    1  0.5562790E-004  0.2308460E+03  0.7818608E-02  0.1126046E+00
          2   -1    0    0  501    0  0.00000000000E+00  0.00000000000E+00  0.20279435238E+04  0.20279435238E+04  0.25500000000E-02 0.  1.
         -2   -1    0    0    0  501 -0.00000000000E+00 -0.00000000000E+00 -0.65694469307E+01  0.65694474256E+01  0.25500000000E-02 0. -1.
    5000001    1    1    2    0    0  0.60423950333E+02  0.45119701229E+02  0.13747758962E+04  0.13789940558E+04  0.77000000000E+02 0.  0.
   -5000001    1    1    2    0    0 -0.60423950333E+02 -0.45119701229E+02  0.64659818070E+03  0.65551891544E+03  0.77000000000E+02 0.  0.
<mgrwt>
<rscale>  0 0.23084599E+03</rscale>
<asrwt>0</asrwt>
<pdfrwt beam="1">  1        2 0.28970618E+00 0.23084599E+03</pdfrwt>
<pdfrwt beam="2">  1       -2 0.93849258E-03 0.23084599E+03</pdfrwt>
<totfact> 0.19888360E+04</totfact>
</mgrwt>
</event>
<event>
 4    1  0.5562790E-004  0.3358103E+03  0.7818608E-02  0.1068595E+00
         -2   -1    0    0    0  501 -0.00000000000E+00  0.00000000000E+00  0.59725498861E+02  0.59725498915E+02  0.25500000000E-02 0. -1.
          2   -1    0    0  501    0  0.00000000000E+00 -0.00000000000E+00 -0.47202849675E+03  0.47202849676E+03  0.25500000000E-02 0.  1.
    5000001    1    1    2    0    0  0.61086142367E+02  0.10343170905E+03 -0.34630203073E+03  0.37454469922E+03  0.77000000000E+02 0.  0.
   -5000001    1    1    2    0    0 -0.61086142367E+02 -0.10343170905E+03 -0.66000967159E+02  0.15720929645E+03  0.77000000000E+02 0.  0.
<mgrwt>
<rscale>  0 0.33581029E+03</rscale>
<asrwt>0</asrwt>
<pdfrwt beam="1">  1        2 0.67432640E-01 0.33581029E+03</pdfrwt>
<pdfrwt beam="2">  1       -2 0.85322144E-02 0.33581029E+03</pdfrwt>
<totfact> 0.61807850E+03</totfact>
</mgrwt>
</event>
<event>
 4    1  0.5562790E-004  0.1705938E+03  0.7818608E-02  0.1177230E+00
         -2   -1    0    0    0  501 -0.00000000000E+00  0.00000000000E+00  0.10045253695E+02  0.10045254018E+02  0.25500000000E-02 0. -1.
          2   -1    0    0  501    0  0.00000000000E+00 -0.00000000000E+00 -0.72427883473E+03  0.72427883473E+03  0.25500000000E-02 0.  1.
    5000001    1    1    2    0    0  0.19331120982E+02 -0.50309100547E+01 -0.22461298577E+03  0.23828343558E+03  0.77000000000E+02 0.  0.
   -5000001    1    1    2    0    0 -0.19331120982E+02  0.50309100547E+01 -0.48962059526E+03  0.49604065317E+03  0.77000000000E+02 0.  0.
<mgrwt>
<rscale>  0 0.17059384E+03</rscale>
<asrwt>0</asrwt>
<pdfrwt beam="1">  1        2 0.10346837E+00 0.17059384E+03</pdfrwt>
<pdfrwt beam="2">  1       -2 0.14350367E-02 0.17059384E+03</pdfrwt>
<totfact> 0.52853394E+04</totfact>
</mgrwt>
</event>
<event>
 4    1  0.5562790E-004  0.2825133E+03  0.7818608E-02  0.1094324E+00
          2   -1    0    0  501    0  0.00000000000E+00  0.00000000000E+00  0.98365166727E+03  0.98365166728E+03  0.25500000000E-02 0.  1.
         -2   -1    0    0    0  501 -0.00000000000E+00 -0.00000000000E+00 -0.20285068675E+02  0.20285068835E+02  0.25500000000E-02 0. -1.
    5000001    1    1    2    0    0 -0.11714354117E+03  0.10051484614E+01  0.42004901701E+03  0.44282479182E+03  0.77000000000E+02 0.  0.
   -5000001    1    1    2    0    0  0.11714354117E+03 -0.10051484614E+01  0.54331758159E+03  0.56111194429E+03  0.77000000000E+02 0.  0.
<mgrwt>
<rscale>  0 0.28251330E+03</rscale>
<asrwt>0</asrwt>
<pdfrwt beam="1">  1        2 0.14052163E+00 0.28251330E+03</pdfrwt>
<pdfrwt beam="2">  1       -2 0.28978677E-02 0.28251330E+03</pdfrwt>
<totfact> 0.13261478E+04</totfact>
</mgrwt>
</event>
<event>
 4    1  0.5562790E-004  0.2015040E+03  0.7818608E-02  0.1148476E+00
          2   -1    0    0  501    0  0.00000000000E+00  0.00000000000E+00  0.52722369453E+02  0.52722369515E+02  0.25500000000E-02 0.  1.
         -2   -1    0    0    0  501 -0.00000000000E+00 -0.00000000000E+00 -0.19253617005E+03  0.19253617007E+03  0.25500000000E-02 0. -1.
    5000001    1    1    2    0    0 -0.53304119016E+02  0.36807268962E+02 -0.76096263125E+02  0.12615762131E+03  0.77000000000E+02 0.  0.
   -5000001    1    1    2    0    0  0.53304119016E+02 -0.36807268962E+02 -0.63717537473E+02  0.11910091828E+03  0.77000000000E+02 0.  0.
<mgrwt>
<rscale>  0 0.20150398E+03</rscale>
<asrwt>0</asrwt>
<pdfrwt beam="1">  1        2 0.75317671E-02 0.20150398E+03</pdfrwt>
<pdfrwt beam="2">  1       -2 0.27505167E-01 0.20150398E+03</pdfrwt>
<totfact> 0.10658206E+04</totfact>
</mgrwt>
</event>
<event>
 4    1  0.5562790E-004  0.1855065E+03  0.7818608E-02  0.1162578E+00
         -2   -1    0    0    0  501 -0.00000000000E+00  0.00000000000E+00  0.64788328179E+01  0.64788333197E+01  0.25500000000E-02 0. -1.
          2   -1    0    0  501    0  0.00000000000E+00 -0.00000000000E+00 -0.13278875146E+04  0.13278875146E+04  0.25500000000E-02 0.  1.
    5000001    1    1    2    0    0  0.25550585347E+02 -0.71917425277E+01 -0.97993599108E+03  0.98331485303E+03  0.77000000000E+02 0.  0.
   -5000001    1    1    2    0    0 -0.25550585347E+02  0.71917425277E+01 -0.34147269072E+03  0.35105149491E+03  0.77000000000E+02 0.  0.
<mgrwt>
<rscale>  0 0.18550646E+03</rscale>
<asrwt>0</asrwt>
<pdfrwt beam="1">  1        2 0.18969804E+00 0.18550646E+03</pdfrwt>
<pdfrwt beam="2">  1       -2 0.92554843E-03 0.18550646E+03</pdfrwt>
<totfact> 0.44357358E+04</totfact>
</mgrwt>
</event>
<event>
 4    1  0.5562790E-004  0.2818425E+03  0.7818608E-02  0.1094687E+00
         -2   -1    0    0    0  501 -0.00000000000E+00  0.00000000000E+00  0.39062900596E+03  0.39062900597E+03  0.25500000000E-02 0. -1.
          2   -1    0    0  501    0  0.00000000000E+00 -0.00000000000E+00 -0.50838018839E+02  0.50838018903E+02  0.25500000000E-02 0.  1.
    5000001    1    1    2    0    0 -0.27022333491E+01  0.11484783270E+03  0.12750299392E+03  0.18810459909E+03  0.77000000000E+02 0.  0.
   -5000001    1    1    2    0    0  0.27022333491E+01 -0.11484783270E+03  0.21228799321E+03  0.25336242579E+03  0.77000000000E+02 0.  0.
<mgrwt>
<rscale>  0 0.28184254E+03</rscale>
<asrwt>0</asrwt>
<pdfrwt beam="1">  1        2 0.72625742E-02 0.28184254E+03</pdfrwt>
<pdfrwt beam="2">  1       -2 0.55804143E-01 0.28184254E+03</pdfrwt>
<totfact> 0.29528838E+03</totfact>
</mgrwt>
</event>
<event>
 4    1  0.5562790E-004  0.1902772E+03  0.7818608E-02  0.1158212E+00
          2   -1    0    0  501    0  0.00000000000E+00  0.00000000000E+00  0.59963629655E+01  0.59963635077E+01  0.25500000000E-02 0.  1.
         -2   -1    0    0    0  501 -0.00000000000E+00 -0.00000000000E+00 -0.15094732810E+04  0.15094732810E+04  0.25500000000E-02 0. -1.
    5000001    1    1    2    0    0  0.18609151651E+02  0.51347329400E+02 -0.65766876329E+03  0.66440955064E+03  0.77000000000E+02 0.  0.
   -5000001    1    1    2    0    0 -0.18609151651E+02 -0.51347329400E+02 -0.84580815473E+03  0.85106009387E+03  0.77000000000E+02 0.  0.
<mgrwt>
<rscale>  0 0.19027717E+03</rscale>
<asrwt>0</asrwt>
<pdfrwt beam="1">  1        2 0.85662428E-03 0.19027717E+03</pdfrwt>
<pdfrwt beam="2">  1       -2 0.21563880E+00 0.19027717E+03</pdfrwt>
<totfact> 0.20286386E+03</totfact>
</mgrwt>
</event>
<event>
 4    1  0.5562790E-004  0.3168236E+03  0.7818608E-02  0.1077121E+00
         -2   -1    0    0    0  501 -0.00000000000E+00  0.00000000000E+00  0.10687699633E+04  0.10687699633E+04  0.25500000000E-02 0. -1.
          2   -1    0    0  501    0  0.00000000000E+00 -0.00000000000E+00 -0.23479601545E+02  0.23479601683E+02  0.25500000000E-02 0.  1.
    5000001    1    1    2    0    0 -0.13428451615E+03  0.29032250691E+01  0.63825387574E+03  0.65676310028E+03  0.77000000000E+02 0.  0.
   -5000001    1    1    2    0    0  0.13428451615E+03 -0.29032250691E+01  0.40703648604E+03  0.43548646473E+03  0.77000000000E+02 0.  0.
<mgrwt>
<rscale>  0 0.31682357E+03</rscale>
<asrwt>0</asrwt>
<pdfrwt beam="1">  1        2 0.33542285E-02 0.31682357E+03</pdfrwt>
<pdfrwt beam="2">  1       -2 0.15268144E+00 0.31682357E+03</pdfrwt>
<totfact> 0.81838516E+02</totfact>
</mgrwt>
</event>
<event>
 4    1  0.5562790E-004  0.2896854E+03  0.7818608E-02  0.1090514E+00
          2   -1    0    0  501    0  0.00000000000E+00  0.00000000000E+00  0.71576578922E+03  0.71576578923E+03  0.25500000000E-02 0.  1.
         -2   -1    0    0    0  501 -0.00000000000E+00 -0.00000000000E+00 -0.29310433596E+02  0.29310433706E+02  0.25500000000E-02 0. -1.
    5000001    1    1    2    0    0 -0.66382827567E+02 -0.39282340769E+02  0.58859102865E+03  0.59859684354E+03  0.77000000000E+02 0.  0.
   -5000001    1    1    2    0    0  0.66382827567E+02  0.39282340769E+02  0.97864326977E+02  0.14647937939E+03  0.77000000000E+02 0.  0.
<mgrwt>
<rscale>  0 0.28968539E+03</rscale>
<asrwt>0</asrwt>
<pdfrwt beam="1">  1        2 0.10225224E+00 0.28968539E+03</pdfrwt>
<pdfrwt beam="2">  1       -2 0.41872056E-02 0.28968539E+03</pdfrwt>
<totfact> 0.11437521E+04</totfact>
</mgrwt>
</event>
<event>
 4    1  0.5562790E-004  0.1942836E+03  0.7818608E-02  0.1154654E+00
         -2   -1    0    0    0  501 -0.00000000000E+00  0.00000000000E+00  0.22188819711E+02  0.22188819858E+02  0.25500000000E-02 0. -1.
          2   -1    0    0  501    0  0.00000000000E+00 -0.00000000000E+00 -0.42528314663E+03  0.42528314663E+03  0.25500000000E-02 0.  1.
    5000001    1    1    2    0    0 -0.51447149130E+02  0.28812532942E+02 -0.21427942539E+03  0.23520553427E+03  0.77000000000E+02 0.  0.
   -5000001    1    1    2    0    0  0.51447149130E+02 -0.28812532942E+02 -0.18881490153E+03  0.21226643222E+03  0.77000000000E+02 0.  0.
<mgrwt>
<rscale>  0 0.19428362E+03</rscale>
<asrwt>0</asrwt>
<pdfrwt beam="1">  1        2 0.60754730E-01 0.19428362E+03</pdfrwt>
<pdfrwt beam="2">  1       -2 0.31698317E-02 0.19428362E+03</pdfrwt>
<totfact> 0.30424373E+04</totfact>
</mgrwt>
</event>
<event>
 4    1  0.5562790E-004  0.2076194E+03  0.7818608E-02  0.1143465E+00
         -2   -1    0    0    0  501 -0.00000000000E+00  0.00000000000E+00  0.15027634019E+02  0.15027634235E+02  0.25500000000E-02 0. -1.
          2   -1    0    0  501    0  0.00000000000E+00 -0.00000000000E+00 -0.71710890934E+03  0.71710890934E+03  0.25500000000E-02 0.  1.
    5000001    1    1    2    0    0 -0.15897978471E+02 -0.48096238602E+02 -0.18260642398E+03  0.20454852717E+03  0.77000000000E+02 0.  0.
   -5000001    1    1    2    0    0  0.15897978471E+02  0.48096238602E+02 -0.51947485133E+03  0.52758801640E+03  0.77000000000E+02 0.  0.
<mgrwt>
<rscale>  0 0.20761937E+03</rscale>
<asrwt>0</asrwt>
<pdfrwt beam="1">  1        2 0.10244411E+00 0.20761937E+03</pdfrwt>
<pdfrwt beam="2">  1       -2 0.21468053E-02 0.20761937E+03</pdfrwt>
<totfact> 0.30243174E+04</totfact>
</mgrwt>
</event>
<event>
 4    1  0.5562790E-004  0.2127443E+03  0.7818608E-02  0.1139411E+00
         -2   -1    0    0    0  501 -0.00000000000E+00  0.00000000000E+00  0.52871697163E+03  0.52871697164E+03  0.25500000000E-02 0. -1.
          2   -1    0    0  501    0  0.00000000000E+00 -0.00000000000E+00 -0.21400937901E+02  0.21400938053E+02  0.25500000000E-02 0.  1.
    5000001    1    1    2    0    0 -0.67338774468E+02 -0.21892535508E+02  0.20376813623E+03  0.22905075202E+03  0.77000000000E+02 0.  0.
   -5000001    1    1    2    0    0  0.67338774468E+02  0.21892535508E+02  0.30354789750E+03  0.32106715767E+03  0.77000000000E+02 0.  0.
<mgrwt>
<rscale>  0 0.21274435E+03</rscale>
<asrwt>0</asrwt>
<pdfrwt beam="1">  1        2 0.30572764E-02 0.21274435E+03</pdfrwt>
<pdfrwt beam="2">  1       -2 0.75531008E-01 0.21274435E+03</pdfrwt>
<totfact> 0.48430820E+03</totfact>
</mgrwt>
</event>
<event>
 4    1  0.5562790E-004  0.2412143E+03  0.7818608E-02  0.1118987E+00
          2   -1    0    0  501    0  0.00000000000E+00  0.00000000000E+00  0.55540748086E+03  0.55540748086E+03  0.25500000000E-02 0.  1.
         -2   -1    0    0    0  501 -0.00000000000E+00 -0.00000000000E+00 -0.26189932453E+02  0.26189932577E+02  0.25500000000E-02 0. -1.
    5000001    1    1    2    0    0  0.69919805648E+02  0.47042519623E+02  0.17075112516E+03  0.20539407153E+03  0.77000000000E+02 0.  0.
   -5000001    1    1    2    0    0 -0.69919805648E+02 -0.47042519623E+02  0.35846642324E+03  0.37620334191E+03  0.77000000000E+02 0.  0.
<mgrwt>
<rscale>  0 0.24121430E+03</rscale>
<asrwt>0</asrwt>
<pdfrwt beam="1">  1        2 0.79343926E-01 0.24121430E+03</pdfrwt>
<pdfrwt beam="2">  1       -2 0.37414189E-02 0.24121430E+03</pdfrwt>
<totfact> 0.18003416E+04</totfact>
</mgrwt>
</event>
<event>
 4    1  0.5562790E-004  0.3293320E+03  0.7818608E-02  0.1071433E+00
          2   -1    0    0  501    0  0.00000000000E+00  0.00000000000E+00  0.21192487773E+04  0.21192487773E+04  0.25500000000E-02 0.  1.
         -2   -1    0    0    0  501 -0.00000000000E+00 -0.00000000000E+00 -0.12794577074E+02  0.12794577328E+02  0.25500000000E-02 0. -1.
    5000001    1    1    2    0    0 -0.39382318890E+02  0.14010124013E+03  0.10698177835E+04  0.10824132365E+04  0.77000000000E+02 0.  0.
   -5000001    1    1    2    0    0  0.39382318890E+02 -0.14010124013E+03  0.10366364166E+04  0.10496301181E+04  0.77000000000E+02 0.  0.
<mgrwt>
<rscale>  0 0.32933200E+03</rscale>
<asrwt>0</asrwt>
<pdfrwt beam="1">  1        2 0.30274979E+00 0.32933200E+03</pdfrwt>
<pdfrwt beam="2">  1       -2 0.18277970E-02 0.32933200E+03</pdfrwt>
<totfact> 0.68268768E+03</totfact>
</mgrwt>
</event>
<event>
 4    1  0.5562790E-004  0.1803536E+03  0.7818608E-02  0.1167461E+00
         -2   -1    0    0    0  501 -0.00000000000E+00  0.00000000000E+00  0.88054817201E+03  0.88054817201E+03  0.25500000000E-02 0. -1.
          2   -1    0    0  501    0  0.00000000000E+00 -0.00000000000E+00 -0.92349965625E+01  0.92349969146E+01  0.25500000000E-02 0.  1.
    5000001    1    1    2    0    0 -0.44283301244E+02  0.13320981885E+02  0.47524816217E+03  0.48366132260E+03  0.77000000000E+02 0.  0.
   -5000001    1    1    2    0    0  0.44283301244E+02 -0.13320981885E+02  0.39606501327E+03  0.40612184633E+03  0.77000000000E+02 0.  0.
<mgrwt>
<rscale>  0 0.18035365E+03</rscale>
<asrwt>0</asrwt>
<pdfrwt beam="1">  1        2 0.13192854E-02 0.18035365E+03</pdfrwt>
<pdfrwt beam="2">  1       -2 0.12579258E+00 0.18035365E+03</pdfrwt>
<totfact> 0.46916164E+03</totfact>
</mgrwt>
</event>
<event>
 4    1  0.5562790E-004  0.1745323E+03  0.7818608E-02  0.1173202E+00
          2   -1    0    0  501    0  0.00000000000E+00  0.00000000000E+00  0.29611029117E+02  0.29611029227E+02  0.25500000000E-02 0.  1.
         -2   -1    0    0    0  501 -0.00000000000E+00 -0.00000000000E+00 -0.25718061793E+03  0.25718061795E+03  0.25500000000E-02 0. -1.
    5000001    1    1    2    0    0 -0.12379416433E+02 -0.38138376061E+02 -0.12835259221E+03  0.15495539232E+03  0.77000000000E+02 0.  0.
   -5000001    1    1    2    0    0  0.12379416433E+02  0.38138376061E+02 -0.99216996603E+02  0.13183625486E+03  0.77000000000E+02 0.  0.
<mgrwt>
<rscale>  0 0.17453232E+03</rscale>
<asrwt>0</asrwt>
<pdfrwt beam="1">  1        2 0.42301472E-02 0.17453232E+03</pdfrwt>
<pdfrwt beam="2">  1       -2 0.36740087E-01 0.17453232E+03</pdfrwt>
<totfact> 0.13163295E+04</totfact>
</mgrwt>
</event>
<event>
 4    1  0.5562790E-004  0.1932588E+03  0.7818608E-02  0.1155555E+00
         -2   -1    0    0    0  501 -0.00000000000E+00  0.00000000000E+00  0.30597023458E+01  0.30597034084E+01  0.25500000000E-02 0. -1.
          2   -1    0    0  501    0  0.00000000000E+00 -0.00000000000E+00 -0.30516828004E+04  0.30516828004E+04  0.25500000000E-02 0.  1.
    5000001    1    1    2    0    0 -0.48973712802E+02  0.31524187903E+02 -0.14609993686E+04  0.14641859015E+04  0.77000000000E+02 0.  0.
   -5000001    1    1    2    0    0  0.48973712802E+02 -0.31524187903E+02 -0.15876237294E+04  0.15905566023E+04  0.77000000000E+02 0.  0.
<mgrwt>
<rscale>  0 0.19325882E+03</rscale>
<asrwt>0</asrwt>
<pdfrwt beam="1">  1        2 0.43595274E+00 0.19325882E+03</pdfrwt>
<pdfrwt beam="2">  1       -2 0.43710237E-03 0.19325882E+03</pdfrwt>
<totfact> 0.18246019E+04</totfact>
</mgrwt>
</event>
<event>
 4    1  0.5562790E-004  0.2410880E+03  0.7818608E-02  0.1119070E+00
          2   -1    0    0  501    0  0.00000000000E+00  0.00000000000E+00  0.83213586169E+02  0.83213586208E+02  0.25500000000E-02 0.  1.
         -2   -1    0    0    0  501 -0.00000000000E+00 -0.00000000000E+00 -0.17462123349E+03  0.17462123351E+03  0.25500000000E-02 0. -1.
    5000001    1    1    2    0    0  0.59411798309E+02 -0.62834918060E+02 -0.81556702630E+02  0.14162797905E+03  0.77000000000E+02 0.  0.
   -5000001    1    1    2    0    0 -0.59411798309E+02  0.62834918060E+02 -0.98509446888E+01  0.11620684066E+03  0.77000000000E+02 0.  0.
<mgrwt>
<rscale>  0 0.24108803E+03</rscale>
<asrwt>0</asrwt>
<pdfrwt beam="1">  1        2 0.11887655E-01 0.24108803E+03</pdfrwt>
<pdfrwt beam="2">  1       -2 0.24945890E-01 0.24108803E+03</pdfrwt>
<totfact> 0.72564779E+03</totfact>
</mgrwt>
</event>
<event>
 4    1  0.5562790E-004  0.1995078E+03  0.7818608E-02  0.1150155E+00
          2   -1    0    0  501    0  0.00000000000E+00  0.00000000000E+00  0.61309555234E+03  0.61309555234E+03  0.25500000000E-02 0.  1.
         -2   -1    0    0    0  501 -0.00000000000E+00 -0.00000000000E+00 -0.16230483228E+02  0.16230483428E+02  0.25500000000E-02 0. -1.
    5000001    1    1    2    0    0  0.35342472386E+02  0.34181917819E+02  0.42477942114E+03  0.43449286586E+03  0.77000000000E+02 0.  0.
   -5000001    1    1    2    0    0 -0.35342472386E+02 -0.34181917819E+02  0.17208564797E+03  0.19483316991E+03  0.77000000000E+02 0.  0.
<mgrwt>
<rscale>  0 0.19950777E+03</rscale>
<asrwt>0</asrwt>
<pdfrwt beam="1">  1        2 0.87585050E-01 0.19950777E+03</pdfrwt>
<pdfrwt beam="2">  1       -2 0.23186412E-02 0.19950777E+03</pdfrwt>
<totfact> 0.32302518E+04</totfact>
</mgrwt>
</event>
<event>
 4    1  0.5562790E-004  0.2374797E+03  0.7818608E-02  0.1121483E+00
          2   -1    0    0  501    0  0.00000000000E+00  0.00000000000E+00  0.21365986696E+04  0.21365986696E+04  0.25500000000E-02 0.  1.
         -2   -1    0    0    0  501 -0.00000000000E+00 -0.00000000000E+00 -0.65988776373E+01  0.65988781300E+01  0.25500000000E-02 0. -1.
    5000001    1    1    2    0    0 -0.38053293988E+01  0.88069912444E+02  0.12453514877E+04  0.12508397651E+04  0.77000000000E+02 0.  0.
   -5000001    1    1    2    0    0  0.38053293988E+01 -0.88069912444E+02  0.88464830432E+03  0.89235778270E+03  0.77000000000E+02 0.  0.
<mgrwt>
<rscale>  0 0.23747971E+03</rscale>
<asrwt>0</asrwt>
<pdfrwt beam="1">  1        2 0.30522841E+00 0.23747971E+03</pdfrwt>
<pdfrwt beam="2">  1       -2 0.94269676E-03 0.23747971E+03</pdfrwt>
<totfact> 0.17518460E+04</totfact>
</mgrwt>
</event>
<event>
 4    1  0.5562790E-004  0.2098013E+03  0.7818608E-02  0.1141723E+00
          2   -1    0    0  501    0  0.00000000000E+00  0.00000000000E+00  0.43575757334E+02  0.43575757408E+02  0.25500000000E-02 0.  1.
         -2   -1    0    0    0  501 -0.00000000000E+00 -0.00000000000E+00 -0.25252913033E+03  0.25252913034E+03  0.25500000000E-02 0. -1.
    5000001    1    1    2    0    0 -0.33283147925E+02 -0.62023665822E+02 -0.88987384060E+02  0.13712205359E+03  0.77000000000E+02 0.  0.
   -5000001    1    1    2    0    0  0.33283147925E+02  0.62023665822E+02 -0.11996598894E+03  0.15898283417E+03  0.77000000000E+02 0.  0.
<mgrwt>
<rscale>  0 0.20980132E+03</rscale>
<asrwt>0</asrwt>
<pdfrwt beam="1">  1        2 0.62251084E-02 0.20980132E+03</pdfrwt>
<pdfrwt beam="2">  1       -2 0.36075589E-01 0.20980132E+03</pdfrwt>
<totfact> 0.83203664E+03</totfact>
</mgrwt>
</event>
<event>
 4    1  0.5562790E-004  0.3579267E+03  0.7818608E-02  0.1059408E+00
          2   -1    0    0  501    0  0.00000000000E+00  0.00000000000E+00  0.14050067014E+04  0.14050067014E+04  0.25500000000E-02 0.  1.
         -2   -1    0    0    0  501 -0.00000000000E+00 -0.00000000000E+00 -0.22795538568E+02  0.22795538711E+02  0.25500000000E-02 0. -1.
    5000001    1    1    2    0    0  0.74882403853E+02 -0.12730738930E+03  0.43000019056E+03  0.46113307153E+03  0.77000000000E+02 0.  0.
   -5000001    1    1    2    0    0 -0.74882403853E+02  0.12730738930E+03  0.95221097225E+03  0.96666916856E+03  0.77000000000E+02 0.  0.
<mgrwt>
<rscale>  0 0.35792672E+03</rscale>
<asrwt>0</asrwt>
<pdfrwt beam="1">  1        2 0.20071520E+00 0.35792672E+03</pdfrwt>
<pdfrwt beam="2">  1       -2 0.32565063E-02 0.35792672E+03</pdfrwt>
<totfact> 0.65644227E+03</totfact>
</mgrwt>
</event>
<event>
 4    1  0.5562790E-004  0.4663261E+03  0.7818608E-02  0.1022962E+00
          2   -1    0    0  501    0  0.00000000000E+00  0.00000000000E+00  0.40537025935E+03  0.40537025935E+03  0.25500000000E-02 0.  1.
         -2   -1    0    0    0  501 -0.00000000000E+00 -0.00000000000E+00 -0.13411197945E+03  0.13411197947E+03  0.25500000000E-02 0. -1.
    5000001    1    1    2    0    0 -0.29952781388E+02 -0.17808284297E+03 -0.99046871199E+01  0.19656492795E+03  0.77000000000E+02 0.  0.
   -5000001    1    1    2    0    0  0.29952781388E+02  0.17808284297E+03  0.28116296702E+03  0.34291731087E+03  0.77000000000E+02 0.  0.
<mgrwt>
<rscale>  0 0.46632610E+03</rscale>
<asrwt>0</asrwt>
<pdfrwt beam="1">  1        2 0.57910037E-01 0.46632610E+03</pdfrwt>
<pdfrwt beam="2">  1       -2 0.19158854E-01 0.46632610E+03</pdfrwt>
<totfact> 0.19467720E+03</totfact>
</mgrwt>
</event>
<event>
 4    1  0.5562790E-004  0.2437187E+03  0.7818608E-02  0.1117340E+00
          2   -1    0    0  501    0  0.00000000000E+00  0.00000000000E+00  0.13054117349E+04  0.13054117349E+04  0.25500000000E-02 0.  1.
         -2   -1    0    0    0  501 -0.00000000000E+00 -0.00000000000E+00 -0.11375495260E+02  0.11375495546E+02  0.25500000000E-02 0. -1.
    5000001    1    1    2    0    0  0.46410219183E+01  0.68482504177E+02  0.99755384907E+03  0.10028729103E+04  0.77000000000E+02 0.  0.
   -5000001    1    1    2    0    0 -0.46410219183E+01 -0.68482504177E+02  0.29648239058E+03  0.31391432014E+03  0.77000000000E+02 0.  0.
<mgrwt>
<rscale>  0 0.24371873E+03</rscale>
<asrwt>0</asrwt>
<pdfrwt beam="1">  1        2 0.18648723E+00 0.24371873E+03</pdfrwt>
<pdfrwt beam="2">  1       -2 0.16250721E-02 0.24371873E+03</pdfrwt>
<totfact> 0.20487968E+04</totfact>
</mgrwt>
</event>
<event>
 4    1  0.5562790E-004  0.4254467E+03  0.7818608E-02  0.1035308E+00
         -2   -1    0    0    0  501 -0.00000000000E+00  0.00000000000E+00  0.54170616452E+02  0.54170616512E+02  0.25500000000E-02 0.  1.
          2   -1    0    0  501    0  0.00000000000E+00 -0.00000000000E+00 -0.83534622696E+03  0.83534622696E+03  0.25500000000E-02 0. -1.
    5000001    1    1    2    0    0  0.93151792200E+02  0.16450206978E+03 -0.26541931383E+03  0.33483518260E+03  0.77000000000E+02 0.  0.
   -5000001    1    1    2    0    0 -0.93151792200E+02 -0.16450206978E+03 -0.51575629667E+03  0.55468166087E+03  0.77000000000E+02 0.  0.
<mgrwt>
<rscale>  0 0.42544668E+03</rscale>
<asrwt>0</asrwt>
<pdfrwt beam="1">  1        2 0.11933517E+00 0.42544668E+03</pdfrwt>
<pdfrwt beam="2">  1       -2 0.77386600E-02 0.42544668E+03</pdfrwt>
<totfact> 0.37001772E+03</totfact>
</mgrwt>
</event>
<event>
 4    1  0.5562790E-004  0.2022787E+03  0.7818608E-02  0.1147831E+00
          2   -1    0    0  501    0  0.00000000000E+00  0.00000000000E+00  0.94782135013E+03  0.94782135013E+03  0.25500000000E-02 0.  1.
         -2   -1    0    0    0  501 -0.00000000000E+00 -0.00000000000E+00 -0.10792296502E+02  0.10792296804E+02  0.25500000000E-02 0. -1.
    5000001    1    1    2    0    0  0.54871257115E+02 -0.27062839727E+02  0.35667670949E+03  0.36998719876E+03  0.77000000000E+02 0.  0.
   -5000001    1    1    2    0    0 -0.54871257115E+02  0.27062839727E+02  0.58035234413E+03  0.58862644818E+03  0.77000000000E+02 0.  0.
<mgrwt>
<rscale>  0 0.20227871E+03</rscale>
<asrwt>0</asrwt>
<pdfrwt beam="1">  1        2 0.13540302E+00 0.20227871E+03</pdfrwt>
<pdfrwt beam="2">  1       -2 0.15417571E-02 0.20227871E+03</pdfrwt>
<totfact> 0.34596280E+04</totfact>
</mgrwt>
</event>
<event>
 4    1  0.5562790E-004  0.4604165E+03  0.7818608E-02  0.1024660E+00
          2   -1    0    0  501    0  0.00000000000E+00  0.00000000000E+00  0.30422018599E+03  0.30422018600E+03  0.25500000000E-02 0.  1.
         -2   -1    0    0    0  501 -0.00000000000E+00 -0.00000000000E+00 -0.17420222571E+03  0.17420222573E+03  0.25500000000E-02 0. -1.
    5000001    1    1    2    0    0  0.18109756353E+03 -0.24756900974E+02  0.18644509962E+03  0.27221316433E+03  0.77000000000E+02 0.  0.
   -5000001    1    1    2    0    0 -0.18109756353E+03  0.24756900974E+02 -0.56427139331E+02  0.20620924740E+03  0.77000000000E+02 0.  0.
<mgrwt>
<rscale>  0 0.46041648E+03</rscale>
<asrwt>0</asrwt>
<pdfrwt beam="1">  1        2 0.43460026E-01 0.46041648E+03</pdfrwt>
<pdfrwt beam="2">  1       -2 0.24886032E-01 0.46041648E+03</pdfrwt>
<totfact> 0.16867111E+03</totfact>
</mgrwt>
</event>
<event>
 4    1  0.5562790E-004  0.4196757E+03  0.7818608E-02  0.1037172E+00
          2   -1    0    0  501    0  0.00000000000E+00  0.00000000000E+00  0.12816414391E+04  0.12816414391E+04  0.25500000000E-02 0.  1.
         -2   -1    0    0    0  501 -0.00000000000E+00 -0.00000000000E+00 -0.34355890448E+02  0.34355890543E+02  0.25500000000E-02 0. -1.
    5000001    1    1    2    0    0 -0.13235143289E+03  0.89117812317E+02  0.97624429599E+03  0.99218990708E+03  0.77000000000E+02 0.  0.
   -5000001    1    1    2    0    0  0.13235143289E+03 -0.89117812317E+02  0.27104125264E+03  0.32380742254E+03  0.77000000000E+02 0.  0.
<mgrwt>
<rscale>  0 0.41967575E+03</rscale>
<asrwt>0</asrwt>
<pdfrwt beam="1">  1        2 0.18309162E+00 0.41967575E+03</pdfrwt>
<pdfrwt beam="2">  1       -2 0.49079848E-02 0.41967575E+03</pdfrwt>
<totfact> 0.40959496E+03</totfact>
</mgrwt>
</event>
<event>
 4    1  0.5562790E-004  0.2320951E+03  0.7818608E-02  0.1125174E+00
         -2   -1    0    0    0  501 -0.00000000000E+00  0.00000000000E+00  0.11032574354E+03  0.11032574357E+03  0.25500000000E-02 0. -1.
          2   -1    0    0  501    0  0.00000000000E+00 -0.00000000000E+00 -0.12206609447E+03  0.12206609450E+03  0.25500000000E-02 0.  1.
    5000001    1    1    2    0    0  0.39348130893E+02  0.55491422544E+02  0.48147473854E+02  0.11346696708E+03  0.77000000000E+02 0.  0.
   -5000001    1    1    2    0    0 -0.39348130893E+02 -0.55491422544E+02 -0.59887824790E+02  0.11892487099E+03  0.77000000000E+02 0.  0.
<mgrwt>
<rscale>  0 0.23209509E+03</rscale>
<asrwt>0</asrwt>
<pdfrwt beam="1">  1        2 0.17438013E-01 0.23209509E+03</pdfrwt>
<pdfrwt beam="2">  1       -2 0.15760821E-01 0.23209509E+03</pdfrwt>
<totfact> 0.10053261E+04</totfact>
</mgrwt>
</event>
<event>
 4    1  0.5562790E-004  0.2462700E+03  0.7818608E-02  0.1115685E+00
         -2   -1    0    0    0  501 -0.00000000000E+00  0.00000000000E+00  0.17319062176E+02  0.17319062364E+02  0.25500000000E-02 0. -1.
          2   -1    0    0  501    0  0.00000000000E+00 -0.00000000000E+00 -0.87546450620E+03  0.87546450620E+03  0.25500000000E-02 0.  1.
    5000001    1    1    2    0    0  0.50680795621E+02 -0.45774875503E+02 -0.67412659354E+03  0.68193808105E+03  0.77000000000E+02 0.  0.
   -5000001    1    1    2    0    0 -0.50680795621E+02  0.45774875503E+02 -0.18401885048E+03  0.21084548751E+03  0.77000000000E+02 0.  0.
<mgrwt>
<rscale>  0 0.24626997E+03</rscale>
<asrwt>0</asrwt>
<pdfrwt beam="1">  1        2 0.12506633E+00 0.24626997E+03</pdfrwt>
<pdfrwt beam="2">  1       -2 0.24741523E-02 0.24626997E+03</pdfrwt>
<totfact> 0.19413685E+04</totfact>
</mgrwt>
</event>
<event>
 4    1  0.5562790E-004  0.3015170E+03  0.7818608E-02  0.1084485E+00
          2   -1    0    0  501    0  0.00000000000E+00  0.00000000000E+00  0.10117999761E+04  0.10117999761E+04  0.25500000000E-02 0.  1.
         -2   -1    0    0    0  501 -0.00000000000E+00 -0.00000000000E+00 -0.22463068120E+02  0.22463068265E+02  0.25500000000E-02 0. -1.
    5000001    1    1    2    0    0  0.36957849410E+02  0.12373302183E+03  0.45656568362E+03  0.48068385326E+03  0.77000000000E+02 0.  0.
   -5000001    1    1    2    0    0 -0.36957849410E+02 -0.12373302183E+03  0.53277122440E+03  0.55357919115E+03  0.77000000000E+02 0.  0.
<mgrwt>
<rscale>  0 0.30151704E+03</rscale>
<asrwt>0</asrwt>
<pdfrwt beam="1">  1        2 0.14454290E+00 0.30151704E+03</pdfrwt>
<pdfrwt beam="2">  1       -2 0.32090088E-02 0.30151704E+03</pdfrwt>
<totfact> 0.10984384E+04</totfact>
</mgrwt>
</event>
<event>
 4    1  0.5562790E-004  0.2738481E+03  0.7818608E-02  0.1099097E+00
          2   -1    0    0  501    0  0.00000000000E+00  0.00000000000E+00  0.28024343671E+04  0.28024343671E+04  0.25500000000E-02 0.  1.
         -2   -1    0    0    0  501 -0.00000000000E+00 -0.00000000000E+00 -0.66899698752E+01  0.66899703611E+01  0.25500000000E-02 0. -1.
    5000001    1    1    2    0    0 -0.38315872841E+02 -0.63099184504E+02  0.51726387521E+03  0.52814820817E+03  0.77000000000E+02 0.  0.
   -5000001    1    1    2    0    0  0.38315872841E+02  0.63099184504E+02  0.22784805220E+04  0.22809761293E+04  0.77000000000E+02 0.  0.
<mgrwt>
<rscale>  0 0.27384815E+03</rscale>
<asrwt>0</asrwt>
<pdfrwt beam="1">  1        2 0.40034798E+00 0.27384815E+03</pdfrwt>
<pdfrwt beam="2">  1       -2 0.95570950E-03 0.27384815E+03</pdfrwt>
<totfact> 0.80206027E+03</totfact>
</mgrwt>
</event>
<event>
 4    1  0.5562790E-004  0.2262791E+03  0.7818608E-02  0.1129286E+00
         -2   -1    0    0    0  501 -0.00000000000E+00  0.00000000000E+00  0.39727837238E+02  0.39727837320E+02  0.25500000000E-02 0. -1.
          2   -1    0    0  501    0  0.00000000000E+00 -0.00000000000E+00 -0.32220621580E+03  0.32220621581E+03  0.25500000000E-02 0.  1.
    5000001    1    1    2    0    0 -0.63444695127E+02 -0.52008604773E+02 -0.12221708433E+03  0.16612085965E+03  0.77000000000E+02 0.  0.
   -5000001    1    1    2    0    0  0.63444695127E+02  0.52008604773E+02 -0.16026129424E+03  0.19581319348E+03  0.77000000000E+02 0.  0.
<mgrwt>
<rscale>  0 0.22627909E+03</rscale>
<asrwt>0</asrwt>
<pdfrwt beam="1">  1        2 0.46029458E-01 0.22627909E+03</pdfrwt>
<pdfrwt beam="2">  1       -2 0.56754055E-02 0.22627909E+03</pdfrwt>
<totfact> 0.17276926E+04</totfact>
</mgrwt>
</event>
<event>
 4    1  0.5562790E-004  0.4499385E+03  0.7818608E-02  0.1027740E+00
         -2   -1    0    0    0  501 -0.00000000000E+00  0.00000000000E+00  0.46446080202E+02  0.46446080272E+02  0.25500000000E-02 0. -1.
          2   -1    0    0  501    0  0.00000000000E+00 -0.00000000000E+00 -0.10896756115E+04  0.10896756115E+04  0.25500000000E-02 0.  1.
    5000001    1    1    2    0    0 -0.13046765174E+03 -0.82381052834E+02 -0.15680069531E+03  0.23307488939E+03  0.77000000000E+02 0.  0.
   -5000001    1    1    2    0    0  0.13046765174E+03  0.82381052834E+02 -0.88642883599E+03  0.90304680239E+03  0.77000000000E+02 0.  0.
<mgrwt>
<rscale>  0 0.44993849E+03</rscale>
<asrwt>0</asrwt>
<pdfrwt beam="1">  1        2 0.15566793E+00 0.44993849E+03</pdfrwt>
<pdfrwt beam="2">  1       -2 0.66351550E-02 0.44993849E+03</pdfrwt>
<totfact> 0.32843938E+03</totfact>
</mgrwt>
</event>
<event>
 4    1  0.5562790E-004  0.3299178E+03  0.7818608E-02  0.1071173E+00
         -2   -1    0    0    0  501 -0.00000000000E+00  0.00000000000E+00  0.24623974783E+02  0.24623974915E+02  0.25500000000E-02 0. -1.
          2   -1    0    0  501    0  0.00000000000E+00 -0.00000000000E+00 -0.11050789171E+04  0.11050789171E+04  0.25500000000E-02 0.  1.
    5000001    1    1    2    0    0 -0.87633966614E+02  0.90430439447E+02 -0.28801837209E+03  0.32363707937E+03  0.77000000000E+02 0.  0.
   -5000001    1    1    2    0    0  0.87633966614E+02 -0.90430439447E+02 -0.79243657027E+03  0.80606581268E+03  0.77000000000E+02 0.  0.
<mgrwt>
<rscale>  0 0.32991778E+03</rscale>
<asrwt>0</asrwt>
<pdfrwt beam="1">  1        2 0.15786839E+00 0.32991778E+03</pdfrwt>
<pdfrwt beam="2">  1       -2 0.35177114E-02 0.32991778E+03</pdfrwt>
<totfact> 0.84752163E+03</totfact>
</mgrwt>
</event>
<event>
 4    1  0.5562790E-004  0.2497935E+03  0.7818608E-02  0.1113435E+00
          2   -1    0    0  501    0  0.00000000000E+00  0.00000000000E+00  0.23041752996E+04  0.23041752996E+04  0.25500000000E-02 0.  1.
         -2   -1    0    0    0  501 -0.00000000000E+00 -0.00000000000E+00 -0.67699710131E+01  0.67699714933E+01  0.25500000000E-02 0. -1.
    5000001    1    1    2    0    0 -0.78701793425E+02 -0.43921609112E+02  0.78481229171E+03  0.79371431463E+03  0.77000000000E+02 0.  0.
   -5000001    1    1    2    0    0  0.78701793425E+02  0.43921609112E+02  0.15125930369E+04  0.15172309565E+04  0.77000000000E+02 0.  0.
<mgrwt>
<rscale>  0 0.24979352E+03</rscale>
<asrwt>0</asrwt>
<pdfrwt beam="1">  1        2 0.32916821E+00 0.24979352E+03</pdfrwt>
<pdfrwt beam="2">  1       -2 0.96713783E-03 0.24979352E+03</pdfrwt>
<totfact> 0.14002806E+04</totfact>
</mgrwt>
</event>
<event>
 4    1  0.5562790E-004  0.2564431E+03  0.7818608E-02  0.1109299E+00
         -2   -1    0    0    0  501 -0.00000000000E+00  0.00000000000E+00  0.13428342947E+02  0.13428343189E+02  0.25500000000E-02 0. -1.
          2   -1    0    0  501    0  0.00000000000E+00 -0.00000000000E+00 -0.12243331754E+04  0.12243331754E+04  0.25500000000E-02 0.  1.
    5000001    1    1    2    0    0  0.99340027580E+02  0.20405194703E+02 -0.67816570533E+03  0.69001633092E+03  0.77000000000E+02 0.  0.
   -5000001    1    1    2    0    0 -0.99340027580E+02 -0.20405194703E+02 -0.53273912714E+03  0.54774518769E+03  0.77000000000E+02 0.  0.
<mgrwt>
<rscale>  0 0.25644310E+03</rscale>
<asrwt>0</asrwt>
<pdfrwt beam="1">  1        2 0.17490467E+00 0.25644310E+03</pdfrwt>
<pdfrwt beam="2">  1       -2 0.19183355E-02 0.25644310E+03</pdfrwt>
<totfact> 0.17780896E+04</totfact>
</mgrwt>
</event>
<event>
 4    1  0.5562790E-004  0.2258198E+03  0.7818608E-02  0.1129617E+00
          2   -1    0    0  501    0  0.00000000000E+00  0.00000000000E+00  0.85312974254E+03  0.85312974254E+03  0.25500000000E-02 0.  1.
         -2   -1    0    0    0  501 -0.00000000000E+00 -0.00000000000E+00 -0.14943379480E+02  0.14943379698E+02  0.25500000000E-02 0. -1.
    5000001    1    1    2    0    0 -0.81171509317E+02 -0.60393377472E+00  0.36073592164E+03  0.37768847457E+03  0.77000000000E+02 0.  0.
   -5000001    1    1    2    0    0  0.81171509317E+02  0.60393377472E+00  0.47745044142E+03  0.49038464767E+03  0.77000000000E+02 0.  0.
<mgrwt>
<rscale>  0 0.22581977E+03</rscale>
<asrwt>0</asrwt>
<pdfrwt beam="1">  1        2 0.12187570E+00 0.22581977E+03</pdfrwt>
<pdfrwt beam="2">  1       -2 0.21347681E-02 0.22581977E+03</pdfrwt>
<totfact> 0.24806254E+04</totfact>
</mgrwt>
</event>
<event>
 4    1  0.5562790E-004  0.2872369E+03  0.7818608E-02  0.1091801E+00
          2   -1    0    0  501    0  0.00000000000E+00  0.00000000000E+00  0.13063423179E+03  0.13063423181E+03  0.25500000000E-02 0.  1.
         -2   -1    0    0    0  501 -0.00000000000E+00 -0.00000000000E+00 -0.15789318348E+03  0.15789318350E+03  0.25500000000E-02 0. -1.
    5000001    1    1    2    0    0  0.75273934286E+02 -0.90490961691E+02 -0.42785313034E+02  0.14701823813E+03  0.77000000000E+02 0.  0.
   -5000001    1    1    2    0    0 -0.75273934286E+02  0.90490961691E+02  0.15526361347E+02  0.14150917718E+03  0.77000000000E+02 0.  0.
<mgrwt>
<rscale>  0 0.28723687E+03</rscale>
<asrwt>0</asrwt>
<pdfrwt beam="1">  1        2 0.18662033E-01 0.28723687E+03</pdfrwt>
<pdfrwt beam="2">  1       -2 0.22556169E-01 0.28723687E+03</pdfrwt>
<totfact> 0.51069019E+03</totfact>
</mgrwt>
</event>
<event>
 4    1  0.5562790E-004  0.4295560E+03  0.7818608E-02  0.1034000E+00
          2   -1    0    0  501    0  0.00000000000E+00  0.00000000000E+00  0.32768513587E+04  0.32768513587E+04  0.25500000000E-02 0.  1.
         -2   -1    0    0    0  501 -0.00000000000E+00 -0.00000000000E+00 -0.14077411650E+02  0.14077411881E+02  0.25500000000E-02 0. -1.
    5000001    1    1    2    0    0  0.21789837410E+02  0.18449084132E+03  0.10535390480E+04  0.10725601117E+04  0.77000000000E+02 0.  0.
   -5000001    1    1    2    0    0 -0.21789837410E+02 -0.18449084132E+03  0.22092348991E+04  0.22183686589E+04  0.77000000000E+02 0.  0.
<mgrwt>
<rscale>  0 0.42955598E+03</rscale>
<asrwt>0</asrwt>
<pdfrwt beam="1">  1        2 0.46812210E+00 0.42955598E+03</pdfrwt>
<pdfrwt beam="2">  1       -2 0.20110568E-02 0.42955598E+03</pdfrwt>
<totfact> 0.14766795E+03</totfact>
</mgrwt>
</event>
<event>
 4    1  0.5562790E-004  0.2909235E+03  0.7818608E-02  0.1089868E+00
          2   -1    0    0  501    0  0.00000000000E+00  0.00000000000E+00  0.29215268123E+03  0.29215268124E+03  0.25500000000E-02 0.  1.
         -2   -1    0    0    0  501 -0.00000000000E+00 -0.00000000000E+00 -0.72424859557E+02  0.72424859602E+02  0.25500000000E-02 0. -1.
    5000001    1    1    2    0    0  0.68639281754E+02  0.99058961769E+02  0.14316362957E+03  0.20235823121E+03  0.77000000000E+02 0.  0.
   -5000001    1    1    2    0    0 -0.68639281754E+02 -0.99058961769E+02  0.76564192109E+02  0.16221930964E+03  0.77000000000E+02 0.  0.
<mgrwt>
<rscale>  0 0.29092347E+03</rscale>
<asrwt>0</asrwt>
<pdfrwt beam="1">  1        2 0.41736098E-01 0.29092347E+03</pdfrwt>
<pdfrwt beam="2">  1       -2 0.10346408E-01 0.29092347E+03</pdfrwt>
<totfact> 0.76280782E+03</totfact>
</mgrwt>
</event>
<event>
 4    1  0.5562790E-004  0.2271710E+03  0.7818608E-02  0.1128647E+00
         -2   -1    0    0    0  501 -0.00000000000E+00  0.00000000000E+00  0.25142248999E+02  0.25142249128E+02  0.25500000000E-02 0. -1.
          2   -1    0    0  501    0  0.00000000000E+00 -0.00000000000E+00 -0.51314684576E+03  0.51314684577E+03  0.25500000000E-02 0.  1.
    5000001    1    1    2    0    0 -0.25601976211E+02  0.42088087316E+02 -0.84242414625E+02  0.12430869922E+03  0.77000000000E+02 0.  0.
   -5000001    1    1    2    0    0  0.25601976211E+02 -0.42088087316E+02 -0.40376218214E+03  0.41398039567E+03  0.77000000000E+02 0.  0.
<mgrwt>
<rscale>  0 0.22717100E+03</rscale>
<asrwt>0</asrwt>
<pdfrwt beam="1">  1        2 0.73306686E-01 0.22717100E+03</pdfrwt>
<pdfrwt beam="2">  1       -2 0.35917502E-02 0.22717100E+03</pdfrwt>
<totfact> 0.20822892E+04</totfact>
</mgrwt>
</event>
<event>
 4    1  0.5562790E-004  0.2400995E+03  0.7818608E-02  0.1119727E+00
         -2   -1    0    0    0  501 -0.00000000000E+00  0.00000000000E+00  0.21787402007E+03  0.21787402009E+03  0.25500000000E-02 0. -1.
          2   -1    0    0  501    0  0.00000000000E+00 -0.00000000000E+00 -0.66148065273E+02  0.66148065322E+02  0.25500000000E-02 0.  1.
    5000001    1    1    2    0    0  0.21408058786E+02 -0.55060179967E+02  0.15945066687E+03  0.18666398572E+03  0.77000000000E+02 0.  0.
   -5000001    1    1    2    0    0 -0.21408058786E+02  0.55060179967E+02 -0.77247120709E+01  0.97358099691E+02  0.77000000000E+02 0.  0.
<mgrwt>
<rscale>  0 0.24009952E+03</rscale>
<asrwt>0</asrwt>
<pdfrwt beam="1">  1        2 0.94497237E-02 0.24009952E+03</pdfrwt>
<pdfrwt beam="2">  1       -2 0.31124860E-01 0.24009952E+03</pdfrwt>
<totfact> 0.64751053E+03</totfact>
</mgrwt>
</event>
<event>
 4    1  0.5562790E-004  0.2884088E+03  0.7818608E-02  0.1091183E+00
          2   -1    0    0  501    0  0.00000000000E+00  0.00000000000E+00  0.99695771979E+02  0.99695772012E+02  0.25500000000E-02 0.  1.
         -2   -1    0    0    0  501 -0.00000000000E+00 -0.00000000000E+00 -0.20858369390E+03  0.20858369392E+03  0.25500000000E-02 0. -1.
    5000001    1    1    2    0    0 -0.59929913414E+02  0.90708888384E+02 -0.11343911810E+03  0.17497751418E+03  0.77000000000E+02 0.  0.
   -5000001    1    1    2    0    0  0.59929913414E+02 -0.90708888384E+02  0.45511961757E+01  0.13330195175E+03  0.77000000000E+02 0.  0.
<mgrwt>
<rscale>  0 0.28840882E+03</rscale>
<asrwt>0</asrwt>
<pdfrwt beam="1">  1        2 0.14242253E-01 0.28840882E+03</pdfrwt>
<pdfrwt beam="2">  1       -2 0.29797670E-01 0.28840882E+03</pdfrwt>
<totfact> 0.42790399E+03</totfact>
</mgrwt>
</event>
<event>
 4    1  0.5562790E-004  0.3576739E+03  0.7818608E-02  0.1059509E+00
          2   -1    0    0  501    0  0.00000000000E+00  0.00000000000E+00  0.46242014929E+02  0.46242015000E+02  0.25500000000E-02 0.  1.
         -2   -1    0    0    0  501 -0.00000000000E+00 -0.00000000000E+00 -0.69163607976E+03  0.69163607976E+03  0.25500000000E-02 0. -1.
    5000001    1    1    2    0    0  0.70166586308E+02  0.19659479743E+02 -0.25570390041E+02  0.10905360987E+03  0.77000000000E+02 0.  0.
   -5000001    1    1    2    0    0 -0.70166586308E+02 -0.19659479743E+02 -0.61982367479E+03  0.62882448490E+03  0.77000000000E+02 0.  0.
<mgrwt>
<rscale>  0 0.35767385E+03</rscale>
<asrwt>0</asrwt>
<pdfrwt beam="1">  1        2 0.66060025E-02 0.35767385E+03</pdfrwt>
<pdfrwt beam="2">  1       -2 0.98805148E-01 0.35767385E+03</pdfrwt>
<totfact> 0.96700375E+02</totfact>
</mgrwt>
</event>
<event>
 4    1  0.5562790E-004  0.3345426E+03  0.7818608E-02  0.1069144E+00
          2   -1    0    0  501    0  0.00000000000E+00  0.00000000000E+00  0.47386344548E+02  0.47386344617E+02  0.25500000000E-02 0.  1.
         -2   -1    0    0    0  501 -0.00000000000E+00 -0.00000000000E+00 -0.59045877783E+03  0.59045877783E+03  0.25500000000E-02 0. -1.
    5000001    1    1    2    0    0 -0.14567945321E+03 -0.22686843651E+02 -0.23777844902E+03  0.29018061062E+03  0.77000000000E+02 0.  0.
   -5000001    1    1    2    0    0  0.14567945321E+03  0.22686843651E+02 -0.30529398426E+03  0.34766451183E+03  0.77000000000E+02 0.  0.
<mgrwt>
<rscale>  0 0.33454257E+03</rscale>
<asrwt>0</asrwt>
<pdfrwt beam="1">  1        2 0.67694782E-02 0.33454257E+03</pdfrwt>
<pdfrwt beam="2">  1       -2 0.84351249E-01 0.33454257E+03</pdfrwt>
<totfact> 0.13424116E+03</totfact>
</mgrwt>
</event>
<event>
 4    1  0.5562790E-004  0.2355200E+03  0.7818608E-02  0.1122814E+00
          2   -1    0    0  501    0  0.00000000000E+00  0.00000000000E+00  0.21461147962E+02  0.21461148114E+02  0.25500000000E-02 0.  1.
         -2   -1    0    0    0  501 -0.00000000000E+00 -0.00000000000E+00 -0.64616380139E+03  0.64616380140E+03  0.25500000000E-02 0. -1.
    5000001    1    1    2    0    0 -0.82807942329E+01  0.63638814088E+02 -0.48755105633E+03  0.49774843318E+03  0.77000000000E+02 0.  0.
   -5000001    1    1    2    0    0  0.82807942329E+01 -0.63638814088E+02 -0.13715159711E+03  0.16987651633E+03  0.77000000000E+02 0.  0.
<mgrwt>
<rscale>  0 0.23551999E+03</rscale>
<asrwt>0</asrwt>
<pdfrwt beam="1">  1        2 0.30658787E-02 0.23551999E+03</pdfrwt>
<pdfrwt beam="2">  1       -2 0.92309102E-01 0.23551999E+03</pdfrwt>
<totfact> 0.31074609E+03</totfact>
</mgrwt>
</event>
<event>
 4    1  0.5562790E-004  0.1898231E+03  0.7818608E-02  0.1158621E+00
         -2   -1    0    0    0  501 -0.00000000000E+00  0.00000000000E+00  0.10811831934E+02  0.10811832235E+02  0.25500000000E-02 0. -1.
          2   -1    0    0  501    0  0.00000000000E+00 -0.00000000000E+00 -0.83317968228E+03  0.83317968228E+03  0.25500000000E-02 0.  1.
    5000001    1    1    2    0    0 -0.32211887462E+02 -0.45017193025E+02 -0.42843006379E+03  0.43880003751E+03  0.77000000000E+02 0.  0.
   -5000001    1    1    2    0    0  0.32211887462E+02  0.45017193025E+02 -0.39393778655E+03  0.40519147701E+03  0.77000000000E+02 0.  0.
<mgrwt>
<rscale>  0 0.18982306E+03</rscale>
<asrwt>0</asrwt>
<pdfrwt beam="1">  1        2 0.11902563E+00 0.18982306E+03</pdfrwt>
<pdfrwt beam="2">  1       -2 0.15445480E-02 0.18982306E+03</pdfrwt>
<totfact> 0.40478836E+04</totfact>
</mgrwt>
</event>
<event>
 4    1  0.5562790E-004  0.2072439E+03  0.7818608E-02  0.1143767E+00
          2   -1    0    0  501    0  0.00000000000E+00  0.00000000000E+00  0.13012044703E+04  0.13012044703E+04  0.25500000000E-02 0.  1.
         -2   -1    0    0    0  501 -0.00000000000E+00 -0.00000000000E+00 -0.82519739456E+01  0.82519743396E+01  0.25500000000E-02 0. -1.
    5000001    1    1    2    0    0 -0.42827897972E+02  0.54232583269E+02  0.68282987264E+03  0.69062365794E+03  0.77000000000E+02 0.  0.
   -5000001    1    1    2    0    0  0.42827897972E+02 -0.54232583269E+02  0.61012262370E+03  0.61883278669E+03  0.77000000000E+02 0.  0.
<mgrwt>
<rscale>  0 0.20724387E+03</rscale>
<asrwt>0</asrwt>
<pdfrwt beam="1">  1        2 0.18588626E+00 0.20724387E+03</pdfrwt>
<pdfrwt beam="2">  1       -2 0.11788541E-02 0.20724387E+03</pdfrwt>
<totfact> 0.32550400E+04</totfact>
</mgrwt>
</event>
<event>
 4    1  0.5562790E-004  0.3687962E+03  0.7818608E-02  0.1055154E+00
          2   -1    0    0  501    0  0.00000000000E+00  0.00000000000E+00  0.27954162622E+04  0.27954162622E+04  0.25500000000E-02 0.  1.
         -2   -1    0    0    0  501 -0.00000000000E+00 -0.00000000000E+00 -0.12163719522E+02  0.12163719789E+02  0.25500000000E-02 0. -1.
    5000001    1    1    2    0    0  0.11850617674E+03 -0.97671511323E+02  0.19017547723E+04  0.19094982724E+04  0.77000000000E+02 0.  0.
   -5000001    1    1    2    0    0 -0.11850617674E+03  0.97671511323E+02  0.88149777037E+03  0.89808170965E+03  0.77000000000E+02 0.  0.
<mgrwt>
<rscale>  0 0.36879620E+03</rscale>
<asrwt>0</asrwt>
<pdfrwt beam="1">  1        2 0.39934550E+00 0.36879620E+03</pdfrwt>
<pdfrwt beam="2">  1       -2 0.17376729E-02 0.36879620E+03</pdfrwt>
<totfact> 0.33572037E+03</totfact>
</mgrwt>
</event>
<event>
 4    1  0.5562790E-004  0.1680136E+03  0.7818608E-02  0.1179935E+00
         -2   -1    0    0    0  501 -0.00000000000E+00  0.00000000000E+00  0.91538009501E+03  0.91538009502E+03  0.25500000000E-02 0. -1.
          2   -1    0    0  501    0  0.00000000000E+00 -0.00000000000E+00 -0.77095250186E+01  0.77095254403E+01  0.25500000000E-02 0.  1.
    5000001    1    1    2    0    0  0.25603469349E+02  0.11765508485E+02  0.35339908571E+03  0.36278627125E+03  0.77000000000E+02 0.  0.
   -5000001    1    1    2    0    0 -0.25603469349E+02 -0.11765508485E+02  0.55427148429E+03  0.56030334920E+03  0.77000000000E+02 0.  0.
<mgrwt>
<rscale>  0 0.16801364E+03</rscale>
<asrwt>0</asrwt>
<pdfrwt beam="1">  1        2 0.11013616E-02 0.16801364E+03</pdfrwt>
<pdfrwt beam="2">  1       -2 0.13076848E+00 0.16801364E+03</pdfrwt>
<totfact> 0.54473774E+03</totfact>
</mgrwt>
</event>
<event>
 4    1  0.5562790E-004  0.2766492E+03  0.7818608E-02  0.1097533E+00
          2   -1    0    0  501    0  0.00000000000E+00  0.00000000000E+00  0.10228321685E+04  0.10228321685E+04  0.25500000000E-02 0.  1.
         -2   -1    0    0    0  501 -0.00000000000E+00 -0.00000000000E+00 -0.18706589135E+02  0.18706589309E+02  0.25500000000E-02 0. -1.
    5000001    1    1    2    0    0  0.11047932662E+03 -0.21119843035E+02  0.59059421450E+03  0.60612066091E+03  0.77000000000E+02 0.  0.
   -5000001    1    1    2    0    0 -0.11047932662E+03  0.21119843035E+02  0.41353136483E+03  0.43541809686E+03  0.77000000000E+02 0.  0.
<mgrwt>
<rscale>  0 0.27664925E+03</rscale>
<asrwt>0</asrwt>
<pdfrwt beam="1">  1        2 0.14611892E+00 0.27664925E+03</pdfrwt>
<pdfrwt beam="2">  1       -2 0.26723692E-02 0.27664925E+03</pdfrwt>
<totfact> 0.14171120E+04</totfact>
</mgrwt>
</event>
<event>
 4    1  0.5562790E-004  0.2701721E+03  0.7818608E-02  0.1101181E+00
          2   -1    0    0  501    0  0.00000000000E+00  0.00000000000E+00  0.84115270155E+03  0.84115270156E+03  0.25500000000E-02 0.  1.
         -2   -1    0    0    0  501 -0.00000000000E+00 -0.00000000000E+00 -0.21694331858E+02  0.21694332008E+02  0.25500000000E-02 0. -1.
    5000001    1    1    2    0    0 -0.39124392830E+02 -0.26070433014E+02  0.88626194416E+02  0.12646733937E+03  0.77000000000E+02 0.  0.
   -5000001    1    1    2    0    0  0.39124392830E+02  0.26070433014E+02  0.73083217528E+03  0.73637969419E+03  0.77000000000E+02 0.  0.
<mgrwt>
<rscale>  0 0.27017214E+03</rscale>
<asrwt>0</asrwt>
<pdfrwt beam="1">  1        2 0.12016465E+00 0.27017214E+03</pdfrwt>
<pdfrwt beam="2">  1       -2 0.30991908E-02 0.27017214E+03</pdfrwt>
<totfact> 0.14688598E+04</totfact>
</mgrwt>
</event>
<event>
 4    1  0.5562790E-004  0.2925996E+03  0.7818608E-02  0.1089000E+00
         -2   -1    0    0    0  501 -0.00000000000E+00  0.00000000000E+00  0.83683951754E+02  0.83683951793E+02  0.25500000000E-02 0. -1.
          2   -1    0    0  501    0  0.00000000000E+00 -0.00000000000E+00 -0.25576742457E+03  0.25576742458E+03  0.25500000000E-02 0.  1.
    5000001    1    1    2    0    0  0.89698365184E+02 -0.67807093273E+02 -0.24314600741E+02  0.13843337179E+03  0.77000000000E+02 0.  0.
   -5000001    1    1    2    0    0 -0.89698365184E+02  0.67807093273E+02 -0.14776887207E+03  0.20101800459E+03  0.77000000000E+02 0.  0.
<mgrwt>
<rscale>  0 0.29259958E+03</rscale>
<asrwt>0</asrwt>
<pdfrwt beam="1">  1        2 0.36538203E-01 0.29259958E+03</pdfrwt>
<pdfrwt beam="2">  1       -2 0.11954850E-01 0.29259958E+03</pdfrwt>
<totfact> 0.69855536E+03</totfact>
</mgrwt>
</event>
<event>
 4    1  0.5562790E-004  0.1790244E+03  0.7818608E-02  0.1168751E+00
          2   -1    0    0  501    0  0.00000000000E+00  0.00000000000E+00  0.12731172053E+03  0.12731172056E+03  0.25500000000E-02 0.  1.
         -2   -1    0    0    0  501 -0.00000000000E+00 -0.00000000000E+00 -0.62935578615E+02  0.62935578666E+02  0.25500000000E-02 0. -1.
    5000001    1    1    2    0    0  0.17466658696E+02  0.40740606070E+02  0.43758976066E+02  0.99039028344E+02  0.77000000000E+02 0.  0.
   -5000001    1    1    2    0    0 -0.17466658696E+02 -0.40740606070E+02  0.20617165850E+02  0.91208270879E+02  0.77000000000E+02 0.  0.
<mgrwt>
<rscale>  0 0.17902443E+03</rscale>
<asrwt>0</asrwt>
<pdfrwt beam="1">  1        2 0.18187389E-01 0.17902443E+03</pdfrwt>
<pdfrwt beam="2">  1       -2 0.89907969E-02 0.17902443E+03</pdfrwt>
<totfact> 0.23178750E+04</totfact>
</mgrwt>
</event>
<event>
 4    1  0.5562790E-004  0.2670889E+03  0.7818608E-02  0.1102957E+00
          2   -1    0    0  501    0  0.00000000000E+00  0.00000000000E+00  0.23113482959E+04  0.23113482959E+04  0.25500000000E-02 0.  1.
         -2   -1    0    0    0  501 -0.00000000000E+00 -0.00000000000E+00 -0.77158951498E+01  0.77158955712E+01  0.25500000000E-02 0. -1.
    5000001    1    1    2    0    0  0.10207837526E+03 -0.31956122757E+02  0.13388347137E+04  0.13453061284E+04  0.77000000000E+02 0.  0.
   -5000001    1    1    2    0    0 -0.10207837526E+03  0.31956122757E+02  0.96479768704E+03  0.97375806307E+03  0.77000000000E+02 0.  0.
<mgrwt>
<rscale>  0 0.26708891E+03</rscale>
<asrwt>0</asrwt>
<pdfrwt beam="1">  1        2 0.33019250E+00 0.26708891E+03</pdfrwt>
<pdfrwt beam="2">  1       -2 0.11022711E-02 0.26708891E+03</pdfrwt>
<totfact> 0.11501788E+04</totfact>
</mgrwt>
</event>
<event>
 4    1  0.5562790E-004  0.2246555E+03  0.7818608E-02  0.1130459E+00
          2   -1    0    0  501    0  0.00000000000E+00  0.00000000000E+00  0.17495373320E+04  0.17495373320E+04  0.25500000000E-02 0.  1.
         -2   -1    0    0    0  501 -0.00000000000E+00 -0.00000000000E+00 -0.72119172335E+01  0.72119176844E+01  0.25500000000E-02 0. -1.
    5000001    1    1    2    0    0 -0.44838773226E+00  0.71689710019E+02  0.11789175866E+04  0.11836026747E+04  0.77000000000E+02 0.  0.
   -5000001    1    1    2    0    0  0.44838773226E+00 -0.71689710019E+02  0.56340782821E+03  0.57314657502E+03  0.77000000000E+02 0.  0.
<mgrwt>
<rscale>  0 0.22465546E+03</rscale>
<asrwt>0</asrwt>
<pdfrwt beam="1">  1        2 0.24993383E+00 0.22465546E+03</pdfrwt>
<pdfrwt beam="2">  1       -2 0.10302742E-02 0.22465546E+03</pdfrwt>
<totfact> 0.23693624E+04</totfact>
</mgrwt>
</event>
<event>
 4    1  0.5562790E-004  0.1921995E+03  0.7818608E-02  0.1156492E+00
         -2   -1    0    0    0  501 -0.00000000000E+00  0.00000000000E+00  0.13173746853E+02  0.13173747100E+02  0.25500000000E-02 0. -1.
          2   -1    0    0  501    0  0.00000000000E+00 -0.00000000000E+00 -0.70102804717E+03  0.70102804718E+03  0.25500000000E-02 0.  1.
    5000001    1    1    2    0    0 -0.54001974643E+02 -0.16776958583E+02 -0.38263120495E+03  0.39437712738E+03  0.77000000000E+02 0.  0.
   -5000001    1    1    2    0    0  0.54001974643E+02  0.16776958583E+02 -0.30522309537E+03  0.31982466689E+03  0.77000000000E+02 0.  0.
<mgrwt>
<rscale>  0 0.19219954E+03</rscale>
<asrwt>0</asrwt>
<pdfrwt beam="1">  1        2 0.10014684E+00 0.19219954E+03</pdfrwt>
<pdfrwt beam="2">  1       -2 0.18819643E-02 0.19219954E+03</pdfrwt>
<totfact> 0.37438062E+04</totfact>
</mgrwt>
</event>
<event>
 4    1  0.5562790E-004  0.1640947E+03  0.7818608E-02  0.1184150E+00
         -2   -1    0    0    0  501 -0.00000000000E+00  0.00000000000E+00  0.29691493320E+03  0.29691493321E+03  0.25500000000E-02 0. -1.
          2   -1    0    0  501    0  0.00000000000E+00 -0.00000000000E+00 -0.22672383858E+02  0.22672384001E+02  0.25500000000E-02 0.  1.
    5000001    1    1    2    0    0  0.27809639396E+02  0.47604489920E+01  0.13206827706E+03  0.15545760748E+03  0.77000000000E+02 0.  0.
   -5000001    1    1    2    0    0 -0.27809639396E+02 -0.47604489920E+01  0.14217427228E+03  0.16412970973E+03  0.77000000000E+02 0.  0.
<mgrwt>
<rscale>  0 0.16409472E+03</rscale>
<asrwt>0</asrwt>
<pdfrwt beam="1">  1        2 0.32389122E-02 0.16409472E+03</pdfrwt>
<pdfrwt beam="2">  1       -2 0.42416417E-01 0.16409472E+03</pdfrwt>
<totfact> 0.14246624E+04</totfact>
</mgrwt>
</event>
<event>
 4    1  0.5562790E-004  0.2604794E+03  0.7818608E-02  0.1106856E+00
          2   -1    0    0  501    0  0.00000000000E+00  0.00000000000E+00  0.29162900302E+04  0.29162900302E+04  0.25500000000E-02 0.  1.
         -2   -1    0    0    0  501 -0.00000000000E+00 -0.00000000000E+00 -0.58164231902E+01  0.58164237492E+01  0.25500000000E-02 0. -1.
    5000001    1    1    2    0    0  0.10614132609E+02 -0.65980482499E+02  0.23643456799E+04  0.23665429592E+04  0.77000000000E+02 0.  0.
   -5000001    1    1    2    0    0 -0.10614132609E+02  0.65980482499E+02  0.54612792711E+03  0.55556349471E+03  0.77000000000E+02 0.  0.
<mgrwt>
<rscale>  0 0.26047939E+03</rscale>
<asrwt>0</asrwt>
<pdfrwt beam="1">  1        2 0.41661291E+00 0.26047939E+03</pdfrwt>
<pdfrwt beam="2">  1       -2 0.83091754E-03 0.26047939E+03</pdfrwt>
<totfact> 0.85740563E+03</totfact>
</mgrwt>
</event>
<event>
 4    1  0.5562790E-004  0.2370752E+03  0.7818608E-02  0.1121757E+00
          2   -1    0    0  501    0  0.00000000000E+00  0.00000000000E+00  0.90612748592E+03  0.90612748592E+03  0.25500000000E-02 0.  1.
         -2   -1    0    0    0  501 -0.00000000000E+00 -0.00000000000E+00 -0.15506826678E+02  0.15506826888E+02  0.25500000000E-02 0. -1.
    5000001    1    1    2    0    0 -0.98025467519E+01 -0.89583079660E+02  0.44908720283E+03  0.46446693513E+03  0.77000000000E+02 0.  0.
   -5000001    1    1    2    0    0  0.98025467519E+01  0.89583079660E+02  0.44153345641E+03  0.45716737768E+03  0.77000000000E+02 0.  0.
<mgrwt>
<rscale>  0 0.23707519E+03</rscale>
<asrwt>0</asrwt>
<pdfrwt beam="1">  1        2 0.12944679E+00 0.23707519E+03</pdfrwt>
<pdfrwt beam="2">  1       -2 0.22152609E-02 0.23707519E+03</pdfrwt>
<totfact> 0.21814886E+04</totfact>
</mgrwt>
</event>
<event>
 4    1  0.5562790E-004  0.3078684E+03  0.7818608E-02  0.1081372E+00
          2   -1    0    0  501    0  0.00000000000E+00  0.00000000000E+00  0.10574108361E+04  0.10574108361E+04  0.25500000000E-02 0.  1.
         -2   -1    0    0    0  501 -0.00000000000E+00 -0.00000000000E+00 -0.22409204841E+02  0.22409204986E+02  0.25500000000E-02 0. -1.
    5000001    1    1    2    0    0 -0.37571369531E-01  0.91559553802E+02  0.85725955054E+03  0.86556691844E+03  0.77000000000E+02 0.  0.
   -5000001    1    1    2    0    0  0.37571369531E-01 -0.91559553802E+02  0.17774208067E+03  0.21425312261E+03  0.77000000000E+02 0.  0.
<mgrwt>
<rscale>  0 0.30786839E+03</rscale>
<asrwt>0</asrwt>
<pdfrwt beam="1">  1        2 0.15105872E+00 0.30786839E+03</pdfrwt>
<pdfrwt beam="2">  1       -2 0.32013143E-02 0.30786839E+03</pdfrwt>
<totfact> 0.10375900E+04</totfact>
</mgrwt>
</event>
<event>
 4    1  0.5562790E-004  0.2518890E+03  0.7818608E-02  0.1112117E+00
         -2   -1    0    0    0  501 -0.00000000000E+00  0.00000000000E+00  0.40433088343E+02  0.40433088424E+02  0.25500000000E-02 0. -1.
          2   -1    0    0  501    0  0.00000000000E+00 -0.00000000000E+00 -0.39230301407E+03  0.39230301407E+03  0.25500000000E-02 0.  1.
    5000001    1    1    2    0    0 -0.65046965900E+02 -0.16230388842E+02 -0.49241855893E+02  0.11335031392E+03  0.77000000000E+02 0.  0.
   -5000001    1    1    2    0    0  0.65046965900E+02  0.16230388842E+02 -0.30262806983E+03  0.31938578858E+03  0.77000000000E+02 0.  0.
<mgrwt>
<rscale>  0 0.25188904E+03</rscale>
<asrwt>0</asrwt>
<pdfrwt beam="1">  1        2 0.56043285E-01 0.25188904E+03</pdfrwt>
<pdfrwt beam="2">  1       -2 0.57761557E-02 0.25188904E+03</pdfrwt>
<totfact> 0.13697358E+04</totfact>
</mgrwt>
</event>
<event>
 4    1  0.5562790E-004  0.3231767E+03  0.7818608E-02  0.1074196E+00
          2   -1    0    0  501    0  0.00000000000E+00  0.00000000000E+00  0.57017638128E+03  0.57017638129E+03  0.25500000000E-02 0.  1.
         -2   -1    0    0    0  501 -0.00000000000E+00 -0.00000000000E+00 -0.45794247726E+02  0.45794247797E+02  0.25500000000E-02 0. -1.
    5000001    1    1    2    0    0 -0.73386291599E+02  0.12062982276E+03  0.29200600054E+03  0.33336707438E+03  0.77000000000E+02 0.  0.
   -5000001    1    1    2    0    0  0.73386291599E+02 -0.12062982276E+03  0.23237613302E+03  0.28260355470E+03  0.77000000000E+02 0.  0.
<mgrwt>
<rscale>  0 0.32317672E+03</rscale>
<asrwt>0</asrwt>
<pdfrwt beam="1">  1        2 0.81453760E-01 0.32317672E+03</pdfrwt>
<pdfrwt beam="2">  1       -2 0.65420361E-02 0.32317672E+03</pdfrwt>
<totfact> 0.75660669E+03</totfact>
</mgrwt>
</event>
<event>
 4    1  0.5562790E-004  0.2924816E+03  0.7818608E-02  0.1089061E+00
          2   -1    0    0  501    0  0.00000000000E+00  0.00000000000E+00  0.17500534031E+03  0.17500534033E+03  0.25500000000E-02 0.  1.
         -2   -1    0    0    0  501 -0.00000000000E+00 -0.00000000000E+00 -0.12220411046E+03  0.12220411049E+03  0.25500000000E-02 0. -1.
    5000001    1    1    2    0    0 -0.85946944383E+02  0.89751859381E+02  0.22452134240E+02  0.14790325163E+03  0.77000000000E+02 0.  0.
   -5000001    1    1    2    0    0  0.85946944383E+02 -0.89751859381E+02  0.30349095612E+02  0.14930619919E+03  0.77000000000E+02 0.  0.
<mgrwt>
<rscale>  0 0.29248160E+03</rscale>
<asrwt>0</asrwt>
<pdfrwt beam="1">  1        2 0.25000763E-01 0.29248160E+03</pdfrwt>
<pdfrwt beam="2">  1       -2 0.17457730E-01 0.29248160E+03</pdfrwt>
<totfact> 0.56808895E+03</totfact>
</mgrwt>
</event>
<event>
 4    1  0.5562790E-004  0.2095095E+03  0.7818608E-02  0.1141955E+00
          2   -1    0    0  501    0  0.00000000000E+00  0.00000000000E+00  0.21565693874E+04  0.21565693874E+04  0.25500000000E-02 0.  1.
         -2   -1    0    0    0  501 -0.00000000000E+00 -0.00000000000E+00 -0.50884339100E+01  0.50884345489E+01  0.25500000000E-02 0. -1.
    5000001    1    1    2    0    0 -0.20386670977E+02 -0.64167865784E+02  0.84240739809E+03  0.84859434108E+03  0.77000000000E+02 0.  0.
   -5000001    1    1    2    0    0  0.20386670977E+02  0.64167865784E+02  0.13090735554E+04  0.13130634808E+04  0.77000000000E+02 0.  0.
<mgrwt>
<rscale>  0 0.20950954E+03</rscale>
<asrwt>0</asrwt>
<pdfrwt beam="1">  1        2 0.30808147E+00 0.20950954E+03</pdfrwt>
<pdfrwt beam="2">  1       -2 0.72691888E-03 0.20950954E+03</pdfrwt>
<totfact> 0.24810116E+04</totfact>
</mgrwt>
</event>
<event>
 4    1  0.5562790E-004  0.1704030E+03  0.7818608E-02  0.1177428E+00
         -2   -1    0    0    0  501 -0.00000000000E+00  0.00000000000E+00  0.53445361302E+02  0.53445361363E+02  0.25500000000E-02 0. -1.
          2   -1    0    0  501    0  0.00000000000E+00 -0.00000000000E+00 -0.13582653472E+03  0.13582653475E+03  0.25500000000E-02 0.  1.
    5000001    1    1    2    0    0 -0.16895688678E+02 -0.19619369641E+02 -0.69723924489E+02  0.10705517086E+03  0.77000000000E+02 0.  0.
   -5000001    1    1    2    0    0  0.16895688678E+02  0.19619369641E+02 -0.12657248934E+02  0.82216725255E+02  0.77000000000E+02 0.  0.
<mgrwt>
<rscale>  0 0.17040303E+03</rscale>
<asrwt>0</asrwt>
<pdfrwt beam="1">  1        2 0.19403790E-01 0.17040303E+03</pdfrwt>
<pdfrwt beam="2">  1       -2 0.76350517E-02 0.17040303E+03</pdfrwt>
<totfact> 0.27628298E+04</totfact>
</mgrwt>
</event>
<event>
 4    1  0.5562790E-004  0.3238464E+03  0.7818608E-02  0.1073893E+00
          2   -1    0    0  501    0  0.00000000000E+00  0.00000000000E+00  0.78860938905E+03  0.78860938905E+03  0.25500000000E-02 0.  1.
         -2   -1    0    0    0  501 -0.00000000000E+00 -0.00000000000E+00 -0.33247280118E+02  0.33247280216E+02  0.25500000000E-02 0. -1.
    5000001    1    1    2    0    0  0.48661502683E+02  0.50429299074E+02  0.69239933381E+03  0.70018347132E+03  0.77000000000E+02 0.  0.
   -5000001    1    1    2    0    0 -0.48661502683E+02 -0.50429299074E+02  0.62962775121E+02  0.12167319795E+03  0.77000000000E+02 0.  0.
<mgrwt>
<rscale>  0 0.32384637E+03</rscale>
<asrwt>0</asrwt>
<pdfrwt beam="1">  1        2 0.11265849E+00 0.32384637E+03</pdfrwt>
<pdfrwt beam="2">  1       -2 0.47496113E-02 0.32384637E+03</pdfrwt>
<totfact> 0.84272284E+03</totfact>
</mgrwt>
</event>
<event>
 4    1  0.5562790E-004  0.3700475E+03  0.7818608E-02  0.1054675E+00
          2   -1    0    0  501    0  0.00000000000E+00  0.00000000000E+00  0.11470404504E+04  0.11470404504E+04  0.25500000000E-02 0.  1.
         -2   -1    0    0    0  501 -0.00000000000E+00 -0.00000000000E+00 -0.29845320888E+02  0.29845320997E+02  0.25500000000E-02 0. -1.
    5000001    1    1    2    0    0  0.77926479425E+02  0.14651663501E+03  0.64656955058E+03  0.67195300749E+03  0.77000000000E+02 0.  0.
   -5000001    1    1    2    0    0 -0.77926479425E+02 -0.14651663501E+03  0.47062557890E+03  0.50493276389E+03  0.77000000000E+02 0.  0.
<mgrwt>
<rscale>  0 0.37004751E+03</rscale>
<asrwt>0</asrwt>
<pdfrwt beam="1">  1        2 0.16386293E+00 0.37004751E+03</pdfrwt>
<pdfrwt beam="2">  1       -2 0.42636171E-02 0.37004751E+03</pdfrwt>
<totfact> 0.60135789E+03</totfact>
</mgrwt>
</event>
<event>
 4    1  0.5562790E-004  0.2622997E+03  0.7818608E-02  0.1105769E+00
          2   -1    0    0  501    0  0.00000000000E+00  0.00000000000E+00  0.15980556955E+04  0.15980556955E+04  0.25500000000E-02 0.  1.
         -2   -1    0    0    0  501 -0.00000000000E+00 -0.00000000000E+00 -0.10763260208E+02  0.10763260510E+02  0.25500000000E-02 0. -1.
    5000001    1    1    2    0    0 -0.90011575191E+02 -0.11226522680E+02  0.11320011267E+04  0.11382370883E+04  0.77000000000E+02 0.  0.
   -5000001    1    1    2    0    0  0.90011575191E+02  0.11226522680E+02  0.45529130860E+03  0.47058186766E+03  0.77000000000E+02 0.  0.
<mgrwt>
<rscale>  0 0.26229975E+03</rscale>
<asrwt>0</asrwt>
<pdfrwt beam="1">  1        2 0.22829386E+00 0.26229975E+03</pdfrwt>
<pdfrwt beam="2">  1       -2 0.15376073E-02 0.26229975E+03</pdfrwt>
<totfact> 0.15811473E+04</totfact>
</mgrwt>
</event>
<event>
 4    1  0.5562790E-004  0.2052541E+03  0.7818608E-02  0.1145380E+00
          2   -1    0    0  501    0  0.00000000000E+00  0.00000000000E+00  0.10127637464E+04  0.10127637464E+04  0.25500000000E-02 0.  1.
         -2   -1    0    0    0  501 -0.00000000000E+00 -0.00000000000E+00 -0.10399572644E+02  0.10399572956E+02  0.25500000000E-02 0. -1.
    5000001    1    1    2    0    0 -0.52201416411E+02 -0.28284507450E+02  0.33749109748E+03  0.35121822577E+03  0.77000000000E+02 0.  0.
   -5000001    1    1    2    0    0  0.52201416411E+02  0.28284507450E+02  0.66487307626E+03  0.67194509357E+03  0.77000000000E+02 0.  0.
<mgrwt>
<rscale>  0 0.20525409E+03</rscale>
<asrwt>0</asrwt>
<pdfrwt beam="1">  1        2 0.14468037E+00 0.20525409E+03</pdfrwt>
<pdfrwt beam="2">  1       -2 0.14856550E-02 0.20525409E+03</pdfrwt>
<totfact> 0.33458716E+04</totfact>
</mgrwt>
</event>
<event>
 4    1  0.5562790E-004  0.2258710E+03  0.7818608E-02  0.1129580E+00
          2   -1    0    0  501    0  0.00000000000E+00  0.00000000000E+00  0.39359488774E+04  0.39359488774E+04  0.25500000000E-02 0.  1.
         -2   -1    0    0    0  501 -0.00000000000E+00 -0.00000000000E+00 -0.32404962404E+01  0.32404972437E+01  0.25500000000E-02 0. -1.
    5000001    1    1    2    0    0  0.22344876290E+02 -0.78034144050E+02  0.22347309356E+04  0.22375298827E+04  0.77000000000E+02 0.  0.
   -5000001    1    1    2    0    0 -0.22344876290E+02  0.78034144050E+02  0.16979774455E+04  0.17016594920E+04  0.77000000000E+02 0.  0.
<mgrwt>
<rscale>  0 0.22587102E+03</rscale>
<asrwt>0</asrwt>
<pdfrwt beam="1">  1        2 0.56227853E+00 0.22587102E+03</pdfrwt>
<pdfrwt beam="2">  1       -2 0.46292801E-03 0.22587102E+03</pdfrwt>
<totfact> 0.51959997E+03</totfact>
</mgrwt>
</event>
<event>
 4    1  0.5562790E-004  0.2642319E+03  0.7818608E-02  0.1104627E+00
          2   -1    0    0  501    0  0.00000000000E+00  0.00000000000E+00  0.15662803736E+04  0.15662803736E+04  0.25500000000E-02 0.  1.
         -2   -1    0    0    0  501 -0.00000000000E+00 -0.00000000000E+00 -0.11143999971E+02  0.11144000262E+02  0.25500000000E-02 0. -1.
    5000001    1    1    2    0    0  0.92902168481E+02  0.46906277974E+02  0.93490701116E+03  0.94382791405E+03  0.77000000000E+02 0.  0.
   -5000001    1    1    2    0    0 -0.92902168481E+02 -0.46906277974E+02  0.62022936249E+03  0.63359645983E+03  0.77000000000E+02 0.  0.
<mgrwt>
<rscale>  0 0.26423193E+03</rscale>
<asrwt>0</asrwt>
<pdfrwt beam="1">  1        2 0.22375426E+00 0.26423193E+03</pdfrwt>
<pdfrwt beam="2">  1       -2 0.15920006E-02 0.26423193E+03</pdfrwt>
<totfact> 0.15589705E+04</totfact>
</mgrwt>
</event>
<event>
 4    1  0.5562790E-004  0.3822975E+03  0.7818608E-02  0.1050088E+00
         -2   -1    0    0    0  501 -0.00000000000E+00  0.00000000000E+00  0.28475414751E+02  0.28475414865E+02  0.25500000000E-02 0. -1.
          2   -1    0    0  501    0  0.00000000000E+00 -0.00000000000E+00 -0.12831364009E+04  0.12831364009E+04  0.25500000000E-02 0.  1.
    5000001    1    1    2    0    0  0.99401625984E+02 -0.14171233477E+03 -0.54014513524E+03  0.57240618113E+03  0.77000000000E+02 0.  0.
   -5000001    1    1    2    0    0 -0.99401625984E+02  0.14171233477E+03 -0.71451585089E+03  0.73920563461E+03  0.77000000000E+02 0.  0.
<mgrwt>
<rscale>  0 0.38229748E+03</rscale>
<asrwt>0</asrwt>
<pdfrwt beam="1">  1        2 0.18330516E+00 0.38229748E+03</pdfrwt>
<pdfrwt beam="2">  1       -2 0.40679172E-02 0.38229748E+03</pdfrwt>
<totfact> 0.54425032E+03</totfact>
</mgrwt>
</event>
<event>
 4    1  0.5562790E-004  0.1823014E+03  0.7818608E-02  0.1165594E+00
          2   -1    0    0  501    0  0.00000000000E+00  0.00000000000E+00  0.38459087752E+02  0.38459087837E+02  0.25500000000E-02 0.  1.
         -2   -1    0    0    0  501 -0.00000000000E+00 -0.00000000000E+00 -0.21603346242E+03  0.21603346244E+03  0.25500000000E-02 0. -1.
    5000001    1    1    2    0    0  0.45048753448E+02  0.11391146962E+01 -0.62716664719E+02  0.10905534284E+03  0.77000000000E+02 0.  0.
   -5000001    1    1    2    0    0 -0.45048753448E+02 -0.11391146962E+01 -0.11485770995E+03  0.14543720743E+03  0.77000000000E+02 0.  0.
<mgrwt>
<rscale>  0 0.18230140E+03</rscale>
<asrwt>0</asrwt>
<pdfrwt beam="1">  1        2 0.54941555E-02 0.18230140E+03</pdfrwt>
<pdfrwt beam="2">  1       -2 0.30861923E-01 0.18230140E+03</pdfrwt>
<totfact> 0.12911776E+04</totfact>
</mgrwt>
</event>
<event>
 4    1  0.5562790E-004  0.8928543E+03  0.7818608E-02  0.9434558E-01
         -2   -1    0    0    0  501 -0.00000000000E+00  0.00000000000E+00  0.24906776018E+03  0.24906776019E+03  0.25500000000E-02 0. -1.
          2   -1    0    0  501    0  0.00000000000E+00 -0.00000000000E+00 -0.80017254738E+03  0.80017254739E+03  0.25500000000E-02 0.  1.
    5000001    1    1    2    0    0  0.25248449156E+03  0.35115765089E+03 -0.36888698645E+03  0.57364337617E+03  0.77000000000E+02 0.  0.
   -5000001    1    1    2    0    0 -0.25248449156E+03 -0.35115765089E+03 -0.18221780075E+03  0.47559693141E+03  0.77000000000E+02 0.  0.
<mgrwt>
<rscale>  0 0.89285426E+03</rscale>
<asrwt>0</asrwt>
<pdfrwt beam="1">  1        2 0.11431036E+00 0.89285426E+03</pdfrwt>
<pdfrwt beam="2">  1       -2 0.35581109E-01 0.89285426E+03</pdfrwt>
<totfact> 0.28229023E+02</totfact>
</mgrwt>
</event>
<event>
 4    1  0.5562790E-004  0.1688707E+03  0.7818608E-02  0.1179031E+00
          2   -1    0    0  501    0  0.00000000000E+00  0.00000000000E+00  0.19750485779E+03  0.19750485780E+03  0.25500000000E-02 0.  1.
         -2   -1    0    0    0  501 -0.00000000000E+00 -0.00000000000E+00 -0.36096966322E+02  0.36096966412E+02  0.25500000000E-02 0. -1.
    5000001    1    1    2    0    0  0.26152164011E+02  0.22707310451E+02  0.79491207449E+02  0.11596296690E+03  0.77000000000E+02 0.  0.
   -5000001    1    1    2    0    0 -0.26152164011E+02 -0.22707310451E+02  0.81916684017E+02  0.11763885732E+03  0.77000000000E+02 0.  0.
<mgrwt>
<rscale>  0 0.16887067E+03</rscale>
<asrwt>0</asrwt>
<pdfrwt beam="1">  1        2 0.28214980E-01 0.16887067E+03</pdfrwt>
<pdfrwt beam="2">  1       -2 0.51567094E-02 0.16887067E+03</pdfrwt>
<totfact> 0.33091646E+04</totfact>
</mgrwt>
</event>
<event>
 4    1  0.5562790E-004  0.2877824E+03  0.7818608E-02  0.1091513E+00
          2   -1    0    0  501    0  0.00000000000E+00  0.00000000000E+00  0.10360583142E+03  0.10360583145E+03  0.25500000000E-02 0.  1.
         -2   -1    0    0    0  501 -0.00000000000E+00 -0.00000000000E+00 -0.19984086176E+03  0.19984086178E+03  0.25500000000E-02 0. -1.
    5000001    1    1    2    0    0  0.10558452619E+03  0.24807178508E+02  0.97532698926E+01  0.13337021613E+03  0.77000000000E+02 0.  0.
   -5000001    1    1    2    0    0 -0.10558452619E+03 -0.24807178508E+02 -0.10598830024E+03  0.17007647710E+03  0.77000000000E+02 0.  0.
<mgrwt>
<rscale>  0 0.28778241E+03</rscale>
<asrwt>0</asrwt>
<pdfrwt beam="1">  1        2 0.14800833E-01 0.28778241E+03</pdfrwt>
<pdfrwt beam="2">  1       -2 0.28548695E-01 0.28778241E+03</pdfrwt>
<totfact> 0.44163166E+03</totfact>
</mgrwt>
</event>
<event>
 4    1  0.5562790E-004  0.1822542E+03  0.7818608E-02  0.1165639E+00
         -2   -1    0    0    0  501 -0.00000000000E+00  0.00000000000E+00  0.60679199498E+01  0.60679204856E+01  0.25500000000E-02 0. -1.
          2   -1    0    0  501    0  0.00000000000E+00 -0.00000000000E+00 -0.13685324863E+04  0.13685324863E+04  0.25500000000E-02 0.  1.
    5000001    1    1    2    0    0  0.26393253838E+02  0.14349961392E+02 -0.39180168844E+03  0.40042488472E+03  0.77000000000E+02 0.  0.
   -5000001    1    1    2    0    0 -0.26393253838E+02 -0.14349961392E+02 -0.97066287795E+03  0.97417552211E+03  0.77000000000E+02 0.  0.
<mgrwt>
<rscale>  0 0.18225417E+03</rscale>
<asrwt>0</asrwt>
<pdfrwt beam="1">  1        2 0.19550444E+00 0.18225417E+03</pdfrwt>
<pdfrwt beam="2">  1       -2 0.86684662E-03 0.18225417E+03</pdfrwt>
<totfact> 0.46390935E+04</totfact>
</mgrwt>
</event>
<event>
 4    1  0.5562790E-004  0.2719757E+03  0.7818608E-02  0.1100154E+00
         -2   -1    0    0    0  501 -0.00000000000E+00  0.00000000000E+00  0.65814538645E+02  0.65814538694E+02  0.25500000000E-02 0. -1.
          2   -1    0    0  501    0  0.00000000000E+00 -0.00000000000E+00 -0.28098196673E+03  0.28098196674E+03  0.25500000000E-02 0.  1.
    5000001    1    1    2    0    0 -0.10526320502E+03 -0.40474739282E+01 -0.15642148139E+03  0.20369929851E+03  0.77000000000E+02 0.  0.
   -5000001    1    1    2    0    0  0.10526320502E+03  0.40474739282E+01 -0.58745946700E+02  0.14309720692E+03  0.77000000000E+02 0.  0.
<mgrwt>
<rscale>  0 0.27197572E+03</rscale>
<asrwt>0</asrwt>
<pdfrwt beam="1">  1        2 0.40140281E-01 0.27197572E+03</pdfrwt>
<pdfrwt beam="2">  1       -2 0.94020771E-02 0.27197572E+03</pdfrwt>
<totfact> 0.92367271E+03</totfact>
</mgrwt>
</event>
<event>
 4    1  0.5562790E-004  0.2497710E+03  0.7818608E-02  0.1113450E+00
          2   -1    0    0  501    0  0.00000000000E+00  0.00000000000E+00  0.30210535099E+03  0.30210535100E+03  0.25500000000E-02 0.  1.
         -2   -1    0    0    0  501 -0.00000000000E+00 -0.00000000000E+00 -0.51625657173E+02  0.51625657236E+02  0.25500000000E-02 0. -1.
    5000001    1    1    2    0    0 -0.67136316822E+02  0.64306465019E+02  0.17057620434E+03  0.20896853344E+03  0.77000000000E+02 0.  0.
   -5000001    1    1    2    0    0  0.67136316822E+02 -0.64306465019E+02  0.79903489477E+02  0.14476247480E+03  0.77000000000E+02 0.  0.
<mgrwt>
<rscale>  0 0.24977099E+03</rscale>
<asrwt>0</asrwt>
<pdfrwt beam="1">  1        2 0.43157908E-01 0.24977099E+03</pdfrwt>
<pdfrwt beam="2">  1       -2 0.73750937E-02 0.24977099E+03</pdfrwt>
<totfact> 0.12445335E+04</totfact>
</mgrwt>
</event>
<event>
 4    1  0.5562790E-004  0.2616993E+03  0.7818608E-02  0.1106127E+00
         -2   -1    0    0    0  501 -0.00000000000E+00  0.00000000000E+00  0.54497728034E+01  0.54497734000E+01  0.25500000000E-02 0. -1.
          2   -1    0    0  501    0  0.00000000000E+00 -0.00000000000E+00 -0.31417138936E+04  0.31417138936E+04  0.25500000000E-02 0.  1.
    5000001    1    1    2    0    0  0.10170642981E+02 -0.10196549809E+03 -0.18845345182E+04  0.18888884972E+04  0.77000000000E+02 0.  0.
   -5000001    1    1    2    0    0 -0.10170642981E+02  0.10196549809E+03 -0.12517296026E+04  0.12582751698E+04  0.77000000000E+02 0.  0.
<mgrwt>
<rscale>  0 0.26169928E+03</rscale>
<asrwt>0</asrwt>
<pdfrwt beam="1">  1        2 0.44881511E+00 0.26169928E+03</pdfrwt>
<pdfrwt beam="2">  1       -2 0.77854103E-03 0.26169928E+03</pdfrwt>
<totfact> 0.71484102E+03</totfact>
</mgrwt>
</event>
<event>
 4    1  0.5562790E-004  0.3875098E+03  0.7818608E-02  0.1048192E+00
          2   -1    0    0  501    0  0.00000000000E+00  0.00000000000E+00  0.32894531138E+04  0.32894531138E+04  0.25500000000E-02 0.  1.
         -2   -1    0    0    0  501 -0.00000000000E+00 -0.00000000000E+00 -0.11412524426E+02  0.11412524710E+02  0.25500000000E-02 0. -1.
    5000001    1    1    2    0    0  0.16935883280E+03 -0.51659534157E+02  0.15014468744E+04  0.15138107010E+04  0.77000000000E+02 0.  0.
   -5000001    1    1    2    0    0 -0.16935883280E+03  0.51659534157E+02  0.17765937149E+04  0.17870549375E+04  0.77000000000E+02 0.  0.
<mgrwt>
<rscale>  0 0.38750982E+03</rscale>
<asrwt>0</asrwt>
<pdfrwt beam="1">  1        2 0.46992189E+00 0.38750982E+03</pdfrwt>
<pdfrwt beam="2">  1       -2 0.16303606E-02 0.38750982E+03</pdfrwt>
<totfact> 0.19925264E+03</totfact>
</mgrwt>
</event>
<event>
 4    1  0.5562790E-004  0.2723617E+03  0.7818608E-02  0.1099936E+00
         -2   -1    0    0    0  501 -0.00000000000E+00  0.00000000000E+00  0.18246818868E+03  0.18246818870E+03  0.25500000000E-02 0. -1.
          2   -1    0    0  501    0  0.00000000000E+00 -0.00000000000E+00 -0.10163537179E+03  0.10163537182E+03  0.25500000000E-02 0.  1.
    5000001    1    1    2    0    0 -0.34279213504E+02 -0.88605326219E+02 -0.22085494613E+02  0.12426881099E+03  0.77000000000E+02 0.  0.
   -5000001    1    1    2    0    0  0.34279213504E+02  0.88605326219E+02  0.10291831151E+03  0.15983474953E+03  0.77000000000E+02 0.  0.
<mgrwt>
<rscale>  0 0.27236169E+03</rscale>
<asrwt>0</asrwt>
<pdfrwt beam="1">  1        2 0.14519339E-01 0.27236169E+03</pdfrwt>
<pdfrwt beam="2">  1       -2 0.26066884E-01 0.27236169E+03</pdfrwt>
<totfact> 0.53064488E+03</totfact>
</mgrwt>
</event>
<event>
 4    1  0.5562790E-004  0.2006655E+03  0.7818608E-02  0.1149179E+00
         -2   -1    0    0    0  501 -0.00000000000E+00  0.00000000000E+00  0.57984015425E+01  0.57984021033E+01  0.25500000000E-02 0. -1.
          2   -1    0    0  501    0  0.00000000000E+00 -0.00000000000E+00 -0.17361088016E+04  0.17361088016E+04  0.25500000000E-02 0.  1.
    5000001    1    1    2    0    0  0.36733523392E+02  0.46627174956E+02 -0.10802903047E+04  0.10846564376E+04  0.77000000000E+02 0.  0.
   -5000001    1    1    2    0    0 -0.36733523392E+02 -0.46627174956E+02 -0.65002009533E+03  0.65725076609E+03  0.77000000000E+02 0.  0.
<mgrwt>
<rscale>  0 0.20066546E+03</rscale>
<asrwt>0</asrwt>
<pdfrwt beam="1">  1        2 0.24801521E+00 0.20066546E+03</pdfrwt>
<pdfrwt beam="2">  1       -2 0.82834422E-03 0.20066546E+03</pdfrwt>
<totfact> 0.32758990E+04</totfact>
</mgrwt>
</event>
<event>
 4    1  0.5562790E-004  0.1636656E+03  0.7818608E-02  0.1184619E+00
         -2   -1    0    0    0  501 -0.00000000000E+00  0.00000000000E+00  0.56085822574E+01  0.56085828371E+01  0.25500000000E-02 0. -1.
          2   -1    0    0  501    0  0.00000000000E+00 -0.00000000000E+00 -0.11939930858E+04  0.11939930858E+04  0.25500000000E-02 0.  1.
    5000001    1    1    2    0    0  0.60916034943E+01 -0.26095193073E+02 -0.54260212520E+03  0.54869311368E+03  0.77000000000E+02 0.  0.
   -5000001    1    1    2    0    0 -0.60916034943E+01  0.26095193073E+02 -0.64578237835E+03  0.65090855496E+03  0.77000000000E+02 0.  0.
<mgrwt>
<rscale>  0 0.16366562E+03</rscale>
<asrwt>0</asrwt>
<pdfrwt beam="1">  1        2 0.17057028E+00 0.16366562E+03</pdfrwt>
<pdfrwt beam="2">  1       -2 0.80122684E-03 0.16366562E+03</pdfrwt>
<totfact> 0.63459700E+04</totfact>
</mgrwt>
</event>
<event>
 4    1  0.5562790E-004  0.2096081E+03  0.7818608E-02  0.1141877E+00
          2   -1    0    0  501    0  0.00000000000E+00  0.00000000000E+00  0.23885092476E+03  0.23885092477E+03  0.25500000000E-02 0.  1.
         -2   -1    0    0    0  501 -0.00000000000E+00 -0.00000000000E+00 -0.45986380110E+02  0.45986380181E+02  0.25500000000E-02 0. -1.
    5000001    1    1    2    0    0 -0.41266782404E+02 -0.44879412496E+02  0.14613511356E+03  0.17607265662E+03  0.77000000000E+02 0.  0.
   -5000001    1    1    2    0    0  0.41266782404E+02  0.44879412496E+02  0.46729431088E+02  0.10876464833E+03  0.77000000000E+02 0.  0.
<mgrwt>
<rscale>  0 0.20960811E+03</rscale>
<asrwt>0</asrwt>
<pdfrwt beam="1">  1        2 0.34121561E-01 0.20960811E+03</pdfrwt>
<pdfrwt beam="2">  1       -2 0.65694828E-02 0.20960811E+03</pdfrwt>
<totfact> 0.18955404E+04</totfact>
</mgrwt>
</event>
<event>
 4    1  0.5562790E-004  0.1387735E+04  0.7818608E-02  0.8962744E-01
          2   -1    0    0  501    0  0.00000000000E+00  0.00000000000E+00  0.10001558911E+04  0.10001558911E+04  0.25500000000E-02 0. -1.
         -2   -1    0    0    0  501 -0.00000000000E+00 -0.00000000000E+00 -0.48137733767E+03  0.48137733767E+03  0.25500000000E-02 0.  1.
    5000001    1    1    2    0    0  0.58817970207E+03  0.19892833795E+03 -0.60879950856E+02  0.62862008716E+03  0.77000000000E+02 0.  0.
   -5000001    1    1    2    0    0 -0.58817970207E+03 -0.19892833795E+03  0.57965850432E+03  0.85291314165E+03  0.77000000000E+02 0.  0.
<mgrwt>
<rscale>  0 0.13877354E+04</rscale>
<asrwt>0</asrwt>
<pdfrwt beam="1">  1        2 0.14287941E+00 0.13877354E+04</pdfrwt>
<pdfrwt beam="2">  1       -2 0.68768192E-01 0.13877354E+04</pdfrwt>
<totfact> 0.52936580E+01</totfact>
</mgrwt>
</event>
<event>
 4    1  0.5562790E-004  0.3080723E+03  0.7818608E-02  0.1081274E+00
         -2   -1    0    0    0  501 -0.00000000000E+00  0.00000000000E+00  0.52602553380E+02  0.52602553442E+02  0.25500000000E-02 0. -1.
          2   -1    0    0  501    0  0.00000000000E+00 -0.00000000000E+00 -0.45106447493E+03  0.45106447494E+03  0.25500000000E-02 0.  1.
    5000001    1    1    2    0    0  0.66495141498E+02  0.10771800040E+03 -0.26807885882E+03  0.30630058113E+03  0.77000000000E+02 0.  0.
   -5000001    1    1    2    0    0 -0.66495141498E+02 -0.10771800040E+03 -0.13038306274E+03  0.19736644726E+03  0.77000000000E+02 0.  0.
<mgrwt>
<rscale>  0 0.30807235E+03</rscale>
<asrwt>0</asrwt>
<pdfrwt beam="1">  1        2 0.64437780E-01 0.30807235E+03</pdfrwt>
<pdfrwt beam="2">  1       -2 0.75146507E-02 0.30807235E+03</pdfrwt>
<totfact> 0.79085003E+03</totfact>
</mgrwt>
</event>
<event>
 4    1  0.5562790E-004  0.1961861E+03  0.7818608E-02  0.1152997E+00
          2   -1    0    0  501    0  0.00000000000E+00  0.00000000000E+00  0.83567442948E+03  0.83567442948E+03  0.25500000000E-02 0.  1.
         -2   -1    0    0    0  501 -0.00000000000E+00 -0.00000000000E+00 -0.11514352256E+02  0.11514352538E+02  0.25500000000E-02 0. -1.
    5000001    1    1    2    0    0  0.52838438223E+02 -0.84201146358E+01  0.28763749234E+03  0.30253450363E+03  0.77000000000E+02 0.  0.
   -5000001    1    1    2    0    0 -0.52838438223E+02  0.84201146358E+01  0.53652258488E+03  0.54465427839E+03  0.77000000000E+02 0.  0.
<mgrwt>
<rscale>  0 0.19618613E+03</rscale>
<asrwt>0</asrwt>
<pdfrwt beam="1">  1        2 0.11938209E+00 0.19618613E+03</pdfrwt>
<pdfrwt beam="2">  1       -2 0.16449071E-02 0.19618613E+03</pdfrwt>
<totfact> 0.36898694E+04</totfact>
</mgrwt>
</event>
<event>
 4    1  0.5562790E-004  0.1898462E+03  0.7818608E-02  0.1158600E+00
         -2   -1    0    0    0  501 -0.00000000000E+00  0.00000000000E+00  0.17721640738E+03  0.17721640740E+03  0.25500000000E-02 0. -1.
          2   -1    0    0  501    0  0.00000000000E+00 -0.00000000000E+00 -0.50844044254E+02  0.50844044317E+02  0.25500000000E-02 0.  1.
    5000001    1    1    2    0    0 -0.54751836915E+02  0.89075439623E+01  0.65674588121E+02  0.11540909631E+03  0.77000000000E+02 0.  0.
   -5000001    1    1    2    0    0  0.54751836915E+02 -0.89075439623E+01  0.60697775003E+02  0.11265135541E+03  0.77000000000E+02 0.  0.
<mgrwt>
<rscale>  0 0.18984624E+03</rscale>
<asrwt>0</asrwt>
<pdfrwt beam="1">  1        2 0.72634350E-02 0.18984624E+03</pdfrwt>
<pdfrwt beam="2">  1       -2 0.25316629E-01 0.18984624E+03</pdfrwt>
<totfact> 0.12871392E+04</totfact>
</mgrwt>
</event>
<event>
 4    1  0.5562790E-004  0.1925568E+03  0.7818608E-02  0.1156175E+00
         -2   -1    0    0    0  501 -0.00000000000E+00  0.00000000000E+00  0.89366149424E+02  0.89366149460E+02  0.25500000000E-02 0. -1.
          2   -1    0    0  501    0  0.00000000000E+00 -0.00000000000E+00 -0.10372524385E+03  0.10372524389E+03  0.25500000000E-02 0.  1.
    5000001    1    1    2    0    0  0.57489703591E+02  0.19276081578E+01 -0.15297262251E+01  0.96125552037E+02  0.77000000000E+02 0.  0.
   -5000001    1    1    2    0    0 -0.57489703591E+02 -0.19276081578E+01 -0.12829368206E+02  0.96965841309E+02  0.77000000000E+02 0.  0.
<mgrwt>
<rscale>  0 0.19255675E+03</rscale>
<asrwt>0</asrwt>
<pdfrwt beam="1">  1        2 0.14817892E-01 0.19255675E+03</pdfrwt>
<pdfrwt beam="2">  1       -2 0.12766593E-01 0.19255675E+03</pdfrwt>
<totfact> 0.16958117E+04</totfact>
</mgrwt>
</event>
<event>
 4    1  0.5562790E-004  0.5934659E+03  0.7818608E-02  0.9919056E-01
          2   -1    0    0  501    0  0.00000000000E+00  0.00000000000E+00  0.79602431231E+03  0.79602431232E+03  0.25500000000E-02 0.  1.
         -2   -1    0    0    0  501 -0.00000000000E+00 -0.00000000000E+00 -0.11061276134E+03  0.11061276137E+03  0.25500000000E-02 0. -1.
    5000001    1    1    2    0    0  0.23615738714E+03 -0.15917387907E+03  0.39137231818E+03  0.49011011693E+03  0.77000000000E+02 0.  0.
   -5000001    1    1    2    0    0 -0.23615738714E+03  0.15917387907E+03  0.29403923279E+03  0.41652695675E+03  0.77000000000E+02 0.  0.
<mgrwt>
<rscale>  0 0.59346591E+03</rscale>
<asrwt>0</asrwt>
<pdfrwt beam="1">  1        2 0.11371776E+00 0.59346591E+03</pdfrwt>
<pdfrwt beam="2">  1       -2 0.15801823E-01 0.59346591E+03</pdfrwt>
<totfact> 0.12295232E+03</totfact>
</mgrwt>
</event>
<event>
 4    1  0.5562790E-004  0.3161040E+03  0.7818608E-02  0.1077456E+00
          2   -1    0    0  501    0  0.00000000000E+00  0.00000000000E+00  0.15620855029E+04  0.15620855029E+04  0.25500000000E-02 0.  1.
         -2   -1    0    0    0  501 -0.00000000000E+00 -0.00000000000E+00 -0.15991725122E+02  0.15991725325E+02  0.25500000000E-02 0. -1.
    5000001    1    1    2    0    0  0.10612411327E+03 -0.82803664112E+02  0.62058485139E+03  0.63966657876E+03  0.77000000000E+02 0.  0.
   -5000001    1    1    2    0    0 -0.10612411327E+03  0.82803664112E+02  0.92550892643E+03  0.93841064950E+03  0.77000000000E+02 0.  0.
<mgrwt>
<rscale>  0 0.31610405E+03</rscale>
<asrwt>0</asrwt>
<pdfrwt beam="1">  1        2 0.22315512E+00 0.31610405E+03</pdfrwt>
<pdfrwt beam="2">  1       -2 0.22845317E-02 0.31610405E+03</pdfrwt>
<totfact> 0.92455907E+03</totfact>
</mgrwt>
</event>
<event>
 4    1  0.5562790E-004  0.2430330E+03  0.7818608E-02  0.1117789E+00
          2   -1    0    0  501    0  0.00000000000E+00  0.00000000000E+00  0.74939952327E+02  0.74939952371E+02  0.25500000000E-02 0.  1.
         -2   -1    0    0    0  501 -0.00000000000E+00 -0.00000000000E+00 -0.19704128500E+03  0.19704128502E+03  0.25500000000E-02 0. -1.
    5000001    1    1    2    0    0  0.17779600513E+02  0.35611285340E+02 -0.15635926136E+03  0.17877778511E+03  0.77000000000E+02 0.  0.
   -5000001    1    1    2    0    0 -0.17779600513E+02 -0.35611285340E+02  0.34257928684E+02  0.93203452274E+02  0.77000000000E+02 0.  0.
<mgrwt>
<rscale>  0 0.24303304E+03</rscale>
<asrwt>0</asrwt>
<pdfrwt beam="1">  1        2 0.10705708E-01 0.24303304E+03</pdfrwt>
<pdfrwt beam="2">  1       -2 0.28148755E-01 0.24303304E+03</pdfrwt>
<totfact> 0.66575137E+03</totfact>
</mgrwt>
</event>
<event>
 4    1  0.5562790E-004  0.3117997E+03  0.7818608E-02  0.1079486E+00
         -2   -1    0    0    0  501 -0.00000000000E+00  0.00000000000E+00  0.13136294883E+02  0.13136295130E+02  0.25500000000E-02 0. -1.
          2   -1    0    0  501    0  0.00000000000E+00 -0.00000000000E+00 -0.18501997652E+04  0.18501997652E+04  0.25500000000E-02 0.  1.
    5000001    1    1    2    0    0 -0.46532054722E+02 -0.93749519018E+02 -0.40370250290E+03  0.42409776618E+03  0.77000000000E+02 0.  0.
   -5000001    1    1    2    0    0  0.46532054722E+02  0.93749519018E+02 -0.14333609674E+04  0.14392382941E+04  0.77000000000E+02 0.  0.
<mgrwt>
<rscale>  0 0.31179974E+03</rscale>
<asrwt>0</asrwt>
<pdfrwt beam="1">  1        2 0.26431409E+00 0.31179974E+03</pdfrwt>
<pdfrwt beam="2">  1       -2 0.18766148E-02 0.31179974E+03</pdfrwt>
<totfact> 0.88958459E+03</totfact>
</mgrwt>
</event>
<event>
 4    1  0.5562790E-004  0.1782598E+03  0.7818608E-02  0.1169498E+00
         -2   -1    0    0    0  501 -0.00000000000E+00  0.00000000000E+00  0.67730204734E+01  0.67730209534E+01  0.25500000000E-02 0. -1.
          2   -1    0    0  501    0  0.00000000000E+00 -0.00000000000E+00 -0.11729088043E+04  0.11729088043E+04  0.25500000000E-02 0.  1.
    5000001    1    1    2    0    0 -0.67798059012E+01  0.42834994084E+02 -0.50636651561E+03  0.51402028230E+03  0.77000000000E+02 0.  0.
   -5000001    1    1    2    0    0  0.67798059012E+01 -0.42834994084E+02 -0.65976926826E+03  0.66566154299E+03  0.77000000000E+02 0.  0.
<mgrwt>
<rscale>  0 0.17825976E+03</rscale>
<asrwt>0</asrwt>
<pdfrwt beam="1">  1        2 0.16755827E+00 0.17825976E+03</pdfrwt>
<pdfrwt beam="2">  1       -2 0.96757514E-03 0.17825976E+03</pdfrwt>
<totfact> 0.50062571E+04</totfact>
</mgrwt>
</event>
<event>
 4    1  0.5562790E-004  0.2187184E+03  0.7818608E-02  0.1134842E+00
          2   -1    0    0  501    0  0.00000000000E+00  0.00000000000E+00  0.10002519849E+04  0.10002519849E+04  0.25500000000E-02 0.  1.
         -2   -1    0    0    0  501 -0.00000000000E+00 -0.00000000000E+00 -0.11956425655E+02  0.11956425927E+02  0.25500000000E-02 0. -1.
    5000001    1    1    2    0    0  0.12727977805E+02 -0.76524222450E+02  0.51049719196E+03  0.52206737212E+03  0.77000000000E+02 0.  0.
   -5000001    1    1    2    0    0 -0.12727977805E+02  0.76524222450E+02  0.47779836728E+03  0.49014103870E+03  0.77000000000E+02 0.  0.
<mgrwt>
<rscale>  0 0.21871844E+03</rscale>
<asrwt>0</asrwt>
<pdfrwt beam="1">  1        2 0.14289322E+00 0.21871844E+03</pdfrwt>
<pdfrwt beam="2">  1       -2 0.17080599E-02 0.21871844E+03</pdfrwt>
<totfact> 0.27887496E+04</totfact>
</mgrwt>
</event>
<event>
 4    1  0.5562790E-004  0.3362448E+03  0.7818608E-02  0.1068407E+00
          2   -1    0    0  501    0  0.00000000000E+00  0.00000000000E+00  0.34600457506E+03  0.34600457507E+03  0.25500000000E-02 0.  1.
         -2   -1    0    0    0  501 -0.00000000000E+00 -0.00000000000E+00 -0.81690086775E+02  0.81690086814E+02  0.25500000000E-02 0. -1.
    5000001    1    1    2    0    0 -0.37696644983E+02  0.13946459754E+03  0.18083801340E+03  0.24393195384E+03  0.77000000000E+02 0.  0.
   -5000001    1    1    2    0    0  0.37696644983E+02 -0.13946459754E+03  0.83476474885E+02  0.18376270805E+03  0.77000000000E+02 0.  0.
<mgrwt>
<rscale>  0 0.33624481E+03</rscale>
<asrwt>0</asrwt>
<pdfrwt beam="1">  1        2 0.49429227E-01 0.33624481E+03</pdfrwt>
<pdfrwt beam="2">  1       -2 0.11670012E-01 0.33624481E+03</pdfrwt>
<totfact> 0.52610109E+03</totfact>
</mgrwt>
</event>
<event>
 4    1  0.5562790E-004  0.2664357E+03  0.7818608E-02  0.1103337E+00
         -2   -1    0    0    0  501 -0.00000000000E+00  0.00000000000E+00  0.46872644558E+02  0.46872644627E+02  0.25500000000E-02 0. -1.
          2   -1    0    0  501    0  0.00000000000E+00 -0.00000000000E+00 -0.37862169101E+03  0.37862169102E+03  0.25500000000E-02 0.  1.
    5000001    1    1    2    0    0 -0.17705796477E+02  0.75261979924E+02 -0.43831513560E+02  0.11759278223E+03  0.77000000000E+02 0.  0.
   -5000001    1    1    2    0    0  0.17705796477E+02 -0.75261979924E+02 -0.28791753289E+03  0.30790155342E+03  0.77000000000E+02 0.  0.
<mgrwt>
<rscale>  0 0.26643573E+03</rscale>
<asrwt>0</asrwt>
<pdfrwt beam="1">  1        2 0.54088811E-01 0.26643573E+03</pdfrwt>
<pdfrwt beam="2">  1       -2 0.66960923E-02 0.26643573E+03</pdfrwt>
<totfact> 0.11373455E+04</totfact>
</mgrwt>
</event>
<event>
 4    1  0.5562790E-004  0.3270833E+03  0.7818608E-02  0.1072435E+00
         -2   -1    0    0    0  501 -0.00000000000E+00  0.00000000000E+00  0.15728203191E+02  0.15728203397E+02  0.25500000000E-02 0. -1.
          2   -1    0    0  501    0  0.00000000000E+00 -0.00000000000E+00 -0.17005035177E+04  0.17005035177E+04  0.25500000000E-02 0.  1.
    5000001    1    1    2    0    0 -0.11301372362E+02  0.13210516992E+03 -0.11409352996E+04  0.11511914936E+04  0.77000000000E+02 0.  0.
   -5000001    1    1    2    0    0  0.11301372362E+02 -0.13210516992E+03 -0.54384001486E+03  0.56504022751E+03  0.77000000000E+02 0.  0.
<mgrwt>
<rscale>  0 0.32708326E+03</rscale>
<asrwt>0</asrwt>
<pdfrwt beam="1">  1        2 0.24292896E+00 0.32708326E+03</pdfrwt>
<pdfrwt beam="2">  1       -2 0.22468873E-02 0.32708326E+03</pdfrwt>
<totfact> 0.80851361E+03</totfact>
</mgrwt>
</event>
<event>
 4    1  0.5562790E-004  0.3040421E+03  0.7818608E-02  0.1083237E+00
          2   -1    0    0  501    0  0.00000000000E+00  0.00000000000E+00  0.12733268964E+03  0.12733268966E+03  0.25500000000E-02 0.  1.
         -2   -1    0    0    0  501 -0.00000000000E+00 -0.00000000000E+00 -0.18149618409E+03  0.18149618411E+03  0.25500000000E-02 0. -1.
    5000001    1    1    2    0    0 -0.84318279271E+02 -0.99878534522E+02 -0.17124172139E+02  0.15266804233E+03  0.77000000000E+02 0.  0.
   -5000001    1    1    2    0    0  0.84318279271E+02  0.99878534522E+02 -0.37039322314E+02  0.15616083144E+03  0.77000000000E+02 0.  0.
<mgrwt>
<rscale>  0 0.30404208E+03</rscale>
<asrwt>0</asrwt>
<pdfrwt beam="1">  1        2 0.18190384E-01 0.30404208E+03</pdfrwt>
<pdfrwt beam="2">  1       -2 0.25928026E-01 0.30404208E+03</pdfrwt>
<totfact> 0.41248240E+03</totfact>
</mgrwt>
</event>
<event>
 4    1  0.5562790E-004  0.1717918E+03  0.7818608E-02  0.1175992E+00
          2   -1    0    0  501    0  0.00000000000E+00  0.00000000000E+00  0.69340802326E+02  0.69340802373E+02  0.25500000000E-02 0.  1.
         -2   -1    0    0    0  501 -0.00000000000E+00 -0.00000000000E+00 -0.10640349240E+03  0.10640349243E+03  0.25500000000E-02 0. -1.
    5000001    1    1    2    0    0 -0.25370239461E+02  0.28336179236E+02 -0.20153848008E+02  0.88214316829E+02  0.77000000000E+02 0.  0.
   -5000001    1    1    2    0    0  0.25370239461E+02 -0.28336179236E+02 -0.16908842063E+02  0.87529977973E+02  0.77000000000E+02 0.  0.
<mgrwt>
<rscale>  0 0.17179178E+03</rscale>
<asrwt>0</asrwt>
<pdfrwt beam="1">  1        2 0.99058289E-02 0.17179178E+03</pdfrwt>
<pdfrwt beam="2">  1       -2 0.15200499E-01 0.17179178E+03</pdfrwt>
<totfact> 0.20554173E+04</totfact>
</mgrwt>
</event>
<event>
 4    1  0.5562790E-004  0.1468393E+04  0.7818608E-02  0.8905748E-01
         -2   -1    0    0    0  501 -0.00000000000E+00  0.00000000000E+00  0.44049561681E+04  0.44049561681E+04  0.25500000000E-02 0. -1.
          2   -1    0    0  501    0  0.00000000000E+00 -0.00000000000E+00 -0.12237222300E+03  0.12237222302E+03  0.25500000000E-02 0.  1.
    5000001    1    1    2    0    0 -0.55226423595E+03  0.44874311108E+03  0.26455519149E+04  0.27406641715E+04  0.77000000000E+02 0.  0.
   -5000001    1    1    2    0    0  0.55226423595E+03 -0.44874311108E+03  0.16370320302E+04  0.17866642197E+04  0.77000000000E+02 0.  0.
<mgrwt>
<rscale>  0 0.14683927E+04</rscale>
<asrwt>0</asrwt>
<pdfrwt beam="1">  1        2 0.17481747E-01 0.14683927E+04</pdfrwt>
<pdfrwt beam="2">  1       -2 0.62927943E+00 0.14683927E+04</pdfrwt>
<totfact> 0.12592637E-01</totfact>
</mgrwt>
</event>
<event>
 4    1  0.5562790E-004  0.1944457E+03  0.7818608E-02  0.1154512E+00
          2   -1    0    0  501    0  0.00000000000E+00  0.00000000000E+00  0.26642120856E+04  0.26642120856E+04  0.25500000000E-02 0.  1.
         -2   -1    0    0    0  501 -0.00000000000E+00 -0.00000000000E+00 -0.35478726761E+01  0.35478735925E+01  0.25500000000E-02 0. -1.
    5000001    1    1    2    0    0  0.53525256875E+02  0.14360546137E+02  0.16220542856E+04  0.16248262319E+04  0.77000000000E+02 0.  0.
   -5000001    1    1    2    0    0 -0.53525256875E+02 -0.14360546137E+02  0.10386099273E+04  0.10429337273E+04  0.77000000000E+02 0.  0.
<mgrwt>
<rscale>  0 0.19444574E+03</rscale>
<asrwt>0</asrwt>
<pdfrwt beam="1">  1        2 0.38060102E+00 0.19444574E+03</pdfrwt>
<pdfrwt beam="2">  1       -2 0.50683996E-03 0.19444574E+03</pdfrwt>
<totfact> 0.23365612E+04</totfact>
</mgrwt>
</event>
<event>
 4    1  0.5562790E-004  0.3261038E+03  0.7818608E-02  0.1072874E+00
          2   -1    0    0  501    0  0.00000000000E+00  0.00000000000E+00  0.44068251395E+04  0.44068251395E+04  0.25500000000E-02 0.  1.
         -2   -1    0    0    0  501 -0.00000000000E+00 -0.00000000000E+00 -0.60328985408E+01  0.60328990797E+01  0.25500000000E-02 0. -1.
    5000001    1    1    2    0    0  0.11681643648E+03 -0.80078657977E+02  0.25313813375E+04  0.25365092445E+04  0.77000000000E+02 0.  0.
   -5000001    1    1    2    0    0 -0.11681643648E+03  0.80078657977E+02  0.18694109034E+04  0.18763487941E+04  0.77000000000E+02 0.  0.
<mgrwt>
<rscale>  0 0.32610385E+03</rscale>
<asrwt>0</asrwt>
<pdfrwt beam="1">  1        2 0.62954727E+00 0.32610385E+03</pdfrwt>
<pdfrwt beam="2">  1       -2 0.86184157E-03 0.32610385E+03</pdfrwt>
<totfact> 0.99189375E+02</totfact>
</mgrwt>
</event>
<event>
 4    1  0.5562790E-004  0.2990274E+03  0.7818608E-02  0.1085728E+00
         -2   -1    0    0    0  501 -0.00000000000E+00  0.00000000000E+00  0.19616612393E+02  0.19616612559E+02  0.25500000000E-02 0. -1.
          2   -1    0    0  501    0  0.00000000000E+00 -0.00000000000E+00 -0.11395623338E+04  0.11395623338E+04  0.25500000000E-02 0.  1.
    5000001    1    1    2    0    0 -0.12193856045E+03 -0.35225889329E+02 -0.49111980528E+03  0.51306679773E+03  0.77000000000E+02 0.  0.
   -5000001    1    1    2    0    0  0.12193856045E+03  0.35225889329E+02 -0.62882591611E+03  0.64611214860E+03  0.77000000000E+02 0.  0.
<mgrwt>
<rscale>  0 0.29902744E+03</rscale>
<asrwt>0</asrwt>
<pdfrwt beam="1">  1        2 0.16279458E+00 0.29902744E+03</pdfrwt>
<pdfrwt beam="2">  1       -2 0.28023739E-02 0.29902744E+03</pdfrwt>
<totfact> 0.11360743E+04</totfact>
</mgrwt>
</event>
<event>
 4    1  0.5562790E-004  0.1592164E+03  0.7818608E-02  0.1189584E+00
         -2   -1    0    0    0  501 -0.00000000000E+00  0.00000000000E+00  0.61617278364E+01  0.61617283641E+01  0.25500000000E-02 0. -1.
          2   -1    0    0  501    0  0.00000000000E+00 -0.00000000000E+00 -0.10285205205E+04  0.10285205205E+04  0.25500000000E-02 0.  1.
    5000001    1    1    2    0    0 -0.13388567231E+02 -0.40025783231E+01 -0.60606538593E+03  0.61109698607E+03  0.77000000000E+02 0.  0.
   -5000001    1    1    2    0    0  0.13388567231E+02  0.40025783231E+01 -0.41629340671E+03  0.42358526277E+03  0.77000000000E+02 0.  0.
<mgrwt>
<rscale>  0 0.15921638E+03</rscale>
<asrwt>0</asrwt>
<pdfrwt beam="1">  1        2 0.14693139E+00 0.15921638E+03</pdfrwt>
<pdfrwt beam="2">  1       -2 0.88024753E-03 0.15921638E+03</pdfrwt>
<totfact> 0.68245652E+04</totfact>
</mgrwt>
</event>
<event>
 4    1  0.5562790E-004  0.2869438E+03  0.7818608E-02  0.1091956E+00
         -2   -1    0    0    0  501 -0.00000000000E+00  0.00000000000E+00  0.35551461579E+02  0.35551461671E+02  0.25500000000E-02 0. -1.
          2   -1    0    0  501    0  0.00000000000E+00 -0.00000000000E+00 -0.57899700710E+03  0.57899700711E+03  0.25500000000E-02 0.  1.
    5000001    1    1    2    0    0  0.35398718832E+02 -0.22244696447E+02 -0.51504224056E+03  0.52244177224E+03  0.77000000000E+02 0.  0.
   -5000001    1    1    2    0    0 -0.35398718832E+02  0.22244696447E+02 -0.28403304960E+02  0.92106696541E+02  0.77000000000E+02 0.  0.
<mgrwt>
<rscale>  0 0.28694383E+03</rscale>
<asrwt>0</asrwt>
<pdfrwt beam="1">  1        2 0.82713853E-01 0.28694383E+03</pdfrwt>
<pdfrwt beam="2">  1       -2 0.50787806E-02 0.28694383E+03</pdfrwt>
<totfact> 0.10921644E+04</totfact>
</mgrwt>
</event>
<event>
 4    1  0.5562790E-004  0.3076504E+03  0.7818608E-02  0.1081478E+00
         -2   -1    0    0    0  501 -0.00000000000E+00  0.00000000000E+00  0.23648626977E+03  0.23648626979E+03  0.25500000000E-02 0. -1.
          2   -1    0    0  501    0  0.00000000000E+00 -0.00000000000E+00 -0.10005733955E+03  0.10005733959E+03  0.25500000000E-02 0.  1.
    5000001    1    1    2    0    0  0.10417902058E+03  0.76942743072E+02  0.10210349342E+03  0.18200982778E+03  0.77000000000E+02 0.  0.
   -5000001    1    1    2    0    0 -0.10417902058E+03 -0.76942743072E+02  0.34325436798E+02  0.15453378159E+03  0.77000000000E+02 0.  0.
<mgrwt>
<rscale>  0 0.30765037E+03</rscale>
<asrwt>0</asrwt>
<pdfrwt beam="1">  1        2 0.14293906E-01 0.30765037E+03</pdfrwt>
<pdfrwt beam="2">  1       -2 0.33783752E-01 0.30765037E+03</pdfrwt>
<totfact> 0.33897004E+03</totfact>
</mgrwt>
</event>
<event>
 4    1  0.5562790E-004  0.2297145E+03  0.7818608E-02  0.1126841E+00
          2   -1    0    0  501    0  0.00000000000E+00  0.00000000000E+00  0.41017868508E+03  0.41017868509E+03  0.25500000000E-02 0.  1.
         -2   -1    0    0    0  501 -0.00000000000E+00 -0.00000000000E+00 -0.32162052541E+02  0.32162052642E+02  0.25500000000E-02 0. -1.
    5000001    1    1    2    0    0  0.67753367123E+02  0.29421081609E+02  0.27086534274E+03  0.29112394731E+03  0.77000000000E+02 0.  0.
   -5000001    1    1    2    0    0 -0.67753367123E+02 -0.29421081609E+02  0.10715128980E+03  0.15121679042E+03  0.77000000000E+02 0.  0.
<mgrwt>
<rscale>  0 0.22971450E+03</rscale>
<asrwt>0</asrwt>
<pdfrwt beam="1">  1        2 0.58596955E-01 0.22971450E+03</pdfrwt>
<pdfrwt beam="2">  1       -2 0.45945790E-02 0.22971450E+03</pdfrwt>
<totfact> 0.18382908E+04</totfact>
</mgrwt>
</event>
<event>
 4    1  0.5562790E-004  0.2657028E+03  0.7818608E-02  0.1103764E+00
          2   -1    0    0  501    0  0.00000000000E+00  0.00000000000E+00  0.13863919326E+03  0.13863919329E+03  0.25500000000E-02 0.  1.
         -2   -1    0    0    0  501 -0.00000000000E+00 -0.00000000000E+00 -0.12730524850E+03  0.12730524853E+03  0.25500000000E-02 0. -1.
    5000001    1    1    2    0    0  0.48117707441E+02  0.94076182758E+02 -0.17909809097E+02  0.13196743232E+03  0.77000000000E+02 0.  0.
   -5000001    1    1    2    0    0 -0.48117707441E+02 -0.94076182758E+02  0.29243753859E+02  0.13397700949E+03  0.77000000000E+02 0.  0.
<mgrwt>
<rscale>  0 0.26570282E+03</rscale>
<asrwt>0</asrwt>
<pdfrwt beam="1">  1        2 0.19805599E-01 0.26570282E+03</pdfrwt>
<pdfrwt beam="2">  1       -2 0.18186464E-01 0.26570282E+03</pdfrwt>
<totfact> 0.68772746E+03</totfact>
</mgrwt>
</event>
<event>
 4    1  0.5562790E-004  0.1868273E+03  0.7818608E-02  0.1161354E+00
         -2   -1    0    0    0  501 -0.00000000000E+00  0.00000000000E+00  0.15779734823E+01  0.15779755427E+01  0.25500000000E-02 0. -1.
          2   -1    0    0  501    0  0.00000000000E+00 -0.00000000000E+00 -0.55299419461E+04  0.55299419461E+04  0.25500000000E-02 0.  1.
    5000001    1    1    2    0    0  0.18521013814E+02 -0.36145712528E+02 -0.37671641857E+04  0.37681699196E+04  0.77000000000E+02 0.  0.
   -5000001    1    1    2    0    0 -0.18521013814E+02  0.36145712528E+02 -0.17611997869E+04  0.17633500021E+04  0.77000000000E+02 0.  0.
<mgrwt>
<rscale>  0 0.18682727E+03</rscale>
<asrwt>0</asrwt>
<pdfrwt beam="1">  1        2 0.78997928E+00 0.18682727E+03</pdfrwt>
<pdfrwt beam="2">  1       -2 0.22542848E-03 0.18682727E+03</pdfrwt>
<totfact> 0.64590223E+02</totfact>
</mgrwt>
</event>
<event>
 4    1  0.5562790E-004  0.2895623E+03  0.7818608E-02  0.1090578E+00
         -2   -1    0    0    0  501 -0.00000000000E+00  0.00000000000E+00  0.80704474476E+01  0.80704478504E+01  0.25500000000E-02 0. -1.
          2   -1    0    0  501    0  0.00000000000E+00 -0.00000000000E+00 -0.25973253266E+04  0.25973253266E+04  0.25500000000E-02 0.  1.
    5000001    1    1    2    0    0 -0.11212455522E+03  0.47652220172E+02 -0.14186287692E+04  0.14259310064E+04  0.77000000000E+02 0.  0.
   -5000001    1    1    2    0    0  0.11212455522E+03 -0.47652220172E+02 -0.11706261099E+04  0.11794647680E+04  0.77000000000E+02 0.  0.
<mgrwt>
<rscale>  0 0.28956228E+03</rscale>
<asrwt>0</asrwt>
<pdfrwt beam="1">  1        2 0.37104594E+00 0.28956228E+03</pdfrwt>
<pdfrwt beam="2">  1       -2 0.11529228E-02 0.28956228E+03</pdfrwt>
<totfact> 0.77673876E+03</totfact>
</mgrwt>
</event>
<event>
 4    1  0.5562790E-004  0.2473401E+03  0.7818608E-02  0.1114997E+00
         -2   -1    0    0    0  501 -0.00000000000E+00  0.00000000000E+00  0.82502976740E+01  0.82502980680E+01  0.25500000000E-02 0. -1.
          2   -1    0    0  501    0  0.00000000000E+00 -0.00000000000E+00 -0.18537857396E+04  0.18537857396E+04  0.25500000000E-02 0.  1.
    5000001    1    1    2    0    0 -0.94889547052E+02 -0.65030301444E+01 -0.78831557330E+03  0.79775733068E+03  0.77000000000E+02 0.  0.
   -5000001    1    1    2    0    0  0.94889547052E+02  0.65030301444E+01 -0.10572198686E+04  0.10642787069E+04  0.77000000000E+02 0.  0.
<mgrwt>
<rscale>  0 0.24734013E+03</rscale>
<asrwt>0</asrwt>
<pdfrwt beam="1">  1        2 0.26482627E+00 0.24734013E+03</pdfrwt>
<pdfrwt beam="2">  1       -2 0.11786152E-02 0.24734013E+03</pdfrwt>
<totfact> 0.17408993E+04</totfact>
</mgrwt>
</event>
<event>
 4    1  0.5562790E-004  0.3403996E+03  0.7818608E-02  0.1066626E+00
          2   -1    0    0  501    0  0.00000000000E+00  0.00000000000E+00  0.18892772186E+04  0.18892772186E+04  0.25500000000E-02 0.  1.
         -2   -1    0    0    0  501 -0.00000000000E+00 -0.00000000000E+00 -0.15332835584E+02  0.15332835796E+02  0.25500000000E-02 0. -1.
    5000001    1    1    2    0    0  0.13724155581E+03 -0.62210480083E+02  0.10391655459E+04  0.10528529908E+04  0.77000000000E+02 0.  0.
   -5000001    1    1    2    0    0 -0.13724155581E+03  0.62210480083E+02  0.83477883717E+03  0.85175706364E+03  0.77000000000E+02 0.  0.
<mgrwt>
<rscale>  0 0.34039963E+03</rscale>
<asrwt>0</asrwt>
<pdfrwt beam="1">  1        2 0.26989673E+00 0.34039963E+03</pdfrwt>
<pdfrwt beam="2">  1       -2 0.21904052E-02 0.34039963E+03</pdfrwt>
<totfact> 0.67760663E+03</totfact>
</mgrwt>
</event>
<event>
 4    1  0.5562790E-004  0.1849643E+03  0.7818608E-02  0.1163083E+00
          2   -1    0    0  501    0  0.00000000000E+00  0.00000000000E+00  0.21974525096E+03  0.21974525097E+03  0.25500000000E-02 0.  1.
         -2   -1    0    0    0  501 -0.00000000000E+00 -0.00000000000E+00 -0.38922107425E+02  0.38922107508E+02  0.25500000000E-02 0. -1.
    5000001    1    1    2    0    0  0.45384644869E+02  0.14439010685E+02  0.64036480707E+02  0.11089599578E+03  0.77000000000E+02 0.  0.
   -5000001    1    1    2    0    0 -0.45384644869E+02 -0.14439010685E+02  0.11678666282E+03  0.14777136270E+03  0.77000000000E+02 0.  0.
<mgrwt>
<rscale>  0 0.18496430E+03</rscale>
<asrwt>0</asrwt>
<pdfrwt beam="1">  1        2 0.31392179E-01 0.18496430E+03</pdfrwt>
<pdfrwt beam="2">  1       -2 0.55603010E-02 0.18496430E+03</pdfrwt>
<totfact> 0.26503117E+04</totfact>
</mgrwt>
</event>
<event>
 4    1  0.5562790E-004  0.1976523E+03  0.7818608E-02  0.1151735E+00
          2   -1    0    0  501    0  0.00000000000E+00  0.00000000000E+00  0.10444332222E+04  0.10444332222E+04  0.25500000000E-02 0. -1.
         -2   -1    0    0    0  501 -0.00000000000E+00 -0.00000000000E+00 -0.93511050548E+01  0.93511054025E+01  0.25500000000E-02 0.  1.
    5000001    1    1    2    0    0  0.96818690057E+01 -0.42211592769E+02  0.75370017877E+03  0.75886001122E+03  0.77000000000E+02 0.  0.
   -5000001    1    1    2    0    0 -0.96818690057E+01  0.42211592769E+02  0.28138193838E+03  0.29492431639E+03  0.77000000000E+02 0.  0.
<mgrwt>
<rscale>  0 0.19765227E+03</rscale>
<asrwt>0</asrwt>
<pdfrwt beam="1">  1        2 0.14920478E+00 0.19765227E+03</pdfrwt>
<pdfrwt beam="2">  1       -2 0.13358718E-02 0.19765227E+03</pdfrwt>
<totfact> 0.37331560E+04</totfact>
</mgrwt>
</event>
<event>
 4    1  0.5562790E-004  0.2302441E+03  0.7818608E-02  0.1126468E+00
         -2   -1    0    0    0  501 -0.00000000000E+00  0.00000000000E+00  0.60889321599E+03  0.60889321600E+03  0.25500000000E-02 0. -1.
          2   -1    0    0  501    0  0.00000000000E+00 -0.00000000000E+00 -0.21765861562E+02  0.21765861711E+02  0.25500000000E-02 0.  1.
    5000001    1    1    2    0    0  0.65797076068E+02 -0.52961180547E+02  0.33131381340E+03  0.35047394314E+03  0.77000000000E+02 0.  0.
   -5000001    1    1    2    0    0 -0.65797076068E+02  0.52961180547E+02  0.25581354102E+03  0.28018513457E+03  0.77000000000E+02 0.  0.
<mgrwt>
<rscale>  0 0.23024409E+03</rscale>
<asrwt>0</asrwt>
<pdfrwt beam="1">  1        2 0.31094087E-02 0.23024409E+03</pdfrwt>
<pdfrwt beam="2">  1       -2 0.86984748E-01 0.23024409E+03</pdfrwt>
<totfact> 0.34820865E+03</totfact>
</mgrwt>
</event>
<event>
 4    1  0.5562790E-004  0.1743638E+03  0.7818608E-02  0.1173372E+00
         -2   -1    0    0    0  501 -0.00000000000E+00  0.00000000000E+00  0.28343612945E+01  0.28343624416E+01  0.25500000000E-02 0. -1.
          2   -1    0    0  501    0  0.00000000000E+00 -0.00000000000E+00 -0.26816198972E+04  0.26816198972E+04  0.25500000000E-02 0.  1.
    5000001    1    1    2    0    0 -0.31954152633E+02  0.24251058068E+02 -0.14611060614E+04  0.14636834030E+04  0.77000000000E+02 0.  0.
   -5000001    1    1    2    0    0  0.31954152633E+02 -0.24251058068E+02 -0.12176794745E+04  0.12207708566E+04  0.77000000000E+02 0.  0.
<mgrwt>
<rscale>  0 0.17436377E+03</rscale>
<asrwt>0</asrwt>
<pdfrwt beam="1">  1        2 0.38308693E+00 0.17436377E+03</pdfrwt>
<pdfrwt beam="2">  1       -2 0.40491056E-03 0.17436377E+03</pdfrwt>
<totfact> 0.31401096E+04</totfact>
</mgrwt>
</event>
<event>
 4    1  0.5562790E-004  0.2670152E+03  0.7818608E-02  0.1103000E+00
         -2   -1    0    0    0  501 -0.00000000000E+00  0.00000000000E+00  0.84551203348E+02  0.84551203387E+02  0.25500000000E-02 0. -1.
          2   -1    0    0  501    0  0.00000000000E+00 -0.00000000000E+00 -0.21081040174E+03  0.21081040175E+03  0.25500000000E-02 0.  1.
    5000001    1    1    2    0    0  0.49232315705E+02 -0.50419009471E+02  0.28950374083E+02  0.10831907304E+03  0.77000000000E+02 0.  0.
   -5000001    1    1    2    0    0 -0.49232315705E+02  0.50419009471E+02 -0.15520957247E+03  0.18704253210E+03  0.77000000000E+02 0.  0.
<mgrwt>
<rscale>  0 0.26701515E+03</rscale>
<asrwt>0</asrwt>
<pdfrwt beam="1">  1        2 0.30115771E-01 0.26701515E+03</pdfrwt>
<pdfrwt beam="2">  1       -2 0.12078743E-01 0.26701515E+03</pdfrwt>
<totfact> 0.84513030E+03</totfact>
</mgrwt>
</event>
<event>
 4    1  0.5562790E-004  0.2370414E+03  0.7818608E-02  0.1121780E+00
          2   -1    0    0  501    0  0.00000000000E+00  0.00000000000E+00  0.33085300556E+02  0.33085300654E+02  0.25500000000E-02 0.  1.
         -2   -1    0    0    0  501 -0.00000000000E+00 -0.00000000000E+00 -0.42457378436E+03  0.42457378437E+03  0.25500000000E-02 0. -1.
    5000001    1    1    2    0    0 -0.42576055445E+02 -0.63822893190E+02 -0.28696040068E+03  0.30685722047E+03  0.77000000000E+02 0.  0.
   -5000001    1    1    2    0    0  0.42576055445E+02  0.63822893190E+02 -0.10452808312E+03  0.15080186456E+03  0.77000000000E+02 0.  0.
<mgrwt>
<rscale>  0 0.23704136E+03</rscale>
<asrwt>0</asrwt>
<pdfrwt beam="1">  1        2 0.47264718E-02 0.23704136E+03</pdfrwt>
<pdfrwt beam="2">  1       -2 0.60653395E-01 0.23704136E+03</pdfrwt>
<totfact> 0.43277480E+03</totfact>
</mgrwt>
</event>
<event>
 4    1  0.5562790E-004  0.2257730E+03  0.7818608E-02  0.1129651E+00
         -2   -1    0    0    0  501 -0.00000000000E+00  0.00000000000E+00  0.80514130167E+01  0.80514134205E+01  0.25500000000E-02 0.  1.
          2   -1    0    0  501    0  0.00000000000E+00 -0.00000000000E+00 -0.15827478508E+04  0.15827478508E+04  0.25500000000E-02 0. -1.
    5000001    1    1    2    0    0  0.64930682174E+01 -0.75003282978E+02 -0.54874888074E+03  0.55921550990E+03  0.77000000000E+02 0.  0.
   -5000001    1    1    2    0    0 -0.64930682174E+01  0.75003282978E+02 -0.10259475571E+04  0.10315837544E+04  0.77000000000E+02 0.  0.
<mgrwt>
<rscale>  0 0.22577296E+03</rscale>
<asrwt>0</asrwt>
<pdfrwt beam="1">  1        2 0.22610664E+00 0.22577296E+03</pdfrwt>
<pdfrwt beam="2">  1       -2 0.11502029E-02 0.22577296E+03</pdfrwt>
<totfact> 0.24402384E+04</totfact>
</mgrwt>
</event>
<event>
 4    1  0.5562790E-004  0.1735240E+03  0.7818608E-02  0.1174222E+00
         -2   -1    0    0    0  501 -0.00000000000E+00  0.00000000000E+00  0.47528561951E+03  0.47528561951E+03  0.25500000000E-02 0. -1.
          2   -1    0    0  501    0  0.00000000000E+00 -0.00000000000E+00 -0.15838151757E+02  0.15838151962E+02  0.25500000000E-02 0.  1.
    5000001    1    1    2    0    0  0.37691087128E+02 -0.98894144607E+01  0.20437289491E+03  0.22184611501E+03  0.77000000000E+02 0.  0.
   -5000001    1    1    2    0    0 -0.37691087128E+02  0.98894144607E+01  0.25507457283E+03  0.26927765647E+03  0.77000000000E+02 0.  0.
<mgrwt>
<rscale>  0 0.17352401E+03</rscale>
<asrwt>0</asrwt>
<pdfrwt beam="1">  1        2 0.22625934E-02 0.17352401E+03</pdfrwt>
<pdfrwt beam="2">  1       -2 0.67897936E-01 0.17352401E+03</pdfrwt>
<totfact> 0.90281466E+03</totfact>
</mgrwt>
</event>
<event>
 4    1  0.5562790E-004  0.2259571E+03  0.7818608E-02  0.1129518E+00
          2   -1    0    0  501    0  0.00000000000E+00  0.00000000000E+00  0.97356707279E+03  0.97356707279E+03  0.25500000000E-02 0.  1.
         -2   -1    0    0    0  501 -0.00000000000E+00 -0.00000000000E+00 -0.13110711446E+02  0.13110711694E+02  0.25500000000E-02 0. -1.
    5000001    1    1    2    0    0 -0.73313035804E+02  0.33447902508E+02  0.56093387953E+03  0.57189979944E+03  0.77000000000E+02 0.  0.
   -5000001    1    1    2    0    0  0.73313035804E+02 -0.33447902508E+02  0.39952248182E+03  0.41477798505E+03  0.77000000000E+02 0.  0.
<mgrwt>
<rscale>  0 0.22595714E+03</rscale>
<asrwt>0</asrwt>
<pdfrwt beam="1">  1        2 0.13908103E+00 0.22595714E+03</pdfrwt>
<pdfrwt beam="2">  1       -2 0.18729585E-02 0.22595714E+03</pdfrwt>
<totfact> 0.25324894E+04</totfact>
</mgrwt>
</event>
<event>
 4    1  0.5562790E-004  0.2070355E+03  0.7818608E-02  0.1143935E+00
          2   -1    0    0  501    0  0.00000000000E+00  0.00000000000E+00  0.18061284379E+04  0.18061284379E+04  0.25500000000E-02 0.  1.
         -2   -1    0    0    0  501 -0.00000000000E+00 -0.00000000000E+00 -0.59330917896E+01  0.59330923376E+01  0.25500000000E-02 0. -1.
    5000001    1    1    2    0    0 -0.40276639731E+02  0.49470345578E+02  0.66566948405E+03  0.67313771607E+03  0.77000000000E+02 0.  0.
   -5000001    1    1    2    0    0  0.40276639731E+02 -0.49470345578E+02  0.11345258620E+04  0.11389238141E+04  0.77000000000E+02 0.  0.
<mgrwt>
<rscale>  0 0.20703552E+03</rscale>
<asrwt>0</asrwt>
<pdfrwt beam="1">  1        2 0.25801842E+00 0.20703552E+03</pdfrwt>
<pdfrwt beam="2">  1       -2 0.84758434E-03 0.20703552E+03</pdfrwt>
<totfact> 0.29358743E+04</totfact>
</mgrwt>
</event>
<event>
 4    1  0.5562790E-004  0.2050808E+03  0.7818608E-02  0.1145522E+00
         -2   -1    0    0    0  501 -0.00000000000E+00  0.00000000000E+00  0.88038538488E+01  0.88038542181E+01  0.25500000000E-02 0. -1.
          2   -1    0    0  501    0  0.00000000000E+00 -0.00000000000E+00 -0.11943105128E+04  0.11943105128E+04  0.25500000000E-02 0.  1.
    5000001    1    1    2    0    0 -0.60097813222E+02  0.26569384900E+02 -0.68876689812E+03  0.69616558326E+03  0.77000000000E+02 0.  0.
   -5000001    1    1    2    0    0  0.60097813222E+02 -0.26569384900E+02 -0.49673976086E+03  0.50694878379E+03  0.77000000000E+02 0.  0.
<mgrwt>
<rscale>  0 0.20508082E+03</rscale>
<asrwt>0</asrwt>
<pdfrwt beam="1">  1        2 0.17061569E+00 0.20508082E+03</pdfrwt>
<pdfrwt beam="2">  1       -2 0.12576942E-02 0.20508082E+03</pdfrwt>
<totfact> 0.33740576E+04</totfact>
</mgrwt>
</event>
<event>
 4    1  0.5562790E-004  0.1981472E+03  0.7818608E-02  0.1151312E+00
         -2   -1    0    0    0  501 -0.00000000000E+00  0.00000000000E+00  0.63882159868E+01  0.63882164957E+01  0.25500000000E-02 0. -1.
          2   -1    0    0  501    0  0.00000000000E+00 -0.00000000000E+00 -0.15365137263E+04  0.15365137263E+04  0.25500000000E-02 0.  1.
    5000001    1    1    2    0    0 -0.43087897102E+02 -0.42165430187E+02 -0.88869434698E+03  0.89405879713E+03  0.77000000000E+02 0.  0.
   -5000001    1    1    2    0    0  0.43087897102E+02  0.42165430187E+02 -0.64143116336E+03  0.64884314569E+03  0.77000000000E+02 0.  0.
<mgrwt>
<rscale>  0 0.19814724E+03</rscale>
<asrwt>0</asrwt>
<pdfrwt beam="1">  1        2 0.21950172E+00 0.19814724E+03</pdfrwt>
<pdfrwt beam="2">  1       -2 0.91260330E-03 0.19814724E+03</pdfrwt>
<totfact> 0.35676505E+04</totfact>
</mgrwt>
</event>
<event>
 4    1  0.5562790E-004  0.2957126E+03  0.7818608E-02  0.1087404E+00
          2   -1    0    0  501    0  0.00000000000E+00  0.00000000000E+00  0.37263954941E+04  0.37263954941E+04  0.25500000000E-02 0.  1.
         -2   -1    0    0    0  501 -0.00000000000E+00 -0.00000000000E+00 -0.58666579653E+01  0.58666585195E+01  0.25500000000E-02 0. -1.
    5000001    1    1    2    0    0 -0.87314145429E+02  0.91054605999E+02  0.18070339017E+04  0.18130679036E+04  0.77000000000E+02 0.  0.
   -5000001    1    1    2    0    0  0.87314145429E+02 -0.91054605999E+02  0.19134949344E+04  0.19191942490E+04  0.77000000000E+02 0.  0.
<mgrwt>
<rscale>  0 0.29571262E+03</rscale>
<asrwt>0</asrwt>
<pdfrwt beam="1">  1        2 0.53234429E+00 0.29571262E+03</pdfrwt>
<pdfrwt beam="2">  1       -2 0.83809076E-03 0.29571262E+03</pdfrwt>
<totfact> 0.29609524E+03</totfact>
</mgrwt>
</event>
<event>
 4    1  0.5562790E-004  0.1974182E+03  0.7818608E-02  0.1151936E+00
          2   -1    0    0  501    0  0.00000000000E+00  0.00000000000E+00  0.34110278282E+03  0.34110278283E+03  0.25500000000E-02 0.  1.
         -2   -1    0    0    0  501 -0.00000000000E+00 -0.00000000000E+00 -0.28564672357E+02  0.28564672471E+02  0.25500000000E-02 0. -1.
    5000001    1    1    2    0    0 -0.44066077679E+02  0.43266640697E+02  0.15779931474E+03  0.18612749698E+03  0.77000000000E+02 0.  0.
   -5000001    1    1    2    0    0  0.44066077679E+02 -0.43266640697E+02  0.15473879573E+03  0.18353995832E+03  0.77000000000E+02 0.  0.
<mgrwt>
<rscale>  0 0.19741823E+03</rscale>
<asrwt>0</asrwt>
<pdfrwt beam="1">  1        2 0.48728966E-01 0.19741823E+03</pdfrwt>
<pdfrwt beam="2">  1       -2 0.40806678E-02 0.19741823E+03</pdfrwt>
<totfact> 0.26492513E+04</totfact>
</mgrwt>
</event>
<event>
 4    1  0.5562790E-004  0.2026159E+03  0.7818608E-02  0.1147551E+00
         -2   -1    0    0    0  501 -0.00000000000E+00  0.00000000000E+00  0.27017764581E+01  0.27017776614E+01  0.25500000000E-02 0. -1.
          2   -1    0    0  501    0  0.00000000000E+00 -0.00000000000E+00 -0.37987234606E+04  0.37987234606E+04  0.25500000000E-02 0.  1.
    5000001    1    1    2    0    0  0.33077032476E+02 -0.56096832802E+02 -0.17167302245E+04  0.17196896838E+04  0.77000000000E+02 0.  0.
   -5000001    1    1    2    0    0 -0.33077032476E+02  0.56096832802E+02 -0.20792914596E+04  0.20817355545E+04  0.77000000000E+02 0.  0.
<mgrwt>
<rscale>  0 0.20261593E+03</rscale>
<asrwt>0</asrwt>
<pdfrwt beam="1">  1        2 0.54267136E+00 0.20261593E+03</pdfrwt>
<pdfrwt beam="2">  1       -2 0.38597059E-03 0.20261593E+03</pdfrwt>
<totfact> 0.82214146E+03</totfact>
</mgrwt>
</event>
<event>
 4    1  0.5562790E-004  0.2026306E+03  0.7818608E-02  0.1147538E+00
         -2   -1    0    0    0  501 -0.00000000000E+00  0.00000000000E+00  0.10788896916E+02  0.10788897217E+02  0.25500000000E-02 0. -1.
          2   -1    0    0  501    0  0.00000000000E+00 -0.00000000000E+00 -0.95142189651E+03  0.95142189651E+03  0.25500000000E-02 0.  1.
    5000001    1    1    2    0    0 -0.31387430526E+02  0.57086655037E+02 -0.42483498989E+03  0.43664382008E+03  0.77000000000E+02 0.  0.
   -5000001    1    1    2    0    0  0.31387430526E+02 -0.57086655037E+02 -0.51579800970E+03  0.52556697365E+03  0.77000000000E+02 0.  0.
<mgrwt>
<rscale>  0 0.20263063E+03</rscale>
<asrwt>0</asrwt>
<pdfrwt beam="1">  1        2 0.13591736E+00 0.20263063E+03</pdfrwt>
<pdfrwt beam="2">  1       -2 0.15412716E-02 0.20263063E+03</pdfrwt>
<totfact> 0.34444461E+04</totfact>
</mgrwt>
</event>
<event>
 4    1  0.5562790E-004  0.2642446E+03  0.7818608E-02  0.1104620E+00
         -2   -1    0    0    0  501 -0.00000000000E+00  0.00000000000E+00  0.18323651172E+03  0.18323651173E+03  0.25500000000E-02 0. -1.
          2   -1    0    0  501    0  0.00000000000E+00 -0.00000000000E+00 -0.95266480877E+02  0.95266480912E+02  0.25500000000E-02 0.  1.
    5000001    1    1    2    0    0 -0.34382772769E+02 -0.64002801023E+02 -0.39329536756E+02  0.11293514096E+03  0.77000000000E+02 0.  0.
   -5000001    1    1    2    0    0  0.34382772769E+02  0.64002801023E+02  0.12729956759E+03  0.16556785169E+03  0.77000000000E+02 0.  0.
<mgrwt>
<rscale>  0 0.26424457E+03</rscale>
<asrwt>0</asrwt>
<pdfrwt beam="1">  1        2 0.13609498E-01 0.26424457E+03</pdfrwt>
<pdfrwt beam="2">  1       -2 0.26176644E-01 0.26424457E+03</pdfrwt>
<totfact> 0.56833720E+03</totfact>
</mgrwt>
</event>
<event>
 4    1  0.5562790E-004  0.1668230E+03  0.7818608E-02  0.1181202E+00
          2   -1    0    0  501    0  0.00000000000E+00  0.00000000000E+00  0.17536211989E+04  0.17536211989E+04  0.25500000000E-02 0.  1.
         -2   -1    0    0    0  501 -0.00000000000E+00 -0.00000000000E+00 -0.39674895114E+01  0.39674903309E+01  0.25500000000E-02 0. -1.
    5000001    1    1    2    0    0  0.23554137185E+02  0.15733189273E+02  0.10332628288E+04  0.10365150284E+04  0.77000000000E+02 0.  0.
   -5000001    1    1    2    0    0 -0.23554137185E+02 -0.15733189273E+02  0.71639088061E+03  0.72107366090E+03  0.77000000000E+02 0.  0.
<mgrwt>
<rscale>  0 0.16682295E+03</rscale>
<asrwt>0</asrwt>
<pdfrwt beam="1">  1        2 0.25051700E+00 0.16682295E+03</pdfrwt>
<pdfrwt beam="2">  1       -2 0.56678498E-03 0.16682295E+03</pdfrwt>
<totfact> 0.54634228E+04</totfact>
</mgrwt>
</event>
<event>
 4    1  0.5562790E-004  0.1956723E+03  0.7818608E-02  0.1153442E+00
         -2   -1    0    0    0  501 -0.00000000000E+00  0.00000000000E+00  0.74176668798E+01  0.74176673182E+01  0.25500000000E-02 0. -1.
          2   -1    0    0  501    0  0.00000000000E+00 -0.00000000000E+00 -0.12904213331E+04  0.12904213331E+04  0.25500000000E-02 0.  1.
    5000001    1    1    2    0    0  0.13404586667E+01  0.53991604110E+02 -0.46278420438E+03  0.47224475642E+03  0.77000000000E+02 0.  0.
   -5000001    1    1    2    0    0 -0.13404586667E+01 -0.53991604110E+02 -0.82021946186E+03  0.82559424402E+03  0.77000000000E+02 0.  0.
<mgrwt>
<rscale>  0 0.19567234E+03</rscale>
<asrwt>0</asrwt>
<pdfrwt beam="1">  1        2 0.18434576E+00 0.19567234E+03</pdfrwt>
<pdfrwt beam="2">  1       -2 0.10596676E-02 0.19567234E+03</pdfrwt>
<totfact> 0.38319337E+04</totfact>
</mgrwt>
</event>
<event>
 4    1  0.5562790E-004  0.3122049E+03  0.7818608E-02  0.1079294E+00
          2   -1    0    0  501    0  0.00000000000E+00  0.00000000000E+00  0.89488225836E+02  0.89488225872E+02  0.25500000000E-02 0.  1.
         -2   -1    0    0    0  501 -0.00000000000E+00 -0.00000000000E+00 -0.27230369626E+03  0.27230369627E+03  0.25500000000E-02 0. -1.
    5000001    1    1    2    0    0 -0.11416421585E+03  0.41884429080E+02 -0.16143014126E+03  0.21627867229E+03  0.77000000000E+02 0.  0.
   -5000001    1    1    2    0    0  0.11416421585E+03 -0.41884429080E+02 -0.21385329162E+02  0.14551324985E+03  0.77000000000E+02 0.  0.
<mgrwt>
<rscale>  0 0.31220490E+03</rscale>
<asrwt>0</asrwt>
<pdfrwt beam="1">  1        2 0.12784032E-01 0.31220490E+03</pdfrwt>
<pdfrwt beam="2">  1       -2 0.38900528E-01 0.31220490E+03</pdfrwt>
<totfact> 0.29752940E+03</totfact>
</mgrwt>
</event>
<event>
 4    1  0.5562790E-004  0.2819482E+03  0.7818608E-02  0.1094630E+00
         -2   -1    0    0    0  501 -0.00000000000E+00  0.00000000000E+00  0.90162627991E+02  0.90162628027E+02  0.25500000000E-02 0. -1.
          2   -1    0    0  501    0  0.00000000000E+00 -0.00000000000E+00 -0.22042052949E+03  0.22042052950E+03  0.25500000000E-02 0.  1.
    5000001    1    1    2    0    0  0.39094052996E+02  0.74337653427E+02 -0.15656690223E+03  0.19364045696E+03  0.77000000000E+02 0.  0.
   -5000001    1    1    2    0    0 -0.39094052996E+02 -0.74337653427E+02  0.26309000737E+02  0.11694270057E+03  0.77000000000E+02 0.  0.
<mgrwt>
<rscale>  0 0.28194818E+03</rscale>
<asrwt>0</asrwt>
<pdfrwt beam="1">  1        2 0.31488647E-01 0.28194818E+03</pdfrwt>
<pdfrwt beam="2">  1       -2 0.12880376E-01 0.28194818E+03</pdfrwt>
<totfact> 0.72690953E+03</totfact>
</mgrwt>
</event>
<event>
 4    1  0.5562790E-004  0.5645028E+03  0.7818608E-02  0.9981918E-01
         -2   -1    0    0    0  501 -0.00000000000E+00  0.00000000000E+00  0.16050592724E+02  0.16050592926E+02  0.25500000000E-02 0. -1.
          2   -1    0    0  501    0  0.00000000000E+00 -0.00000000000E+00 -0.49634206755E+04  0.49634206755E+04  0.25500000000E-02 0.  1.
    5000001    1    1    2    0    0  0.98234765617E+02  0.24103574457E+03 -0.31563031584E+04  0.31679531132E+04  0.77000000000E+02 0.  0.
   -5000001    1    1    2    0    0 -0.98234765617E+02 -0.24103574457E+03 -0.17910669243E+04  0.18115181552E+04  0.77000000000E+02 0.  0.
<mgrwt>
<rscale>  0 0.56450277E+03</rscale>
<asrwt>0</asrwt>
<pdfrwt beam="1">  1        2 0.70905912E+00 0.56450277E+03</pdfrwt>
<pdfrwt beam="2">  1       -2 0.22929450E-02 0.56450277E+03</pdfrwt>
<totfact> 0.77100340E+01</totfact>
</mgrwt>
</event>
<event>
 4    1  0.5562790E-004  0.4473617E+03  0.7818608E-02  0.1028512E+00
         -2   -1    0    0    0  501 -0.00000000000E+00  0.00000000000E+00  0.40213490137E+02  0.40213490218E+02  0.25500000000E-02 0. -1.
          2   -1    0    0  501    0  0.00000000000E+00 -0.00000000000E+00 -0.12441873020E+04  0.12441873020E+04  0.25500000000E-02 0.  1.
    5000001    1    1    2    0    0 -0.65264601770E+02 -0.17982709686E+03 -0.35323238327E+03  0.40902245611E+03  0.77000000000E+02 0.  0.
   -5000001    1    1    2    0    0  0.65264601770E+02  0.17982709686E+03 -0.85074142859E+03  0.87537833611E+03  0.77000000000E+02 0.  0.
<mgrwt>
<rscale>  0 0.44736166E+03</rscale>
<asrwt>0</asrwt>
<pdfrwt beam="1">  1        2 0.17774102E+00 0.44736166E+03</pdfrwt>
<pdfrwt beam="2">  1       -2 0.57447850E-02 0.44736166E+03</pdfrwt>
<totfact> 0.33668876E+03</totfact>
</mgrwt>
</event>
<event>
 4    1  0.5562790E-004  0.3533733E+03  0.7818608E-02  0.1061239E+00
         -2   -1    0    0    0  501 -0.00000000000E+00  0.00000000000E+00  0.13264519691E+02  0.13264519937E+02  0.25500000000E-02 0.  1.
          2   -1    0    0  501    0  0.00000000000E+00 -0.00000000000E+00 -0.23535091745E+04  0.23535091745E+04  0.25500000000E-02 0. -1.
    5000001    1    1    2    0    0 -0.11498238468E+03 -0.90393717463E+02 -0.75200404713E+03  0.76995523237E+03  0.77000000000E+02 0.  0.
   -5000001    1    1    2    0    0  0.11498238468E+03  0.90393717463E+02 -0.15882406076E+04  0.15968184620E+04  0.77000000000E+02 0.  0.
<mgrwt>
<rscale>  0 0.35337328E+03</rscale>
<asrwt>0</asrwt>
<pdfrwt beam="1">  1        2 0.33621533E+00 0.35337328E+03</pdfrwt>
<pdfrwt beam="2">  1       -2 0.18949329E-02 0.35337328E+03</pdfrwt>
<totfact> 0.49562547E+03</totfact>
</mgrwt>
</event>
<event>
 4    1  0.5562790E-004  0.3176064E+03  0.7818608E-02  0.1076756E+00
         -2   -1    0    0    0  501 -0.00000000000E+00  0.00000000000E+00  0.23456264714E+02  0.23456264852E+02  0.25500000000E-02 0. -1.
          2   -1    0    0  501    0  0.00000000000E+00 -0.00000000000E+00 -0.10751264112E+04  0.10751264112E+04  0.25500000000E-02 0.  1.
    5000001    1    1    2    0    0  0.60041335607E+02 -0.12395876002E+03 -0.58758605442E+03  0.60840538091E+03  0.77000000000E+02 0.  0.
   -5000001    1    1    2    0    0 -0.60041335607E+02  0.12395876002E+03 -0.46408409202E+03  0.49017729511E+03  0.77000000000E+02 0.  0.
<mgrwt>
<rscale>  0 0.31760636E+03</rscale>
<asrwt>0</asrwt>
<pdfrwt beam="1">  1        2 0.15358946E+00 0.31760636E+03</pdfrwt>
<pdfrwt beam="2">  1       -2 0.33508957E-02 0.31760636E+03</pdfrwt>
<totfact> 0.94732695E+03</totfact>
</mgrwt>
</event>
<event>
 4    1  0.5562790E-004  0.1887335E+03  0.7818608E-02  0.1159609E+00
          2   -1    0    0  501    0  0.00000000000E+00  0.00000000000E+00  0.30991371872E+03  0.30991371873E+03  0.25500000000E-02 0.  1.
         -2   -1    0    0    0  501 -0.00000000000E+00 -0.00000000000E+00 -0.28734074366E+02  0.28734074479E+02  0.25500000000E-02 0. -1.
    5000001    1    1    2    0    0 -0.49134718617E+02 -0.18010466065E+02  0.11293832699E+03  0.14636482899E+03  0.77000000000E+02 0.  0.
   -5000001    1    1    2    0    0  0.49134718617E+02  0.18010466065E+02  0.16824131737E+03  0.19228296422E+03  0.77000000000E+02 0.  0.
<mgrwt>
<rscale>  0 0.18873350E+03</rscale>
<asrwt>0</asrwt>
<pdfrwt beam="1">  1        2 0.44273391E-01 0.18873350E+03</pdfrwt>
<pdfrwt beam="2">  1       -2 0.41048676E-02 0.18873350E+03</pdfrwt>
<totfact> 0.28982735E+04</totfact>
</mgrwt>
</event>
<event>
 4    1  0.5562790E-004  0.2345665E+03  0.7818608E-02  0.1123466E+00
          2   -1    0    0  501    0  0.00000000000E+00  0.00000000000E+00  0.13536305345E+04  0.13536305345E+04  0.25500000000E-02 0.  1.
         -2   -1    0    0    0  501 -0.00000000000E+00 -0.00000000000E+00 -0.10161827099E+02  0.10161827419E+02  0.25500000000E-02 0. -1.
    5000001    1    1    2    0    0 -0.66877395982E+02  0.57714443527E+02  0.64396232656E+03  0.65453802113E+03  0.77000000000E+02 0.  0.
   -5000001    1    1    2    0    0  0.66877395982E+02 -0.57714443527E+02  0.69950638082E+03  0.70925434077E+03  0.77000000000E+02 0.  0.
<mgrwt>
<rscale>  0 0.23456649E+03</rscale>
<asrwt>0</asrwt>
<pdfrwt beam="1">  1        2 0.19337562E+00 0.23456649E+03</pdfrwt>
<pdfrwt beam="2">  1       -2 0.14516909E-02 0.23456649E+03</pdfrwt>
<totfact> 0.22756478E+04</totfact>
</mgrwt>
</event>
<event>
 4    1  0.5562790E-004  0.3075177E+03  0.7818608E-02  0.1081542E+00
          2   -1    0    0  501    0  0.00000000000E+00  0.00000000000E+00  0.87835249764E+03  0.87835249765E+03  0.25500000000E-02 0.  1.
         -2   -1    0    0    0  501 -0.00000000000E+00 -0.00000000000E+00 -0.26916058912E+02  0.26916059033E+02  0.25500000000E-02 0. -1.
    5000001    1    1    2    0    0 -0.25520197320E+02 -0.12926497035E+03  0.48095452568E+03  0.50458593798E+03  0.77000000000E+02 0.  0.
   -5000001    1    1    2    0    0  0.25520197320E+02  0.12926497035E+03  0.37048191305E+03  0.40068261870E+03  0.77000000000E+02 0.  0.
<mgrwt>
<rscale>  0 0.30751772E+03</rscale>
<asrwt>0</asrwt>
<pdfrwt beam="1">  1        2 0.12547892E+00 0.30751772E+03</pdfrwt>
<pdfrwt beam="2">  1       -2 0.38451514E-02 0.30751772E+03</pdfrwt>
<totfact> 0.10110672E+04</totfact>
</mgrwt>
</event>
<event>
 4    1  0.5562790E-004  0.1973266E+03  0.7818608E-02  0.1152014E+00
         -2   -1    0    0    0  501 -0.00000000000E+00  0.00000000000E+00  0.16334822752E+02  0.16334822951E+02  0.25500000000E-02 0. -1.
          2   -1    0    0  501    0  0.00000000000E+00 -0.00000000000E+00 -0.59593222331E+03  0.59593222331E+03  0.25500000000E-02 0.  1.
    5000001    1    1    2    0    0 -0.16847284526E+02  0.47705631367E+02 -0.18028272029E+03  0.20246115058E+03  0.77000000000E+02 0.  0.
   -5000001    1    1    2    0    0  0.16847284526E+02 -0.47705631367E+02 -0.39931468027E+03  0.40980589569E+03  0.77000000000E+02 0.  0.
<mgrwt>
<rscale>  0 0.19732661E+03</rscale>
<asrwt>0</asrwt>
<pdfrwt beam="1">  1        2 0.85133161E-01 0.19732661E+03</pdfrwt>
<pdfrwt beam="2">  1       -2 0.23335465E-02 0.19732661E+03</pdfrwt>
<totfact> 0.33018608E+04</totfact>
</mgrwt>
</event>
<event>
 4    1  0.5562790E-004  0.4036308E+03  0.7818608E-02  0.1042530E+00
         -2   -1    0    0    0  501 -0.00000000000E+00  0.00000000000E+00  0.44499020954E+02  0.44499021027E+02  0.25500000000E-02 0. -1.
          2   -1    0    0  501    0  0.00000000000E+00 -0.00000000000E+00 -0.91528878575E+03  0.91528878575E+03  0.25500000000E-02 0.  1.
    5000001    1    1    2    0    0  0.89261410879E+02  0.15465550495E+03 -0.30702143198E+03  0.36342411089E+03  0.77000000000E+02 0.  0.
   -5000001    1    1    2    0    0 -0.89261410879E+02 -0.15465550495E+03 -0.56376833282E+03  0.59636369589E+03  0.77000000000E+02 0.  0.
<mgrwt>
<rscale>  0 0.40363080E+03</rscale>
<asrwt>0</asrwt>
<pdfrwt beam="1">  1        2 0.13075553E+00 0.40363080E+03</pdfrwt>
<pdfrwt beam="2">  1       -2 0.63570036E-02 0.40363080E+03</pdfrwt>
<totfact> 0.44667189E+03</totfact>
</mgrwt>
</event>
<event>
 4    1  0.5562790E-004  0.2768745E+03  0.7818608E-02  0.1097408E+00
          2   -1    0    0  501    0  0.00000000000E+00  0.00000000000E+00  0.12950737586E+04  0.12950737586E+04  0.25500000000E-02 0.  1.
         -2   -1    0    0    0  501 -0.00000000000E+00 -0.00000000000E+00 -0.14798288283E+02  0.14798288503E+02  0.25500000000E-02 0. -1.
    5000001    1    1    2    0    0 -0.11309756858E+03  0.20696903133E+02  0.65932753643E+03  0.67369223100E+03  0.77000000000E+02 0.  0.
   -5000001    1    1    2    0    0  0.11309756858E+03 -0.20696903133E+02  0.62094793385E+03  0.63617981607E+03  0.77000000000E+02 0.  0.
<mgrwt>
<rscale>  0 0.27687452E+03</rscale>
<asrwt>0</asrwt>
<pdfrwt beam="1">  1        2 0.18501046E+00 0.27687452E+03</pdfrwt>
<pdfrwt beam="2">  1       -2 0.21140421E-02 0.27687452E+03</pdfrwt>
<totfact> 0.14174222E+04</totfact>
</mgrwt>
</event>
<event>
 4    1  0.5562790E-004  0.1955527E+03  0.7818608E-02  0.1153546E+00
          2   -1    0    0  501    0  0.00000000000E+00  0.00000000000E+00  0.78146446197E+03  0.78146446197E+03  0.25500000000E-02 0.  1.
         -2   -1    0    0    0  501 -0.00000000000E+00 -0.00000000000E+00 -0.12233722339E+02  0.12233722605E+02  0.25500000000E-02 0. -1.
    5000001    1    1    2    0    0 -0.39622911577E+02  0.45002789161E+02  0.40896552228E+03  0.42044859919E+03  0.77000000000E+02 0.  0.
   -5000001    1    1    2    0    0  0.39622911577E+02 -0.45002789161E+02  0.36026521736E+03  0.37324958538E+03  0.77000000000E+02 0.  0.
<mgrwt>
<rscale>  0 0.19555275E+03</rscale>
<asrwt>0</asrwt>
<pdfrwt beam="1">  1        2 0.11163782E+00 0.19555275E+03</pdfrwt>
<pdfrwt beam="2">  1       -2 0.17476740E-02 0.19555275E+03</pdfrwt>
<totfact> 0.36679018E+04</totfact>
</mgrwt>
</event>
<event>
 4    1  0.5562790E-004  0.2030239E+03  0.7818608E-02  0.1147213E+00
          2   -1    0    0  501    0  0.00000000000E+00  0.00000000000E+00  0.13385820728E+04  0.13385820728E+04  0.25500000000E-02 0.  1.
         -2   -1    0    0    0  501 -0.00000000000E+00 -0.00000000000E+00 -0.76982003937E+01  0.76982008160E+01  0.25500000000E-02 0. -1.
    5000001    1    1    2    0    0 -0.62218804481E+02 -0.18065706175E+02  0.75394321308E+03  0.76062929074E+03  0.77000000000E+02 0.  0.
   -5000001    1    1    2    0    0  0.62218804481E+02  0.18065706175E+02  0.57694065928E+03  0.58565098284E+03  0.77000000000E+02 0.  0.
<mgrwt>
<rscale>  0 0.20302387E+03</rscale>
<asrwt>0</asrwt>
<pdfrwt beam="1">  1        2 0.19122602E+00 0.20302387E+03</pdfrwt>
<pdfrwt beam="2">  1       -2 0.10997429E-02 0.20302387E+03</pdfrwt>
<totfact> 0.34373421E+04</totfact>
</mgrwt>
</event>
<event>
 4    1  0.5562790E-004  0.2472094E+03  0.7818608E-02  0.1115081E+00
          2   -1    0    0  501    0  0.00000000000E+00  0.00000000000E+00  0.17351908316E+03  0.17351908318E+03  0.25500000000E-02 0.  1.
         -2   -1    0    0    0  501 -0.00000000000E+00 -0.00000000000E+00 -0.88048627861E+02  0.88048627898E+02  0.25500000000E-02 0. -1.
    5000001    1    1    2    0    0  0.45724192599E+02  0.69928035105E+02 -0.87585276789E+01  0.11395763989E+03  0.77000000000E+02 0.  0.
   -5000001    1    1    2    0    0 -0.45724192599E+02 -0.69928035105E+02  0.94228982978E+02  0.14761007119E+03  0.77000000000E+02 0.  0.
<mgrwt>
<rscale>  0 0.24720936E+03</rscale>
<asrwt>0</asrwt>
<pdfrwt beam="1">  1        2 0.24788440E-01 0.24720936E+03</pdfrwt>
<pdfrwt beam="2">  1       -2 0.12578375E-01 0.24720936E+03</pdfrwt>
<totfact> 0.97810095E+03</totfact>
</mgrwt>
</event>
<event>
 4    1  0.5562790E-004  0.3590048E+03  0.7818608E-02  0.1058979E+00
         -2   -1    0    0    0  501 -0.00000000000E+00  0.00000000000E+00  0.93782931893E+02  0.93782931927E+02  0.25500000000E-02 0. -1.
          2   -1    0    0  501    0  0.00000000000E+00 -0.00000000000E+00 -0.34357108939E+03  0.34357108940E+03  0.25500000000E-02 0.  1.
    5000001    1    1    2    0    0 -0.54341395594E+01  0.15835858191E+03 -0.16683293694E+03  0.24262975742E+03  0.77000000000E+02 0.  0.
   -5000001    1    1    2    0    0  0.54341395594E+01 -0.15835858191E+03 -0.82955220565E+02  0.19472426391E+03  0.77000000000E+02 0.  0.
<mgrwt>
<rscale>  0 0.35900476E+03</rscale>
<asrwt>0</asrwt>
<pdfrwt beam="1">  1        2 0.49081584E-01 0.35900476E+03</pdfrwt>
<pdfrwt beam="2">  1       -2 0.13397562E-01 0.35900476E+03</pdfrwt>
<totfact> 0.42397187E+03</totfact>
</mgrwt>
</event>
<event>
 4    1  0.5562790E-004  0.5005525E+03  0.7818608E-02  0.1013635E+00
         -2   -1    0    0    0  501 -0.00000000000E+00  0.00000000000E+00  0.58918886426E+02  0.58918886481E+02  0.25500000000E-02 0. -1.
          2   -1    0    0  501    0  0.00000000000E+00 -0.00000000000E+00 -0.10631259836E+04  0.10631259836E+04  0.25500000000E-02 0.  1.
    5000001    1    1    2    0    0 -0.12329181429E+03 -0.14096087778E+03 -0.83184439936E+03  0.85613371927E+03  0.77000000000E+02 0.  0.
   -5000001    1    1    2    0    0  0.12329181429E+03  0.14096087778E+03 -0.17236269786E+03  0.26591115085E+03  0.77000000000E+02 0.  0.
<mgrwt>
<rscale>  0 0.50055249E+03</rscale>
<asrwt>0</asrwt>
<pdfrwt beam="1">  1        2 0.15187513E+00 0.50055249E+03</pdfrwt>
<pdfrwt beam="2">  1       -2 0.84169844E-02 0.50055249E+03</pdfrwt>
<totfact> 0.23384905E+03</totfact>
</mgrwt>
</event>
<event>
 4    1  0.5562790E-004  0.1622073E+03  0.7818608E-02  0.1186227E+00
          2   -1    0    0  501    0  0.00000000000E+00  0.00000000000E+00  0.16427188238E+04  0.16427188238E+04  0.25500000000E-02 0.  1.
         -2   -1    0    0    0  501 -0.00000000000E+00 -0.00000000000E+00 -0.40042165330E+01  0.40042173450E+01  0.25500000000E-02 0. -1.
    5000001    1    1    2    0    0  0.47458513557E+01 -0.23355271981E+02  0.72809643272E+03  0.73254447454E+03  0.77000000000E+02 0.  0.
   -5000001    1    1    2    0    0 -0.47458513557E+01  0.23355271981E+02  0.91061817451E+03  0.91417856658E+03  0.77000000000E+02 0.  0.
<mgrwt>
<rscale>  0 0.16220731E+03</rscale>
<asrwt>0</asrwt>
<pdfrwt beam="1">  1        2 0.23467457E+00 0.16220731E+03</pdfrwt>
<pdfrwt beam="2">  1       -2 0.57202989E-03 0.16220731E+03</pdfrwt>
<totfact> 0.60877459E+04</totfact>
</mgrwt>
</event>
<event>
 4    1  0.5562790E-004  0.3639953E+03  0.7818608E-02  0.1057013E+00
         -2   -1    0    0    0  501 -0.00000000000E+00  0.00000000000E+00  0.40447024132E+02  0.40447024213E+02  0.25500000000E-02 0. -1.
          2   -1    0    0  501    0  0.00000000000E+00 -0.00000000000E+00 -0.81892677495E+03  0.81892677495E+03  0.25500000000E-02 0.  1.
    5000001    1    1    2    0    0  0.15555077457E+02  0.13668617202E+03 -0.60393140672E+03  0.62416921910E+03  0.77000000000E+02 0.  0.
   -5000001    1    1    2    0    0 -0.15555077457E+02 -0.13668617202E+03 -0.17454834410E+03  0.23520458006E+03  0.77000000000E+02 0.  0.
<mgrwt>
<rscale>  0 0.36399534E+03</rscale>
<asrwt>0</asrwt>
<pdfrwt beam="1">  1        2 0.11698953E+00 0.36399534E+03</pdfrwt>
<pdfrwt beam="2">  1       -2 0.57781468E-02 0.36399534E+03</pdfrwt>
<totfact> 0.59699586E+03</totfact>
</mgrwt>
</event>
<event>
 4    1  0.5562790E-004  0.1771403E+03  0.7818608E-02  0.1170600E+00
          2   -1    0    0  501    0  0.00000000000E+00  0.00000000000E+00  0.12827093225E+04  0.12827093225E+04  0.25500000000E-02 0.  1.
         -2   -1    0    0    0  501 -0.00000000000E+00 -0.00000000000E+00 -0.61157054883E+01  0.61157060199E+01  0.25500000000E-02 0. -1.
    5000001    1    1    2    0    0  0.40251830174E+02  0.30072776042E+01  0.76143071007E+03  0.76637783096E+03  0.77000000000E+02 0.  0.
   -5000001    1    1    2    0    0 -0.40251830174E+02 -0.30072776042E+01  0.51516290693E+03  0.52244719755E+03  0.77000000000E+02 0.  0.
<mgrwt>
<rscale>  0 0.17714031E+03</rscale>
<asrwt>0</asrwt>
<pdfrwt beam="1">  1        2 0.18324429E+00 0.17714031E+03</pdfrwt>
<pdfrwt beam="2">  1       -2 0.87367177E-03 0.17714031E+03</pdfrwt>
<totfact> 0.50676705E+04</totfact>
</mgrwt>
</event>
<event>
 4    1  0.5562790E-004  0.3179627E+03  0.7818608E-02  0.1076591E+00
         -2   -1    0    0    0  501 -0.00000000000E+00  0.00000000000E+00  0.17937815514E+02  0.17937815695E+02  0.25500000000E-02 0. -1.
          2   -1    0    0  501    0  0.00000000000E+00 -0.00000000000E+00 -0.14090381161E+04  0.14090381161E+04  0.25500000000E-02 0.  1.
    5000001    1    1    2    0    0  0.82291502893E+02 -0.54509042799E+02 -0.25576295272E+03  0.28475746730E+03  0.77000000000E+02 0.  0.
   -5000001    1    1    2    0    0 -0.82291502893E+02  0.54509042799E+02 -0.11353373478E+04  0.11422184645E+04  0.77000000000E+02 0.  0.
<mgrwt>
<rscale>  0 0.31796268E+03</rscale>
<asrwt>0</asrwt>
<pdfrwt beam="1">  1        2 0.20129109E+00 0.31796268E+03</pdfrwt>
<pdfrwt beam="2">  1       -2 0.25625460E-02 0.31796268E+03</pdfrwt>
<totfact> 0.93306637E+03</totfact>
</mgrwt>
</event>
<event>
 4    1  0.5562790E-004  0.1755102E+03  0.7818608E-02  0.1172220E+00
          2   -1    0    0  501    0  0.00000000000E+00  0.00000000000E+00  0.30072194815E+04  0.30072194815E+04  0.25500000000E-02 0.  1.
         -2   -1    0    0    0  501 -0.00000000000E+00 -0.00000000000E+00 -0.25608226234E+01  0.25608238930E+01  0.25500000000E-02 0. -1.
    5000001    1    1    2    0    0 -0.37848976521E+02  0.11913297861E+02  0.17433201419E+04  0.17454708788E+04  0.77000000000E+02 0.  0.
   -5000001    1    1    2    0    0  0.37848976521E+02 -0.11913297861E+02  0.12613385169E+04  0.12643094265E+04  0.77000000000E+02 0.  0.
<mgrwt>
<rscale>  0 0.17551020E+03</rscale>
<asrwt>0</asrwt>
<pdfrwt beam="1">  1        2 0.42960531E+00 0.17551020E+03</pdfrwt>
<pdfrwt beam="2">  1       -2 0.36582974E-03 0.17551020E+03</pdfrwt>
<totfact> 0.24736874E+04</totfact>
</mgrwt>
</event>
<event>
 4    1  0.5562790E-004  0.5058039E+03  0.7818608E-02  0.1012275E+00
         -2   -1    0    0    0  501 -0.00000000000E+00  0.00000000000E+00  0.61087578465E+02  0.61087578518E+02  0.25500000000E-02 0. -1.
          2   -1    0    0  501    0  0.00000000000E+00 -0.00000000000E+00 -0.10470115482E+04  0.10470115482E+04  0.25500000000E-02 0.  1.
    5000001    1    1    2    0    0 -0.39524456991E+02 -0.21173737657E+03 -0.72927572088E+03  0.76430816848E+03  0.77000000000E+02 0.  0.
   -5000001    1    1    2    0    0  0.39524456991E+02  0.21173737657E+03 -0.25664824889E+03  0.34379095828E+03  0.77000000000E+02 0.  0.
<mgrwt>
<rscale>  0 0.50580392E+03</rscale>
<asrwt>0</asrwt>
<pdfrwt beam="1">  1        2 0.14957307E+00 0.50580392E+03</pdfrwt>
<pdfrwt beam="2">  1       -2 0.87267976E-02 0.50580392E+03</pdfrwt>
<totfact> 0.22562205E+03</totfact>
</mgrwt>
</event>
<event>
 4    1  0.5562790E-004  0.2132845E+03  0.7818608E-02  0.1138991E+00
          2   -1    0    0  501    0  0.00000000000E+00  0.00000000000E+00  0.47091536683E+03  0.47091536684E+03  0.25500000000E-02 0. -1.
         -2   -1    0    0    0  501 -0.00000000000E+00 -0.00000000000E+00 -0.24149914938E+02  0.24149915073E+02  0.25500000000E-02 0.  1.
    5000001    1    1    2    0    0  0.70309597354E+02  0.22187513801E+01  0.17172976727E+03  0.20091907651E+03  0.77000000000E+02 0.  0.
   -5000001    1    1    2    0    0 -0.70309597354E+02 -0.22187513801E+01  0.27503568463E+03  0.29414620541E+03  0.77000000000E+02 0.  0.
<mgrwt>
<rscale>  0 0.21328447E+03</rscale>
<asrwt>0</asrwt>
<pdfrwt beam="1">  1        2 0.67273626E-01 0.21328447E+03</pdfrwt>
<pdfrwt beam="2">  1       -2 0.34499878E-02 0.21328447E+03</pdfrwt>
<totfact> 0.24193051E+04</totfact>
</mgrwt>
</event>
<event>
 4    1  0.5562790E-004  0.2400981E+03  0.7818608E-02  0.1119727E+00
         -2   -1    0    0    0  501 -0.00000000000E+00  0.00000000000E+00  0.93068495869E+01  0.93068499362E+01  0.25500000000E-02 0. -1.
          2   -1    0    0  501    0  0.00000000000E+00 -0.00000000000E+00 -0.15485128577E+04  0.15485128577E+04  0.25500000000E-02 0.  1.
    5000001    1    1    2    0    0 -0.91569412503E+02  0.81015637170E+01 -0.80641146506E+03  0.81527850679E+03  0.77000000000E+02 0.  0.
   -5000001    1    1    2    0    0  0.91569412503E+02 -0.81015637170E+01 -0.73279454306E+03  0.74254120086E+03  0.77000000000E+02 0.  0.
<mgrwt>
<rscale>  0 0.24009812E+03</rscale>
<asrwt>0</asrwt>
<pdfrwt beam="1">  1        2 0.22121596E+00 0.24009812E+03</pdfrwt>
<pdfrwt beam="2">  1       -2 0.13295509E-02 0.24009812E+03</pdfrwt>
<totfact> 0.20620293E+04</totfact>
</mgrwt>
</event>
<event>
 4    1  0.5562790E-004  0.2156549E+03  0.7818608E-02  0.1137165E+00
         -2   -1    0    0    0  501 -0.00000000000E+00  0.00000000000E+00  0.48793750238E+01  0.48793756901E+01  0.25500000000E-02 0. -1.
          2   -1    0    0  501    0  0.00000000000E+00 -0.00000000000E+00 -0.23828370760E+04  0.23828370760E+04  0.25500000000E-02 0.  1.
    5000001    1    1    2    0    0  0.93580573364E+01 -0.60778257667E+02 -0.70431305116E+03  0.71117328682E+03  0.77000000000E+02 0.  0.
   -5000001    1    1    2    0    0 -0.93580573364E+01  0.60778257667E+02 -0.16736446498E+04  0.16765431649E+04  0.77000000000E+02 0.  0.
<mgrwt>
<rscale>  0 0.21565488E+03</rscale>
<asrwt>0</asrwt>
<pdfrwt beam="1">  1        2 0.34040455E+00 0.21565488E+03</pdfrwt>
<pdfrwt beam="2">  1       -2 0.69705515E-03 0.21565488E+03</pdfrwt>
<totfact> 0.20472414E+04</totfact>
</mgrwt>
</event>
<event>
 4    1  0.5562790E-004  0.3391199E+03  0.7818608E-02  0.1067171E+00
         -2   -1    0    0    0  501 -0.00000000000E+00  0.00000000000E+00  0.75684367579E+02  0.75684367622E+02  0.25500000000E-02 0. -1.
          2   -1    0    0  501    0  0.00000000000E+00 -0.00000000000E+00 -0.37987468391E+03  0.37987468392E+03  0.25500000000E-02 0.  1.
    5000001    1    1    2    0    0  0.13984916192E+03 -0.20881940086E+02 -0.80660245764E+02  0.18008031196E+03  0.77000000000E+02 0.  0.
   -5000001    1    1    2    0    0 -0.13984916192E+03  0.20881940086E+02 -0.22353007057E+03  0.27547873958E+03  0.77000000000E+02 0.  0.
<mgrwt>
<rscale>  0 0.33911989E+03</rscale>
<asrwt>0</asrwt>
<pdfrwt beam="1">  1        2 0.54267811E-01 0.33911989E+03</pdfrwt>
<pdfrwt beam="2">  1       -2 0.10812053E-01 0.33911989E+03</pdfrwt>
<totfact> 0.53783507E+03</totfact>
</mgrwt>
</event>
<event>
 4    1  0.5562790E-004  0.2459702E+03  0.7818608E-02  0.1115878E+00
          2   -1    0    0  501    0  0.00000000000E+00  0.00000000000E+00  0.13807091533E+04  0.13807091533E+04  0.25500000000E-02 0.  1.
         -2   -1    0    0    0  501 -0.00000000000E+00 -0.00000000000E+00 -0.10954762069E+02  0.10954762366E+02  0.25500000000E-02 0. -1.
    5000001    1    1    2    0    0  0.23786881536E+02 -0.81537017766E+02  0.93677817204E+03  0.94376715593E+03  0.77000000000E+02 0.  0.
   -5000001    1    1    2    0    0 -0.23786881536E+02  0.81537017766E+02  0.43297621919E+03  0.44789675974E+03  0.77000000000E+02 0.  0.
<mgrwt>
<rscale>  0 0.24597025E+03</rscale>
<asrwt>0</asrwt>
<pdfrwt beam="1">  1        2 0.19724398E+00 0.24597025E+03</pdfrwt>
<pdfrwt beam="2">  1       -2 0.15649675E-02 0.24597025E+03</pdfrwt>
<totfact> 0.19792361E+04</totfact>
</mgrwt>
</event>
<event>
 4    1  0.5562790E-004  0.1918453E+03  0.7818608E-02  0.1156807E+00
         -2   -1    0    0    0  501 -0.00000000000E+00  0.00000000000E+00  0.21181314142E+03  0.21181314144E+03  0.25500000000E-02 0. -1.
          2   -1    0    0  501    0  0.00000000000E+00 -0.00000000000E+00 -0.43439965312E+02  0.43439965387E+02  0.25500000000E-02 0.  1.
    5000001    1    1    2    0    0  0.47526602190E+02  0.29170276853E+02  0.10114596398E+03  0.13881350438E+03  0.77000000000E+02 0.  0.
   -5000001    1    1    2    0    0 -0.47526602190E+02 -0.29170276853E+02  0.67227212126E+02  0.11643960245E+03  0.77000000000E+02 0.  0.
<mgrwt>
<rscale>  0 0.19184531E+03</rscale>
<asrwt>0</asrwt>
<pdfrwt beam="1">  1        2 0.62057095E-02 0.19184531E+03</pdfrwt>
<pdfrwt beam="2">  1       -2 0.30259019E-01 0.19184531E+03</pdfrwt>
<totfact> 0.11470799E+04</totfact>
</mgrwt>
</event>
<event>
 4    1  0.5562790E-004  0.2527068E+03  0.7818608E-02  0.1111606E+00
          2   -1    0    0  501    0  0.00000000000E+00  0.00000000000E+00  0.96921978338E+02  0.96921978371E+02  0.25500000000E-02 0.  1.
         -2   -1    0    0    0  501 -0.00000000000E+00 -0.00000000000E+00 -0.16472199595E+03  0.16472199597E+03  0.25500000000E-02 0. -1.
    5000001    1    1    2    0    0 -0.63012440587E+02 -0.75929607301E+02 -0.51842297306E+02  0.13547138710E+03  0.77000000000E+02 0.  0.
   -5000001    1    1    2    0    0  0.63012440587E+02  0.75929607301E+02 -0.15957720309E+02  0.12617258724E+03  0.77000000000E+02 0.  0.
<mgrwt>
<rscale>  0 0.25270680E+03</rscale>
<asrwt>0</asrwt>
<pdfrwt beam="1">  1        2 0.13845997E-01 0.25270680E+03</pdfrwt>
<pdfrwt beam="2">  1       -2 0.23531714E-01 0.25270680E+03</pdfrwt>
<totfact> 0.67031743E+03</totfact>
</mgrwt>
</event>
<event>
 4    1  0.5562790E-004  0.1666507E+03  0.7818608E-02  0.1181386E+00
          2   -1    0    0  501    0  0.00000000000E+00  0.00000000000E+00  0.41905500475E+02  0.41905500553E+02  0.25500000000E-02 0.  1.
         -2   -1    0    0    0  501 -0.00000000000E+00 -0.00000000000E+00 -0.16568509715E+03  0.16568509717E+03  0.25500000000E-02 0. -1.
    5000001    1    1    2    0    0  0.92707796076E+01  0.30403453581E+02 -0.59461687998E+02  0.10234749476E+03  0.77000000000E+02 0.  0.
   -5000001    1    1    2    0    0 -0.92707796076E+01 -0.30403453581E+02 -0.64317908673E+02  0.10524310296E+03  0.77000000000E+02 0.  0.
<mgrwt>
<rscale>  0 0.16665074E+03</rscale>
<asrwt>0</asrwt>
<pdfrwt beam="1">  1        2 0.59865001E-02 0.16665074E+03</pdfrwt>
<pdfrwt beam="2">  1       -2 0.23669299E-01 0.16665074E+03</pdfrwt>
<totfact> 0.18354913E+04</totfact>
</mgrwt>
</event>
<event>
 4    1  0.5562790E-004  0.2964768E+03  0.7818608E-02  0.1087015E+00
         -2   -1    0    0    0  501 -0.00000000000E+00  0.00000000000E+00  0.25947924889E+03  0.25947924890E+03  0.25500000000E-02 0. -1.
          2   -1    0    0  501    0  0.00000000000E+00 -0.00000000000E+00 -0.84687417204E+02  0.84687417242E+02  0.25500000000E-02 0.  1.
    5000001    1    1    2    0    0  0.12498192918E+03  0.17239729632E+02  0.10052623583E+03  0.17875182513E+03  0.77000000000E+02 0.  0.
   -5000001    1    1    2    0    0 -0.12498192918E+03 -0.17239729632E+02  0.74265595850E+02  0.16541484101E+03  0.77000000000E+02 0.  0.
<mgrwt>
<rscale>  0 0.29647683E+03</rscale>
<asrwt>0</asrwt>
<pdfrwt beam="1">  1        2 0.12098203E-01 0.29647683E+03</pdfrwt>
<pdfrwt beam="2">  1       -2 0.37068464E-01 0.29647683E+03</pdfrwt>
<totfact> 0.34813519E+03</totfact>
</mgrwt>
</event>
<event>
 4    1  0.5562790E-004  0.2252928E+03  0.7818608E-02  0.1129997E+00
          2   -1    0    0  501    0  0.00000000000E+00  0.00000000000E+00  0.17395354070E+03  0.17395354072E+03  0.25500000000E-02 0.  1.
         -2   -1    0    0    0  501 -0.00000000000E+00 -0.00000000000E+00 -0.72945980710E+02  0.72945980755E+02  0.25500000000E-02 0. -1.
    5000001    1    1    2    0    0 -0.60810815975E+02  0.32054723544E+02  0.10694597622E+01  0.10322598697E+03  0.77000000000E+02 0.  0.
   -5000001    1    1    2    0    0  0.60810815975E+02 -0.32054723544E+02  0.99938100232E+02  0.14367353451E+03  0.77000000000E+02 0.  0.
<mgrwt>
<rscale>  0 0.22529280E+03</rscale>
<asrwt>0</asrwt>
<pdfrwt beam="1">  1        2 0.24850505E-01 0.22529280E+03</pdfrwt>
<pdfrwt beam="2">  1       -2 0.10420855E-01 0.22529280E+03</pdfrwt>
<totfact> 0.13122552E+04</totfact>
</mgrwt>
</event>
<event>
 4    1  0.5562790E-004  0.1000444E+04  0.7818608E-02  0.9308058E-01
         -2   -1    0    0    0  501 -0.00000000000E+00  0.00000000000E+00  0.83557362312E+03  0.83557362313E+03  0.25500000000E-02 0.  1.
          2   -1    0    0  501    0  0.00000000000E+00 -0.00000000000E+00 -0.29946140343E+03  0.29946140344E+03  0.25500000000E-02 0. -1.
    5000001    1    1    2    0    0 -0.35438458224E+03 -0.16531641525E+02 -0.12237981299E+03  0.38310252666E+03  0.77000000000E+02 0.  0.
   -5000001    1    1    2    0    0  0.35438458224E+03  0.16531641525E+02  0.65849203269E+03  0.75193249991E+03  0.77000000000E+02 0.  0.
<mgrwt>
<rscale>  0 0.10004440E+04</rscale>
<asrwt>0</asrwt>
<pdfrwt beam="1">  1        2 0.42780201E-01 0.10004440E+04</pdfrwt>
<pdfrwt beam="2">  1       -2 0.11936766E+00 0.10004440E+04</pdfrwt>
<totfact> 0.64196976E+01</totfact>
</mgrwt>
</event>
<event>
 4    1  0.5562790E-004  0.1818580E+03  0.7818608E-02  0.1166017E+00
          2   -1    0    0  501    0  0.00000000000E+00  0.00000000000E+00  0.21054652149E+04  0.21054652149E+04  0.25500000000E-02 0.  1.
         -2   -1    0    0    0  501 -0.00000000000E+00 -0.00000000000E+00 -0.39269614548E+01  0.39269622827E+01  0.25500000000E-02 0. -1.
    5000001    1    1    2    0    0  0.39059529341E+02  0.28435364600E+02  0.10763525467E+04  0.10801842535E+04  0.77000000000E+02 0.  0.
   -5000001    1    1    2    0    0 -0.39059529341E+02 -0.28435364600E+02  0.10251857068E+04  0.10292079237E+04  0.77000000000E+02 0.  0.
<mgrwt>
<rscale>  0 0.18185798E+03</rscale>
<asrwt>0</asrwt>
<pdfrwt beam="1">  1        2 0.30078096E+00 0.18185798E+03</pdfrwt>
<pdfrwt beam="2">  1       -2 0.56099415E-03 0.18185798E+03</pdfrwt>
<totfact> 0.37793851E+04</totfact>
</mgrwt>
</event>
<event>
 4    1  0.5562790E-004  0.2500078E+03  0.7818608E-02  0.1113300E+00
         -2   -1    0    0    0  501 -0.00000000000E+00  0.00000000000E+00  0.64352874592E+01  0.64352879644E+01  0.25500000000E-02 0. -1.
          2   -1    0    0  501    0  0.00000000000E+00 -0.00000000000E+00 -0.24281700150E+04  0.24281700150E+04  0.25500000000E-02 0.  1.
    5000001    1    1    2    0    0 -0.78825892871E+02 -0.97676616111E+01 -0.64404162490E+03  0.65347344491E+03  0.77000000000E+02 0.  0.
   -5000001    1    1    2    0    0  0.78825892871E+02  0.97676616111E+01 -0.17776931027E+04  0.17811318581E+04  0.77000000000E+02 0.  0.
<mgrwt>
<rscale>  0 0.25000778E+03</rscale>
<asrwt>0</asrwt>
<pdfrwt beam="1">  1        2 0.34688084E+00 0.25000778E+03</pdfrwt>
<pdfrwt beam="2">  1       -2 0.91932837E-03 0.25000778E+03</pdfrwt>
<totfact> 0.13093866E+04</totfact>
</mgrwt>
</event>
<event>
 4    1  0.5562790E-004  0.3493505E+03  0.7818608E-02  0.1062882E+00
         -2   -1    0    0    0  501 -0.00000000000E+00  0.00000000000E+00  0.94463916692E+01  0.94463920133E+01  0.25500000000E-02 0. -1.
          2   -1    0    0  501    0  0.00000000000E+00 -0.00000000000E+00 -0.32299575796E+04  0.32299575796E+04  0.25500000000E-02 0.  1.
    5000001    1    1    2    0    0 -0.42983924154E+02  0.12978154489E+03 -0.23219925813E+04  0.23272879957E+04  0.77000000000E+02 0.  0.
   -5000001    1    1    2    0    0  0.42983924154E+02 -0.12978154489E+03 -0.89851860663E+03  0.91211597595E+03  0.77000000000E+02 0.  0.
<mgrwt>
<rscale>  0 0.34935051E+03</rscale>
<asrwt>0</asrwt>
<pdfrwt beam="1">  1        2 0.46142180E+00 0.34935051E+03</pdfrwt>
<pdfrwt beam="2">  1       -2 0.13494866E-02 0.34935051E+03</pdfrwt>
<totfact> 0.28528967E+03</totfact>
</mgrwt>
</event>
<event>
 4    1  0.5562790E-004  0.2233140E+03  0.7818608E-02  0.1131436E+00
         -2   -1    0    0    0  501 -0.00000000000E+00  0.00000000000E+00  0.10379232548E+02  0.10379232861E+02  0.25500000000E-02 0. -1.
          2   -1    0    0  501    0  0.00000000000E+00 -0.00000000000E+00 -0.12011758635E+04  0.12011758635E+04  0.25500000000E-02 0.  1.
    5000001    1    1    2    0    0  0.18203441870E+02  0.72648017766E+02 -0.76077646123E+03  0.76832214842E+03  0.77000000000E+02 0.  0.
   -5000001    1    1    2    0    0 -0.18203441870E+02 -0.72648017766E+02 -0.43002016974E+03  0.44323294797E+03  0.77000000000E+02 0.  0.
<mgrwt>
<rscale>  0 0.22331398E+03</rscale>
<asrwt>0</asrwt>
<pdfrwt beam="1">  1        2 0.17159646E+00 0.22331398E+03</pdfrwt>
<pdfrwt beam="2">  1       -2 0.14827483E-02 0.22331398E+03</pdfrwt>
<totfact> 0.26481104E+04</totfact>
</mgrwt>
</event>
<event>
 4    1  0.5562790E-004  0.2889299E+03  0.7818608E-02  0.1090909E+00
          2   -1    0    0  501    0  0.00000000000E+00  0.00000000000E+00  0.98632777708E+03  0.98632777709E+03  0.25500000000E-02 0.  1.
         -2   -1    0    0    0  501 -0.00000000000E+00 -0.00000000000E+00 -0.21159411042E+02  0.21159411196E+02  0.25500000000E-02 0. -1.
    5000001    1    1    2    0    0 -0.84658953218E+02  0.52935085159E+02  0.23671377014E+03  0.26820080271E+03  0.77000000000E+02 0.  0.
   -5000001    1    1    2    0    0  0.84658953218E+02 -0.52935085159E+02  0.72845459590E+03  0.73928638557E+03  0.77000000000E+02 0.  0.
<mgrwt>
<rscale>  0 0.28892985E+03</rscale>
<asrwt>0</asrwt>
<pdfrwt beam="1">  1        2 0.14090397E+00 0.28892985E+03</pdfrwt>
<pdfrwt beam="2">  1       -2 0.30227729E-02 0.28892985E+03</pdfrwt>
<totfact> 0.12417650E+04</totfact>
</mgrwt>
</event>
<event>
 4    1  0.5562790E-004  0.1828461E+03  0.7818608E-02  0.1165077E+00
          2   -1    0    0  501    0  0.00000000000E+00  0.00000000000E+00  0.33422957090E+03  0.33422957091E+03  0.25500000000E-02 0.  1.
         -2   -1    0    0    0  501 -0.00000000000E+00 -0.00000000000E+00 -0.25007280842E+02  0.25007280972E+02  0.25500000000E-02 0. -1.
    5000001    1    1    2    0    0 -0.12899743915E+02 -0.37171874642E+02  0.96295058445E+02  0.12942136585E+03  0.77000000000E+02 0.  0.
   -5000001    1    1    2    0    0  0.12899743915E+02  0.37171874642E+02  0.21292723162E+03  0.22981548603E+03  0.77000000000E+02 0.  0.
<mgrwt>
<rscale>  0 0.18284609E+03</rscale>
<asrwt>0</asrwt>
<pdfrwt beam="1">  1        2 0.47747086E-01 0.18284609E+03</pdfrwt>
<pdfrwt beam="2">  1       -2 0.35724684E-02 0.18284609E+03</pdfrwt>
<totfact> 0.32803233E+04</totfact>
</mgrwt>
</event>
<event>
 4    1  0.5562790E-004  0.2503998E+03  0.7818608E-02  0.1113052E+00
          2   -1    0    0  501    0  0.00000000000E+00  0.00000000000E+00  0.10438440674E+04  0.10438440674E+04  0.25500000000E-02 0.  1.
         -2   -1    0    0    0  501 -0.00000000000E+00 -0.00000000000E+00 -0.15016620239E+02  0.15016620456E+02  0.25500000000E-02 0. -1.
    5000001    1    1    2    0    0 -0.94634667496E+02 -0.24526660844E+02  0.57250734760E+03  0.58587621597E+03  0.77000000000E+02 0.  0.
   -5000001    1    1    2    0    0  0.94634667496E+02  0.24526660844E+02  0.45632009957E+03  0.47298447190E+03  0.77000000000E+02 0.  0.
<mgrwt>
<rscale>  0 0.25039976E+03</rscale>
<asrwt>0</asrwt>
<pdfrwt beam="1">  1        2 0.14912062E+00 0.25039976E+03</pdfrwt>
<pdfrwt beam="2">  1       -2 0.21452309E-02 0.25039976E+03</pdfrwt>
<totfact> 0.18981294E+04</totfact>
</mgrwt>
</event>
<event>
 4    1  0.5562790E-004  0.3137828E+03  0.7818608E-02  0.1078547E+00
          2   -1    0    0  501    0  0.00000000000E+00  0.00000000000E+00  0.11495937458E+04  0.11495937458E+04  0.25500000000E-02 0.  1.
         -2   -1    0    0    0  501 -0.00000000000E+00 -0.00000000000E+00 -0.21411835111E+02  0.21411835263E+02  0.25500000000E-02 0. -1.
    5000001    1    1    2    0    0 -0.53859590519E+02 -0.12480684290E+03  0.61795303412E+03  0.63739513326E+03  0.77000000000E+02 0.  0.
   -5000001    1    1    2    0    0  0.53859590519E+02  0.12480684290E+03  0.51022887659E+03  0.53361044782E+03  0.77000000000E+02 0.  0.
<mgrwt>
<rscale>  0 0.31378280E+03</rscale>
<asrwt>0</asrwt>
<pdfrwt beam="1">  1        2 0.16422772E+00 0.31378280E+03</pdfrwt>
<pdfrwt beam="2">  1       -2 0.30588329E-02 0.31378280E+03</pdfrwt>
<totfact> 0.98554211E+03</totfact>
</mgrwt>
</event>
<event>
 4    1  0.5562790E-004  0.2741790E+03  0.7818608E-02  0.1098911E+00
          2   -1    0    0  501    0  0.00000000000E+00  0.00000000000E+00  0.16731887252E+02  0.16731887447E+02  0.25500000000E-02 0.  1.
         -2   -1    0    0    0  501 -0.00000000000E+00 -0.00000000000E+00 -0.11232163817E+04  0.11232163817E+04  0.25500000000E-02 0. -1.
    5000001    1    1    2    0    0  0.35039792794E+01 -0.10488511080E+03 -0.73213677923E+03  0.74361712449E+03  0.77000000000E+02 0.  0.
   -5000001    1    1    2    0    0 -0.35039792794E+01  0.10488511080E+03 -0.37434771524E+03  0.39633114468E+03  0.77000000000E+02 0.  0.
<mgrwt>
<rscale>  0 0.27417899E+03</rscale>
<asrwt>0</asrwt>
<pdfrwt beam="1">  1        2 0.23902703E-02 0.27417899E+03</pdfrwt>
<pdfrwt beam="2">  1       -2 0.16045944E+00 0.27417899E+03</pdfrwt>
<totfact> 0.11380168E+03</totfact>
</mgrwt>
</event>
<event>
 4    1  0.5562790E-004  0.2274281E+03  0.7818608E-02  0.1128463E+00
          2   -1    0    0  501    0  0.00000000000E+00  0.00000000000E+00  0.11154375114E+04  0.11154375114E+04  0.25500000000E-02 0.  1.
         -2   -1    0    0    0  501 -0.00000000000E+00 -0.00000000000E+00 -0.11592656260E+02  0.11592656540E+02  0.25500000000E-02 0. -1.
    5000001    1    1    2    0    0 -0.83441525947E+02 -0.37875610710E+01  0.52711996738E+03  0.53922286105E+03  0.77000000000E+02 0.  0.
   -5000001    1    1    2    0    0  0.83441525947E+02  0.37875610710E+01  0.57672488772E+03  0.58780730685E+03  0.77000000000E+02 0.  0.
<mgrwt>
<rscale>  0 0.22742809E+03</rscale>
<asrwt>0</asrwt>
<pdfrwt beam="1">  1        2 0.15934819E+00 0.22742809E+03</pdfrwt>
<pdfrwt beam="2">  1       -2 0.16560940E-02 0.22742809E+03</pdfrwt>
<totfact> 0.25137346E+04</totfact>
</mgrwt>
</event>
<event>
 4    1  0.5562790E-004  0.1917192E+03  0.7818608E-02  0.1156920E+00
         -2   -1    0    0    0  501 -0.00000000000E+00  0.00000000000E+00  0.77202516609E+01  0.77202520820E+01  0.25500000000E-02 0. -1.
          2   -1    0    0  501    0  0.00000000000E+00 -0.00000000000E+00 -0.11902544815E+04  0.11902544815E+04  0.25500000000E-02 0.  1.
    5000001    1    1    2    0    0  0.51201669187E+02 -0.18681416295E+02 -0.69757730782E+03  0.70392734471E+03  0.77000000000E+02 0.  0.
   -5000001    1    1    2    0    0 -0.51201669187E+02  0.18681416295E+02 -0.48495692205E+03  0.49404738891E+03  0.77000000000E+02 0.  0.
<mgrwt>
<rscale>  0 0.19171922E+03</rscale>
<asrwt>0</asrwt>
<pdfrwt beam="1">  1        2 0.17003624E+00 0.19171922E+03</pdfrwt>
<pdfrwt beam="2">  1       -2 0.11028939E-02 0.19171922E+03</pdfrwt>
<totfact> 0.40809143E+04</totfact>
</mgrwt>
</event>
<event>
 4    1  0.5562790E-004  0.1842557E+03  0.7818608E-02  0.1163747E+00
          2   -1    0    0  501    0  0.00000000000E+00  0.00000000000E+00  0.20126622695E+03  0.20126622697E+03  0.25500000000E-02 0.  1.
         -2   -1    0    0    0  501 -0.00000000000E+00 -0.00000000000E+00 -0.42170719744E+02  0.42170719822E+02  0.25500000000E-02 0. -1.
    5000001    1    1    2    0    0 -0.40837211432E+02 -0.54918590922E+00  0.40120396108E+02  0.95951162716E+02  0.77000000000E+02 0.  0.
   -5000001    1    1    2    0    0  0.40837211432E+02  0.54918590922E+00  0.11897511110E+03  0.14748578407E+03  0.77000000000E+02 0.  0.
<mgrwt>
<rscale>  0 0.18425571E+03</rscale>
<asrwt>0</asrwt>
<pdfrwt beam="1">  1        2 0.28752318E-01 0.18425571E+03</pdfrwt>
<pdfrwt beam="2">  1       -2 0.60243886E-02 0.18425571E+03</pdfrwt>
<totfact> 0.25808379E+04</totfact>
</mgrwt>
</event>
<event>
 4    1  0.5562790E-004  0.2075258E+03  0.7818608E-02  0.1143540E+00
         -2   -1    0    0    0  501 -0.00000000000E+00  0.00000000000E+00  0.31621580446E+02  0.31621580549E+02  0.25500000000E-02 0. -1.
          2   -1    0    0  501    0  0.00000000000E+00 -0.00000000000E+00 -0.34048710383E+03  0.34048710384E+03  0.25500000000E-02 0.  1.
    5000001    1    1    2    0    0 -0.57178489785E+02 -0.27380626585E+02 -0.10312890719E+03  0.14347003138E+03  0.77000000000E+02 0.  0.
   -5000001    1    1    2    0    0  0.57178489785E+02  0.27380626585E+02 -0.20573661619E+03  0.22863865301E+03  0.77000000000E+02 0.  0.
<mgrwt>
<rscale>  0 0.20752581E+03</rscale>
<asrwt>0</asrwt>
<pdfrwt beam="1">  1        2 0.48641013E-01 0.20752581E+03</pdfrwt>
<pdfrwt beam="2">  1       -2 0.45173688E-02 0.20752581E+03</pdfrwt>
<totfact> 0.22873382E+04</totfact>
</mgrwt>
</event>
<event>
 4    1  0.5562790E-004  0.1907167E+03  0.7818608E-02  0.1157817E+00
          2   -1    0    0  501    0  0.00000000000E+00  0.00000000000E+00  0.58643469156E+02  0.58643469212E+02  0.25500000000E-02 0.  1.
         -2   -1    0    0    0  501 -0.00000000000E+00 -0.00000000000E+00 -0.15505927075E+03  0.15505927077E+03  0.25500000000E-02 0. -1.
    5000001    1    1    2    0    0 -0.93625033648E+01 -0.34757407774E+02 -0.96643602028E+02  0.12870400024E+03  0.77000000000E+02 0.  0.
   -5000001    1    1    2    0    0  0.93625033648E+01  0.34757407774E+02  0.22780043788E+00  0.84998739740E+02  0.77000000000E+02 0.  0.
<mgrwt>
<rscale>  0 0.19071669E+03</rscale>
<asrwt>0</asrwt>
<pdfrwt beam="1">  1        2 0.83776385E-02 0.19071669E+03</pdfrwt>
<pdfrwt beam="2">  1       -2 0.22151324E-01 0.19071669E+03</pdfrwt>
<totfact> 0.13561210E+04</totfact>
</mgrwt>
</event>
<event>
 4    1  0.5562790E-004  0.1703943E+03  0.7818608E-02  0.1177437E+00
          2   -1    0    0  501    0  0.00000000000E+00  0.00000000000E+00  0.70707756311E+03  0.70707756312E+03  0.25500000000E-02 0.  1.
         -2   -1    0    0    0  501 -0.00000000000E+00 -0.00000000000E+00 -0.10265575878E+02  0.10265576195E+02  0.25500000000E-02 0. -1.
    5000001    1    1    2    0    0 -0.77596800399E+01  0.29781628164E+02  0.26608113801E+03  0.27870294225E+03  0.77000000000E+02 0.  0.
   -5000001    1    1    2    0    0  0.77596800399E+01 -0.29781628164E+02  0.43073084922E+03  0.43864019707E+03  0.77000000000E+02 0.  0.
<mgrwt>
<rscale>  0 0.17039435E+03</rscale>
<asrwt>0</asrwt>
<pdfrwt beam="1">  1        2 0.10101107E+00 0.17039435E+03</pdfrwt>
<pdfrwt beam="2">  1       -2 0.14665110E-02 0.17039435E+03</pdfrwt>
<totfact> 0.52684534E+04</totfact>
</mgrwt>
</event>
<event>
 4    1  0.5562790E-004  0.3661289E+03  0.7818608E-02  0.1056183E+00
          2   -1    0    0  501    0  0.00000000000E+00  0.00000000000E+00  0.12138363156E+04  0.12138363156E+04  0.25500000000E-02 0.  1.
         -2   -1    0    0    0  501 -0.00000000000E+00 -0.00000000000E+00 -0.27608822149E+02  0.27608822266E+02  0.25500000000E-02 0. -1.
    5000001    1    1    2    0    0  0.11387980464E+03  0.11638482586E+03  0.48222313584E+03  0.51476420849E+03  0.77000000000E+02 0.  0.
   -5000001    1    1    2    0    0 -0.11387980464E+03 -0.11638482586E+03  0.70400435756E+03  0.72668092933E+03  0.77000000000E+02 0.  0.
<mgrwt>
<rscale>  0 0.36612889E+03</rscale>
<asrwt>0</asrwt>
<pdfrwt beam="1">  1        2 0.17340519E+00 0.36612889E+03</pdfrwt>
<pdfrwt beam="2">  1       -2 0.39441175E-02 0.36612889E+03</pdfrwt>
<totfact> 0.62153443E+03</totfact>
</mgrwt>
</event>
<event>
 4    1  0.5562790E-004  0.5558345E+03  0.7818608E-02  0.1000152E+00
         -2   -1    0    0    0  501 -0.00000000000E+00  0.00000000000E+00  0.13726344154E+03  0.13726344157E+03  0.25500000000E-02 0. -1.
          2   -1    0    0  501    0  0.00000000000E+00 -0.00000000000E+00 -0.56269904626E+03  0.56269904626E+03  0.25500000000E-02 0.  1.
    5000001    1    1    2    0    0  0.20057400391E+03 -0.68253315088E+02 -0.41740951578E+03  0.47439240079E+03  0.77000000000E+02 0.  0.
   -5000001    1    1    2    0    0 -0.20057400391E+03  0.68253315088E+02 -0.80260889327E+01  0.22557008704E+03  0.77000000000E+02 0.  0.
<mgrwt>
<rscale>  0 0.55583454E+03</rscale>
<asrwt>0</asrwt>
<pdfrwt beam="1">  1        2 0.80385577E-01 0.55583454E+03</pdfrwt>
<pdfrwt beam="2">  1       -2 0.19609063E-01 0.55583454E+03</pdfrwt>
<totfact> 0.12930348E+03</totfact>
</mgrwt>
</event>
<event>
 4    1  0.5562790E-004  0.2444033E+03  0.7818608E-02  0.1116894E+00
          2   -1    0    0  501    0  0.00000000000E+00  0.00000000000E+00  0.92197068121E+03  0.92197068121E+03  0.25500000000E-02 0.  1.
         -2   -1    0    0    0  501 -0.00000000000E+00 -0.00000000000E+00 -0.16197090164E+02  0.16197090365E+02  0.25500000000E-02 0. -1.
    5000001    1    1    2    0    0  0.72582866676E+02 -0.61076015233E+02  0.44373015156E+03  0.46024341339E+03  0.77000000000E+02 0.  0.
   -5000001    1    1    2    0    0 -0.72582866676E+02  0.61076015233E+02  0.46204343949E+03  0.47792435818E+03  0.77000000000E+02 0.  0.
<mgrwt>
<rscale>  0 0.24440329E+03</rscale>
<asrwt>0</asrwt>
<pdfrwt beam="1">  1        2 0.13171013E+00 0.24440329E+03</pdfrwt>
<pdfrwt beam="2">  1       -2 0.23138695E-02 0.24440329E+03</pdfrwt>
<totfact> 0.20036770E+04</totfact>
</mgrwt>
</event>
<event>
 4    1  0.5562790E-004  0.3401737E+03  0.7818608E-02  0.1066722E+00
         -2   -1    0    0    0  501 -0.00000000000E+00  0.00000000000E+00  0.39692464728E+02  0.39692464810E+02  0.25500000000E-02 0. -1.
          2   -1    0    0  501    0  0.00000000000E+00 -0.00000000000E+00 -0.72884217462E+03  0.72884217463E+03  0.25500000000E-02 0.  1.
    5000001    1    1    2    0    0  0.14596248471E+03  0.39460096285E+02 -0.31799670485E+03  0.36043453003E+03  0.77000000000E+02 0.  0.
   -5000001    1    1    2    0    0 -0.14596248471E+03 -0.39460096285E+02 -0.37115300504E+03  0.40810010940E+03  0.77000000000E+02 0.  0.
<mgrwt>
<rscale>  0 0.34017373E+03</rscale>
<asrwt>0</asrwt>
<pdfrwt beam="1">  1        2 0.10412030E+00 0.34017373E+03</pdfrwt>
<pdfrwt beam="2">  1       -2 0.56703526E-02 0.34017373E+03</pdfrwt>
<totfact> 0.70872654E+03</totfact>
</mgrwt>
</event>
<event>
 4    1  0.5562790E-004  0.2282792E+03  0.7818608E-02  0.1127857E+00
         -2   -1    0    0    0  501 -0.00000000000E+00  0.00000000000E+00  0.20608236561E+02  0.20608236718E+02  0.25500000000E-02 0. -1.
          2   -1    0    0  501    0  0.00000000000E+00 -0.00000000000E+00 -0.63216702782E+03  0.63216702783E+03  0.25500000000E-02 0.  1.
    5000001    1    1    2    0    0 -0.52154463622E+02 -0.62154026468E+02 -0.24084583226E+03  0.26555399827E+03  0.77000000000E+02 0.  0.
   -5000001    1    1    2    0    0  0.52154463622E+02  0.62154026468E+02 -0.37071295900E+03  0.38722126627E+03  0.77000000000E+02 0.  0.
<mgrwt>
<rscale>  0 0.22827919E+03</rscale>
<asrwt>0</asrwt>
<pdfrwt beam="1">  1        2 0.90309564E-01 0.22827919E+03</pdfrwt>
<pdfrwt beam="2">  1       -2 0.29440342E-02 0.22827919E+03</pdfrwt>
<totfact> 0.22140014E+04</totfact>
</mgrwt>
</event>
<event>
 4    1  0.5562790E-004  0.2397670E+03  0.7818608E-02  0.1119948E+00
          2   -1    0    0  501    0  0.00000000000E+00  0.00000000000E+00  0.30717661261E+02  0.30717661366E+02  0.25500000000E-02 0.  1.
         -2   -1    0    0    0  501 -0.00000000000E+00 -0.00000000000E+00 -0.46787595491E+03  0.46787595491E+03  0.25500000000E-02 0. -1.
    5000001    1    1    2    0    0 -0.29356570753E+02 -0.77949841910E+02 -0.13790479411E+03  0.17856292543E+03  0.77000000000E+02 0.  0.
   -5000001    1    1    2    0    0  0.29356570753E+02  0.77949841910E+02 -0.29925349954E+03  0.32003069085E+03  0.77000000000E+02 0.  0.
<mgrwt>
<rscale>  0 0.23976701E+03</rscale>
<asrwt>0</asrwt>
<pdfrwt beam="1">  1        2 0.43882376E-02 0.23976701E+03</pdfrwt>
<pdfrwt beam="2">  1       -2 0.66839418E-01 0.23976701E+03</pdfrwt>
<totfact> 0.38991889E+03</totfact>
</mgrwt>
</event>
<event>
 4    1  0.5562790E-004  0.1712411E+03  0.7818608E-02  0.1176560E+00
         -2   -1    0    0    0  501 -0.00000000000E+00  0.00000000000E+00  0.26593755264E+02  0.26593755386E+02  0.25500000000E-02 0. -1.
          2   -1    0    0  501    0  0.00000000000E+00 -0.00000000000E+00 -0.27566168552E+03  0.27566168553E+03  0.25500000000E-02 0.  1.
    5000001    1    1    2    0    0 -0.30953908122E+02  0.20796243139E+02 -0.11861335108E+03  0.14624894943E+03  0.77000000000E+02 0.  0.
   -5000001    1    1    2    0    0  0.30953908122E+02 -0.20796243139E+02 -0.13045457918E+03  0.15600649149E+03  0.77000000000E+02 0.  0.
<mgrwt>
<rscale>  0 0.17124111E+03</rscale>
<asrwt>0</asrwt>
<pdfrwt beam="1">  1        2 0.39380239E-01 0.17124111E+03</pdfrwt>
<pdfrwt beam="2">  1       -2 0.37991081E-02 0.17124111E+03</pdfrwt>
<totfact> 0.36540214E+04</totfact>
</mgrwt>
</event>
<event>
 4    1  0.5562790E-004  0.2183223E+03  0.7818608E-02  0.1135140E+00
          2   -1    0    0  501    0  0.00000000000E+00  0.00000000000E+00  0.16333324965E+02  0.16333325164E+02  0.25500000000E-02 0.  1.
         -2   -1    0    0    0  501 -0.00000000000E+00 -0.00000000000E+00 -0.72956127960E+03  0.72956127961E+03  0.25500000000E-02 0. -1.
    5000001    1    1    2    0    0  0.75907664600E+02  0.12723054861E+02 -0.32942944654E+03  0.34695332527E+03  0.77000000000E+02 0.  0.
   -5000001    1    1    2    0    0 -0.75907664600E+02 -0.12723054861E+02 -0.38379850810E+03  0.39894127950E+03  0.77000000000E+02 0.  0.
<mgrwt>
<rscale>  0 0.21832234E+03</rscale>
<asrwt>0</asrwt>
<pdfrwt beam="1">  1        2 0.23333326E-02 0.21832234E+03</pdfrwt>
<pdfrwt beam="2">  1       -2 0.10422302E+00 0.21832234E+03</pdfrwt>
<totfact> 0.33936767E+03</totfact>
</mgrwt>
</event>
<event>
 4    1  0.5562790E-004  0.2315315E+03  0.7818608E-02  0.1125566E+00
          2   -1    0    0  501    0  0.00000000000E+00  0.00000000000E+00  0.34314815999E+03  0.34314816000E+03  0.25500000000E-02 0.  1.
         -2   -1    0    0    0  501 -0.00000000000E+00 -0.00000000000E+00 -0.39055168432E+02  0.39055168515E+02  0.25500000000E-02 0. -1.
    5000001    1    1    2    0    0 -0.14456037978E+02  0.85163902005E+02  0.14661100997E+03  0.18677702076E+03  0.77000000000E+02 0.  0.
   -5000001    1    1    2    0    0  0.14456037978E+02 -0.85163902005E+02  0.15748198159E+03  0.19542630776E+03  0.77000000000E+02 0.  0.
<mgrwt>
<rscale>  0 0.23153150E+03</rscale>
<asrwt>0</asrwt>
<pdfrwt beam="1">  1        2 0.49021169E-01 0.23153150E+03</pdfrwt>
<pdfrwt beam="2">  1       -2 0.55793094E-02 0.23153150E+03</pdfrwt>
<totfact> 0.16599658E+04</totfact>
</mgrwt>
</event>
<event>
 4    1  0.5562790E-004  0.4157375E+03  0.7818608E-02  0.1038463E+00
         -2   -1    0    0    0  501 -0.00000000000E+00  0.00000000000E+00  0.54371803478E+02  0.54371803538E+02  0.25500000000E-02 0. -1.
          2   -1    0    0  501    0  0.00000000000E+00 -0.00000000000E+00 -0.79470269263E+03  0.79470269263E+03  0.25500000000E-02 0.  1.
    5000001    1    1    2    0    0 -0.44901185709E+02  0.16901367968E+03 -0.53732112825E+03  0.57028478435E+03  0.77000000000E+02 0.  0.
   -5000001    1    1    2    0    0  0.44901185709E+02 -0.16901367968E+03 -0.20300976090E+03  0.27878971182E+03  0.77000000000E+02 0.  0.
<mgrwt>
<rscale>  0 0.41573751E+03</rscale>
<asrwt>0</asrwt>
<pdfrwt beam="1">  1        2 0.11352895E+00 0.41573751E+03</pdfrwt>
<pdfrwt beam="2">  1       -2 0.77674010E-02 0.41573751E+03</pdfrwt>
<totfact> 0.39179059E+03</totfact>
</mgrwt>
</event>
<event>
 4    1  0.5562790E-004  0.2126758E+03  0.7818608E-02  0.1139464E+00
          2   -1    0    0  501    0  0.00000000000E+00  0.00000000000E+00  0.25729090675E+02  0.25729090801E+02  0.25500000000E-02 0.  1.
         -2   -1    0    0    0  501 -0.00000000000E+00 -0.00000000000E+00 -0.43949277641E+03  0.43949277642E+03  0.25500000000E-02 0. -1.
    5000001    1    1    2    0    0  0.14169075067E+02 -0.68727250441E+02 -0.25351918220E+03  0.27408971777E+03  0.77000000000E+02 0.  0.
   -5000001    1    1    2    0    0 -0.14169075067E+02  0.68727250441E+02 -0.16024450353E+03  0.19113214945E+03  0.77000000000E+02 0.  0.
<mgrwt>
<rscale>  0 0.21267581E+03</rscale>
<asrwt>0</asrwt>
<pdfrwt beam="1">  1        2 0.36755847E-02 0.21267581E+03</pdfrwt>
<pdfrwt beam="2">  1       -2 0.62784678E-01 0.21267581E+03</pdfrwt>
<totfact> 0.55984946E+03</totfact>
</mgrwt>
</event>
<event>
 4    1  0.5562790E-004  0.1983673E+03  0.7818608E-02  0.1151124E+00
         -2   -1    0    0    0  501 -0.00000000000E+00  0.00000000000E+00  0.54588860298E+01  0.54588866254E+01  0.25500000000E-02 0. -1.
          2   -1    0    0  501    0  0.00000000000E+00 -0.00000000000E+00 -0.18020884048E+04  0.18020884048E+04  0.25500000000E-02 0.  1.
    5000001    1    1    2    0    0 -0.57046790110E+02 -0.26770067356E+01 -0.66655615283E+03  0.67341488512E+03  0.77000000000E+02 0.  0.
   -5000001    1    1    2    0    0  0.57046790110E+02  0.26770067356E+01 -0.11300733660E+04  0.11341324064E+04  0.77000000000E+02 0.  0.
<mgrwt>
<rscale>  0 0.19836729E+03</rscale>
<asrwt>0</asrwt>
<pdfrwt beam="1">  1        2 0.25744082E+00 0.19836729E+03</pdfrwt>
<pdfrwt beam="2">  1       -2 0.77984206E-03 0.19836729E+03</pdfrwt>
<totfact> 0.33167794E+04</totfact>
</mgrwt>
</event>
<event>
 4    1  0.5562790E-004  0.2555799E+03  0.7818608E-02  0.1109828E+00
          2   -1    0    0  501    0  0.00000000000E+00  0.00000000000E+00  0.68906708794E+03  0.68906708794E+03  0.25500000000E-02 0.  1.
         -2   -1    0    0    0  501 -0.00000000000E+00 -0.00000000000E+00 -0.23699095930E+02  0.23699096068E+02  0.25500000000E-02 0. -1.
    5000001    1    1    2    0    0 -0.83136519227E+00  0.52063399636E+02  0.57724263314E+03  0.58467884028E+03  0.77000000000E+02 0.  0.
   -5000001    1    1    2    0    0  0.83136519227E+00 -0.52063399636E+02  0.88125358866E+02  0.12808734373E+03  0.77000000000E+02 0.  0.
<mgrwt>
<rscale>  0 0.25557987E+03</rscale>
<asrwt>0</asrwt>
<pdfrwt beam="1">  1        2 0.98438156E-01 0.25557987E+03</pdfrwt>
<pdfrwt beam="2">  1       -2 0.33855851E-02 0.25557987E+03</pdfrwt>
<totfact> 0.16370745E+04</totfact>
</mgrwt>
</event>
<event>
 4    1  0.5562790E-004  0.3475062E+03  0.7818608E-02  0.1063643E+00
         -2   -1    0    0    0  501 -0.00000000000E+00  0.00000000000E+00  0.28206416411E+02  0.28206416526E+02  0.25500000000E-02 0. -1.
          2   -1    0    0  501    0  0.00000000000E+00 -0.00000000000E+00 -0.10703287686E+04  0.10703287686E+04  0.25500000000E-02 0.  1.
    5000001    1    1    2    0    0  0.70723606369E+02 -0.56611023085E+02 -0.92160482202E+03  0.92924220976E+03  0.77000000000E+02 0.  0.
   -5000001    1    1    2    0    0 -0.70723606369E+02  0.56611023085E+02 -0.12051753019E+03  0.16929297539E+03  0.77000000000E+02 0.  0.
<mgrwt>
<rscale>  0 0.34750620E+03</rscale>
<asrwt>0</asrwt>
<pdfrwt beam="1">  1        2 0.15290408E+00 0.34750620E+03</pdfrwt>
<pdfrwt beam="2">  1       -2 0.40294887E-02 0.34750620E+03</pdfrwt>
<totfact> 0.72352920E+03</totfact>
</mgrwt>
</event>
<event>
 4    1  0.5562790E-004  0.2168936E+03  0.7818608E-02  0.1136220E+00
          2   -1    0    0  501    0  0.00000000000E+00  0.00000000000E+00  0.24900875114E+03  0.24900875115E+03  0.25500000000E-02 0.  1.
         -2   -1    0    0    0  501 -0.00000000000E+00 -0.00000000000E+00 -0.47230120423E+02  0.47230120492E+02  0.25500000000E-02 0. -1.
    5000001    1    1    2    0    0  0.24545880380E+02  0.66989216138E+02  0.63693245212E+02  0.12278389474E+03  0.77000000000E+02 0.  0.
   -5000001    1    1    2    0    0 -0.24545880380E+02 -0.66989216138E+02  0.13808538551E+03  0.17345497690E+03  0.77000000000E+02 0.  0.
<mgrwt>
<rscale>  0 0.21689365E+03</rscale>
<asrwt>0</asrwt>
<pdfrwt beam="1">  1        2 0.35572678E-01 0.21689365E+03</pdfrwt>
<pdfrwt beam="2">  1       -2 0.67471602E-02 0.21689365E+03</pdfrwt>
<totfact> 0.17433781E+04</totfact>
</mgrwt>
</event>
<event>
 4    1  0.5562790E-004  0.4455979E+03  0.7818608E-02  0.1029043E+00
          2   -1    0    0  501    0  0.00000000000E+00  0.00000000000E+00  0.19102106522E+04  0.19102106522E+04  0.25500000000E-02 0.  1.
         -2   -1    0    0    0  501 -0.00000000000E+00 -0.00000000000E+00 -0.25986329719E+02  0.25986329844E+02  0.25500000000E-02 0. -1.
    5000001    1    1    2    0    0  0.57653976151E+02  0.10908605973E+03  0.16754884406E+04  0.16817890070E+04  0.77000000000E+02 0.  0.
   -5000001    1    1    2    0    0 -0.57653976151E+02 -0.10908605973E+03  0.20873588186E+03  0.25440797505E+03  0.77000000000E+02 0.  0.
<mgrwt>
<rscale>  0 0.44559786E+03</rscale>
<asrwt>0</asrwt>
<pdfrwt beam="1">  1        2 0.27288728E+00 0.44559786E+03</pdfrwt>
<pdfrwt beam="2">  1       -2 0.37123323E-02 0.44559786E+03</pdfrwt>
<totfact> 0.29938030E+03</totfact>
</mgrwt>
</event>
<event>
 4    1  0.5562790E-004  0.2000661E+03  0.7818608E-02  0.1149683E+00
          2   -1    0    0  501    0  0.00000000000E+00  0.00000000000E+00  0.45550849139E+02  0.45550849211E+02  0.25500000000E-02 0.  1.
         -2   -1    0    0    0  501 -0.00000000000E+00 -0.00000000000E+00 -0.21967999123E+03  0.21967999124E+03  0.25500000000E-02 0. -1.
    5000001    1    1    2    0    0 -0.62941231232E+02  0.10148544947E+02 -0.91847926236E+02  0.13575578480E+03  0.77000000000E+02 0.  0.
   -5000001    1    1    2    0    0  0.62941231232E+02 -0.10148544947E+02 -0.82281215851E+02  0.12947505565E+03  0.77000000000E+02 0.  0.
<mgrwt>
<rscale>  0 0.20006609E+03</rscale>
<asrwt>0</asrwt>
<pdfrwt beam="1">  1        2 0.65072643E-02 0.20006609E+03</pdfrwt>
<pdfrwt beam="2">  1       -2 0.31382855E-01 0.20006609E+03</pdfrwt>
<totfact> 0.10128337E+04</totfact>
</mgrwt>
</event>
<event>
 4    1  0.5562790E-004  0.2253341E+03  0.7818608E-02  0.1129968E+00
         -2   -1    0    0    0  501 -0.00000000000E+00  0.00000000000E+00  0.37121408703E+02  0.37121408791E+02  0.25500000000E-02 0. -1.
          2   -1    0    0  501    0  0.00000000000E+00 -0.00000000000E+00 -0.34195540432E+03  0.34195540433E+03  0.25500000000E-02 0.  1.
    5000001    1    1    2    0    0  0.49921243322E+02  0.58497670821E+02 -0.20148556374E+03  0.22899681313E+03  0.77000000000E+02 0.  0.
   -5000001    1    1    2    0    0 -0.49921243322E+02 -0.58497670821E+02 -0.10334843187E+03  0.15007999999E+03  0.77000000000E+02 0.  0.
<mgrwt>
<rscale>  0 0.22533412E+03</rscale>
<asrwt>0</asrwt>
<pdfrwt beam="1">  1        2 0.48850770E-01 0.22533412E+03</pdfrwt>
<pdfrwt beam="2">  1       -2 0.53030586E-02 0.22533412E+03</pdfrwt>
<totfact> 0.17968679E+04</totfact>
</mgrwt>
</event>
<event>
 4    1  0.5562790E-004  0.2569317E+03  0.7818608E-02  0.1109001E+00
         -2   -1    0    0    0  501 -0.00000000000E+00  0.00000000000E+00  0.11730408599E+02  0.11730408876E+02  0.25500000000E-02 0. -1.
          2   -1    0    0  501    0  0.00000000000E+00 -0.00000000000E+00 -0.14068968173E+04  0.14068968173E+04  0.25500000000E-02 0.  1.
    5000001    1    1    2    0    0  0.24860746873E+02  0.84413342732E+02 -0.99135196993E+03  0.99822412185E+03  0.77000000000E+02 0.  0.
   -5000001    1    1    2    0    0 -0.24860746873E+02 -0.84413342732E+02 -0.40381443877E+03  0.42040310432E+03  0.77000000000E+02 0.  0.
<mgrwt>
<rscale>  0 0.25693170E+03</rscale>
<asrwt>0</asrwt>
<pdfrwt beam="1">  1        2 0.20098515E+00 0.25693170E+03</pdfrwt>
<pdfrwt beam="2">  1       -2 0.16757736E-02 0.25693170E+03</pdfrwt>
<totfact> 0.17393590E+04</totfact>
</mgrwt>
</event>
<event>
 4    1  0.5562790E-004  0.3067941E+03  0.7818608E-02  0.1081893E+00
         -2   -1    0    0    0  501 -0.00000000000E+00  0.00000000000E+00  0.64978172848E+02  0.64978172898E+02  0.25500000000E-02 0. -1.
          2   -1    0    0  501    0  0.00000000000E+00 -0.00000000000E+00 -0.36213159954E+03  0.36213159955E+03  0.25500000000E-02 0.  1.
    5000001    1    1    2    0    0  0.41034830142E+02  0.11677483323E+03 -0.82080610050E+02  0.16729149861E+03  0.77000000000E+02 0.  0.
   -5000001    1    1    2    0    0 -0.41034830142E+02 -0.11677483323E+03 -0.21507281664E+03  0.25981827383E+03  0.77000000000E+02 0.  0.
<mgrwt>
<rscale>  0 0.30679407E+03</rscale>
<asrwt>0</asrwt>
<pdfrwt beam="1">  1        2 0.51733085E-01 0.30679407E+03</pdfrwt>
<pdfrwt beam="2">  1       -2 0.92825963E-02 0.30679407E+03</pdfrwt>
<totfact> 0.72033928E+03</totfact>
</mgrwt>
</event>
<event>
 4    1  0.5562790E-004  0.3099962E+03  0.7818608E-02  0.1080348E+00
         -2   -1    0    0    0  501 -0.00000000000E+00  0.00000000000E+00  0.83315288135E+03  0.83315288136E+03  0.25500000000E-02 0. -1.
          2   -1    0    0  501    0  0.00000000000E+00 -0.00000000000E+00 -0.28835531243E+02  0.28835531356E+02  0.25500000000E-02 0.  1.
    5000001    1    1    2    0    0 -0.81858459644E+02 -0.93724897628E+02  0.54422315352E+03  0.56355390575E+03  0.77000000000E+02 0.  0.
   -5000001    1    1    2    0    0  0.81858459644E+02  0.93724897628E+02  0.26009419659E+03  0.29843450697E+03  0.77000000000E+02 0.  0.
<mgrwt>
<rscale>  0 0.30999617E+03</rscale>
<asrwt>0</asrwt>
<pdfrwt beam="1">  1        2 0.41193618E-02 0.30999617E+03</pdfrwt>
<pdfrwt beam="2">  1       -2 0.11902183E+00 0.30999617E+03</pdfrwt>
<totfact> 0.11589307E+03</totfact>
</mgrwt>
</event>
<event>
 4    1  0.5562790E-004  0.1687172E+03  0.7818608E-02  0.1179192E+00
          2   -1    0    0  501    0  0.00000000000E+00  0.00000000000E+00  0.75199779192E+03  0.75199779193E+03  0.25500000000E-02 0.  1.
         -2   -1    0    0    0  501 -0.00000000000E+00 -0.00000000000E+00 -0.94632895090E+01  0.94632898525E+01  0.25500000000E-02 0. -1.
    5000001    1    1    2    0    0  0.85829079507E+01 -0.31583800034E+02  0.41991197710E+03  0.42816617247E+03  0.77000000000E+02 0.  0.
   -5000001    1    1    2    0    0 -0.85829079507E+01  0.31583800034E+02  0.32262252531E+03  0.33329490931E+03  0.77000000000E+02 0.  0.
<mgrwt>
<rscale>  0 0.16871719E+03</rscale>
<asrwt>0</asrwt>
<pdfrwt beam="1">  1        2 0.10742831E+00 0.16871719E+03</pdfrwt>
<pdfrwt beam="2">  1       -2 0.13518979E-02 0.16871719E+03</pdfrwt>
<totfact> 0.55043241E+04</totfact>
</mgrwt>
</event>
<event>
 4    1  0.5562790E-004  0.2099654E+03  0.7818608E-02  0.1141593E+00
          2   -1    0    0  501    0  0.00000000000E+00  0.00000000000E+00  0.97605688901E+03  0.97605688901E+03  0.25500000000E-02 0.  1.
         -2   -1    0    0    0  501 -0.00000000000E+00 -0.00000000000E+00 -0.11291726820E+02  0.11291727108E+02  0.25500000000E-02 0. -1.
    5000001    1    1    2    0    0 -0.37993971759E+02 -0.58686188815E+02  0.54967132449E+03  0.55942396768E+03  0.77000000000E+02 0.  0.
   -5000001    1    1    2    0    0  0.37993971759E+02  0.58686188815E+02  0.41509383770E+03  0.42792464844E+03  0.77000000000E+02 0.  0.
<mgrwt>
<rscale>  0 0.20996541E+03</rscale>
<asrwt>0</asrwt>
<pdfrwt beam="1">  1        2 0.13943669E+00 0.20996541E+03</pdfrwt>
<pdfrwt beam="2">  1       -2 0.16131039E-02 0.20996541E+03</pdfrwt>
<totfact> 0.31240475E+04</totfact>
</mgrwt>
</event>
<event>
 4    1  0.5562790E-004  0.2826443E+03  0.7818608E-02  0.1094253E+00
         -2   -1    0    0    0  501 -0.00000000000E+00  0.00000000000E+00  0.10071248983E+02  0.10071249306E+02  0.25500000000E-02 0. -1.
          2   -1    0    0  501    0  0.00000000000E+00 -0.00000000000E+00 -0.19830658521E+04  0.19830658521E+04  0.25500000000E-02 0.  1.
    5000001    1    1    2    0    0  0.18665793843E+02 -0.82018901852E+02 -0.15751152501E+04  0.15792379692E+04  0.77000000000E+02 0.  0.
   -5000001    1    1    2    0    0 -0.18665793843E+02  0.82018901852E+02 -0.39787935296E+03  0.41389913220E+03  0.77000000000E+02 0.  0.
<mgrwt>
<rscale>  0 0.28264430E+03</rscale>
<asrwt>0</asrwt>
<pdfrwt beam="1">  1        2 0.28329487E+00 0.28264430E+03</pdfrwt>
<pdfrwt beam="2">  1       -2 0.14387511E-02 0.28264430E+03</pdfrwt>
<totfact> 0.11297148E+04</totfact>
</mgrwt>
</event>
<event>
 4    1  0.5562790E-004  0.2790133E+03  0.7818608E-02  0.1096229E+00
          2   -1    0    0  501    0  0.00000000000E+00  0.00000000000E+00  0.69252391243E+03  0.69252391243E+03  0.25500000000E-02 0.  1.
         -2   -1    0    0    0  501 -0.00000000000E+00 -0.00000000000E+00 -0.28103143455E+02  0.28103143570E+02  0.25500000000E-02 0. -1.
    5000001    1    1    2    0    0 -0.70592465720E+02  0.83645507998E+02  0.43400008809E+03  0.45416400528E+03  0.77000000000E+02 0.  0.
   -5000001    1    1    2    0    0  0.70592465720E+02 -0.83645507998E+02  0.23042068088E+03  0.26646305073E+03  0.77000000000E+02 0.  0.
<mgrwt>
<rscale>  0 0.27901325E+03</rscale>
<asrwt>0</asrwt>
<pdfrwt beam="1">  1        2 0.98931982E-01 0.27901325E+03</pdfrwt>
<pdfrwt beam="2">  1       -2 0.40147350E-02 0.27901325E+03</pdfrwt>
<totfact> 0.12656102E+04</totfact>
</mgrwt>
</event>
<event>
 4    1  0.5562790E-004  0.3492123E+03  0.7818608E-02  0.1062939E+00
         -2   -1    0    0    0  501 -0.00000000000E+00  0.00000000000E+00  0.20550912565E+02  0.20550912723E+02  0.25500000000E-02 0. -1.
          2   -1    0    0  501    0  0.00000000000E+00 -0.00000000000E+00 -0.14835017420E+04  0.14835017420E+04  0.25500000000E-02 0.  1.
    5000001    1    1    2    0    0  0.10855071267E+03 -0.10925635823E+03 -0.60678793440E+03  0.63074622977E+03  0.77000000000E+02 0.  0.
   -5000001    1    1    2    0    0 -0.10855071267E+03  0.10925635823E+03 -0.85616289503E+03  0.87330642495E+03  0.77000000000E+02 0.  0.
<mgrwt>
<rscale>  0 0.34921234E+03</rscale>
<asrwt>0</asrwt>
<pdfrwt beam="1">  1        2 0.21192875E+00 0.34921234E+03</pdfrwt>
<pdfrwt beam="2">  1       -2 0.29358456E-02 0.34921234E+03</pdfrwt>
<totfact> 0.69850303E+03</totfact>
</mgrwt>
</event>
<event>
 4    1  0.5562790E-004  0.3410686E+03  0.7818608E-02  0.1066342E+00
          2   -1    0    0  501    0  0.00000000000E+00  0.00000000000E+00  0.52175851566E+03  0.52175851567E+03  0.25500000000E-02 0.  1.
         -2   -1    0    0    0  501 -0.00000000000E+00 -0.00000000000E+00 -0.55738342135E+02  0.55738342194E+02  0.25500000000E-02 0. -1.
    5000001    1    1    2    0    0  0.78947256045E+02 -0.10267399412E+03  0.36823650427E+03  0.39787151366E+03  0.77000000000E+02 0.  0.
   -5000001    1    1    2    0    0 -0.78947256045E+02  0.10267399412E+03  0.97783669259E+02  0.17962534420E+03  0.77000000000E+02 0.  0.
<mgrwt>
<rscale>  0 0.34106864E+03</rscale>
<asrwt>0</asrwt>
<pdfrwt beam="1">  1        2 0.74536926E-01 0.34106864E+03</pdfrwt>
<pdfrwt beam="2">  1       -2 0.79626208E-02 0.34106864E+03</pdfrwt>
<totfact> 0.61661976E+03</totfact>
</mgrwt>
</event>
<event>
 4    1  0.5562790E-004  0.2129170E+03  0.7818608E-02  0.1139277E+00
         -2   -1    0    0    0  501 -0.00000000000E+00  0.00000000000E+00  0.95069311001E+01  0.95069314421E+01  0.25500000000E-02 0. -1.
          2   -1    0    0  501    0  0.00000000000E+00 -0.00000000000E+00 -0.11921213503E+04  0.11921213503E+04  0.25500000000E-02 0.  1.
    5000001    1    1    2    0    0  0.11654442812E+02  0.51797736328E+02 -0.87827891585E+03  0.88324497482E+03  0.77000000000E+02 0.  0.
   -5000001    1    1    2    0    0 -0.11654442812E+02 -0.51797736328E+02 -0.30433550334E+03  0.31838330691E+03  0.77000000000E+02 0.  0.
<mgrwt>
<rscale>  0 0.21291703E+03</rscale>
<asrwt>0</asrwt>
<pdfrwt beam="1">  1        2 0.17030295E+00 0.21291703E+03</pdfrwt>
<pdfrwt beam="2">  1       -2 0.13581338E-02 0.21291703E+03</pdfrwt>
<totfact> 0.30338740E+04</totfact>
</mgrwt>
</event>
<event>
 4    1  0.5562790E-004  0.2826010E+03  0.7818608E-02  0.1094277E+00
          2   -1    0    0  501    0  0.00000000000E+00  0.00000000000E+00  0.81345591827E+03  0.81345591827E+03  0.25500000000E-02 0.  1.
         -2   -1    0    0    0  501 -0.00000000000E+00 -0.00000000000E+00 -0.24544458282E+02  0.24544458414E+02  0.25500000000E-02 0. -1.
    5000001    1    1    2    0    0 -0.10112810366E+03 -0.48897402499E+02  0.28275410986E+03  0.31384189645E+03  0.77000000000E+02 0.  0.
   -5000001    1    1    2    0    0  0.10112810366E+03  0.48897402499E+02  0.50615735013E+03  0.52415848024E+03  0.77000000000E+02 0.  0.
<mgrwt>
<rscale>  0 0.28260103E+03</rscale>
<asrwt>0</asrwt>
<pdfrwt beam="1">  1        2 0.11620799E+00 0.28260103E+03</pdfrwt>
<pdfrwt beam="2">  1       -2 0.35063511E-02 0.28260103E+03</pdfrwt>
<totfact> 0.12762758E+04</totfact>
</mgrwt>
</event>
<event>
 4    1  0.5562790E-004  0.1933211E+03  0.7818608E-02  0.1155500E+00
          2   -1    0    0  501    0  0.00000000000E+00  0.00000000000E+00  0.42861713749E+03  0.42861713749E+03  0.25500000000E-02 0.  1.
         -2   -1    0    0    0  501 -0.00000000000E+00 -0.00000000000E+00 -0.21798617819E+02  0.21798617968E+02  0.25500000000E-02 0. -1.
    5000001    1    1    2    0    0  0.36552042075E+02  0.18419916286E+02  0.30056615961E+03  0.31296063874E+03  0.77000000000E+02 0.  0.
   -5000001    1    1    2    0    0 -0.36552042075E+02 -0.18419916286E+02  0.10625236005E+03  0.13745511672E+03  0.77000000000E+02 0.  0.
<mgrwt>
<rscale>  0 0.19332109E+03</rscale>
<asrwt>0</asrwt>
<pdfrwt beam="1">  1        2 0.61231014E-01 0.19332109E+03</pdfrwt>
<pdfrwt beam="2">  1       -2 0.31140886E-02 0.19332109E+03</pdfrwt>
<totfact> 0.30960510E+04</totfact>
</mgrwt>
</event>
<event>
 4    1  0.5562790E-004  0.2018044E+03  0.7818608E-02  0.1148225E+00
         -2   -1    0    0    0  501 -0.00000000000E+00  0.00000000000E+00  0.15824384741E+04  0.15824384741E+04  0.25500000000E-02 0. -1.
          2   -1    0    0  501    0  0.00000000000E+00 -0.00000000000E+00 -0.64339044856E+01  0.64339049909E+01  0.25500000000E-02 0.  1.
    5000001    1    1    2    0    0 -0.61192389390E+02  0.17514373324E+02  0.67637955133E+03  0.68371745571E+03  0.77000000000E+02 0.  0.
   -5000001    1    1    2    0    0  0.61192389390E+02 -0.17514373324E+02  0.89962501832E+03  0.90515492341E+03  0.77000000000E+02 0.  0.
<mgrwt>
<rscale>  0 0.20180444E+03</rscale>
<asrwt>0</asrwt>
<pdfrwt beam="1">  1        2 0.91912928E-03 0.20180444E+03</pdfrwt>
<pdfrwt beam="2">  1       -2 0.22606263E+00 0.20180444E+03</pdfrwt>
<totfact> 0.15961132E+03</totfact>
</mgrwt>
</event>
<event>
 4    1  0.5562790E-004  0.2695802E+03  0.7818608E-02  0.1101520E+00
          2   -1    0    0  501    0  0.00000000000E+00  0.00000000000E+00  0.20313227246E+03  0.20313227248E+03  0.25500000000E-02 0.  1.
         -2   -1    0    0    0  501 -0.00000000000E+00 -0.00000000000E+00 -0.89441104642E+02  0.89441104678E+02  0.25500000000E-02 0. -1.
    5000001    1    1    2    0    0 -0.22192474880E+02  0.10602922912E+03  0.81226563298E+02  0.15576089996E+03  0.77000000000E+02 0.  0.
   -5000001    1    1    2    0    0  0.22192474880E+02 -0.10602922912E+03  0.32464604519E+02  0.13681247720E+03  0.77000000000E+02 0.  0.
<mgrwt>
<rscale>  0 0.26958023E+03</rscale>
<asrwt>0</asrwt>
<pdfrwt beam="1">  1        2 0.29018896E-01 0.26958023E+03</pdfrwt>
<pdfrwt beam="2">  1       -2 0.12777301E-01 0.26958023E+03</pdfrwt>
<totfact> 0.80400957E+03</totfact>
</mgrwt>
</event>
<event>
 4    1  0.5562790E-004  0.2333511E+03  0.7818608E-02  0.1124303E+00
         -2   -1    0    0    0  501 -0.00000000000E+00  0.00000000000E+00  0.12217128142E+03  0.12217128145E+03  0.25500000000E-02 0. -1.
          2   -1    0    0  501    0  0.00000000000E+00 -0.00000000000E+00 -0.11142702869E+03  0.11142702872E+03  0.25500000000E-02 0.  1.
    5000001    1    1    2    0    0 -0.64606194135E+02 -0.50192550285E+02 -0.26140271503E+02  0.11534975604E+03  0.77000000000E+02 0.  0.
   -5000001    1    1    2    0    0  0.64606194135E+02  0.50192550285E+02  0.36884524237E+02  0.11824855413E+03  0.77000000000E+02 0.  0.
<mgrwt>
<rscale>  0 0.23335109E+03</rscale>
<asrwt>0</asrwt>
<pdfrwt beam="1">  1        2 0.15918147E-01 0.23335109E+03</pdfrwt>
<pdfrwt beam="2">  1       -2 0.17453040E-01 0.23335109E+03</pdfrwt>
<totfact> 0.94374999E+03</totfact>
</mgrwt>
</event>
<event>
 4    1  0.5562790E-004  0.1913277E+03  0.7818608E-02  0.1157269E+00
         -2   -1    0    0    0  501 -0.00000000000E+00  0.00000000000E+00  0.33523379626E+01  0.33523389324E+01  0.25500000000E-02 0. -1.
          2   -1    0    0  501    0  0.00000000000E+00 -0.00000000000E+00 -0.27299062145E+04  0.27299062145E+04  0.25500000000E-02 0.  1.
    5000001    1    1    2    0    0  0.38020399828E+02 -0.80532185482E+01 -0.19543969512E+04  0.19562992736E+04  0.77000000000E+02 0.  0.
   -5000001    1    1    2    0    0 -0.38020399828E+02  0.80532185482E+01 -0.77215692537E+03  0.77695927984E+03  0.77000000000E+02 0.  0.
<mgrwt>
<rscale>  0 0.19132767E+03</rscale>
<asrwt>0</asrwt>
<pdfrwt beam="1">  1        2 0.38998518E+00 0.19132767E+03</pdfrwt>
<pdfrwt beam="2">  1       -2 0.47890724E-03 0.19132767E+03</pdfrwt>
<totfact> 0.23466338E+04</totfact>
</mgrwt>
</event>
<event>
 4    1  0.5562790E-004  0.2289212E+03  0.7818608E-02  0.1127401E+00
          2   -1    0    0  501    0  0.00000000000E+00  0.00000000000E+00  0.23785811319E+03  0.23785811321E+03  0.25500000000E-02 0.  1.
         -2   -1    0    0    0  501 -0.00000000000E+00 -0.00000000000E+00 -0.55080029993E+02  0.55080030052E+02  0.25500000000E-02 0. -1.
    5000001    1    1    2    0    0  0.39061049459E+02 -0.75039210052E+02  0.96440547013E+02  0.14962094686E+03  0.77000000000E+02 0.  0.
   -5000001    1    1    2    0    0 -0.39061049459E+02  0.75039210052E+02  0.86337536189E+02  0.14331719640E+03  0.77000000000E+02 0.  0.
<mgrwt>
<rscale>  0 0.22892123E+03</rscale>
<asrwt>0</asrwt>
<pdfrwt beam="1">  1        2 0.33979730E-01 0.22892123E+03</pdfrwt>
<pdfrwt beam="2">  1       -2 0.78685758E-02 0.22892123E+03</pdfrwt>
<totfact> 0.14491866E+04</totfact>
</mgrwt>
</event>
<event>
 4    1  0.5562790E-004  0.1766325E+03  0.7818608E-02  0.1171102E+00
         -2   -1    0    0    0  501 -0.00000000000E+00  0.00000000000E+00  0.30332521721E+01  0.30332532440E+01  0.25500000000E-02 0. -1.
          2   -1    0    0  501    0  0.00000000000E+00 -0.00000000000E+00 -0.25714192488E+04  0.25714192488E+04  0.25500000000E-02 0.  1.
    5000001    1    1    2    0    0  0.11414762072E+02  0.35225443572E+02 -0.16099853555E+04  0.16122509028E+04  0.77000000000E+02 0.  0.
   -5000001    1    1    2    0    0 -0.11414762072E+02 -0.35225443572E+02 -0.95840064111E+03  0.96220159922E+03  0.77000000000E+02 0.  0.
<mgrwt>
<rscale>  0 0.17663255E+03</rscale>
<asrwt>0</asrwt>
<pdfrwt beam="1">  1        2 0.36734421E+00 0.17663255E+03</pdfrwt>
<pdfrwt beam="2">  1       -2 0.43332346E-03 0.17663255E+03</pdfrwt>
<totfact> 0.32368641E+04</totfact>
</mgrwt>
</event>
<event>
 4    1  0.5562790E-004  0.1785471E+03  0.7818608E-02  0.1169217E+00
         -2   -1    0    0    0  501 -0.00000000000E+00  0.00000000000E+00  0.22820482843E+02  0.22820482985E+02  0.25500000000E-02 0. -1.
          2   -1    0    0  501    0  0.00000000000E+00 -0.00000000000E+00 -0.34923747264E+03  0.34923747265E+03  0.25500000000E-02 0.  1.
    5000001    1    1    2    0    0  0.34261480337E+02  0.12798131385E+02 -0.10795312080E+03  0.13755187201E+03  0.77000000000E+02 0.  0.
   -5000001    1    1    2    0    0 -0.34261480337E+02 -0.12798131385E+02 -0.21846386900E+03  0.23450608363E+03  0.77000000000E+02 0.  0.
<mgrwt>
<rscale>  0 0.17854711E+03</rscale>
<asrwt>0</asrwt>
<pdfrwt beam="1">  1        2 0.49891064E-01 0.17854711E+03</pdfrwt>
<pdfrwt beam="2">  1       -2 0.32600692E-02 0.17854711E+03</pdfrwt>
<totfact> 0.35777649E+04</totfact>
</mgrwt>
</event>
<event>
 4    1  0.5562790E-004  0.1768730E+03  0.7818608E-02  0.1170864E+00
          2   -1    0    0  501    0  0.00000000000E+00  0.00000000000E+00  0.22090010887E+03  0.22090010889E+03  0.25500000000E-02 0.  1.
         -2   -1    0    0    0  501 -0.00000000000E+00 -0.00000000000E+00 -0.35405216382E+02  0.35405216474E+02  0.25500000000E-02 0. -1.
    5000001    1    1    2    0    0 -0.23776178428E+02 -0.32485043224E+02  0.11662149873E+03  0.14543094121E+03  0.77000000000E+02 0.  0.
   -5000001    1    1    2    0    0  0.23776178428E+02  0.32485043224E+02  0.68873393761E+02  0.11087438416E+03  0.77000000000E+02 0.  0.
<mgrwt>
<rscale>  0 0.17687302E+03</rscale>
<asrwt>0</asrwt>
<pdfrwt beam="1">  1        2 0.31557159E-01 0.17687302E+03</pdfrwt>
<pdfrwt beam="2">  1       -2 0.50578879E-02 0.17687302E+03</pdfrwt>
<totfact> 0.30293216E+04</totfact>
</mgrwt>
</event>
<event>
 4    1  0.5562790E-004  0.2382657E+03  0.7818608E-02  0.1120954E+00
         -2   -1    0    0    0  501 -0.00000000000E+00  0.00000000000E+00  0.21878934114E+02  0.21878934262E+02  0.25500000000E-02 0. -1.
          2   -1    0    0  501    0  0.00000000000E+00 -0.00000000000E+00 -0.64868956600E+03  0.64868956601E+03  0.25500000000E-02 0.  1.
    5000001    1    1    2    0    0 -0.70474502006E+02 -0.56594233810E+02 -0.34070235126E+03  0.36080002063E+03  0.77000000000E+02 0.  0.
   -5000001    1    1    2    0    0  0.70474502006E+02  0.56594233810E+02 -0.28610828063E+03  0.30976847964E+03  0.77000000000E+02 0.  0.
<mgrwt>
<rscale>  0 0.23826570E+03</rscale>
<asrwt>0</asrwt>
<pdfrwt beam="1">  1        2 0.92669926E-01 0.23826570E+03</pdfrwt>
<pdfrwt beam="2">  1       -2 0.31255624E-02 0.23826570E+03</pdfrwt>
<totfact> 0.19714681E+04</totfact>
</mgrwt>
</event>
<event>
 4    1  0.5562790E-004  0.2111730E+03  0.7818608E-02  0.1140640E+00
         -2   -1    0    0    0  501 -0.00000000000E+00  0.00000000000E+00  0.90802018943E+01  0.90802022523E+01  0.25500000000E-02 0. -1.
          2   -1    0    0  501    0  0.00000000000E+00 -0.00000000000E+00 -0.12277820775E+04  0.12277820775E+04  0.25500000000E-02 0.  1.
    5000001    1    1    2    0    0 -0.59098342312E+02  0.40370798669E+02 -0.66706464412E+03  0.67529745660E+03  0.77000000000E+02 0.  0.
   -5000001    1    1    2    0    0  0.59098342312E+02 -0.40370798669E+02 -0.55163723149E+03  0.56156482317E+03  0.77000000000E+02 0.  0.
<mgrwt>
<rscale>  0 0.21117300E+03</rscale>
<asrwt>0</asrwt>
<pdfrwt beam="1">  1        2 0.17539733E+00 0.21117300E+03</pdfrwt>
<pdfrwt beam="2">  1       -2 0.12971725E-02 0.21117300E+03</pdfrwt>
<totfact> 0.31016356E+04</totfact>
</mgrwt>
</event>
<event>
 4    1  0.5562790E-004  0.2356825E+03  0.7818608E-02  0.1122703E+00
          2   -1    0    0  501    0  0.00000000000E+00  0.00000000000E+00  0.86115824200E+02  0.86115824238E+02  0.25500000000E-02 0.  1.
         -2   -1    0    0    0  501 -0.00000000000E+00 -0.00000000000E+00 -0.16125439204E+03  0.16125439206E+03  0.25500000000E-02 0. -1.
    5000001    1    1    2    0    0 -0.71061343306E+02  0.51336274999E+02 -0.54893174066E+02  0.12894723030E+03  0.77000000000E+02 0.  0.
   -5000001    1    1    2    0    0  0.71061343306E+02 -0.51336274999E+02 -0.20245393774E+02  0.11842298600E+03  0.77000000000E+02 0.  0.
<mgrwt>
<rscale>  0 0.23568245E+03</rscale>
<asrwt>0</asrwt>
<pdfrwt beam="1">  1        2 0.12302261E-01 0.23568245E+03</pdfrwt>
<pdfrwt beam="2">  1       -2 0.23036342E-01 0.23568245E+03</pdfrwt>
<totfact> 0.79926760E+03</totfact>
</mgrwt>
</event>
<event>
 4    1  0.5562790E-004  0.2355090E+03  0.7818608E-02  0.1122821E+00
          2   -1    0    0  501    0  0.00000000000E+00  0.00000000000E+00  0.97779330629E+02  0.97779330662E+02  0.25500000000E-02 0.  1.
         -2   -1    0    0    0  501 -0.00000000000E+00 -0.00000000000E+00 -0.14181035690E+03  0.14181035692E+03  0.25500000000E-02 0. -1.
    5000001    1    1    2    0    0 -0.11552671794E+02  0.86656648346E+02 -0.39467428518E+02  0.12300210097E+03  0.77000000000E+02 0.  0.
   -5000001    1    1    2    0    0  0.11552671794E+02 -0.86656648346E+02 -0.45635977490E+01  0.11658758661E+03  0.77000000000E+02 0.  0.
<mgrwt>
<rscale>  0 0.23550900E+03</rscale>
<asrwt>0</asrwt>
<pdfrwt beam="1">  1        2 0.13968476E-01 0.23550900E+03</pdfrwt>
<pdfrwt beam="2">  1       -2 0.20258622E-01 0.23550900E+03</pdfrwt>
<totfact> 0.85628047E+03</totfact>
</mgrwt>
</event>
<event>
 4    1  0.5562790E-004  0.1648928E+03  0.7818608E-02  0.1183281E+00
          2   -1    0    0  501    0  0.00000000000E+00  0.00000000000E+00  0.84017443885E+02  0.84017443924E+02  0.25500000000E-02 0.  1.
         -2   -1    0    0    0  501 -0.00000000000E+00 -0.00000000000E+00 -0.80904696787E+02  0.80904696827E+02  0.25500000000E-02 0. -1.
    5000001    1    1    2    0    0  0.25598356138E+02  0.95255005307E+01 -0.95088172611E+01  0.82252225520E+02  0.77000000000E+02 0.  0.
   -5000001    1    1    2    0    0 -0.25598356138E+02 -0.95255005307E+01  0.12621564359E+02  0.82669915230E+02  0.77000000000E+02 0.  0.
<mgrwt>
<rscale>  0 0.16489276E+03</rscale>
<asrwt>0</asrwt>
<pdfrwt beam="1">  1        2 0.12002492E-01 0.16489276E+03</pdfrwt>
<pdfrwt beam="2">  1       -2 0.11557814E-01 0.16489276E+03</pdfrwt>
<totfact> 0.25242253E+04</totfact>
</mgrwt>
</event>
