<event>
 4    1  0.6480558E-006  0.1535868E+04  0.7818608E-02  0.8860945E-01
          1   -1    0    0  501    0  0.00000000000E+00  0.00000000000E+00  0.59439624094E+03  0.59439624096E+03  0.50400000000E-02 0.  1.
         -1   -1    0    0    0  501 -0.00000000000E+00 -0.00000000000E+00 -0.99213743572E+03  0.99213743573E+03  0.50400000000E-02 0. -1.
    5000001    1    1    2    0    0 -0.21831038396E+03  0.56830974237E+03 -0.63650463999E+03  0.90298092103E+03  0.19900000000E+03 0.  0.
   -5000001    1    1    2    0    0  0.21831038396E+03 -0.56830974237E+03  0.23876344521E+03  0.68355275567E+03  0.19900000000E+03 0.  0.
<mgrwt>
<rscale>  0 0.15358682E+04</rscale>
<asrwt>0</asrwt>
<pdfrwt beam="1">  1        1 0.84913749E-01 0.15358682E+04</pdfrwt>
<pdfrwt beam="2">  1       -1 0.14173392E+00 0.15358682E+04</pdfrwt>
<totfact> 0.15150339E+01</totfact>
</mgrwt>
</event>
<event>
 4    1  0.6480558E-006  0.8048161E+03  0.7818608E-02  0.9553072E-01
         -1   -1    0    0    0  501 -0.00000000000E+00  0.00000000000E+00  0.49722081304E+03  0.49722081307E+03  0.50400000000E-02 0. -1.
          1   -1    0    0  501    0  0.00000000000E+00 -0.00000000000E+00 -0.32567468538E+03  0.32567468542E+03  0.50400000000E-02 0.  1.
    5000001    1    1    2    0    0  0.28421632020E+03 -0.97173876852E+02 -0.97443683612E+02  0.37325319890E+03  0.19900000000E+03 0.  0.
   -5000001    1    1    2    0    0 -0.28421632020E+03  0.97173876852E+02  0.26898981127E+03  0.44964229959E+03  0.19900000000E+03 0.  0.
<mgrwt>
<rscale>  0 0.80481608E+03</rscale>
<asrwt>0</asrwt>
<pdfrwt beam="1">  1        1 0.46524955E-01 0.80481608E+03</pdfrwt>
<pdfrwt beam="2">  1       -1 0.71031545E-01 0.80481608E+03</pdfrwt>
<totfact> 0.17563942E+02</totfact>
</mgrwt>
</event>
<event>
 4    1  0.6480558E-006  0.7256156E+03  0.7818608E-02  0.9674402E-01
         -1   -1    0    0    0  501 -0.00000000000E+00  0.00000000000E+00  0.15566935490E+03  0.15566935499E+03  0.50400000000E-02 0.  1.
          1   -1    0    0  501    0  0.00000000000E+00 -0.00000000000E+00 -0.84557099997E+03  0.84557099998E+03  0.50400000000E-02 0. -1.
    5000001    1    1    2    0    0  0.11639453206E+03 -0.25983609114E+03 -0.48944690785E+03  0.60018476902E+03  0.19900000000E+03 0.  0.
   -5000001    1    1    2    0    0 -0.11639453206E+03  0.25983609114E+03 -0.20045473721E+03  0.40105558595E+03  0.19900000000E+03 0.  0.
<mgrwt>
<rscale>  0 0.72561558E+03</rscale>
<asrwt>0</asrwt>
<pdfrwt beam="1">  1        1 0.12079585E+00 0.72561558E+03</pdfrwt>
<pdfrwt beam="2">  1       -1 0.22238480E-01 0.72561558E+03</pdfrwt>
<totfact> 0.39314317E+02</totfact>
</mgrwt>
</event>
<event>
 4    1  0.6480558E-006  0.4584522E+03  0.7818608E-02  0.1025231E+00
          1   -1    0    0  501    0  0.00000000000E+00  0.00000000000E+00  0.93933049162E+02  0.93933049297E+02  0.50400000000E-02 0.  1.
         -1   -1    0    0    0  501 -0.00000000000E+00 -0.00000000000E+00 -0.55938361202E+03  0.55938361204E+03  0.50400000000E-02 0. -1.
    5000001    1    1    2    0    0  0.10580846544E+02 -0.10270625315E+03 -0.16463420683E+03  0.27814735448E+03  0.19900000000E+03 0.  0.
   -5000001    1    1    2    0    0 -0.10580846544E+02  0.10270625315E+03 -0.30081635603E+03  0.37516930685E+03  0.19900000000E+03 0.  0.
<mgrwt>
<rscale>  0 0.45845222E+03</rscale>
<asrwt>0</asrwt>
<pdfrwt beam="1">  1        1 0.13419007E-01 0.45845222E+03</pdfrwt>
<pdfrwt beam="2">  1       -1 0.79911943E-01 0.45845222E+03</pdfrwt>
<totfact> 0.70793299E+02</totfact>
</mgrwt>
</event>
<event>
 4    1  0.6480558E-006  0.4649700E+03  0.7818608E-02  0.1023350E+00
          1   -1    0    0  501    0  0.00000000000E+00  0.00000000000E+00  0.91289358053E+03  0.91289358055E+03  0.50400000000E-02 0.  1.
         -1   -1    0    0    0  501 -0.00000000000E+00 -0.00000000000E+00 -0.59206553060E+02  0.59206553275E+02  0.50400000000E-02 0. -1.
    5000001    1    1    2    0    0 -0.82977180677E+02 -0.83411916392E+02  0.37539758515E+03  0.44087085098E+03  0.19900000000E+03 0.  0.
   -5000001    1    1    2    0    0  0.82977180677E+02  0.83411916392E+02  0.47828944232E+03  0.53122928284E+03  0.19900000000E+03 0.  0.
<mgrwt>
<rscale>  0 0.46497003E+03</rscale>
<asrwt>0</asrwt>
<pdfrwt beam="1">  1        1 0.13041335E+00 0.46497003E+03</pdfrwt>
<pdfrwt beam="2">  1       -1 0.84580799E-02 0.46497003E+03</pdfrwt>
<totfact> 0.16640693E+03</totfact>
</mgrwt>
</event>
<event>
 4    1  0.6480558E-006  0.8025775E+03  0.7818608E-02  0.9556294E-01
         -1   -1    0    0    0  501 -0.00000000000E+00  0.00000000000E+00  0.48250174805E+03  0.48250174808E+03  0.50400000000E-02 0.  1.
          1   -1    0    0  501    0  0.00000000000E+00 -0.00000000000E+00 -0.33374523481E+03  0.33374523484E+03  0.50400000000E-02 0. -1.
    5000001    1    1    2    0    0  0.13046793500E+03  0.31905110354E+03  0.22358581869E+02  0.39864319248E+03  0.19900000000E+03 0.  0.
   -5000001    1    1    2    0    0 -0.13046793500E+03 -0.31905110354E+03  0.12639793138E+03  0.41760379044E+03  0.19900000000E+03 0.  0.
<mgrwt>
<rscale>  0 0.80257750E+03</rscale>
<asrwt>0</asrwt>
<pdfrwt beam="1">  1        1 0.47677891E-01 0.80257750E+03</pdfrwt>
<pdfrwt beam="2">  1       -1 0.68928821E-01 0.80257750E+03</pdfrwt>
<totfact> 0.18095608E+02</totfact>
</mgrwt>
</event>
<event>
 4    1  0.6480558E-006  0.4404780E+03  0.7818608E-02  0.1030600E+00
          1   -1    0    0  501    0  0.00000000000E+00  0.00000000000E+00  0.16789230552E+03  0.16789230559E+03  0.50400000000E-02 0.  1.
         -1   -1    0    0    0  501 -0.00000000000E+00 -0.00000000000E+00 -0.28890678153E+03  0.28890678158E+03  0.50400000000E-02 0. -1.
    5000001    1    1    2    0    0 -0.76294450992E+02  0.52676145648E+02 -0.78725343412E+02  0.23322585463E+03  0.19900000000E+03 0.  0.
   -5000001    1    1    2    0    0  0.76294450992E+02 -0.52676145648E+02 -0.42289132603E+02  0.22357323254E+03  0.19900000000E+03 0.  0.
<mgrwt>
<rscale>  0 0.44047804E+03</rscale>
<asrwt>0</asrwt>
<pdfrwt beam="1">  1        1 0.23984615E-01 0.44047804E+03</pdfrwt>
<pdfrwt beam="2">  1       -1 0.41272397E-01 0.44047804E+03</pdfrwt>
<totfact> 0.11842402E+03</totfact>
</mgrwt>
</event>
<event>
 4    1  0.6480558E-006  0.5044813E+03  0.7818608E-02  0.1012616E+00
         -1   -1    0    0    0  501 -0.00000000000E+00  0.00000000000E+00  0.27724374040E+03  0.27724374045E+03  0.50400000000E-02 0. -1.
          1   -1    0    0  501    0  0.00000000000E+00 -0.00000000000E+00 -0.22949244286E+03  0.22949244292E+03  0.50400000000E-02 0.  1.
    5000001    1    1    2    0    0  0.13858060840E+03  0.40178841675E+02 -0.32993830322E+02  0.24800910706E+03  0.19900000000E+03 0.  0.
   -5000001    1    1    2    0    0 -0.13858060840E+03 -0.40178841675E+02  0.80745127859E+02  0.25872707631E+03  0.19900000000E+03 0.  0.
<mgrwt>
<rscale>  0 0.50448129E+03</rscale>
<asrwt>0</asrwt>
<pdfrwt beam="1">  1        1 0.32784634E-01 0.50448129E+03</pdfrwt>
<pdfrwt beam="2">  1       -1 0.39606249E-01 0.50448129E+03</pdfrwt>
<totfact> 0.85291581E+02</totfact>
</mgrwt>
</event>
<event>
 4    1  0.6480558E-006  0.1646824E+04  0.7818608E-02  0.8792287E-01
         -1   -1    0    0    0  501 -0.00000000000E+00  0.00000000000E+00  0.11052739892E+04  0.11052739892E+04  0.50400000000E-02 0.  1.
          1   -1    0    0  501    0  0.00000000000E+00 -0.00000000000E+00 -0.61342945262E+03  0.61342945264E+03  0.50400000000E-02 0. -1.
    5000001    1    1    2    0    0 -0.47201310774E+03  0.60429829011E+03  0.48029905738E+03  0.92642375932E+03  0.19900000000E+03 0.  0.
   -5000001    1    1    2    0    0  0.47201310774E+03 -0.60429829011E+03  0.11545479222E+02  0.79227968256E+03  0.19900000000E+03 0.  0.
<mgrwt>
<rscale>  0 0.16468244E+04</rscale>
<asrwt>0</asrwt>
<pdfrwt beam="1">  1        1 0.87632779E-01 0.16468244E+04</pdfrwt>
<pdfrwt beam="2">  1       -1 0.15789628E+00 0.16468244E+04</pdfrwt>
<totfact> 0.10728646E+01</totfact>
</mgrwt>
</event>
<event>
 4    1  0.6480558E-006  0.5024923E+03  0.7818608E-02  0.1013130E+00
          1   -1    0    0  501    0  0.00000000000E+00  0.00000000000E+00  0.17040104940E+04  0.17040104940E+04  0.50400000000E-02 0. -1.
         -1   -1    0    0    0  501 -0.00000000000E+00 -0.00000000000E+00 -0.37044745215E+02  0.37044745558E+02  0.50400000000E-02 0.  1.
    5000001    1    1    2    0    0 -0.39161971432E+02 -0.12827024621E+03  0.57566718080E+03  0.62368310794E+03  0.19900000000E+03 0.  0.
   -5000001    1    1    2    0    0  0.39161971432E+02  0.12827024621E+03  0.10912985680E+04  0.11173721317E+04  0.19900000000E+03 0.  0.
<mgrwt>
<rscale>  0 0.50249233E+03</rscale>
<asrwt>0</asrwt>
<pdfrwt beam="1">  1        1 0.24343003E+00 0.50249233E+03</pdfrwt>
<pdfrwt beam="2">  1       -1 0.52921073E-02 0.50249233E+03</pdfrwt>
<totfact> 0.10065715E+03</totfact>
</mgrwt>
</event>
<event>
 4    1  0.6480558E-006  0.5989548E+03  0.7818608E-02  0.9907577E-01
         -1   -1    0    0    0  501 -0.00000000000E+00  0.00000000000E+00  0.10867245222E+04  0.10867245222E+04  0.50400000000E-02 0. -1.
          1   -1    0    0  501    0  0.00000000000E+00 -0.00000000000E+00 -0.82529398745E+02  0.82529398899E+02  0.50400000000E-02 0.  1.
    5000001    1    1    2    0    0 -0.93204345604E+02  0.88595295487E+02  0.85966509868E+03  0.89171814959E+03  0.19900000000E+03 0.  0.
   -5000001    1    1    2    0    0  0.93204345604E+02 -0.88595295487E+02  0.14453002481E+03  0.27753577156E+03  0.19900000000E+03 0.  0.
<mgrwt>
<rscale>  0 0.59895483E+03</rscale>
<asrwt>0</asrwt>
<pdfrwt beam="1">  1        1 0.11789915E-01 0.59895483E+03</pdfrwt>
<pdfrwt beam="2">  1       -1 0.15524635E+00 0.59895483E+03</pdfrwt>
<totfact> 0.17403925E+02</totfact>
</mgrwt>
</event>
<event>
 4    1  0.6480558E-006  0.9964157E+03  0.7818608E-02  0.9312485E-01
         -1   -1    0    0    0  501 -0.00000000000E+00  0.00000000000E+00  0.77589847789E+03  0.77589847790E+03  0.50400000000E-02 0. -1.
          1   -1    0    0  501    0  0.00000000000E+00 -0.00000000000E+00 -0.31990145278E+03  0.31990145282E+03  0.50400000000E-02 0.  1.
    5000001    1    1    2    0    0 -0.27692480467E+03  0.75546221536E+02  0.61870175321E+03  0.71048394666E+03  0.19900000000E+03 0.  0.
   -5000001    1    1    2    0    0  0.27692480467E+03 -0.75546221536E+02 -0.16270472811E+03  0.38531598407E+03  0.19900000000E+03 0.  0.
<mgrwt>
<rscale>  0 0.99641568E+03</rscale>
<asrwt>0</asrwt>
<pdfrwt beam="1">  1        1 0.45700208E-01 0.99641568E+03</pdfrwt>
<pdfrwt beam="2">  1       -1 0.11084264E+00 0.99641568E+03</pdfrwt>
<totfact> 0.66781850E+01</totfact>
</mgrwt>
</event>
<event>
 4    1  0.6480558E-006  0.4332334E+03  0.7818608E-02  0.1032843E+00
         -1   -1    0    0    0  501 -0.00000000000E+00  0.00000000000E+00  0.19879607338E+03  0.19879607344E+03  0.50400000000E-02 0.  1.
          1   -1    0    0  501    0  0.00000000000E+00 -0.00000000000E+00 -0.23603477153E+03  0.23603477158E+03  0.50400000000E-02 0. -1.
    5000001    1    1    2    0    0  0.12236614583E+02 -0.65364871564E+02 -0.72664764333E+02  0.22204384510E+03  0.19900000000E+03 0.  0.
   -5000001    1    1    2    0    0 -0.12236614583E+02  0.65364871564E+02  0.35426066181E+02  0.21278699992E+03  0.19900000000E+03 0.  0.
<mgrwt>
<rscale>  0 0.43323336E+03</rscale>
<asrwt>0</asrwt>
<pdfrwt beam="1">  1        1 0.33719253E-01 0.43323336E+03</pdfrwt>
<pdfrwt beam="2">  1       -1 0.28399439E-01 0.43323336E+03</pdfrwt>
<totfact> 0.14736288E+03</totfact>
</mgrwt>
</event>
<event>
 4    1  0.6480558E-006  0.5620511E+03  0.7818608E-02  0.9987424E-01
          1   -1    0    0  501    0  0.00000000000E+00  0.00000000000E+00  0.89110342394E+03  0.89110342395E+03  0.50400000000E-02 0.  1.
         -1   -1    0    0    0  501 -0.00000000000E+00 -0.00000000000E+00 -0.88626474681E+02  0.88626474824E+02  0.50400000000E-02 0. -1.
    5000001    1    1    2    0    0 -0.16096091198E+03  0.11552628470E+03  0.38217386620E+03  0.47424951413E+03  0.19900000000E+03 0.  0.
   -5000001    1    1    2    0    0  0.16096091198E+03 -0.11552628470E+03  0.42030308305E+03  0.50548038465E+03  0.19900000000E+03 0.  0.
<mgrwt>
<rscale>  0 0.56205108E+03</rscale>
<asrwt>0</asrwt>
<pdfrwt beam="1">  1        1 0.12730049E+00 0.56205108E+03</pdfrwt>
<pdfrwt beam="2">  1       -1 0.12660925E-01 0.56205108E+03</pdfrwt>
<totfact> 0.91482017E+02</totfact>
</mgrwt>
</event>
<event>
 4    1  0.6480558E-006  0.1059315E+04  0.7818608E-02  0.9245780E-01
          1   -1    0    0  501    0  0.00000000000E+00  0.00000000000E+00  0.16073308593E+04  0.16073308594E+04  0.50400000000E-02 0.  1.
         -1   -1    0    0    0  501 -0.00000000000E+00 -0.00000000000E+00 -0.17453590069E+03  0.17453590076E+03  0.50400000000E-02 0. -1.
    5000001    1    1    2    0    0  0.22635700500E+03  0.41674505218E+03  0.92931365803E+03  0.10621387891E+04  0.19900000000E+03 0.  0.
   -5000001    1    1    2    0    0 -0.22635700500E+03 -0.41674505218E+03  0.50348130062E+03  0.71972797105E+03  0.19900000000E+03 0.  0.
<mgrwt>
<rscale>  0 0.10593148E+04</rscale>
<asrwt>0</asrwt>
<pdfrwt beam="1">  1        1 0.22961869E+00 0.10593148E+04</pdfrwt>
<pdfrwt beam="2">  1       -1 0.24933701E-01 0.10593148E+04</pdfrwt>
<totfact> 0.93010078E+01</totfact>
</mgrwt>
</event>
<event>
 4    1  0.6480558E-006  0.5684503E+03  0.7818608E-02  0.9973114E-01
          1   -1    0    0  501    0  0.00000000000E+00  0.00000000000E+00  0.17285362085E+04  0.17285362085E+04  0.50400000000E-02 0. -1.
         -1   -1    0    0    0  501 -0.00000000000E+00 -0.00000000000E+00 -0.46735462721E+02  0.46735462993E+02  0.50400000000E-02 0.  1.
    5000001    1    1    2    0    0 -0.54217457660E+02  0.10851337784E+03  0.13489837174E+04  0.13689677701E+04  0.19900000000E+03 0.  0.
   -5000001    1    1    2    0    0  0.54217457660E+02 -0.10851337784E+03  0.33281702844E+03  0.40630390141E+03  0.19900000000E+03 0.  0.
<mgrwt>
<rscale>  0 0.56845031E+03</rscale>
<asrwt>0</asrwt>
<pdfrwt beam="1">  1        1 0.24693378E+00 0.56845031E+03</pdfrwt>
<pdfrwt beam="2">  1       -1 0.66764936E-02 0.56845031E+03</pdfrwt>
<totfact> 0.67763869E+02</totfact>
</mgrwt>
</event>
<event>
 4    1  0.6480558E-006  0.6077716E+03  0.7818608E-02  0.9889412E-01
         -1   -1    0    0    0  501 -0.00000000000E+00  0.00000000000E+00  0.13543022909E+03  0.13543022918E+03  0.50400000000E-02 0. -1.
          1   -1    0    0  501    0  0.00000000000E+00 -0.00000000000E+00 -0.68187578588E+03  0.68187578589E+03  0.50400000000E-02 0.  1.
    5000001    1    1    2    0    0 -0.18035772606E+03 -0.96229710876E+02 -0.41398325280E+03  0.50276455743E+03  0.19900000000E+03 0.  0.
   -5000001    1    1    2    0    0  0.18035772606E+03  0.96229710876E+02 -0.13246230399E+03  0.31454145765E+03  0.19900000000E+03 0.  0.
<mgrwt>
<rscale>  0 0.60777165E+03</rscale>
<asrwt>0</asrwt>
<pdfrwt beam="1">  1        1 0.97410825E-01 0.60777165E+03</pdfrwt>
<pdfrwt beam="2">  1       -1 0.19347176E-01 0.60777165E+03</pdfrwt>
<totfact> 0.68963742E+02</totfact>
</mgrwt>
</event>
<event>
 4    1  0.6480558E-006  0.5921901E+03  0.7818608E-02  0.9921743E-01
          1   -1    0    0  501    0  0.00000000000E+00  0.00000000000E+00  0.50633220653E+03  0.50633220656E+03  0.50400000000E-02 0. -1.
         -1   -1    0    0    0  501 -0.00000000000E+00 -0.00000000000E+00 -0.17315169454E+03  0.17315169461E+03  0.50400000000E-02 0.  1.
    5000001    1    1    2    0    0  0.15438745026E+03 -0.13311157582E+03  0.25921890393E+03  0.38516180570E+03  0.19900000000E+03 0.  0.
   -5000001    1    1    2    0    0 -0.15438745026E+03  0.13311157582E+03  0.73961608069E+02  0.29432209547E+03  0.19900000000E+03 0.  0.
<mgrwt>
<rscale>  0 0.59219010E+03</rscale>
<asrwt>0</asrwt>
<pdfrwt beam="1">  1        1 0.72333172E-01 0.59219010E+03</pdfrwt>
<pdfrwt beam="2">  1       -1 0.24735956E-01 0.59219010E+03</pdfrwt>
<totfact> 0.69275933E+02</totfact>
</mgrwt>
</event>
<event>
 4    1  0.6480558E-006  0.6703106E+03  0.7818608E-02  0.9769397E-01
          1   -1    0    0  501    0  0.00000000000E+00  0.00000000000E+00  0.75233320724E+03  0.75233320726E+03  0.50400000000E-02 0.  1.
         -1   -1    0    0    0  501 -0.00000000000E+00 -0.00000000000E+00 -0.14930759699E+03  0.14930759707E+03  0.50400000000E-02 0. -1.
    5000001    1    1    2    0    0  0.99272913446E+02 -0.24552349857E+03  0.36998352838E+03  0.49661424765E+03  0.19900000000E+03 0.  0.
   -5000001    1    1    2    0    0 -0.99272913446E+02  0.24552349857E+03  0.23304208188E+03  0.40502655669E+03  0.19900000000E+03 0.  0.
<mgrwt>
<rscale>  0 0.67031056E+03</rscale>
<asrwt>0</asrwt>
<pdfrwt beam="1">  1        1 0.10747617E+00 0.67031056E+03</pdfrwt>
<pdfrwt beam="2">  1       -1 0.21329657E-01 0.67031056E+03</pdfrwt>
<totfact> 0.50596331E+02</totfact>
</mgrwt>
</event>
<event>
 4    1  0.6480558E-006  0.1950954E+04  0.7818608E-02  0.8629901E-01
          1   -1    0    0  501    0  0.00000000000E+00  0.00000000000E+00  0.69690001310E+03  0.69690001312E+03  0.50400000000E-02 0.  1.
         -1   -1    0    0    0  501 -0.00000000000E+00 -0.00000000000E+00 -0.13654117793E+04  0.13654117793E+04  0.50400000000E-02 0. -1.
    5000001    1    1    2    0    0  0.81139181972E+03 -0.44405360886E+03 -0.58532972336E+03  0.11125431127E+04  0.19900000000E+03 0.  0.
   -5000001    1    1    2    0    0 -0.81139181972E+03  0.44405360886E+03 -0.83182042823E+02  0.94976867968E+03  0.19900000000E+03 0.  0.
<mgrwt>
<rscale>  0 0.19509541E+04</rscale>
<asrwt>0</asrwt>
<pdfrwt beam="1">  1        1 0.99557144E-01 0.19509541E+04</pdfrwt>
<pdfrwt beam="2">  1       -1 0.19505883E+00 0.19509541E+04</pdfrwt>
<totfact> 0.46699402E+00</totfact>
</mgrwt>
</event>
<event>
 4    1  0.6480558E-006  0.6471092E+03  0.7818608E-02  0.9812219E-01
         -1   -1    0    0    0  501 -0.00000000000E+00  0.00000000000E+00  0.54202026953E+03  0.54202026956E+03  0.50400000000E-02 0. -1.
          1   -1    0    0  501    0  0.00000000000E+00 -0.00000000000E+00 -0.19314327288E+03  0.19314327295E+03  0.50400000000E-02 0.  1.
    5000001    1    1    2    0    0 -0.24865685108E+03 -0.56624147707E+02  0.18247537793E+03  0.37139572863E+03  0.19900000000E+03 0.  0.
   -5000001    1    1    2    0    0  0.24865685108E+03  0.56624147707E+02  0.16640161872E+03  0.36376781387E+03  0.19900000000E+03 0.  0.
<mgrwt>
<rscale>  0 0.64710917E+03</rscale>
<asrwt>0</asrwt>
<pdfrwt beam="1">  1        1 0.27591896E-01 0.64710917E+03</pdfrwt>
<pdfrwt beam="2">  1       -1 0.77431468E-01 0.64710917E+03</pdfrwt>
<totfact> 0.29074176E+02</totfact>
</mgrwt>
</event>
<event>
 4    1  0.6480558E-006  0.6841693E+03  0.7818608E-02  0.9744695E-01
          1   -1    0    0  501    0  0.00000000000E+00  0.00000000000E+00  0.70486956654E+03  0.70486956656E+03  0.50400000000E-02 0.  1.
         -1   -1    0    0    0  501 -0.00000000000E+00 -0.00000000000E+00 -0.16601921612E+03  0.16601921620E+03  0.50400000000E-02 0. -1.
    5000001    1    1    2    0    0 -0.24516161942E+03  0.33917921029E+01  0.43687591277E+03  0.53905221180E+03  0.19900000000E+03 0.  0.
   -5000001    1    1    2    0    0  0.24516161942E+03 -0.33917921029E+01  0.10197443765E+03  0.33183657096E+03  0.19900000000E+03 0.  0.
<mgrwt>
<rscale>  0 0.68416926E+03</rscale>
<asrwt>0</asrwt>
<pdfrwt beam="1">  1        1 0.10069565E+00 0.68416926E+03</pdfrwt>
<pdfrwt beam="2">  1       -1 0.23717032E-01 0.68416926E+03</pdfrwt>
<totfact> 0.46616124E+02</totfact>
</mgrwt>
</event>
<event>
 4    1  0.6480558E-006  0.5382859E+03  0.7818608E-02  0.1004242E+00
         -1   -1    0    0    0  501 -0.00000000000E+00  0.00000000000E+00  0.10587513627E+03  0.10587513639E+03  0.50400000000E-02 0. -1.
          1   -1    0    0  501    0  0.00000000000E+00 -0.00000000000E+00 -0.68418254338E+03  0.68418254340E+03  0.50400000000E-02 0.  1.
    5000001    1    1    2    0    0  0.15118410695E+03 -0.50319053858E+02 -0.41582370532E+03  0.48774890598E+03  0.19900000000E+03 0.  0.
   -5000001    1    1    2    0    0 -0.15118410695E+03  0.50319053858E+02 -0.16248370179E+03  0.30230877381E+03  0.19900000000E+03 0.  0.
<mgrwt>
<rscale>  0 0.53828587E+03</rscale>
<asrwt>0</asrwt>
<pdfrwt beam="1">  1        1 0.97740361E-01 0.53828587E+03</pdfrwt>
<pdfrwt beam="2">  1       -1 0.15125020E-01 0.53828587E+03</pdfrwt>
<totfact> 0.10278672E+03</totfact>
</mgrwt>
</event>
<event>
 4    1  0.6480558E-006  0.5754871E+03  0.7818608E-02  0.9957609E-01
         -1   -1    0    0    0  501 -0.00000000000E+00  0.00000000000E+00  0.59856812225E+02  0.59856812437E+02  0.50400000000E-02 0. -1.
          1   -1    0    0  501    0  0.00000000000E+00 -0.00000000000E+00 -0.13832400895E+04  0.13832400895E+04  0.50400000000E-02 0.  1.
    5000001    1    1    2    0    0  0.79367908284E+02 -0.18442493117E+03 -0.52703691774E+03  0.59806415439E+03  0.19900000000E+03 0.  0.
   -5000001    1    1    2    0    0 -0.79367908284E+02  0.18442493117E+03 -0.79634635950E+03  0.84503274753E+03  0.19900000000E+03 0.  0.
<mgrwt>
<rscale>  0 0.57548707E+03</rscale>
<asrwt>0</asrwt>
<pdfrwt beam="1">  1        1 0.19760571E+00 0.57548707E+03</pdfrwt>
<pdfrwt beam="2">  1       -1 0.85509741E-02 0.57548707E+03</pdfrwt>
<totfact> 0.76499654E+02</totfact>
</mgrwt>
</event>
<event>
 4    1  0.6480558E-006  0.7489967E+03  0.7818608E-02  0.9636926E-01
         -1   -1    0    0    0  501 -0.00000000000E+00  0.00000000000E+00  0.53787659807E+03  0.53787659809E+03  0.50400000000E-02 0. -1.
          1   -1    0    0  501    0  0.00000000000E+00 -0.00000000000E+00 -0.26074570756E+03  0.26074570761E+03  0.50400000000E-02 0.  1.
    5000001    1    1    2    0    0  0.84656412581E+02  0.27229815660E+03  0.28682880706E+03  0.45076020104E+03  0.19900000000E+03 0.  0.
   -5000001    1    1    2    0    0 -0.84656412581E+02 -0.27229815660E+03 -0.96979165558E+01  0.34786210467E+03  0.19900000000E+03 0.  0.
<mgrwt>
<rscale>  0 0.74899670E+03</rscale>
<asrwt>0</asrwt>
<pdfrwt beam="1">  1        1 0.37249387E-01 0.74899670E+03</pdfrwt>
<pdfrwt beam="2">  1       -1 0.76839514E-01 0.74899670E+03</pdfrwt>
<totfact> 0.19948341E+02</totfact>
</mgrwt>
</event>
<event>
 4    1  0.6480558E-006  0.4270106E+03  0.7818608E-02  0.1034808E+00
          1   -1    0    0  501    0  0.00000000000E+00  0.00000000000E+00  0.14296445863E+04  0.14296445863E+04  0.50400000000E-02 0.  1.
         -1   -1    0    0    0  501 -0.00000000000E+00 -0.00000000000E+00 -0.31885210763E+02  0.31885211161E+02  0.50400000000E-02 0. -1.
    5000001    1    1    2    0    0  0.63569335623E+02 -0.68734991109E+01  0.54987562952E+03  0.58826228280E+03  0.19900000000E+03 0.  0.
   -5000001    1    1    2    0    0 -0.63569335623E+02  0.68734991109E+01  0.84788374599E+03  0.87326751464E+03  0.19900000000E+03 0.  0.
<mgrwt>
<rscale>  0 0.42701063E+03</rscale>
<asrwt>0</asrwt>
<pdfrwt beam="1">  1        1 0.20423502E+00 0.42701063E+03</pdfrwt>
<pdfrwt beam="2">  1       -1 0.45550283E-02 0.42701063E+03</pdfrwt>
<totfact> 0.18888196E+03</totfact>
</mgrwt>
</event>
<event>
 4    1  0.6480558E-006  0.8300442E+03  0.7818608E-02  0.9517519E-01
          1   -1    0    0  501    0  0.00000000000E+00  0.00000000000E+00  0.24173008991E+03  0.24173008996E+03  0.50400000000E-02 0.  1.
         -1   -1    0    0    0  501 -0.00000000000E+00 -0.00000000000E+00 -0.71254400051E+03  0.71254400053E+03  0.50400000000E-02 0. -1.
    5000001    1    1    2    0    0 -0.72841586821E+02  0.35257557017E+03 -0.17215547738E+03  0.44593041816E+03  0.19900000000E+03 0.  0.
   -5000001    1    1    2    0    0  0.72841586821E+02 -0.35257557017E+03 -0.29865843323E+03  0.50834367232E+03  0.19900000000E+03 0.  0.
<mgrwt>
<rscale>  0 0.83004416E+03</rscale>
<asrwt>0</asrwt>
<pdfrwt beam="1">  1        1 0.34532870E-01 0.83004416E+03</pdfrwt>
<pdfrwt beam="2">  1       -1 0.10179200E+00 0.83004416E+03</pdfrwt>
<totfact> 0.11834225E+02</totfact>
</mgrwt>
</event>
<event>
 4    1  0.6480558E-006  0.8384769E+03  0.7818608E-02  0.9505935E-01
          1   -1    0    0  501    0  0.00000000000E+00  0.00000000000E+00  0.98499776810E+02  0.98499776939E+02  0.50400000000E-02 0.  1.
         -1   -1    0    0    0  501 -0.00000000000E+00 -0.00000000000E+00 -0.17843783162E+04  0.17843783162E+04  0.50400000000E-02 0. -1.
    5000001    1    1    2    0    0  0.49867328795E+02 -0.33491887470E+03 -0.51365178965E+03  0.64660386955E+03  0.19900000000E+03 0.  0.
   -5000001    1    1    2    0    0 -0.49867328795E+02  0.33491887470E+03 -0.11722267497E+04  0.12362742236E+04  0.19900000000E+03 0.  0.
<mgrwt>
<rscale>  0 0.83847687E+03</rscale>
<asrwt>0</asrwt>
<pdfrwt beam="1">  1        1 0.14071398E-01 0.83847687E+03</pdfrwt>
<pdfrwt beam="2">  1       -1 0.25491117E+00 0.83847687E+03</pdfrwt>
<totfact> 0.27899088E+01</totfact>
</mgrwt>
</event>
<event>
 4    1  0.6480558E-006  0.8029314E+03  0.7818608E-02  0.9555784E-01
          1   -1    0    0  501    0  0.00000000000E+00  0.00000000000E+00  0.49875944069E+03  0.49875944072E+03  0.50400000000E-02 0.  1.
         -1   -1    0    0    0  501 -0.00000000000E+00 -0.00000000000E+00 -0.32315119711E+03  0.32315119715E+03  0.50400000000E-02 0. -1.
    5000001    1    1    2    0    0 -0.28564052009E+03 -0.17897911972E+03 -0.34643828825E+01  0.39145502163E+03  0.19900000000E+03 0.  0.
   -5000001    1    1    2    0    0  0.28564052009E+03  0.17897911972E+03  0.17907262646E+03  0.43045561625E+03  0.19900000000E+03 0.  0.
<mgrwt>
<rscale>  0 0.80293141E+03</rscale>
<asrwt>0</asrwt>
<pdfrwt beam="1">  1        1 0.71251349E-01 0.80293141E+03</pdfrwt>
<pdfrwt beam="2">  1       -1 0.46164457E-01 0.80293141E+03</pdfrwt>
<totfact> 0.23219666E+02</totfact>
</mgrwt>
</event>
<event>
 4    1  0.6480558E-006  0.7102613E+03  0.7818608E-02  0.9699843E-01
         -1   -1    0    0    0  501 -0.00000000000E+00  0.00000000000E+00  0.29955970648E+03  0.29955970653E+03  0.50400000000E-02 0.  1.
          1   -1    0    0  501    0  0.00000000000E+00 -0.00000000000E+00 -0.42101050961E+03  0.42101050964E+03  0.50400000000E-02 0. -1.
    5000001    1    1    2    0    0 -0.13597860355E+03 -0.24082877951E+03 -0.16231927965E+03  0.37740857199E+03  0.19900000000E+03 0.  0.
   -5000001    1    1    2    0    0  0.13597860355E+03  0.24082877951E+03  0.40868476524E+02  0.34316164418E+03  0.19900000000E+03 0.  0.
<mgrwt>
<rscale>  0 0.71026132E+03</rscale>
<asrwt>0</asrwt>
<pdfrwt beam="1">  1        1 0.60144358E-01 0.71026132E+03</pdfrwt>
<pdfrwt beam="2">  1       -1 0.42794244E-01 0.71026132E+03</pdfrwt>
<totfact> 0.33641364E+02</totfact>
</mgrwt>
</event>
<event>
 4    1  0.6480558E-006  0.7156761E+03  0.7818608E-02  0.9690793E-01
          1   -1    0    0  501    0  0.00000000000E+00  0.00000000000E+00  0.58906688542E+03  0.58906688544E+03  0.50400000000E-02 0. -1.
         -1   -1    0    0    0  501 -0.00000000000E+00 -0.00000000000E+00 -0.21737442950E+03  0.21737442956E+03  0.50400000000E-02 0.  1.
    5000001    1    1    2    0    0 -0.23583044228E+02  0.29335577504E+03  0.13759883026E+03  0.38098321330E+03  0.19900000000E+03 0.  0.
   -5000001    1    1    2    0    0  0.23583044228E+02 -0.29335577504E+03  0.23409362566E+03  0.42545810170E+03  0.19900000000E+03 0.  0.
<mgrwt>
<rscale>  0 0.71567612E+03</rscale>
<asrwt>0</asrwt>
<pdfrwt beam="1">  1        1 0.84152412E-01 0.71567612E+03</pdfrwt>
<pdfrwt beam="2">  1       -1 0.31053490E-01 0.71567612E+03</pdfrwt>
<totfact> 0.37897888E+02</totfact>
</mgrwt>
</event>
<event>
 4    1  0.6480558E-006  0.4751942E+03  0.7818608E-02  0.1020464E+00
         -1   -1    0    0    0  501 -0.00000000000E+00  0.00000000000E+00  0.30634227125E+02  0.30634227540E+02  0.50400000000E-02 0. -1.
          1   -1    0    0  501    0  0.00000000000E+00 -0.00000000000E+00 -0.18427881875E+04  0.18427881875E+04  0.50400000000E-02 0.  1.
    5000001    1    1    2    0    0  0.12750265937E+02 -0.96163897747E+02 -0.56599019395E+03  0.60774662825E+03  0.19900000000E+03 0.  0.
   -5000001    1    1    2    0    0 -0.12750265937E+02  0.96163897747E+02 -0.12461637664E+04  0.12656757868E+04  0.19900000000E+03 0.  0.
<mgrwt>
<rscale>  0 0.47519424E+03</rscale>
<asrwt>0</asrwt>
<pdfrwt beam="1">  1        1 0.26325539E+00 0.47519424E+03</pdfrwt>
<pdfrwt beam="2">  1       -1 0.43763194E-02 0.47519424E+03</pdfrwt>
<totfact> 0.11039841E+03</totfact>
</mgrwt>
</event>
<event>
 4    1  0.6480558E-006  0.8462712E+03  0.7818608E-02  0.9495355E-01
         -1   -1    0    0    0  501 -0.00000000000E+00  0.00000000000E+00  0.22802413093E+03  0.22802413098E+03  0.50400000000E-02 0.  1.
          1   -1    0    0  501    0  0.00000000000E+00 -0.00000000000E+00 -0.78519639002E+03  0.78519639003E+03  0.50400000000E-02 0. -1.
    5000001    1    1    2    0    0  0.30187987031E+03 -0.21840405219E+03 -0.24899284787E+03  0.49033684790E+03  0.19900000000E+03 0.  0.
   -5000001    1    1    2    0    0 -0.30187987031E+03  0.21840405219E+03 -0.30817941122E+03  0.52288367312E+03  0.19900000000E+03 0.  0.
<mgrwt>
<rscale>  0 0.84627117E+03</rscale>
<asrwt>0</asrwt>
<pdfrwt beam="1">  1        1 0.11217091E+00 0.84627117E+03</pdfrwt>
<pdfrwt beam="2">  1       -1 0.32574876E-01 0.84627117E+03</pdfrwt>
<totfact> 0.22741515E+02</totfact>
</mgrwt>
</event>
<event>
 4    1  0.6480558E-006  0.1533177E+04  0.7818608E-02  0.8862685E-01
         -1   -1    0    0    0  501 -0.00000000000E+00  0.00000000000E+00  0.35529184010E+03  0.35529184013E+03  0.50400000000E-02 0. -1.
          1   -1    0    0  501    0  0.00000000000E+00 -0.00000000000E+00 -0.16540151234E+04  0.16540151234E+04  0.50400000000E-02 0.  1.
    5000001    1    1    2    0    0 -0.27178620374E+03 -0.36528879896E+03 -0.14143838746E+04  0.14991285442E+04  0.19900000000E+03 0.  0.
   -5000001    1    1    2    0    0  0.27178620374E+03  0.36528879896E+03  0.11566059132E+03  0.51017841935E+03  0.19900000000E+03 0.  0.
<mgrwt>
<rscale>  0 0.15331772E+04</rscale>
<asrwt>0</asrwt>
<pdfrwt beam="1">  1        1 0.23628787E+00 0.15331772E+04</pdfrwt>
<pdfrwt beam="2">  1       -1 0.50755978E-01 0.15331772E+04</pdfrwt>
<totfact> 0.23290335E+01</totfact>
</mgrwt>
</event>
<event>
 4    1  0.6480558E-006  0.4848612E+03  0.7818608E-02  0.1017808E+00
         -1   -1    0    0    0  501 -0.00000000000E+00  0.00000000000E+00  0.26564930006E+03  0.26564930011E+03  0.50400000000E-02 0. -1.
          1   -1    0    0  501    0  0.00000000000E+00 -0.00000000000E+00 -0.22124128968E+03  0.22124128974E+03  0.50400000000E-02 0.  1.
    5000001    1    1    2    0    0  0.69239596914E+02 -0.40746748964E+02 -0.91038448486E+02  0.23311674851E+03  0.19900000000E+03 0.  0.
   -5000001    1    1    2    0    0 -0.69239596914E+02  0.40746748964E+02  0.13544645886E+03  0.25377384134E+03  0.19900000000E+03 0.  0.
<mgrwt>
<rscale>  0 0.48486119E+03</rscale>
<asrwt>0</asrwt>
<pdfrwt beam="1">  1        1 0.31605898E-01 0.48486119E+03</pdfrwt>
<pdfrwt beam="2">  1       -1 0.37949900E-01 0.48486119E+03</pdfrwt>
<totfact> 0.96520038E+02</totfact>
</mgrwt>
</event>
<event>
 4    1  0.6480558E-006  0.5494371E+03  0.7818608E-02  0.1001624E+00
         -1   -1    0    0    0  501 -0.00000000000E+00  0.00000000000E+00  0.18141368675E+04  0.18141368675E+04  0.50400000000E-02 0. -1.
          1   -1    0    0  501    0  0.00000000000E+00 -0.00000000000E+00 -0.41601205040E+02  0.41601205345E+02  0.50400000000E-02 0.  1.
    5000001    1    1    2    0    0 -0.34383850114E+01  0.16605513800E+03  0.11936625709E+04  0.12214816677E+04  0.19900000000E+03 0.  0.
   -5000001    1    1    2    0    0  0.34383850114E+01 -0.16605513800E+03  0.57887309151E+03  0.63425640511E+03  0.19900000000E+03 0.  0.
<mgrwt>
<rscale>  0 0.54943709E+03</rscale>
<asrwt>0</asrwt>
<pdfrwt beam="1">  1        1 0.59430308E-02 0.54943709E+03</pdfrwt>
<pdfrwt beam="2">  1       -1 0.25916234E+00 0.54943709E+03</pdfrwt>
<totfact> 0.88462302E+01</totfact>
</mgrwt>
</event>
<event>
 4    1  0.6480558E-006  0.8245418E+03  0.7818608E-02  0.9525158E-01
          1   -1    0    0  501    0  0.00000000000E+00  0.00000000000E+00  0.11354407620E+04  0.11354407620E+04  0.50400000000E-02 0.  1.
         -1   -1    0    0    0  501 -0.00000000000E+00 -0.00000000000E+00 -0.14969280211E+03  0.14969280220E+03  0.50400000000E-02 0. -1.
    5000001    1    1    2    0    0  0.33588526140E+03 -0.13198613467E+03  0.47530521042E+03  0.62909084529E+03  0.19900000000E+03 0.  0.
   -5000001    1    1    2    0    0 -0.33588526140E+03  0.13198613467E+03  0.51044274949E+03  0.65604271894E+03  0.19900000000E+03 0.  0.
<mgrwt>
<rscale>  0 0.82454183E+03</rscale>
<asrwt>0</asrwt>
<pdfrwt beam="1">  1        1 0.16220581E+00 0.82454183E+03</pdfrwt>
<pdfrwt beam="2">  1       -1 0.21384687E-01 0.82454183E+03</pdfrwt>
<totfact> 0.25296376E+02</totfact>
</mgrwt>
</event>
<event>
 4    1  0.6480558E-006  0.5733619E+03  0.7818608E-02  0.9962267E-01
         -1   -1    0    0    0  501 -0.00000000000E+00  0.00000000000E+00  0.57466119103E+03  0.57466119105E+03  0.50400000000E-02 0. -1.
          1   -1    0    0  501    0  0.00000000000E+00 -0.00000000000E+00 -0.14301637166E+03  0.14301637175E+03  0.50400000000E-02 0.  1.
    5000001    1    1    2    0    0  0.62518806086E+02  0.11960082749E+03  0.41123211995E+03  0.47636731157E+03  0.19900000000E+03 0.  0.
   -5000001    1    1    2    0    0 -0.62518806086E+02 -0.11960082749E+03  0.20412699415E+02  0.24131025123E+03  0.19900000000E+03 0.  0.
<mgrwt>
<rscale>  0 0.57336187E+03</rscale>
<asrwt>0</asrwt>
<pdfrwt beam="1">  1        1 0.20430911E-01 0.57336187E+03</pdfrwt>
<pdfrwt beam="2">  1       -1 0.82094455E-01 0.57336187E+03</pdfrwt>
<totfact> 0.38155300E+02</totfact>
</mgrwt>
</event>
<event>
 4    1  0.6480558E-006  0.8759133E+03  0.7818608E-02  0.9456202E-01
          1   -1    0    0  501    0  0.00000000000E+00  0.00000000000E+00  0.15359484585E+04  0.15359484585E+04  0.50400000000E-02 0.  1.
         -1   -1    0    0    0  501 -0.00000000000E+00 -0.00000000000E+00 -0.12487790664E+03  0.12487790674E+03  0.50400000000E-02 0. -1.
    5000001    1    1    2    0    0 -0.37313854457E+03 -0.10967992065E+03  0.64730993874E+03  0.78094379774E+03  0.19900000000E+03 0.  0.
   -5000001    1    1    2    0    0  0.37313854457E+03  0.10967992065E+03  0.76376061308E+03  0.87988256747E+03  0.19900000000E+03 0.  0.
<mgrwt>
<rscale>  0 0.87591330E+03</rscale>
<asrwt>0</asrwt>
<pdfrwt beam="1">  1        1 0.21942121E+00 0.87591330E+03</pdfrwt>
<pdfrwt beam="2">  1       -1 0.17839701E-01 0.87591330E+03</pdfrwt>
<totfact> 0.18384327E+02</totfact>
</mgrwt>
</event>
<event>
 4    1  0.6480558E-006  0.5124720E+03  0.7818608E-02  0.1010574E+00
          1   -1    0    0  501    0  0.00000000000E+00  0.00000000000E+00  0.10292751483E+04  0.10292751483E+04  0.50400000000E-02 0. -1.
         -1   -1    0    0    0  501 -0.00000000000E+00 -0.00000000000E+00 -0.63789442411E+02  0.63789442610E+02  0.50400000000E-02 0.  1.
    5000001    1    1    2    0    0 -0.23344881090E+02  0.12518861331E+03  0.69430837088E+03  0.73340458565E+03  0.19900000000E+03 0.  0.
   -5000001    1    1    2    0    0  0.23344881090E+02 -0.12518861331E+03  0.27117733503E+03  0.35966000530E+03  0.19900000000E+03 0.  0.
<mgrwt>
<rscale>  0 0.51247200E+03</rscale>
<asrwt>0</asrwt>
<pdfrwt beam="1">  1        1 0.14703931E+00 0.51247200E+03</pdfrwt>
<pdfrwt beam="2">  1       -1 0.91127774E-02 0.51247200E+03</pdfrwt>
<totfact> 0.12123089E+03</totfact>
</mgrwt>
</event>
<event>
 4    1  0.6480558E-006  0.5620582E+03  0.7818608E-02  0.9987408E-01
          1   -1    0    0  501    0  0.00000000000E+00  0.00000000000E+00  0.91158847209E+02  0.91158847348E+02  0.50400000000E-02 0. -1.
         -1   -1    0    0    0  501 -0.00000000000E+00 -0.00000000000E+00 -0.86637065729E+03  0.86637065731E+03  0.50400000000E-02 0.  1.
    5000001    1    1    2    0    0  0.62679101122E+02 -0.17899599097E+03 -0.28815057336E+03  0.39824613925E+03  0.19900000000E+03 0.  0.
   -5000001    1    1    2    0    0 -0.62679101122E+02  0.17899599097E+03 -0.48706123673E+03  0.55928336541E+03  0.19900000000E+03 0.  0.
<mgrwt>
<rscale>  0 0.56205818E+03</rscale>
<asrwt>0</asrwt>
<pdfrwt beam="1">  1        1 0.13022693E-01 0.56205818E+03</pdfrwt>
<pdfrwt beam="2">  1       -1 0.12376723E+00 0.56205818E+03</pdfrwt>
<totfact> 0.27321250E+02</totfact>
</mgrwt>
</event>
<event>
 4    1  0.6480558E-006  0.6048338E+03  0.7818608E-02  0.9895428E-01
         -1   -1    0    0    0  501 -0.00000000000E+00  0.00000000000E+00  0.65098717730E+02  0.65098717925E+02  0.50400000000E-02 0. -1.
          1   -1    0    0  501    0  0.00000000000E+00 -0.00000000000E+00 -0.14048813917E+04  0.14048813917E+04  0.50400000000E-02 0.  1.
    5000001    1    1    2    0    0  0.15444597950E+03  0.12781084751E+03 -0.40738925478E+03  0.49573801371E+03  0.19900000000E+03 0.  0.
   -5000001    1    1    2    0    0 -0.15444597950E+03 -0.12781084751E+03 -0.93239341920E+03  0.97424209593E+03  0.19900000000E+03 0.  0.
<mgrwt>
<rscale>  0 0.60483379E+03</rscale>
<asrwt>0</asrwt>
<pdfrwt beam="1">  1        1 0.20069732E+00 0.60483379E+03</pdfrwt>
<pdfrwt beam="2">  1       -1 0.92998177E-02 0.60483379E+03</pdfrwt>
<totfact> 0.64830777E+02</totfact>
</mgrwt>
</event>
<event>
 4    1  0.6480558E-006  0.7388575E+03  0.7818608E-02  0.9652995E-01
          1   -1    0    0  501    0  0.00000000000E+00  0.00000000000E+00  0.20540550766E+04  0.20540550766E+04  0.50400000000E-02 0.  1.
         -1   -1    0    0    0  501 -0.00000000000E+00 -0.00000000000E+00 -0.66443009699E+02  0.66443009890E+02  0.50400000000E-02 0. -1.
    5000001    1    1    2    0    0  0.10794298786E+03 -0.28780861904E+03  0.85346743461E+03  0.92870509408E+03  0.19900000000E+03 0.  0.
   -5000001    1    1    2    0    0 -0.10794298786E+03  0.28780861904E+03  0.11341446323E+04  0.11917929924E+04  0.19900000000E+03 0.  0.
<mgrwt>
<rscale>  0 0.73885750E+03</rscale>
<asrwt>0</asrwt>
<pdfrwt beam="1">  1        1 0.29343648E+00 0.73885750E+03</pdfrwt>
<pdfrwt beam="2">  1       -1 0.94918572E-02 0.73885750E+03</pdfrwt>
<totfact> 0.24262467E+02</totfact>
</mgrwt>
</event>
<event>
 4    1  0.6480558E-006  0.8556592E+03  0.7818608E-02  0.9482773E-01
         -1   -1    0    0    0  501 -0.00000000000E+00  0.00000000000E+00  0.55742832452E+03  0.55742832455E+03  0.50400000000E-02 0. -1.
          1   -1    0    0  501    0  0.00000000000E+00 -0.00000000000E+00 -0.32836176924E+03  0.32836176928E+03  0.50400000000E-02 0.  1.
    5000001    1    1    2    0    0 -0.15084475931E+03  0.26081987449E+03  0.35208268788E+03  0.50432565614E+03  0.19900000000E+03 0.  0.
   -5000001    1    1    2    0    0  0.15084475931E+03 -0.26081987449E+03 -0.12301613260E+03  0.38146443769E+03  0.19900000000E+03 0.  0.
<mgrwt>
<rscale>  0 0.85565916E+03</rscale>
<asrwt>0</asrwt>
<pdfrwt beam="1">  1        1 0.46908825E-01 0.85565916E+03</pdfrwt>
<pdfrwt beam="2">  1       -1 0.79632617E-01 0.85565916E+03</pdfrwt>
<totfact> 0.13652696E+02</totfact>
</mgrwt>
</event>
<event>
 4    1  0.6480558E-006  0.7974638E+03  0.7818608E-02  0.9563695E-01
          1   -1    0    0  501    0  0.00000000000E+00  0.00000000000E+00  0.10036133091E+04  0.10036133091E+04  0.50400000000E-02 0.  1.
         -1   -1    0    0    0  501 -0.00000000000E+00 -0.00000000000E+00 -0.15841472283E+03  0.15841472291E+03  0.50400000000E-02 0. -1.
    5000001    1    1    2    0    0  0.30982742720E+03 -0.50290148935E+02  0.21212245036E+03  0.42792413775E+03  0.19900000000E+03 0.  0.
   -5000001    1    1    2    0    0 -0.30982742720E+03  0.50290148935E+02  0.63307613586E+03  0.73410389423E+03  0.19900000000E+03 0.  0.
<mgrwt>
<rscale>  0 0.79746379E+03</rscale>
<asrwt>0</asrwt>
<pdfrwt beam="1">  1        1 0.14337333E+00 0.79746379E+03</pdfrwt>
<pdfrwt beam="2">  1       -1 0.22630675E-01 0.79746379E+03</pdfrwt>
<totfact> 0.28688881E+02</totfact>
</mgrwt>
</event>
<event>
 4    1  0.6480558E-006  0.6765688E+03  0.7818608E-02  0.9758163E-01
         -1   -1    0    0    0  501 -0.00000000000E+00  0.00000000000E+00  0.39055859741E+03  0.39055859744E+03  0.50400000000E-02 0. -1.
          1   -1    0    0  501    0  0.00000000000E+00 -0.00000000000E+00 -0.29300684664E+03  0.29300684669E+03  0.50400000000E-02 0.  1.
    5000001    1    1    2    0    0  0.25368560093E+03 -0.54411234528E+02  0.13638112964E+03  0.35428488408E+03  0.19900000000E+03 0.  0.
   -5000001    1    1    2    0    0 -0.25368560093E+03  0.54411234528E+02 -0.38829378878E+02  0.32928056005E+03  0.19900000000E+03 0.  0.
<mgrwt>
<rscale>  0 0.67656882E+03</rscale>
<asrwt>0</asrwt>
<pdfrwt beam="1">  1        1 0.41858121E-01 0.67656882E+03</pdfrwt>
<pdfrwt beam="2">  1       -1 0.55794085E-01 0.67656882E+03</pdfrwt>
<totfact> 0.32758683E+02</totfact>
</mgrwt>
</event>
<event>
 4    1  0.6480558E-006  0.7112027E+03  0.7818608E-02  0.9698264E-01
          1   -1    0    0  501    0  0.00000000000E+00  0.00000000000E+00  0.32721129929E+03  0.32721129933E+03  0.50400000000E-02 0.  1.
         -1   -1    0    0    0  501 -0.00000000000E+00 -0.00000000000E+00 -0.38645457540E+03  0.38645457543E+03  0.50400000000E-02 0. -1.
    5000001    1    1    2    0    0  0.20044162676E+03  0.20198135910E+03  0.47311940077E+02  0.35044647928E+03  0.19900000000E+03 0.  0.
   -5000001    1    1    2    0    0 -0.20044162676E+03 -0.20198135910E+03 -0.10655521619E+03  0.36321939549E+03  0.19900000000E+03 0.  0.
<mgrwt>
<rscale>  0 0.71120265E+03</rscale>
<asrwt>0</asrwt>
<pdfrwt beam="1">  1        1 0.46744471E-01 0.71120265E+03</pdfrwt>
<pdfrwt beam="2">  1       -1 0.55207796E-01 0.71120265E+03</pdfrwt>
<totfact> 0.28949943E+02</totfact>
</mgrwt>
</event>
<event>
 4    1  0.6480558E-006  0.5557888E+03  0.7818608E-02  0.1000163E+00
         -1   -1    0    0    0  501 -0.00000000000E+00  0.00000000000E+00  0.26271291995E+03  0.26271291999E+03  0.50400000000E-02 0. -1.
          1   -1    0    0  501    0  0.00000000000E+00 -0.00000000000E+00 -0.29395313727E+03  0.29395313731E+03  0.50400000000E-02 0.  1.
    5000001    1    1    2    0    0 -0.18432839338E+03 -0.12140301894E+02  0.43633594438E+02  0.27500769826E+03  0.19900000000E+03 0.  0.
   -5000001    1    1    2    0    0  0.18432839338E+03  0.12140301894E+02 -0.74873811764E+02  0.28165835905E+03  0.19900000000E+03 0.  0.
<mgrwt>
<rscale>  0 0.55578876E+03</rscale>
<asrwt>0</asrwt>
<pdfrwt beam="1">  1        1 0.41993305E-01 0.55578876E+03</pdfrwt>
<pdfrwt beam="2">  1       -1 0.37530417E-01 0.55578876E+03</pdfrwt>
<totfact> 0.68337578E+02</totfact>
</mgrwt>
</event>
<event>
 4    1  0.6480558E-006  0.9790668E+03  0.7818608E-02  0.9331807E-01
         -1   -1    0    0    0  501 -0.00000000000E+00  0.00000000000E+00  0.70720113873E+02  0.70720114053E+02  0.50400000000E-02 0.  1.
          1   -1    0    0  501    0  0.00000000000E+00 -0.00000000000E+00 -0.33886108811E+04  0.33886108811E+04  0.50400000000E-02 0. -1.
    5000001    1    1    2    0    0  0.15630839954E+03 -0.37416108188E+03 -0.23257287964E+04  0.23691864143E+04  0.19900000000E+03 0.  0.
   -5000001    1    1    2    0    0 -0.15630839954E+03  0.37416108188E+03 -0.99216197076E+03  0.10901445809E+04  0.19900000000E+03 0.  0.
<mgrwt>
<rscale>  0 0.97906680E+03</rscale>
<asrwt>0</asrwt>
<pdfrwt beam="1">  1        1 0.48408717E+00 0.97906680E+03</pdfrwt>
<pdfrwt beam="2">  1       -1 0.10102876E-01 0.97906680E+03</pdfrwt>
<totfact> 0.29893632E+01</totfact>
</mgrwt>
</event>
<event>
 4    1  0.6480558E-006  0.6581006E+03  0.7818608E-02  0.9791697E-01
          1   -1    0    0  501    0  0.00000000000E+00  0.00000000000E+00  0.42716077040E+02  0.42716077337E+02  0.50400000000E-02 0. -1.
         -1   -1    0    0    0  501 -0.00000000000E+00 -0.00000000000E+00 -0.25347391758E+04  0.25347391758E+04  0.50400000000E-02 0.  1.
    5000001    1    1    2    0    0 -0.17760933618E+03 -0.17724540226E+03 -0.95000799623E+03  0.10025353868E+04  0.19900000000E+03 0.  0.
   -5000001    1    1    2    0    0  0.17760933618E+03  0.17724540226E+03 -0.15420151025E+04  0.15749198663E+04  0.19900000000E+03 0.  0.
<mgrwt>
<rscale>  0 0.65810064E+03</rscale>
<asrwt>0</asrwt>
<pdfrwt beam="1">  1        1 0.61022983E-02 0.65810064E+03</pdfrwt>
<pdfrwt beam="2">  1       -1 0.36210550E+00 0.65810064E+03</pdfrwt>
<totfact> 0.18422736E+01</totfact>
</mgrwt>
</event>
<event>
 4    1  0.6480558E-006  0.5786001E+03  0.7818608E-02  0.9950826E-01
         -1   -1    0    0    0  501 -0.00000000000E+00  0.00000000000E+00  0.12999258050E+03  0.12999258060E+03  0.50400000000E-02 0.  1.
          1   -1    0    0  501    0  0.00000000000E+00 -0.00000000000E+00 -0.64384068297E+03  0.64384068299E+03  0.50400000000E-02 0. -1.
    5000001    1    1    2    0    0  0.14014154421E+03 -0.14565430886E+03 -0.33303603573E+03  0.43745723357E+03  0.19900000000E+03 0.  0.
   -5000001    1    1    2    0    0 -0.14014154421E+03  0.14565430886E+03 -0.18081206673E+03  0.33637603003E+03  0.19900000000E+03 0.  0.
<mgrwt>
<rscale>  0 0.57860008E+03</rscale>
<asrwt>0</asrwt>
<pdfrwt beam="1">  1        1 0.91977239E-01 0.57860008E+03</pdfrwt>
<pdfrwt beam="2">  1       -1 0.18570369E-01 0.57860008E+03</pdfrwt>
<totfact> 0.80199211E+02</totfact>
</mgrwt>
</event>
<event>
 4    1  0.6480558E-006  0.5977188E+03  0.7818608E-02  0.9910150E-01
         -1   -1    0    0    0  501 -0.00000000000E+00  0.00000000000E+00  0.18154589034E+03  0.18154589041E+03  0.50400000000E-02 0. -1.
          1   -1    0    0  501    0  0.00000000000E+00 -0.00000000000E+00 -0.49198004696E+03  0.49198004699E+03  0.50400000000E-02 0.  1.
    5000001    1    1    2    0    0  0.28726987229E+02  0.21219010561E+03 -0.85153468494E+02  0.30447002137E+03  0.19900000000E+03 0.  0.
   -5000001    1    1    2    0    0 -0.28726987229E+02 -0.21219010561E+03 -0.22528068813E+03  0.36905591603E+03  0.19900000000E+03 0.  0.
<mgrwt>
<rscale>  0 0.59771885E+03</rscale>
<asrwt>0</asrwt>
<pdfrwt beam="1">  1        1 0.70282863E-01 0.59771885E+03</pdfrwt>
<pdfrwt beam="2">  1       -1 0.25935127E-01 0.59771885E+03</pdfrwt>
<totfact> 0.66435465E+02</totfact>
</mgrwt>
</event>
<event>
 4    1  0.6480558E-006  0.5784936E+03  0.7818608E-02  0.9951058E-01
         -1   -1    0    0    0  501 -0.00000000000E+00  0.00000000000E+00  0.17267772499E+03  0.17267772507E+03  0.50400000000E-02 0. -1.
          1   -1    0    0  501    0  0.00000000000E+00 -0.00000000000E+00 -0.48450785089E+03  0.48450785092E+03  0.50400000000E-02 0.  1.
    5000001    1    1    2    0    0  0.88464627792E+02  0.58207652980E+01  0.60237699319E+02  0.22602975932E+03  0.19900000000E+03 0.  0.
   -5000001    1    1    2    0    0 -0.88464627792E+02 -0.58207652980E+01 -0.37206782522E+03  0.43115581666E+03  0.19900000000E+03 0.  0.
<mgrwt>
<rscale>  0 0.57849361E+03</rscale>
<asrwt>0</asrwt>
<pdfrwt beam="1">  1        1 0.69215407E-01 0.57849361E+03</pdfrwt>
<pdfrwt beam="2">  1       -1 0.24668247E-01 0.57849361E+03</pdfrwt>
<totfact> 0.73862763E+02</totfact>
</mgrwt>
</event>
<event>
 4    1  0.6480558E-006  0.4351993E+03  0.7818608E-02  0.1032230E+00
          1   -1    0    0  501    0  0.00000000000E+00  0.00000000000E+00  0.24633290798E+04  0.24633290798E+04  0.50400000000E-02 0.  1.
         -1   -1    0    0    0  501 -0.00000000000E+00 -0.00000000000E+00 -0.19221797983E+02  0.19221798643E+02  0.50400000000E-02 0. -1.
    5000001    1    1    2    0    0 -0.84794568526E+02 -0.23631222704E+02  0.12234651128E+04  0.12426650538E+04  0.19900000000E+03 0.  0.
   -5000001    1    1    2    0    0  0.84794568526E+02  0.23631222704E+02  0.12206421690E+04  0.12398858247E+04  0.19900000000E+03 0.  0.
<mgrwt>
<rscale>  0 0.43519933E+03</rscale>
<asrwt>0</asrwt>
<pdfrwt beam="1">  1        1 0.35190381E+00 0.43519933E+03</pdfrwt>
<pdfrwt beam="2">  1       -1 0.27459739E-02 0.43519933E+03</pdfrwt>
<totfact> 0.92769415E+02</totfact>
</mgrwt>
</event>
<event>
 4    1  0.6480558E-006  0.5011116E+03  0.7818608E-02  0.1013489E+00
          1   -1    0    0  501    0  0.00000000000E+00  0.00000000000E+00  0.24179702170E+03  0.24179702175E+03  0.50400000000E-02 0.  1.
         -1   -1    0    0    0  501 -0.00000000000E+00 -0.00000000000E+00 -0.25963186961E+03  0.25963186966E+03  0.50400000000E-02 0. -1.
    5000001    1    1    2    0    0 -0.73311701052E+02 -0.92913012117E+02 -0.10473701881E+03  0.25412256185E+03  0.19900000000E+03 0.  0.
   -5000001    1    1    2    0    0  0.73311701052E+02  0.92913012117E+02  0.86902170903E+02  0.24730632956E+03  0.19900000000E+03 0.  0.
<mgrwt>
<rscale>  0 0.50111162E+03</rscale>
<asrwt>0</asrwt>
<pdfrwt beam="1">  1        1 0.34542432E-01 0.50111162E+03</pdfrwt>
<pdfrwt beam="2">  1       -1 0.37090267E-01 0.50111162E+03</pdfrwt>
<totfact> 0.89714530E+02</totfact>
</mgrwt>
</event>
<event>
 4    1  0.6480558E-006  0.6062066E+03  0.7818608E-02  0.9892612E-01
         -1   -1    0    0    0  501 -0.00000000000E+00  0.00000000000E+00  0.34138324838E+03  0.34138324842E+03  0.50400000000E-02 0. -1.
          1   -1    0    0  501    0  0.00000000000E+00 -0.00000000000E+00 -0.26911579319E+03  0.26911579324E+03  0.50400000000E-02 0.  1.
    5000001    1    1    2    0    0 -0.15326636743E+03 -0.14759674994E+03 -0.48096062812E+02  0.29527887028E+03  0.19900000000E+03 0.  0.
   -5000001    1    1    2    0    0  0.15326636743E+03  0.14759674994E+03  0.12036351800E+03  0.31522017138E+03  0.19900000000E+03 0.  0.
<mgrwt>
<rscale>  0 0.60620664E+03</rscale>
<asrwt>0</asrwt>
<pdfrwt beam="1">  1        1 0.38445113E-01 0.60620664E+03</pdfrwt>
<pdfrwt beam="2">  1       -1 0.48769036E-01 0.60620664E+03</pdfrwt>
<totfact> 0.47332223E+02</totfact>
</mgrwt>
</event>
<event>
 4    1  0.6480558E-006  0.7614881E+03  0.7818608E-02  0.9617498E-01
         -1   -1    0    0    0  501 -0.00000000000E+00  0.00000000000E+00  0.12991911314E+03  0.12991911324E+03  0.50400000000E-02 0. -1.
          1   -1    0    0  501    0  0.00000000000E+00 -0.00000000000E+00 -0.11158174862E+04  0.11158174862E+04  0.50400000000E-02 0.  1.
    5000001    1    1    2    0    0  0.20800026098E+03  0.23914108771E+03 -0.37828911974E+03  0.53212425853E+03  0.19900000000E+03 0.  0.
   -5000001    1    1    2    0    0 -0.20800026098E+03 -0.23914108771E+03 -0.60760925332E+03  0.71361234093E+03  0.19900000000E+03 0.  0.
<mgrwt>
<rscale>  0 0.76148807E+03</rscale>
<asrwt>0</asrwt>
<pdfrwt beam="1">  1        1 0.15940249E+00 0.76148807E+03</pdfrwt>
<pdfrwt beam="2">  1       -1 0.18559874E-01 0.76148807E+03</pdfrwt>
<totfact> 0.33190284E+02</totfact>
</mgrwt>
</event>
<event>
 4    1  0.6480558E-006  0.4790788E+03  0.7818608E-02  0.1019389E+00
         -1   -1    0    0    0  501 -0.00000000000E+00  0.00000000000E+00  0.18344508307E+03  0.18344508314E+03  0.50400000000E-02 0. -1.
          1   -1    0    0  501    0  0.00000000000E+00 -0.00000000000E+00 -0.31278634114E+03  0.31278634118E+03  0.50400000000E-02 0.  1.
    5000001    1    1    2    0    0 -0.12794985774E+03  0.21139786876E+02 -0.32576436493E+02  0.23975045547E+03  0.19900000000E+03 0.  0.
   -5000001    1    1    2    0    0  0.12794985774E+03 -0.21139786876E+02 -0.96764821578E+02  0.25648096885E+03  0.19900000000E+03 0.  0.
<mgrwt>
<rscale>  0 0.47907877E+03</rscale>
<asrwt>0</asrwt>
<pdfrwt beam="1">  1        1 0.44683763E-01 0.47907877E+03</pdfrwt>
<pdfrwt beam="2">  1       -1 0.26206440E-01 0.47907877E+03</pdfrwt>
<totfact> 0.11800085E+03</totfact>
</mgrwt>
</event>
<event>
 4    1  0.6480558E-006  0.6384467E+03  0.7818608E-02  0.9828703E-01
         -1   -1    0    0    0  501 -0.00000000000E+00  0.00000000000E+00  0.72895478183E+02  0.72895478358E+02  0.50400000000E-02 0. -1.
          1   -1    0    0  501    0  0.00000000000E+00 -0.00000000000E+00 -0.13979403942E+04  0.13979403942E+04  0.50400000000E-02 0.  1.
    5000001    1    1    2    0    0  0.11160254173E+02  0.16219827775E+03 -0.10988408041E+04  0.11284879022E+04  0.19900000000E+03 0.  0.
   -5000001    1    1    2    0    0 -0.11160254173E+02 -0.16219827775E+03 -0.22620411187E+03  0.34234797035E+03  0.19900000000E+03 0.  0.
<mgrwt>
<rscale>  0 0.63844666E+03</rscale>
<asrwt>0</asrwt>
<pdfrwt beam="1">  1        1 0.19970575E+00 0.63844666E+03</pdfrwt>
<pdfrwt beam="2">  1       -1 0.10413641E-01 0.63844666E+03</pdfrwt>
<totfact> 0.54711354E+02</totfact>
</mgrwt>
</event>
<event>
 4    1  0.6480558E-006  0.5928831E+03  0.7818608E-02  0.9920282E-01
         -1   -1    0    0    0  501 -0.00000000000E+00  0.00000000000E+00  0.15524814442E+04  0.15524814442E+04  0.50400000000E-02 0. -1.
          1   -1    0    0  501    0  0.00000000000E+00 -0.00000000000E+00 -0.56604591894E+02  0.56604592118E+02  0.50400000000E-02 0.  1.
    5000001    1    1    2    0    0  0.15772346415E+03 -0.13485179507E+03  0.55194909555E+03  0.62234275272E+03  0.19900000000E+03 0.  0.
   -5000001    1    1    2    0    0 -0.15772346415E+03  0.13485179507E+03  0.94392775671E+03  0.98674328357E+03  0.19900000000E+03 0.  0.
<mgrwt>
<rscale>  0 0.59288305E+03</rscale>
<asrwt>0</asrwt>
<pdfrwt beam="1">  1        1 0.80863698E-02 0.59288305E+03</pdfrwt>
<pdfrwt beam="2">  1       -1 0.22178308E+00 0.59288305E+03</pdfrwt>
<totfact> 0.10000420E+02</totfact>
</mgrwt>
</event>
<event>
 4    1  0.6480558E-006  0.6251852E+03  0.7818608E-02  0.9854490E-01
          1   -1    0    0  501    0  0.00000000000E+00  0.00000000000E+00  0.21661168525E+03  0.21661168531E+03  0.50400000000E-02 0.  1.
         -1   -1    0    0    0  501 -0.00000000000E+00 -0.00000000000E+00 -0.45110272135E+03  0.45110272137E+03  0.50400000000E-02 0. -1.
    5000001    1    1    2    0    0 -0.12177198669E+03  0.12625209941E+01  0.10495308086E+03  0.25582447085E+03  0.19900000000E+03 0.  0.
   -5000001    1    1    2    0    0  0.12177198669E+03 -0.12625209941E+01 -0.33944411696E+03  0.41188993583E+03  0.19900000000E+03 0.  0.
<mgrwt>
<rscale>  0 0.62518516E+03</rscale>
<asrwt>0</asrwt>
<pdfrwt beam="1">  1        1 0.30944527E-01 0.62518516E+03</pdfrwt>
<pdfrwt beam="2">  1       -1 0.64443245E-01 0.62518516E+03</pdfrwt>
<totfact> 0.36507647E+02</totfact>
</mgrwt>
</event>
<event>
 4    1  0.6480558E-006  0.6234826E+03  0.7818608E-02  0.9857850E-01
         -1   -1    0    0    0  501 -0.00000000000E+00  0.00000000000E+00  0.80567010098E+02  0.80567010256E+02  0.50400000000E-02 0. -1.
          1   -1    0    0  501    0  0.00000000000E+00 -0.00000000000E+00 -0.12062335524E+04  0.12062335524E+04  0.50400000000E-02 0.  1.
    5000001    1    1    2    0    0 -0.28817229639E+02  0.23811235536E+03 -0.54770839334E+03  0.63016935075E+03  0.19900000000E+03 0.  0.
   -5000001    1    1    2    0    0  0.28817229639E+02 -0.23811235536E+03 -0.57795814895E+03  0.65663121190E+03  0.19900000000E+03 0.  0.
<mgrwt>
<rscale>  0 0.62348258E+03</rscale>
<asrwt>0</asrwt>
<pdfrwt beam="1">  1        1 0.17231907E+00 0.62348258E+03</pdfrwt>
<pdfrwt beam="2">  1       -1 0.11509574E-01 0.62348258E+03</pdfrwt>
<totfact> 0.62726517E+02</totfact>
</mgrwt>
</event>
<event>
 4    1  0.6480558E-006  0.4741769E+03  0.7818608E-02  0.1020748E+00
         -1   -1    0    0    0  501 -0.00000000000E+00  0.00000000000E+00  0.30055142594E+02  0.30055143017E+02  0.50400000000E-02 0. -1.
          1   -1    0    0  501    0  0.00000000000E+00 -0.00000000000E+00 -0.18702599216E+04  0.18702599216E+04  0.50400000000E-02 0.  1.
    5000001    1    1    2    0    0  0.51666760756E+02  0.10783457790E+03 -0.11128086972E+04  0.11367682028E+04  0.19900000000E+03 0.  0.
   -5000001    1    1    2    0    0 -0.51666760756E+02 -0.10783457790E+03 -0.72739608182E+03  0.76354686183E+03  0.19900000000E+03 0.  0.
<mgrwt>
<rscale>  0 0.47417688E+03</rscale>
<asrwt>0</asrwt>
<pdfrwt beam="1">  1        1 0.26717991E+00 0.47417688E+03</pdfrwt>
<pdfrwt beam="2">  1       -1 0.42935930E-02 0.47417688E+03</pdfrwt>
<totfact> 0.10929804E+03</totfact>
</mgrwt>
</event>
<event>
 4    1  0.6480558E-006  0.6952428E+03  0.7818608E-02  0.9725402E-01
         -1   -1    0    0    0  501 -0.00000000000E+00  0.00000000000E+00  0.46751565626E+03  0.46751565628E+03  0.50400000000E-02 0. -1.
          1   -1    0    0  501    0  0.00000000000E+00 -0.00000000000E+00 -0.25847400436E+03  0.25847400441E+03  0.50400000000E-02 0.  1.
    5000001    1    1    2    0    0  0.37712474131E+02  0.26289858588E+03  0.21254507533E+03  0.39409936083E+03  0.19900000000E+03 0.  0.
   -5000001    1    1    2    0    0 -0.37712474131E+02 -0.26289858588E+03 -0.35034234349E+01  0.33189029985E+03  0.19900000000E+03 0.  0.
<mgrwt>
<rscale>  0 0.69524282E+03</rscale>
<asrwt>0</asrwt>
<pdfrwt beam="1">  1        1 0.36924858E-01 0.69524282E+03</pdfrwt>
<pdfrwt beam="2">  1       -1 0.66787950E-01 0.69524282E+03</pdfrwt>
<totfact> 0.26979797E+02</totfact>
</mgrwt>
</event>
<event>
 4    1  0.6480558E-006  0.6495249E+03  0.7818608E-02  0.9807671E-01
         -1   -1    0    0    0  501 -0.00000000000E+00  0.00000000000E+00  0.12589353753E+03  0.12589353763E+03  0.50400000000E-02 0. -1.
          1   -1    0    0  501    0  0.00000000000E+00 -0.00000000000E+00 -0.83777657920E+03  0.83777657922E+03  0.50400000000E-02 0.  1.
    5000001    1    1    2    0    0 -0.23539970319E+03 -0.74926994526E+02 -0.25269603219E+03  0.40556548110E+03  0.19900000000E+03 0.  0.
   -5000001    1    1    2    0    0  0.23539970319E+03  0.74926994526E+02 -0.45918700948E+03  0.55810463575E+03  0.19900000000E+03 0.  0.
<mgrwt>
<rscale>  0 0.64952493E+03</rscale>
<asrwt>0</asrwt>
<pdfrwt beam="1">  1        1 0.11968237E+00 0.64952493E+03</pdfrwt>
<pdfrwt beam="2">  1       -1 0.17984792E-01 0.64952493E+03</pdfrwt>
<totfact> 0.56963591E+02</totfact>
</mgrwt>
</event>
<event>
 4    1  0.6480558E-006  0.5118436E+03  0.7818608E-02  0.1010733E+00
          1   -1    0    0  501    0  0.00000000000E+00  0.00000000000E+00  0.10971092193E+04  0.10971092193E+04  0.50400000000E-02 0.  1.
         -1   -1    0    0    0  501 -0.00000000000E+00 -0.00000000000E+00 -0.59698667783E+02  0.59698667996E+02  0.50400000000E-02 0. -1.
    5000001    1    1    2    0    0 -0.80426136468E+02 -0.96853644656E+02  0.29217833130E+03  0.37525747053E+03  0.19900000000E+03 0.  0.
   -5000001    1    1    2    0    0  0.80426136468E+02  0.96853644656E+02  0.74523222025E+03  0.78155041680E+03  0.19900000000E+03 0.  0.
<mgrwt>
<rscale>  0 0.51184357E+03</rscale>
<asrwt>0</asrwt>
<pdfrwt beam="1">  1        1 0.15672988E+00 0.51184357E+03</pdfrwt>
<pdfrwt beam="2">  1       -1 0.85283817E-02 0.51184357E+03</pdfrwt>
<totfact> 0.12023406E+03</totfact>
</mgrwt>
</event>
<event>
 4    1  0.6480558E-006  0.5411210E+03  0.7818608E-02  0.1003570E+00
          1   -1    0    0  501    0  0.00000000000E+00  0.00000000000E+00  0.80617700170E+02  0.80617700328E+02  0.50400000000E-02 0.  1.
         -1   -1    0    0    0  501 -0.00000000000E+00 -0.00000000000E+00 -0.90802617531E+03  0.90802617532E+03  0.50400000000E-02 0. -1.
    5000001    1    1    2    0    0 -0.93950588112E+02 -0.90579853361E+02 -0.17851682166E+03  0.29749063591E+03  0.19900000000E+03 0.  0.
   -5000001    1    1    2    0    0  0.93950588112E+02  0.90579853361E+02 -0.64889165348E+03  0.69115323974E+03  0.19900000000E+03 0.  0.
<mgrwt>
<rscale>  0 0.54112099E+03</rscale>
<asrwt>0</asrwt>
<pdfrwt beam="1">  1        1 0.11516815E-01 0.54112099E+03</pdfrwt>
<pdfrwt beam="2">  1       -1 0.12971802E+00 0.54112099E+03</pdfrwt>
<totfact> 0.28756981E+02</totfact>
</mgrwt>
</event>
<event>
 4    1  0.6480558E-006  0.4996516E+03  0.7818608E-02  0.1013870E+00
          1   -1    0    0  501    0  0.00000000000E+00  0.00000000000E+00  0.11707107070E+03  0.11707107081E+03  0.50400000000E-02 0.  1.
         -1   -1    0    0    0  501 -0.00000000000E+00 -0.00000000000E+00 -0.53311999019E+03  0.53311999021E+03  0.50400000000E-02 0. -1.
    5000001    1    1    2    0    0  0.91855540907E+02 -0.11750074155E+03 -0.23903948514E+03  0.34494164741E+03  0.19900000000E+03 0.  0.
   -5000001    1    1    2    0    0 -0.91855540907E+02  0.11750074155E+03 -0.17700943436E+03  0.30524941362E+03  0.19900000000E+03 0.  0.
<mgrwt>
<rscale>  0 0.49965159E+03</rscale>
<asrwt>0</asrwt>
<pdfrwt beam="1">  1        1 0.16724439E-01 0.49965159E+03</pdfrwt>
<pdfrwt beam="2">  1       -1 0.76159997E-01 0.49965159E+03</pdfrwt>
<totfact> 0.58302832E+02</totfact>
</mgrwt>
</event>
<event>
 4    1  0.6480558E-006  0.5719923E+03  0.7818608E-02  0.9965280E-01
          1   -1    0    0  501    0  0.00000000000E+00  0.00000000000E+00  0.20085402426E+04  0.20085402426E+04  0.50400000000E-02 0. -1.
         -1   -1    0    0    0  501 -0.00000000000E+00 -0.00000000000E+00 -0.40723009157E+02  0.40723009469E+02  0.50400000000E-02 0.  1.
    5000001    1    1    2    0    0  0.15392660344E+03 -0.42349112832E+02  0.14469749720E+04  0.14692938495E+04  0.19900000000E+03 0.  0.
   -5000001    1    1    2    0    0 -0.15392660344E+03  0.42349112832E+02  0.52084226142E+03  0.57996940254E+03  0.19900000000E+03 0.  0.
<mgrwt>
<rscale>  0 0.57199232E+03</rscale>
<asrwt>0</asrwt>
<pdfrwt beam="1">  1        1 0.28693432E+00 0.57199232E+03</pdfrwt>
<pdfrwt beam="2">  1       -1 0.58175728E-02 0.57199232E+03</pdfrwt>
<totfact> 0.56178071E+02</totfact>
</mgrwt>
</event>
<event>
 4    1  0.6480558E-006  0.6515302E+03  0.7818608E-02  0.9803912E-01
          1   -1    0    0  501    0  0.00000000000E+00  0.00000000000E+00  0.25811900249E+03  0.25811900254E+03  0.50400000000E-02 0.  1.
         -1   -1    0    0    0  501 -0.00000000000E+00 -0.00000000000E+00 -0.41113939120E+03  0.41113939123E+03  0.50400000000E-02 0. -1.
    5000001    1    1    2    0    0 -0.11654391971E+03  0.15543235125E+02 -0.31231659564E+03  0.38854437751E+03  0.19900000000E+03 0.  0.
   -5000001    1    1    2    0    0  0.11654391971E+03 -0.15543235125E+02  0.15929620693E+03  0.28071401626E+03  0.19900000000E+03 0.  0.
<mgrwt>
<rscale>  0 0.65153017E+03</rscale>
<asrwt>0</asrwt>
<pdfrwt beam="1">  1        1 0.36874143E-01 0.65153017E+03</pdfrwt>
<pdfrwt beam="2">  1       -1 0.58734199E-01 0.65153017E+03</pdfrwt>
<totfact> 0.34941893E+02</totfact>
</mgrwt>
</event>
<event>
 4    1  0.6480558E-006  0.5876160E+03  0.7818608E-02  0.9931437E-01
          1   -1    0    0  501    0  0.00000000000E+00  0.00000000000E+00  0.15781439801E+04  0.15781439801E+04  0.50400000000E-02 0.  1.
         -1   -1    0    0    0  501 -0.00000000000E+00 -0.00000000000E+00 -0.54699147418E+02  0.54699147650E+02  0.50400000000E-02 0. -1.
    5000001    1    1    2    0    0  0.11862137379E+03 -0.74443517142E+02  0.12192420446E+04  0.12432879920E+04  0.19900000000E+03 0.  0.
   -5000001    1    1    2    0    0 -0.11862137379E+03  0.74443517142E+02  0.30420278805E+03  0.38955513579E+03  0.19900000000E+03 0.  0.
<mgrwt>
<rscale>  0 0.58761596E+03</rscale>
<asrwt>0</asrwt>
<pdfrwt beam="1">  1        1 0.22544911E+00 0.58761596E+03</pdfrwt>
<pdfrwt beam="2">  1       -1 0.78141649E-02 0.58761596E+03</pdfrwt>
<totfact> 0.65934169E+02</totfact>
</mgrwt>
</event>
<event>
 4    1  0.6480558E-006  0.5274080E+03  0.7818608E-02  0.1006863E+00
          1   -1    0    0  501    0  0.00000000000E+00  0.00000000000E+00  0.50163498308E+03  0.50163498311E+03  0.50400000000E-02 0.  1.
         -1   -1    0    0    0  501 -0.00000000000E+00 -0.00000000000E+00 -0.13862632035E+03  0.13862632044E+03  0.50400000000E-02 0. -1.
    5000001    1    1    2    0    0  0.13338728218E+03  0.11008730069E+03  0.17514616383E+03  0.31652576439E+03  0.19900000000E+03 0.  0.
   -5000001    1    1    2    0    0 -0.13338728218E+03 -0.11008730069E+03  0.18786249890E+03  0.32373553916E+03  0.19900000000E+03 0.  0.
<mgrwt>
<rscale>  0 0.52740805E+03</rscale>
<asrwt>0</asrwt>
<pdfrwt beam="1">  1        1 0.71662141E-01 0.52740805E+03</pdfrwt>
<pdfrwt beam="2">  1       -1 0.19803760E-01 0.52740805E+03</pdfrwt>
<totfact> 0.10187688E+03</totfact>
</mgrwt>
</event>
<event>
 4    1  0.6480558E-006  0.4693127E+03  0.7818608E-02  0.1022114E+00
          1   -1    0    0  501    0  0.00000000000E+00  0.00000000000E+00  0.67197866471E+03  0.67197866473E+03  0.50400000000E-02 0.  1.
         -1   -1    0    0    0  501 -0.00000000000E+00 -0.00000000000E+00 -0.81942502773E+02  0.81942502928E+02  0.50400000000E-02 0. -1.
    5000001    1    1    2    0    0  0.10267915799E+03  0.90280401727E+01  0.40675609474E+03  0.46440934056E+03  0.19900000000E+03 0.  0.
   -5000001    1    1    2    0    0 -0.10267915799E+03 -0.90280401727E+01  0.18328006720E+03  0.28951182710E+03  0.19900000000E+03 0.  0.
<mgrwt>
<rscale>  0 0.46931275E+03</rscale>
<asrwt>0</asrwt>
<pdfrwt beam="1">  1        1 0.95996957E-01 0.46931275E+03</pdfrwt>
<pdfrwt beam="2">  1       -1 0.11706071E-01 0.46931275E+03</pdfrwt>
<totfact> 0.15901383E+03</totfact>
</mgrwt>
</event>
<event>
 4    1  0.6480558E-006  0.7100838E+03  0.7818608E-02  0.9700141E-01
         -1   -1    0    0    0  501 -0.00000000000E+00  0.00000000000E+00  0.14435383959E+03  0.14435383968E+03  0.50400000000E-02 0. -1.
          1   -1    0    0  501    0  0.00000000000E+00 -0.00000000000E+00 -0.87323456957E+03  0.87323456958E+03  0.50400000000E-02 0.  1.
    5000001    1    1    2    0    0 -0.24422186114E+03 -0.10017098277E+03 -0.17883238888E+03  0.37584646674E+03  0.19900000000E+03 0.  0.
   -5000001    1    1    2    0    0  0.24422186114E+03  0.10017098277E+03 -0.55004834110E+03  0.64174194252E+03  0.19900000000E+03 0.  0.
<mgrwt>
<rscale>  0 0.71008383E+03</rscale>
<asrwt>0</asrwt>
<pdfrwt beam="1">  1        1 0.12474779E+00 0.71008383E+03</pdfrwt>
<pdfrwt beam="2">  1       -1 0.20621977E-01 0.71008383E+03</pdfrwt>
<totfact> 0.42414893E+02</totfact>
</mgrwt>
</event>
<event>
 4    1  0.6480558E-006  0.5645111E+03  0.7818608E-02  0.9981899E-01
         -1   -1    0    0    0  501 -0.00000000000E+00  0.00000000000E+00  0.72702369964E+03  0.72702369966E+03  0.50400000000E-02 0. -1.
          1   -1    0    0  501    0  0.00000000000E+00 -0.00000000000E+00 -0.10958128829E+03  0.10958128840E+03  0.50400000000E-02 0.  1.
    5000001    1    1    2    0    0  0.18270858840E+03  0.25226421089E+02  0.19346403013E+03  0.33323885061E+03  0.19900000000E+03 0.  0.
   -5000001    1    1    2    0    0 -0.18270858840E+03 -0.25226421089E+02  0.42397838122E+03  0.50336613746E+03  0.19900000000E+03 0.  0.
<mgrwt>
<rscale>  0 0.56451109E+03</rscale>
<asrwt>0</asrwt>
<pdfrwt beam="1">  1        1 0.15654470E-01 0.56451109E+03</pdfrwt>
<pdfrwt beam="2">  1       -1 0.10386053E+00 0.56451109E+03</pdfrwt>
<totfact> 0.32326574E+02</totfact>
</mgrwt>
</event>
<event>
 4    1  0.6480558E-006  0.5079544E+03  0.7818608E-02  0.1011723E+00
          1   -1    0    0  501    0  0.00000000000E+00  0.00000000000E+00  0.13601188992E+04  0.13601188992E+04  0.50400000000E-02 0.  1.
         -1   -1    0    0    0  501 -0.00000000000E+00 -0.00000000000E+00 -0.47425573554E+02  0.47425573822E+02  0.50400000000E-02 0. -1.
    5000001    1    1    2    0    0  0.11721814174E+02  0.15679275991E+03  0.69373456265E+03  0.73864065275E+03  0.19900000000E+03 0.  0.
   -5000001    1    1    2    0    0 -0.11721814174E+02 -0.15679275991E+03  0.61895876299E+03  0.66890382027E+03  0.19900000000E+03 0.  0.
<mgrwt>
<rscale>  0 0.50795440E+03</rscale>
<asrwt>0</asrwt>
<pdfrwt beam="1">  1        1 0.19430266E+00 0.50795440E+03</pdfrwt>
<pdfrwt beam="2">  1       -1 0.67750833E-02 0.50795440E+03</pdfrwt>
<totfact> 0.11400611E+03</totfact>
</mgrwt>
</event>
<event>
 4    1  0.6480558E-006  0.1162781E+04  0.7818608E-02  0.9146073E-01
         -1   -1    0    0    0  501 -0.00000000000E+00  0.00000000000E+00  0.31085215171E+03  0.31085215175E+03  0.50400000000E-02 0. -1.
          1   -1    0    0  501    0  0.00000000000E+00 -0.00000000000E+00 -0.10873812281E+04  0.10873812281E+04  0.50400000000E-02 0.  1.
    5000001    1    1    2    0    0  0.38946911949E+03  0.35279732357E+03 -0.20884882704E+03  0.59947558675E+03  0.19900000000E+03 0.  0.
   -5000001    1    1    2    0    0 -0.38946911949E+03 -0.35279732357E+03 -0.56768024937E+03  0.79875779313E+03  0.19900000000E+03 0.  0.
<mgrwt>
<rscale>  0 0.11627808E+04</rscale>
<asrwt>0</asrwt>
<pdfrwt beam="1">  1        1 0.15534017E+00 0.11627808E+04</pdfrwt>
<pdfrwt beam="2">  1       -1 0.44407451E-01 0.11627808E+04</pdfrwt>
<totfact> 0.74075045E+01</totfact>
</mgrwt>
</event>
<event>
 4    1  0.6480558E-006  0.5554367E+03  0.7818608E-02  0.1000243E+00
          1   -1    0    0  501    0  0.00000000000E+00  0.00000000000E+00  0.21986316385E+03  0.21986316391E+03  0.50400000000E-02 0.  1.
         -1   -1    0    0    0  501 -0.00000000000E+00 -0.00000000000E+00 -0.35079764280E+03  0.35079764284E+03  0.50400000000E-02 0. -1.
    5000001    1    1    2    0    0 -0.64686984180E+02  0.16059587683E+03 -0.15474572413E+03  0.30581478171E+03  0.19900000000E+03 0.  0.
   -5000001    1    1    2    0    0  0.64686984180E+02 -0.16059587683E+03  0.23811245181E+02  0.26484602503E+03  0.19900000000E+03 0.  0.
<mgrwt>
<rscale>  0 0.55543669E+03</rscale>
<asrwt>0</asrwt>
<pdfrwt beam="1">  1        1 0.31409024E-01 0.55543669E+03</pdfrwt>
<pdfrwt beam="2">  1       -1 0.50113949E-01 0.55543669E+03</pdfrwt>
<totfact> 0.58401842E+02</totfact>
</mgrwt>
</event>
<event>
 4    1  0.6480558E-006  0.8442157E+03  0.7818608E-02  0.9498134E-01
          1   -1    0    0  501    0  0.00000000000E+00  0.00000000000E+00  0.83814653079E+03  0.83814653081E+03  0.50400000000E-02 0.  1.
         -1   -1    0    0    0  501 -0.00000000000E+00 -0.00000000000E+00 -0.21258219024E+03  0.21258219030E+03  0.50400000000E-02 0. -1.
    5000001    1    1    2    0    0 -0.17236685011E+03 -0.12999308798E+03  0.69022366306E+03  0.75007882185E+03  0.19900000000E+03 0.  0.
   -5000001    1    1    2    0    0  0.17236685011E+03  0.12999308798E+03 -0.64659322504E+02  0.30064989926E+03  0.19900000000E+03 0.  0.
<mgrwt>
<rscale>  0 0.84421567E+03</rscale>
<asrwt>0</asrwt>
<pdfrwt beam="1">  1        1 0.11973522E+00 0.84421567E+03</pdfrwt>
<pdfrwt beam="2">  1       -1 0.30368884E-01 0.84421567E+03</pdfrwt>
<totfact> 0.23237856E+02</totfact>
</mgrwt>
</event>
<event>
 4    1  0.6480558E-006  0.8316270E+03  0.7818608E-02  0.9515334E-01
         -1   -1    0    0    0  501 -0.00000000000E+00  0.00000000000E+00  0.15861656939E+03  0.15861656947E+03  0.50400000000E-02 0.  1.
          1   -1    0    0  501    0  0.00000000000E+00 -0.00000000000E+00 -0.10900556185E+04  0.10900556185E+04  0.50400000000E-02 0. -1.
    5000001    1    1    2    0    0  0.92033140926E+02  0.33451058909E+03 -0.63646933606E+03  0.75170582609E+03  0.19900000000E+03 0.  0.
   -5000001    1    1    2    0    0 -0.92033140926E+02 -0.33451058909E+03 -0.29496971309E+03  0.49696636192E+03  0.19900000000E+03 0.  0.
<mgrwt>
<rscale>  0 0.83162704E+03</rscale>
<asrwt>0</asrwt>
<pdfrwt beam="1">  1        1 0.15572223E+00 0.83162704E+03</pdfrwt>
<pdfrwt beam="2">  1       -1 0.22659511E-01 0.83162704E+03</pdfrwt>
<totfact> 0.24707864E+02</totfact>
</mgrwt>
</event>
<event>
 4    1  0.6480558E-006  0.6509152E+03  0.7818608E-02  0.9805063E-01
          1   -1    0    0  501    0  0.00000000000E+00  0.00000000000E+00  0.12234797307E+04  0.12234797307E+04  0.50400000000E-02 0.  1.
         -1   -1    0    0    0  501 -0.00000000000E+00 -0.00000000000E+00 -0.86574911913E+02  0.86574912060E+02  0.50400000000E-02 0. -1.
    5000001    1    1    2    0    0  0.20182689287E+03 -0.46828818776E+02  0.87629093231E+03  0.92217884979E+03  0.19900000000E+03 0.  0.
   -5000001    1    1    2    0    0 -0.20182689287E+03  0.46828818776E+02  0.26061388647E+03  0.38787579297E+03  0.19900000000E+03 0.  0.
<mgrwt>
<rscale>  0 0.65091520E+03</rscale>
<asrwt>0</asrwt>
<pdfrwt beam="1">  1        1 0.17478283E+00 0.65091520E+03</pdfrwt>
<pdfrwt beam="2">  1       -1 0.12367844E-01 0.65091520E+03</pdfrwt>
<totfact> 0.54359151E+02</totfact>
</mgrwt>
</event>
<event>
 4    1  0.6480558E-006  0.6563631E+03  0.7818608E-02  0.9794912E-01
          1   -1    0    0  501    0  0.00000000000E+00  0.00000000000E+00  0.12102126437E+04  0.12102126437E+04  0.50400000000E-02 0.  1.
         -1   -1    0    0    0  501 -0.00000000000E+00 -0.00000000000E+00 -0.88995220217E+02  0.88995220360E+02  0.50400000000E-02 0. -1.
    5000001    1    1    2    0    0  0.22423250942E+03 -0.94152447777E+02  0.74794484216E+03  0.81127516209E+03  0.19900000000E+03 0.  0.
   -5000001    1    1    2    0    0 -0.22423250942E+03  0.94152447777E+02  0.37327258133E+03  0.48793270199E+03  0.19900000000E+03 0.  0.
<mgrwt>
<rscale>  0 0.65636313E+03</rscale>
<asrwt>0</asrwt>
<pdfrwt beam="1">  1        1 0.17288751E+00 0.65636313E+03</pdfrwt>
<pdfrwt beam="2">  1       -1 0.12713604E-01 0.65636313E+03</pdfrwt>
<totfact> 0.53094007E+02</totfact>
</mgrwt>
</event>
<event>
 4    1  0.6480558E-006  0.6365137E+03  0.7818608E-02  0.9832420E-01
         -1   -1    0    0    0  501 -0.00000000000E+00  0.00000000000E+00  0.16154106028E+03  0.16154106036E+03  0.50400000000E-02 0. -1.
          1   -1    0    0  501    0  0.00000000000E+00 -0.00000000000E+00 -0.62700721977E+03  0.62700721979E+03  0.50400000000E-02 0.  1.
    5000001    1    1    2    0    0  0.10325074332E+03 -0.22587419016E+03 -0.22956360840E+03  0.39240325697E+03  0.19900000000E+03 0.  0.
   -5000001    1    1    2    0    0 -0.10325074332E+03  0.22587419016E+03 -0.23590255110E+03  0.39614502318E+03  0.19900000000E+03 0.  0.
<mgrwt>
<rscale>  0 0.63651366E+03</rscale>
<asrwt>0</asrwt>
<pdfrwt beam="1">  1        1 0.89572459E-01 0.63651366E+03</pdfrwt>
<pdfrwt beam="2">  1       -1 0.23077295E-01 0.63651366E+03</pdfrwt>
<totfact> 0.57908488E+02</totfact>
</mgrwt>
</event>
<event>
 4    1  0.6480558E-006  0.4611217E+03  0.7818608E-02  0.1024456E+00
         -1   -1    0    0    0  501 -0.00000000000E+00  0.00000000000E+00  0.51806228913E+02  0.51806229158E+02  0.50400000000E-02 0. -1.
          1   -1    0    0  501    0  0.00000000000E+00 -0.00000000000E+00 -0.10260985900E+04  0.10260985900E+04  0.50400000000E-02 0.  1.
    5000001    1    1    2    0    0  0.96303970638E+02  0.54458848485E+02 -0.57198030276E+03  0.61563194174E+03  0.19900000000E+03 0.  0.
   -5000001    1    1    2    0    0 -0.96303970638E+02 -0.54458848485E+02 -0.40231205834E+03  0.46227287745E+03  0.19900000000E+03 0.  0.
<mgrwt>
<rscale>  0 0.46112167E+03</rscale>
<asrwt>0</asrwt>
<pdfrwt beam="1">  1        1 0.14658550E+00 0.46112167E+03</pdfrwt>
<pdfrwt beam="2">  1       -1 0.74008905E-02 0.46112167E+03</pdfrwt>
<totfact> 0.16854835E+03</totfact>
</mgrwt>
</event>
<event>
 4    1  0.6480558E-006  0.5571408E+03  0.7818608E-02  0.9998545E-01
         -1   -1    0    0    0  501 -0.00000000000E+00  0.00000000000E+00  0.49120346087E+02  0.49120346346E+02  0.50400000000E-02 0.  1.
          1   -1    0    0  501    0  0.00000000000E+00 -0.00000000000E+00 -0.15798234202E+04  0.15798234202E+04  0.50400000000E-02 0. -1.
    5000001    1    1    2    0    0 -0.11532017736E+03  0.13921111990E+03 -0.55205769858E+03  0.61404167755E+03  0.19900000000E+03 0.  0.
   -5000001    1    1    2    0    0  0.11532017736E+03 -0.13921111990E+03 -0.97864537553E+03  0.10149020890E+04  0.19900000000E+03 0.  0.
<mgrwt>
<rscale>  0 0.55714082E+03</rscale>
<asrwt>0</asrwt>
<pdfrwt beam="1">  1        1 0.22568903E+00 0.55714082E+03</pdfrwt>
<pdfrwt beam="2">  1       -1 0.70171933E-02 0.55714082E+03</pdfrwt>
<totfact> 0.77853127E+02</totfact>
</mgrwt>
</event>
<event>
 4    1  0.6480558E-006  0.1051058E+04  0.7818608E-02  0.9254252E-01
          1   -1    0    0  501    0  0.00000000000E+00  0.00000000000E+00  0.21516020464E+04  0.21516020464E+04  0.50400000000E-02 0.  1.
         -1   -1    0    0    0  501 -0.00000000000E+00 -0.00000000000E+00 -0.12836053175E+03  0.12836053185E+03  0.50400000000E-02 0. -1.
    5000001    1    1    2    0    0 -0.34070739042E+03 -0.32722307421E+03  0.12629429927E+04  0.13630049409E+04  0.19900000000E+03 0.  0.
   -5000001    1    1    2    0    0  0.34070739042E+03  0.32722307421E+03  0.76029852196E+03  0.91695763734E+03  0.19900000000E+03 0.  0.
<mgrwt>
<rscale>  0 0.10510581E+04</rscale>
<asrwt>0</asrwt>
<pdfrwt beam="1">  1        1 0.30737170E+00 0.10510581E+04</pdfrwt>
<pdfrwt beam="2">  1       -1 0.18337220E-01 0.10510581E+04</pdfrwt>
<totfact> 0.70925133E+01</totfact>
</mgrwt>
</event>
<event>
 4    1  0.6480558E-006  0.7514193E+03  0.7818608E-02  0.9633126E-01
          1   -1    0    0  501    0  0.00000000000E+00  0.00000000000E+00  0.19712963388E+04  0.19712963388E+04  0.50400000000E-02 0. -1.
         -1   -1    0    0    0  501 -0.00000000000E+00 -0.00000000000E+00 -0.71606552324E+02  0.71606552501E+02  0.50400000000E-02 0.  1.
    5000001    1    1    2    0    0 -0.31677511767E+03  0.13990355419E+02  0.10364408680E+04  0.11019768047E+04  0.19900000000E+03 0.  0.
   -5000001    1    1    2    0    0  0.31677511767E+03 -0.13990355419E+02  0.86324891847E+03  0.94092608661E+03  0.19900000000E+03 0.  0.
<mgrwt>
<rscale>  0 0.75141928E+03</rscale>
<asrwt>0</asrwt>
<pdfrwt beam="1">  1        1 0.28161376E+00 0.75141928E+03</pdfrwt>
<pdfrwt beam="2">  1       -1 0.10229507E-01 0.75141928E+03</pdfrwt>
<totfact> 0.24236088E+02</totfact>
</mgrwt>
</event>
<event>
 4    1  0.6480558E-006  0.4599847E+03  0.7818608E-02  0.1024786E+00
         -1   -1    0    0    0  501 -0.00000000000E+00  0.00000000000E+00  0.14540390181E+03  0.14540390189E+03  0.50400000000E-02 0. -1.
          1   -1    0    0  501    0  0.00000000000E+00 -0.00000000000E+00 -0.36378989855E+03  0.36378989859E+03  0.50400000000E-02 0.  1.
    5000001    1    1    2    0    0  0.99164261180E+02  0.38008100058E+02 -0.15891235226E+03  0.27592082572E+03  0.19900000000E+03 0.  0.
   -5000001    1    1    2    0    0 -0.99164261180E+02 -0.38008100058E+02 -0.59473644484E+02  0.23327297476E+03  0.19900000000E+03 0.  0.
<mgrwt>
<rscale>  0 0.45998466E+03</rscale>
<asrwt>0</asrwt>
<pdfrwt beam="1">  1        1 0.51969985E-01 0.45998466E+03</pdfrwt>
<pdfrwt beam="2">  1       -1 0.20771986E-01 0.45998466E+03</pdfrwt>
<totfact> 0.14346050E+03</totfact>
</mgrwt>
</event>
<event>
 4    1  0.6480558E-006  0.4747752E+03  0.7818608E-02  0.1020581E+00
          1   -1    0    0  501    0  0.00000000000E+00  0.00000000000E+00  0.15341314772E+04  0.15341314772E+04  0.50400000000E-02 0.  1.
         -1   -1    0    0    0  501 -0.00000000000E+00 -0.00000000000E+00 -0.36732748600E+02  0.36732748946E+02  0.50400000000E-02 0. -1.
    5000001    1    1    2    0    0 -0.10499523722E+03  0.10451621078E+02  0.50069126549E+03  0.54902274958E+03  0.19900000000E+03 0.  0.
   -5000001    1    1    2    0    0  0.10499523722E+03 -0.10451621078E+02  0.99670746313E+03  0.10218414766E+04  0.19900000000E+03 0.  0.
<mgrwt>
<rscale>  0 0.47477517E+03</rscale>
<asrwt>0</asrwt>
<pdfrwt beam="1">  1        1 0.21916164E+00 0.47477517E+03</pdfrwt>
<pdfrwt beam="2">  1       -1 0.52475354E-02 0.47477517E+03</pdfrwt>
<totfact> 0.13050946E+03</totfact>
</mgrwt>
</event>
<event>
 4    1  0.6480558E-006  0.6206914E+03  0.7818608E-02  0.9863384E-01
          1   -1    0    0  501    0  0.00000000000E+00  0.00000000000E+00  0.11303039578E+04  0.11303039578E+04  0.50400000000E-02 0.  1.
         -1   -1    0    0    0  501 -0.00000000000E+00 -0.00000000000E+00 -0.85211100036E+02  0.85211100186E+02  0.50400000000E-02 0. -1.
    5000001    1    1    2    0    0 -0.19124146237E+03 -0.55796055724E+02  0.26700987785E+03  0.38804867174E+03  0.19900000000E+03 0.  0.
   -5000001    1    1    2    0    0  0.19124146237E+03  0.55796055724E+02  0.77808297993E+03  0.82746638628E+03  0.19900000000E+03 0.  0.
<mgrwt>
<rscale>  0 0.62069137E+03</rscale>
<asrwt>0</asrwt>
<pdfrwt beam="1">  1        1 0.16147197E+00 0.62069137E+03</pdfrwt>
<pdfrwt beam="2">  1       -1 0.12173016E-01 0.62069137E+03</pdfrwt>
<totfact> 0.64759012E+02</totfact>
</mgrwt>
</event>
<event>
 4    1  0.6480558E-006  0.6676377E+03  0.7818608E-02  0.9774235E-01
         -1   -1    0    0    0  501 -0.00000000000E+00  0.00000000000E+00  0.15945855581E+03  0.15945855589E+03  0.50400000000E-02 0. -1.
          1   -1    0    0  501    0  0.00000000000E+00 -0.00000000000E+00 -0.69883383817E+03  0.69883383819E+03  0.50400000000E-02 0.  1.
    5000001    1    1    2    0    0 -0.81298724602E+02  0.12222608894E+03  0.18592726163E+02  0.24798263832E+03  0.19900000000E+03 0.  0.
   -5000001    1    1    2    0    0  0.81298724602E+02 -0.12222608894E+03 -0.55796800852E+03  0.61030975576E+03  0.19900000000E+03 0.  0.
<mgrwt>
<rscale>  0 0.66763773E+03</rscale>
<asrwt>0</asrwt>
<pdfrwt beam="1">  1        1 0.99833404E-01 0.66763773E+03</pdfrwt>
<pdfrwt beam="2">  1       -1 0.22779794E-01 0.66763773E+03</pdfrwt>
<totfact> 0.50564149E+02</totfact>
</mgrwt>
</event>
<event>
 4    1  0.6480558E-006  0.5518952E+03  0.7818608E-02  0.1001056E+00
         -1   -1    0    0    0  501 -0.00000000000E+00  0.00000000000E+00  0.11854976501E+03  0.11854976512E+03  0.50400000000E-02 0. -1.
          1   -1    0    0  501    0  0.00000000000E+00 -0.00000000000E+00 -0.64232155536E+03  0.64232155538E+03  0.50400000000E-02 0.  1.
    5000001    1    1    2    0    0 -0.15393767551E+03 -0.10955655470E+03 -0.22177155786E+03  0.35282158451E+03  0.19900000000E+03 0.  0.
   -5000001    1    1    2    0    0  0.15393767551E+03  0.10955655470E+03 -0.30200023249E+03  0.40804973599E+03  0.19900000000E+03 0.  0.
<mgrwt>
<rscale>  0 0.55189517E+03</rscale>
<asrwt>0</asrwt>
<pdfrwt beam="1">  1        1 0.91760220E-01 0.55189517E+03</pdfrwt>
<pdfrwt beam="2">  1       -1 0.16935681E-01 0.55189517E+03</pdfrwt>
<totfact> 0.93635475E+02</totfact>
</mgrwt>
</event>
<event>
 4    1  0.6480558E-006  0.4279409E+03  0.7818608E-02  0.1034512E+00
          1   -1    0    0  501    0  0.00000000000E+00  0.00000000000E+00  0.83411313366E+03  0.83411313367E+03  0.50400000000E-02 0.  1.
         -1   -1    0    0    0  501 -0.00000000000E+00 -0.00000000000E+00 -0.54888670000E+02  0.54888670231E+02  0.50400000000E-02 0. -1.
    5000001    1    1    2    0    0 -0.84085911250E+01 -0.78089995936E+02  0.38194871109E+03  0.43778370204E+03  0.19900000000E+03 0.  0.
   -5000001    1    1    2    0    0  0.84085911250E+01  0.78089995936E+02  0.39727575257E+03  0.45121810186E+03  0.19900000000E+03 0.  0.
<mgrwt>
<rscale>  0 0.42794093E+03</rscale>
<asrwt>0</asrwt>
<pdfrwt beam="1">  1        1 0.11915900E+00 0.42794093E+03</pdfrwt>
<pdfrwt beam="2">  1       -1 0.78412401E-02 0.42794093E+03</pdfrwt>
<totfact> 0.21577948E+03</totfact>
</mgrwt>
</event>
<event>
 4    1  0.6480558E-006  0.6506891E+03  0.7818608E-02  0.9805487E-01
          1   -1    0    0  501    0  0.00000000000E+00  0.00000000000E+00  0.69954413771E+03  0.69954413772E+03  0.50400000000E-02 0. -1.
         -1   -1    0    0    0  501 -0.00000000000E+00 -0.00000000000E+00 -0.15131149193E+03  0.15131149202E+03  0.50400000000E-02 0.  1.
    5000001    1    1    2    0    0  0.22419513618E+03 -0.12320026053E+03  0.23698574171E+03  0.40150343094E+03  0.19900000000E+03 0.  0.
   -5000001    1    1    2    0    0 -0.22419513618E+03  0.12320026053E+03  0.31124690406E+03  0.44935219880E+03  0.19900000000E+03 0.  0.
<mgrwt>
<rscale>  0 0.65068907E+03</rscale>
<asrwt>0</asrwt>
<pdfrwt beam="1">  1        1 0.99934877E-01 0.65068907E+03</pdfrwt>
<pdfrwt beam="2">  1       -1 0.21615927E-01 0.65068907E+03</pdfrwt>
<totfact> 0.55168208E+02</totfact>
</mgrwt>
</event>
<event>
 4    1  0.6480558E-006  0.7303727E+03  0.7818608E-02  0.9666656E-01
         -1   -1    0    0    0  501 -0.00000000000E+00  0.00000000000E+00  0.35688108691E+02  0.35688109047E+02  0.50400000000E-02 0. -1.
          1   -1    0    0  501    0  0.00000000000E+00 -0.00000000000E+00 -0.37368486648E+04  0.37368486648E+04  0.50400000000E-02 0.  1.
    5000001    1    1    2    0    0  0.21634413198E+03  0.60136690995E+02 -0.77528512070E+03  0.83131776320E+03  0.19900000000E+03 0.  0.
   -5000001    1    1    2    0    0 -0.21634413198E+03 -0.60136690995E+02 -0.29258754354E+04  0.29412190107E+04  0.19900000000E+03 0.  0.
<mgrwt>
<rscale>  0 0.73037268E+03</rscale>
<asrwt>0</asrwt>
<pdfrwt beam="1">  1        1 0.53383528E+00 0.73037268E+03</pdfrwt>
<pdfrwt beam="2">  1       -1 0.50983036E-02 0.73037268E+03</pdfrwt>
<totfact> 0.51240486E+01</totfact>
</mgrwt>
</event>
<event>
 4    1  0.6480558E-006  0.1565162E+04  0.7818608E-02  0.8842241E-01
         -1   -1    0    0    0  501 -0.00000000000E+00  0.00000000000E+00  0.12247444924E+04  0.12247444924E+04  0.50400000000E-02 0.  1.
          1   -1    0    0  501    0  0.00000000000E+00 -0.00000000000E+00 -0.50004989573E+03  0.50004989576E+03  0.50400000000E-02 0. -1.
    5000001    1    1    2    0    0 -0.63592917985E+03  0.19683347526E+03 -0.34496382755E+02  0.69565820573E+03  0.19900000000E+03 0.  0.
   -5000001    1    1    2    0    0  0.63592917985E+03 -0.19683347526E+03  0.75919097940E+03  0.10291361824E+04  0.19900000000E+03 0.  0.
<mgrwt>
<rscale>  0 0.15651624E+04</rscale>
<asrwt>0</asrwt>
<pdfrwt beam="1">  1        1 0.71435699E-01 0.15651624E+04</pdfrwt>
<pdfrwt beam="2">  1       -1 0.17496350E+00 0.15651624E+04</pdfrwt>
<totfact> 0.10711164E+01</totfact>
</mgrwt>
</event>
<event>
 4    1  0.6480558E-006  0.4619596E+03  0.7818608E-02  0.1024214E+00
         -1   -1    0    0    0  501 -0.00000000000E+00  0.00000000000E+00  0.15142332797E+04  0.15142332797E+04  0.50400000000E-02 0. -1.
          1   -1    0    0  501    0  0.00000000000E+00 -0.00000000000E+00 -0.35233452735E+02  0.35233453095E+02  0.50400000000E-02 0.  1.
    5000001    1    1    2    0    0 -0.25681595040E+02 -0.11162647185E+03  0.65526858587E+03  0.69433272512E+03  0.19900000000E+03 0.  0.
   -5000001    1    1    2    0    0  0.25681595040E+02  0.11162647185E+03  0.82373124105E+03  0.85513400764E+03  0.19900000000E+03 0.  0.
<mgrwt>
<rscale>  0 0.46195960E+03</rscale>
<asrwt>0</asrwt>
<pdfrwt beam="1">  1        1 0.50333517E-02 0.46195960E+03</pdfrwt>
<pdfrwt beam="2">  1       -1 0.21631898E+00 0.46195960E+03</pdfrwt>
<totfact> 0.21270966E+02</totfact>
</mgrwt>
</event>
<event>
 4    1  0.6480558E-006  0.5067031E+03  0.7818608E-02  0.1012044E+00
          1   -1    0    0  501    0  0.00000000000E+00  0.00000000000E+00  0.44096484701E+03  0.44096484704E+03  0.50400000000E-02 0.  1.
         -1   -1    0    0    0  501 -0.00000000000E+00 -0.00000000000E+00 -0.14556034515E+03  0.14556034523E+03  0.50400000000E-02 0. -1.
    5000001    1    1    2    0    0  0.94536139082E+02 -0.10267477227E+03  0.23042172895E+03  0.33492441479E+03  0.19900000000E+03 0.  0.
   -5000001    1    1    2    0    0 -0.94536139082E+02  0.10267477227E+03  0.64982772919E+02  0.25160077748E+03  0.19900000000E+03 0.  0.
<mgrwt>
<rscale>  0 0.50670305E+03</rscale>
<asrwt>0</asrwt>
<pdfrwt beam="1">  1        1 0.62994979E-01 0.50670305E+03</pdfrwt>
<pdfrwt beam="2">  1       -1 0.20794335E-01 0.50670305E+03</pdfrwt>
<totfact> 0.11152675E+03</totfact>
</mgrwt>
</event>
<event>
 4    1  0.6480558E-006  0.4401418E+03  0.7818608E-02  0.1030703E+00
         -1   -1    0    0    0  501 -0.00000000000E+00  0.00000000000E+00  0.41402776860E+02  0.41402777167E+02  0.50400000000E-02 0. -1.
          1   -1    0    0  501    0  0.00000000000E+00 -0.00000000000E+00 -0.11697575288E+04  0.11697575288E+04  0.50400000000E-02 0.  1.
    5000001    1    1    2    0    0 -0.50462644674E+02  0.28380891679E+02 -0.76784882764E+03  0.79532683573E+03  0.19900000000E+03 0.  0.
   -5000001    1    1    2    0    0  0.50462644674E+02 -0.28380891679E+02 -0.36050592426E+03  0.41583347021E+03  0.19900000000E+03 0.  0.
<mgrwt>
<rscale>  0 0.44014184E+03</rscale>
<asrwt>0</asrwt>
<pdfrwt beam="1">  1        1 0.16710820E+00 0.44014184E+03</pdfrwt>
<pdfrwt beam="2">  1       -1 0.59146832E-02 0.44014184E+03</pdfrwt>
<totfact> 0.18852331E+03</totfact>
</mgrwt>
</event>
<event>
 4    1  0.6480558E-006  0.5985052E+03  0.7818608E-02  0.9908512E-01
          1   -1    0    0  501    0  0.00000000000E+00  0.00000000000E+00  0.67533970271E+02  0.67533970459E+02  0.50400000000E-02 0. -1.
         -1   -1    0    0    0  501 -0.00000000000E+00 -0.00000000000E+00 -0.13260306550E+04  0.13260306550E+04  0.50400000000E-02 0.  1.
    5000001    1    1    2    0    0  0.91815767802E+02 -0.10121858856E+03 -0.21747023905E+03  0.32491482385E+03  0.19900000000E+03 0.  0.
   -5000001    1    1    2    0    0 -0.91815767802E+02  0.10121858856E+03 -0.10410264457E+04  0.10686498016E+04  0.19900000000E+03 0.  0.
<mgrwt>
<rscale>  0 0.59850519E+03</rscale>
<asrwt>0</asrwt>
<pdfrwt beam="1">  1        1 0.96477109E-02 0.59850519E+03</pdfrwt>
<pdfrwt beam="2">  1       -1 0.18943293E+00 0.59850519E+03</pdfrwt>
<totfact> 0.12946017E+02</totfact>
</mgrwt>
</event>
<event>
 4    1  0.6480558E-006  0.5446086E+03  0.7818608E-02  0.1002750E+00
          1   -1    0    0  501    0  0.00000000000E+00  0.00000000000E+00  0.12336067893E+03  0.12336067903E+03  0.50400000000E-02 0. -1.
         -1   -1    0    0    0  501 -0.00000000000E+00 -0.00000000000E+00 -0.60107997900E+03  0.60107997902E+03  0.50400000000E-02 0.  1.
    5000001    1    1    2    0    0 -0.39451507148E+02 -0.89183460486E+02 -0.28373914274E+02  0.22341931441E+03  0.19900000000E+03 0.  0.
   -5000001    1    1    2    0    0  0.39451507148E+02  0.89183460486E+02 -0.44934538580E+03  0.50102134364E+03  0.19900000000E+03 0.  0.
<mgrwt>
<rscale>  0 0.54460861E+03</rscale>
<asrwt>0</asrwt>
<pdfrwt beam="1">  1        1 0.17622955E-01 0.54460861E+03</pdfrwt>
<pdfrwt beam="2">  1       -1 0.85868566E-01 0.54460861E+03</pdfrwt>
<totfact> 0.42165393E+02</totfact>
</mgrwt>
</event>
<event>
 4    1  0.6480558E-006  0.9200579E+03  0.7818608E-02  0.9400850E-01
          1   -1    0    0  501    0  0.00000000000E+00  0.00000000000E+00  0.11455878025E+04  0.11455878026E+04  0.50400000000E-02 0. -1.
         -1   -1    0    0    0  501 -0.00000000000E+00 -0.00000000000E+00 -0.18473193355E+03  0.18473193362E+03  0.50400000000E-02 0.  1.
    5000001    1    1    2    0    0 -0.12588617022E+02 -0.41134301271E+03  0.55505842977E+03  0.71906356315E+03  0.19900000000E+03 0.  0.
   -5000001    1    1    2    0    0  0.12588617022E+02  0.41134301271E+03  0.40579743922E+03  0.61125617302E+03  0.19900000000E+03 0.  0.
<mgrwt>
<rscale>  0 0.92005793E+03</rscale>
<asrwt>0</asrwt>
<pdfrwt beam="1">  1        1 0.16365540E+00 0.92005793E+03</pdfrwt>
<pdfrwt beam="2">  1       -1 0.26390276E-01 0.92005793E+03</pdfrwt>
<totfact> 0.17309196E+02</totfact>
</mgrwt>
</event>
<event>
 4    1  0.6480558E-006  0.5431300E+03  0.7818608E-02  0.1003097E+00
          1   -1    0    0  501    0  0.00000000000E+00  0.00000000000E+00  0.14569286560E+04  0.14569286560E+04  0.50400000000E-02 0. -1.
         -1   -1    0    0    0  501 -0.00000000000E+00 -0.00000000000E+00 -0.50618498470E+02  0.50618498721E+02  0.50400000000E-02 0.  1.
    5000001    1    1    2    0    0  0.11351440998E+03 -0.14353469418E+03  0.63191117607E+03  0.68731394875E+03  0.19900000000E+03 0.  0.
   -5000001    1    1    2    0    0 -0.11351440998E+03  0.14353469418E+03  0.77439898148E+03  0.82023320600E+03  0.19900000000E+03 0.  0.
<mgrwt>
<rscale>  0 0.54312997E+03</rscale>
<asrwt>0</asrwt>
<pdfrwt beam="1">  1        1 0.20813263E+00 0.54312997E+03</pdfrwt>
<pdfrwt beam="2">  1       -1 0.72312151E-02 0.54312997E+03</pdfrwt>
<totfact> 0.89079738E+02</totfact>
</mgrwt>
</event>
<event>
 4    1  0.6480558E-006  0.4546704E+03  0.7818608E-02  0.1026338E+00
          1   -1    0    0  501    0  0.00000000000E+00  0.00000000000E+00  0.24683057212E+03  0.24683057218E+03  0.50400000000E-02 0.  1.
         -1   -1    0    0    0  501 -0.00000000000E+00 -0.00000000000E+00 -0.20937959344E+03  0.20937959350E+03  0.50400000000E-02 0. -1.
    5000001    1    1    2    0    0 -0.15850453699E+02 -0.86502236655E+02  0.84876077361E+02  0.23353548411E+03  0.19900000000E+03 0.  0.
   -5000001    1    1    2    0    0  0.15850453699E+02  0.86502236655E+02 -0.47425098679E+02  0.22267468157E+03  0.19900000000E+03 0.  0.
<mgrwt>
<rscale>  0 0.45467036E+03</rscale>
<asrwt>0</asrwt>
<pdfrwt beam="1">  1        1 0.35261510E-01 0.45467036E+03</pdfrwt>
<pdfrwt beam="2">  1       -1 0.29911370E-01 0.45467036E+03</pdfrwt>
<totfact> 0.12735317E+03</totfact>
</mgrwt>
</event>
<event>
 4    1  0.6480558E-006  0.5687339E+03  0.7818608E-02  0.9972484E-01
         -1   -1    0    0    0  501 -0.00000000000E+00  0.00000000000E+00  0.17522503305E+03  0.17522503312E+03  0.50400000000E-02 0. -1.
          1   -1    0    0  501    0  0.00000000000E+00 -0.00000000000E+00 -0.46148974295E+03  0.46148974297E+03  0.50400000000E-02 0.  1.
    5000001    1    1    2    0    0 -0.11872600223E+03 -0.36408115624E+02  0.36837628606E+02  0.23744352038E+03  0.19900000000E+03 0.  0.
   -5000001    1    1    2    0    0  0.11872600223E+03  0.36408115624E+02 -0.32310233851E+03  0.39927125571E+03  0.19900000000E+03 0.  0.
<mgrwt>
<rscale>  0 0.56873388E+03</rscale>
<asrwt>0</asrwt>
<pdfrwt beam="1">  1        1 0.65927105E-01 0.56873388E+03</pdfrwt>
<pdfrwt beam="2">  1       -1 0.25032148E-01 0.56873388E+03</pdfrwt>
<totfact> 0.76894836E+02</totfact>
</mgrwt>
</event>
<event>
 4    1  0.6480558E-006  0.9897066E+03  0.7818608E-02  0.9319907E-01
         -1   -1    0    0    0  501 -0.00000000000E+00  0.00000000000E+00  0.10303954698E+03  0.10303954710E+03  0.50400000000E-02 0. -1.
          1   -1    0    0  501    0  0.00000000000E+00 -0.00000000000E+00 -0.23765611078E+04  0.23765611078E+04  0.50400000000E-02 0.  1.
    5000001    1    1    2    0    0  0.13290548982E+03 -0.42802115721E+03 -0.97033047982E+03  0.10872020145E+04  0.19900000000E+03 0.  0.
   -5000001    1    1    2    0    0 -0.13290548982E+03  0.42802115721E+03 -0.13031910810E+04  0.13923986404E+04  0.19900000000E+03 0.  0.
<mgrwt>
<rscale>  0 0.98970658E+03</rscale>
<asrwt>0</asrwt>
<pdfrwt beam="1">  1        1 0.33950870E+00 0.98970658E+03</pdfrwt>
<pdfrwt beam="2">  1       -1 0.14719937E-01 0.98970658E+03</pdfrwt>
<totfact> 0.74000348E+01</totfact>
</mgrwt>
</event>
<event>
 4    1  0.6480558E-006  0.5894299E+03  0.7818608E-02  0.9927582E-01
         -1   -1    0    0    0  501 -0.00000000000E+00  0.00000000000E+00  0.34492015429E+03  0.34492015433E+03  0.50400000000E-02 0. -1.
          1   -1    0    0  501    0  0.00000000000E+00 -0.00000000000E+00 -0.25181737359E+03  0.25181737364E+03  0.50400000000E-02 0.  1.
    5000001    1    1    2    0    0  0.15369375579E+03  0.14116004793E+03  0.10819933593E+03  0.30798705492E+03  0.19900000000E+03 0.  0.
   -5000001    1    1    2    0    0 -0.15369375579E+03 -0.14116004793E+03 -0.15096555226E+02  0.28875047304E+03  0.19900000000E+03 0.  0.
<mgrwt>
<rscale>  0 0.58942985E+03</rscale>
<asrwt>0</asrwt>
<pdfrwt beam="1">  1        1 0.35973911E-01 0.58942985E+03</pdfrwt>
<pdfrwt beam="2">  1       -1 0.49274307E-01 0.58942985E+03</pdfrwt>
<totfact> 0.50590047E+02</totfact>
</mgrwt>
</event>
<event>
 4    1  0.6480558E-006  0.7315688E+03  0.7818608E-02  0.9664718E-01
          1   -1    0    0  501    0  0.00000000000E+00  0.00000000000E+00  0.33474270840E+03  0.33474270844E+03  0.50400000000E-02 0.  1.
         -1   -1    0    0    0  501 -0.00000000000E+00 -0.00000000000E+00 -0.39970469415E+03  0.39970469419E+03  0.50400000000E-02 0. -1.
    5000001    1    1    2    0    0  0.34525377382E+02 -0.27898250941E+03 -0.15614844363E+03  0.37816210636E+03  0.19900000000E+03 0.  0.
   -5000001    1    1    2    0    0 -0.34525377382E+02  0.27898250941E+03  0.91186457881E+02  0.35628529627E+03  0.19900000000E+03 0.  0.
<mgrwt>
<rscale>  0 0.73156881E+03</rscale>
<asrwt>0</asrwt>
<pdfrwt beam="1">  1        1 0.47820387E-01 0.73156881E+03</pdfrwt>
<pdfrwt beam="2">  1       -1 0.57100671E-01 0.73156881E+03</pdfrwt>
<totfact> 0.26309321E+02</totfact>
</mgrwt>
</event>
<event>
 4    1  0.6480558E-006  0.4591506E+03  0.7818608E-02  0.1025028E+00
         -1   -1    0    0    0  501 -0.00000000000E+00  0.00000000000E+00  0.46902369680E+02  0.46902369951E+02  0.50400000000E-02 0. -1.
          1   -1    0    0  501    0  0.00000000000E+00 -0.00000000000E+00 -0.11237132378E+04  0.11237132378E+04  0.50400000000E-02 0.  1.
    5000001    1    1    2    0    0 -0.83292510108E+02 -0.68565815046E+02 -0.63598598259E+03  0.67506894706E+03  0.19900000000E+03 0.  0.
   -5000001    1    1    2    0    0  0.83292510108E+02  0.68565815046E+02 -0.44082488554E+03  0.49554666072E+03  0.19900000000E+03 0.  0.
<mgrwt>
<rscale>  0 0.45915058E+03</rscale>
<asrwt>0</asrwt>
<pdfrwt beam="1">  1        1 0.16053045E+00 0.45915058E+03</pdfrwt>
<pdfrwt beam="2">  1       -1 0.67003392E-02 0.45915058E+03</pdfrwt>
<totfact> 0.16749925E+03</totfact>
</mgrwt>
</event>
<event>
 4    1  0.6480558E-006  0.6140218E+03  0.7818608E-02  0.9876735E-01
         -1   -1    0    0    0  501 -0.00000000000E+00  0.00000000000E+00  0.36341282071E+03  0.36341282074E+03  0.50400000000E-02 0.  1.
          1   -1    0    0  501    0  0.00000000000E+00 -0.00000000000E+00 -0.25936255448E+03  0.25936255453E+03  0.50400000000E-02 0. -1.
    5000001    1    1    2    0    0 -0.46831851700E+02 -0.20266278753E+03 -0.56216724020E+02  0.29330316712E+03  0.19900000000E+03 0.  0.
   -5000001    1    1    2    0    0  0.46831851700E+02  0.20266278753E+03  0.16026699025E+03  0.32947220815E+03  0.19900000000E+03 0.  0.
<mgrwt>
<rscale>  0 0.61402175E+03</rscale>
<asrwt>0</asrwt>
<pdfrwt beam="1">  1        1 0.37051793E-01 0.61402175E+03</pdfrwt>
<pdfrwt beam="2">  1       -1 0.51916117E-01 0.61402175E+03</pdfrwt>
<totfact> 0.44097853E+02</totfact>
</mgrwt>
</event>
<event>
 4    1  0.6480558E-006  0.5101734E+03  0.7818608E-02  0.1011157E+00
         -1   -1    0    0    0  501 -0.00000000000E+00  0.00000000000E+00  0.38068441602E+03  0.38068441605E+03  0.50400000000E-02 0. -1.
          1   -1    0    0  501    0  0.00000000000E+00 -0.00000000000E+00 -0.17092692967E+03  0.17092692975E+03  0.50400000000E-02 0.  1.
    5000001    1    1    2    0    0 -0.31784282010E+01 -0.42210251369E+02 -0.61490611489E+02  0.21254153248E+03  0.19900000000E+03 0.  0.
   -5000001    1    1    2    0    0  0.31784282010E+01  0.42210251369E+02  0.27124809784E+03  0.33906981332E+03  0.19900000000E+03 0.  0.
<mgrwt>
<rscale>  0 0.51017338E+03</rscale>
<asrwt>0</asrwt>
<pdfrwt beam="1">  1        1 0.24418133E-01 0.51017338E+03</pdfrwt>
<pdfrwt beam="2">  1       -1 0.54383487E-01 0.51017338E+03</pdfrwt>
<totfact> 0.69306234E+02</totfact>
</mgrwt>
</event>
<event>
 4    1  0.6480558E-006  0.4690703E+03  0.7818608E-02  0.1022183E+00
          1   -1    0    0  501    0  0.00000000000E+00  0.00000000000E+00  0.14555037802E+03  0.14555037810E+03  0.50400000000E-02 0. -1.
         -1   -1    0    0    0  501 -0.00000000000E+00 -0.00000000000E+00 -0.37792232435E+03  0.37792232439E+03  0.50400000000E-02 0.  1.
    5000001    1    1    2    0    0 -0.88757247120E+02  0.28458043863E+02 -0.24716325346E+02  0.22113255282E+03  0.19900000000E+03 0.  0.
   -5000001    1    1    2    0    0  0.88757247120E+02 -0.28458043863E+02 -0.20765562099E+03  0.30234014967E+03  0.19900000000E+03 0.  0.
<mgrwt>
<rscale>  0 0.46907030E+03</rscale>
<asrwt>0</asrwt>
<pdfrwt beam="1">  1        1 0.20792911E-01 0.46907030E+03</pdfrwt>
<pdfrwt beam="2">  1       -1 0.53988903E-01 0.46907030E+03</pdfrwt>
<totfact> 0.86679214E+02</totfact>
</mgrwt>
</event>
<event>
 4    1  0.6480558E-006  0.5543618E+03  0.7818608E-02  0.1000489E+00
          1   -1    0    0  501    0  0.00000000000E+00  0.00000000000E+00  0.77827651678E+02  0.77827651841E+02  0.50400000000E-02 0.  1.
         -1   -1    0    0    0  501 -0.00000000000E+00 -0.00000000000E+00 -0.98717155598E+03  0.98717155599E+03  0.50400000000E-02 0. -1.
    5000001    1    1    2    0    0 -0.16108743489E+03 -0.44295303067E+02 -0.26923586454E+03  0.37416598765E+03  0.19900000000E+03 0.  0.
   -5000001    1    1    2    0    0  0.16108743489E+03  0.44295303067E+02 -0.64010803976E+03  0.69083322019E+03  0.19900000000E+03 0.  0.
<mgrwt>
<rscale>  0 0.55436177E+03</rscale>
<asrwt>0</asrwt>
<pdfrwt beam="1">  1        1 0.11118237E-01 0.55436177E+03</pdfrwt>
<pdfrwt beam="2">  1       -1 0.14102450E+00 0.55436177E+03</pdfrwt>
<totfact> 0.24379070E+02</totfact>
</mgrwt>
</event>
<event>
 4    1  0.6480558E-006  0.5798796E+03  0.7818608E-02  0.9948052E-01
          1   -1    0    0  501    0  0.00000000000E+00  0.00000000000E+00  0.10936135041E+04  0.10936135041E+04  0.50400000000E-02 0.  1.
         -1   -1    0    0    0  501 -0.00000000000E+00 -0.00000000000E+00 -0.76869094596E+02  0.76869094761E+02  0.50400000000E-02 0. -1.
    5000001    1    1    2    0    0  0.13125443624E+03 -0.13186320418E+03  0.30805831860E+03  0.41123783788E+03  0.19900000000E+03 0.  0.
   -5000001    1    1    2    0    0 -0.13125443624E+03  0.13186320418E+03  0.70868609090E+03  0.75924476099E+03  0.19900000000E+03 0.  0.
<mgrwt>
<rscale>  0 0.57987957E+03</rscale>
<asrwt>0</asrwt>
<pdfrwt beam="1">  1        1 0.15623051E+00 0.57987957E+03</pdfrwt>
<pdfrwt beam="2">  1       -1 0.10981298E-01 0.57987957E+03</pdfrwt>
<totfact> 0.81107125E+02</totfact>
</mgrwt>
</event>
<event>
 4    1  0.6480558E-006  0.5412127E+03  0.7818608E-02  0.1003549E+00
          1   -1    0    0  501    0  0.00000000000E+00  0.00000000000E+00  0.25742305646E+03  0.25742305651E+03  0.50400000000E-02 0.  1.
         -1   -1    0    0    0  501 -0.00000000000E+00 -0.00000000000E+00 -0.28446478545E+03  0.28446478550E+03  0.50400000000E-02 0. -1.
    5000001    1    1    2    0    0 -0.17269591928E+03 -0.45945335162E+02 -0.54705377807E+02  0.27299914417E+03  0.19900000000E+03 0.  0.
   -5000001    1    1    2    0    0  0.17269591928E+03  0.45945335162E+02  0.27663648811E+02  0.26888869783E+03  0.19900000000E+03 0.  0.
<mgrwt>
<rscale>  0 0.54121269E+03</rscale>
<asrwt>0</asrwt>
<pdfrwt beam="1">  1        1 0.36774722E-01 0.54121269E+03</pdfrwt>
<pdfrwt beam="2">  1       -1 0.40637826E-01 0.54121269E+03</pdfrwt>
<totfact> 0.70233460E+02</totfact>
</mgrwt>
</event>
<event>
 4    1  0.6480558E-006  0.4671426E+03  0.7818608E-02  0.1022730E+00
          1   -1    0    0  501    0  0.00000000000E+00  0.00000000000E+00  0.80081885556E+03  0.80081885558E+03  0.50400000000E-02 0.  1.
         -1   -1    0    0    0  501 -0.00000000000E+00 -0.00000000000E+00 -0.68124712884E+02  0.68124713071E+02  0.50400000000E-02 0. -1.
    5000001    1    1    2    0    0 -0.58886582955E+02 -0.10663752477E+03  0.34636796643E+03  0.41762538178E+03  0.19900000000E+03 0.  0.
   -5000001    1    1    2    0    0  0.58886582955E+02  0.10663752477E+03  0.38632617624E+03  0.45131818686E+03  0.19900000000E+03 0.  0.
<mgrwt>
<rscale>  0 0.46714261E+03</rscale>
<asrwt>0</asrwt>
<pdfrwt beam="1">  1        1 0.11440270E+00 0.46714261E+03</pdfrwt>
<pdfrwt beam="2">  1       -1 0.97321016E-02 0.46714261E+03</pdfrwt>
<totfact> 0.16414548E+03</totfact>
</mgrwt>
</event>
<event>
 4    1  0.6480558E-006  0.1089071E+04  0.7818608E-02  0.9215910E-01
         -1   -1    0    0    0  501 -0.00000000000E+00  0.00000000000E+00  0.64840427663E+03  0.64840427665E+03  0.50400000000E-02 0.  1.
          1   -1    0    0  501    0  0.00000000000E+00 -0.00000000000E+00 -0.45730559512E+03  0.45730559515E+03  0.50400000000E-02 0. -1.
    5000001    1    1    2    0    0  0.29295383647E+03 -0.35445363753E+03 -0.12091825513E+03  0.51544306755E+03  0.19900000000E+03 0.  0.
   -5000001    1    1    2    0    0 -0.29295383647E+03  0.35445363753E+03  0.31201693664E+03  0.59026680426E+03  0.19900000000E+03 0.  0.
<mgrwt>
<rscale>  0 0.10890710E+04</rscale>
<asrwt>0</asrwt>
<pdfrwt beam="1">  1        1 0.65329371E-01 0.10890710E+04</pdfrwt>
<pdfrwt beam="2">  1       -1 0.92629182E-01 0.10890710E+04</pdfrwt>
<totfact> 0.62648765E+01</totfact>
</mgrwt>
</event>
<event>
 4    1  0.6480558E-006  0.6340827E+03  0.7818608E-02  0.9837114E-01
         -1   -1    0    0    0  501 -0.00000000000E+00  0.00000000000E+00  0.86743420028E+02  0.86743420174E+02  0.50400000000E-02 0.  1.
          1   -1    0    0  501    0  0.00000000000E+00 -0.00000000000E+00 -0.11587645710E+04  0.11587645710E+04  0.50400000000E-02 0. -1.
    5000001    1    1    2    0    0  0.45650478408E+02  0.18459087490E+03 -0.22694916265E+03  0.35674175492E+03  0.19900000000E+03 0.  0.
   -5000001    1    1    2    0    0 -0.45650478408E+02 -0.18459087490E+03 -0.84507198828E+03  0.88876623623E+03  0.19900000000E+03 0.  0.
<mgrwt>
<rscale>  0 0.63408265E+03</rscale>
<asrwt>0</asrwt>
<pdfrwt beam="1">  1        1 0.16553779E+00 0.63408265E+03</pdfrwt>
<pdfrwt beam="2">  1       -1 0.12391918E-01 0.63408265E+03</pdfrwt>
<totfact> 0.60090182E+02</totfact>
</mgrwt>
</event>
<event>
 4    1  0.6480558E-006  0.4384086E+03  0.7818608E-02  0.1031236E+00
         -1   -1    0    0    0  501 -0.00000000000E+00  0.00000000000E+00  0.50974483853E+03  0.50974483855E+03  0.50400000000E-02 0. -1.
          1   -1    0    0  501    0  0.00000000000E+00 -0.00000000000E+00 -0.94263897623E+02  0.94263897757E+02  0.50400000000E-02 0.  1.
    5000001    1    1    2    0    0  0.11591091319E+02 -0.87036316486E+02  0.24521527134E+03  0.32778224950E+03  0.19900000000E+03 0.  0.
   -5000001    1    1    2    0    0 -0.11591091319E+02  0.87036316486E+02  0.17026566956E+03  0.27622648681E+03  0.19900000000E+03 0.  0.
<mgrwt>
<rscale>  0 0.43840865E+03</rscale>
<asrwt>0</asrwt>
<pdfrwt beam="1">  1        1 0.13466271E-01 0.43840865E+03</pdfrwt>
<pdfrwt beam="2">  1       -1 0.72820691E-01 0.43840865E+03</pdfrwt>
<totfact> 0.85423887E+02</totfact>
</mgrwt>
</event>
<event>
 4    1  0.6480558E-006  0.1091224E+04  0.7818608E-02  0.9213788E-01
          1   -1    0    0  501    0  0.00000000000E+00  0.00000000000E+00  0.72592212423E+03  0.72592212424E+03  0.50400000000E-02 0.  1.
         -1   -1    0    0    0  501 -0.00000000000E+00 -0.00000000000E+00 -0.41008899111E+03  0.41008899114E+03  0.50400000000E-02 0. -1.
    5000001    1    1    2    0    0  0.40550722169E+03  0.94741454728E+02 -0.14502437256E+03  0.48378209839E+03  0.19900000000E+03 0.  0.
   -5000001    1    1    2    0    0 -0.40550722169E+03 -0.94741454728E+02  0.46085750567E+03  0.65222901700E+03  0.19900000000E+03 0.  0.
<mgrwt>
<rscale>  0 0.10912244E+04</rscale>
<asrwt>0</asrwt>
<pdfrwt beam="1">  1        1 0.10370316E+00 0.10912244E+04</pdfrwt>
<pdfrwt beam="2">  1       -1 0.58584142E-01 0.10912244E+04</pdfrwt>
<totfact> 0.84980864E+01</totfact>
</mgrwt>
</event>
<event>
 4    1  0.6480558E-006  0.1199674E+04  0.7818608E-02  0.9113142E-01
         -1   -1    0    0    0  501 -0.00000000000E+00  0.00000000000E+00  0.54857633012E+03  0.54857633014E+03  0.50400000000E-02 0. -1.
          1   -1    0    0  501    0  0.00000000000E+00 -0.00000000000E+00 -0.65588810472E+03  0.65588810474E+03  0.50400000000E-02 0.  1.
    5000001    1    1    2    0    0  0.41384242145E+03 -0.12001691044E+03  0.31459748575E+03  0.56942267835E+03  0.19900000000E+03 0.  0.
   -5000001    1    1    2    0    0 -0.41384242145E+03  0.12001691044E+03 -0.42190926035E+03  0.63504175654E+03  0.19900000000E+03 0.  0.
<mgrwt>
<rscale>  0 0.11996744E+04</rscale>
<asrwt>0</asrwt>
<pdfrwt beam="1">  1        1 0.93698301E-01 0.11996744E+04</pdfrwt>
<pdfrwt beam="2">  1       -1 0.78368047E-01 0.11996744E+04</pdfrwt>
<totfact> 0.54152652E+01</totfact>
</mgrwt>
</event>
<event>
 4    1  0.6480558E-006  0.5653151E+03  0.7818608E-02  0.9980100E-01
         -1   -1    0    0    0  501 -0.00000000000E+00  0.00000000000E+00  0.16234483637E+03  0.16234483645E+03  0.50400000000E-02 0. -1.
          1   -1    0    0  501    0  0.00000000000E+00 -0.00000000000E+00 -0.49213316379E+03  0.49213316381E+03  0.50400000000E-02 0.  1.
    5000001    1    1    2    0    0  0.19521942792E+03  0.45129910023E+02 -0.15086018948E+03  0.32016734778E+03  0.19900000000E+03 0.  0.
   -5000001    1    1    2    0    0 -0.19521942792E+03 -0.45129910023E+02 -0.17892813794E+03  0.33431065248E+03  0.19900000000E+03 0.  0.
<mgrwt>
<rscale>  0 0.56531506E+03</rscale>
<asrwt>0</asrwt>
<pdfrwt beam="1">  1        1 0.70304737E-01 0.56531506E+03</pdfrwt>
<pdfrwt beam="2">  1       -1 0.23192120E-01 0.56531506E+03</pdfrwt>
<totfact> 0.80289660E+02</totfact>
</mgrwt>
</event>
<event>
 4    1  0.6480558E-006  0.7428163E+03  0.7818608E-02  0.9646688E-01
         -1   -1    0    0    0  501 -0.00000000000E+00  0.00000000000E+00  0.10601984917E+03  0.10601984929E+03  0.50400000000E-02 0.  1.
          1   -1    0    0  501    0  0.00000000000E+00 -0.00000000000E+00 -0.13011148785E+04  0.13011148785E+04  0.50400000000E-02 0. -1.
    5000001    1    1    2    0    0 -0.26367773536E+03 -0.12540459160E+03 -0.38080883144E+03  0.51948881203E+03  0.19900000000E+03 0.  0.
   -5000001    1    1    2    0    0  0.26367773536E+03  0.12540459160E+03 -0.81428619786E+03  0.88764591575E+03  0.19900000000E+03 0.  0.
<mgrwt>
<rscale>  0 0.74281627E+03</rscale>
<asrwt>0</asrwt>
<pdfrwt beam="1">  1        1 0.18587354E+00 0.74281627E+03</pdfrwt>
<pdfrwt beam="2">  1       -1 0.15145694E-01 0.74281627E+03</pdfrwt>
<totfact> 0.34571657E+02</totfact>
</mgrwt>
</event>
<event>
 4    1  0.6480558E-006  0.9694337E+03  0.7818608E-02  0.9342720E-01
         -1   -1    0    0    0  501 -0.00000000000E+00  0.00000000000E+00  0.16159833628E+03  0.16159833636E+03  0.50400000000E-02 0. -1.
          1   -1    0    0  501    0  0.00000000000E+00 -0.00000000000E+00 -0.14539159904E+04  0.14539159904E+04  0.50400000000E-02 0.  1.
    5000001    1    1    2    0    0  0.32855447020E+03  0.26191938037E+03 -0.87464875661E+03  0.99053583940E+03  0.19900000000E+03 0.  0.
   -5000001    1    1    2    0    0 -0.32855447020E+03 -0.26191938037E+03 -0.41766889746E+03  0.62497848732E+03  0.19900000000E+03 0.  0.
<mgrwt>
<rscale>  0 0.96943366E+03</rscale>
<asrwt>0</asrwt>
<pdfrwt beam="1">  1        1 0.20770228E+00 0.96943366E+03</pdfrwt>
<pdfrwt beam="2">  1       -1 0.23085478E-01 0.96943366E+03</pdfrwt>
<totfact> 0.13414652E+02</totfact>
</mgrwt>
</event>
<event>
 4    1  0.6480558E-006  0.4764369E+03  0.7818608E-02  0.1020119E+00
          1   -1    0    0  501    0  0.00000000000E+00  0.00000000000E+00  0.90390927707E+03  0.90390927709E+03  0.50400000000E-02 0.  1.
         -1   -1    0    0    0  501 -0.00000000000E+00 -0.00000000000E+00 -0.62780659102E+02  0.62780659304E+02  0.50400000000E-02 0. -1.
    5000001    1    1    2    0    0 -0.49396425213E+02  0.46935378497E+02  0.64745035170E+03  0.68076126101E+03  0.19900000000E+03 0.  0.
   -5000001    1    1    2    0    0  0.49396425213E+02 -0.46935378497E+02  0.19367826628E+03  0.28592867538E+03  0.19900000000E+03 0.  0.
<mgrwt>
<rscale>  0 0.47643686E+03</rscale>
<asrwt>0</asrwt>
<pdfrwt beam="1">  1        1 0.12912989E+00 0.47643686E+03</pdfrwt>
<pdfrwt beam="2">  1       -1 0.89686662E-02 0.47643686E+03</pdfrwt>
<totfact> 0.15431522E+03</totfact>
</mgrwt>
</event>
<event>
 4    1  0.6480558E-006  0.5114656E+03  0.7818608E-02  0.1010829E+00
         -1   -1    0    0    0  501 -0.00000000000E+00  0.00000000000E+00  0.60350130988E+02  0.60350131198E+02  0.50400000000E-02 0. -1.
          1   -1    0    0  501    0  0.00000000000E+00 -0.00000000000E+00 -0.10836641236E+04  0.10836641236E+04  0.50400000000E-02 0.  1.
    5000001    1    1    2    0    0 -0.67125963306E+02 -0.14591399664E+03 -0.51438046644E+03  0.57444325536E+03  0.19900000000E+03 0.  0.
   -5000001    1    1    2    0    0  0.67125963306E+02  0.14591399664E+03 -0.50893352620E+03  0.56957099949E+03  0.19900000000E+03 0.  0.
<mgrwt>
<rscale>  0 0.51146563E+03</rscale>
<asrwt>0</asrwt>
<pdfrwt beam="1">  1        1 0.15480915E+00 0.51146563E+03</pdfrwt>
<pdfrwt beam="2">  1       -1 0.86214480E-02 0.51146563E+03</pdfrwt>
<totfact> 0.12083642E+03</totfact>
</mgrwt>
</event>
<event>
 4    1  0.6480558E-006  0.5875187E+03  0.7818608E-02  0.9931644E-01
          1   -1    0    0  501    0  0.00000000000E+00  0.00000000000E+00  0.22994482905E+03  0.22994482911E+03  0.50400000000E-02 0.  1.
         -1   -1    0    0    0  501 -0.00000000000E+00 -0.00000000000E+00 -0.37528379212E+03  0.37528379216E+03  0.50400000000E-02 0. -1.
    5000001    1    1    2    0    0 -0.19009346584E+03  0.98577768130E+02 -0.10253414565E+03  0.30978597959E+03  0.19900000000E+03 0.  0.
   -5000001    1    1    2    0    0  0.19009346584E+03 -0.98577768130E+02 -0.42804817418E+02  0.29544264168E+03  0.19900000000E+03 0.  0.
<mgrwt>
<rscale>  0 0.58751874E+03</rscale>
<asrwt>0</asrwt>
<pdfrwt beam="1">  1        1 0.32849261E-01 0.58751874E+03</pdfrwt>
<pdfrwt beam="2">  1       -1 0.53611970E-01 0.58751874E+03</pdfrwt>
<totfact> 0.48467833E+02</totfact>
</mgrwt>
</event>
<event>
 4    1  0.6480558E-006  0.5970055E+03  0.7818608E-02  0.9911638E-01
          1   -1    0    0  501    0  0.00000000000E+00  0.00000000000E+00  0.58649934103E+03  0.58649934105E+03  0.50400000000E-02 0.  1.
         -1   -1    0    0    0  501 -0.00000000000E+00 -0.00000000000E+00 -0.15192497227E+03  0.15192497236E+03  0.50400000000E-02 0. -1.
    5000001    1    1    2    0    0 -0.15409796551E+03 -0.15999486304E+03  0.20172228683E+03  0.36005196871E+03  0.19900000000E+03 0.  0.
   -5000001    1    1    2    0    0  0.15409796551E+03  0.15999486304E+03  0.23285208193E+03  0.37837234469E+03  0.19900000000E+03 0.  0.
<mgrwt>
<rscale>  0 0.59700551E+03</rscale>
<asrwt>0</asrwt>
<pdfrwt beam="1">  1        1 0.83785620E-01 0.59700551E+03</pdfrwt>
<pdfrwt beam="2">  1       -1 0.21703568E-01 0.59700551E+03</pdfrwt>
<totfact> 0.70586405E+02</totfact>
</mgrwt>
</event>
<event>
 4    1  0.6480558E-006  0.6215469E+03  0.7818608E-02  0.9861685E-01
         -1   -1    0    0    0  501 -0.00000000000E+00  0.00000000000E+00  0.11247786111E+03  0.11247786122E+03  0.50400000000E-02 0. -1.
          1   -1    0    0  501    0  0.00000000000E+00 -0.00000000000E+00 -0.85865896906E+03  0.85865896908E+03  0.50400000000E-02 0.  1.
    5000001    1    1    2    0    0  0.22735155496E+03 -0.63660081248E+02 -0.42806107204E+03  0.52780547258E+03  0.19900000000E+03 0.  0.
   -5000001    1    1    2    0    0 -0.22735155496E+03  0.63660081248E+02 -0.31812003592E+03  0.44333135772E+03  0.19900000000E+03 0.  0.
<mgrwt>
<rscale>  0 0.62154686E+03</rscale>
<asrwt>0</asrwt>
<pdfrwt beam="1">  1        1 0.12266556E+00 0.62154686E+03</pdfrwt>
<pdfrwt beam="2">  1       -1 0.16068266E-01 0.62154686E+03</pdfrwt>
<totfact> 0.65959901E+02</totfact>
</mgrwt>
</event>
<event>
 4    1  0.6480558E-006  0.7038190E+03  0.7818608E-02  0.9710723E-01
         -1   -1    0    0    0  501 -0.00000000000E+00  0.00000000000E+00  0.63783545546E+02  0.63783545745E+02  0.50400000000E-02 0. -1.
          1   -1    0    0  501    0  0.00000000000E+00 -0.00000000000E+00 -0.19415711040E+04  0.19415711040E+04  0.50400000000E-02 0.  1.
    5000001    1    1    2    0    0  0.26785127908E+03 -0.41575070744E+02 -0.64325092582E+03  0.72584126900E+03  0.19900000000E+03 0.  0.
   -5000001    1    1    2    0    0 -0.26785127908E+03  0.41575070744E+02 -0.12345366326E+04  0.12795133808E+04  0.19900000000E+03 0.  0.
<mgrwt>
<rscale>  0 0.70381898E+03</rscale>
<asrwt>0</asrwt>
<pdfrwt beam="1">  1        1 0.27736726E+00 0.70381898E+03</pdfrwt>
<pdfrwt beam="2">  1       -1 0.91119363E-02 0.70381898E+03</pdfrwt>
<totfact> 0.30470675E+02</totfact>
</mgrwt>
</event>
<event>
 4    1  0.6480558E-006  0.4905395E+03  0.7818608E-02  0.1016278E+00
         -1   -1    0    0    0  501 -0.00000000000E+00  0.00000000000E+00  0.13527026818E+04  0.13527026818E+04  0.50400000000E-02 0. -1.
          1   -1    0    0  501    0  0.00000000000E+00 -0.00000000000E+00 -0.44471898018E+02  0.44471898304E+02  0.50400000000E-02 0.  1.
    5000001    1    1    2    0    0 -0.61769446841E+02  0.69923625581E+02  0.34404312284E+03  0.40825414676E+03  0.19900000000E+03 0.  0.
   -5000001    1    1    2    0    0  0.61769446841E+02 -0.69923625581E+02  0.96418766090E+03  0.98892043331E+03  0.19900000000E+03 0.  0.
<mgrwt>
<rscale>  0 0.49053952E+03</rscale>
<asrwt>0</asrwt>
<pdfrwt beam="1">  1        1 0.63531280E-02 0.49053952E+03</pdfrwt>
<pdfrwt beam="2">  1       -1 0.19324325E+00 0.49053952E+03</pdfrwt>
<totfact> 0.21895772E+02</totfact>
</mgrwt>
</event>
<event>
 4    1  0.6480558E-006  0.8288344E+03  0.7818608E-02  0.9519193E-01
         -1   -1    0    0    0  501 -0.00000000000E+00  0.00000000000E+00  0.73082316136E+02  0.73082316309E+02  0.50400000000E-02 0. -1.
          1   -1    0    0  501    0  0.00000000000E+00 -0.00000000000E+00 -0.23499747170E+04  0.23499747171E+04  0.50400000000E-02 0.  1.
    5000001    1    1    2    0    0  0.11997601202E+03  0.29631874270E+03 -0.16443093780E+04  0.16868768098E+04  0.19900000000E+03 0.  0.
   -5000001    1    1    2    0    0 -0.11997601202E+03 -0.29631874270E+03 -0.63258302288E+03  0.73618022357E+03  0.19900000000E+03 0.  0.
<mgrwt>
<rscale>  0 0.82883435E+03</rscale>
<asrwt>0</asrwt>
<pdfrwt beam="1">  1        1 0.33571063E+00 0.82883435E+03</pdfrwt>
<pdfrwt beam="2">  1       -1 0.10440332E-01 0.82883435E+03</pdfrwt>
<totfact> 0.13555835E+02</totfact>
</mgrwt>
</event>
<event>
 4    1  0.6480558E-006  0.4980824E+03  0.7818608E-02  0.1014281E+00
         -1   -1    0    0    0  501 -0.00000000000E+00  0.00000000000E+00  0.14256521354E+03  0.14256521363E+03  0.50400000000E-02 0.  1.
          1   -1    0    0  501    0  0.00000000000E+00 -0.00000000000E+00 -0.43503966424E+03  0.43503966427E+03  0.50400000000E-02 0. -1.
    5000001    1    1    2    0    0 -0.82110797000E+02 -0.56146002385E+02 -0.16449010091E+02  0.22308322774E+03  0.19900000000E+03 0.  0.
   -5000001    1    1    2    0    0  0.82110797000E+02  0.56146002385E+02 -0.27602544061E+03  0.35452165016E+03  0.19900000000E+03 0.  0.
<mgrwt>
<rscale>  0 0.49808241E+03</rscale>
<asrwt>0</asrwt>
<pdfrwt beam="1">  1        1 0.62148523E-01 0.49808241E+03</pdfrwt>
<pdfrwt beam="2">  1       -1 0.20366459E-01 0.49808241E+03</pdfrwt>
<totfact> 0.11750979E+03</totfact>
</mgrwt>
</event>
<event>
 4    1  0.6480558E-006  0.4145366E+03  0.7818608E-02  0.1038859E+00
         -1   -1    0    0    0  501 -0.00000000000E+00  0.00000000000E+00  0.65820071282E+02  0.65820071475E+02  0.50400000000E-02 0. -1.
          1   -1    0    0  501    0  0.00000000000E+00 -0.00000000000E+00 -0.65269073424E+03  0.65269073426E+03  0.50400000000E-02 0.  1.
    5000001    1    1    2    0    0  0.31220076069E+02  0.45636072821E+02 -0.26332367421E+03  0.33466057684E+03  0.19900000000E+03 0.  0.
   -5000001    1    1    2    0    0 -0.31220076069E+02 -0.45636072821E+02 -0.32354698875E+03  0.38385022889E+03  0.19900000000E+03 0.  0.
<mgrwt>
<rscale>  0 0.41453661E+03</rscale>
<asrwt>0</asrwt>
<pdfrwt beam="1">  1        1 0.93241530E-01 0.41453661E+03</pdfrwt>
<pdfrwt beam="2">  1       -1 0.94028677E-02 0.41453661E+03</pdfrwt>
<totfact> 0.23370364E+03</totfact>
</mgrwt>
</event>
<event>
 4    1  0.6480558E-006  0.5742496E+03  0.7818608E-02  0.9960319E-01
         -1   -1    0    0    0  501 -0.00000000000E+00  0.00000000000E+00  0.21348398597E+03  0.21348398602E+03  0.50400000000E-02 0. -1.
          1   -1    0    0  501    0  0.00000000000E+00 -0.00000000000E+00 -0.38616779144E+03  0.38616779147E+03  0.50400000000E-02 0.  1.
    5000001    1    1    2    0    0 -0.15450284619E+03  0.10904242732E+03  0.15121251673E+01  0.27452625914E+03  0.19900000000E+03 0.  0.
   -5000001    1    1    2    0    0  0.15450284619E+03 -0.10904242732E+03 -0.17419593064E+03  0.32512551836E+03  0.19900000000E+03 0.  0.
<mgrwt>
<rscale>  0 0.57424956E+03</rscale>
<asrwt>0</asrwt>
<pdfrwt beam="1">  1        1 0.55166827E-01 0.57424956E+03</pdfrwt>
<pdfrwt beam="2">  1       -1 0.30497712E-01 0.57424956E+03</pdfrwt>
<totfact> 0.69234897E+02</totfact>
</mgrwt>
</event>
<event>
 4    1  0.6480558E-006  0.7028832E+03  0.7818608E-02  0.9712314E-01
          1   -1    0    0  501    0  0.00000000000E+00  0.00000000000E+00  0.98882205551E+03  0.98882205552E+03  0.50400000000E-02 0.  1.
         -1   -1    0    0    0  501 -0.00000000000E+00 -0.00000000000E+00 -0.12490738973E+03  0.12490738983E+03  0.50400000000E-02 0. -1.
    5000001    1    1    2    0    0 -0.17975166504E+03  0.78705337341E+02  0.76959303475E+03  0.81876714049E+03  0.19900000000E+03 0.  0.
   -5000001    1    1    2    0    0  0.17975166504E+03 -0.78705337341E+02  0.94321631030E+02  0.29496230486E+03  0.19900000000E+03 0.  0.
<mgrwt>
<rscale>  0 0.70288315E+03</rscale>
<asrwt>0</asrwt>
<pdfrwt beam="1">  1        1 0.14126030E+00 0.70288315E+03</pdfrwt>
<pdfrwt beam="2">  1       -1 0.17843912E-01 0.70288315E+03</pdfrwt>
<totfact> 0.43933467E+02</totfact>
</mgrwt>
</event>
<event>
 4    1  0.6480558E-006  0.5482090E+03  0.7818608E-02  0.1001909E+00
          1   -1    0    0  501    0  0.00000000000E+00  0.00000000000E+00  0.12822801633E+03  0.12822801643E+03  0.50400000000E-02 0.  1.
         -1   -1    0    0    0  501 -0.00000000000E+00 -0.00000000000E+00 -0.58593499360E+03  0.58593499362E+03  0.50400000000E-02 0. -1.
    5000001    1    1    2    0    0 -0.12469306570E+03  0.13555081864E+03 -0.17658376441E+03  0.32358184578E+03  0.19900000000E+03 0.  0.
   -5000001    1    1    2    0    0  0.12469306570E+03 -0.13555081864E+03 -0.28112321286E+03  0.39058116426E+03  0.19900000000E+03 0.  0.
<mgrwt>
<rscale>  0 0.54820902E+03</rscale>
<asrwt>0</asrwt>
<pdfrwt beam="1">  1        1 0.18318288E-01 0.54820902E+03</pdfrwt>
<pdfrwt beam="2">  1       -1 0.83704997E-01 0.54820902E+03</pdfrwt>
<totfact> 0.42308260E+02</totfact>
</mgrwt>
</event>
<event>
 4    1  0.6480558E-006  0.6883096E+03  0.7818608E-02  0.9737436E-01
         -1   -1    0    0    0  501 -0.00000000000E+00  0.00000000000E+00  0.59822770751E+02  0.59822770963E+02  0.50400000000E-02 0. -1.
          1   -1    0    0  501    0  0.00000000000E+00 -0.00000000000E+00 -0.19798901470E+04  0.19798901470E+04  0.50400000000E-02 0.  1.
    5000001    1    1    2    0    0  0.25752722820E+03 -0.10755137120E+03 -0.86850723013E+03  0.93369876272E+03  0.19900000000E+03 0.  0.
   -5000001    1    1    2    0    0 -0.25752722820E+03  0.10755137120E+03 -0.10515601461E+04  0.11060141553E+04  0.19900000000E+03 0.  0.
<mgrwt>
<rscale>  0 0.68830957E+03</rscale>
<asrwt>0</asrwt>
<pdfrwt beam="1">  1        1 0.28284141E+00 0.68830957E+03</pdfrwt>
<pdfrwt beam="2">  1       -1 0.85461114E-02 0.68830957E+03</pdfrwt>
<totfact> 0.31941922E+02</totfact>
</mgrwt>
</event>
<event>
 4    1  0.6480558E-006  0.7974057E+03  0.7818608E-02  0.9563780E-01
         -1   -1    0    0    0  501 -0.00000000000E+00  0.00000000000E+00  0.22662343158E+03  0.22662343163E+03  0.50400000000E-02 0. -1.
          1   -1    0    0  501    0  0.00000000000E+00 -0.00000000000E+00 -0.70144539315E+03  0.70144539317E+03  0.50400000000E-02 0.  1.
    5000001    1    1    2    0    0 -0.62949079552E+02 -0.21069454342E+03 -0.54754903286E+03  0.62270837527E+03  0.19900000000E+03 0.  0.
   -5000001    1    1    2    0    0  0.62949079552E+02  0.21069454342E+03  0.72727071284E+02  0.30536044954E+03  0.19900000000E+03 0.  0.
<mgrwt>
<rscale>  0 0.79740570E+03</rscale>
<asrwt>0</asrwt>
<pdfrwt beam="1">  1        1 0.10020648E+00 0.79740570E+03</pdfrwt>
<pdfrwt beam="2">  1       -1 0.32374776E-01 0.79740570E+03</pdfrwt>
<totfact> 0.27313973E+02</totfact>
</mgrwt>
</event>
<event>
 4    1  0.6480558E-006  0.6364701E+03  0.7818608E-02  0.9832504E-01
          1   -1    0    0  501    0  0.00000000000E+00  0.00000000000E+00  0.23704379093E+03  0.23704379098E+03  0.50400000000E-02 0.  1.
         -1   -1    0    0    0  501 -0.00000000000E+00 -0.00000000000E+00 -0.42723562441E+03  0.42723562444E+03  0.50400000000E-02 0. -1.
    5000001    1    1    2    0    0 -0.15904166604E+03 -0.17793489195E+03 -0.16678079797E+03  0.35266402124E+03  0.19900000000E+03 0.  0.
   -5000001    1    1    2    0    0  0.15904166604E+03  0.17793489195E+03 -0.23411035509E+02  0.31161539418E+03  0.19900000000E+03 0.  0.
<mgrwt>
<rscale>  0 0.63647012E+03</rscale>
<asrwt>0</asrwt>
<pdfrwt beam="1">  1        1 0.33863399E-01 0.63647012E+03</pdfrwt>
<pdfrwt beam="2">  1       -1 0.61033660E-01 0.63647012E+03</pdfrwt>
<totfact> 0.36184503E+02</totfact>
</mgrwt>
</event>
<event>
 4    1  0.6480558E-006  0.9428163E+03  0.7818608E-02  0.9373587E-01
          1   -1    0    0  501    0  0.00000000000E+00  0.00000000000E+00  0.99992696830E+03  0.99992696831E+03  0.50400000000E-02 0.  1.
         -1   -1    0    0    0  501 -0.00000000000E+00 -0.00000000000E+00 -0.22224186429E+03  0.22224186435E+03  0.50400000000E-02 0. -1.
    5000001    1    1    2    0    0  0.17716315158E+03  0.29757594522E+03  0.64285667994E+02  0.40456380531E+03  0.19900000000E+03 0.  0.
   -5000001    1    1    2    0    0 -0.17716315158E+03 -0.29757594522E+03  0.71339943601E+03  0.81760502735E+03  0.19900000000E+03 0.  0.
<mgrwt>
<rscale>  0 0.94281628E+03</rscale>
<asrwt>0</asrwt>
<pdfrwt beam="1">  1        1 0.14284671E+00 0.94281628E+03</pdfrwt>
<pdfrwt beam="2">  1       -1 0.31748838E-01 0.94281628E+03</pdfrwt>
<totfact> 0.15981319E+02</totfact>
</mgrwt>
</event>
<event>
 4    1  0.6480558E-006  0.4756923E+03  0.7818608E-02  0.1020326E+00
         -1   -1    0    0    0  501 -0.00000000000E+00  0.00000000000E+00  0.86596137288E+03  0.86596137289E+03  0.50400000000E-02 0. -1.
          1   -1    0    0  501    0  0.00000000000E+00 -0.00000000000E+00 -0.65327146188E+02  0.65327146382E+02  0.50400000000E-02 0.  1.
    5000001    1    1    2    0    0 -0.49423490706E+02 -0.47867060132E+02  0.61687559296E+03  0.65182086042E+03  0.19900000000E+03 0.  0.
   -5000001    1    1    2    0    0  0.49423490706E+02  0.47867060132E+02  0.18375863373E+03  0.27946765886E+03  0.19900000000E+03 0.  0.
<mgrwt>
<rscale>  0 0.47569228E+03</rscale>
<asrwt>0</asrwt>
<pdfrwt beam="1">  1        1 0.93324492E-02 0.47569228E+03</pdfrwt>
<pdfrwt beam="2">  1       -1 0.12370877E+00 0.47569228E+03</pdfrwt>
<totfact> 0.43191826E+02</totfact>
</mgrwt>
</event>
<event>
 4    1  0.6480558E-006  0.1054576E+04  0.7818608E-02  0.9250632E-01
         -1   -1    0    0    0  501 -0.00000000000E+00  0.00000000000E+00  0.20185309812E+03  0.20185309818E+03  0.50400000000E-02 0.  1.
          1   -1    0    0  501    0  0.00000000000E+00 -0.00000000000E+00 -0.13774006942E+04  0.13774006943E+04  0.50400000000E-02 0. -1.
    5000001    1    1    2    0    0 -0.39864542651E+03  0.73711257440E+02 -0.18018262321E+03  0.48622865327E+03  0.19900000000E+03 0.  0.
   -5000001    1    1    2    0    0  0.39864542651E+03 -0.73711257440E+02 -0.99536497292E+03  0.10930251392E+04  0.19900000000E+03 0.  0.
<mgrwt>
<rscale>  0 0.10545759E+04</rscale>
<asrwt>0</asrwt>
<pdfrwt beam="1">  1        1 0.19677152E+00 0.10545759E+04</pdfrwt>
<pdfrwt beam="2">  1       -1 0.28836157E-01 0.10545759E+04</pdfrwt>
<totfact> 0.10222087E+02</totfact>
</mgrwt>
</event>
<event>
 4    1  0.6480558E-006  0.6142958E+03  0.7818608E-02  0.9876183E-01
         -1   -1    0    0    0  501 -0.00000000000E+00  0.00000000000E+00  0.26168631700E+03  0.26168631705E+03  0.50400000000E-02 0. -1.
          1   -1    0    0  501    0  0.00000000000E+00 -0.00000000000E+00 -0.36050734755E+03  0.36050734759E+03  0.50400000000E-02 0.  1.
    5000001    1    1    2    0    0  0.17198173459E+01 -0.22978524098E+03 -0.93960386655E+02  0.31817254596E+03  0.19900000000E+03 0.  0.
   -5000001    1    1    2    0    0 -0.17198173459E+01  0.22978524098E+03 -0.48606438978E+01  0.30402111868E+03  0.19900000000E+03 0.  0.
<mgrwt>
<rscale>  0 0.61429582E+03</rscale>
<asrwt>0</asrwt>
<pdfrwt beam="1">  1        1 0.51501050E-01 0.61429582E+03</pdfrwt>
<pdfrwt beam="2">  1       -1 0.37383760E-01 0.61429582E+03</pdfrwt>
<totfact> 0.52825033E+02</totfact>
</mgrwt>
</event>
<event>
 4    1  0.6480558E-006  0.6089973E+03  0.7818608E-02  0.9886913E-01
          1   -1    0    0  501    0  0.00000000000E+00  0.00000000000E+00  0.12914289420E+04  0.12914289420E+04  0.50400000000E-02 0. -1.
         -1   -1    0    0    0  501 -0.00000000000E+00 -0.00000000000E+00 -0.71795992942E+02  0.71795993119E+02  0.50400000000E-02 0.  1.
    5000001    1    1    2    0    0  0.15500492656E+03 -0.12044185392E+03  0.88015948545E+03  0.92347955433E+03  0.19900000000E+03 0.  0.
   -5000001    1    1    2    0    0 -0.15500492656E+03  0.12044185392E+03  0.33947346358E+03  0.43974538077E+03  0.19900000000E+03 0.  0.
<mgrwt>
<rscale>  0 0.60899729E+03</rscale>
<asrwt>0</asrwt>
<pdfrwt beam="1">  1        1 0.18448984E+00 0.60899729E+03</pdfrwt>
<pdfrwt beam="2">  1       -1 0.10256571E-01 0.60899729E+03</pdfrwt>
<totfact> 0.65996022E+02</totfact>
</mgrwt>
</event>
<event>
 4    1  0.6480558E-006  0.7610959E+03  0.7818608E-02  0.9618102E-01
         -1   -1    0    0    0  501 -0.00000000000E+00  0.00000000000E+00  0.13080711249E+03  0.13080711259E+03  0.50400000000E-02 0.  1.
          1   -1    0    0  501    0  0.00000000000E+00 -0.00000000000E+00 -0.11071014691E+04  0.11071014691E+04  0.50400000000E-02 0. -1.
    5000001    1    1    2    0    0  0.28082953247E+03 -0.16231249716E+03 -0.48444771719E+03  0.61603665778E+03  0.19900000000E+03 0.  0.
   -5000001    1    1    2    0    0 -0.28082953247E+03  0.16231249716E+03 -0.49184663939E+03  0.62187192389E+03  0.19900000000E+03 0.  0.
<mgrwt>
<rscale>  0 0.76109591E+03</rscale>
<asrwt>0</asrwt>
<pdfrwt beam="1">  1        1 0.15815735E+00 0.76109591E+03</pdfrwt>
<pdfrwt beam="2">  1       -1 0.18686731E-01 0.76109591E+03</pdfrwt>
<totfact> 0.33290194E+02</totfact>
</mgrwt>
</event>
<event>
 4    1  0.6480558E-006  0.7210692E+03  0.7818608E-02  0.9681864E-01
         -1   -1    0    0    0  501 -0.00000000000E+00  0.00000000000E+00  0.61027380724E+02  0.61027380932E+02  0.50400000000E-02 0. -1.
          1   -1    0    0  501    0  0.00000000000E+00 -0.00000000000E+00 -0.21299486581E+04  0.21299486581E+04  0.50400000000E-02 0.  1.
    5000001    1    1    2    0    0  0.25262230342E+03 -0.15713845775E+03 -0.11659851363E+04  0.12196855583E+04  0.19900000000E+03 0.  0.
   -5000001    1    1    2    0    0 -0.25262230342E+03  0.15713845775E+03 -0.90293614111E+03  0.97129048076E+03  0.19900000000E+03 0.  0.
<mgrwt>
<rscale>  0 0.72106917E+03</rscale>
<asrwt>0</asrwt>
<pdfrwt beam="1">  1        1 0.30427833E+00 0.72106917E+03</pdfrwt>
<pdfrwt beam="2">  1       -1 0.87181986E-02 0.72106917E+03</pdfrwt>
<totfact> 0.24925533E+02</totfact>
</mgrwt>
</event>
<event>
 4    1  0.6480558E-006  0.4309488E+03  0.7818608E-02  0.1033561E+00
         -1   -1    0    0    0  501 -0.00000000000E+00  0.00000000000E+00  0.16645526492E+03  0.16645526499E+03  0.50400000000E-02 0. -1.
          1   -1    0    0  501    0  0.00000000000E+00 -0.00000000000E+00 -0.27892915960E+03  0.27892915965E+03  0.50400000000E-02 0.  1.
    5000001    1    1    2    0    0 -0.31073872896E+02  0.74623731682E+02 -0.73955932755E+02  0.22716682614E+03  0.19900000000E+03 0.  0.
   -5000001    1    1    2    0    0  0.31073872896E+02 -0.74623731682E+02 -0.38517961931E+02  0.21821759851E+03  0.19900000000E+03 0.  0.
<mgrwt>
<rscale>  0 0.43094885E+03</rscale>
<asrwt>0</asrwt>
<pdfrwt beam="1">  1        1 0.39847023E-01 0.43094885E+03</pdfrwt>
<pdfrwt beam="2">  1       -1 0.23779324E-01 0.43094885E+03</pdfrwt>
<totfact> 0.16082679E+03</totfact>
</mgrwt>
</event>
<event>
 4    1  0.6480558E-006  0.4675197E+03  0.7818608E-02  0.1022623E+00
          1   -1    0    0  501    0  0.00000000000E+00  0.00000000000E+00  0.91227777892E+03  0.91227777893E+03  0.50400000000E-02 0. -1.
         -1   -1    0    0    0  501 -0.00000000000E+00 -0.00000000000E+00 -0.59898050321E+02  0.59898050533E+02  0.50400000000E-02 0.  1.
    5000001    1    1    2    0    0  0.78373288130E+02 -0.62719591785E+02  0.57273518016E+03  0.61457522410E+03  0.19900000000E+03 0.  0.
   -5000001    1    1    2    0    0 -0.78373288130E+02  0.62719591785E+02  0.27964454843E+03  0.35760060536E+03  0.19900000000E+03 0.  0.
<mgrwt>
<rscale>  0 0.46751967E+03</rscale>
<asrwt>0</asrwt>
<pdfrwt beam="1">  1        1 0.13032540E+00 0.46751967E+03</pdfrwt>
<pdfrwt beam="2">  1       -1 0.85568643E-02 0.46751967E+03</pdfrwt>
<totfact> 0.16360442E+03</totfact>
</mgrwt>
</event>
<event>
 4    1  0.6480558E-006  0.1049391E+04  0.7818608E-02  0.9255973E-01
          1   -1    0    0  501    0  0.00000000000E+00  0.00000000000E+00  0.69362710405E+03  0.69362710407E+03  0.50400000000E-02 0.  1.
         -1   -1    0    0    0  501 -0.00000000000E+00 -0.00000000000E+00 -0.39690717698E+03  0.39690717701E+03  0.50400000000E-02 0. -1.
    5000001    1    1    2    0    0 -0.26889739815E+03  0.32238665062E+03 -0.10505646812E+03  0.47631588754E+03  0.19900000000E+03 0.  0.
   -5000001    1    1    2    0    0  0.26889739815E+03 -0.32238665062E+03  0.40177639520E+03  0.61421839354E+03  0.19900000000E+03 0.  0.
<mgrwt>
<rscale>  0 0.10493914E+04</rscale>
<asrwt>0</asrwt>
<pdfrwt beam="1">  1        1 0.99089585E-01 0.10493914E+04</pdfrwt>
<pdfrwt beam="2">  1       -1 0.56701026E-01 0.10493914E+04</pdfrwt>
<totfact> 0.97208839E+01</totfact>
</mgrwt>
</event>
<event>
 4    1  0.6480558E-006  0.5002418E+03  0.7818608E-02  0.1013716E+00
          1   -1    0    0  501    0  0.00000000000E+00  0.00000000000E+00  0.60053127543E+03  0.60053127545E+03  0.50400000000E-02 0. -1.
         -1   -1    0    0    0  501 -0.00000000000E+00 -0.00000000000E+00 -0.10417519917E+03  0.10417519929E+03  0.50400000000E-02 0.  1.
    5000001    1    1    2    0    0  0.10668608658E+03 -0.11800815042E+02  0.39884177580E+03  0.45847240094E+03  0.19900000000E+03 0.  0.
   -5000001    1    1    2    0    0 -0.10668608658E+03  0.11800815042E+02  0.97514300460E+02  0.24623407380E+03  0.19900000000E+03 0.  0.
<mgrwt>
<rscale>  0 0.50024180E+03</rscale>
<asrwt>0</asrwt>
<pdfrwt beam="1">  1        1 0.85790183E-01 0.50024180E+03</pdfrwt>
<pdfrwt beam="2">  1       -1 0.14882171E-01 0.50024180E+03</pdfrwt>
<totfact> 0.12701981E+03</totfact>
</mgrwt>
</event>
<event>
 4    1  0.6480558E-006  0.6405464E+03  0.7818608E-02  0.9824682E-01
          1   -1    0    0  501    0  0.00000000000E+00  0.00000000000E+00  0.24066342841E+03  0.24066342846E+03  0.50400000000E-02 0.  1.
         -1   -1    0    0    0  501 -0.00000000000E+00 -0.00000000000E+00 -0.42621728321E+03  0.42621728324E+03  0.50400000000E-02 0. -1.
    5000001    1    1    2    0    0 -0.19497536228E+03  0.10547069048E+03  0.29678657751E+02  0.29936813654E+03  0.19900000000E+03 0.  0.
   -5000001    1    1    2    0    0  0.19497536228E+03 -0.10547069048E+03 -0.21523251256E+03  0.36751257517E+03  0.19900000000E+03 0.  0.
<mgrwt>
<rscale>  0 0.64054637E+03</rscale>
<asrwt>0</asrwt>
<pdfrwt beam="1">  1        1 0.34380490E-01 0.64054637E+03</pdfrwt>
<pdfrwt beam="2">  1       -1 0.60888183E-01 0.64054637E+03</pdfrwt>
<totfact> 0.35646504E+02</totfact>
</mgrwt>
</event>
<event>
 4    1  0.6480558E-006  0.5363458E+03  0.7818608E-02  0.1004705E+00
         -1   -1    0    0    0  501 -0.00000000000E+00  0.00000000000E+00  0.26417924066E+03  0.26417924071E+03  0.50400000000E-02 0. -1.
          1   -1    0    0  501    0  0.00000000000E+00 -0.00000000000E+00 -0.27222689819E+03  0.27222689824E+03  0.50400000000E-02 0.  1.
    5000001    1    1    2    0    0  0.11231176037E+02  0.17764010822E+03  0.21149382165E+02  0.26782539784E+03  0.19900000000E+03 0.  0.
   -5000001    1    1    2    0    0 -0.11231176037E+02 -0.17764010822E+03 -0.29197039699E+02  0.26858074110E+03  0.19900000000E+03 0.  0.
<mgrwt>
<rscale>  0 0.53634577E+03</rscale>
<asrwt>0</asrwt>
<pdfrwt beam="1">  1        1 0.38889557E-01 0.53634577E+03</pdfrwt>
<pdfrwt beam="2">  1       -1 0.37739891E-01 0.53634577E+03</pdfrwt>
<totfact> 0.74686730E+02</totfact>
</mgrwt>
</event>
<event>
 4    1  0.6480558E-006  0.7168407E+03  0.7818608E-02  0.9688858E-01
          1   -1    0    0  501    0  0.00000000000E+00  0.00000000000E+00  0.10089613005E+04  0.10089613005E+04  0.50400000000E-02 0.  1.
         -1   -1    0    0    0  501 -0.00000000000E+00 -0.00000000000E+00 -0.12732414942E+03  0.12732414952E+03  0.50400000000E-02 0. -1.
    5000001    1    1    2    0    0  0.18724002286E+03 -0.22929582896E+03  0.38525449730E+03  0.52503088578E+03  0.19900000000E+03 0.  0.
   -5000001    1    1    2    0    0 -0.18724002286E+03  0.22929582896E+03  0.49638265379E+03  0.61125456425E+03  0.19900000000E+03 0.  0.
<mgrwt>
<rscale>  0 0.71684068E+03</rscale>
<asrwt>0</asrwt>
<pdfrwt beam="1">  1        1 0.14413733E+00 0.71684068E+03</pdfrwt>
<pdfrwt beam="2">  1       -1 0.18189164E-01 0.71684068E+03</pdfrwt>
<totfact> 0.41098162E+02</totfact>
</mgrwt>
</event>
<event>
 4    1  0.6480558E-006  0.5258095E+03  0.7818608E-02  0.1007253E+00
          1   -1    0    0  501    0  0.00000000000E+00  0.00000000000E+00  0.45228799972E+03  0.45228799974E+03  0.50400000000E-02 0.  1.
         -1   -1    0    0    0  501 -0.00000000000E+00 -0.00000000000E+00 -0.15282054436E+03  0.15282054445E+03  0.50400000000E-02 0. -1.
    5000001    1    1    2    0    0 -0.36618137574E+02  0.13695925075E+03  0.26142295732E+03  0.35782913098E+03  0.19900000000E+03 0.  0.
   -5000001    1    1    2    0    0  0.36618137574E+02 -0.13695925075E+03  0.38044498034E+02  0.24727941321E+03  0.19900000000E+03 0.  0.
<mgrwt>
<rscale>  0 0.52580946E+03</rscale>
<asrwt>0</asrwt>
<pdfrwt beam="1">  1        1 0.64612573E-01 0.52580946E+03</pdfrwt>
<pdfrwt beam="2">  1       -1 0.21831506E-01 0.52580946E+03</pdfrwt>
<totfact> 0.99458236E+02</totfact>
</mgrwt>
</event>
<event>
 4    1  0.6480558E-006  0.5463505E+03  0.7818608E-02  0.1002342E+00
          1   -1    0    0  501    0  0.00000000000E+00  0.00000000000E+00  0.32249864785E+04  0.32249864785E+04  0.50400000000E-02 0. -1.
         -1   -1    0    0    0  501 -0.00000000000E+00 -0.00000000000E+00 -0.23139545205E+02  0.23139545754E+02  0.50400000000E-02 0.  1.
    5000001    1    1    2    0    0 -0.10489993118E+03  0.10017678597E+03  0.89787954217E+03  0.93103601233E+03  0.19900000000E+03 0.  0.
   -5000001    1    1    2    0    0  0.10489993118E+03 -0.10017678597E+03  0.23039673911E+04  0.23170900119E+04  0.19900000000E+03 0.  0.
<mgrwt>
<rscale>  0 0.54635051E+03</rscale>
<asrwt>0</asrwt>
<pdfrwt beam="1">  1        1 0.46071257E+00 0.54635051E+03</pdfrwt>
<pdfrwt beam="2">  1       -1 0.33056478E-02 0.54635051E+03</pdfrwt>
<totfact> 0.22759915E+02</totfact>
</mgrwt>
</event>
<event>
 4    1  0.6480558E-006  0.6807390E+03  0.7818608E-02  0.9750750E-01
         -1   -1    0    0    0  501 -0.00000000000E+00  0.00000000000E+00  0.20139532298E+03  0.20139532304E+03  0.50400000000E-02 0. -1.
          1   -1    0    0  501    0  0.00000000000E+00 -0.00000000000E+00 -0.57524366045E+03  0.57524366048E+03  0.50400000000E-02 0.  1.
    5000001    1    1    2    0    0 -0.20933259891E+03 -0.38141322018E+02 -0.38771673947E+03  0.48497439879E+03  0.19900000000E+03 0.  0.
   -5000001    1    1    2    0    0  0.20933259891E+03  0.38141322018E+02  0.13868401993E+02  0.29166458473E+03  0.19900000000E+03 0.  0.
<mgrwt>
<rscale>  0 0.68073896E+03</rscale>
<asrwt>0</asrwt>
<pdfrwt beam="1">  1        1 0.82177665E-01 0.68073896E+03</pdfrwt>
<pdfrwt beam="2">  1       -1 0.28770761E-01 0.68073896E+03</pdfrwt>
<totfact> 0.44797255E+02</totfact>
</mgrwt>
</event>
<event>
 4    1  0.6480558E-006  0.6520163E+03  0.7818608E-02  0.9803003E-01
          1   -1    0    0  501    0  0.00000000000E+00  0.00000000000E+00  0.17426507350E+04  0.17426507351E+04  0.50400000000E-02 0. -1.
         -1   -1    0    0    0  501 -0.00000000000E+00 -0.00000000000E+00 -0.60988305949E+02  0.60988306157E+02  0.50400000000E-02 0.  1.
    5000001    1    1    2    0    0 -0.13628526901E+03  0.16163457693E+03  0.12509540560E+04  0.12842065493E+04  0.19900000000E+03 0.  0.
   -5000001    1    1    2    0    0  0.13628526901E+03 -0.16163457693E+03  0.43070837308E+03  0.51943249191E+03  0.19900000000E+03 0.  0.
<mgrwt>
<rscale>  0 0.65201631E+03</rscale>
<asrwt>0</asrwt>
<pdfrwt beam="1">  1        1 0.24895012E+00 0.65201631E+03</pdfrwt>
<pdfrwt beam="2">  1       -1 0.87126146E-02 0.65201631E+03</pdfrwt>
<totfact> 0.43650335E+02</totfact>
</mgrwt>
</event>
<event>
 4    1  0.6480558E-006  0.4993540E+03  0.7818608E-02  0.1013948E+00
          1   -1    0    0  501    0  0.00000000000E+00  0.00000000000E+00  0.32559561148E+04  0.32559561148E+04  0.50400000000E-02 0.  1.
         -1   -1    0    0    0  501 -0.00000000000E+00 -0.00000000000E+00 -0.19146023057E+02  0.19146023720E+02  0.50400000000E-02 0. -1.
    5000001    1    1    2    0    0  0.80990944525E+02 -0.69798608280E+02  0.23157943093E+04  0.23267865527E+04  0.19900000000E+03 0.  0.
   -5000001    1    1    2    0    0 -0.80990944525E+02  0.69798608280E+02  0.92101578235E+03  0.94831558574E+03  0.19900000000E+03 0.  0.
<mgrwt>
<rscale>  0 0.49935403E+03</rscale>
<asrwt>0</asrwt>
<pdfrwt beam="1">  1        1 0.46513671E+00 0.49935403E+03</pdfrwt>
<pdfrwt beam="2">  1       -1 0.27351455E-02 0.49935403E+03</pdfrwt>
<totfact> 0.29021230E+02</totfact>
</mgrwt>
</event>
<event>
 4    1  0.6480558E-006  0.4849376E+03  0.7818608E-02  0.1017787E+00
          1   -1    0    0  501    0  0.00000000000E+00  0.00000000000E+00  0.73808828726E+03  0.73808828728E+03  0.50400000000E-02 0.  1.
         -1   -1    0    0    0  501 -0.00000000000E+00 -0.00000000000E+00 -0.79653236298E+02  0.79653236457E+02  0.50400000000E-02 0. -1.
    5000001    1    1    2    0    0  0.55718514007E+02  0.12518700961E+03  0.29491585479E+03  0.38125149388E+03  0.19900000000E+03 0.  0.
   -5000001    1    1    2    0    0 -0.55718514007E+02 -0.12518700961E+03  0.36351919617E+03  0.43649002985E+03  0.19900000000E+03 0.  0.
<mgrwt>
<rscale>  0 0.48493761E+03</rscale>
<asrwt>0</asrwt>
<pdfrwt beam="1">  1        1 0.10544119E+00 0.48493761E+03</pdfrwt>
<pdfrwt beam="2">  1       -1 0.11379034E-01 0.48493761E+03</pdfrwt>
<totfact> 0.14505523E+03</totfact>
</mgrwt>
</event>
<event>
 4    1  0.6480558E-006  0.4765793E+03  0.7818608E-02  0.1020080E+00
          1   -1    0    0  501    0  0.00000000000E+00  0.00000000000E+00  0.15183109242E+03  0.15183109250E+03  0.50400000000E-02 0.  1.
         -1   -1    0    0    0  501 -0.00000000000E+00 -0.00000000000E+00 -0.37398112155E+03  0.37398112158E+03  0.50400000000E-02 0. -1.
    5000001    1    1    2    0    0  0.55522570535E+02  0.10909030585E+03 -0.59354711247E+02  0.24105483280E+03  0.19900000000E+03 0.  0.
   -5000001    1    1    2    0    0 -0.55522570535E+02 -0.10909030585E+03 -0.16279531788E+03  0.28475738128E+03  0.19900000000E+03 0.  0.
<mgrwt>
<rscale>  0 0.47657932E+03</rscale>
<asrwt>0</asrwt>
<pdfrwt beam="1">  1        1 0.21690156E-01 0.47657932E+03</pdfrwt>
<pdfrwt beam="2">  1       -1 0.53425874E-01 0.47657932E+03</pdfrwt>
<totfact> 0.83675769E+02</totfact>
</mgrwt>
</event>
<event>
 4    1  0.6480558E-006  0.4844307E+03  0.7818608E-02  0.1017925E+00
         -1   -1    0    0    0  501 -0.00000000000E+00  0.00000000000E+00  0.11821601043E+03  0.11821601054E+03  0.50400000000E-02 0. -1.
          1   -1    0    0  501    0  0.00000000000E+00 -0.00000000000E+00 -0.49628034597E+03  0.49628034600E+03  0.50400000000E-02 0.  1.
    5000001    1    1    2    0    0 -0.90287217758E+02 -0.20165523842E+02 -0.31906866973E+03  0.38725217372E+03  0.19900000000E+03 0.  0.
   -5000001    1    1    2    0    0  0.90287217758E+02  0.20165523842E+02 -0.58995665807E+02  0.22724418282E+03  0.19900000000E+03 0.  0.
<mgrwt>
<rscale>  0 0.48443073E+03</rscale>
<asrwt>0</asrwt>
<pdfrwt beam="1">  1        1 0.70897191E-01 0.48443073E+03</pdfrwt>
<pdfrwt beam="2">  1       -1 0.16888002E-01 0.48443073E+03</pdfrwt>
<totfact> 0.13421575E+03</totfact>
</mgrwt>
</event>
<event>
 4    1  0.6480558E-006  0.8411763E+03  0.7818608E-02  0.9502257E-01
          1   -1    0    0  501    0  0.00000000000E+00  0.00000000000E+00  0.42333581509E+03  0.42333581512E+03  0.50400000000E-02 0.  1.
         -1   -1    0    0    0  501 -0.00000000000E+00 -0.00000000000E+00 -0.41785834123E+03  0.41785834126E+03  0.50400000000E-02 0. -1.
    5000001    1    1    2    0    0 -0.36314311536E+03 -0.71381407918E+00  0.76360741485E+02  0.42107647121E+03  0.19900000000E+03 0.  0.
   -5000001    1    1    2    0    0  0.36314311536E+03  0.71381407918E+00 -0.70883267630E+02  0.42011768517E+03  0.19900000000E+03 0.  0.
<mgrwt>
<rscale>  0 0.84117632E+03</rscale>
<asrwt>0</asrwt>
<pdfrwt beam="1">  1        1 0.60476545E-01 0.84117632E+03</pdfrwt>
<pdfrwt beam="2">  1       -1 0.59694049E-01 0.84117632E+03</pdfrwt>
<totfact> 0.17643641E+02</totfact>
</mgrwt>
</event>
<event>
 4    1  0.6480558E-006  0.4327244E+03  0.7818608E-02  0.1033003E+00
         -1   -1    0    0    0  501 -0.00000000000E+00  0.00000000000E+00  0.43497353784E+02  0.43497354076E+02  0.50400000000E-02 0.  1.
          1   -1    0    0  501    0  0.00000000000E+00 -0.00000000000E+00 -0.10762172942E+04  0.10762172943E+04  0.50400000000E-02 0. -1.
    5000001    1    1    2    0    0  0.23510417112E+02 -0.73928786847E+02 -0.42696998693E+03  0.47741237414E+03  0.19900000000E+03 0.  0.
   -5000001    1    1    2    0    0 -0.23510417112E+02  0.73928786847E+02 -0.60574995352E+03  0.64230227419E+03  0.19900000000E+03 0.  0.
<mgrwt>
<rscale>  0 0.43272441E+03</rscale>
<asrwt>0</asrwt>
<pdfrwt beam="1">  1        1 0.15374531E+00 0.43272441E+03</pdfrwt>
<pdfrwt beam="2">  1       -1 0.62139084E-02 0.43272441E+03</pdfrwt>
<totfact> 0.20308416E+03</totfact>
</mgrwt>
</event>
<event>
 4    1  0.6480558E-006  0.4821056E+03  0.7818608E-02  0.1018558E+00
         -1   -1    0    0    0  501 -0.00000000000E+00  0.00000000000E+00  0.17048560990E+03  0.17048560997E+03  0.50400000000E-02 0. -1.
          1   -1    0    0  501    0  0.00000000000E+00 -0.00000000000E+00 -0.34082908951E+03  0.34082908954E+03  0.50400000000E-02 0.  1.
    5000001    1    1    2    0    0  0.25298416724E+02  0.13359664398E+03 -0.80749965179E+02  0.25418424430E+03  0.19900000000E+03 0.  0.
   -5000001    1    1    2    0    0 -0.25298416724E+02 -0.13359664398E+03 -0.89593514433E+02  0.25713045522E+03  0.19900000000E+03 0.  0.
<mgrwt>
<rscale>  0 0.48210561E+03</rscale>
<asrwt>0</asrwt>
<pdfrwt beam="1">  1        1 0.48689870E-01 0.48210561E+03</pdfrwt>
<pdfrwt beam="2">  1       -1 0.24355087E-01 0.48210561E+03</pdfrwt>
<totfact> 0.11963620E+03</totfact>
</mgrwt>
</event>
<event>
 4    1  0.6480558E-006  0.8218922E+03  0.7818608E-02  0.9528859E-01
         -1   -1    0    0    0  501 -0.00000000000E+00  0.00000000000E+00  0.52369395051E+03  0.52369395053E+03  0.50400000000E-02 0. -1.
          1   -1    0    0  501    0  0.00000000000E+00 -0.00000000000E+00 -0.32247209407E+03  0.32247209411E+03  0.50400000000E-02 0.  1.
    5000001    1    1    2    0    0 -0.10105540028E+03  0.34305963934E+03  0.13876728601E+03  0.43215676523E+03  0.19900000000E+03 0.  0.
   -5000001    1    1    2    0    0  0.10105540028E+03 -0.34305963934E+03  0.62454570433E+02  0.41400927941E+03  0.19900000000E+03 0.  0.
<mgrwt>
<rscale>  0 0.82189217E+03</rscale>
<asrwt>0</asrwt>
<pdfrwt beam="1">  1        1 0.46067442E-01 0.82189217E+03</pdfrwt>
<pdfrwt beam="2">  1       -1 0.74813421E-01 0.82189217E+03</pdfrwt>
<totfact> 0.15966292E+02</totfact>
</mgrwt>
</event>
<event>
 4    1  0.6480558E-006  0.4663567E+03  0.7818608E-02  0.1022954E+00
         -1   -1    0    0    0  501 -0.00000000000E+00  0.00000000000E+00  0.41459844350E+03  0.41459844353E+03  0.50400000000E-02 0. -1.
          1   -1    0    0  501    0  0.00000000000E+00 -0.00000000000E+00 -0.13114413193E+03  0.13114413202E+03  0.50400000000E-02 0.  1.
    5000001    1    1    2    0    0  0.74299523629E+02  0.96177491078E+02  0.14080274816E+03  0.27239115788E+03  0.19900000000E+03 0.  0.
   -5000001    1    1    2    0    0 -0.74299523629E+02 -0.96177491078E+02  0.14265156342E+03  0.27335141768E+03  0.19900000000E+03 0.  0.
<mgrwt>
<rscale>  0 0.46635674E+03</rscale>
<asrwt>0</asrwt>
<pdfrwt beam="1">  1        1 0.18734876E-01 0.46635674E+03</pdfrwt>
<pdfrwt beam="2">  1       -1 0.59228351E-01 0.46635674E+03</pdfrwt>
<totfact> 0.83153946E+02</totfact>
</mgrwt>
</event>
<event>
 4    1  0.6480558E-006  0.8548787E+03  0.7818608E-02  0.9483812E-01
          1   -1    0    0  501    0  0.00000000000E+00  0.00000000000E+00  0.75731253418E+03  0.75731253420E+03  0.50400000000E-02 0.  1.
         -1   -1    0    0    0  501 -0.00000000000E+00 -0.00000000000E+00 -0.24125363639E+03  0.24125363644E+03  0.50400000000E-02 0. -1.
    5000001    1    1    2    0    0  0.22361202968E+03 -0.28693495376E+03  0.37924769772E+03  0.56192866427E+03  0.19900000000E+03 0.  0.
   -5000001    1    1    2    0    0 -0.22361202968E+03  0.28693495376E+03  0.13681120008E+03  0.43663750637E+03  0.19900000000E+03 0.  0.
<mgrwt>
<rscale>  0 0.85487871E+03</rscale>
<asrwt>0</asrwt>
<pdfrwt beam="1">  1        1 0.10818751E+00 0.85487871E+03</pdfrwt>
<pdfrwt beam="2">  1       -1 0.34464805E-01 0.85487871E+03</pdfrwt>
<totfact> 0.21737895E+02</totfact>
</mgrwt>
</event>
<event>
 4    1  0.6480558E-006  0.7912531E+03  0.7818608E-02  0.9572765E-01
         -1   -1    0    0    0  501 -0.00000000000E+00  0.00000000000E+00  0.14256029718E+03  0.14256029727E+03  0.50400000000E-02 0.  1.
          1   -1    0    0  501    0  0.00000000000E+00 -0.00000000000E+00 -0.10979238769E+04  0.10979238769E+04  0.50400000000E-02 0. -1.
    5000001    1    1    2    0    0 -0.29496111177E+03  0.15797761114E+03 -0.36726556161E+03  0.53520461118E+03  0.19900000000E+03 0.  0.
   -5000001    1    1    2    0    0  0.29496111177E+03 -0.15797761114E+03 -0.58809801808E+03  0.70527956297E+03  0.19900000000E+03 0.  0.
<mgrwt>
<rscale>  0 0.79125307E+03</rscale>
<asrwt>0</asrwt>
<pdfrwt beam="1">  1        1 0.15684626E+00 0.79125307E+03</pdfrwt>
<pdfrwt beam="2">  1       -1 0.20365757E-01 0.79125307E+03</pdfrwt>
<totfact> 0.29242549E+02</totfact>
</mgrwt>
</event>
<event>
 4    1  0.6480558E-006  0.7755187E+03  0.7818608E-02  0.9596145E-01
          1   -1    0    0  501    0  0.00000000000E+00  0.00000000000E+00  0.65438454341E+03  0.65438454343E+03  0.50400000000E-02 0.  1.
         -1   -1    0    0    0  501 -0.00000000000E+00 -0.00000000000E+00 -0.22976903913E+03  0.22976903919E+03  0.50400000000E-02 0. -1.
    5000001    1    1    2    0    0 -0.14401442975E+03  0.17245584209E+03 -0.67593304832E+02  0.30765407246E+03  0.19900000000E+03 0.  0.
   -5000001    1    1    2    0    0  0.14401442975E+03 -0.17245584209E+03  0.49220880911E+03  0.57649951015E+03  0.19900000000E+03 0.  0.
<mgrwt>
<rscale>  0 0.77551869E+03</rscale>
<asrwt>0</asrwt>
<pdfrwt beam="1">  1        1 0.93483509E-01 0.77551869E+03</pdfrwt>
<pdfrwt beam="2">  1       -1 0.32824148E-01 0.77551869E+03</pdfrwt>
<totfact> 0.29531434E+02</totfact>
</mgrwt>
</event>
<event>
 4    1  0.6480558E-006  0.9138270E+03  0.7818608E-02  0.9408460E-01
          1   -1    0    0  501    0  0.00000000000E+00  0.00000000000E+00  0.81794053593E+03  0.81794053595E+03  0.50400000000E-02 0.  1.
         -1   -1    0    0    0  501 -0.00000000000E+00 -0.00000000000E+00 -0.25523853238E+03  0.25523853243E+03  0.50400000000E-02 0. -1.
    5000001    1    1    2    0    0  0.46072921033E+02 -0.39317639498E+03  0.41243267273E+03  0.60531983377E+03  0.19900000000E+03 0.  0.
   -5000001    1    1    2    0    0 -0.46072921033E+02  0.39317639498E+03  0.15026933082E+03  0.46785923461E+03  0.19900000000E+03 0.  0.
<mgrwt>
<rscale>  0 0.91382699E+03</rscale>
<asrwt>0</asrwt>
<pdfrwt beam="1">  1        1 0.11684865E+00 0.91382699E+03</pdfrwt>
<pdfrwt beam="2">  1       -1 0.36462648E-01 0.91382699E+03</pdfrwt>
<totfact> 0.17399690E+02</totfact>
</mgrwt>
</event>
<event>
 4    1  0.6480558E-006  0.6964450E+03  0.7818608E-02  0.9723331E-01
          1   -1    0    0  501    0  0.00000000000E+00  0.00000000000E+00  0.14046385456E+03  0.14046385465E+03  0.50400000000E-02 0.  1.
         -1   -1    0    0    0  501 -0.00000000000E+00 -0.00000000000E+00 -0.86327478291E+03  0.86327478292E+03  0.50400000000E-02 0. -1.
    5000001    1    1    2    0    0 -0.80484621006E+02 -0.21136248145E+03 -0.61313065582E+03  0.68314132791E+03  0.19900000000E+03 0.  0.
   -5000001    1    1    2    0    0  0.80484621006E+02  0.21136248145E+03 -0.10968027253E+03  0.32059730967E+03  0.19900000000E+03 0.  0.
<mgrwt>
<rscale>  0 0.69644498E+03</rscale>
<asrwt>0</asrwt>
<pdfrwt beam="1">  1        1 0.20066266E-01 0.69644498E+03</pdfrwt>
<pdfrwt beam="2">  1       -1 0.12332497E+00 0.69644498E+03</pdfrwt>
<totfact> 0.15363341E+02</totfact>
</mgrwt>
</event>
<event>
 4    1  0.6480558E-006  0.9936983E+03  0.7818608E-02  0.9315484E-01
         -1   -1    0    0    0  501 -0.00000000000E+00  0.00000000000E+00  0.25560987961E+03  0.25560987966E+03  0.50400000000E-02 0.  1.
          1   -1    0    0  501    0  0.00000000000E+00 -0.00000000000E+00 -0.96576500408E+03  0.96576500409E+03  0.50400000000E-02 0. -1.
    5000001    1    1    2    0    0 -0.29203525271E+03 -0.33422742279E+03 -0.47961068053E+03  0.68309586725E+03  0.19900000000E+03 0.  0.
   -5000001    1    1    2    0    0  0.29203525271E+03  0.33422742279E+03 -0.23054444394E+03  0.53827901650E+03  0.19900000000E+03 0.  0.
<mgrwt>
<rscale>  0 0.99369830E+03</rscale>
<asrwt>0</asrwt>
<pdfrwt beam="1">  1        1 0.13796643E+00 0.99369830E+03</pdfrwt>
<pdfrwt beam="2">  1       -1 0.36515698E-01 0.99369830E+03</pdfrwt>
<totfact> 0.13181834E+02</totfact>
</mgrwt>
</event>
<event>
 4    1  0.6480558E-006  0.1343268E+04  0.7818608E-02  0.8995940E-01
          1   -1    0    0  501    0  0.00000000000E+00  0.00000000000E+00  0.10091284877E+04  0.10091284877E+04  0.50400000000E-02 0.  1.
         -1   -1    0    0    0  501 -0.00000000000E+00 -0.00000000000E+00 -0.44701153738E+03  0.44701153741E+03  0.50400000000E-02 0. -1.
    5000001    1    1    2    0    0  0.62282413563E+03  0.13069691936E+03  0.36845217382E+03  0.76180679509E+03  0.19900000000E+03 0.  0.
   -5000001    1    1    2    0    0 -0.62282413563E+03 -0.13069691936E+03  0.19366477648E+03  0.69433323001E+03  0.19900000000E+03 0.  0.
<mgrwt>
<rscale>  0 0.13432678E+04</rscale>
<asrwt>0</asrwt>
<pdfrwt beam="1">  1        1 0.14416121E+00 0.13432678E+04</pdfrwt>
<pdfrwt beam="2">  1       -1 0.63858791E-01 0.13432678E+04</pdfrwt>
<totfact> 0.41421292E+01</totfact>
</mgrwt>
</event>
<event>
 4    1  0.6480558E-006  0.7457415E+03  0.7818608E-02  0.9642055E-01
          1   -1    0    0  501    0  0.00000000000E+00  0.00000000000E+00  0.15103897952E+04  0.15103897952E+04  0.50400000000E-02 0.  1.
         -1   -1    0    0    0  501 -0.00000000000E+00 -0.00000000000E+00 -0.92050814429E+02  0.92050814567E+02  0.50400000000E-02 0. -1.
    5000001    1    1    2    0    0  0.60465853862E+02  0.30873115334E+03  0.66305475624E+03  0.76040361276E+03  0.19900000000E+03 0.  0.
   -5000001    1    1    2    0    0 -0.60465853862E+02 -0.30873115334E+03  0.75528422456E+03  0.84203699704E+03  0.19900000000E+03 0.  0.
<mgrwt>
<rscale>  0 0.74574154E+03</rscale>
<asrwt>0</asrwt>
<pdfrwt beam="1">  1        1 0.21576997E+00 0.74574154E+03</pdfrwt>
<pdfrwt beam="2">  1       -1 0.13150116E-01 0.74574154E+03</pdfrwt>
<totfact> 0.31670729E+02</totfact>
</mgrwt>
</event>
<event>
 4    1  0.6480558E-006  0.6887195E+03  0.7818608E-02  0.9736720E-01
          1   -1    0    0  501    0  0.00000000000E+00  0.00000000000E+00  0.59230079296E+03  0.59230079298E+03  0.50400000000E-02 0.  1.
         -1   -1    0    0    0  501 -0.00000000000E+00 -0.00000000000E+00 -0.20020846824E+03  0.20020846830E+03  0.50400000000E-02 0. -1.
    5000001    1    1    2    0    0 -0.10331532696E+02  0.27515083357E+03  0.26081238634E+03  0.42829758656E+03  0.19900000000E+03 0.  0.
   -5000001    1    1    2    0    0  0.10331532696E+02 -0.27515083357E+03  0.13127993839E+03  0.36421167473E+03  0.19900000000E+03 0.  0.
<mgrwt>
<rscale>  0 0.68871949E+03</rscale>
<asrwt>0</asrwt>
<pdfrwt beam="1">  1        1 0.84614398E-01 0.68871949E+03</pdfrwt>
<pdfrwt beam="2">  1       -1 0.28601210E-01 0.68871949E+03</pdfrwt>
<totfact> 0.43436385E+02</totfact>
</mgrwt>
</event>
<event>
 4    1  0.6480558E-006  0.6601370E+03  0.7818608E-02  0.9787942E-01
          1   -1    0    0  501    0  0.00000000000E+00  0.00000000000E+00  0.13595169271E+04  0.13595169271E+04  0.50400000000E-02 0.  1.
         -1   -1    0    0    0  501 -0.00000000000E+00 -0.00000000000E+00 -0.80135235281E+02  0.80135235440E+02  0.50400000000E-02 0. -1.
    5000001    1    1    2    0    0 -0.69072872347E+02 -0.12129782584E+03  0.15272379096E+03  0.28707103750E+03  0.19900000000E+03 0.  0.
   -5000001    1    1    2    0    0  0.69072872347E+02  0.12129782584E+03  0.11266579009E+04  0.11525811251E+04  0.19900000000E+03 0.  0.
<mgrwt>
<rscale>  0 0.66013698E+03</rscale>
<asrwt>0</asrwt>
<pdfrwt beam="1">  1        1 0.19421671E+00 0.66013698E+03</pdfrwt>
<pdfrwt beam="2">  1       -1 0.11447890E-01 0.66013698E+03</pdfrwt>
<totfact> 0.49832132E+02</totfact>
</mgrwt>
</event>
<event>
 4    1  0.6480558E-006  0.4781973E+03  0.7818608E-02  0.1019632E+00
         -1   -1    0    0    0  501 -0.00000000000E+00  0.00000000000E+00  0.21435554923E+02  0.21435555516E+02  0.50400000000E-02 0. -1.
          1   -1    0    0  501    0  0.00000000000E+00 -0.00000000000E+00 -0.26669779603E+04  0.26669779603E+04  0.50400000000E-02 0.  1.
    5000001    1    1    2    0    0  0.12942056307E+03 -0.27525328432E+02 -0.12792862083E+04  0.13014152023E+04  0.19900000000E+03 0.  0.
   -5000001    1    1    2    0    0 -0.12942056307E+03  0.27525328432E+02 -0.13662561971E+04  0.13869983136E+04  0.19900000000E+03 0.  0.
<mgrwt>
<rscale>  0 0.47819725E+03</rscale>
<asrwt>0</asrwt>
<pdfrwt beam="1">  1        1 0.38099664E+00 0.47819725E+03</pdfrwt>
<pdfrwt beam="2">  1       -1 0.30622239E-02 0.47819725E+03</pdfrwt>
<totfact> 0.58674123E+02</totfact>
</mgrwt>
</event>
<event>
 4    1  0.6480558E-006  0.6927790E+03  0.7818608E-02  0.9729661E-01
          1   -1    0    0  501    0  0.00000000000E+00  0.00000000000E+00  0.18891703913E+04  0.18891703914E+04  0.50400000000E-02 0.  1.
         -1   -1    0    0    0  501 -0.00000000000E+00 -0.00000000000E+00 -0.63512377207E+02  0.63512377407E+02  0.50400000000E-02 0. -1.
    5000001    1    1    2    0    0 -0.23577970220E+03  0.15636837193E+03  0.86073654357E+03  0.92763760874E+03  0.19900000000E+03 0.  0.
   -5000001    1    1    2    0    0  0.23577970220E+03 -0.15636837193E+03  0.96492147057E+03  0.10250451600E+04  0.19900000000E+03 0.  0.
<mgrwt>
<rscale>  0 0.69277905E+03</rscale>
<asrwt>0</asrwt>
<pdfrwt beam="1">  1        1 0.26988153E+00 0.69277905E+03</pdfrwt>
<pdfrwt beam="2">  1       -1 0.90731954E-02 0.69277905E+03</pdfrwt>
<totfact> 0.33091170E+02</totfact>
</mgrwt>
</event>
<event>
 4    1  0.6480558E-006  0.7301578E+03  0.7818608E-02  0.9667004E-01
         -1   -1    0    0    0  501 -0.00000000000E+00  0.00000000000E+00  0.24046060368E+03  0.24046060373E+03  0.50400000000E-02 0. -1.
          1   -1    0    0  501    0  0.00000000000E+00 -0.00000000000E+00 -0.55428047868E+03  0.55428047870E+03  0.50400000000E-02 0.  1.
    5000001    1    1    2    0    0  0.24226700080E+03  0.51938622482E+02 -0.35250037965E+03  0.47460345325E+03  0.19900000000E+03 0.  0.
   -5000001    1    1    2    0    0 -0.24226700080E+03 -0.51938622482E+02  0.38680504651E+02  0.32013762919E+03  0.19900000000E+03 0.  0.
<mgrwt>
<rscale>  0 0.73015784E+03</rscale>
<asrwt>0</asrwt>
<pdfrwt beam="1">  1        1 0.79182925E-01 0.73015784E+03</pdfrwt>
<pdfrwt beam="2">  1       -1 0.34351515E-01 0.73015784E+03</pdfrwt>
<totfact> 0.34507310E+02</totfact>
</mgrwt>
</event>
<event>
 4    1  0.6480558E-006  0.5370886E+03  0.7818608E-02  0.1004527E+00
         -1   -1    0    0    0  501 -0.00000000000E+00  0.00000000000E+00  0.23331963442E+03  0.23331963447E+03  0.50400000000E-02 0. -1.
          1   -1    0    0  501    0  0.00000000000E+00 -0.00000000000E+00 -0.30908692429E+03  0.30908692433E+03  0.50400000000E-02 0.  1.
    5000001    1    1    2    0    0  0.12823742023E+03  0.59273701100E+02 -0.15105047929E+03  0.28701124522E+03  0.19900000000E+03 0.  0.
   -5000001    1    1    2    0    0 -0.12823742023E+03 -0.59273701100E+02  0.75283189419E+02  0.25539531358E+03  0.19900000000E+03 0.  0.
<mgrwt>
<rscale>  0 0.53708863E+03</rscale>
<asrwt>0</asrwt>
<pdfrwt beam="1">  1        1 0.44155275E-01 0.53708863E+03</pdfrwt>
<pdfrwt beam="2">  1       -1 0.33331376E-01 0.53708863E+03</pdfrwt>
<totfact> 0.79084331E+02</totfact>
</mgrwt>
</event>
<event>
 4    1  0.6480558E-006  0.5970660E+03  0.7818608E-02  0.9911512E-01
          1   -1    0    0  501    0  0.00000000000E+00  0.00000000000E+00  0.82931741334E+03  0.82931741336E+03  0.50400000000E-02 0.  1.
         -1   -1    0    0    0  501 -0.00000000000E+00 -0.00000000000E+00 -0.10746421240E+03  0.10746421252E+03  0.50400000000E-02 0. -1.
    5000001    1    1    2    0    0  0.11891044412E+03 -0.59429766033E+02  0.80921240114E+02  0.25262786448E+03  0.19900000000E+03 0.  0.
   -5000001    1    1    2    0    0 -0.11891044412E+03  0.59429766033E+02  0.64093196083E+03  0.68415376139E+03  0.19900000000E+03 0.  0.
<mgrwt>
<rscale>  0 0.59706597E+03</rscale>
<asrwt>0</asrwt>
<pdfrwt beam="1">  1        1 0.11847392E+00 0.59706597E+03</pdfrwt>
<pdfrwt beam="2">  1       -1 0.15352030E-01 0.59706597E+03</pdfrwt>
<totfact> 0.75083077E+02</totfact>
</mgrwt>
</event>
<event>
 4    1  0.6480558E-006  0.4831732E+03  0.7818608E-02  0.1018267E+00
         -1   -1    0    0    0  501 -0.00000000000E+00  0.00000000000E+00  0.37754334907E+03  0.37754334910E+03  0.50400000000E-02 0. -1.
          1   -1    0    0  501    0  0.00000000000E+00 -0.00000000000E+00 -0.15458911984E+03  0.15458911992E+03  0.50400000000E-02 0.  1.
    5000001    1    1    2    0    0 -0.30178962720E+02 -0.11575075504E+03  0.37975608907E+02  0.23527038478E+03  0.19900000000E+03 0.  0.
   -5000001    1    1    2    0    0  0.30178962720E+02  0.11575075504E+03  0.18497862032E+03  0.29686208424E+03  0.19900000000E+03 0.  0.
<mgrwt>
<rscale>  0 0.48317324E+03</rscale>
<asrwt>0</asrwt>
<pdfrwt beam="1">  1        1 0.22084160E-01 0.48317324E+03</pdfrwt>
<pdfrwt beam="2">  1       -1 0.53934765E-01 0.48317324E+03</pdfrwt>
<totfact> 0.80269483E+02</totfact>
</mgrwt>
</event>
<event>
 4    1  0.6480558E-006  0.1320467E+04  0.7818608E-02  0.9013491E-01
          1   -1    0    0  501    0  0.00000000000E+00  0.00000000000E+00  0.18024293374E+03  0.18024293381E+03  0.50400000000E-02 0.  1.
         -1   -1    0    0    0  501 -0.00000000000E+00 -0.00000000000E+00 -0.24184468877E+04  0.24184468877E+04  0.50400000000E-02 0. -1.
    5000001    1    1    2    0    0 -0.62365383143E+03  0.47554281734E+02 -0.97853804034E+03  0.11782797663E+04  0.19900000000E+03 0.  0.
   -5000001    1    1    2    0    0  0.62365383143E+03 -0.47554281734E+02 -0.12596659136E+04  0.14204100553E+04  0.19900000000E+03 0.  0.
<mgrwt>
<rscale>  0 0.13204665E+04</rscale>
<asrwt>0</asrwt>
<pdfrwt beam="1">  1        1 0.25748992E-01 0.13204665E+04</pdfrwt>
<pdfrwt beam="2">  1       -1 0.34549239E+00 0.13204665E+04</pdfrwt>
<totfact> 0.30958031E+00</totfact>
</mgrwt>
</event>
<event>
 4    1  0.6480558E-006  0.6631966E+03  0.7818608E-02  0.9782327E-01
         -1   -1    0    0    0  501 -0.00000000000E+00  0.00000000000E+00  0.13496270687E+04  0.13496270688E+04  0.50400000000E-02 0.  1.
          1   -1    0    0  501    0  0.00000000000E+00 -0.00000000000E+00 -0.81472463361E+02  0.81472463516E+02  0.50400000000E-02 0. -1.
    5000001    1    1    2    0    0  0.22804230419E+03 -0.12729145974E+03  0.53401968137E+03  0.62688470097E+03  0.19900000000E+03 0.  0.
   -5000001    1    1    2    0    0 -0.22804230419E+03  0.12729145974E+03  0.73413492402E+03  0.80421483130E+03  0.19900000000E+03 0.  0.
<mgrwt>
<rscale>  0 0.66319663E+03</rscale>
<asrwt>0</asrwt>
<pdfrwt beam="1">  1        1 0.11638924E-01 0.66319663E+03</pdfrwt>
<pdfrwt beam="2">  1       -1 0.19280386E+00 0.66319663E+03</pdfrwt>
<totfact> 0.94451997E+01</totfact>
</mgrwt>
</event>
<event>
 4    1  0.6480558E-006  0.8614160E+03  0.7818608E-02  0.9475142E-01
          1   -1    0    0  501    0  0.00000000000E+00  0.00000000000E+00  0.20292026633E+04  0.20292026633E+04  0.50400000000E-02 0.  1.
         -1   -1    0    0    0  501 -0.00000000000E+00 -0.00000000000E+00 -0.91419837833E+02  0.91419837972E+02  0.50400000000E-02 0. -1.
    5000001    1    1    2    0    0  0.37603065738E+03  0.53099056464E+02  0.86769390470E+03  0.96783897283E+03  0.19900000000E+03 0.  0.
   -5000001    1    1    2    0    0 -0.37603065738E+03 -0.53099056464E+02  0.10700889207E+04  0.11527835284E+04  0.19900000000E+03 0.  0.
<mgrwt>
<rscale>  0 0.86141599E+03</rscale>
<asrwt>0</asrwt>
<pdfrwt beam="1">  1        1 0.28988603E+00 0.86141599E+03</pdfrwt>
<pdfrwt beam="2">  1       -1 0.13059980E-01 0.86141599E+03</pdfrwt>
<totfact> 0.14962986E+02</totfact>
</mgrwt>
</event>
<event>
 4    1  0.6480558E-006  0.4478789E+03  0.7818608E-02  0.1028356E+00
          1   -1    0    0  501    0  0.00000000000E+00  0.00000000000E+00  0.57735902958E+02  0.57735903178E+02  0.50400000000E-02 0.  1.
         -1   -1    0    0    0  501 -0.00000000000E+00 -0.00000000000E+00 -0.86859071777E+03  0.86859071779E+03  0.50400000000E-02 0. -1.
    5000001    1    1    2    0    0  0.10249919551E+03 -0.55689424691E+01 -0.39863947321E+03  0.45722153033E+03  0.19900000000E+03 0.  0.
   -5000001    1    1    2    0    0 -0.10249919551E+03  0.55689424691E+01 -0.41221534160E+03  0.46910509063E+03  0.19900000000E+03 0.  0.
<mgrwt>
<rscale>  0 0.44787887E+03</rscale>
<asrwt>0</asrwt>
<pdfrwt beam="1">  1        1 0.82479867E-02 0.44787887E+03</pdfrwt>
<pdfrwt beam="2">  1       -1 0.12408438E+00 0.44787887E+03</pdfrwt>
<totfact> 0.50842736E+02</totfact>
</mgrwt>
</event>
<event>
 4    1  0.6480558E-006  0.8448342E+03  0.7818608E-02  0.9497297E-01
          1   -1    0    0  501    0  0.00000000000E+00  0.00000000000E+00  0.47234913122E+03  0.47234913124E+03  0.50400000000E-02 0.  1.
         -1   -1    0    0    0  501 -0.00000000000E+00 -0.00000000000E+00 -0.37776334177E+03  0.37776334181E+03  0.50400000000E-02 0. -1.
    5000001    1    1    2    0    0  0.34015501001E+02 -0.29769052380E+03  0.27016821914E+03  0.44985394174E+03  0.19900000000E+03 0.  0.
   -5000001    1    1    2    0    0 -0.34015501001E+02  0.29769052380E+03 -0.17558242969E+03  0.40025853131E+03  0.19900000000E+03 0.  0.
<mgrwt>
<rscale>  0 0.84483415E+03</rscale>
<asrwt>0</asrwt>
<pdfrwt beam="1">  1        1 0.67478447E-01 0.84483415E+03</pdfrwt>
<pdfrwt beam="2">  1       -1 0.53966192E-01 0.84483415E+03</pdfrwt>
<totfact> 0.18550444E+02</totfact>
</mgrwt>
</event>
<event>
 4    1  0.6480558E-006  0.5217783E+03  0.7818608E-02  0.1008246E+00
         -1   -1    0    0    0  501 -0.00000000000E+00  0.00000000000E+00  0.49881152672E+03  0.49881152674E+03  0.50400000000E-02 0.  1.
          1   -1    0    0  501    0  0.00000000000E+00 -0.00000000000E+00 -0.13645063244E+03  0.13645063253E+03  0.50400000000E-02 0. -1.
    5000001    1    1    2    0    0 -0.13758302222E+03  0.36206496016E+01  0.29997166514E+03  0.38539096642E+03  0.19900000000E+03 0.  0.
   -5000001    1    1    2    0    0  0.13758302222E+03 -0.36206496016E+01  0.62389229136E+02  0.24987119286E+03  0.19900000000E+03 0.  0.
<mgrwt>
<rscale>  0 0.52177830E+03</rscale>
<asrwt>0</asrwt>
<pdfrwt beam="1">  1        1 0.19492947E-01 0.52177830E+03</pdfrwt>
<pdfrwt beam="2">  1       -1 0.71258791E-01 0.52177830E+03</pdfrwt>
<totfact> 0.54575293E+02</totfact>
</mgrwt>
</event>
<event>
 4    1  0.6480558E-006  0.4623657E+03  0.7818608E-02  0.1024097E+00
          1   -1    0    0  501    0  0.00000000000E+00  0.00000000000E+00  0.15191858258E+04  0.15191858258E+04  0.50400000000E-02 0.  1.
         -1   -1    0    0    0  501 -0.00000000000E+00 -0.00000000000E+00 -0.35180359882E+02  0.35180360243E+02  0.50400000000E-02 0. -1.
    5000001    1    1    2    0    0 -0.11416197563E+03 -0.98608412119E+01  0.65215407921E+03  0.69140157354E+03  0.19900000000E+03 0.  0.
   -5000001    1    1    2    0    0  0.11416197563E+03  0.98608412119E+01  0.83185138669E+03  0.86296461249E+03  0.19900000000E+03 0.  0.
<mgrwt>
<rscale>  0 0.46236568E+03</rscale>
<asrwt>0</asrwt>
<pdfrwt beam="1">  1        1 0.21702655E+00 0.46236568E+03</pdfrwt>
<pdfrwt beam="2">  1       -1 0.50257657E-02 0.46236568E+03</pdfrwt>
<totfact> 0.14251596E+03</totfact>
</mgrwt>
</event>
<event>
 4    1  0.6480558E-006  0.4926681E+03  0.7818608E-02  0.1015711E+00
          1   -1    0    0  501    0  0.00000000000E+00  0.00000000000E+00  0.24248371088E+04  0.24248371088E+04  0.50400000000E-02 0.  1.
         -1   -1    0    0    0  501 -0.00000000000E+00 -0.00000000000E+00 -0.25024555033E+02  0.25024555541E+02  0.50400000000E-02 0. -1.
    5000001    1    1    2    0    0  0.88737227302E+02  0.91525275266E+02  0.15454350083E+04  0.15634006321E+04  0.19900000000E+03 0.  0.
   -5000001    1    1    2    0    0 -0.88737227302E+02 -0.91525275266E+02  0.85437754547E+03  0.88646103226E+03  0.19900000000E+03 0.  0.
<mgrwt>
<rscale>  0 0.49266812E+03</rscale>
<asrwt>0</asrwt>
<pdfrwt beam="1">  1        1 0.34640541E+00 0.49266812E+03</pdfrwt>
<pdfrwt beam="2">  1       -1 0.35749353E-02 0.49266812E+03</pdfrwt>
<totfact> 0.65669392E+02</totfact>
</mgrwt>
</event>
<event>
 4    1  0.6480558E-006  0.1158844E+04  0.7818608E-02  0.9149663E-01
         -1   -1    0    0    0  501 -0.00000000000E+00  0.00000000000E+00  0.15723534859E+03  0.15723534867E+03  0.50400000000E-02 0. -1.
          1   -1    0    0  501    0  0.00000000000E+00 -0.00000000000E+00 -0.21352075193E+04  0.21352075193E+04  0.50400000000E-02 0.  1.
    5000001    1    1    2    0    0 -0.57603953563E+02  0.54111993957E+03 -0.98837878436E+03  0.11456974408E+04  0.19900000000E+03 0.  0.
   -5000001    1    1    2    0    0  0.57603953563E+02 -0.54111993957E+03 -0.98959338634E+03  0.11467454272E+04  0.19900000000E+03 0.  0.
<mgrwt>
<rscale>  0 0.11588444E+04</rscale>
<asrwt>0</asrwt>
<pdfrwt beam="1">  1        1 0.30502963E+00 0.11588444E+04</pdfrwt>
<pdfrwt beam="2">  1       -1 0.22462194E-01 0.11588444E+04</pdfrwt>
<totfact> 0.51220960E+01</totfact>
</mgrwt>
</event>
<event>
 4    1  0.6480558E-006  0.5819964E+03  0.7818608E-02  0.9943478E-01
         -1   -1    0    0    0  501 -0.00000000000E+00  0.00000000000E+00  0.81557164634E+03  0.81557164636E+03  0.50400000000E-02 0. -1.
          1   -1    0    0  501    0  0.00000000000E+00 -0.00000000000E+00 -0.10382894886E+03  0.10382894898E+03  0.50400000000E-02 0.  1.
    5000001    1    1    2    0    0  0.45668493100E+02  0.14116666856E+03  0.59579005935E+03  0.64543042568E+03  0.19900000000E+03 0.  0.
   -5000001    1    1    2    0    0 -0.45668493100E+02 -0.14116666856E+03  0.11595263814E+03  0.27397016966E+03  0.19900000000E+03 0.  0.
<mgrwt>
<rscale>  0 0.58199638E+03</rscale>
<asrwt>0</asrwt>
<pdfrwt beam="1">  1        1 0.14832707E-01 0.58199638E+03</pdfrwt>
<pdfrwt beam="2">  1       -1 0.11651024E+00 0.58199638E+03</pdfrwt>
<totfact> 0.26524911E+02</totfact>
</mgrwt>
</event>
<event>
 4    1  0.6480558E-006  0.6900082E+03  0.7818608E-02  0.9734474E-01
         -1   -1    0    0    0  501 -0.00000000000E+00  0.00000000000E+00  0.23141986292E+03  0.23141986298E+03  0.50400000000E-02 0. -1.
          1   -1    0    0  501    0  0.00000000000E+00 -0.00000000000E+00 -0.51433712843E+03  0.51433712845E+03  0.50400000000E-02 0.  1.
    5000001    1    1    2    0    0  0.74836574003E+02 -0.23482701993E+03  0.62689444802E+01  0.31683519653E+03  0.19900000000E+03 0.  0.
   -5000001    1    1    2    0    0 -0.74836574003E+02  0.23482701993E+03 -0.28918620999E+03  0.42892179490E+03  0.19900000000E+03 0.  0.
<mgrwt>
<rscale>  0 0.69000820E+03</rscale>
<asrwt>0</asrwt>
<pdfrwt beam="1">  1        1 0.73476732E-01 0.69000820E+03</pdfrwt>
<pdfrwt beam="2">  1       -1 0.33059981E-01 0.69000820E+03</pdfrwt>
<totfact> 0.40971797E+02</totfact>
</mgrwt>
</event>
<event>
 4    1  0.6480558E-006  0.1112942E+04  0.7818608E-02  0.9192668E-01
         -1   -1    0    0    0  501 -0.00000000000E+00  0.00000000000E+00  0.62332014620E+03  0.62332014622E+03  0.50400000000E-02 0. -1.
          1   -1    0    0  501    0  0.00000000000E+00 -0.00000000000E+00 -0.49679165989E+03  0.49679165991E+03  0.50400000000E-02 0.  1.
    5000001    1    1    2    0    0 -0.24264010371E+03  0.35677065335E+03 -0.22825614490E+03  0.52712558912E+03  0.19900000000E+03 0.  0.
   -5000001    1    1    2    0    0  0.24264010371E+03 -0.35677065335E+03  0.35478463122E+03  0.59298621701E+03  0.19900000000E+03 0.  0.
<mgrwt>
<rscale>  0 0.11129425E+04</rscale>
<asrwt>0</asrwt>
<pdfrwt beam="1">  1        1 0.70970237E-01 0.11129425E+04</pdfrwt>
<pdfrwt beam="2">  1       -1 0.89045735E-01 0.11129425E+04</pdfrwt>
<totfact> 0.61037738E+01</totfact>
</mgrwt>
</event>
<event>
 4    1  0.6480558E-006  0.5400041E+03  0.7818608E-02  0.1003834E+00
          1   -1    0    0  501    0  0.00000000000E+00  0.00000000000E+00  0.41825304782E+03  0.41825304785E+03  0.50400000000E-02 0. -1.
         -1   -1    0    0    0  501 -0.00000000000E+00 -0.00000000000E+00 -0.17429903850E+03  0.17429903857E+03  0.50400000000E-02 0.  1.
    5000001    1    1    2    0    0 -0.11384393559E+03 -0.80597642058E+02  0.25108564239E+03  0.34943013807E+03  0.19900000000E+03 0.  0.
   -5000001    1    1    2    0    0  0.11384393559E+03  0.80597642058E+02 -0.71316330765E+01  0.24312194835E+03  0.19900000000E+03 0.  0.
<mgrwt>
<rscale>  0 0.54000409E+03</rscale>
<asrwt>0</asrwt>
<pdfrwt beam="1">  1        1 0.59750434E-01 0.54000409E+03</pdfrwt>
<pdfrwt beam="2">  1       -1 0.24899863E-01 0.54000409E+03</pdfrwt>
<totfact> 0.88365500E+02</totfact>
</mgrwt>
</event>
<event>
 4    1  0.6480558E-006  0.6476075E+03  0.7818608E-02  0.9811279E-01
          1   -1    0    0  501    0  0.00000000000E+00  0.00000000000E+00  0.86436357608E+03  0.86436357610E+03  0.50400000000E-02 0. -1.
         -1   -1    0    0    0  501 -0.00000000000E+00 -0.00000000000E+00 -0.12130180794E+03  0.12130180804E+03  0.50400000000E-02 0.  1.
    5000001    1    1    2    0    0 -0.10257282884E+03  0.23386098989E+03  0.36243481811E+03  0.48597545739E+03  0.19900000000E+03 0.  0.
   -5000001    1    1    2    0    0  0.10257282884E+03 -0.23386098989E+03  0.38062695003E+03  0.49968992675E+03  0.19900000000E+03 0.  0.
<mgrwt>
<rscale>  0 0.64760749E+03</rscale>
<asrwt>0</asrwt>
<pdfrwt beam="1">  1        1 0.12348051E+00 0.64760749E+03</pdfrwt>
<pdfrwt beam="2">  1       -1 0.17328830E-01 0.64760749E+03</pdfrwt>
<totfact> 0.57636615E+02</totfact>
</mgrwt>
</event>
<event>
 4    1  0.6480558E-006  0.8512366E+03  0.7818608E-02  0.9488679E-01
         -1   -1    0    0    0  501 -0.00000000000E+00  0.00000000000E+00  0.43121992299E+03  0.43121992302E+03  0.50400000000E-02 0. -1.
          1   -1    0    0  501    0  0.00000000000E+00 -0.00000000000E+00 -0.42008945233E+03  0.42008945236E+03  0.50400000000E-02 0.  1.
    5000001    1    1    2    0    0  0.28418906549E+03 -0.21857852972E+03  0.11963612143E+03  0.42714611101E+03  0.19900000000E+03 0.  0.
   -5000001    1    1    2    0    0 -0.28418906549E+03  0.21857852972E+03 -0.10850565077E+03  0.42416326438E+03  0.19900000000E+03 0.  0.
<mgrwt>
<rscale>  0 0.85123661E+03</rscale>
<asrwt>0</asrwt>
<pdfrwt beam="1">  1        1 0.60012779E-01 0.85123661E+03</pdfrwt>
<pdfrwt beam="2">  1       -1 0.61602846E-01 0.85123661E+03</pdfrwt>
<totfact> 0.16740150E+02</totfact>
</mgrwt>
</event>
<event>
 4    1  0.6480558E-006  0.1140265E+04  0.7818608E-02  0.9166812E-01
         -1   -1    0    0    0  501 -0.00000000000E+00  0.00000000000E+00  0.53851999160E+03  0.53851999162E+03  0.50400000000E-02 0. -1.
          1   -1    0    0  501    0  0.00000000000E+00 -0.00000000000E+00 -0.60360082788E+03  0.60360082790E+03  0.50400000000E-02 0.  1.
    5000001    1    1    2    0    0  0.35666085365E+03 -0.39736309881E+03 -0.51164116838E+02  0.57212163364E+03  0.19900000000E+03 0.  0.
   -5000001    1    1    2    0    0 -0.35666085365E+03  0.39736309881E+03 -0.13916719446E+02  0.56999918588E+03  0.19900000000E+03 0.  0.
<mgrwt>
<rscale>  0 0.11402651E+04</rscale>
<asrwt>0</asrwt>
<pdfrwt beam="1">  1        1 0.86228690E-01 0.11402651E+04</pdfrwt>
<pdfrwt beam="2">  1       -1 0.76931427E-01 0.11402651E+04</pdfrwt>
<totfact> 0.63702986E+01</totfact>
</mgrwt>
</event>
<event>
 4    1  0.6480558E-006  0.8872988E+03  0.7818608E-02  0.9441599E-01
         -1   -1    0    0    0  501 -0.00000000000E+00  0.00000000000E+00  0.27375713600E+03  0.27375713605E+03  0.50400000000E-02 0. -1.
          1   -1    0    0  501    0  0.00000000000E+00 -0.00000000000E+00 -0.71897593797E+03  0.71897593799E+03  0.50400000000E-02 0.  1.
    5000001    1    1    2    0    0  0.22826906809E+03 -0.25834727117E+03 -0.34402079712E+01  0.39807400694E+03  0.19900000000E+03 0.  0.
   -5000001    1    1    2    0    0 -0.22826906809E+03  0.25834727117E+03 -0.44177859400E+03  0.59465906710E+03  0.19900000000E+03 0.  0.
<mgrwt>
<rscale>  0 0.88729881E+03</rscale>
<asrwt>0</asrwt>
<pdfrwt beam="1">  1        1 0.10271085E+00 0.88729881E+03</pdfrwt>
<pdfrwt beam="2">  1       -1 0.39108162E-01 0.88729881E+03</pdfrwt>
<totfact> 0.18698573E+02</totfact>
</mgrwt>
</event>
<event>
 4    1  0.6480558E-006  0.7566602E+03  0.7818608E-02  0.9624959E-01
          1   -1    0    0  501    0  0.00000000000E+00  0.00000000000E+00  0.43602399397E+03  0.43602399399E+03  0.50400000000E-02 0.  1.
         -1   -1    0    0    0  501 -0.00000000000E+00 -0.00000000000E+00 -0.32827017814E+03  0.32827017818E+03  0.50400000000E-02 0. -1.
    5000001    1    1    2    0    0  0.30223148323E+03 -0.89872895859E+02  0.11864612202E+03  0.39127855696E+03  0.19900000000E+03 0.  0.
   -5000001    1    1    2    0    0 -0.30223148323E+03  0.89872895859E+02 -0.10892306197E+02  0.37301561522E+03  0.19900000000E+03 0.  0.
<mgrwt>
<rscale>  0 0.75666023E+03</rscale>
<asrwt>0</asrwt>
<pdfrwt beam="1">  1        1 0.62289142E-01 0.75666023E+03</pdfrwt>
<pdfrwt beam="2">  1       -1 0.46895740E-01 0.75666023E+03</pdfrwt>
<totfact> 0.27054995E+02</totfact>
</mgrwt>
</event>
<event>
 4    1  0.6480558E-006  0.8125642E+03  0.7818608E-02  0.9542007E-01
         -1   -1    0    0    0  501 -0.00000000000E+00  0.00000000000E+00  0.36610910390E+03  0.36610910393E+03  0.50400000000E-02 0. -1.
          1   -1    0    0  501    0  0.00000000000E+00 -0.00000000000E+00 -0.45086321162E+03  0.45086321164E+03  0.50400000000E-02 0.  1.
    5000001    1    1    2    0    0 -0.18733700800E+03 -0.25730365820E+03  0.11391334160E+03  0.39227232440E+03  0.19900000000E+03 0.  0.
   -5000001    1    1    2    0    0  0.18733700800E+03  0.25730365820E+03 -0.19866744932E+03  0.42469999118E+03  0.19900000000E+03 0.  0.
<mgrwt>
<rscale>  0 0.81256415E+03</rscale>
<asrwt>0</asrwt>
<pdfrwt beam="1">  1        1 0.64409030E-01 0.81256415E+03</pdfrwt>
<pdfrwt beam="2">  1       -1 0.52301301E-01 0.81256415E+03</pdfrwt>
<totfact> 0.21000536E+02</totfact>
</mgrwt>
</event>
<event>
 4    1  0.6480558E-006  0.4830949E+03  0.7818608E-02  0.1018288E+00
          1   -1    0    0  501    0  0.00000000000E+00  0.00000000000E+00  0.66306543950E+03  0.66306543952E+03  0.50400000000E-02 0. -1.
         -1   -1    0    0    0  501 -0.00000000000E+00 -0.00000000000E+00 -0.87993081796E+02  0.87993081941E+02  0.50400000000E-02 0.  1.
    5000001    1    1    2    0    0  0.11816140564E+03 -0.41738259565E+02  0.20181738090E+03  0.30989587820E+03  0.19900000000E+03 0.  0.
   -5000001    1    1    2    0    0 -0.11816140564E+03  0.41738259565E+02  0.37325497681E+03  0.44116264326E+03  0.19900000000E+03 0.  0.
<mgrwt>
<rscale>  0 0.48309490E+03</rscale>
<asrwt>0</asrwt>
<pdfrwt beam="1">  1        1 0.94723630E-01 0.48309490E+03</pdfrwt>
<pdfrwt beam="2">  1       -1 0.12570441E-01 0.48309490E+03</pdfrwt>
<totfact> 0.14475367E+03</totfact>
</mgrwt>
</event>
<event>
 4    1  0.6480558E-006  0.8263416E+03  0.7818608E-02  0.9522652E-01
         -1   -1    0    0    0  501 -0.00000000000E+00  0.00000000000E+00  0.67059854653E+03  0.67059854655E+03  0.50400000000E-02 0. -1.
          1   -1    0    0  501    0  0.00000000000E+00 -0.00000000000E+00 -0.25456381222E+03  0.25456381227E+03  0.50400000000E-02 0.  1.
    5000001    1    1    2    0    0 -0.18890153563E+03 -0.99331313597E+02  0.53550146334E+03  0.60984696217E+03  0.19900000000E+03 0.  0.
   -5000001    1    1    2    0    0  0.18890153563E+03  0.99331313597E+02 -0.11946672903E+03  0.31531539666E+03  0.19900000000E+03 0.  0.
<mgrwt>
<rscale>  0 0.82634163E+03</rscale>
<asrwt>0</asrwt>
<pdfrwt beam="1">  1        1 0.36366259E-01 0.82634163E+03</pdfrwt>
<pdfrwt beam="2">  1       -1 0.95799792E-01 0.82634163E+03</pdfrwt>
<totfact> 0.12705241E+02</totfact>
</mgrwt>
</event>
<event>
 4    1  0.6480558E-006  0.6602841E+03  0.7818608E-02  0.9787671E-01
          1   -1    0    0  501    0  0.00000000000E+00  0.00000000000E+00  0.85960700475E+03  0.85960700476E+03  0.50400000000E-02 0.  1.
         -1   -1    0    0    0  501 -0.00000000000E+00 -0.00000000000E+00 -0.12679487465E+03  0.12679487475E+03  0.50400000000E-02 0. -1.
    5000001    1    1    2    0    0 -0.26075303018E+03  0.28461624419E+02  0.40270998248E+03  0.52017164168E+03  0.19900000000E+03 0.  0.
   -5000001    1    1    2    0    0  0.26075303018E+03 -0.28461624419E+02  0.33010214761E+03  0.46623023783E+03  0.19900000000E+03 0.  0.
<mgrwt>
<rscale>  0 0.66028407E+03</rscale>
<asrwt>0</asrwt>
<pdfrwt beam="1">  1        1 0.12280100E+00 0.66028407E+03</pdfrwt>
<pdfrwt beam="2">  1       -1 0.18113554E-01 0.66028407E+03</pdfrwt>
<totfact> 0.54036423E+02</totfact>
</mgrwt>
</event>
<event>
 4    1  0.6480558E-006  0.9275520E+03  0.7818608E-02  0.9391781E-01
         -1   -1    0    0    0  501 -0.00000000000E+00  0.00000000000E+00  0.54001002271E+03  0.54001002274E+03  0.50400000000E-02 0.  1.
          1   -1    0    0  501    0  0.00000000000E+00 -0.00000000000E+00 -0.39830403088E+03  0.39830403092E+03  0.50400000000E-02 0. -1.
    5000001    1    1    2    0    0  0.38095597837E+03  0.15523786149E+03  0.15089702878E+03  0.48124543051E+03  0.19900000000E+03 0.  0.
   -5000001    1    1    2    0    0 -0.38095597837E+03 -0.15523786149E+03 -0.91910369519E+01  0.45706862314E+03  0.19900000000E+03 0.  0.
<mgrwt>
<rscale>  0 0.92755198E+03</rscale>
<asrwt>0</asrwt>
<pdfrwt beam="1">  1        1 0.56900576E-01 0.92755198E+03</pdfrwt>
<pdfrwt beam="2">  1       -1 0.77144289E-01 0.92755198E+03</pdfrwt>
<totfact> 0.11296071E+02</totfact>
</mgrwt>
</event>
<event>
 4    1  0.6480558E-006  0.6950542E+03  0.7818608E-02  0.9725728E-01
         -1   -1    0    0    0  501 -0.00000000000E+00  0.00000000000E+00  0.53227343699E+02  0.53227343938E+02  0.50400000000E-02 0.  1.
          1   -1    0    0  501    0  0.00000000000E+00 -0.00000000000E+00 -0.22690424248E+04  0.22690424248E+04  0.50400000000E-02 0. -1.
    5000001    1    1    2    0    0 -0.54177102925E+02  0.21863856463E+03 -0.16908002425E+04  0.17173073227E+04  0.19900000000E+03 0.  0.
   -5000001    1    1    2    0    0  0.54177102925E+02 -0.21863856463E+03 -0.52501483862E+03  0.60496244611E+03  0.19900000000E+03 0.  0.
<mgrwt>
<rscale>  0 0.69505425E+03</rscale>
<asrwt>0</asrwt>
<pdfrwt beam="1">  1        1 0.32414886E+00 0.69505425E+03</pdfrwt>
<pdfrwt beam="2">  1       -1 0.76039077E-02 0.69505425E+03</pdfrwt>
<totfact> 0.25370223E+02</totfact>
</mgrwt>
</event>
<event>
 4    1  0.6480558E-006  0.4762554E+03  0.7818608E-02  0.1020169E+00
          1   -1    0    0  501    0  0.00000000000E+00  0.00000000000E+00  0.12802013554E+04  0.12802013554E+04  0.50400000000E-02 0. -1.
         -1   -1    0    0    0  501 -0.00000000000E+00 -0.00000000000E+00 -0.44293667227E+02  0.44293667513E+02  0.50400000000E-02 0.  1.
    5000001    1    1    2    0    0 -0.62347803496E+02 -0.10617852824E+03  0.49537613016E+03  0.54786826774E+03  0.19900000000E+03 0.  0.
   -5000001    1    1    2    0    0  0.62347803496E+02  0.10617852824E+03  0.74053155804E+03  0.77662675521E+03  0.19900000000E+03 0.  0.
<mgrwt>
<rscale>  0 0.47625545E+03</rscale>
<asrwt>0</asrwt>
<pdfrwt beam="1">  1        1 0.18288589E+00 0.47625545E+03</pdfrwt>
<pdfrwt beam="2">  1       -1 0.63276676E-02 0.47625545E+03</pdfrwt>
<totfact> 0.14312149E+03</totfact>
</mgrwt>
</event>
<event>
 4    1  0.6480558E-006  0.7244916E+03  0.7818608E-02  0.9676241E-01
          1   -1    0    0  501    0  0.00000000000E+00  0.00000000000E+00  0.11067086649E+04  0.11067086649E+04  0.50400000000E-02 0.  1.
         -1   -1    0    0    0  501 -0.00000000000E+00 -0.00000000000E+00 -0.11856962763E+03  0.11856962774E+03  0.50400000000E-02 0. -1.
    5000001    1    1    2    0    0 -0.93877739478E+02  0.18541508557E+03  0.86625140630E+03  0.91278928720E+03  0.19900000000E+03 0.  0.
   -5000001    1    1    2    0    0  0.93877739478E+02 -0.18541508557E+03  0.12188763093E+03  0.31248900540E+03  0.19900000000E+03 0.  0.
<mgrwt>
<rscale>  0 0.72449164E+03</rscale>
<asrwt>0</asrwt>
<pdfrwt beam="1">  1        1 0.15810124E+00 0.72449164E+03</pdfrwt>
<pdfrwt beam="2">  1       -1 0.16938518E-01 0.72449164E+03</pdfrwt>
<totfact> 0.39238533E+02</totfact>
</mgrwt>
</event>
<event>
 4    1  0.6480558E-006  0.7057854E+03  0.7818608E-02  0.9707389E-01
         -1   -1    0    0    0  501 -0.00000000000E+00  0.00000000000E+00  0.12021113005E+03  0.12021113015E+03  0.50400000000E-02 0.  1.
          1   -1    0    0  501    0  0.00000000000E+00 -0.00000000000E+00 -0.10359544174E+04  0.10359544174E+04  0.50400000000E-02 0. -1.
    5000001    1    1    2    0    0 -0.15903147273E+03 -0.24167066875E+03 -0.51547524808E+03  0.62370782650E+03  0.19900000000E+03 0.  0.
   -5000001    1    1    2    0    0  0.15903147273E+03  0.24167066875E+03 -0.40026803924E+03  0.53245772104E+03  0.19900000000E+03 0.  0.
<mgrwt>
<rscale>  0 0.70578538E+03</rscale>
<asrwt>0</asrwt>
<pdfrwt beam="1">  1        1 0.14799348E+00 0.70578538E+03</pdfrwt>
<pdfrwt beam="2">  1       -1 0.17173019E-01 0.70578538E+03</pdfrwt>
<totfact> 0.43180222E+02</totfact>
</mgrwt>
</event>
<event>
 4    1  0.6480558E-006  0.7392615E+03  0.7818608E-02  0.9652350E-01
          1   -1    0    0  501    0  0.00000000000E+00  0.00000000000E+00  0.16595794867E+04  0.16595794867E+04  0.50400000000E-02 0.  1.
         -1   -1    0    0    0  501 -0.00000000000E+00 -0.00000000000E+00 -0.82326215438E+02  0.82326215593E+02  0.50400000000E-02 0. -1.
    5000001    1    1    2    0    0 -0.24744948729E+03  0.68882895341E+02  0.12038252726E+04  0.12469051243E+04  0.19900000000E+03 0.  0.
   -5000001    1    1    2    0    0  0.24744948729E+03 -0.68882895341E+02  0.37342799861E+03  0.49500057796E+03  0.19900000000E+03 0.  0.
<mgrwt>
<rscale>  0 0.73926152E+03</rscale>
<asrwt>0</asrwt>
<pdfrwt beam="1">  1        1 0.23708278E+00 0.73926152E+03</pdfrwt>
<pdfrwt beam="2">  1       -1 0.11760888E-01 0.73926152E+03</pdfrwt>
<totfact> 0.30441420E+02</totfact>
</mgrwt>
</event>
<event>
 4    1  0.6480558E-006  0.6044937E+03  0.7818608E-02  0.9896127E-01
          1   -1    0    0  501    0  0.00000000000E+00  0.00000000000E+00  0.62821251815E+03  0.62821251817E+03  0.50400000000E-02 0.  1.
         -1   -1    0    0    0  501 -0.00000000000E+00 -0.00000000000E+00 -0.14541758385E+03  0.14541758394E+03  0.50400000000E-02 0. -1.
    5000001    1    1    2    0    0 -0.16513303478E+03  0.73131602353E+02  0.64363827440E+02  0.27633467520E+03  0.19900000000E+03 0.  0.
   -5000001    1    1    2    0    0  0.16513303478E+03 -0.73131602353E+02  0.41843110685E+03  0.49729542691E+03  0.19900000000E+03 0.  0.
<mgrwt>
<rscale>  0 0.60449366E+03</rscale>
<asrwt>0</asrwt>
<pdfrwt beam="1">  1        1 0.89744646E-01 0.60449366E+03</pdfrwt>
<pdfrwt beam="2">  1       -1 0.20773941E-01 0.60449366E+03</pdfrwt>
<totfact> 0.68934763E+02</totfact>
</mgrwt>
</event>
<event>
 4    1  0.6480558E-006  0.4599264E+03  0.7818608E-02  0.1024803E+00
         -1   -1    0    0    0  501 -0.00000000000E+00  0.00000000000E+00  0.88651916023E+02  0.88651916166E+02  0.50400000000E-02 0. -1.
          1   -1    0    0  501    0  0.00000000000E+00 -0.00000000000E+00 -0.59652490692E+03  0.59652490694E+03  0.50400000000E-02 0.  1.
    5000001    1    1    2    0    0  0.47566022050E+02  0.38989085805E+02 -0.39913509206E+03  0.45021383473E+03  0.19900000000E+03 0.  0.
   -5000001    1    1    2    0    0 -0.47566022050E+02 -0.38989085805E+02 -0.10873789884E+03  0.23496298838E+03  0.19900000000E+03 0.  0.
<mgrwt>
<rscale>  0 0.45992641E+03</rscale>
<asrwt>0</asrwt>
<pdfrwt beam="1">  1        1 0.85217842E-01 0.45992641E+03</pdfrwt>
<pdfrwt beam="2">  1       -1 0.12664560E-01 0.45992641E+03</pdfrwt>
<totfact> 0.16599483E+03</totfact>
</mgrwt>
</event>
<event>
 4    1  0.6480558E-006  0.5356578E+03  0.7818608E-02  0.1004869E+00
         -1   -1    0    0    0  501 -0.00000000000E+00  0.00000000000E+00  0.63138956408E+03  0.63138956410E+03  0.50400000000E-02 0. -1.
          1   -1    0    0  501    0  0.00000000000E+00 -0.00000000000E+00 -0.11361023454E+03  0.11361023466E+03  0.50400000000E-02 0.  1.
    5000001    1    1    2    0    0 -0.15591931599E+03  0.13815493258E+02  0.13740539167E+03  0.28806760077E+03  0.19900000000E+03 0.  0.
   -5000001    1    1    2    0    0  0.15591931599E+03 -0.13815493258E+02  0.38037393787E+03  0.45693219799E+03  0.19900000000E+03 0.  0.
<mgrwt>
<rscale>  0 0.53565779E+03</rscale>
<asrwt>0</asrwt>
<pdfrwt beam="1">  1        1 0.16230034E-01 0.53565779E+03</pdfrwt>
<pdfrwt beam="2">  1       -1 0.90198508E-01 0.53565779E+03</pdfrwt>
<totfact> 0.42290724E+02</totfact>
</mgrwt>
</event>
<event>
 4    1  0.6480558E-006  0.6409901E+03  0.7818608E-02  0.9823834E-01
         -1   -1    0    0    0  501 -0.00000000000E+00  0.00000000000E+00  0.54403418869E+02  0.54403419102E+02  0.50400000000E-02 0. -1.
          1   -1    0    0  501    0  0.00000000000E+00 -0.00000000000E+00 -0.18880629591E+04  0.18880629591E+04  0.50400000000E-02 0.  1.
    5000001    1    1    2    0    0  0.57791748768E+02  0.16841336683E+03 -0.14539330453E+04  0.14782507394E+04  0.19900000000E+03 0.  0.
   -5000001    1    1    2    0    0 -0.57791748768E+02 -0.16841336683E+03 -0.37972649493E+03  0.46421563880E+03  0.19900000000E+03 0.  0.
<mgrwt>
<rscale>  0 0.64099011E+03</rscale>
<asrwt>0</asrwt>
<pdfrwt beam="1">  1        1 0.26972324E+00 0.64099011E+03</pdfrwt>
<pdfrwt beam="2">  1       -1 0.77719182E-02 0.64099011E+03</pdfrwt>
<totfact> 0.42393878E+02</totfact>
</mgrwt>
</event>
<event>
 4    1  0.6480558E-006  0.5670948E+03  0.7818608E-02  0.9976128E-01
          1   -1    0    0  501    0  0.00000000000E+00  0.00000000000E+00  0.10075117717E+03  0.10075117730E+03  0.50400000000E-02 0. -1.
         -1   -1    0    0    0  501 -0.00000000000E+00 -0.00000000000E+00 -0.79799681330E+03  0.79799681331E+03  0.50400000000E-02 0.  1.
    5000001    1    1    2    0    0  0.13814870063E+03 -0.13706585834E+03 -0.26289537839E+03  0.38286693901E+03  0.19900000000E+03 0.  0.
   -5000001    1    1    2    0    0 -0.13814870063E+03  0.13706585834E+03 -0.43435025773E+03  0.51588105160E+03  0.19900000000E+03 0.  0.
<mgrwt>
<rscale>  0 0.56709477E+03</rscale>
<asrwt>0</asrwt>
<pdfrwt beam="1">  1        1 0.14393026E-01 0.56709477E+03</pdfrwt>
<pdfrwt beam="2">  1       -1 0.11399954E+00 0.56709477E+03</pdfrwt>
<totfact> 0.29105824E+02</totfact>
</mgrwt>
</event>
<event>
 4    1  0.6480558E-006  0.4777371E+03  0.7818608E-02  0.1019759E+00
          1   -1    0    0  501    0  0.00000000000E+00  0.00000000000E+00  0.13101185312E+04  0.13101185312E+04  0.50400000000E-02 0. -1.
         -1   -1    0    0    0  501 -0.00000000000E+00 -0.00000000000E+00 -0.43551917410E+02  0.43551917702E+02  0.50400000000E-02 0.  1.
    5000001    1    1    2    0    0  0.60598411240E+02  0.65854433455E+02  0.35786134623E+03  0.41913567848E+03  0.19900000000E+03 0.  0.
   -5000001    1    1    2    0    0 -0.60598411240E+02 -0.65854433455E+02  0.90870526755E+03  0.93453477042E+03  0.19900000000E+03 0.  0.
<mgrwt>
<rscale>  0 0.47773706E+03</rscale>
<asrwt>0</asrwt>
<pdfrwt beam="1">  1        1 0.18715978E+00 0.47773706E+03</pdfrwt>
<pdfrwt beam="2">  1       -1 0.62217029E-02 0.47773706E+03</pdfrwt>
<totfact> 0.14032191E+03</totfact>
</mgrwt>
</event>
<event>
 4    1  0.6480558E-006  0.5639655E+03  0.7818608E-02  0.9983122E-01
          1   -1    0    0  501    0  0.00000000000E+00  0.00000000000E+00  0.52429347246E+02  0.52429347488E+02  0.50400000000E-02 0.  1.
         -1   -1    0    0    0  501 -0.00000000000E+00 -0.00000000000E+00 -0.15165985671E+04  0.15165985671E+04  0.50400000000E-02 0. -1.
    5000001    1    1    2    0    0  0.13168746366E+03  0.12774085365E+03 -0.95210131382E+03  0.98982686645E+03  0.19900000000E+03 0.  0.
   -5000001    1    1    2    0    0 -0.13168746366E+03 -0.12774085365E+03 -0.51206790600E+03  0.57920104811E+03  0.19900000000E+03 0.  0.
<mgrwt>
<rscale>  0 0.56396551E+03</rscale>
<asrwt>0</asrwt>
<pdfrwt beam="1">  1        1 0.74899077E-02 0.56396551E+03</pdfrwt>
<pdfrwt beam="2">  1       -1 0.21665691E+00 0.56396551E+03</pdfrwt>
<totfact> 0.12051041E+02</totfact>
</mgrwt>
</event>
<event>
 4    1  0.6480558E-006  0.7808289E+03  0.7818608E-02  0.9588189E-01
         -1   -1    0    0    0  501 -0.00000000000E+00  0.00000000000E+00  0.10747072465E+03  0.10747072477E+03  0.50400000000E-02 0. -1.
          1   -1    0    0  501    0  0.00000000000E+00 -0.00000000000E+00 -0.14182788175E+04  0.14182788175E+04  0.50400000000E-02 0.  1.
    5000001    1    1    2    0    0 -0.15370631881E+03 -0.28838157501E+03 -0.80717545181E+03  0.89326523231E+03  0.19900000000E+03 0.  0.
   -5000001    1    1    2    0    0  0.15370631881E+03  0.28838157501E+03 -0.50363264106E+03  0.63248431000E+03  0.19900000000E+03 0.  0.
<mgrwt>
<rscale>  0 0.78082892E+03</rscale>
<asrwt>0</asrwt>
<pdfrwt beam="1">  1        1 0.20261125E+00 0.78082892E+03</pdfrwt>
<pdfrwt beam="2">  1       -1 0.15352962E-01 0.78082892E+03</pdfrwt>
<totfact> 0.28218701E+02</totfact>
</mgrwt>
</event>
<event>
 4    1  0.6480558E-006  0.4292446E+03  0.7818608E-02  0.1034099E+00
          1   -1    0    0  501    0  0.00000000000E+00  0.00000000000E+00  0.67515604375E+03  0.67515604377E+03  0.50400000000E-02 0.  1.
         -1   -1    0    0    0  501 -0.00000000000E+00 -0.00000000000E+00 -0.68225300139E+02  0.68225300326E+02  0.50400000000E-02 0. -1.
    5000001    1    1    2    0    0  0.75449717241E+02 -0.18521688261E+02  0.26772020908E+03  0.34250667602E+03  0.19900000000E+03 0.  0.
   -5000001    1    1    2    0    0 -0.75449717241E+02  0.18521688261E+02  0.33921053452E+03  0.40087466807E+03  0.19900000000E+03 0.  0.
<mgrwt>
<rscale>  0 0.42924456E+03</rscale>
<asrwt>0</asrwt>
<pdfrwt beam="1">  1        1 0.96450865E-01 0.42924456E+03</pdfrwt>
<pdfrwt beam="2">  1       -1 0.97464713E-02 0.42924456E+03</pdfrwt>
<totfact> 0.21063005E+03</totfact>
</mgrwt>
</event>
<event>
 4    1  0.6480558E-006  0.6468291E+03  0.7818608E-02  0.9812747E-01
          1   -1    0    0  501    0  0.00000000000E+00  0.00000000000E+00  0.92286982755E+03  0.92286982757E+03  0.50400000000E-02 0.  1.
         -1   -1    0    0    0  501 -0.00000000000E+00 -0.00000000000E+00 -0.11333882286E+03  0.11333882297E+03  0.50400000000E-02 0. -1.
    5000001    1    1    2    0    0  0.24677602692E+03  0.42527206125E+02  0.48141007705E+03  0.57798238123E+03  0.19900000000E+03 0.  0.
   -5000001    1    1    2    0    0 -0.24677602692E+03 -0.42527206125E+02  0.32812092765E+03  0.45822626931E+03  0.19900000000E+03 0.  0.
<mgrwt>
<rscale>  0 0.64682913E+03</rscale>
<asrwt>0</asrwt>
<pdfrwt beam="1">  1        1 0.13183855E+00 0.64682913E+03</pdfrwt>
<pdfrwt beam="2">  1       -1 0.16191260E-01 0.64682913E+03</pdfrwt>
<totfact> 0.57947018E+02</totfact>
</mgrwt>
</event>
<event>
 4    1  0.6480558E-006  0.6297993E+03  0.7818608E-02  0.9845441E-01
          1   -1    0    0  501    0  0.00000000000E+00  0.00000000000E+00  0.13397231225E+03  0.13397231234E+03  0.50400000000E-02 0. -1.
         -1   -1    0    0    0  501 -0.00000000000E+00 -0.00000000000E+00 -0.74016632179E+03  0.74016632180E+03  0.50400000000E-02 0.  1.
    5000001    1    1    2    0    0 -0.19553550257E+03 -0.13390964296E+03 -0.22222660246E+03  0.38098764820E+03  0.19900000000E+03 0.  0.
   -5000001    1    1    2    0    0  0.19553550257E+03  0.13390964296E+03 -0.38396740707E+03  0.49315098594E+03  0.19900000000E+03 0.  0.
<mgrwt>
<rscale>  0 0.62979931E+03</rscale>
<asrwt>0</asrwt>
<pdfrwt beam="1">  1        1 0.19138902E-01 0.62979931E+03</pdfrwt>
<pdfrwt beam="2">  1       -1 0.10573804E+00 0.62979931E+03</pdfrwt>
<totfact> 0.23679013E+02</totfact>
</mgrwt>
</event>
<event>
 4    1  0.6480558E-006  0.1565888E+04  0.7818608E-02  0.8841783E-01
         -1   -1    0    0    0  501 -0.00000000000E+00  0.00000000000E+00  0.54166811530E+03  0.54166811533E+03  0.50400000000E-02 0. -1.
          1   -1    0    0  501    0  0.00000000000E+00 -0.00000000000E+00 -0.11316913326E+04  0.11316913326E+04  0.50400000000E-02 0.  1.
    5000001    1    1    2    0    0  0.54263450799E+03 -0.52751902410E+03 -0.32270511109E+03  0.84644439792E+03  0.19900000000E+03 0.  0.
   -5000001    1    1    2    0    0 -0.54263450799E+03  0.52751902410E+03 -0.26731810620E+03  0.82691505002E+03  0.19900000000E+03 0.  0.
<mgrwt>
<rscale>  0 0.15658877E+04</rscale>
<asrwt>0</asrwt>
<pdfrwt beam="1">  1        1 0.16167019E+00 0.15658877E+04</pdfrwt>
<pdfrwt beam="2">  1       -1 0.77381160E-01 0.15658877E+04</pdfrwt>
<totfact> 0.22322235E+01</totfact>
</mgrwt>
</event>
<event>
 4    1  0.6480558E-006  0.5209127E+03  0.7818608E-02  0.1008460E+00
         -1   -1    0    0    0  501 -0.00000000000E+00  0.00000000000E+00  0.17108166267E+03  0.17108166274E+03  0.50400000000E-02 0. -1.
          1   -1    0    0  501    0  0.00000000000E+00 -0.00000000000E+00 -0.39652115849E+03  0.39652115852E+03  0.50400000000E-02 0.  1.
    5000001    1    1    2    0    0  0.15545336621E+03  0.21523278070E+02 -0.47273806738E+02  0.25780770618E+03  0.19900000000E+03 0.  0.
   -5000001    1    1    2    0    0 -0.15545336621E+03 -0.21523278070E+02 -0.17816568908E+03  0.30979511509E+03  0.19900000000E+03 0.  0.
<mgrwt>
<rscale>  0 0.52091266E+03</rscale>
<asrwt>0</asrwt>
<pdfrwt beam="1">  1        1 0.56645879E-01 0.52091266E+03</pdfrwt>
<pdfrwt beam="2">  1       -1 0.24440238E-01 0.52091266E+03</pdfrwt>
<totfact> 0.97787610E+02</totfact>
</mgrwt>
</event>
<event>
 4    1  0.6480558E-006  0.6299478E+03  0.7818608E-02  0.9845151E-01
          1   -1    0    0  501    0  0.00000000000E+00  0.00000000000E+00  0.24628912441E+03  0.24628912446E+03  0.50400000000E-02 0. -1.
         -1   -1    0    0    0  501 -0.00000000000E+00 -0.00000000000E+00 -0.40281338423E+03  0.40281338426E+03  0.50400000000E-02 0.  1.
    5000001    1    1    2    0    0  0.91094571253E+02 -0.17967328849E+03 -0.22039420922E+03  0.35882491408E+03  0.19900000000E+03 0.  0.
   -5000001    1    1    2    0    0 -0.91094571253E+02  0.17967328849E+03  0.63869949404E+02  0.29027759463E+03  0.19900000000E+03 0.  0.
<mgrwt>
<rscale>  0 0.62994779E+03</rscale>
<asrwt>0</asrwt>
<pdfrwt beam="1">  1        1 0.35184161E-01 0.62994779E+03</pdfrwt>
<pdfrwt beam="2">  1       -1 0.57544769E-01 0.62994779E+03</pdfrwt>
<totfact> 0.38658745E+02</totfact>
</mgrwt>
</event>
<event>
 4    1  0.6480558E-006  0.7624902E+03  0.7818608E-02  0.9615956E-01
         -1   -1    0    0    0  501 -0.00000000000E+00  0.00000000000E+00  0.49514342151E+03  0.49514342154E+03  0.50400000000E-02 0. -1.
          1   -1    0    0  501    0  0.00000000000E+00 -0.00000000000E+00 -0.29354693008E+03  0.29354693012E+03  0.50400000000E-02 0.  1.
    5000001    1    1    2    0    0 -0.22875503568E+03  0.50789245781E+02 -0.13242308334E+03  0.33473166393E+03  0.19900000000E+03 0.  0.
   -5000001    1    1    2    0    0  0.22875503568E+03 -0.50789245781E+02  0.33401957477E+03  0.45395868773E+03  0.19900000000E+03 0.  0.
<mgrwt>
<rscale>  0 0.76249021E+03</rscale>
<asrwt>0</asrwt>
<pdfrwt beam="1">  1        1 0.41935276E-01 0.76249021E+03</pdfrwt>
<pdfrwt beam="2">  1       -1 0.70734774E-01 0.76249021E+03</pdfrwt>
<totfact> 0.20307734E+02</totfact>
</mgrwt>
</event>
<event>
 4    1  0.6480558E-006  0.8771999E+03  0.7818608E-02  0.9454540E-01
         -1   -1    0    0    0  501 -0.00000000000E+00  0.00000000000E+00  0.10083022005E+04  0.10083022006E+04  0.50400000000E-02 0. -1.
          1   -1    0    0  501    0  0.00000000000E+00 -0.00000000000E+00 -0.19078595351E+03  0.19078595358E+03  0.50400000000E-02 0.  1.
    5000001    1    1    2    0    0  0.39429166298E+02 -0.36690410186E+03  0.23266221251E+03  0.47948512412E+03  0.19900000000E+03 0.  0.
   -5000001    1    1    2    0    0 -0.39429166298E+02  0.36690410186E+03  0.58485403453E+03  0.71960303002E+03  0.19900000000E+03 0.  0.
<mgrwt>
<rscale>  0 0.87719986E+03</rscale>
<asrwt>0</asrwt>
<pdfrwt beam="1">  1        1 0.27255136E-01 0.87719986E+03</pdfrwt>
<pdfrwt beam="2">  1       -1 0.14404317E+00 0.87719986E+03</pdfrwt>
<totfact> 0.68450179E+01</totfact>
</mgrwt>
</event>
<event>
 4    1  0.6480558E-006  0.5531633E+03  0.7818608E-02  0.1000764E+00
         -1   -1    0    0    0  501 -0.00000000000E+00  0.00000000000E+00  0.13845006058E+04  0.13845006058E+04  0.50400000000E-02 0. -1.
          1   -1    0    0  501    0  0.00000000000E+00 -0.00000000000E+00 -0.55252706867E+02  0.55252707097E+02  0.50400000000E-02 0.  1.
    5000001    1    1    2    0    0 -0.79008612286E+02 -0.12620269116E+03  0.34876674203E+03  0.42826244339E+03  0.19900000000E+03 0.  0.
   -5000001    1    1    2    0    0  0.79008612286E+02  0.12620269116E+03  0.98048115686E+03  0.10114908695E+04  0.19900000000E+03 0.  0.
<mgrwt>
<rscale>  0 0.55316329E+03</rscale>
<asrwt>0</asrwt>
<pdfrwt beam="1">  1        1 0.78932439E-02 0.55316329E+03</pdfrwt>
<pdfrwt beam="2">  1       -1 0.19778580E+00 0.55316329E+03</pdfrwt>
<totfact> 0.15010144E+02</totfact>
</mgrwt>
</event>
<event>
 4    1  0.6480558E-006  0.6001578E+03  0.7818608E-02  0.9905079E-01
          1   -1    0    0  501    0  0.00000000000E+00  0.00000000000E+00  0.60062230749E+03  0.60062230751E+03  0.50400000000E-02 0.  1.
         -1   -1    0    0    0  501 -0.00000000000E+00 -0.00000000000E+00 -0.14992339753E+03  0.14992339761E+03  0.50400000000E-02 0. -1.
    5000001    1    1    2    0    0  0.19133748713E+03  0.55556136621E+02  0.35501132525E+03  0.45313415161E+03  0.19900000000E+03 0.  0.
   -5000001    1    1    2    0    0 -0.19133748713E+03 -0.55556136621E+02  0.95687584707E+02  0.29741155351E+03  0.19900000000E+03 0.  0.
<mgrwt>
<rscale>  0 0.60015777E+03</rscale>
<asrwt>0</asrwt>
<pdfrwt beam="1">  1        1 0.85803187E-01 0.60015777E+03</pdfrwt>
<pdfrwt beam="2">  1       -1 0.21417628E-01 0.60015777E+03</pdfrwt>
<totfact> 0.69803359E+02</totfact>
</mgrwt>
</event>
<event>
 4    1  0.6480558E-006  0.5172229E+03  0.7818608E-02  0.1009379E+00
          1   -1    0    0  501    0  0.00000000000E+00  0.00000000000E+00  0.14238325846E+04  0.14238325846E+04  0.50400000000E-02 0. -1.
         -1   -1    0    0    0  501 -0.00000000000E+00 -0.00000000000E+00 -0.46971722636E+02  0.46971722907E+02  0.50400000000E-02 0.  1.
    5000001    1    1    2    0    0 -0.13573507046E+03  0.92794728499E+02  0.73284963103E+03  0.77698420363E+03  0.19900000000E+03 0.  0.
   -5000001    1    1    2    0    0  0.13573507046E+03 -0.92794728499E+02  0.64401123096E+03  0.69382010391E+03  0.19900000000E+03 0.  0.
<mgrwt>
<rscale>  0 0.51722285E+03</rscale>
<asrwt>0</asrwt>
<pdfrwt beam="1">  1        1 0.20340463E+00 0.51722285E+03</pdfrwt>
<pdfrwt beam="2">  1       -1 0.67102469E-02 0.51722285E+03</pdfrwt>
<totfact> 0.10514581E+03</totfact>
</mgrwt>
</event>
<event>
 4    1  0.6480558E-006  0.5188993E+03  0.7818608E-02  0.1008960E+00
          1   -1    0    0  501    0  0.00000000000E+00  0.00000000000E+00  0.24394371766E+03  0.24394371771E+03  0.50400000000E-02 0. -1.
         -1   -1    0    0    0  501 -0.00000000000E+00 -0.00000000000E+00 -0.27594123844E+03  0.27594123848E+03  0.50400000000E-02 0.  1.
    5000001    1    1    2    0    0  0.77244457567E+02  0.14746602344E+03 -0.16443780047E+02  0.25996986786E+03  0.19900000000E+03 0.  0.
   -5000001    1    1    2    0    0 -0.77244457567E+02 -0.14746602344E+03 -0.15553740729E+02  0.25991508833E+03  0.19900000000E+03 0.  0.
<mgrwt>
<rscale>  0 0.51889934E+03</rscale>
<asrwt>0</asrwt>
<pdfrwt beam="1">  1        1 0.34849103E-01 0.51889934E+03</pdfrwt>
<pdfrwt beam="2">  1       -1 0.39420177E-01 0.51889934E+03</pdfrwt>
<totfact> 0.79524904E+02</totfact>
</mgrwt>
</event>
<event>
 4    1  0.6480558E-006  0.4357030E+03  0.7818608E-02  0.1032073E+00
         -1   -1    0    0    0  501 -0.00000000000E+00  0.00000000000E+00  0.10073853649E+03  0.10073853661E+03  0.50400000000E-02 0.  1.
          1   -1    0    0  501    0  0.00000000000E+00 -0.00000000000E+00 -0.47111341984E+03  0.47111341987E+03  0.50400000000E-02 0. -1.
    5000001    1    1    2    0    0  0.53038015861E+02 -0.80392479217E+01 -0.27781379835E+03  0.34591786191E+03  0.19900000000E+03 0.  0.
   -5000001    1    1    2    0    0 -0.53038015861E+02  0.80392479217E+01 -0.92561085003E+02  0.22593409457E+03  0.19900000000E+03 0.  0.
<mgrwt>
<rscale>  0 0.43570300E+03</rscale>
<asrwt>0</asrwt>
<pdfrwt beam="1">  1        1 0.67301916E-01 0.43570300E+03</pdfrwt>
<pdfrwt beam="2">  1       -1 0.14391220E-01 0.43570300E+03</pdfrwt>
<totfact> 0.18612048E+03</totfact>
</mgrwt>
</event>
<event>
 4    1  0.6480558E-006  0.4815864E+03  0.7818608E-02  0.1018700E+00
         -1   -1    0    0    0  501 -0.00000000000E+00  0.00000000000E+00  0.92636431403E+02  0.92636431540E+02  0.50400000000E-02 0. -1.
          1   -1    0    0  501    0  0.00000000000E+00 -0.00000000000E+00 -0.62590240957E+03  0.62590240959E+03  0.50400000000E-02 0.  1.
    5000001    1    1    2    0    0 -0.69534750055E+02 -0.23160687295E+02 -0.96457986253E+02  0.23297347921E+03  0.19900000000E+03 0.  0.
   -5000001    1    1    2    0    0  0.69534750055E+02  0.23160687295E+02 -0.43680799191E+03  0.48556536192E+03  0.19900000000E+03 0.  0.
<mgrwt>
<rscale>  0 0.48158640E+03</rscale>
<asrwt>0</asrwt>
<pdfrwt beam="1">  1        1 0.89414628E-01 0.48158640E+03</pdfrwt>
<pdfrwt beam="2">  1       -1 0.13233776E-01 0.48158640E+03</pdfrwt>
<totfact> 0.14472353E+03</totfact>
</mgrwt>
</event>
<event>
 4    1  0.6480558E-006  0.4223607E+03  0.7818608E-02  0.1036301E+00
          1   -1    0    0  501    0  0.00000000000E+00  0.00000000000E+00  0.29993272490E+03  0.29993272494E+03  0.50400000000E-02 0.  1.
         -1   -1    0    0    0  501 -0.00000000000E+00 -0.00000000000E+00 -0.14869050678E+03  0.14869050687E+03  0.50400000000E-02 0. -1.
    5000001    1    1    2    0    0  0.62353889679E+02 -0.15155210290E+02  0.44139317168E+02  0.21369830902E+03  0.19900000000E+03 0.  0.
   -5000001    1    1    2    0    0 -0.62353889679E+02  0.15155210290E+02  0.10710290095E+03  0.23492492279E+03  0.19900000000E+03 0.  0.
<mgrwt>
<rscale>  0 0.42236074E+03</rscale>
<asrwt>0</asrwt>
<pdfrwt beam="1">  1        1 0.42847532E-01 0.42236074E+03</pdfrwt>
<pdfrwt beam="2">  1       -1 0.21241501E-01 0.42236074E+03</pdfrwt>
<totfact> 0.17689871E+03</totfact>
</mgrwt>
</event>
<event>
 4    1  0.6480558E-006  0.4698377E+03  0.7818608E-02  0.1021966E+00
          1   -1    0    0  501    0  0.00000000000E+00  0.00000000000E+00  0.10031242747E+03  0.10031242760E+03  0.50400000000E-02 0.  1.
         -1   -1    0    0    0  501 -0.00000000000E+00 -0.00000000000E+00 -0.55014982835E+03  0.55014982838E+03  0.50400000000E-02 0. -1.
    5000001    1    1    2    0    0  0.83199615287E+02 -0.92431543839E+02 -0.20974669181E+03  0.31473868686E+03  0.19900000000E+03 0.  0.
   -5000001    1    1    2    0    0 -0.83199615287E+02  0.92431543839E+02 -0.24009070907E+03  0.33572356912E+03  0.19900000000E+03 0.  0.
<mgrwt>
<rscale>  0 0.46983769E+03</rscale>
<asrwt>0</asrwt>
<pdfrwt beam="1">  1        1 0.14330347E-01 0.46983769E+03</pdfrwt>
<pdfrwt beam="2">  1       -1 0.78592831E-01 0.46983769E+03</pdfrwt>
<totfact> 0.67118886E+02</totfact>
</mgrwt>
</event>
<event>
 4    1  0.6480558E-006  0.4888336E+03  0.7818608E-02  0.1016735E+00
          1   -1    0    0  501    0  0.00000000000E+00  0.00000000000E+00  0.21782664617E+03  0.21782664623E+03  0.50400000000E-02 0.  1.
         -1   -1    0    0    0  501 -0.00000000000E+00 -0.00000000000E+00 -0.27425278754E+03  0.27425278759E+03  0.50400000000E-02 0. -1.
    5000001    1    1    2    0    0  0.72389643164E+02 -0.12201920276E+03 -0.25091080836E+02  0.24568172219E+03  0.19900000000E+03 0.  0.
   -5000001    1    1    2    0    0 -0.72389643164E+02  0.12201920276E+03 -0.31335060534E+02  0.24639771163E+03  0.19900000000E+03 0.  0.
<mgrwt>
<rscale>  0 0.48883357E+03</rscale>
<asrwt>0</asrwt>
<pdfrwt beam="1">  1        1 0.31118093E-01 0.48883357E+03</pdfrwt>
<pdfrwt beam="2">  1       -1 0.39178969E-01 0.48883357E+03</pdfrwt>
<totfact> 0.93003149E+02</totfact>
</mgrwt>
</event>
<event>
 4    1  0.6480558E-006  0.4853066E+03  0.7818608E-02  0.1017687E+00
          1   -1    0    0  501    0  0.00000000000E+00  0.00000000000E+00  0.68733740264E+03  0.68733740266E+03  0.50400000000E-02 0.  1.
         -1   -1    0    0    0  501 -0.00000000000E+00 -0.00000000000E+00 -0.85664787668E+02  0.85664787816E+02  0.50400000000E-02 0. -1.
    5000001    1    1    2    0    0 -0.70518670079E+02  0.11751962770E+03  0.33630516253E+03  0.41410857038E+03  0.19900000000E+03 0.  0.
   -5000001    1    1    2    0    0  0.70518670079E+02 -0.11751962770E+03  0.26536745245E+03  0.35889362009E+03  0.19900000000E+03 0.  0.
<mgrwt>
<rscale>  0 0.48530655E+03</rscale>
<asrwt>0</asrwt>
<pdfrwt beam="1">  1        1 0.98191054E-01 0.48530655E+03</pdfrwt>
<pdfrwt beam="2">  1       -1 0.12237827E-01 0.48530655E+03</pdfrwt>
<totfact> 0.14345073E+03</totfact>
</mgrwt>
</event>
<event>
 4    1  0.6480558E-006  0.1774312E+04  0.7818608E-02  0.8720080E-01
          1   -1    0    0  501    0  0.00000000000E+00  0.00000000000E+00  0.73751373747E+03  0.73751373749E+03  0.50400000000E-02 0. -1.
         -1   -1    0    0    0  501 -0.00000000000E+00 -0.00000000000E+00 -0.10671611867E+04  0.10671611867E+04  0.50400000000E-02 0.  1.
    5000001    1    1    2    0    0 -0.55310227278E+03  0.37697800981E+03  0.39172402033E+03  0.80067674634E+03  0.19900000000E+03 0.  0.
   -5000001    1    1    2    0    0  0.55310227278E+03 -0.37697800981E+03 -0.72137146952E+03  0.10039981778E+04  0.19900000000E+03 0.  0.
<mgrwt>
<rscale>  0 0.17743123E+04</rscale>
<asrwt>0</asrwt>
<pdfrwt beam="1">  1        1 0.10535911E+00 0.17743123E+04</pdfrwt>
<pdfrwt beam="2">  1       -1 0.15245160E+00 0.17743123E+04</pdfrwt>
<totfact> 0.89263682E+00</totfact>
</mgrwt>
</event>
<event>
 4    1  0.6480558E-006  0.5839795E+03  0.7818608E-02  0.9939212E-01
          1   -1    0    0  501    0  0.00000000000E+00  0.00000000000E+00  0.55090113176E+03  0.55090113179E+03  0.50400000000E-02 0.  1.
         -1   -1    0    0    0  501 -0.00000000000E+00 -0.00000000000E+00 -0.15476103223E+03  0.15476103231E+03  0.50400000000E-02 0. -1.
    5000001    1    1    2    0    0  0.24882832360E+02 -0.21000943939E+03  0.23499766075E+03  0.37356126745E+03  0.19900000000E+03 0.  0.
   -5000001    1    1    2    0    0 -0.24882832360E+02  0.21000943939E+03  0.16114243879E+03  0.33210089665E+03  0.19900000000E+03 0.  0.
<mgrwt>
<rscale>  0 0.58397955E+03</rscale>
<asrwt>0</asrwt>
<pdfrwt beam="1">  1        1 0.78700163E-01 0.58397955E+03</pdfrwt>
<pdfrwt beam="2">  1       -1 0.22108719E-01 0.58397955E+03</pdfrwt>
<totfact> 0.74640098E+02</totfact>
</mgrwt>
</event>
<event>
 4    1  0.6480558E-006  0.6119433E+03  0.7818608E-02  0.9880933E-01
         -1   -1    0    0    0  501 -0.00000000000E+00  0.00000000000E+00  0.13161624521E+04  0.13161624521E+04  0.50400000000E-02 0. -1.
          1   -1    0    0  501    0  0.00000000000E+00 -0.00000000000E+00 -0.71130009212E+02  0.71130009390E+02  0.50400000000E-02 0.  1.
    5000001    1    1    2    0    0  0.11869240926E+03  0.92138348935E+02  0.10244921809E+04  0.10544015326E+04  0.19900000000E+03 0.  0.
   -5000001    1    1    2    0    0 -0.11869240926E+03 -0.92138348935E+02  0.22054026207E+03  0.33289092892E+03  0.19900000000E+03 0.  0.
<mgrwt>
<rscale>  0 0.61194329E+03</rscale>
<asrwt>0</asrwt>
<pdfrwt beam="1">  1        1 0.10161431E-01 0.61194329E+03</pdfrwt>
<pdfrwt beam="2">  1       -1 0.18802319E+00 0.61194329E+03</pdfrwt>
<totfact> 0.12319321E+02</totfact>
</mgrwt>
</event>
<event>
 4    1  0.6480558E-006  0.5141298E+03  0.7818608E-02  0.1010155E+00
         -1   -1    0    0    0  501 -0.00000000000E+00  0.00000000000E+00  0.58895859381E+02  0.58895859597E+02  0.50400000000E-02 0.  1.
          1   -1    0    0  501    0  0.00000000000E+00 -0.00000000000E+00 -0.11220204470E+04  0.11220204471E+04  0.50400000000E-02 0. -1.
    5000001    1    1    2    0    0 -0.65782828949E+02 -0.37293317106E+02 -0.86253589772E+03  0.88841845261E+03  0.19900000000E+03 0.  0.
   -5000001    1    1    2    0    0  0.65782828949E+02  0.37293317106E+02 -0.20058868994E+03  0.29249785404E+03  0.19900000000E+03 0.  0.
<mgrwt>
<rscale>  0 0.51412978E+03</rscale>
<asrwt>0</asrwt>
<pdfrwt beam="1">  1        1 0.16028862E+00 0.51412978E+03</pdfrwt>
<pdfrwt beam="2">  1       -1 0.84136949E-02 0.51412978E+03</pdfrwt>
<totfact> 0.11793967E+03</totfact>
</mgrwt>
</event>
<event>
 4    1  0.6480558E-006  0.5343128E+03  0.7818608E-02  0.1005192E+00
          1   -1    0    0  501    0  0.00000000000E+00  0.00000000000E+00  0.17801165375E+03  0.17801165383E+03  0.50400000000E-02 0. -1.
         -1   -1    0    0    0  501 -0.00000000000E+00 -0.00000000000E+00 -0.40094309232E+03  0.40094309236E+03  0.50400000000E-02 0.  1.
    5000001    1    1    2    0    0  0.15668950173E+03 -0.75293644167E+02 -0.68795158056E+02  0.27304671135E+03  0.19900000000E+03 0.  0.
   -5000001    1    1    2    0    0 -0.15668950173E+03  0.75293644167E+02 -0.15413628051E+03  0.30590803483E+03  0.19900000000E+03 0.  0.
<mgrwt>
<rscale>  0 0.53431280E+03</rscale>
<asrwt>0</asrwt>
<pdfrwt beam="1">  1        1 0.25430236E-01 0.53431280E+03</pdfrwt>
<pdfrwt beam="2">  1       -1 0.57277584E-01 0.53431280E+03</pdfrwt>
<totfact> 0.59484192E+02</totfact>
</mgrwt>
</event>
<event>
 4    1  0.6480558E-006  0.5264339E+03  0.7818608E-02  0.1007101E+00
         -1   -1    0    0    0  501 -0.00000000000E+00  0.00000000000E+00  0.21271644328E+03  0.21271644334E+03  0.50400000000E-02 0. -1.
          1   -1    0    0  501    0  0.00000000000E+00 -0.00000000000E+00 -0.32570663699E+03  0.32570663703E+03  0.50400000000E-02 0.  1.
    5000001    1    1    2    0    0 -0.86026471104E+02  0.14473896512E+03 -0.93826160299E+02  0.27704561017E+03  0.19900000000E+03 0.  0.
   -5000001    1    1    2    0    0  0.86026471104E+02 -0.14473896512E+03 -0.19164033412E+02  0.26137747021E+03  0.19900000000E+03 0.  0.
<mgrwt>
<rscale>  0 0.52643388E+03</rscale>
<asrwt>0</asrwt>
<pdfrwt beam="1">  1        1 0.46529520E-01 0.52643388E+03</pdfrwt>
<pdfrwt beam="2">  1       -1 0.30388063E-01 0.52643388E+03</pdfrwt>
<totfact> 0.86888631E+02</totfact>
</mgrwt>
</event>
<event>
 4    1  0.6480558E-006  0.4572538E+03  0.7818608E-02  0.1025581E+00
         -1   -1    0    0    0  501 -0.00000000000E+00  0.00000000000E+00  0.55294358970E+02  0.55294359199E+02  0.50400000000E-02 0. -1.
          1   -1    0    0  501    0  0.00000000000E+00 -0.00000000000E+00 -0.94530896282E+03  0.94530896284E+03  0.50400000000E-02 0.  1.
    5000001    1    1    2    0    0 -0.35586446291E+02 -0.94592974151E+02 -0.33658145871E+03  0.40385926295E+03  0.19900000000E+03 0.  0.
   -5000001    1    1    2    0    0  0.35586446291E+02  0.94592974151E+02 -0.55343314514E+03  0.59674405909E+03  0.19900000000E+03 0.  0.
<mgrwt>
<rscale>  0 0.45725377E+03</rscale>
<asrwt>0</asrwt>
<pdfrwt beam="1">  1        1 0.13504413E+00 0.45725377E+03</pdfrwt>
<pdfrwt beam="2">  1       -1 0.78991947E-02 0.45725377E+03</pdfrwt>
<totfact> 0.17482995E+03</totfact>
</mgrwt>
</event>
<event>
 4    1  0.6480558E-006  0.9220207E+03  0.7818608E-02  0.9398465E-01
          1   -1    0    0  501    0  0.00000000000E+00  0.00000000000E+00  0.50655987953E+03  0.50655987955E+03  0.50400000000E-02 0. -1.
         -1   -1    0    0    0  501 -0.00000000000E+00 -0.00000000000E+00 -0.41955664289E+03  0.41955664292E+03  0.50400000000E-02 0.  1.
    5000001    1    1    2    0    0 -0.41307759539E+03  0.42474834396E+02  0.65789172541E+02  0.46515204675E+03  0.19900000000E+03 0.  0.
   -5000001    1    1    2    0    0  0.41307759539E+03 -0.42474834396E+02  0.21214064094E+02  0.46096447573E+03  0.19900000000E+03 0.  0.
<mgrwt>
<rscale>  0 0.92202074E+03</rscale>
<asrwt>0</asrwt>
<pdfrwt beam="1">  1        1 0.72365697E-01 0.92202074E+03</pdfrwt>
<pdfrwt beam="2">  1       -1 0.59936664E-01 0.92202074E+03</pdfrwt>
<totfact> 0.13697943E+02</totfact>
</mgrwt>
</event>
<event>
 4    1  0.6480558E-006  0.6769497E+03  0.7818608E-02  0.9757484E-01
          1   -1    0    0  501    0  0.00000000000E+00  0.00000000000E+00  0.99163637610E+03  0.99163637612E+03  0.50400000000E-02 0.  1.
         -1   -1    0    0    0  501 -0.00000000000E+00 -0.00000000000E+00 -0.11553149428E+03  0.11553149439E+03  0.50400000000E-02 0. -1.
    5000001    1    1    2    0    0 -0.10195673489E+03 -0.24862320888E+03  0.52390667661E+03  0.62152062040E+03  0.19900000000E+03 0.  0.
   -5000001    1    1    2    0    0  0.10195673489E+03  0.24862320888E+03  0.35219820521E+03  0.48564725011E+03  0.19900000000E+03 0.  0.
<mgrwt>
<rscale>  0 0.67694972E+03</rscale>
<asrwt>0</asrwt>
<pdfrwt beam="1">  1        1 0.14166234E+00 0.67694972E+03</pdfrwt>
<pdfrwt beam="2">  1       -1 0.16504500E-01 0.67694972E+03</pdfrwt>
<totfact> 0.49750958E+02</totfact>
</mgrwt>
</event>
<event>
 4    1  0.6480558E-006  0.8197315E+03  0.7818608E-02  0.9531888E-01
         -1   -1    0    0    0  501 -0.00000000000E+00  0.00000000000E+00  0.97246975711E+02  0.97246975841E+02  0.50400000000E-02 0. -1.
          1   -1    0    0  501    0  0.00000000000E+00 -0.00000000000E+00 -0.17274566815E+04  0.17274566815E+04  0.50400000000E-02 0.  1.
    5000001    1    1    2    0    0  0.27505203101E+02  0.63545665875E+02 -0.32540572076E+02  0.21320055507E+03  0.19900000000E+03 0.  0.
   -5000001    1    1    2    0    0 -0.27505203101E+02 -0.63545665875E+02 -0.15976691337E+04  0.16115031023E+04  0.19900000000E+03 0.  0.
<mgrwt>
<rscale>  0 0.81973151E+03</rscale>
<asrwt>0</asrwt>
<pdfrwt beam="1">  1        1 0.24677951E+00 0.81973151E+03</pdfrwt>
<pdfrwt beam="2">  1       -1 0.13892426E-01 0.81973151E+03</pdfrwt>
<totfact> 0.20980236E+02</totfact>
</mgrwt>
</event>
<event>
 4    1  0.6480558E-006  0.6230550E+03  0.7818608E-02  0.9858696E-01
         -1   -1    0    0    0  501 -0.00000000000E+00  0.00000000000E+00  0.70479455624E+03  0.70479455625E+03  0.50400000000E-02 0. -1.
          1   -1    0    0  501    0  0.00000000000E+00 -0.00000000000E+00 -0.13769882751E+03  0.13769882761E+03  0.50400000000E-02 0.  1.
    5000001    1    1    2    0    0 -0.19450937954E+03 -0.36408654975E+02  0.10068149302E+03  0.29815642190E+03  0.19900000000E+03 0.  0.
   -5000001    1    1    2    0    0  0.19450937954E+03  0.36408654975E+02  0.46641423570E+03  0.54433696196E+03  0.19900000000E+03 0.  0.
<mgrwt>
<rscale>  0 0.62305500E+03</rscale>
<asrwt>0</asrwt>
<pdfrwt beam="1">  1        1 0.19671262E-01 0.62305500E+03</pdfrwt>
<pdfrwt beam="2">  1       -1 0.10068493E+00 0.62305500E+03</pdfrwt>
<totfact> 0.25563911E+02</totfact>
</mgrwt>
</event>
<event>
 4    1  0.6480558E-006  0.5587235E+03  0.7818608E-02  0.9994947E-01
          1   -1    0    0  501    0  0.00000000000E+00  0.00000000000E+00  0.35060612533E+03  0.35060612537E+03  0.50400000000E-02 0.  1.
         -1   -1    0    0    0  501 -0.00000000000E+00 -0.00000000000E+00 -0.22259446439E+03  0.22259446445E+03  0.50400000000E-02 0. -1.
    5000001    1    1    2    0    0  0.39826813937E+02 -0.19154147354E+03  0.77290150943E+02  0.28956705377E+03  0.19900000000E+03 0.  0.
   -5000001    1    1    2    0    0 -0.39826813937E+02  0.19154147354E+03  0.50721509992E+02  0.28363353605E+03  0.19900000000E+03 0.  0.
<mgrwt>
<rscale>  0 0.55872348E+03</rscale>
<asrwt>0</asrwt>
<pdfrwt beam="1">  1        1 0.50086589E-01 0.55872348E+03</pdfrwt>
<pdfrwt beam="2">  1       -1 0.31799209E-01 0.55872348E+03</pdfrwt>
<totfact> 0.72987537E+02</totfact>
</mgrwt>
</event>
<event>
 4    1  0.6480558E-006  0.5076754E+03  0.7818608E-02  0.1011795E+00
         -1   -1    0    0    0  501 -0.00000000000E+00  0.00000000000E+00  0.54604292593E+02  0.54604292826E+02  0.50400000000E-02 0. -1.
          1   -1    0    0  501    0  0.00000000000E+00 -0.00000000000E+00 -0.11800093376E+04  0.11800093376E+04  0.50400000000E-02 0.  1.
    5000001    1    1    2    0    0 -0.12979340843E+03 -0.43001082804E+02 -0.37218784404E+03  0.44364424176E+03  0.19900000000E+03 0.  0.
   -5000001    1    1    2    0    0  0.12979340843E+03  0.43001082804E+02 -0.75321720096E+03  0.79096938867E+03  0.19900000000E+03 0.  0.
<mgrwt>
<rscale>  0 0.50767539E+03</rscale>
<asrwt>0</asrwt>
<pdfrwt beam="1">  1        1 0.16857275E+00 0.50767539E+03</pdfrwt>
<pdfrwt beam="2">  1       -1 0.78006140E-02 0.50767539E+03</pdfrwt>
<totfact> 0.12096893E+03</totfact>
</mgrwt>
</event>
<event>
 4    1  0.6480558E-006  0.5876338E+03  0.7818608E-02  0.9931399E-01
          1   -1    0    0  501    0  0.00000000000E+00  0.00000000000E+00  0.24847197832E+04  0.24847197832E+04  0.50400000000E-02 0.  1.
         -1   -1    0    0    0  501 -0.00000000000E+00 -0.00000000000E+00 -0.34743704955E+02  0.34743705321E+02  0.50400000000E-02 0. -1.
    5000001    1    1    2    0    0 -0.20667274240E+03 -0.66996114046E+01  0.14950941578E+04  0.15223882711E+04  0.19900000000E+03 0.  0.
   -5000001    1    1    2    0    0  0.20667274240E+03  0.66996114046E+01  0.95488192042E+03  0.99707521742E+03  0.19900000000E+03 0.  0.
<mgrwt>
<rscale>  0 0.58763380E+03</rscale>
<asrwt>0</asrwt>
<pdfrwt beam="1">  1        1 0.35495989E+00 0.58763380E+03</pdfrwt>
<pdfrwt beam="2">  1       -1 0.49633876E-02 0.58763380E+03</pdfrwt>
<totfact> 0.36339705E+02</totfact>
</mgrwt>
</event>
<event>
 4    1  0.6480558E-006  0.5533426E+03  0.7818608E-02  0.1000723E+00
         -1   -1    0    0    0  501 -0.00000000000E+00  0.00000000000E+00  0.88336326937E+02  0.88336327081E+02  0.50400000000E-02 0. -1.
          1   -1    0    0  501    0  0.00000000000E+00 -0.00000000000E+00 -0.86654047668E+03  0.86654047669E+03  0.50400000000E-02 0.  1.
    5000001    1    1    2    0    0 -0.17435605296E+03  0.51836671963E+02 -0.49630006813E+03  0.56480247112E+03  0.19900000000E+03 0.  0.
   -5000001    1    1    2    0    0  0.17435605296E+03 -0.51836671963E+02 -0.28190408161E+03  0.39007433265E+03  0.19900000000E+03 0.  0.
<mgrwt>
<rscale>  0 0.55334258E+03</rscale>
<asrwt>0</asrwt>
<pdfrwt beam="1">  1        1 0.12379149E+00 0.55334258E+03</pdfrwt>
<pdfrwt beam="2">  1       -1 0.12619476E-01 0.55334258E+03</pdfrwt>
<totfact> 0.96176037E+02</totfact>
</mgrwt>
</event>
<event>
 4    1  0.6480558E-006  0.5142970E+03  0.7818608E-02  0.1010113E+00
         -1   -1    0    0    0  501 -0.00000000000E+00  0.00000000000E+00  0.13526973036E+03  0.13526973045E+03  0.50400000000E-02 0. -1.
          1   -1    0    0  501    0  0.00000000000E+00 -0.00000000000E+00 -0.48884061793E+03  0.48884061795E+03  0.50400000000E-02 0.  1.
    5000001    1    1    2    0    0  0.35533255761E+02 -0.15873996077E+03 -0.18644428119E+03  0.31752709711E+03  0.19900000000E+03 0.  0.
   -5000001    1    1    2    0    0 -0.35533255761E+02  0.15873996077E+03 -0.16712660638E+03  0.30658325129E+03  0.19900000000E+03 0.  0.
<mgrwt>
<rscale>  0 0.51429695E+03</rscale>
<asrwt>0</asrwt>
<pdfrwt beam="1">  1        1 0.69834373E-01 0.51429695E+03</pdfrwt>
<pdfrwt beam="2">  1       -1 0.19324248E-01 0.51429695E+03</pdfrwt>
<totfact> 0.10982924E+03</totfact>
</mgrwt>
</event>
<event>
 4    1  0.6480558E-006  0.5722021E+03  0.7818608E-02  0.9964818E-01
          1   -1    0    0  501    0  0.00000000000E+00  0.00000000000E+00  0.13389483304E+03  0.13389483314E+03  0.50400000000E-02 0.  1.
         -1   -1    0    0    0  501 -0.00000000000E+00 -0.00000000000E+00 -0.61132906525E+03  0.61132906527E+03  0.50400000000E-02 0. -1.
    5000001    1    1    2    0    0  0.19274374751E+03 -0.27791331918E+02 -0.15301412491E+03  0.31770557558E+03  0.19900000000E+03 0.  0.
   -5000001    1    1    2    0    0 -0.19274374751E+03  0.27791331918E+02 -0.32442010729E+03  0.42751832282E+03  0.19900000000E+03 0.  0.
<mgrwt>
<rscale>  0 0.57220207E+03</rscale>
<asrwt>0</asrwt>
<pdfrwt beam="1">  1        1 0.19127834E-01 0.57220207E+03</pdfrwt>
<pdfrwt beam="2">  1       -1 0.87332722E-01 0.57220207E+03</pdfrwt>
<totfact> 0.36444920E+02</totfact>
</mgrwt>
</event>
<event>
 4    1  0.6480558E-006  0.1397961E+04  0.7818608E-02  0.8955296E-01
          1   -1    0    0  501    0  0.00000000000E+00  0.00000000000E+00  0.18600624685E+04  0.18600624685E+04  0.50400000000E-02 0.  1.
         -1   -1    0    0    0  501 -0.00000000000E+00 -0.00000000000E+00 -0.26266507858E+03  0.26266507863E+03  0.50400000000E-02 0. -1.
    5000001    1    1    2    0    0  0.38942056425E+03 -0.54500225719E+03  0.77254709357E+03  0.10416841402E+04  0.19900000000E+03 0.  0.
   -5000001    1    1    2    0    0 -0.38942056425E+03  0.54500225719E+03  0.82485029630E+03  0.10810434069E+04  0.19900000000E+03 0.  0.
<mgrwt>
<rscale>  0 0.13979606E+04</rscale>
<asrwt>0</asrwt>
<pdfrwt beam="1">  1        1 0.26572322E+00 0.13979606E+04</pdfrwt>
<pdfrwt beam="2">  1       -1 0.37523581E-01 0.13979606E+04</pdfrwt>
<totfact> 0.30513833E+01</totfact>
</mgrwt>
</event>
<event>
 4    1  0.6480558E-006  0.1093696E+04  0.7818608E-02  0.9211358E-01
         -1   -1    0    0    0  501 -0.00000000000E+00  0.00000000000E+00  0.37209844230E+03  0.37209844233E+03  0.50400000000E-02 0. -1.
          1   -1    0    0  501    0  0.00000000000E+00 -0.00000000000E+00 -0.80366522988E+03  0.80366522990E+03  0.50400000000E-02 0.  1.
    5000001    1    1    2    0    0  0.41755436864E+03 -0.28214960107E+03 -0.29537632610E+03  0.61709660684E+03  0.19900000000E+03 0.  0.
   -5000001    1    1    2    0    0 -0.41755436864E+03  0.28214960107E+03 -0.13619046149E+03  0.55866706539E+03  0.19900000000E+03 0.  0.
<mgrwt>
<rscale>  0 0.10936957E+04</rscale>
<asrwt>0</asrwt>
<pdfrwt beam="1">  1        1 0.11480932E+00 0.10936957E+04</pdfrwt>
<pdfrwt beam="2">  1       -1 0.53156921E-01 0.10936957E+04</pdfrwt>
<totfact> 0.87862008E+01</totfact>
</mgrwt>
</event>
<event>
 4    1  0.6480558E-006  0.5331756E+03  0.7818608E-02  0.1005465E+00
          1   -1    0    0  501    0  0.00000000000E+00  0.00000000000E+00  0.80054280451E+03  0.80054280453E+03  0.50400000000E-02 0. -1.
         -1   -1    0    0    0  501 -0.00000000000E+00 -0.00000000000E+00 -0.88776092524E+02  0.88776092667E+02  0.50400000000E-02 0.  1.
    5000001    1    1    2    0    0 -0.80509734790E+02 -0.14127602934E+03  0.23761845950E+03  0.35000609445E+03  0.19900000000E+03 0.  0.
   -5000001    1    1    2    0    0  0.80509734790E+02  0.14127602934E+03  0.47414825249E+03  0.53931280274E+03  0.19900000000E+03 0.  0.
<mgrwt>
<rscale>  0 0.53317563E+03</rscale>
<asrwt>0</asrwt>
<pdfrwt beam="1">  1        1 0.11436326E+00 0.53317563E+03</pdfrwt>
<pdfrwt beam="2">  1       -1 0.12682299E-01 0.53317563E+03</pdfrwt>
<totfact> 0.10798699E+03</totfact>
</mgrwt>
</event>
<event>
 4    1  0.6480558E-006  0.4880090E+03  0.7818608E-02  0.1016957E+00
         -1   -1    0    0    0  501 -0.00000000000E+00  0.00000000000E+00  0.19089908360E+03  0.19089908367E+03  0.50400000000E-02 0. -1.
          1   -1    0    0  501    0  0.00000000000E+00 -0.00000000000E+00 -0.31188307308E+03  0.31188307312E+03  0.50400000000E-02 0.  1.
    5000001    1    1    2    0    0  0.54911666705E+02  0.12981743626E+03 -0.51913161959E+02  0.24932676207E+03  0.19900000000E+03 0.  0.
   -5000001    1    1    2    0    0 -0.54911666705E+02 -0.12981743626E+03 -0.69070827525E+02  0.25345539472E+03  0.19900000000E+03 0.  0.
<mgrwt>
<rscale>  0 0.48800899E+03</rscale>
<asrwt>0</asrwt>
<pdfrwt beam="1">  1        1 0.44554725E-01 0.48800899E+03</pdfrwt>
<pdfrwt beam="2">  1       -1 0.27271298E-01 0.48800899E+03</pdfrwt>
<totfact> 0.11067869E+03</totfact>
</mgrwt>
</event>
<event>
 4    1  0.6480558E-006  0.8050983E+03  0.7818608E-02  0.9552667E-01
         -1   -1    0    0    0  501 -0.00000000000E+00  0.00000000000E+00  0.27538628458E+03  0.27538628463E+03  0.50400000000E-02 0. -1.
          1   -1    0    0  501    0  0.00000000000E+00 -0.00000000000E+00 -0.58843093907E+03  0.58843093909E+03  0.50400000000E-02 0.  1.
    5000001    1    1    2    0    0  0.45977906960E+02 -0.32343021393E+03 -0.21982498157E+02  0.38315179947E+03  0.19900000000E+03 0.  0.
   -5000001    1    1    2    0    0 -0.45977906960E+02  0.32343021393E+03 -0.29106215633E+03  0.48066542424E+03  0.19900000000E+03 0.  0.
<mgrwt>
<rscale>  0 0.80509828E+03</rscale>
<asrwt>0</asrwt>
<pdfrwt beam="1">  1        1 0.84061562E-01 0.80509828E+03</pdfrwt>
<pdfrwt beam="2">  1       -1 0.39340898E-01 0.80509828E+03</pdfrwt>
<totfact> 0.24813544E+02</totfact>
</mgrwt>
</event>
<event>
 4    1  0.6480558E-006  0.5528911E+03  0.7818608E-02  0.1000827E+00
          1   -1    0    0  501    0  0.00000000000E+00  0.00000000000E+00  0.10384684221E+04  0.10384684222E+04  0.50400000000E-02 0. -1.
         -1   -1    0    0    0  501 -0.00000000000E+00 -0.00000000000E+00 -0.73591197423E+02  0.73591197595E+02  0.50400000000E-02 0.  1.
    5000001    1    1    2    0    0  0.19859740620E+02  0.14757202535E+03  0.23899645653E+03  0.34480750891E+03  0.19900000000E+03 0.  0.
   -5000001    1    1    2    0    0 -0.19859740620E+02 -0.14757202535E+03  0.72588076819E+03  0.76725211084E+03  0.19900000000E+03 0.  0.
<mgrwt>
<rscale>  0 0.55289107E+03</rscale>
<asrwt>0</asrwt>
<pdfrwt beam="1">  1        1 0.14835262E+00 0.55289107E+03</pdfrwt>
<pdfrwt beam="2">  1       -1 0.10513029E-01 0.55289107E+03</pdfrwt>
<totfact> 0.95261882E+02</totfact>
</mgrwt>
</event>
<event>
 4    1  0.6480558E-006  0.4869853E+03  0.7818608E-02  0.1017233E+00
         -1   -1    0    0    0  501 -0.00000000000E+00  0.00000000000E+00  0.37357943559E+02  0.37357943899E+02  0.50400000000E-02 0.  1.
          1   -1    0    0  501    0  0.00000000000E+00 -0.00000000000E+00 -0.15870432142E+04  0.15870432142E+04  0.50400000000E-02 0. -1.
    5000001    1    1    2    0    0 -0.45893487588E+02 -0.67680627272E+02 -0.39451110145E+03  0.44936275844E+03  0.19900000000E+03 0.  0.
   -5000001    1    1    2    0    0  0.45893487588E+02  0.67680627272E+02 -0.11551741692E+04  0.11750383996E+04  0.19900000000E+03 0.  0.
<mgrwt>
<rscale>  0 0.48698530E+03</rscale>
<asrwt>0</asrwt>
<pdfrwt beam="1">  1        1 0.22672042E+00 0.48698530E+03</pdfrwt>
<pdfrwt beam="2">  1       -1 0.53368501E-02 0.48698530E+03</pdfrwt>
<totfact> 0.11771420E+03</totfact>
</mgrwt>
</event>
<event>
 4    1  0.6480558E-006  0.6087809E+03  0.7818608E-02  0.9887354E-01
         -1   -1    0    0    0  501 -0.00000000000E+00  0.00000000000E+00  0.57392309598E+03  0.57392309600E+03  0.50400000000E-02 0. -1.
          1   -1    0    0  501    0  0.00000000000E+00 -0.00000000000E+00 -0.16143896793E+03  0.16143896801E+03  0.50400000000E-02 0.  1.
    5000001    1    1    2    0    0  0.77203178631E+02  0.15761029547E+03  0.26057714491E+02  0.26661084095E+03  0.19900000000E+03 0.  0.
   -5000001    1    1    2    0    0 -0.77203178631E+02 -0.15761029547E+03  0.38642641355E+03  0.46875122306E+03  0.19900000000E+03 0.  0.
<mgrwt>
<rscale>  0 0.60878092E+03</rscale>
<asrwt>0</asrwt>
<pdfrwt beam="1">  1        1 0.23062710E-01 0.60878092E+03</pdfrwt>
<pdfrwt beam="2">  1       -1 0.81989014E-01 0.60878092E+03</pdfrwt>
<totfact> 0.32597820E+02</totfact>
</mgrwt>
</event>
<event>
 4    1  0.6480558E-006  0.7218289E+03  0.7818608E-02  0.9680613E-01
          1   -1    0    0  501    0  0.00000000000E+00  0.00000000000E+00  0.34142967887E+03  0.34142967891E+03  0.50400000000E-02 0.  1.
         -1   -1    0    0    0  501 -0.00000000000E+00 -0.00000000000E+00 -0.38151118427E+03  0.38151118431E+03  0.50400000000E-02 0. -1.
    5000001    1    1    2    0    0  0.22919254273E+03  0.18394703345E+03  0.45577412490E+02  0.35783240950E+03  0.19900000000E+03 0.  0.
   -5000001    1    1    2    0    0 -0.22919254273E+03 -0.18394703345E+03 -0.85658917892E+02  0.36510845372E+03  0.19900000000E+03 0.  0.
<mgrwt>
<rscale>  0 0.72182890E+03</rscale>
<asrwt>0</asrwt>
<pdfrwt beam="1">  1        1 0.48775668E-01 0.72182890E+03</pdfrwt>
<pdfrwt beam="2">  1       -1 0.54501598E-01 0.72182890E+03</pdfrwt>
<totfact> 0.28072602E+02</totfact>
</mgrwt>
</event>
<event>
 4    1  0.6480558E-006  0.6126967E+03  0.7818608E-02  0.9879409E-01
         -1   -1    0    0    0  501 -0.00000000000E+00  0.00000000000E+00  0.45214585411E+03  0.45214585413E+03  0.50400000000E-02 0. -1.
          1   -1    0    0  501    0  0.00000000000E+00 -0.00000000000E+00 -0.20756423148E+03  0.20756423155E+03  0.50400000000E-02 0.  1.
    5000001    1    1    2    0    0  0.20474027145E+02 -0.20041223814E+03  0.24815361638E+03  0.37651755378E+03  0.19900000000E+03 0.  0.
   -5000001    1    1    2    0    0 -0.20474027145E+02  0.20041223814E+03 -0.35719937563E+01  0.28319253190E+03  0.19900000000E+03 0.  0.
<mgrwt>
<rscale>  0 0.61269668E+03</rscale>
<asrwt>0</asrwt>
<pdfrwt beam="1">  1        1 0.29652033E-01 0.61269668E+03</pdfrwt>
<pdfrwt beam="2">  1       -1 0.64592265E-01 0.61269668E+03</pdfrwt>
<totfact> 0.38415896E+02</totfact>
</mgrwt>
</event>
<event>
 4    1  0.6480558E-006  0.5319985E+03  0.7818608E-02  0.1005749E+00
          1   -1    0    0  501    0  0.00000000000E+00  0.00000000000E+00  0.44538077195E+03  0.44538077198E+03  0.50400000000E-02 0. -1.
         -1   -1    0    0    0  501 -0.00000000000E+00 -0.00000000000E+00 -0.15886542426E+03  0.15886542434E+03  0.50400000000E-02 0.  1.
    5000001    1    1    2    0    0  0.15893579022E+03  0.76689282421E+02  0.13919824584E+03  0.30019823966E+03  0.19900000000E+03 0.  0.
   -5000001    1    1    2    0    0 -0.15893579022E+03 -0.76689282421E+02  0.14731710186E+03  0.30404795666E+03  0.19900000000E+03 0.  0.
<mgrwt>
<rscale>  0 0.53199852E+03</rscale>
<asrwt>0</asrwt>
<pdfrwt beam="1">  1        1 0.63625825E-01 0.53199852E+03</pdfrwt>
<pdfrwt beam="2">  1       -1 0.22695061E-01 0.53199852E+03</pdfrwt>
<totfact> 0.95119063E+02</totfact>
</mgrwt>
</event>
<event>
 4    1  0.6480558E-006  0.1310632E+04  0.7818608E-02  0.9021176E-01
          1   -1    0    0  501    0  0.00000000000E+00  0.00000000000E+00  0.11128667843E+04  0.11128667843E+04  0.50400000000E-02 0.  1.
         -1   -1    0    0    0  501 -0.00000000000E+00 -0.00000000000E+00 -0.38588567410E+03  0.38588567413E+03  0.50400000000E-02 0. -1.
    5000001    1    1    2    0    0  0.31484228977E+03 -0.53865524592E+03  0.39062890023E+03  0.76253988688E+03  0.19900000000E+03 0.  0.
   -5000001    1    1    2    0    0 -0.31484228977E+03  0.53865524592E+03  0.33635220997E+03  0.73621257157E+03  0.19900000000E+03 0.  0.
<mgrwt>
<rscale>  0 0.13106324E+04</rscale>
<asrwt>0</asrwt>
<pdfrwt beam="1">  1        1 0.15898097E+00 0.13106324E+04</pdfrwt>
<pdfrwt beam="2">  1       -1 0.55126525E-01 0.13106324E+04</pdfrwt>
<totfact> 0.46603677E+01</totfact>
</mgrwt>
</event>
<event>
 4    1  0.6480558E-006  0.6017832E+03  0.7818608E-02  0.9901713E-01
          1   -1    0    0  501    0  0.00000000000E+00  0.00000000000E+00  0.13275682826E+04  0.13275682826E+04  0.50400000000E-02 0.  1.
         -1   -1    0    0    0  501 -0.00000000000E+00 -0.00000000000E+00 -0.68196680343E+02  0.68196680529E+02  0.50400000000E-02 0. -1.
    5000001    1    1    2    0    0 -0.18796088919E+03 -0.91961396632E+02  0.82578751741E+03  0.87482124931E+03  0.19900000000E+03 0.  0.
   -5000001    1    1    2    0    0  0.18796088919E+03  0.91961396632E+02  0.43358408481E+03  0.52094371379E+03  0.19900000000E+03 0.  0.
<mgrwt>
<rscale>  0 0.60178318E+03</rscale>
<asrwt>0</asrwt>
<pdfrwt beam="1">  1        1 0.18965261E+00 0.60178318E+03</pdfrwt>
<pdfrwt beam="2">  1       -1 0.97423831E-02 0.60178318E+03</pdfrwt>
<totfact> 0.67742826E+02</totfact>
</mgrwt>
</event>
<event>
 4    1  0.6480558E-006  0.4950713E+03  0.7818608E-02  0.1015073E+00
          1   -1    0    0  501    0  0.00000000000E+00  0.00000000000E+00  0.15590356946E+04  0.15590356946E+04  0.50400000000E-02 0. -1.
         -1   -1    0    0    0  501 -0.00000000000E+00 -0.00000000000E+00 -0.39302431186E+02  0.39302431509E+02  0.50400000000E-02 0.  1.
    5000001    1    1    2    0    0  0.13649660172E+03 -0.53499545137E+02  0.80310562103E+03  0.84028159693E+03  0.19900000000E+03 0.  0.
   -5000001    1    1    2    0    0 -0.13649660172E+03  0.53499545137E+02  0.71662764234E+03  0.75805652914E+03  0.19900000000E+03 0.  0.
<mgrwt>
<rscale>  0 0.49507128E+03</rscale>
<asrwt>0</asrwt>
<pdfrwt beam="1">  1        1 0.22271936E+00 0.49507128E+03</pdfrwt>
<pdfrwt beam="2">  1       -1 0.56146336E-02 0.49507128E+03</pdfrwt>
<totfact> 0.11341938E+03</totfact>
</mgrwt>
</event>
<event>
 4    1  0.6480558E-006  0.5995573E+03  0.7818608E-02  0.9906325E-01
          1   -1    0    0  501    0  0.00000000000E+00  0.00000000000E+00  0.23460881325E+04  0.23460881325E+04  0.50400000000E-02 0. -1.
         -1   -1    0    0    0  501 -0.00000000000E+00 -0.00000000000E+00 -0.38305147239E+02  0.38305147570E+02  0.50400000000E-02 0.  1.
    5000001    1    1    2    0    0 -0.22110760443E+03  0.49941559048E+01  0.10076219460E+04  0.10506267179E+04  0.19900000000E+03 0.  0.
   -5000001    1    1    2    0    0  0.22110760443E+03 -0.49941559048E+01  0.13001610393E+04  0.13337665622E+04  0.19900000000E+03 0.  0.
<mgrwt>
<rscale>  0 0.59955734E+03</rscale>
<asrwt>0</asrwt>
<pdfrwt beam="1">  1        1 0.33515545E+00 0.59955734E+03</pdfrwt>
<pdfrwt beam="2">  1       -1 0.54721639E-02 0.59955734E+03</pdfrwt>
<totfact> 0.38115261E+02</totfact>
</mgrwt>
</event>
<event>
 4    1  0.6480558E-006  0.7417448E+03  0.7818608E-02  0.9648391E-01
          1   -1    0    0  501    0  0.00000000000E+00  0.00000000000E+00  0.94772298800E+03  0.94772298801E+03  0.50400000000E-02 0. -1.
         -1   -1    0    0    0  501 -0.00000000000E+00 -0.00000000000E+00 -0.14513348316E+03  0.14513348325E+03  0.50400000000E-02 0.  1.
    5000001    1    1    2    0    0 -0.27744149411E+03 -0.13182258381E+03  0.48962705069E+03  0.61129912893E+03  0.19900000000E+03 0.  0.
   -5000001    1    1    2    0    0  0.27744149411E+03  0.13182258381E+03  0.31296245414E+03  0.48155734234E+03  0.19900000000E+03 0.  0.
<mgrwt>
<rscale>  0 0.74174480E+03</rscale>
<asrwt>0</asrwt>
<pdfrwt beam="1">  1        1 0.13538900E+00 0.74174480E+03</pdfrwt>
<pdfrwt beam="2">  1       -1 0.20733354E-01 0.74174480E+03</pdfrwt>
<totfact> 0.36721386E+02</totfact>
</mgrwt>
</event>
<event>
 4    1  0.6480558E-006  0.7127379E+03  0.7818608E-02  0.9695693E-01
         -1   -1    0    0    0  501 -0.00000000000E+00  0.00000000000E+00  0.38062383152E+03  0.38062383156E+03  0.50400000000E-02 0. -1.
          1   -1    0    0  501    0  0.00000000000E+00 -0.00000000000E+00 -0.33365967193E+03  0.33365967197E+03  0.50400000000E-02 0.  1.
    5000001    1    1    2    0    0  0.13565709872E+03  0.12731763659E+03 -0.20676643468E+03  0.34200290573E+03  0.19900000000E+03 0.  0.
   -5000001    1    1    2    0    0 -0.13565709872E+03 -0.12731763659E+03  0.25373059427E+03  0.37228059779E+03  0.19900000000E+03 0.  0.
<mgrwt>
<rscale>  0 0.71273788E+03</rscale>
<asrwt>0</asrwt>
<pdfrwt beam="1">  1        1 0.47665667E-01 0.71273788E+03</pdfrwt>
<pdfrwt beam="2">  1       -1 0.54374833E-01 0.71273788E+03</pdfrwt>
<totfact> 0.29064206E+02</totfact>
</mgrwt>
</event>
<event>
 4    1  0.6480558E-006  0.6169569E+03  0.7818608E-02  0.9870837E-01
          1   -1    0    0  501    0  0.00000000000E+00  0.00000000000E+00  0.23060339283E+04  0.23060339283E+04  0.50400000000E-02 0.  1.
         -1   -1    0    0    0  501 -0.00000000000E+00 -0.00000000000E+00 -0.41265201151E+02  0.41265201459E+02  0.50400000000E-02 0. -1.
    5000001    1    1    2    0    0 -0.10362725373E+03  0.15956515662E+03  0.16617397081E+04  0.16843929187E+04  0.19900000000E+03 0.  0.
   -5000001    1    1    2    0    0  0.10362725373E+03 -0.15956515662E+03  0.60302901906E+03  0.66290621112E+03  0.19900000000E+03 0.  0.
<mgrwt>
<rscale>  0 0.61695690E+03</rscale>
<asrwt>0</asrwt>
<pdfrwt beam="1">  1        1 0.32943352E+00 0.61695690E+03</pdfrwt>
<pdfrwt beam="2">  1       -1 0.58950269E-02 0.61695690E+03</pdfrwt>
<totfact> 0.35940806E+02</totfact>
</mgrwt>
</event>
<event>
 4    1  0.6480558E-006  0.7451916E+03  0.7818608E-02  0.9642924E-01
         -1   -1    0    0    0  501 -0.00000000000E+00  0.00000000000E+00  0.55582205525E+03  0.55582205528E+03  0.50400000000E-02 0.  1.
          1   -1    0    0  501    0  0.00000000000E+00 -0.00000000000E+00 -0.24976994640E+03  0.24976994646E+03  0.50400000000E-02 0. -1.
    5000001    1    1    2    0    0  0.29664829200E+03 -0.50726371396E+02  0.52463261545E+02  0.36459123373E+03  0.19900000000E+03 0.  0.
   -5000001    1    1    2    0    0 -0.29664829200E+03  0.50726371396E+02  0.25358884730E+03  0.44100076800E+03  0.19900000000E+03 0.  0.
<mgrwt>
<rscale>  0 0.74519164E+03</rscale>
<asrwt>0</asrwt>
<pdfrwt beam="1">  1        1 0.35681421E-01 0.74519164E+03</pdfrwt>
<pdfrwt beam="2">  1       -1 0.79403150E-01 0.74519164E+03</pdfrwt>
<totfact> 0.19683820E+02</totfact>
</mgrwt>
</event>
<event>
 4    1  0.6480558E-006  0.8983627E+03  0.7818608E-02  0.9427630E-01
         -1   -1    0    0    0  501 -0.00000000000E+00  0.00000000000E+00  0.38187060967E+03  0.38187060970E+03  0.50400000000E-02 0. -1.
          1   -1    0    0  501    0  0.00000000000E+00 -0.00000000000E+00 -0.52835667760E+03  0.52835667762E+03  0.50400000000E-02 0.  1.
    5000001    1    1    2    0    0  0.15529192355E+03  0.21356618781E+03 -0.38129257207E+03  0.50468913562E+03  0.19900000000E+03 0.  0.
   -5000001    1    1    2    0    0 -0.15529192355E+03 -0.21356618781E+03  0.23480650414E+03  0.40553815170E+03  0.19900000000E+03 0.  0.
<mgrwt>
<rscale>  0 0.89836270E+03</rscale>
<asrwt>0</asrwt>
<pdfrwt beam="1">  1        1 0.75479526E-01 0.89836270E+03</pdfrwt>
<pdfrwt beam="2">  1       -1 0.54552944E-01 0.89836270E+03</pdfrwt>
<totfact> 0.15559870E+02</totfact>
</mgrwt>
</event>
<event>
 4    1  0.6480558E-006  0.6164696E+03  0.7818608E-02  0.9871814E-01
          1   -1    0    0  501    0  0.00000000000E+00  0.00000000000E+00  0.38498860065E+03  0.38498860068E+03  0.50400000000E-02 0.  1.
         -1   -1    0    0    0  501 -0.00000000000E+00 -0.00000000000E+00 -0.24678314250E+03  0.24678314255E+03  0.50400000000E-02 0. -1.
    5000001    1    1    2    0    0  0.23025377510E+03  0.29900932504E+02  0.10875195949E+03  0.32455947899E+03  0.19900000000E+03 0.  0.
   -5000001    1    1    2    0    0 -0.23025377510E+03 -0.29900932504E+02  0.29453498659E+02  0.30721226423E+03  0.19900000000E+03 0.  0.
<mgrwt>
<rscale>  0 0.61646962E+03</rscale>
<asrwt>0</asrwt>
<pdfrwt beam="1">  1        1 0.54998372E-01 0.61646962E+03</pdfrwt>
<pdfrwt beam="2">  1       -1 0.35254735E-01 0.61646962E+03</pdfrwt>
<totfact> 0.53839353E+02</totfact>
</mgrwt>
</event>
<event>
 4    1  0.6480558E-006  0.5355186E+03  0.7818608E-02  0.1004902E+00
         -1   -1    0    0    0  501 -0.00000000000E+00  0.00000000000E+00  0.10678135127E+03  0.10678135139E+03  0.50400000000E-02 0.  1.
          1   -1    0    0  501    0  0.00000000000E+00 -0.00000000000E+00 -0.67141921574E+03  0.67141921576E+03  0.50400000000E-02 0. -1.
    5000001    1    1    2    0    0  0.11907779386E+03 -0.13370406848E+03 -0.27339022811E+03  0.38262189658E+03  0.19900000000E+03 0.  0.
   -5000001    1    1    2    0    0 -0.11907779386E+03  0.13370406848E+03 -0.29124763637E+03  0.39557867057E+03  0.19900000000E+03 0.  0.
<mgrwt>
<rscale>  0 0.53551863E+03</rscale>
<asrwt>0</asrwt>
<pdfrwt beam="1">  1        1 0.95917028E-01 0.53551863E+03</pdfrwt>
<pdfrwt beam="2">  1       -1 0.15254479E-01 0.53551863E+03</pdfrwt>
<totfact> 0.10417895E+03</totfact>
</mgrwt>
</event>
<event>
 4    1  0.6480558E-006  0.4866104E+03  0.7818608E-02  0.1017334E+00
          1   -1    0    0  501    0  0.00000000000E+00  0.00000000000E+00  0.59054169477E+03  0.59054169479E+03  0.50400000000E-02 0.  1.
         -1   -1    0    0    0  501 -0.00000000000E+00 -0.00000000000E+00 -0.10024258514E+03  0.10024258527E+03  0.50400000000E-02 0. -1.
    5000001    1    1    2    0    0 -0.13374804201E+03  0.13180786638E+02  0.18954689623E+03  0.30592694839E+03  0.19900000000E+03 0.  0.
   -5000001    1    1    2    0    0  0.13374804201E+03 -0.13180786638E+02  0.30075221339E+03  0.38485733167E+03  0.19900000000E+03 0.  0.
<mgrwt>
<rscale>  0 0.48661042E+03</rscale>
<asrwt>0</asrwt>
<pdfrwt beam="1">  1        1 0.84363099E-01 0.48661042E+03</pdfrwt>
<pdfrwt beam="2">  1       -1 0.14320369E-01 0.48661042E+03</pdfrwt>
<totfact> 0.13832656E+03</totfact>
</mgrwt>
</event>
<event>
 4    1  0.6480558E-006  0.7930318E+03  0.7818608E-02  0.9570158E-01
         -1   -1    0    0    0  501 -0.00000000000E+00  0.00000000000E+00  0.10863783062E+03  0.10863783073E+03  0.50400000000E-02 0. -1.
          1   -1    0    0  501    0  0.00000000000E+00 -0.00000000000E+00 -0.14472384082E+04  0.14472384082E+04  0.50400000000E-02 0.  1.
    5000001    1    1    2    0    0  0.28755687701E+03 -0.18443200423E+03 -0.60980094783E+03  0.72674776757E+03  0.19900000000E+03 0.  0.
   -5000001    1    1    2    0    0 -0.28755687701E+03  0.18443200423E+03 -0.72879962974E+03  0.82912847135E+03  0.19900000000E+03 0.  0.
<mgrwt>
<rscale>  0 0.79303176E+03</rscale>
<asrwt>0</asrwt>
<pdfrwt beam="1">  1        1 0.20674833E+00 0.79303176E+03</pdfrwt>
<pdfrwt beam="2">  1       -1 0.15519691E-01 0.79303176E+03</pdfrwt>
<totfact> 0.26523920E+02</totfact>
</mgrwt>
</event>
<event>
 4    1  0.6480558E-006  0.5010753E+03  0.7818608E-02  0.1013499E+00
          1   -1    0    0  501    0  0.00000000000E+00  0.00000000000E+00  0.16197216426E+04  0.16197216426E+04  0.50400000000E-02 0.  1.
         -1   -1    0    0    0  501 -0.00000000000E+00 -0.00000000000E+00 -0.38753029084E+02  0.38753029412E+02  0.50400000000E-02 0. -1.
    5000001    1    1    2    0    0  0.12227663949E+03  0.48593507065E+02  0.53721810367E+03  0.58780710816E+03  0.19900000000E+03 0.  0.
   -5000001    1    1    2    0    0 -0.12227663949E+03 -0.48593507065E+02  0.10437505099E+04  0.10706675639E+04  0.19900000000E+03 0.  0.
<mgrwt>
<rscale>  0 0.50107532E+03</rscale>
<asrwt>0</asrwt>
<pdfrwt beam="1">  1        1 0.23138871E+00 0.50107532E+03</pdfrwt>
<pdfrwt beam="2">  1       -1 0.55361493E-02 0.50107532E+03</pdfrwt>
<totfact> 0.10609192E+03</totfact>
</mgrwt>
</event>
<event>
 4    1  0.6480558E-006  0.4616687E+03  0.7818608E-02  0.1024298E+00
         -1   -1    0    0    0  501 -0.00000000000E+00  0.00000000000E+00  0.14183578475E+03  0.14183578484E+03  0.50400000000E-02 0.  1.
          1   -1    0    0  501    0  0.00000000000E+00 -0.00000000000E+00 -0.37567738276E+03  0.37567738279E+03  0.50400000000E-02 0. -1.
    5000001    1    1    2    0    0  0.90541994121E+02  0.29257669902E+02 -0.40648957148E+02  0.22429266966E+03  0.19900000000E+03 0.  0.
   -5000001    1    1    2    0    0 -0.90541994121E+02 -0.29257669902E+02 -0.19319264086E+03  0.29322049797E+03  0.19900000000E+03 0.  0.
<mgrwt>
<rscale>  0 0.46166870E+03</rscale>
<asrwt>0</asrwt>
<pdfrwt beam="1">  1        1 0.53668197E-01 0.46166870E+03</pdfrwt>
<pdfrwt beam="2">  1       -1 0.20262255E-01 0.46166870E+03</pdfrwt>
<totfact> 0.14340618E+03</totfact>
</mgrwt>
</event>
<event>
 4    1  0.6480558E-006  0.6303500E+03  0.7818608E-02  0.9844366E-01
         -1   -1    0    0    0  501 -0.00000000000E+00  0.00000000000E+00  0.46025819037E+02  0.46025819313E+02  0.50400000000E-02 0. -1.
          1   -1    0    0  501    0  0.00000000000E+00 -0.00000000000E+00 -0.21582512269E+04  0.21582512269E+04  0.50400000000E-02 0.  1.
    5000001    1    1    2    0    0  0.37399827547E+02 -0.14473794374E+03 -0.37996496390E+03  0.45422702831E+03  0.19900000000E+03 0.  0.
   -5000001    1    1    2    0    0 -0.37399827547E+02  0.14473794374E+03 -0.17322604440E+04  0.17500500179E+04  0.19900000000E+03 0.  0.
<mgrwt>
<rscale>  0 0.63035000E+03</rscale>
<asrwt>0</asrwt>
<pdfrwt beam="1">  1        1 0.30832154E+00 0.63035000E+03</pdfrwt>
<pdfrwt beam="2">  1       -1 0.65751184E-02 0.63035000E+03</pdfrwt>
<totfact> 0.37437857E+02</totfact>
</mgrwt>
</event>
<event>
 4    1  0.6480558E-006  0.1069565E+04  0.7818608E-02  0.9235374E-01
         -1   -1    0    0    0  501 -0.00000000000E+00  0.00000000000E+00  0.22625888332E+03  0.22625888338E+03  0.50400000000E-02 0. -1.
          1   -1    0    0  501    0  0.00000000000E+00 -0.00000000000E+00 -0.12640044748E+04  0.12640044748E+04  0.50400000000E-02 0.  1.
    5000001    1    1    2    0    0 -0.40717760547E+03  0.16195006314E+03 -0.84376166502E+03  0.97136819626E+03  0.19900000000E+03 0.  0.
   -5000001    1    1    2    0    0  0.40717760547E+03 -0.16195006314E+03 -0.19398392645E+03  0.51889516193E+03  0.19900000000E+03 0.  0.
<mgrwt>
<rscale>  0 0.10695648E+04</rscale>
<asrwt>0</asrwt>
<pdfrwt beam="1">  1        1 0.18057206E+00 0.10695648E+04</pdfrwt>
<pdfrwt beam="2">  1       -1 0.32322698E-01 0.10695648E+04</pdfrwt>
<totfact> 0.99643641E+01</totfact>
</mgrwt>
</event>
<event>
 4    1  0.6480558E-006  0.8380756E+03  0.7818608E-02  0.9506483E-01
          1   -1    0    0  501    0  0.00000000000E+00  0.00000000000E+00  0.19357562971E+04  0.19357562971E+04  0.50400000000E-02 0.  1.
         -1   -1    0    0    0  501 -0.00000000000E+00 -0.00000000000E+00 -0.90710123174E+02  0.90710123314E+02  0.50400000000E-02 0. -1.
    5000001    1    1    2    0    0  0.14474569061E+03 -0.23587093741E+03  0.15118668804E+04  0.15498157562E+04  0.19900000000E+03 0.  0.
   -5000001    1    1    2    0    0 -0.14474569061E+03  0.23587093741E+03  0.33317929346E+03  0.47665066417E+03  0.19900000000E+03 0.  0.
<mgrwt>
<rscale>  0 0.83807563E+03</rscale>
<asrwt>0</asrwt>
<pdfrwt beam="1">  1        1 0.27653660E+00 0.83807563E+03</pdfrwt>
<pdfrwt beam="2">  1       -1 0.12958590E-01 0.83807563E+03</pdfrwt>
<totfact> 0.17358904E+02</totfact>
</mgrwt>
</event>
<event>
 4    1  0.6480558E-006  0.5687165E+03  0.7818608E-02  0.9972523E-01
          1   -1    0    0  501    0  0.00000000000E+00  0.00000000000E+00  0.14955406757E+04  0.14955406758E+04  0.50400000000E-02 0. -1.
         -1   -1    0    0    0  501 -0.00000000000E+00 -0.00000000000E+00 -0.54067145390E+02  0.54067145625E+02  0.50400000000E-02 0.  1.
    5000001    1    1    2    0    0  0.20169426358E+03 -0.12173602463E+02  0.77722796360E+03  0.82735305642E+03  0.19900000000E+03 0.  0.
   -5000001    1    1    2    0    0 -0.20169426358E+03  0.12173602463E+02  0.66424556675E+03  0.72225476496E+03  0.19900000000E+03 0.  0.
<mgrwt>
<rscale>  0 0.56871650E+03</rscale>
<asrwt>0</asrwt>
<pdfrwt beam="1">  1        1 0.21364872E+00 0.56871650E+03</pdfrwt>
<pdfrwt beam="2">  1       -1 0.77238760E-02 0.56871650E+03</pdfrwt>
<totfact> 0.75863834E+02</totfact>
</mgrwt>
</event>
<event>
 4    1  0.6480558E-006  0.5586445E+03  0.7818608E-02  0.9995126E-01
          1   -1    0    0  501    0  0.00000000000E+00  0.00000000000E+00  0.96943357893E+02  0.96943358024E+02  0.50400000000E-02 0. -1.
         -1   -1    0    0    0  501 -0.00000000000E+00 -0.00000000000E+00 -0.80480925764E+03  0.80480925766E+03  0.50400000000E-02 0.  1.
    5000001    1    1    2    0    0 -0.22578826058E+02  0.16986068697E+03 -0.50755551440E+03  0.57146833382E+03  0.19900000000E+03 0.  0.
   -5000001    1    1    2    0    0  0.22578826058E+02 -0.16986068697E+03 -0.20031038535E+03  0.33028428186E+03  0.19900000000E+03 0.  0.
<mgrwt>
<rscale>  0 0.55864447E+03</rscale>
<asrwt>0</asrwt>
<pdfrwt beam="1">  1        1 0.13849052E-01 0.55864447E+03</pdfrwt>
<pdfrwt beam="2">  1       -1 0.11497275E+00 0.55864447E+03</pdfrwt>
<totfact> 0.30051398E+02</totfact>
</mgrwt>
</event>
<event>
 4    1  0.6480558E-006  0.7984200E+03  0.7818608E-02  0.9562307E-01
          1   -1    0    0  501    0  0.00000000000E+00  0.00000000000E+00  0.36938469998E+03  0.36938470002E+03  0.50400000000E-02 0.  1.
         -1   -1    0    0    0  501 -0.00000000000E+00 -0.00000000000E+00 -0.43144349927E+03  0.43144349930E+03  0.50400000000E-02 0. -1.
    5000001    1    1    2    0    0 -0.76669933560E+02  0.12668248223E+03  0.28270934860E+03  0.37610145679E+03  0.19900000000E+03 0.  0.
   -5000001    1    1    2    0    0  0.76669933560E+02 -0.12668248223E+03 -0.34476814788E+03  0.42472674252E+03  0.19900000000E+03 0.  0.
<mgrwt>
<rscale>  0 0.79842001E+03</rscale>
<asrwt>0</asrwt>
<pdfrwt beam="1">  1        1 0.52769243E-01 0.79842001E+03</pdfrwt>
<pdfrwt beam="2">  1       -1 0.61634785E-01 0.79842001E+03</pdfrwt>
<totfact> 0.19856725E+02</totfact>
</mgrwt>
</event>
<event>
 4    1  0.6480558E-006  0.4812570E+03  0.7818608E-02  0.1018790E+00
          1   -1    0    0  501    0  0.00000000000E+00  0.00000000000E+00  0.39483763615E+03  0.39483763618E+03  0.50400000000E-02 0.  1.
         -1   -1    0    0    0  501 -0.00000000000E+00 -0.00000000000E+00 -0.14664781466E+03  0.14664781475E+03  0.50400000000E-02 0. -1.
    5000001    1    1    2    0    0  0.52805092994E+02 -0.35445166362E+02 -0.10247683863E+02  0.20916680590E+03  0.19900000000E+03 0.  0.
   -5000001    1    1    2    0    0 -0.52805092994E+02  0.35445166362E+02  0.25843750535E+03  0.33231864503E+03  0.19900000000E+03 0.  0.
<mgrwt>
<rscale>  0 0.48125701E+03</rscale>
<asrwt>0</asrwt>
<pdfrwt beam="1">  1        1 0.56405376E-01 0.48125701E+03</pdfrwt>
<pdfrwt beam="2">  1       -1 0.20949688E-01 0.48125701E+03</pdfrwt>
<totfact> 0.12725645E+03</totfact>
</mgrwt>
</event>
<event>
 4    1  0.6480558E-006  0.6183401E+03  0.7818608E-02  0.9868070E-01
          1   -1    0    0  501    0  0.00000000000E+00  0.00000000000E+00  0.36555177024E+03  0.36555177027E+03  0.50400000000E-02 0.  1.
         -1   -1    0    0    0  501 -0.00000000000E+00 -0.00000000000E+00 -0.26148447262E+03  0.26148447267E+03  0.50400000000E-02 0. -1.
    5000001    1    1    2    0    0 -0.15605837603E+02  0.21548803587E+03  0.14986045691E+03  0.32975413920E+03  0.19900000000E+03 0.  0.
   -5000001    1    1    2    0    0  0.15605837603E+02 -0.21548803587E+03 -0.45793159288E+02  0.29728210375E+03  0.19900000000E+03 0.  0.
<mgrwt>
<rscale>  0 0.61834007E+03</rscale>
<asrwt>0</asrwt>
<pdfrwt beam="1">  1        1 0.52221681E-01 0.61834007E+03</pdfrwt>
<pdfrwt beam="2">  1       -1 0.37354925E-01 0.61834007E+03</pdfrwt>
<totfact> 0.51946470E+02</totfact>
</mgrwt>
</event>
<event>
 4    1  0.6480558E-006  0.5334322E+03  0.7818608E-02  0.1005403E+00
         -1   -1    0    0    0  501 -0.00000000000E+00  0.00000000000E+00  0.14222648940E+03  0.14222648949E+03  0.50400000000E-02 0. -1.
          1   -1    0    0  501    0  0.00000000000E+00 -0.00000000000E+00 -0.50017039051E+03  0.50017039054E+03  0.50400000000E-02 0.  1.
    5000001    1    1    2    0    0 -0.60962962087E+02  0.10309714174E+03 -0.21074742000E+02  0.23321802703E+03  0.19900000000E+03 0.  0.
   -5000001    1    1    2    0    0  0.60962962087E+02 -0.10309714174E+03 -0.33686915911E+03  0.40917885300E+03  0.19900000000E+03 0.  0.
<mgrwt>
<rscale>  0 0.53343220E+03</rscale>
<asrwt>0</asrwt>
<pdfrwt beam="1">  1        1 0.71452912E-01 0.53343220E+03</pdfrwt>
<pdfrwt beam="2">  1       -1 0.20318070E-01 0.53343220E+03</pdfrwt>
<totfact> 0.98021752E+02</totfact>
</mgrwt>
</event>
<event>
 4    1  0.6480558E-006  0.6619058E+03  0.7818608E-02  0.9784692E-01
         -1   -1    0    0    0  501 -0.00000000000E+00  0.00000000000E+00  0.20550343017E+03  0.20550343023E+03  0.50400000000E-02 0. -1.
          1   -1    0    0  501    0  0.00000000000E+00 -0.00000000000E+00 -0.53298288919E+03  0.53298288922E+03  0.50400000000E-02 0.  1.
    5000001    1    1    2    0    0 -0.13912206692E+02  0.20538041598E+03 -0.34893921460E+03  0.45136929475E+03  0.19900000000E+03 0.  0.
   -5000001    1    1    2    0    0  0.13912206692E+02 -0.20538041598E+03  0.21459755579E+02  0.28711702470E+03  0.19900000000E+03 0.  0.
<mgrwt>
<rscale>  0 0.66190577E+03</rscale>
<asrwt>0</asrwt>
<pdfrwt beam="1">  1        1 0.76140412E-01 0.66190577E+03</pdfrwt>
<pdfrwt beam="2">  1       -1 0.29357633E-01 0.66190577E+03</pdfrwt>
<totfact> 0.48084210E+02</totfact>
</mgrwt>
</event>
<event>
 4    1  0.6480558E-006  0.1011448E+04  0.7818608E-02  0.9296078E-01
          1   -1    0    0  501    0  0.00000000000E+00  0.00000000000E+00  0.19963151253E+04  0.19963151253E+04  0.50400000000E-02 0. -1.
         -1   -1    0    0    0  501 -0.00000000000E+00 -0.00000000000E+00 -0.12811435298E+03  0.12811435308E+03  0.50400000000E-02 0.  1.
    5000001    1    1    2    0    0  0.34602530133E+03 -0.19598064711E+02  0.28319105645E+03  0.48981197184E+03  0.19900000000E+03 0.  0.
   -5000001    1    1    2    0    0 -0.34602530133E+03  0.19598064711E+02  0.15850097158E+04  0.16346175065E+04  0.19900000000E+03 0.  0.
<mgrwt>
<rscale>  0 0.10114477E+04</rscale>
<asrwt>0</asrwt>
<pdfrwt beam="1">  1        1 0.28518789E+00 0.10114477E+04</pdfrwt>
<pdfrwt beam="2">  1       -1 0.18302050E-01 0.10114477E+04</pdfrwt>
<totfact> 0.89262246E+01</totfact>
</mgrwt>
</event>
<event>
 4    1  0.6480558E-006  0.5683686E+03  0.7818608E-02  0.9973295E-01
          1   -1    0    0  501    0  0.00000000000E+00  0.00000000000E+00  0.57380596442E+03  0.57380596445E+03  0.50400000000E-02 0.  1.
         -1   -1    0    0    0  501 -0.00000000000E+00 -0.00000000000E+00 -0.14074570297E+03  0.14074570306E+03  0.50400000000E-02 0. -1.
    5000001    1    1    2    0    0 -0.12444885373E+03 -0.15057615726E+03  0.14768174417E+03  0.31554966945E+03  0.19900000000E+03 0.  0.
   -5000001    1    1    2    0    0  0.12444885373E+03  0.15057615726E+03  0.28537851728E+03  0.39900199806E+03  0.19900000000E+03 0.  0.
<mgrwt>
<rscale>  0 0.56836863E+03</rscale>
<asrwt>0</asrwt>
<pdfrwt beam="1">  1        1 0.81972282E-01 0.56836863E+03</pdfrwt>
<pdfrwt beam="2">  1       -1 0.20106529E-01 0.56836863E+03</pdfrwt>
<totfact> 0.82685950E+02</totfact>
</mgrwt>
</event>
<event>
 4    1  0.6480558E-006  0.6372152E+03  0.7818608E-02  0.9831069E-01
          1   -1    0    0  501    0  0.00000000000E+00  0.00000000000E+00  0.91821728073E+03  0.91821728075E+03  0.50400000000E-02 0.  1.
         -1   -1    0    0    0  501 -0.00000000000E+00 -0.00000000000E+00 -0.11055204383E+03  0.11055204394E+03  0.50400000000E-02 0. -1.
    5000001    1    1    2    0    0 -0.77412064326E+02 -0.22665857462E+03  0.51265196825E+03  0.59981645335E+03  0.19900000000E+03 0.  0.
   -5000001    1    1    2    0    0  0.77412064326E+02  0.22665857462E+03  0.29501326865E+03  0.42895287135E+03  0.19900000000E+03 0.  0.
<mgrwt>
<rscale>  0 0.63721518E+03</rscale>
<asrwt>0</asrwt>
<pdfrwt beam="1">  1        1 0.13117391E+00 0.63721518E+03</pdfrwt>
<pdfrwt beam="2">  1       -1 0.15793148E-01 0.63721518E+03</pdfrwt>
<totfact> 0.60869356E+02</totfact>
</mgrwt>
</event>
<event>
 4    1  0.6480558E-006  0.5285601E+03  0.7818608E-02  0.1006582E+00
          1   -1    0    0  501    0  0.00000000000E+00  0.00000000000E+00  0.10247129811E+04  0.10247129812E+04  0.50400000000E-02 0.  1.
         -1   -1    0    0    0  501 -0.00000000000E+00 -0.00000000000E+00 -0.68159520458E+02  0.68159520645E+02  0.50400000000E-02 0. -1.
    5000001    1    1    2    0    0  0.16610760986E+03  0.30294715485E+02  0.39219138309E+03  0.47108872711E+03  0.19900000000E+03 0.  0.
   -5000001    1    1    2    0    0 -0.16610760986E+03 -0.30294715485E+02  0.56436207760E+03  0.62178377469E+03  0.19900000000E+03 0.  0.
<mgrwt>
<rscale>  0 0.52856010E+03</rscale>
<asrwt>0</asrwt>
<pdfrwt beam="1">  1        1 0.14638757E+00 0.52856010E+03</pdfrwt>
<pdfrwt beam="2">  1       -1 0.97370742E-02 0.52856010E+03</pdfrwt>
<totfact> 0.11006516E+03</totfact>
</mgrwt>
</event>
<event>
 4    1  0.6480558E-006  0.4434185E+03  0.7818608E-02  0.1029703E+00
         -1   -1    0    0    0  501 -0.00000000000E+00  0.00000000000E+00  0.34463557729E+03  0.34463557733E+03  0.50400000000E-02 0. -1.
          1   -1    0    0  501    0  0.00000000000E+00 -0.00000000000E+00 -0.14262891567E+03  0.14262891576E+03  0.50400000000E-02 0.  1.
    5000001    1    1    2    0    0 -0.94316040452E+02 -0.24798718942E+02  0.93755144292E+02  0.24062734472E+03  0.19900000000E+03 0.  0.
   -5000001    1    1    2    0    0  0.94316040452E+02  0.24798718942E+02  0.10825151733E+03  0.24663714836E+03  0.19900000000E+03 0.  0.
<mgrwt>
<rscale>  0 0.44341853E+03</rscale>
<asrwt>0</asrwt>
<pdfrwt beam="1">  1        1 0.20375560E-01 0.44341853E+03</pdfrwt>
<pdfrwt beam="2">  1       -1 0.49233653E-01 0.44341853E+03</pdfrwt>
<totfact> 0.10590311E+03</totfact>
</mgrwt>
</event>
<event>
 4    1  0.6480558E-006  0.6009752E+03  0.7818608E-02  0.9903385E-01
          1   -1    0    0  501    0  0.00000000000E+00  0.00000000000E+00  0.63334541194E+03  0.63334541196E+03  0.50400000000E-02 0.  1.
         -1   -1    0    0    0  501 -0.00000000000E+00 -0.00000000000E+00 -0.14256486014E+03  0.14256486023E+03  0.50400000000E-02 0. -1.
    5000001    1    1    2    0    0 -0.17218006483E+03 -0.67274430750E+02  0.41133355051E+03  0.49291795821E+03  0.19900000000E+03 0.  0.
   -5000001    1    1    2    0    0  0.17218006483E+03  0.67274430750E+02  0.79447001301E+02  0.28299231398E+03  0.19900000000E+03 0.  0.
<mgrwt>
<rscale>  0 0.60097521E+03</rscale>
<asrwt>0</asrwt>
<pdfrwt beam="1">  1        1 0.90477916E-01 0.60097521E+03</pdfrwt>
<pdfrwt beam="2">  1       -1 0.20366409E-01 0.60097521E+03</pdfrwt>
<totfact> 0.70433186E+02</totfact>
</mgrwt>
</event>
<event>
 4    1  0.6480558E-006  0.8309304E+03  0.7818608E-02  0.9516295E-01
         -1   -1    0    0    0  501 -0.00000000000E+00  0.00000000000E+00  0.21119309903E+03  0.21119309909E+03  0.50400000000E-02 0. -1.
          1   -1    0    0  501    0  0.00000000000E+00 -0.00000000000E+00 -0.81731518088E+03  0.81731518089E+03  0.50400000000E-02 0.  1.
    5000001    1    1    2    0    0 -0.24256795734E+03 -0.26288688737E+03 -0.39112271002E+03  0.56615077830E+03  0.19900000000E+03 0.  0.
   -5000001    1    1    2    0    0  0.24256795734E+03  0.26288688737E+03 -0.21499937182E+03  0.46235750168E+03  0.19900000000E+03 0.  0.
<mgrwt>
<rscale>  0 0.83093038E+03</rscale>
<asrwt>0</asrwt>
<pdfrwt beam="1">  1        1 0.11675931E+00 0.83093038E+03</pdfrwt>
<pdfrwt beam="2">  1       -1 0.30170443E-01 0.83093038E+03</pdfrwt>
<totfact> 0.24470502E+02</totfact>
</mgrwt>
</event>
<event>
 4    1  0.6480558E-006  0.8100930E+03  0.7818608E-02  0.9545522E-01
         -1   -1    0    0    0  501 -0.00000000000E+00  0.00000000000E+00  0.16064404784E+03  0.16064404792E+03  0.50400000000E-02 0. -1.
          1   -1    0    0  501    0  0.00000000000E+00 -0.00000000000E+00 -0.10212807163E+04  0.10212807163E+04  0.50400000000E-02 0.  1.
    5000001    1    1    2    0    0  0.19017781149E+02  0.30366708293E+03 -0.16978878894E+03  0.40125379264E+03  0.19900000000E+03 0.  0.
   -5000001    1    1    2    0    0 -0.19017781149E+02 -0.30366708293E+03 -0.69084787950E+03  0.78067097158E+03  0.19900000000E+03 0.  0.
<mgrwt>
<rscale>  0 0.81009300E+03</rscale>
<asrwt>0</asrwt>
<pdfrwt beam="1">  1        1 0.14589724E+00 0.81009300E+03</pdfrwt>
<pdfrwt beam="2">  1       -1 0.22949150E-01 0.81009300E+03</pdfrwt>
<totfact> 0.27169124E+02</totfact>
</mgrwt>
</event>
<event>
 4    1  0.6480558E-006  0.5861893E+03  0.7818608E-02  0.9934481E-01
          1   -1    0    0  501    0  0.00000000000E+00  0.00000000000E+00  0.55532223297E+03  0.55532223300E+03  0.50400000000E-02 0.  1.
         -1   -1    0    0    0  501 -0.00000000000E+00 -0.00000000000E+00 -0.15469300433E+03  0.15469300441E+03  0.50400000000E-02 0. -1.
    5000001    1    1    2    0    0  0.96194753629E+02  0.17338230277E+03  0.30157165767E+03  0.41214235192E+03  0.19900000000E+03 0.  0.
   -5000001    1    1    2    0    0 -0.96194753629E+02 -0.17338230277E+03  0.99057570981E+02  0.29787288549E+03  0.19900000000E+03 0.  0.
<mgrwt>
<rscale>  0 0.58618927E+03</rscale>
<asrwt>0</asrwt>
<pdfrwt beam="1">  1        1 0.79331748E-01 0.58618927E+03</pdfrwt>
<pdfrwt beam="2">  1       -1 0.22099000E-01 0.58618927E+03</pdfrwt>
<totfact> 0.73876731E+02</totfact>
</mgrwt>
</event>
<event>
 4    1  0.6480558E-006  0.7915160E+03  0.7818608E-02  0.9572379E-01
         -1   -1    0    0    0  501 -0.00000000000E+00  0.00000000000E+00  0.10740944834E+04  0.10740944834E+04  0.50400000000E-02 0. -1.
          1   -1    0    0  501    0  0.00000000000E+00 -0.00000000000E+00 -0.14581994915E+03  0.14581994923E+03  0.50400000000E-02 0.  1.
    5000001    1    1    2    0    0 -0.12398974148E+03 -0.30430427200E+03  0.61074825608E+03  0.72151852246E+03  0.19900000000E+03 0.  0.
   -5000001    1    1    2    0    0  0.12398974148E+03  0.30430427200E+03  0.31752627815E+03  0.49839591016E+03  0.19900000000E+03 0.  0.
<mgrwt>
<rscale>  0 0.79151602E+03</rscale>
<asrwt>0</asrwt>
<pdfrwt beam="1">  1        1 0.20831422E-01 0.79151602E+03</pdfrwt>
<pdfrwt beam="2">  1       -1 0.15344207E+00 0.79151602E+03</pdfrwt>
<totfact> 0.82733311E+01</totfact>
</mgrwt>
</event>
<event>
 4    1  0.6480558E-006  0.6368878E+03  0.7818608E-02  0.9831699E-01
         -1   -1    0    0    0  501 -0.00000000000E+00  0.00000000000E+00  0.35706715029E+03  0.35706715033E+03  0.50400000000E-02 0. -1.
          1   -1    0    0  501    0  0.00000000000E+00 -0.00000000000E+00 -0.28399844632E+03  0.28399844636E+03  0.50400000000E-02 0.  1.
    5000001    1    1    2    0    0  0.16875151017E+03  0.18032552409E+03  0.65201856795E+02  0.32380032266E+03  0.19900000000E+03 0.  0.
   -5000001    1    1    2    0    0 -0.16875151017E+03 -0.18032552409E+03  0.78668471827E+01  0.31726527403E+03  0.19900000000E+03 0.  0.
<mgrwt>
<rscale>  0 0.63688780E+03</rscale>
<asrwt>0</asrwt>
<pdfrwt beam="1">  1        1 0.40571206E-01 0.63688780E+03</pdfrwt>
<pdfrwt beam="2">  1       -1 0.51009593E-01 0.63688780E+03</pdfrwt>
<totfact> 0.40540475E+02</totfact>
</mgrwt>
</event>
<event>
 4    1  0.6480558E-006  0.5447426E+03  0.7818608E-02  0.1002718E+00
          1   -1    0    0  501    0  0.00000000000E+00  0.00000000000E+00  0.50245237753E+03  0.50245237755E+03  0.50400000000E-02 0.  1.
         -1   -1    0    0    0  501 -0.00000000000E+00 -0.00000000000E+00 -0.14764809252E+03  0.14764809261E+03  0.50400000000E-02 0. -1.
    5000001    1    1    2    0    0  0.17158694333E+03  0.42671108052E+02  0.10861549752E+03  0.28750865880E+03  0.19900000000E+03 0.  0.
   -5000001    1    1    2    0    0 -0.17158694333E+03 -0.42671108052E+02  0.24618878749E+03  0.36259181136E+03  0.19900000000E+03 0.  0.
<mgrwt>
<rscale>  0 0.54474264E+03</rscale>
<asrwt>0</asrwt>
<pdfrwt beam="1">  1        1 0.71778912E-01 0.54474264E+03</pdfrwt>
<pdfrwt beam="2">  1       -1 0.21092584E-01 0.54474264E+03</pdfrwt>
<totfact> 0.91543084E+02</totfact>
</mgrwt>
</event>
<event>
 4    1  0.6480558E-006  0.4633964E+03  0.7818608E-02  0.1023801E+00
         -1   -1    0    0    0  501 -0.00000000000E+00  0.00000000000E+00  0.56484076792E+03  0.56484076794E+03  0.50400000000E-02 0. -1.
          1   -1    0    0  501    0  0.00000000000E+00 -0.00000000000E+00 -0.95042825711E+02  0.95042825845E+02  0.50400000000E-02 0.  1.
    5000001    1    1    2    0    0 -0.90759245465E+02  0.76449521878E+02  0.23327992238E+03  0.32878913032E+03  0.19900000000E+03 0.  0.
   -5000001    1    1    2    0    0  0.90759245465E+02 -0.76449521878E+02  0.23651801982E+03  0.33109446346E+03  0.19900000000E+03 0.  0.
<mgrwt>
<rscale>  0 0.46339643E+03</rscale>
<asrwt>0</asrwt>
<pdfrwt beam="1">  1        1 0.13577547E-01 0.46339643E+03</pdfrwt>
<pdfrwt beam="2">  1       -1 0.80691536E-01 0.46339643E+03</pdfrwt>
<totfact> 0.68274745E+02</totfact>
</mgrwt>
</event>
<event>
 4    1  0.6480558E-006  0.4466888E+03  0.7818608E-02  0.1028714E+00
         -1   -1    0    0    0  501 -0.00000000000E+00  0.00000000000E+00  0.62259565373E+02  0.62259565577E+02  0.50400000000E-02 0.  1.
          1   -1    0    0  501    0  0.00000000000E+00 -0.00000000000E+00 -0.80120577257E+03  0.80120577259E+03  0.50400000000E-02 0. -1.
    5000001    1    1    2    0    0 -0.91951192079E+02 -0.32649611673E+02 -0.31615830166E+03  0.38610632030E+03  0.19900000000E+03 0.  0.
   -5000001    1    1    2    0    0  0.91951192079E+02  0.32649611673E+02 -0.42278790554E+03  0.47735901786E+03  0.19900000000E+03 0.  0.
<mgrwt>
<rscale>  0 0.44668881E+03</rscale>
<asrwt>0</asrwt>
<pdfrwt beam="1">  1        1 0.11445796E+00 0.44668881E+03</pdfrwt>
<pdfrwt beam="2">  1       -1 0.88942241E-02 0.44668881E+03</pdfrwt>
<totfact> 0.18878378E+03</totfact>
</mgrwt>
</event>
<event>
 4    1  0.6480558E-006  0.5734208E+03  0.7818608E-02  0.9962137E-01
         -1   -1    0    0    0  501 -0.00000000000E+00  0.00000000000E+00  0.25263403212E+03  0.25263403217E+03  0.50400000000E-02 0. -1.
          1   -1    0    0  501    0  0.00000000000E+00 -0.00000000000E+00 -0.32538313555E+03  0.32538313559E+03  0.50400000000E-02 0.  1.
    5000001    1    1    2    0    0  0.18220424593E+03 -0.88977211477E+02 -0.75239042965E+02  0.29390005952E+03  0.19900000000E+03 0.  0.
   -5000001    1    1    2    0    0 -0.18220424593E+03  0.88977211477E+02  0.24899395430E+01  0.28411710824E+03  0.19900000000E+03 0.  0.
<mgrwt>
<rscale>  0 0.57342080E+03</rscale>
<asrwt>0</asrwt>
<pdfrwt beam="1">  1        1 0.46483305E-01 0.57342080E+03</pdfrwt>
<pdfrwt beam="2">  1       -1 0.36090576E-01 0.57342080E+03</pdfrwt>
<totfact> 0.64282769E+02</totfact>
</mgrwt>
</event>
<event>
 4    1  0.6480558E-006  0.8862844E+03  0.7818608E-02  0.9442891E-01
         -1   -1    0    0    0  501 -0.00000000000E+00  0.00000000000E+00  0.10925137860E+03  0.10925137872E+03  0.50400000000E-02 0. -1.
          1   -1    0    0  501    0  0.00000000000E+00 -0.00000000000E+00 -0.17974603108E+04  0.17974603108E+04  0.50400000000E-02 0.  1.
    5000001    1    1    2    0    0 -0.17883617903E+03  0.35253559436E+03 -0.89270283035E+03  0.99638499965E+03  0.19900000000E+03 0.  0.
   -5000001    1    1    2    0    0  0.17883617903E+03 -0.35253559436E+03 -0.79550610186E+03  0.91032668989E+03  0.19900000000E+03 0.  0.
<mgrwt>
<rscale>  0 0.88628442E+03</rscale>
<asrwt>0</asrwt>
<pdfrwt beam="1">  1        1 0.25678003E+00 0.88628442E+03</pdfrwt>
<pdfrwt beam="2">  1       -1 0.15607341E-01 0.88628442E+03</pdfrwt>
<totfact> 0.15609198E+02</totfact>
</mgrwt>
</event>
<event>
 4    1  0.6480558E-006  0.7783699E+03  0.7818608E-02  0.9591865E-01
          1   -1    0    0  501    0  0.00000000000E+00  0.00000000000E+00  0.18828766013E+04  0.18828766013E+04  0.50400000000E-02 0.  1.
         -1   -1    0    0    0  501 -0.00000000000E+00 -0.00000000000E+00 -0.80443354983E+02  0.80443355141E+02  0.50400000000E-02 0. -1.
    5000001    1    1    2    0    0 -0.18581129059E+03  0.14592456453E+03  0.14983481557E+04  0.15298588203E+04  0.19900000000E+03 0.  0.
   -5000001    1    1    2    0    0  0.18581129059E+03 -0.14592456453E+03  0.30408509061E+03  0.43346113617E+03  0.19900000000E+03 0.  0.
<mgrwt>
<rscale>  0 0.77836986E+03</rscale>
<asrwt>0</asrwt>
<pdfrwt beam="1">  1        1 0.26898236E+00 0.77836986E+03</pdfrwt>
<pdfrwt beam="2">  1       -1 0.11491908E-01 0.77836986E+03</pdfrwt>
<totfact> 0.22813403E+02</totfact>
</mgrwt>
</event>
<event>
 4    1  0.6480558E-006  0.4758144E+03  0.7818608E-02  0.1020292E+00
         -1   -1    0    0    0  501 -0.00000000000E+00  0.00000000000E+00  0.42476862948E+03  0.42476862951E+03  0.50400000000E-02 0. -1.
          1   -1    0    0  501    0  0.00000000000E+00 -0.00000000000E+00 -0.13324860055E+03  0.13324860064E+03  0.50400000000E-02 0.  1.
    5000001    1    1    2    0    0 -0.45079500402E+02 -0.12112187819E+03  0.12557777251E+03  0.26846498409E+03  0.19900000000E+03 0.  0.
   -5000001    1    1    2    0    0  0.45079500402E+02  0.12112187819E+03  0.16594225642E+03  0.28955224606E+03  0.19900000000E+03 0.  0.
<mgrwt>
<rscale>  0 0.47581436E+03</rscale>
<asrwt>0</asrwt>
<pdfrwt beam="1">  1        1 0.19035515E-01 0.47581436E+03</pdfrwt>
<pdfrwt beam="2">  1       -1 0.60681232E-01 0.47581436E+03</pdfrwt>
<totfact> 0.77666872E+02</totfact>
</mgrwt>
</event>
<event>
 4    1  0.6480558E-006  0.1287677E+04  0.7818608E-02  0.9039395E-01
         -1   -1    0    0    0  501 -0.00000000000E+00  0.00000000000E+00  0.12080778274E+03  0.12080778285E+03  0.50400000000E-02 0.  1.
          1   -1    0    0  501    0  0.00000000000E+00 -0.00000000000E+00 -0.34313046104E+04  0.34313046104E+04  0.50400000000E-02 0. -1.
    5000001    1    1    2    0    0  0.36002653676E+03  0.34507057125E+02 -0.29230122272E+03  0.50581701134E+03  0.19900000000E+03 0.  0.
   -5000001    1    1    2    0    0 -0.36002653676E+03 -0.34507057125E+02 -0.30181956049E+04  0.30462953819E+04  0.19900000000E+03 0.  0.
<mgrwt>
<rscale>  0 0.12876774E+04</rscale>
<asrwt>0</asrwt>
<pdfrwt beam="1">  1        1 0.49018631E+00 0.12876774E+04</pdfrwt>
<pdfrwt beam="2">  1       -1 0.17258257E-01 0.12876774E+04</pdfrwt>
<totfact> 0.11352180E+01</totfact>
</mgrwt>
</event>
<event>
 4    1  0.6480558E-006  0.5814611E+03  0.7818608E-02  0.9944633E-01
         -1   -1    0    0    0  501 -0.00000000000E+00  0.00000000000E+00  0.61843749603E+02  0.61843749808E+02  0.50400000000E-02 0. -1.
          1   -1    0    0  501    0  0.00000000000E+00 -0.00000000000E+00 -0.13667387614E+04  0.13667387614E+04  0.50400000000E-02 0.  1.
    5000001    1    1    2    0    0 -0.20778599280E+03  0.75057373070E+01 -0.55138934908E+03  0.62198277241E+03  0.19900000000E+03 0.  0.
   -5000001    1    1    2    0    0  0.20778599280E+03 -0.75057373070E+01 -0.75350566275E+03  0.80659973884E+03  0.19900000000E+03 0.  0.
<mgrwt>
<rscale>  0 0.58146109E+03</rscale>
<asrwt>0</asrwt>
<pdfrwt beam="1">  1        1 0.19524838E+00 0.58146109E+03</pdfrwt>
<pdfrwt beam="2">  1       -1 0.88348222E-02 0.58146109E+03</pdfrwt>
<totfact> 0.74500414E+02</totfact>
</mgrwt>
</event>
<event>
 4    1  0.6480558E-006  0.5469388E+03  0.7818608E-02  0.1002205E+00
          1   -1    0    0  501    0  0.00000000000E+00  0.00000000000E+00  0.61857556324E+03  0.61857556326E+03  0.50400000000E-02 0.  1.
         -1   -1    0    0    0  501 -0.00000000000E+00 -0.00000000000E+00 -0.12089957489E+03  0.12089957500E+03  0.50400000000E-02 0. -1.
    5000001    1    1    2    0    0  0.10735853622E+03  0.10569083217E+03  0.97748848276E+02  0.26805269005E+03  0.19900000000E+03 0.  0.
   -5000001    1    1    2    0    0 -0.10735853622E+03 -0.10569083217E+03  0.39992714007E+03  0.47142244820E+03  0.19900000000E+03 0.  0.
<mgrwt>
<rscale>  0 0.54693884E+03</rscale>
<asrwt>0</asrwt>
<pdfrwt beam="1">  1        1 0.88367937E-01 0.54693884E+03</pdfrwt>
<pdfrwt beam="2">  1       -1 0.17271368E-01 0.54693884E+03</pdfrwt>
<totfact> 0.95654974E+02</totfact>
</mgrwt>
</event>
<event>
 4    1  0.6480558E-006  0.4108952E+03  0.7818608E-02  0.1040071E+00
          1   -1    0    0  501    0  0.00000000000E+00  0.00000000000E+00  0.15570192397E+03  0.15570192405E+03  0.50400000000E-02 0.  1.
         -1   -1    0    0    0  501 -0.00000000000E+00 -0.00000000000E+00 -0.27108664050E+03  0.27108664055E+03  0.50400000000E-02 0. -1.
    5000001    1    1    2    0    0  0.15682498237E+02  0.48598047542E+02 -0.57716495717E+02  0.21340080800E+03  0.19900000000E+03 0.  0.
   -5000001    1    1    2    0    0 -0.15682498237E+02 -0.48598047542E+02 -0.57668220816E+02  0.21338775660E+03  0.19900000000E+03 0.  0.
<mgrwt>
<rscale>  0 0.41089518E+03</rscale>
<asrwt>0</asrwt>
<pdfrwt beam="1">  1        1 0.22243132E-01 0.41089518E+03</pdfrwt>
<pdfrwt beam="2">  1       -1 0.38726663E-01 0.41089518E+03</pdfrwt>
<totfact> 0.14634469E+03</totfact>
</mgrwt>
</event>
<event>
 4    1  0.6480558E-006  0.9026364E+03  0.7818608E-02  0.9422292E-01
          1   -1    0    0  501    0  0.00000000000E+00  0.00000000000E+00  0.22267692388E+03  0.22267692394E+03  0.50400000000E-02 0. -1.
         -1   -1    0    0    0  501 -0.00000000000E+00 -0.00000000000E+00 -0.91472481231E+03  0.91472481232E+03  0.50400000000E-02 0.  1.
    5000001    1    1    2    0    0  0.12582248773E+03 -0.36964918442E+03 -0.21021884610E+03  0.48607075742E+03  0.19900000000E+03 0.  0.
   -5000001    1    1    2    0    0 -0.12582248773E+03  0.36964918442E+03 -0.48182904233E+03  0.65133097884E+03  0.19900000000E+03 0.  0.
<mgrwt>
<rscale>  0 0.90263638E+03</rscale>
<asrwt>0</asrwt>
<pdfrwt beam="1">  1        1 0.31810990E-01 0.90263638E+03</pdfrwt>
<pdfrwt beam="2">  1       -1 0.13067497E+00 0.90263638E+03</pdfrwt>
<totfact> 0.71862289E+01</totfact>
</mgrwt>
</event>
<event>
 4    1  0.6480558E-006  0.6883215E+03  0.7818608E-02  0.9737415E-01
          1   -1    0    0  501    0  0.00000000000E+00  0.00000000000E+00  0.27610557967E+04  0.27610557967E+04  0.50400000000E-02 0.  1.
         -1   -1    0    0    0  501 -0.00000000000E+00 -0.00000000000E+00 -0.42899029942E+02  0.42899030238E+02  0.50400000000E-02 0. -1.
    5000001    1    1    2    0    0 -0.17786119525E+03 -0.56964423368E+02  0.22132369277E+04  0.22299996073E+04  0.19900000000E+03 0.  0.
   -5000001    1    1    2    0    0  0.17786119525E+03  0.56964423368E+02  0.50491983901E+03  0.57395521962E+03  0.19900000000E+03 0.  0.
<mgrwt>
<rscale>  0 0.68832148E+03</rscale>
<asrwt>0</asrwt>
<pdfrwt beam="1">  1        1 0.39443651E+00 0.68832148E+03</pdfrwt>
<pdfrwt beam="2">  1       -1 0.61284333E-02 0.68832148E+03</pdfrwt>
<totfact> 0.17446300E+02</totfact>
</mgrwt>
</event>
<event>
 4    1  0.6480558E-006  0.7285036E+03  0.7818608E-02  0.9669692E-01
          1   -1    0    0  501    0  0.00000000000E+00  0.00000000000E+00  0.25712167625E+03  0.25712167630E+03  0.50400000000E-02 0.  1.
         -1   -1    0    0    0  501 -0.00000000000E+00 -0.00000000000E+00 -0.51601780613E+03  0.51601780615E+03  0.50400000000E-02 0. -1.
    5000001    1    1    2    0    0  0.17245216008E+02 -0.30459966364E+03 -0.12933803734E+03  0.38653289701E+03  0.19900000000E+03 0.  0.
   -5000001    1    1    2    0    0 -0.17245216008E+02  0.30459966364E+03 -0.12955809254E+03  0.38660658544E+03  0.19900000000E+03 0.  0.
<mgrwt>
<rscale>  0 0.72850357E+03</rscale>
<asrwt>0</asrwt>
<pdfrwt beam="1">  1        1 0.36731668E-01 0.72850357E+03</pdfrwt>
<pdfrwt beam="2">  1       -1 0.73716830E-01 0.72850357E+03</pdfrwt>
<totfact> 0.22167826E+02</totfact>
</mgrwt>
</event>
<event>
 4    1  0.6480558E-006  0.8254464E+03  0.7818608E-02  0.9523898E-01
          1   -1    0    0  501    0  0.00000000000E+00  0.00000000000E+00  0.14166150242E+04  0.14166150242E+04  0.50400000000E-02 0.  1.
         -1   -1    0    0    0  501 -0.00000000000E+00 -0.00000000000E+00 -0.12024469700E+03  0.12024469711E+03  0.50400000000E-02 0. -1.
    5000001    1    1    2    0    0  0.33866707265E+03 -0.12218839384E+03  0.58604124811E+03  0.71601028915E+03  0.19900000000E+03 0.  0.
   -5000001    1    1    2    0    0 -0.33866707265E+03  0.12218839384E+03  0.71032907907E+03  0.82084943215E+03  0.19900000000E+03 0.  0.
<mgrwt>
<rscale>  0 0.82544641E+03</rscale>
<asrwt>0</asrwt>
<pdfrwt beam="1">  1        1 0.20237356E+00 0.82544641E+03</pdfrwt>
<pdfrwt beam="2">  1       -1 0.17177815E-01 0.82544641E+03</pdfrwt>
<totfact> 0.23470753E+02</totfact>
</mgrwt>
</event>
<event>
 4    1  0.6480558E-006  0.4801237E+03  0.7818608E-02  0.1019101E+00
         -1   -1    0    0    0  501 -0.00000000000E+00  0.00000000000E+00  0.20644028681E+03  0.20644028687E+03  0.50400000000E-02 0. -1.
          1   -1    0    0  501    0  0.00000000000E+00 -0.00000000000E+00 -0.27915915475E+03  0.27915915479E+03  0.50400000000E-02 0.  1.
    5000001    1    1    2    0    0 -0.10238680444E+03  0.20998183727E+02  0.48891341022E+02  0.23003335556E+03  0.19900000000E+03 0.  0.
   -5000001    1    1    2    0    0  0.10238680444E+03 -0.20998183727E+02 -0.12161020896E+03  0.25556608611E+03  0.19900000000E+03 0.  0.
<mgrwt>
<rscale>  0 0.48012372E+03</rscale>
<asrwt>0</asrwt>
<pdfrwt beam="1">  1        1 0.39879879E-01 0.48012372E+03</pdfrwt>
<pdfrwt beam="2">  1       -1 0.29491470E-01 0.48012372E+03</pdfrwt>
<totfact> 0.11151680E+03</totfact>
</mgrwt>
</event>
<event>
 4    1  0.6480558E-006  0.9107774E+03  0.7818608E-02  0.9412209E-01
         -1   -1    0    0    0  501 -0.00000000000E+00  0.00000000000E+00  0.15701943568E+04  0.15701943569E+04  0.50400000000E-02 0. -1.
          1   -1    0    0  501    0  0.00000000000E+00 -0.00000000000E+00 -0.13207209496E+03  0.13207209506E+03  0.50400000000E-02 0.  1.
    5000001    1    1    2    0    0 -0.34854857001E+03  0.84344314413E+02  0.34911774439E+03  0.53859471635E+03  0.19900000000E+03 0.  0.
   -5000001    1    1    2    0    0  0.34854857001E+03 -0.84344314413E+02  0.10890045175E+04  0.11636717356E+04  0.19900000000E+03 0.  0.
<mgrwt>
<rscale>  0 0.91077738E+03</rscale>
<asrwt>0</asrwt>
<pdfrwt beam="1">  1        1 0.18867442E-01 0.91077738E+03</pdfrwt>
<pdfrwt beam="2">  1       -1 0.22431349E+00 0.91077738E+03</pdfrwt>
<totfact> 0.29599338E+01</totfact>
</mgrwt>
</event>
<event>
 4    1  0.6480558E-006  0.8840044E+03  0.7818608E-02  0.9445801E-01
          1   -1    0    0  501    0  0.00000000000E+00  0.00000000000E+00  0.70346649249E+03  0.70346649250E+03  0.50400000000E-02 0.  1.
         -1   -1    0    0    0  501 -0.00000000000E+00 -0.00000000000E+00 -0.27771892221E+03  0.27771892226E+03  0.50400000000E-02 0. -1.
    5000001    1    1    2    0    0 -0.34204668523E+03  0.90340743684E+01 -0.54401482404E+01  0.39586379550E+03  0.19900000000E+03 0.  0.
   -5000001    1    1    2    0    0  0.34204668523E+03 -0.90340743684E+01  0.43118771852E+03  0.58532161926E+03  0.19900000000E+03 0.  0.
<mgrwt>
<rscale>  0 0.88400443E+03</rscale>
<asrwt>0</asrwt>
<pdfrwt beam="1">  1        1 0.10049521E+00 0.88400443E+03</pdfrwt>
<pdfrwt beam="2">  1       -1 0.39674132E-01 0.88400443E+03</pdfrwt>
<totfact> 0.18820261E+02</totfact>
</mgrwt>
</event>
<event>
 4    1  0.6480558E-006  0.8333394E+03  0.7818608E-02  0.9512975E-01
         -1   -1    0    0    0  501 -0.00000000000E+00  0.00000000000E+00  0.51517491904E+03  0.51517491907E+03  0.50400000000E-02 0.  1.
          1   -1    0    0  501    0  0.00000000000E+00 -0.00000000000E+00 -0.33699937986E+03  0.33699937990E+03  0.50400000000E-02 0. -1.
    5000001    1    1    2    0    0  0.19904439143E+03 -0.17104339307E+03  0.35007792559E+03  0.48065587072E+03  0.19900000000E+03 0.  0.
   -5000001    1    1    2    0    0 -0.19904439143E+03  0.17104339307E+03 -0.17190238641E+03  0.37151842824E+03  0.19900000000E+03 0.  0.
<mgrwt>
<rscale>  0 0.83333937E+03</rscale>
<asrwt>0</asrwt>
<pdfrwt beam="1">  1        1 0.48142769E-01 0.83333937E+03</pdfrwt>
<pdfrwt beam="2">  1       -1 0.73596417E-01 0.83333937E+03</pdfrwt>
<totfact> 0.15591801E+02</totfact>
</mgrwt>
</event>
<event>
 4    1  0.6480558E-006  0.4639511E+03  0.7818608E-02  0.1023641E+00
         -1   -1    0    0    0  501 -0.00000000000E+00  0.00000000000E+00  0.10196209216E+03  0.10196209229E+03  0.50400000000E-02 0. -1.
          1   -1    0    0  501    0  0.00000000000E+00 -0.00000000000E+00 -0.52777114249E+03  0.52777114251E+03  0.50400000000E-02 0.  1.
    5000001    1    1    2    0    0 -0.75342653278E+02  0.49103323814E+02 -0.31912346270E+03  0.38668906923E+03  0.19900000000E+03 0.  0.
   -5000001    1    1    2    0    0  0.75342653278E+02 -0.49103323814E+02 -0.10668558762E+03  0.24304416557E+03  0.19900000000E+03 0.  0.
<mgrwt>
<rscale>  0 0.46395107E+03</rscale>
<asrwt>0</asrwt>
<pdfrwt beam="1">  1        1 0.75395876E-01 0.46395107E+03</pdfrwt>
<pdfrwt beam="2">  1       -1 0.14566013E-01 0.46395107E+03</pdfrwt>
<totfact> 0.15693307E+03</totfact>
</mgrwt>
</event>
<event>
 4    1  0.6480558E-006  0.4410776E+03  0.7818608E-02  0.1030417E+00
          1   -1    0    0  501    0  0.00000000000E+00  0.00000000000E+00  0.36929602057E+04  0.36929602057E+04  0.50400000000E-02 0.  1.
         -1   -1    0    0    0  501 -0.00000000000E+00 -0.00000000000E+00 -0.13170292293E+02  0.13170293257E+02  0.50400000000E-02 0. -1.
    5000001    1    1    2    0    0  0.65616211044E+02  0.12204152088E+02  0.12711332903E+04  0.12883459435E+04  0.19900000000E+03 0.  0.
   -5000001    1    1    2    0    0 -0.65616211044E+02 -0.12204152088E+02  0.24086566232E+04  0.24177845555E+04  0.19900000000E+03 0.  0.
<mgrwt>
<rscale>  0 0.44107762E+03</rscale>
<asrwt>0</asrwt>
<pdfrwt beam="1">  1        1 0.52756591E+00 0.44107762E+03</pdfrwt>
<pdfrwt beam="2">  1       -1 0.18814698E-02 0.44107762E+03</pdfrwt>
<totfact> 0.25746487E+02</totfact>
</mgrwt>
</event>
<event>
 4    1  0.6480558E-006  0.5488192E+03  0.7818608E-02  0.1001768E+00
         -1   -1    0    0    0  501 -0.00000000000E+00  0.00000000000E+00  0.78572126273E+02  0.78572126434E+02  0.50400000000E-02 0. -1.
          1   -1    0    0  501    0  0.00000000000E+00 -0.00000000000E+00 -0.95836321699E+03  0.95836321700E+03  0.50400000000E-02 0.  1.
    5000001    1    1    2    0    0 -0.16887466762E+03 -0.68725946930E+02 -0.34622799788E+03  0.43899514309E+03  0.19900000000E+03 0.  0.
   -5000001    1    1    2    0    0  0.16887466762E+03  0.68725946930E+02 -0.53356309284E+03  0.59794020034E+03  0.19900000000E+03 0.  0.
<mgrwt>
<rscale>  0 0.54881923E+03</rscale>
<asrwt>0</asrwt>
<pdfrwt beam="1">  1        1 0.13690902E+00 0.54881923E+03</pdfrwt>
<pdfrwt beam="2">  1       -1 0.11224590E-01 0.54881923E+03</pdfrwt>
<totfact> 0.98426364E+02</totfact>
</mgrwt>
</event>
<event>
 4    1  0.6480558E-006  0.5279992E+03  0.7818608E-02  0.1006719E+00
         -1   -1    0    0    0  501 -0.00000000000E+00  0.00000000000E+00  0.73174296935E+02  0.73174297109E+02  0.50400000000E-02 0.  1.
          1   -1    0    0  501    0  0.00000000000E+00 -0.00000000000E+00 -0.95246282646E+03  0.95246282647E+03  0.50400000000E-02 0. -1.
    5000001    1    1    2    0    0 -0.13191498954E+03  0.11099485565E+03 -0.47717899084E+03  0.54499744196E+03  0.19900000000E+03 0.  0.
   -5000001    1    1    2    0    0  0.13191498954E+03 -0.11099485565E+03 -0.40210953868E+03  0.48063968162E+03  0.19900000000E+03 0.  0.
<mgrwt>
<rscale>  0 0.52799923E+03</rscale>
<asrwt>0</asrwt>
<pdfrwt beam="1">  1        1 0.13606611E+00 0.52799923E+03</pdfrwt>
<pdfrwt beam="2">  1       -1 0.10453472E-01 0.52799923E+03</pdfrwt>
<totfact> 0.11133843E+03</totfact>
</mgrwt>
</event>
<event>
 4    1  0.6480558E-006  0.6576985E+03  0.7818608E-02  0.9792440E-01
         -1   -1    0    0    0  501 -0.00000000000E+00  0.00000000000E+00  0.43485868700E+03  0.43485868703E+03  0.50400000000E-02 0. -1.
          1   -1    0    0  501    0  0.00000000000E+00 -0.00000000000E+00 -0.24868267705E+03  0.24868267710E+03  0.50400000000E-02 0.  1.
    5000001    1    1    2    0    0  0.25267490211E+03 -0.65351662749E+02  0.71652945523E+02  0.33593241967E+03  0.19900000000E+03 0.  0.
   -5000001    1    1    2    0    0 -0.25267490211E+03  0.65351662749E+02  0.11452306443E+03  0.34760894446E+03  0.19900000000E+03 0.  0.
<mgrwt>
<rscale>  0 0.65769848E+03</rscale>
<asrwt>0</asrwt>
<pdfrwt beam="1">  1        1 0.35526097E-01 0.65769848E+03</pdfrwt>
<pdfrwt beam="2">  1       -1 0.62122669E-01 0.65769848E+03</pdfrwt>
<totfact> 0.32822606E+02</totfact>
</mgrwt>
</event>
<event>
 4    1  0.6480558E-006  0.4360667E+03  0.7818608E-02  0.1031961E+00
         -1   -1    0    0    0  501 -0.00000000000E+00  0.00000000000E+00  0.44812304017E+02  0.44812304300E+02  0.50400000000E-02 0. -1.
          1   -1    0    0  501    0  0.00000000000E+00 -0.00000000000E+00 -0.10608366602E+04  0.10608366603E+04  0.50400000000E-02 0.  1.
    5000001    1    1    2    0    0 -0.44541064448E+01 -0.37167920920E+02 -0.30302418592E+03  0.36445294712E+03  0.19900000000E+03 0.  0.
   -5000001    1    1    2    0    0  0.44541064448E+01  0.37167920920E+02 -0.71300017030E+03  0.74119601744E+03  0.19900000000E+03 0.  0.
<mgrwt>
<rscale>  0 0.43606667E+03</rscale>
<asrwt>0</asrwt>
<pdfrwt beam="1">  1        1 0.15154808E+00 0.43606667E+03</pdfrwt>
<pdfrwt beam="2">  1       -1 0.64017584E-02 0.43606667E+03</pdfrwt>
<totfact> 0.19896313E+03</totfact>
</mgrwt>
</event>
<event>
 4    1  0.6480558E-006  0.1022357E+04  0.7818608E-02  0.9284358E-01
         -1   -1    0    0    0  501 -0.00000000000E+00  0.00000000000E+00  0.18338720084E+03  0.18338720091E+03  0.50400000000E-02 0. -1.
          1   -1    0    0  501    0  0.00000000000E+00 -0.00000000000E+00 -0.14248726534E+04  0.14248726534E+04  0.50400000000E-02 0.  1.
    5000001    1    1    2    0    0 -0.65229769934E+02  0.34074888286E+03 -0.11215137314E+04  0.11906967598E+04  0.19900000000E+03 0.  0.
   -5000001    1    1    2    0    0  0.65229769934E+02 -0.34074888286E+03 -0.11997172120E+03  0.41756309457E+03  0.19900000000E+03 0.  0.
<mgrwt>
<rscale>  0 0.10223569E+04</rscale>
<asrwt>0</asrwt>
<pdfrwt beam="1">  1        1 0.20355323E+00 0.10223569E+04</pdfrwt>
<pdfrwt beam="2">  1       -1 0.26198172E-01 0.10223569E+04</pdfrwt>
<totfact> 0.11252177E+02</totfact>
</mgrwt>
</event>
<event>
 4    1  0.6480558E-006  0.9144505E+03  0.7818608E-02  0.9407696E-01
         -1   -1    0    0    0  501 -0.00000000000E+00  0.00000000000E+00  0.52153826214E+03  0.52153826217E+03  0.50400000000E-02 0. -1.
          1   -1    0    0  501    0  0.00000000000E+00 -0.00000000000E+00 -0.40084292723E+03  0.40084292726E+03  0.50400000000E-02 0.  1.
    5000001    1    1    2    0    0  0.55383805095E+02 -0.33659951570E+03  0.29275276957E+03  0.49160124484E+03  0.19900000000E+03 0.  0.
   -5000001    1    1    2    0    0 -0.55383805095E+02  0.33659951570E+03 -0.17205743465E+03  0.43077994459E+03  0.19900000000E+03 0.  0.
<mgrwt>
<rscale>  0 0.91445049E+03</rscale>
<asrwt>0</asrwt>
<pdfrwt beam="1">  1        1 0.57263275E-01 0.91445049E+03</pdfrwt>
<pdfrwt beam="2">  1       -1 0.74505466E-01 0.91445049E+03</pdfrwt>
<totfact> 0.12057920E+02</totfact>
</mgrwt>
</event>
<event>
 4    1  0.6480558E-006  0.9100259E+03  0.7818608E-02  0.9413135E-01
          1   -1    0    0  501    0  0.00000000000E+00  0.00000000000E+00  0.16211555721E+03  0.16211555729E+03  0.50400000000E-02 0.  1.
         -1   -1    0    0    0  501 -0.00000000000E+00 -0.00000000000E+00 -0.12770939702E+04  0.12770939703E+04  0.50400000000E-02 0. -1.
    5000001    1    1    2    0    0 -0.34752056795E+03  0.81084666026E+02 -0.24083069366E+03  0.47428439909E+03  0.19900000000E+03 0.  0.
   -5000001    1    1    2    0    0  0.34752056795E+03 -0.81084666026E+02 -0.87414771938E+03  0.96492512845E+03  0.19900000000E+03 0.  0.
<mgrwt>
<rscale>  0 0.91002594E+03</rscale>
<asrwt>0</asrwt>
<pdfrwt beam="1">  1        1 0.23159366E-01 0.91002594E+03</pdfrwt>
<pdfrwt beam="2">  1       -1 0.18244199E+00 0.91002594E+03</pdfrwt>
<totfact> 0.43602244E+01</totfact>
</mgrwt>
</event>
<event>
 4    1  0.6480558E-006  0.6551600E+03  0.7818608E-02  0.9797145E-01
         -1   -1    0    0    0  501 -0.00000000000E+00  0.00000000000E+00  0.85732337245E+02  0.85732337393E+02  0.50400000000E-02 0. -1.
          1   -1    0    0  501    0  0.00000000000E+00 -0.00000000000E+00 -0.12516705725E+04  0.12516705725E+04  0.50400000000E-02 0.  1.
    5000001    1    1    2    0    0  0.44935743794E+02 -0.25183372978E+03 -0.68018900881E+03  0.75345705666E+03  0.19900000000E+03 0.  0.
   -5000001    1    1    2    0    0 -0.44935743794E+02  0.25183372978E+03 -0.48574922643E+03  0.58394585323E+03  0.19900000000E+03 0.  0.
<mgrwt>
<rscale>  0 0.65515996E+03</rscale>
<asrwt>0</asrwt>
<pdfrwt beam="1">  1        1 0.17881007E+00 0.65515996E+03</pdfrwt>
<pdfrwt beam="2">  1       -1 0.12247478E-01 0.65515996E+03</pdfrwt>
<totfact> 0.52823763E+02</totfact>
</mgrwt>
</event>
<event>
 4    1  0.6480558E-006  0.7035789E+03  0.7818608E-02  0.9711131E-01
         -1   -1    0    0    0  501 -0.00000000000E+00  0.00000000000E+00  0.21505830763E+03  0.21505830769E+03  0.50400000000E-02 0. -1.
          1   -1    0    0  501    0  0.00000000000E+00 -0.00000000000E+00 -0.57545240514E+03  0.57545240517E+03  0.50400000000E-02 0.  1.
    5000001    1    1    2    0    0  0.23270043860E+03  0.74098582034E+02 -0.42797803373E+01  0.31505461511E+03  0.19900000000E+03 0.  0.
   -5000001    1    1    2    0    0 -0.23270043860E+03 -0.74098582034E+02 -0.35611431718E+03  0.47545609774E+03  0.19900000000E+03 0.  0.
<mgrwt>
<rscale>  0 0.70357891E+03</rscale>
<asrwt>0</asrwt>
<pdfrwt beam="1">  1        1 0.82207486E-01 0.70357891E+03</pdfrwt>
<pdfrwt beam="2">  1       -1 0.30722616E-01 0.70357891E+03</pdfrwt>
<totfact> 0.39913912E+02</totfact>
</mgrwt>
</event>
<event>
 4    1  0.6480558E-006  0.4896323E+03  0.7818608E-02  0.1016521E+00
          1   -1    0    0  501    0  0.00000000000E+00  0.00000000000E+00  0.11756814336E+04  0.11756814336E+04  0.50400000000E-02 0. -1.
         -1   -1    0    0    0  501 -0.00000000000E+00 -0.00000000000E+00 -0.50978907844E+02  0.50978908094E+02  0.50400000000E-02 0.  1.
    5000001    1    1    2    0    0 -0.17744561701E+02  0.13316182351E+03  0.44254245890E+03  0.50347966060E+03  0.19900000000E+03 0.  0.
   -5000001    1    1    2    0    0  0.17744561701E+02 -0.13316182351E+03  0.68216006687E+03  0.72318068112E+03  0.19900000000E+03 0.  0.
<mgrwt>
<rscale>  0 0.48963233E+03</rscale>
<asrwt>0</asrwt>
<pdfrwt beam="1">  1        1 0.16795450E+00 0.48963233E+03</pdfrwt>
<pdfrwt beam="2">  1       -1 0.72827008E-02 0.48963233E+03</pdfrwt>
<totfact> 0.13553526E+03</totfact>
</mgrwt>
</event>
<event>
 4    1  0.6480558E-006  0.8142261E+03  0.7818608E-02  0.9539651E-01
         -1   -1    0    0    0  501 -0.00000000000E+00  0.00000000000E+00  0.53394670224E+03  0.53394670226E+03  0.50400000000E-02 0.  1.
          1   -1    0    0  501    0  0.00000000000E+00 -0.00000000000E+00 -0.31040742612E+03  0.31040742616E+03  0.50400000000E-02 0. -1.
    5000001    1    1    2    0    0 -0.80976012714E+02 -0.33107896893E+03  0.82270530683E+01  0.39476459151E+03  0.19900000000E+03 0.  0.
   -5000001    1    1    2    0    0  0.80976012714E+02  0.33107896893E+03  0.21531222305E+03  0.44958953691E+03  0.19900000000E+03 0.  0.
<mgrwt>
<rscale>  0 0.81422607E+03</rscale>
<asrwt>0</asrwt>
<pdfrwt beam="1">  1        1 0.44343918E-01 0.81422607E+03</pdfrwt>
<pdfrwt beam="2">  1       -1 0.76278100E-01 0.81422607E+03</pdfrwt>
<totfact> 0.16116021E+02</totfact>
</mgrwt>
</event>
<event>
 4    1  0.6480558E-006  0.7975187E+03  0.7818608E-02  0.9563616E-01
          1   -1    0    0  501    0  0.00000000000E+00  0.00000000000E+00  0.99317875674E+03  0.99317875676E+03  0.50400000000E-02 0.  1.
         -1   -1    0    0    0  501 -0.00000000000E+00 -0.00000000000E+00 -0.16010110639E+03  0.16010110647E+03  0.50400000000E-02 0. -1.
    5000001    1    1    2    0    0 -0.32971249380E+03  0.82560922744E+02  0.32644664354E+03  0.51156138010E+03  0.19900000000E+03 0.  0.
   -5000001    1    1    2    0    0  0.32971249380E+03 -0.82560922744E+02  0.50663100681E+03  0.64171848313E+03  0.19900000000E+03 0.  0.
<mgrwt>
<rscale>  0 0.79751870E+03</rscale>
<asrwt>0</asrwt>
<pdfrwt beam="1">  1        1 0.14188268E+00 0.79751870E+03</pdfrwt>
<pdfrwt beam="2">  1       -1 0.22871587E-01 0.79751870E+03</pdfrwt>
<totfact> 0.28689957E+02</totfact>
</mgrwt>
</event>
<event>
 4    1  0.6480558E-006  0.7446539E+03  0.7818608E-02  0.9643775E-01
         -1   -1    0    0    0  501 -0.00000000000E+00  0.00000000000E+00  0.77599638912E+02  0.77599639075E+02  0.50400000000E-02 0. -1.
          1   -1    0    0  501    0  0.00000000000E+00 -0.00000000000E+00 -0.17864433670E+04  0.17864433670E+04  0.50400000000E-02 0.  1.
    5000001    1    1    2    0    0 -0.13136705996E+03 -0.28595121004E+03 -0.85196740595E+03  0.92977140189E+03  0.19900000000E+03 0.  0.
   -5000001    1    1    2    0    0  0.13136705996E+03  0.28595121004E+03 -0.85687632216E+03  0.93427160422E+03  0.19900000000E+03 0.  0.
<mgrwt>
<rscale>  0 0.74465391E+03</rscale>
<asrwt>0</asrwt>
<pdfrwt beam="1">  1        1 0.25520617E+00 0.74465391E+03</pdfrwt>
<pdfrwt beam="2">  1       -1 0.11085664E-01 0.74465391E+03</pdfrwt>
<totfact> 0.27826531E+02</totfact>
</mgrwt>
</event>
<event>
 4    1  0.6480558E-006  0.6802039E+03  0.7818608E-02  0.9751698E-01
         -1   -1    0    0    0  501 -0.00000000000E+00  0.00000000000E+00  0.60710547715E+02  0.60710547924E+02  0.50400000000E-02 0.  1.
          1   -1    0    0  501    0  0.00000000000E+00 -0.00000000000E+00 -0.19052591422E+04  0.19052591422E+04  0.50400000000E-02 0. -1.
    5000001    1    1    2    0    0 -0.75032283879E+02  0.26480533572E+03 -0.87084569633E+03  0.93473254798E+03  0.19900000000E+03 0.  0.
   -5000001    1    1    2    0    0  0.75032283879E+02 -0.26480533572E+03 -0.97370289812E+03  0.10312371421E+04  0.19900000000E+03 0.  0.
<mgrwt>
<rscale>  0 0.68020387E+03</rscale>
<asrwt>0</asrwt>
<pdfrwt beam="1">  1        1 0.27217984E+00 0.68020387E+03</pdfrwt>
<pdfrwt beam="2">  1       -1 0.86729366E-02 0.68020387E+03</pdfrwt>
<totfact> 0.34745611E+02</totfact>
</mgrwt>
</event>
<event>
 4    1  0.6480558E-006  0.7603911E+03  0.7818608E-02  0.9619188E-01
          1   -1    0    0  501    0  0.00000000000E+00  0.00000000000E+00  0.25643942085E+04  0.25643942085E+04  0.50400000000E-02 0.  1.
         -1   -1    0    0    0  501 -0.00000000000E+00 -0.00000000000E+00 -0.56367563233E+02  0.56367563458E+02  0.50400000000E-02 0. -1.
    5000001    1    1    2    0    0 -0.17710033968E+03  0.18259972718E+03  0.19454015908E+04  0.19720282808E+04  0.19900000000E+03 0.  0.
   -5000001    1    1    2    0    0  0.17710033968E+03 -0.18259972718E+03  0.56262505448E+03  0.64873349121E+03  0.19900000000E+03 0.  0.
<mgrwt>
<rscale>  0 0.76039109E+03</rscale>
<asrwt>0</asrwt>
<pdfrwt beam="1">  1        1 0.36634214E+00 0.76039109E+03</pdfrwt>
<pdfrwt beam="2">  1       -1 0.80525067E-02 0.76039109E+03</pdfrwt>
<totfact> 0.15083270E+02</totfact>
</mgrwt>
</event>
<event>
 4    1  0.6480558E-006  0.6066199E+03  0.7818608E-02  0.9891766E-01
          1   -1    0    0  501    0  0.00000000000E+00  0.00000000000E+00  0.10359743533E+04  0.10359743534E+04  0.50400000000E-02 0.  1.
         -1   -1    0    0    0  501 -0.00000000000E+00 -0.00000000000E+00 -0.88802318593E+02  0.88802318736E+02  0.50400000000E-02 0. -1.
    5000001    1    1    2    0    0 -0.22514092246E+03 -0.41055841732E+02  0.46490747760E+03  0.55508015623E+03  0.19900000000E+03 0.  0.
   -5000001    1    1    2    0    0  0.22514092246E+03  0.41055841732E+02  0.48226455715E+03  0.56969651587E+03  0.19900000000E+03 0.  0.
<mgrwt>
<rscale>  0 0.60661990E+03</rscale>
<asrwt>0</asrwt>
<pdfrwt beam="1">  1        1 0.14799635E+00 0.60661990E+03</pdfrwt>
<pdfrwt beam="2">  1       -1 0.12686044E-01 0.60661990E+03</pdfrwt>
<totfact> 0.70833090E+02</totfact>
</mgrwt>
</event>
<event>
 4    1  0.6480558E-006  0.8259451E+03  0.7818608E-02  0.9523204E-01
          1   -1    0    0  501    0  0.00000000000E+00  0.00000000000E+00  0.11282509087E+04  0.11282509087E+04  0.50400000000E-02 0. -1.
         -1   -1    0    0    0  501 -0.00000000000E+00 -0.00000000000E+00 -0.15115993142E+03  0.15115993150E+03  0.50400000000E-02 0.  1.
    5000001    1    1    2    0    0 -0.36173833854E+03 -0.37367744497E+01  0.50211526015E+03  0.65006870678E+03  0.19900000000E+03 0.  0.
   -5000001    1    1    2    0    0  0.36173833854E+03  0.37367744497E+01  0.47497571714E+03  0.62934213344E+03  0.19900000000E+03 0.  0.
<mgrwt>
<rscale>  0 0.82594511E+03</rscale>
<asrwt>0</asrwt>
<pdfrwt beam="1">  1        1 0.16117870E+00 0.82594511E+03</pdfrwt>
<pdfrwt beam="2">  1       -1 0.21594276E-01 0.82594511E+03</pdfrwt>
<totfact> 0.25176119E+02</totfact>
</mgrwt>
</event>
<event>
 4    1  0.6480558E-006  0.6893453E+03  0.7818608E-02  0.9735629E-01
          1   -1    0    0  501    0  0.00000000000E+00  0.00000000000E+00  0.17691705862E+03  0.17691705869E+03  0.50400000000E-02 0.  1.
         -1   -1    0    0    0  501 -0.00000000000E+00 -0.00000000000E+00 -0.67149679688E+03  0.67149679690E+03  0.50400000000E-02 0. -1.
    5000001    1    1    2    0    0  0.24768725685E+03  0.12975788648E+03 -0.28644545957E+03  0.44703253530E+03  0.19900000000E+03 0.  0.
   -5000001    1    1    2    0    0 -0.24768725685E+03 -0.12975788648E+03 -0.20813427869E+03  0.40138132029E+03  0.19900000000E+03 0.  0.
<mgrwt>
<rscale>  0 0.68934531E+03</rscale>
<asrwt>0</asrwt>
<pdfrwt beam="1">  1        1 0.25273866E-01 0.68934531E+03</pdfrwt>
<pdfrwt beam="2">  1       -1 0.95928113E-01 0.68934531E+03</pdfrwt>
<totfact> 0.20459943E+02</totfact>
</mgrwt>
</event>
<event>
 4    1  0.6480558E-006  0.9098206E+03  0.7818608E-02  0.9413388E-01
         -1   -1    0    0    0  501 -0.00000000000E+00  0.00000000000E+00  0.26313698664E+04  0.26313698664E+04  0.50400000000E-02 0. -1.
          1   -1    0    0  501    0  0.00000000000E+00 -0.00000000000E+00 -0.78644739952E+02  0.78644740114E+02  0.50400000000E-02 0.  1.
    5000001    1    1    2    0    0 -0.36272983805E+03 -0.18690425753E+03  0.13624990351E+04  0.14361444069E+04  0.19900000000E+03 0.  0.
   -5000001    1    1    2    0    0  0.36272983805E+03  0.18690425753E+03  0.11902260914E+04  0.12738701996E+04  0.19900000000E+03 0.  0.
<mgrwt>
<rscale>  0 0.90982064E+03</rscale>
<asrwt>0</asrwt>
<pdfrwt beam="1">  1        1 0.11234964E-01 0.90982064E+03</pdfrwt>
<pdfrwt beam="2">  1       -1 0.37590996E+00 0.90982064E+03</pdfrwt>
<totfact> 0.61901138E+00</totfact>
</mgrwt>
</event>
<event>
 4    1  0.6480558E-006  0.5784089E+03  0.7818608E-02  0.9951242E-01
         -1   -1    0    0    0  501 -0.00000000000E+00  0.00000000000E+00  0.45133538300E+03  0.45133538303E+03  0.50400000000E-02 0.  1.
          1   -1    0    0  501    0  0.00000000000E+00 -0.00000000000E+00 -0.18531500795E+03  0.18531500801E+03  0.50400000000E-02 0. -1.
    5000001    1    1    2    0    0 -0.18686535700E+03 -0.38039302875E+02  0.36596997134E+02  0.27803954828E+03  0.19900000000E+03 0.  0.
   -5000001    1    1    2    0    0  0.18686535700E+03  0.38039302875E+02  0.22942337792E+03  0.35861084276E+03  0.19900000000E+03 0.  0.
<mgrwt>
<rscale>  0 0.57840892E+03</rscale>
<asrwt>0</asrwt>
<pdfrwt beam="1">  1        1 0.26473573E-01 0.57840892E+03</pdfrwt>
<pdfrwt beam="2">  1       -1 0.64476482E-01 0.57840892E+03</pdfrwt>
<totfact> 0.44698408E+02</totfact>
</mgrwt>
</event>
<event>
 4    1  0.6480558E-006  0.8563370E+03  0.7818608E-02  0.9481871E-01
          1   -1    0    0  501    0  0.00000000000E+00  0.00000000000E+00  0.15316432890E+03  0.15316432899E+03  0.50400000000E-02 0.  1.
         -1   -1    0    0    0  501 -0.00000000000E+00 -0.00000000000E+00 -0.11969383813E+04  0.11969383813E+04  0.50400000000E-02 0. -1.
    5000001    1    1    2    0    0 -0.19355893769E+03  0.32596900276E+03 -0.52587893085E+03  0.67813752516E+03  0.19900000000E+03 0.  0.
   -5000001    1    1    2    0    0  0.19355893769E+03 -0.32596900276E+03 -0.51789512154E+03  0.67196518514E+03  0.19900000000E+03 0.  0.
<mgrwt>
<rscale>  0 0.85633700E+03</rscale>
<asrwt>0</asrwt>
<pdfrwt beam="1">  1        1 0.21880619E-01 0.85633700E+03</pdfrwt>
<pdfrwt beam="2">  1       -1 0.17099119E+00 0.85633700E+03</pdfrwt>
<totfact> 0.57041711E+01</totfact>
</mgrwt>
</event>
<event>
 4    1  0.6480558E-006  0.4790334E+03  0.7818608E-02  0.1019401E+00
          1   -1    0    0  501    0  0.00000000000E+00  0.00000000000E+00  0.11432397541E+03  0.11432397552E+03  0.50400000000E-02 0. -1.
         -1   -1    0    0    0  501 -0.00000000000E+00 -0.00000000000E+00 -0.50180409262E+03  0.50180409265E+03  0.50400000000E-02 0.  1.
    5000001    1    1    2    0    0  0.89629349979E+02  0.74842378179E+02 -0.11105855770E+03  0.25606601725E+03  0.19900000000E+03 0.  0.
   -5000001    1    1    2    0    0 -0.89629349979E+02 -0.74842378179E+02 -0.27642155951E+03  0.36006205092E+03  0.19900000000E+03 0.  0.
<mgrwt>
<rscale>  0 0.47903335E+03</rscale>
<asrwt>0</asrwt>
<pdfrwt beam="1">  1        1 0.16331997E-01 0.47903335E+03</pdfrwt>
<pdfrwt beam="2">  1       -1 0.71686298E-01 0.47903335E+03</pdfrwt>
<totfact> 0.68169865E+02</totfact>
</mgrwt>
</event>
<event>
 4    1  0.6480558E-006  0.5560789E+03  0.7818608E-02  0.1000097E+00
          1   -1    0    0  501    0  0.00000000000E+00  0.00000000000E+00  0.26215276487E+04  0.26215276487E+04  0.50400000000E-02 0.  1.
         -1   -1    0    0    0  501 -0.00000000000E+00 -0.00000000000E+00 -0.29488886929E+02  0.29488887360E+02  0.50400000000E-02 0. -1.
    5000001    1    1    2    0    0 -0.12444758124E+03  0.86746452117E+02  0.18738866523E+04  0.18905195934E+04  0.19900000000E+03 0.  0.
   -5000001    1    1    2    0    0  0.12444758124E+03 -0.86746452117E+02  0.71815210943E+03  0.76049694261E+03  0.19900000000E+03 0.  0.
<mgrwt>
<rscale>  0 0.55607889E+03</rscale>
<asrwt>0</asrwt>
<pdfrwt beam="1">  1        1 0.37450366E+00 0.55607889E+03</pdfrwt>
<pdfrwt beam="2">  1       -1 0.42127015E-02 0.55607889E+03</pdfrwt>
<totfact> 0.38435825E+02</totfact>
</mgrwt>
</event>
<event>
 4    1  0.6480558E-006  0.5901753E+03  0.7818608E-02  0.9926002E-01
          1   -1    0    0  501    0  0.00000000000E+00  0.00000000000E+00  0.34856980872E+03  0.34856980876E+03  0.50400000000E-02 0. -1.
         -1   -1    0    0    0  501 -0.00000000000E+00 -0.00000000000E+00 -0.24981138807E+03  0.24981138812E+03  0.50400000000E-02 0.  1.
    5000001    1    1    2    0    0  0.14490294206E+02  0.13326470762E+03 -0.12478302952E+03  0.27044640020E+03  0.19900000000E+03 0.  0.
   -5000001    1    1    2    0    0 -0.14490294206E+02 -0.13326470762E+03  0.22354145018E+03  0.32793479668E+03  0.19900000000E+03 0.  0.
<mgrwt>
<rscale>  0 0.59017525E+03</rscale>
<asrwt>0</asrwt>
<pdfrwt beam="1">  1        1 0.49795687E-01 0.59017525E+03</pdfrwt>
<pdfrwt beam="2">  1       -1 0.35687341E-01 0.59017525E+03</pdfrwt>
<totfact> 0.59982910E+02</totfact>
</mgrwt>
</event>
<event>
 4    1  0.6480558E-006  0.5478465E+03  0.7818608E-02  0.1001994E+00
         -1   -1    0    0    0  501 -0.00000000000E+00  0.00000000000E+00  0.17155046923E+03  0.17155046930E+03  0.50400000000E-02 0. -1.
          1   -1    0    0  501    0  0.00000000000E+00 -0.00000000000E+00 -0.43738693675E+03  0.43738693678E+03  0.50400000000E-02 0.  1.
    5000001    1    1    2    0    0  0.73328998588E+02 -0.13409877120E+03 -0.10786926347E+02  0.25115130947E+03  0.19900000000E+03 0.  0.
   -5000001    1    1    2    0    0 -0.73328998588E+02  0.13409877120E+03 -0.25504954117E+03  0.35778609660E+03  0.19900000000E+03 0.  0.
<mgrwt>
<rscale>  0 0.54784645E+03</rscale>
<asrwt>0</asrwt>
<pdfrwt beam="1">  1        1 0.62483848E-01 0.54784645E+03</pdfrwt>
<pdfrwt beam="2">  1       -1 0.24507210E-01 0.54784645E+03</pdfrwt>
<totfact> 0.85587768E+02</totfact>
</mgrwt>
</event>
<event>
 4    1  0.6480558E-006  0.5913726E+03  0.7818608E-02  0.9923469E-01
         -1   -1    0    0    0  501 -0.00000000000E+00  0.00000000000E+00  0.60229777756E+02  0.60229777966E+02  0.50400000000E-02 0. -1.
          1   -1    0    0  501    0  0.00000000000E+00 -0.00000000000E+00 -0.14516139010E+04  0.14516139010E+04  0.50400000000E-02 0.  1.
    5000001    1    1    2    0    0  0.93353236799E+02  0.89106414354E+02 -0.11470760691E+04  0.11713408079E+04  0.19900000000E+03 0.  0.
   -5000001    1    1    2    0    0 -0.93353236799E+02 -0.89106414354E+02 -0.24430805412E+03  0.34050287107E+03  0.19900000000E+03 0.  0.
<mgrwt>
<rscale>  0 0.59137258E+03</rscale>
<asrwt>0</asrwt>
<pdfrwt beam="1">  1        1 0.20737339E+00 0.59137258E+03</pdfrwt>
<pdfrwt beam="2">  1       -1 0.86042549E-02 0.59137258E+03</pdfrwt>
<totfact> 0.68341895E+02</totfact>
</mgrwt>
</event>
<event>
 4    1  0.6480558E-006  0.6366007E+03  0.7818608E-02  0.9832252E-01
         -1   -1    0    0    0  501 -0.00000000000E+00  0.00000000000E+00  0.17046225652E+03  0.17046225659E+03  0.50400000000E-02 0. -1.
          1   -1    0    0  501    0  0.00000000000E+00 -0.00000000000E+00 -0.59435514049E+03  0.59435514051E+03  0.50400000000E-02 0.  1.
    5000001    1    1    2    0    0  0.37650166964E+02 -0.12493538957E+03  0.42024944720E+02  0.24164743454E+03  0.19900000000E+03 0.  0.
   -5000001    1    1    2    0    0 -0.37650166964E+02  0.12493538957E+03 -0.46591782869E+03  0.52316996257E+03  0.19900000000E+03 0.  0.
<mgrwt>
<rscale>  0 0.63660072E+03</rscale>
<asrwt>0</asrwt>
<pdfrwt beam="1">  1        1 0.84907876E-01 0.63660072E+03</pdfrwt>
<pdfrwt beam="2">  1       -1 0.24351751E-01 0.63660072E+03</pdfrwt>
<totfact> 0.57021143E+02</totfact>
</mgrwt>
</event>
<event>
 4    1  0.6480558E-006  0.5725694E+03  0.7818608E-02  0.9964009E-01
          1   -1    0    0  501    0  0.00000000000E+00  0.00000000000E+00  0.13800652579E+03  0.13800652589E+03  0.50400000000E-02 0.  1.
         -1   -1    0    0    0  501 -0.00000000000E+00 -0.00000000000E+00 -0.59387726970E+03  0.59387726972E+03  0.50400000000E-02 0. -1.
    5000001    1    1    2    0    0  0.16207923079E+03  0.11535136585E+03 -0.29535988731E+03  0.40793881611E+03  0.19900000000E+03 0.  0.
   -5000001    1    1    2    0    0 -0.16207923079E+03 -0.11535136585E+03 -0.16051085660E+03  0.32394497950E+03  0.19900000000E+03 0.  0.
<mgrwt>
<rscale>  0 0.57256943E+03</rscale>
<asrwt>0</asrwt>
<pdfrwt beam="1">  1        1 0.19715218E-01 0.57256943E+03</pdfrwt>
<pdfrwt beam="2">  1       -1 0.84839608E-01 0.57256943E+03</pdfrwt>
<totfact> 0.37276324E+02</totfact>
</mgrwt>
</event>
<event>
 4    1  0.6480558E-006  0.4496148E+03  0.7818608E-02  0.1027837E+00
         -1   -1    0    0    0  501 -0.00000000000E+00  0.00000000000E+00  0.38227096427E+02  0.38227096759E+02  0.50400000000E-02 0. -1.
          1   -1    0    0  501    0  0.00000000000E+00 -0.00000000000E+00 -0.13220559561E+04  0.13220559561E+04  0.50400000000E-02 0.  1.
    5000001    1    1    2    0    0 -0.10383963567E+03  0.39655793661E+01 -0.67757936324E+03  0.71380192578E+03  0.19900000000E+03 0.  0.
   -5000001    1    1    2    0    0  0.10383963567E+03 -0.39655793661E+01 -0.60624949640E+03  0.64648112705E+03  0.19900000000E+03 0.  0.
<mgrwt>
<rscale>  0 0.44961477E+03</rscale>
<asrwt>0</asrwt>
<pdfrwt beam="1">  1        1 0.18886511E+00 0.44961477E+03</pdfrwt>
<pdfrwt beam="2">  1       -1 0.54610146E-02 0.44961477E+03</pdfrwt>
<totfact> 0.16833540E+03</totfact>
</mgrwt>
</event>
<event>
 4    1  0.6480558E-006  0.4285308E+03  0.7818608E-02  0.1034325E+00
         -1   -1    0    0    0  501 -0.00000000000E+00  0.00000000000E+00  0.25774302615E+02  0.25774303108E+02  0.50400000000E-02 0. -1.
          1   -1    0    0  501    0  0.00000000000E+00 -0.00000000000E+00 -0.17812180617E+04  0.17812180617E+04  0.50400000000E-02 0.  1.
    5000001    1    1    2    0    0  0.35101117003E+01 -0.74325606812E+02 -0.99488566482E+03  0.10173176017E+04  0.19900000000E+03 0.  0.
   -5000001    1    1    2    0    0 -0.35101117003E+01  0.74325606812E+02 -0.76055809426E+03  0.78967476309E+03  0.19900000000E+03 0.  0.
<mgrwt>
<rscale>  0 0.42853076E+03</rscale>
<asrwt>0</asrwt>
<pdfrwt beam="1">  1        1 0.25445965E+00 0.42853076E+03</pdfrwt>
<pdfrwt beam="2">  1       -1 0.36820444E-02 0.42853076E+03</pdfrwt>
<totfact> 0.15669651E+03</totfact>
</mgrwt>
</event>
<event>
 4    1  0.6480558E-006  0.4973050E+03  0.7818608E-02  0.1014485E+00
         -1   -1    0    0    0  501 -0.00000000000E+00  0.00000000000E+00  0.41289443920E+02  0.41289444228E+02  0.50400000000E-02 0. -1.
          1   -1    0    0  501    0  0.00000000000E+00 -0.00000000000E+00 -0.14974302741E+04  0.14974302741E+04  0.50400000000E-02 0.  1.
    5000001    1    1    2    0    0  0.13550145973E+02  0.14036002165E+03 -0.87782443455E+03  0.91107698907E+03  0.19900000000E+03 0.  0.
   -5000001    1    1    2    0    0 -0.13550145973E+02 -0.14036002165E+03 -0.57831639561E+03  0.62764272924E+03  0.19900000000E+03 0.  0.
<mgrwt>
<rscale>  0 0.49730499E+03</rscale>
<asrwt>0</asrwt>
<pdfrwt beam="1">  1        1 0.21391858E+00 0.49730499E+03</pdfrwt>
<pdfrwt beam="2">  1       -1 0.58984930E-02 0.49730499E+03</pdfrwt>
<totfact> 0.11507314E+03</totfact>
</mgrwt>
</event>
<event>
 4    1  0.6480558E-006  0.9997083E+03  0.7818608E-02  0.9308865E-01
          1   -1    0    0  501    0  0.00000000000E+00  0.00000000000E+00  0.90370598508E+03  0.90370598509E+03  0.50400000000E-02 0.  1.
         -1   -1    0    0    0  501 -0.00000000000E+00 -0.00000000000E+00 -0.27647729190E+03  0.27647729194E+03  0.50400000000E-02 0. -1.
    5000001    1    1    2    0    0 -0.34305812422E+03  0.30343001687E+03  0.28736169162E+03  0.57613921368E+03  0.19900000000E+03 0.  0.
   -5000001    1    1    2    0    0  0.34305812422E+03 -0.30343001687E+03  0.33986700156E+03  0.60404406336E+03  0.19900000000E+03 0.  0.
<mgrwt>
<rscale>  0 0.99970832E+03</rscale>
<asrwt>0</asrwt>
<pdfrwt beam="1">  1        1 0.12910086E+00 0.99970832E+03</pdfrwt>
<pdfrwt beam="2">  1       -1 0.39496755E-01 0.99970832E+03</pdfrwt>
<totfact> 0.12770857E+02</totfact>
</mgrwt>
</event>
<event>
 4    1  0.6480558E-006  0.4750405E+03  0.7818608E-02  0.1020507E+00
          1   -1    0    0  501    0  0.00000000000E+00  0.00000000000E+00  0.19764947095E+04  0.19764947096E+04  0.50400000000E-02 0.  1.
         -1   -1    0    0    0  501 -0.00000000000E+00 -0.00000000000E+00 -0.28543390610E+02  0.28543391055E+02  0.50400000000E-02 0. -1.
    5000001    1    1    2    0    0 -0.37562047465E+02  0.11634630583E+03  0.11563741529E+04  0.11797243542E+04  0.19900000000E+03 0.  0.
   -5000001    1    1    2    0    0  0.37562047465E+02 -0.11634630583E+03  0.79157716600E+03  0.82531374642E+03  0.19900000000E+03 0.  0.
<mgrwt>
<rscale>  0 0.47504047E+03</rscale>
<asrwt>0</asrwt>
<pdfrwt beam="1">  1        1 0.28235643E+00 0.47504047E+03</pdfrwt>
<pdfrwt beam="2">  1       -1 0.40776266E-02 0.47504047E+03</pdfrwt>
<totfact> 0.10167095E+03</totfact>
</mgrwt>
</event>
<event>
 4    1  0.6480558E-006  0.6462246E+03  0.7818608E-02  0.9813889E-01
         -1   -1    0    0    0  501 -0.00000000000E+00  0.00000000000E+00  0.14782816773E+03  0.14782816782E+03  0.50400000000E-02 0.  1.
          1   -1    0    0  501    0  0.00000000000E+00 -0.00000000000E+00 -0.70623596729E+03  0.70623596731E+03  0.50400000000E-02 0. -1.
    5000001    1    1    2    0    0  0.14239412246E+03  0.20867596949E+03 -0.23785547235E+03  0.39999746509E+03  0.19900000000E+03 0.  0.
   -5000001    1    1    2    0    0 -0.14239412246E+03 -0.20867596949E+03 -0.32055232721E+03  0.45406667003E+03  0.19900000000E+03 0.  0.
<mgrwt>
<rscale>  0 0.64622463E+03</rscale>
<asrwt>0</asrwt>
<pdfrwt beam="1">  1        1 0.10089085E+00 0.64622463E+03</pdfrwt>
<pdfrwt beam="2">  1       -1 0.21118310E-01 0.64622463E+03</pdfrwt>
<totfact> 0.56570398E+02</totfact>
</mgrwt>
</event>
<event>
 4    1  0.6480558E-006  0.4310322E+03  0.7818608E-02  0.1033534E+00
         -1   -1    0    0    0  501 -0.00000000000E+00  0.00000000000E+00  0.10630744302E+03  0.10630744314E+03  0.50400000000E-02 0. -1.
          1   -1    0    0  501    0  0.00000000000E+00 -0.00000000000E+00 -0.43691378159E+03  0.43691378162E+03  0.50400000000E-02 0.  1.
    5000001    1    1    2    0    0 -0.43343193304E+02  0.68384852480E+02 -0.18680439198E+03  0.28469633176E+03  0.19900000000E+03 0.  0.
   -5000001    1    1    2    0    0  0.43343193304E+02 -0.68384852480E+02 -0.14380194659E+03  0.25852489299E+03  0.19900000000E+03 0.  0.
<mgrwt>
<rscale>  0 0.43103219E+03</rscale>
<asrwt>0</asrwt>
<pdfrwt beam="1">  1        1 0.62416253E-01 0.43103219E+03</pdfrwt>
<pdfrwt beam="2">  1       -1 0.15186778E-01 0.43103219E+03</pdfrwt>
<totfact> 0.18846288E+03</totfact>
</mgrwt>
</event>
<event>
 4    1  0.6480558E-006  0.4959704E+03  0.7818608E-02  0.1014836E+00
         -1   -1    0    0    0  501 -0.00000000000E+00  0.00000000000E+00  0.48735503593E+02  0.48735503854E+02  0.50400000000E-02 0. -1.
          1   -1    0    0  501    0  0.00000000000E+00 -0.00000000000E+00 -0.12618451393E+04  0.12618451393E+04  0.50400000000E-02 0.  1.
    5000001    1    1    2    0    0 -0.52504421103E+02  0.13834076331E+03 -0.60888478011E+03  0.65744699899E+03  0.19900000000E+03 0.  0.
   -5000001    1    1    2    0    0  0.52504421103E+02 -0.13834076331E+03 -0.60422485557E+03  0.65313364415E+03  0.19900000000E+03 0.  0.
<mgrwt>
<rscale>  0 0.49597040E+03</rscale>
<asrwt>0</asrwt>
<pdfrwt beam="1">  1        1 0.18026357E+00 0.49597040E+03</pdfrwt>
<pdfrwt beam="2">  1       -1 0.69622156E-02 0.49597040E+03</pdfrwt>
<totfact> 0.12700702E+03</totfact>
</mgrwt>
</event>
<event>
 4    1  0.6480558E-006  0.1077092E+04  0.7818608E-02  0.9227812E-01
         -1   -1    0    0    0  501 -0.00000000000E+00  0.00000000000E+00  0.16314123249E+03  0.16314123257E+03  0.50400000000E-02 0.  1.
          1   -1    0    0  501    0  0.00000000000E+00 -0.00000000000E+00 -0.17777960909E+04  0.17777960909E+04  0.50400000000E-02 0. -1.
    5000001    1    1    2    0    0  0.99218256959E+02  0.47904473800E+03 -0.61744997308E+03  0.81251067240E+03  0.19900000000E+03 0.  0.
   -5000001    1    1    2    0    0 -0.99218256959E+02 -0.47904473800E+03 -0.99720488530E+03  0.11284266510E+04  0.19900000000E+03 0.  0.
<mgrwt>
<rscale>  0 0.10770921E+04</rscale>
<asrwt>0</asrwt>
<pdfrwt beam="1">  1        1 0.25397086E+00 0.10770921E+04</pdfrwt>
<pdfrwt beam="2">  1       -1 0.23305891E-01 0.10770921E+04</pdfrwt>
<totfact> 0.81190028E+01</totfact>
</mgrwt>
</event>
<event>
 4    1  0.6480558E-006  0.6692406E+03  0.7818608E-02  0.9771331E-01
          1   -1    0    0  501    0  0.00000000000E+00  0.00000000000E+00  0.73160116747E+03  0.73160116749E+03  0.50400000000E-02 0.  1.
         -1   -1    0    0    0  501 -0.00000000000E+00 -0.00000000000E+00 -0.15304889682E+03  0.15304889691E+03  0.50400000000E-02 0. -1.
    5000001    1    1    2    0    0  0.69910035548E+02  0.14318245110E+03  0.57579348398E+03  0.62970450496E+03  0.19900000000E+03 0.  0.
   -5000001    1    1    2    0    0 -0.69910035548E+02 -0.14318245110E+03  0.27587866721E+01  0.25494555944E+03  0.19900000000E+03 0.  0.
<mgrwt>
<rscale>  0 0.66924062E+03</rscale>
<asrwt>0</asrwt>
<pdfrwt beam="1">  1        1 0.10451445E+00 0.66924062E+03</pdfrwt>
<pdfrwt beam="2">  1       -1 0.21864128E-01 0.66924062E+03</pdfrwt>
<totfact> 0.50619187E+02</totfact>
</mgrwt>
</event>
<event>
 4    1  0.6480558E-006  0.9699279E+03  0.7818608E-02  0.9342157E-01
         -1   -1    0    0    0  501 -0.00000000000E+00  0.00000000000E+00  0.17674809139E+03  0.17674809147E+03  0.50400000000E-02 0. -1.
          1   -1    0    0  501    0  0.00000000000E+00 -0.00000000000E+00 -0.13306510135E+04  0.13306510135E+04  0.50400000000E-02 0.  1.
    5000001    1    1    2    0    0 -0.34430040769E+03  0.21030724341E+03 -0.85849076764E+03  0.96921581987E+03  0.19900000000E+03 0.  0.
   -5000001    1    1    2    0    0  0.34430040769E+03 -0.21030724341E+03 -0.29541215448E+03  0.53818328512E+03  0.19900000000E+03 0.  0.
<mgrwt>
<rscale>  0 0.96992789E+03</rscale>
<asrwt>0</asrwt>
<pdfrwt beam="1">  1        1 0.19009300E+00 0.96992789E+03</pdfrwt>
<pdfrwt beam="2">  1       -1 0.25249728E-01 0.96992789E+03</pdfrwt>
<totfact> 0.13893762E+02</totfact>
</mgrwt>
</event>
<event>
 4    1  0.6480558E-006  0.5573540E+03  0.7818608E-02  0.9998059E-01
         -1   -1    0    0    0  501 -0.00000000000E+00  0.00000000000E+00  0.10259560626E+03  0.10259560638E+03  0.50400000000E-02 0. -1.
          1   -1    0    0  501    0  0.00000000000E+00 -0.00000000000E+00 -0.75696110437E+03  0.75696110439E+03  0.50400000000E-02 0.  1.
    5000001    1    1    2    0    0  0.13655028731E+03  0.54573298666E+02 -0.52489651965E+03  0.58029439273E+03  0.19900000000E+03 0.  0.
   -5000001    1    1    2    0    0 -0.13655028731E+03 -0.54573298666E+02 -0.12946897846E+03  0.27926231804E+03  0.19900000000E+03 0.  0.
<mgrwt>
<rscale>  0 0.55735405E+03</rscale>
<asrwt>0</asrwt>
<pdfrwt beam="1">  1        1 0.10813730E+00 0.55735405E+03</pdfrwt>
<pdfrwt beam="2">  1       -1 0.14656516E-01 0.55735405E+03</pdfrwt>
<totfact> 0.93142046E+02</totfact>
</mgrwt>
</event>
<event>
 4    1  0.6480558E-006  0.6347870E+03  0.7818608E-02  0.9835752E-01
         -1   -1    0    0    0  501 -0.00000000000E+00  0.00000000000E+00  0.32097242668E+03  0.32097242672E+03  0.50400000000E-02 0. -1.
          1   -1    0    0  501    0  0.00000000000E+00 -0.00000000000E+00 -0.31385450916E+03  0.31385450920E+03  0.50400000000E-02 0.  1.
    5000001    1    1    2    0    0 -0.36887920020E+02  0.14992092250E+03 -0.18958692325E+03  0.31524784395E+03  0.19900000000E+03 0.  0.
   -5000001    1    1    2    0    0  0.36887920020E+02 -0.14992092250E+03  0.19670484077E+03  0.31957909198E+03  0.19900000000E+03 0.  0.
<mgrwt>
<rscale>  0 0.63478703E+03</rscale>
<asrwt>0</asrwt>
<pdfrwt beam="1">  1        1 0.44836358E-01 0.63478703E+03</pdfrwt>
<pdfrwt beam="2">  1       -1 0.45853204E-01 0.63478703E+03</pdfrwt>
<totfact> 0.43527561E+02</totfact>
</mgrwt>
</event>
<event>
 4    1  0.6480558E-006  0.5325021E+03  0.7818608E-02  0.1005627E+00
         -1   -1    0    0    0  501 -0.00000000000E+00  0.00000000000E+00  0.29089521938E+03  0.29089521943E+03  0.50400000000E-02 0. -1.
          1   -1    0    0  501    0  0.00000000000E+00 -0.00000000000E+00 -0.24369468225E+03  0.24369468230E+03  0.50400000000E-02 0.  1.
    5000001    1    1    2    0    0  0.13193364077E+03 -0.11528264133E+03 -0.82710874974E+00  0.26513818485E+03  0.19900000000E+03 0.  0.
   -5000001    1    1    2    0    0 -0.13193364077E+03  0.11528264133E+03  0.48027645885E+02  0.26945171687E+03  0.19900000000E+03 0.  0.
<mgrwt>
<rscale>  0 0.53250209E+03</rscale>
<asrwt>0</asrwt>
<pdfrwt beam="1">  1        1 0.34813526E-01 0.53250209E+03</pdfrwt>
<pdfrwt beam="2">  1       -1 0.41556460E-01 0.53250209E+03</pdfrwt>
<totfact> 0.72365141E+02</totfact>
</mgrwt>
</event>
<event>
 4    1  0.6480558E-006  0.5251867E+03  0.7818608E-02  0.1007406E+00
         -1   -1    0    0    0  501 -0.00000000000E+00  0.00000000000E+00  0.89191613934E+02  0.89191614076E+02  0.50400000000E-02 0.  1.
          1   -1    0    0  501    0  0.00000000000E+00 -0.00000000000E+00 -0.77311378210E+03  0.77311378211E+03  0.50400000000E-02 0. -1.
    5000001    1    1    2    0    0  0.15139781759E+03  0.92595311621E+01 -0.21115153846E+03  0.32740343658E+03  0.19900000000E+03 0.  0.
   -5000001    1    1    2    0    0 -0.15139781759E+03 -0.92595311621E+01 -0.47277062970E+03  0.53490195961E+03  0.19900000000E+03 0.  0.
<mgrwt>
<rscale>  0 0.52518669E+03</rscale>
<asrwt>0</asrwt>
<pdfrwt beam="1">  1        1 0.11044482E+00 0.52518669E+03</pdfrwt>
<pdfrwt beam="2">  1       -1 0.12741660E-01 0.52518669E+03</pdfrwt>
<totfact> 0.11303219E+03</totfact>
</mgrwt>
</event>
<event>
 4    1  0.6480558E-006  0.7908489E+03  0.7818608E-02  0.9573358E-01
          1   -1    0    0  501    0  0.00000000000E+00  0.00000000000E+00  0.77535704993E+03  0.77535704995E+03  0.50400000000E-02 0. -1.
         -1   -1    0    0    0  501 -0.00000000000E+00 -0.00000000000E+00 -0.20166255826E+03  0.20166255832E+03  0.50400000000E-02 0.  1.
    5000001    1    1    2    0    0  0.23462654746E+03 -0.10670163470E+03  0.56398779687E+03  0.65124349566E+03  0.19900000000E+03 0.  0.
   -5000001    1    1    2    0    0 -0.23462654746E+03  0.10670163470E+03  0.97066948061E+01  0.32577611261E+03  0.19900000000E+03 0.  0.
<mgrwt>
<rscale>  0 0.79084888E+03</rscale>
<asrwt>0</asrwt>
<pdfrwt beam="1">  1        1 0.11076529E+00 0.79084888E+03</pdfrwt>
<pdfrwt beam="2">  1       -1 0.28808937E-01 0.79084888E+03</pdfrwt>
<totfact> 0.28825572E+02</totfact>
</mgrwt>
</event>
<event>
 4    1  0.6480558E-006  0.8125567E+03  0.7818608E-02  0.9542018E-01
          1   -1    0    0  501    0  0.00000000000E+00  0.00000000000E+00  0.71389705358E+03  0.71389705360E+03  0.50400000000E-02 0.  1.
         -1   -1    0    0    0  501 -0.00000000000E+00 -0.00000000000E+00 -0.23121273352E+03  0.23121273357E+03  0.50400000000E-02 0. -1.
    5000001    1    1    2    0    0 -0.20321776939E+03  0.25301945250E+03  0.76256289330E+02  0.38824261333E+03  0.19900000000E+03 0.  0.
   -5000001    1    1    2    0    0  0.20321776939E+03 -0.25301945250E+03  0.40642803074E+03  0.55686717385E+03  0.19900000000E+03 0.  0.
<mgrwt>
<rscale>  0 0.81255668E+03</rscale>
<asrwt>0</asrwt>
<pdfrwt beam="1">  1        1 0.10198529E+00 0.81255668E+03</pdfrwt>
<pdfrwt beam="2">  1       -1 0.33030390E-01 0.81255668E+03</pdfrwt>
<totfact> 0.25667566E+02</totfact>
</mgrwt>
</event>
<event>
 4    1  0.6480558E-006  0.4519271E+03  0.7818608E-02  0.1027149E+00
          1   -1    0    0  501    0  0.00000000000E+00  0.00000000000E+00  0.17095917513E+03  0.17095917520E+03  0.50400000000E-02 0.  1.
         -1   -1    0    0    0  501 -0.00000000000E+00 -0.00000000000E+00 -0.29866505342E+03  0.29866505347E+03  0.50400000000E-02 0. -1.
    5000001    1    1    2    0    0 -0.68029883742E+02  0.34783817001E+02 -0.14175905998E+03  0.25599728532E+03  0.19900000000E+03 0.  0.
   -5000001    1    1    2    0    0  0.68029883742E+02 -0.34783817001E+02  0.14053181679E+02  0.21362694334E+03  0.19900000000E+03 0.  0.
<mgrwt>
<rscale>  0 0.45192712E+03</rscale>
<asrwt>0</asrwt>
<pdfrwt beam="1">  1        1 0.24422739E-01 0.45192712E+03</pdfrwt>
<pdfrwt beam="2">  1       -1 0.42666436E-01 0.45192712E+03</pdfrwt>
<totfact> 0.10892591E+03</totfact>
</mgrwt>
</event>
<event>
 4    1  0.6480558E-006  0.4664354E+03  0.7818608E-02  0.1022931E+00
         -1   -1    0    0    0  501 -0.00000000000E+00  0.00000000000E+00  0.50701612853E+02  0.50701613104E+02  0.50400000000E-02 0.  1.
          1   -1    0    0  501    0  0.00000000000E+00 -0.00000000000E+00 -0.10727569082E+04  0.10727569082E+04  0.50400000000E-02 0. -1.
    5000001    1    1    2    0    0  0.31852551672E+02 -0.48861824590E+02 -0.25400073462E+03  0.32790156470E+03  0.19900000000E+03 0.  0.
   -5000001    1    1    2    0    0 -0.31852551672E+02  0.48861824590E+02 -0.76805456070E+03  0.79555695658E+03  0.19900000000E+03 0.  0.
<mgrwt>
<rscale>  0 0.46643544E+03</rscale>
<asrwt>0</asrwt>
<pdfrwt beam="1">  1        1 0.15325097E+00 0.46643544E+03</pdfrwt>
<pdfrwt beam="2">  1       -1 0.72430882E-02 0.46643544E+03</pdfrwt>
<totfact> 0.16132019E+03</totfact>
</mgrwt>
</event>
<event>
 4    1  0.6480558E-006  0.6607039E+03  0.7818608E-02  0.9786899E-01
          1   -1    0    0  501    0  0.00000000000E+00  0.00000000000E+00  0.47689232580E+03  0.47689232583E+03  0.50400000000E-02 0.  1.
         -1   -1    0    0    0  501 -0.00000000000E+00 -0.00000000000E+00 -0.22884080443E+03  0.22884080448E+03  0.50400000000E-02 0. -1.
    5000001    1    1    2    0    0  0.20925021997E+03  0.37589954141E+02  0.29064660647E+03  0.41143056409E+03  0.19900000000E+03 0.  0.
   -5000001    1    1    2    0    0 -0.20925021997E+03 -0.37589954141E+02 -0.42595085093E+02  0.29430256622E+03  0.19900000000E+03 0.  0.
<mgrwt>
<rscale>  0 0.66070394E+03</rscale>
<asrwt>0</asrwt>
<pdfrwt beam="1">  1        1 0.68127474E-01 0.66070394E+03</pdfrwt>
<pdfrwt beam="2">  1       -1 0.32691544E-01 0.66070394E+03</pdfrwt>
<totfact> 0.46318614E+02</totfact>
</mgrwt>
</event>
<event>
 4    1  0.6480558E-006  0.6447696E+03  0.7818608E-02  0.9816643E-01
         -1   -1    0    0    0  501 -0.00000000000E+00  0.00000000000E+00  0.10292183697E+03  0.10292183710E+03  0.50400000000E-02 0.  1.
          1   -1    0    0  501    0  0.00000000000E+00 -0.00000000000E+00 -0.10098144125E+04  0.10098144125E+04  0.50400000000E-02 0. -1.
    5000001    1    1    2    0    0  0.11023713570E+03 -0.22641462003E+03 -0.40123872734E+03  0.51381837508E+03  0.19900000000E+03 0.  0.
   -5000001    1    1    2    0    0 -0.11023713570E+03  0.22641462003E+03 -0.50565384819E+03  0.59891787454E+03  0.19900000000E+03 0.  0.
<mgrwt>
<rscale>  0 0.64476958E+03</rscale>
<asrwt>0</asrwt>
<pdfrwt beam="1">  1        1 0.14425920E+00 0.64476958E+03</pdfrwt>
<pdfrwt beam="2">  1       -1 0.14703120E-01 0.64476958E+03</pdfrwt>
<totfact> 0.58288450E+02</totfact>
</mgrwt>
</event>
<event>
 4    1  0.6480558E-006  0.5307291E+03  0.7818608E-02  0.1006055E+00
          1   -1    0    0  501    0  0.00000000000E+00  0.00000000000E+00  0.62014870264E+02  0.62014870469E+02  0.50400000000E-02 0. -1.
         -1   -1    0    0    0  501 -0.00000000000E+00 -0.00000000000E+00 -0.11355074875E+04  0.11355074875E+04  0.50400000000E-02 0.  1.
    5000001    1    1    2    0    0 -0.12689908036E+03 -0.54588007944E+02 -0.29232671291E+03  0.37965660048E+03  0.19900000000E+03 0.  0.
   -5000001    1    1    2    0    0  0.12689908036E+03  0.54588007944E+02 -0.78116590431E+03  0.81786575748E+03  0.19900000000E+03 0.  0.
<mgrwt>
<rscale>  0 0.53072912E+03</rscale>
<asrwt>0</asrwt>
<pdfrwt beam="1">  1        1 0.88592679E-02 0.53072912E+03</pdfrwt>
<pdfrwt beam="2">  1       -1 0.16221534E+00 0.53072912E+03</pdfrwt>
<totfact> 0.22901879E+02</totfact>
</mgrwt>
</event>
<event>
 4    1  0.6480558E-006  0.4618998E+03  0.7818608E-02  0.1024232E+00
          1   -1    0    0  501    0  0.00000000000E+00  0.00000000000E+00  0.44386581681E+03  0.44386581684E+03  0.50400000000E-02 0.  1.
         -1   -1    0    0    0  501 -0.00000000000E+00 -0.00000000000E+00 -0.12016663419E+03  0.12016663429E+03  0.50400000000E-02 0. -1.
    5000001    1    1    2    0    0 -0.73928393981E+02 -0.90927501628E+02  0.16418038023E+03  0.28335386929E+03  0.19900000000E+03 0.  0.
   -5000001    1    1    2    0    0  0.73928393981E+02  0.90927501628E+02  0.15951880239E+03  0.28067858184E+03  0.19900000000E+03 0.  0.
<mgrwt>
<rscale>  0 0.46189982E+03</rscale>
<asrwt>0</asrwt>
<pdfrwt beam="1">  1        1 0.63409402E-01 0.46189982E+03</pdfrwt>
<pdfrwt beam="2">  1       -1 0.17166662E-01 0.46189982E+03</pdfrwt>
<totfact> 0.15147795E+03</totfact>
</mgrwt>
</event>
<event>
 4    1  0.6480558E-006  0.4565906E+03  0.7818608E-02  0.1025775E+00
          1   -1    0    0  501    0  0.00000000000E+00  0.00000000000E+00  0.72995911329E+03  0.72995911331E+03  0.50400000000E-02 0.  1.
         -1   -1    0    0    0  501 -0.00000000000E+00 -0.00000000000E+00 -0.71399548800E+02  0.71399548978E+02  0.50400000000E-02 0. -1.
    5000001    1    1    2    0    0 -0.66186366851E+02 -0.78545838156E+02  0.25142670172E+03  0.33669937657E+03  0.19900000000E+03 0.  0.
   -5000001    1    1    2    0    0  0.66186366851E+02  0.78545838156E+02  0.40713286277E+03  0.46465928571E+03  0.19900000000E+03 0.  0.
<mgrwt>
<rscale>  0 0.45659063E+03</rscale>
<asrwt>0</asrwt>
<pdfrwt beam="1">  1        1 0.10427987E+00 0.45659063E+03</pdfrwt>
<pdfrwt beam="2">  1       -1 0.10199936E-01 0.45659063E+03</pdfrwt>
<totfact> 0.17518261E+03</totfact>
</mgrwt>
</event>
<event>
 4    1  0.6480558E-006  0.5096353E+03  0.7818608E-02  0.1011294E+00
          1   -1    0    0  501    0  0.00000000000E+00  0.00000000000E+00  0.39337699036E+03  0.39337699039E+03  0.50400000000E-02 0.  1.
         -1   -1    0    0    0  501 -0.00000000000E+00 -0.00000000000E+00 -0.16506315362E+03  0.16506315370E+03  0.50400000000E-02 0. -1.
    5000001    1    1    2    0    0  0.11719145126E+03  0.99133064555E+02  0.68058628509E+02  0.26037315079E+03  0.19900000000E+03 0.  0.
   -5000001    1    1    2    0    0 -0.11719145126E+03 -0.99133064555E+02  0.16025520823E+03  0.29806699331E+03  0.19900000000E+03 0.  0.
<mgrwt>
<rscale>  0 0.50963535E+03</rscale>
<asrwt>0</asrwt>
<pdfrwt beam="1">  1        1 0.56196712E-01 0.50963535E+03</pdfrwt>
<pdfrwt beam="2">  1       -1 0.23580451E-01 0.50963535E+03</pdfrwt>
<totfact> 0.10495613E+03</totfact>
</mgrwt>
</event>
<event>
 4    1  0.6480558E-006  0.6620883E+03  0.7818608E-02  0.9784357E-01
          1   -1    0    0  501    0  0.00000000000E+00  0.00000000000E+00  0.23345151149E+03  0.23345151155E+03  0.50400000000E-02 0.  1.
         -1   -1    0    0    0  501 -0.00000000000E+00 -0.00000000000E+00 -0.46943465700E+03  0.46943465703E+03  0.50400000000E-02 0. -1.
    5000001    1    1    2    0    0  0.23116671899E+03 -0.98424145204E+02 -0.20594514394E+03  0.38097213368E+03  0.19900000000E+03 0.  0.
   -5000001    1    1    2    0    0 -0.23116671899E+03  0.98424145204E+02 -0.30038001567E+02  0.32191403490E+03  0.19900000000E+03 0.  0.
<mgrwt>
<rscale>  0 0.66208830E+03</rscale>
<asrwt>0</asrwt>
<pdfrwt beam="1">  1        1 0.33350216E-01 0.66208830E+03</pdfrwt>
<pdfrwt beam="2">  1       -1 0.67062094E-01 0.66208830E+03</pdfrwt>
<totfact> 0.30555731E+02</totfact>
</mgrwt>
</event>
<event>
 4    1  0.6480558E-006  0.4638047E+03  0.7818608E-02  0.1023683E+00
         -1   -1    0    0    0  501 -0.00000000000E+00  0.00000000000E+00  0.60818857206E+02  0.60818857415E+02  0.50400000000E-02 0. -1.
          1   -1    0    0  501    0  0.00000000000E+00 -0.00000000000E+00 -0.88424395710E+03  0.88424395711E+03  0.50400000000E-02 0.  1.
    5000001    1    1    2    0    0  0.34873433098E+02  0.79133047612E+02 -0.57849374059E+03  0.61784642384E+03  0.19900000000E+03 0.  0.
   -5000001    1    1    2    0    0 -0.34873433098E+02 -0.79133047612E+02 -0.24493135931E+03  0.32721639068E+03  0.19900000000E+03 0.  0.
<mgrwt>
<rscale>  0 0.46380473E+03</rscale>
<asrwt>0</asrwt>
<pdfrwt beam="1">  1        1 0.12632056E+00 0.46380473E+03</pdfrwt>
<pdfrwt beam="2">  1       -1 0.86884087E-02 0.46380473E+03</pdfrwt>
<totfact> 0.16795723E+03</totfact>
</mgrwt>
</event>
<event>
 4    1  0.6480558E-006  0.6692540E+03  0.7818608E-02  0.9771306E-01
         -1   -1    0    0    0  501 -0.00000000000E+00  0.00000000000E+00  0.58736978825E+02  0.58736979041E+02  0.50400000000E-02 0.  1.
          1   -1    0    0  501    0  0.00000000000E+00 -0.00000000000E+00 -0.19063840994E+04  0.19063840994E+04  0.50400000000E-02 0. -1.
    5000001    1    1    2    0    0 -0.93421609882E+02 -0.84462812296E+01 -0.18346425163E+03  0.28645954075E+03  0.19900000000E+03 0.  0.
   -5000001    1    1    2    0    0  0.93421609882E+02  0.84462812296E+01 -0.16641828689E+04  0.16786615377E+04  0.19900000000E+03 0.  0.
<mgrwt>
<rscale>  0 0.66925404E+03</rscale>
<asrwt>0</asrwt>
<pdfrwt beam="1">  1        1 0.27234055E+00 0.66925404E+03</pdfrwt>
<pdfrwt beam="2">  1       -1 0.83909982E-02 0.66925404E+03</pdfrwt>
<totfact> 0.36563309E+02</totfact>
</mgrwt>
</event>
<event>
 4    1  0.6480558E-006  0.5051507E+03  0.7818608E-02  0.1012443E+00
          1   -1    0    0  501    0  0.00000000000E+00  0.00000000000E+00  0.41962679659E+03  0.41962679662E+03  0.50400000000E-02 0.  1.
         -1   -1    0    0    0  501 -0.00000000000E+00 -0.00000000000E+00 -0.15202627853E+03  0.15202627861E+03  0.50400000000E-02 0. -1.
    5000001    1    1    2    0    0  0.73627339102E+02 -0.12800898788E+03  0.78522793083E+02  0.25995021653E+03  0.19900000000E+03 0.  0.
   -5000001    1    1    2    0    0 -0.73627339102E+02  0.12800898788E+03  0.18907772498E+03  0.31170285870E+03  0.19900000000E+03 0.  0.
<mgrwt>
<rscale>  0 0.50515067E+03</rscale>
<asrwt>0</asrwt>
<pdfrwt beam="1">  1        1 0.59946686E-01 0.50515067E+03</pdfrwt>
<pdfrwt beam="2">  1       -1 0.21718040E-01 0.50515067E+03</pdfrwt>
<totfact> 0.11072337E+03</totfact>
</mgrwt>
</event>
<event>
 4    1  0.6480558E-006  0.4988445E+03  0.7818608E-02  0.1014081E+00
         -1   -1    0    0    0  501 -0.00000000000E+00  0.00000000000E+00  0.24994886910E+02  0.24994887418E+02  0.50400000000E-02 0.  1.
          1   -1    0    0  501    0  0.00000000000E+00 -0.00000000000E+00 -0.24889678139E+04  0.24889678139E+04  0.50400000000E-02 0. -1.
    5000001    1    1    2    0    0 -0.10274526483E+03  0.98663627794E+02 -0.14746913428E+04  0.14948600795E+04  0.19900000000E+03 0.  0.
   -5000001    1    1    2    0    0  0.10274526483E+03 -0.98663627794E+02 -0.98928158423E+03  0.10191026218E+04  0.19900000000E+03 0.  0.
<mgrwt>
<rscale>  0 0.49884454E+03</rscale>
<asrwt>0</asrwt>
<pdfrwt beam="1">  1        1 0.35556667E+00 0.49884454E+03</pdfrwt>
<pdfrwt beam="2">  1       -1 0.35706997E-02 0.49884454E+03</pdfrwt>
<totfact> 0.60008319E+02</totfact>
</mgrwt>
</event>
<event>
 4    1  0.6480558E-006  0.5754526E+03  0.7818608E-02  0.9957685E-01
         -1   -1    0    0    0  501 -0.00000000000E+00  0.00000000000E+00  0.55706879241E+03  0.55706879243E+03  0.50400000000E-02 0.  1.
          1   -1    0    0  501    0  0.00000000000E+00 -0.00000000000E+00 -0.14861075363E+03  0.14861075372E+03  0.50400000000E-02 0. -1.
    5000001    1    1    2    0    0  0.18911334456E+03 -0.85276379782E+02  0.18923522929E+03  0.34416113965E+03  0.19900000000E+03 0.  0.
   -5000001    1    1    2    0    0 -0.18911334456E+03  0.85276379782E+02  0.21922280948E+03  0.36151840650E+03  0.19900000000E+03 0.  0.
<mgrwt>
<rscale>  0 0.57545256E+03</rscale>
<asrwt>0</asrwt>
<pdfrwt beam="1">  1        1 0.21230107E-01 0.57545256E+03</pdfrwt>
<pdfrwt beam="2">  1       -1 0.79581258E-01 0.57545256E+03</pdfrwt>
<totfact> 0.38744429E+02</totfact>
</mgrwt>
</event>
<event>
 4    1  0.6480558E-006  0.7324835E+03  0.7818608E-02  0.9663239E-01
         -1   -1    0    0    0  501 -0.00000000000E+00  0.00000000000E+00  0.17750608893E+03  0.17750608900E+03  0.50400000000E-02 0. -1.
          1   -1    0    0  501    0  0.00000000000E+00 -0.00000000000E+00 -0.75565299742E+03  0.75565299744E+03  0.50400000000E-02 0.  1.
    5000001    1    1    2    0    0 -0.14081917904E+02 -0.29331631281E+03 -0.17301487660E+03  0.39467443203E+03  0.19900000000E+03 0.  0.
   -5000001    1    1    2    0    0  0.14081917904E+02  0.29331631281E+03 -0.40513203189E+03  0.53848465441E+03  0.19900000000E+03 0.  0.
<mgrwt>
<rscale>  0 0.73248347E+03</rscale>
<asrwt>0</asrwt>
<pdfrwt beam="1">  1        1 0.10795043E+00 0.73248347E+03</pdfrwt>
<pdfrwt beam="2">  1       -1 0.25358013E-01 0.73248347E+03</pdfrwt>
<totfact> 0.37432754E+02</totfact>
</mgrwt>
</event>
<event>
 4    1  0.6480558E-006  0.7790983E+03  0.7818608E-02  0.9590774E-01
         -1   -1    0    0    0  501 -0.00000000000E+00  0.00000000000E+00  0.80420184498E+02  0.80420184655E+02  0.50400000000E-02 0.  1.
          1   -1    0    0  501    0  0.00000000000E+00 -0.00000000000E+00 -0.18869457751E+04  0.18869457751E+04  0.50400000000E-02 0. -1.
    5000001    1    1    2    0    0 -0.18352365858E+03  0.13470430501E+03 -0.15234580239E+04  0.15531746629E+04  0.19900000000E+03 0.  0.
   -5000001    1    1    2    0    0  0.18352365858E+03 -0.13470430501E+03 -0.28306756674E+03  0.41419129685E+03  0.19900000000E+03 0.  0.
<mgrwt>
<rscale>  0 0.77909827E+03</rscale>
<asrwt>0</asrwt>
<pdfrwt beam="1">  1        1 0.26956365E+00 0.77909827E+03</pdfrwt>
<pdfrwt beam="2">  1       -1 0.11488599E-01 0.77909827E+03</pdfrwt>
<totfact> 0.22689660E+02</totfact>
</mgrwt>
</event>
<event>
 4    1  0.6480558E-006  0.4965796E+03  0.7818608E-02  0.1014676E+00
         -1   -1    0    0    0  501 -0.00000000000E+00  0.00000000000E+00  0.10341830391E+03  0.10341830404E+03  0.50400000000E-02 0. -1.
          1   -1    0    0  501    0  0.00000000000E+00 -0.00000000000E+00 -0.59610171025E+03  0.59610171027E+03  0.50400000000E-02 0.  1.
    5000001    1    1    2    0    0  0.82019273286E+02 -0.10546351268E+03 -0.33760300340E+03  0.41403683605E+03  0.19900000000E+03 0.  0.
   -5000001    1    1    2    0    0 -0.82019273286E+02  0.10546351268E+03 -0.15508040294E+03  0.28548317827E+03  0.19900000000E+03 0.  0.
<mgrwt>
<rscale>  0 0.49657961E+03</rscale>
<asrwt>0</asrwt>
<pdfrwt beam="1">  1        1 0.85157385E-01 0.49657961E+03</pdfrwt>
<pdfrwt beam="2">  1       -1 0.14774044E-01 0.49657961E+03</pdfrwt>
<totfact> 0.12985494E+03</totfact>
</mgrwt>
</event>
<event>
 4    1  0.6480558E-006  0.4590212E+03  0.7818608E-02  0.1025065E+00
         -1   -1    0    0    0  501 -0.00000000000E+00  0.00000000000E+00  0.54404788296E+02  0.54404788529E+02  0.50400000000E-02 0. -1.
          1   -1    0    0  501    0  0.00000000000E+00 -0.00000000000E+00 -0.96820724800E+03  0.96820724801E+03  0.50400000000E-02 0.  1.
    5000001    1    1    2    0    0 -0.11036503700E+03  0.13996451844E+02 -0.39805294183E+03  0.45871939850E+03  0.19900000000E+03 0.  0.
   -5000001    1    1    2    0    0  0.11036503700E+03 -0.13996451844E+02 -0.51574951787E+03  0.56389263804E+03  0.19900000000E+03 0.  0.
<mgrwt>
<rscale>  0 0.45902118E+03</rscale>
<asrwt>0</asrwt>
<pdfrwt beam="1">  1        1 0.13831531E+00 0.45902118E+03</pdfrwt>
<pdfrwt beam="2">  1       -1 0.77721132E-02 0.45902118E+03</pdfrwt>
<totfact> 0.17233379E+03</totfact>
</mgrwt>
</event>
<event>
 4    1  0.6480558E-006  0.1011804E+04  0.7818608E-02  0.9295693E-01
         -1   -1    0    0    0  501 -0.00000000000E+00  0.00000000000E+00  0.32628238828E+03  0.32628238832E+03  0.50400000000E-02 0. -1.
          1   -1    0    0  501    0  0.00000000000E+00 -0.00000000000E+00 -0.78440219328E+03  0.78440219330E+03  0.50400000000E-02 0.  1.
    5000001    1    1    2    0    0 -0.44350781546E+03 -0.11115995740E+02 -0.38239979119E+03  0.61858980597E+03  0.19900000000E+03 0.  0.
   -5000001    1    1    2    0    0  0.44350781546E+03  0.11115995740E+02 -0.75720013804E+02  0.49209477566E+03  0.19900000000E+03 0.  0.
<mgrwt>
<rscale>  0 0.10118036E+04</rscale>
<asrwt>0</asrwt>
<pdfrwt beam="1">  1        1 0.11205746E+00 0.10118036E+04</pdfrwt>
<pdfrwt beam="2">  1       -1 0.46611770E-01 0.10118036E+04</pdfrwt>
<totfact> 0.11768811E+02</totfact>
</mgrwt>
</event>
<event>
 4    1  0.6480558E-006  0.6781633E+03  0.7818608E-02  0.9755322E-01
          1   -1    0    0  501    0  0.00000000000E+00  0.00000000000E+00  0.29800196235E+03  0.29800196240E+03  0.50400000000E-02 0. -1.
         -1   -1    0    0    0  501 -0.00000000000E+00 -0.00000000000E+00 -0.38582417207E+03  0.38582417210E+03  0.50400000000E-02 0.  1.
    5000001    1    1    2    0    0 -0.16025954390E+03  0.18338031230E+03  0.83890679517E+02  0.32549977951E+03  0.19900000000E+03 0.  0.
   -5000001    1    1    2    0    0  0.16025954390E+03 -0.18338031230E+03 -0.17171288923E+03  0.35832635499E+03  0.19900000000E+03 0.  0.
<mgrwt>
<rscale>  0 0.67816329E+03</rscale>
<asrwt>0</asrwt>
<pdfrwt beam="1">  1        1 0.42571709E-01 0.67816329E+03</pdfrwt>
<pdfrwt beam="2">  1       -1 0.55117739E-01 0.67816329E+03</pdfrwt>
<totfact> 0.32813525E+02</totfact>
</mgrwt>
</event>
<event>
 4    1  0.6480558E-006  0.4907268E+03  0.7818608E-02  0.1016228E+00
          1   -1    0    0  501    0  0.00000000000E+00  0.00000000000E+00  0.26620837186E+04  0.26620837186E+04  0.50400000000E-02 0.  1.
         -1   -1    0    0    0  501 -0.00000000000E+00 -0.00000000000E+00 -0.22615062895E+02  0.22615063457E+02  0.50400000000E-02 0. -1.
    5000001    1    1    2    0    0  0.13943845754E+02  0.13949579733E+03  0.14882407330E+04  0.15080169056E+04  0.19900000000E+03 0.  0.
   -5000001    1    1    2    0    0 -0.13943845754E+02 -0.13949579733E+03  0.11512279227E+04  0.11766818764E+04  0.19900000000E+03 0.  0.
<mgrwt>
<rscale>  0 0.49072677E+03</rscale>
<asrwt>0</asrwt>
<pdfrwt beam="1">  1        1 0.38029733E+00 0.49072677E+03</pdfrwt>
<pdfrwt beam="2">  1       -1 0.32307262E-02 0.49072677E+03</pdfrwt>
<totfact> 0.54458768E+02</totfact>
</mgrwt>
</event>
<event>
 4    1  0.6480558E-006  0.9674257E+03  0.7818608E-02  0.9345011E-01
          1   -1    0    0  501    0  0.00000000000E+00  0.00000000000E+00  0.11478811324E+04  0.11478811325E+04  0.50400000000E-02 0. -1.
         -1   -1    0    0    0  501 -0.00000000000E+00 -0.00000000000E+00 -0.20383479008E+03  0.20383479014E+03  0.50400000000E-02 0.  1.
    5000001    1    1    2    0    0  0.29627358388E+03  0.10559187585E+03  0.90369577525E+03  0.97734064428E+03  0.19900000000E+03 0.  0.
   -5000001    1    1    2    0    0 -0.29627358388E+03 -0.10559187585E+03  0.40350567109E+02  0.37437527832E+03  0.19900000000E+03 0.  0.
<mgrwt>
<rscale>  0 0.96742568E+03</rscale>
<asrwt>0</asrwt>
<pdfrwt beam="1">  1        1 0.16398302E+00 0.96742568E+03</pdfrwt>
<pdfrwt beam="2">  1       -1 0.29119256E-01 0.96742568E+03</pdfrwt>
<totfact> 0.14501408E+02</totfact>
</mgrwt>
</event>
<event>
 4    1  0.6480558E-006  0.6200943E+03  0.7818608E-02  0.9864572E-01
         -1   -1    0    0    0  501 -0.00000000000E+00  0.00000000000E+00  0.27717245098E+03  0.27717245103E+03  0.50400000000E-02 0. -1.
          1   -1    0    0  501    0  0.00000000000E+00 -0.00000000000E+00 -0.34682101455E+03  0.34682101459E+03  0.50400000000E-02 0.  1.
    5000001    1    1    2    0    0  0.21383551288E+03  0.78443065687E+02  0.33790171975E+02  0.30433816199E+03  0.19900000000E+03 0.  0.
   -5000001    1    1    2    0    0 -0.21383551288E+03 -0.78443065687E+02 -0.10343873555E+03  0.31965530362E+03  0.19900000000E+03 0.  0.
<mgrwt>
<rscale>  0 0.62009429E+03</rscale>
<asrwt>0</asrwt>
<pdfrwt beam="1">  1        1 0.49545859E-01 0.62009429E+03</pdfrwt>
<pdfrwt beam="2">  1       -1 0.39596064E-01 0.62009429E+03</pdfrwt>
<totfact> 0.50076500E+02</totfact>
</mgrwt>
</event>
<event>
 4    1  0.6480558E-006  0.9949643E+03  0.7818608E-02  0.9314085E-01
         -1   -1    0    0    0  501 -0.00000000000E+00  0.00000000000E+00  0.91893962911E+02  0.91893963050E+02  0.50400000000E-02 0. -1.
          1   -1    0    0  501    0  0.00000000000E+00 -0.00000000000E+00 -0.26931966218E+04  0.26931966218E+04  0.50400000000E-02 0.  1.
    5000001    1    1    2    0    0 -0.70669232816E+02 -0.29769750665E+03 -0.35442049756E+03  0.50875616460E+03  0.19900000000E+03 0.  0.
   -5000001    1    1    2    0    0  0.70669232816E+02  0.29769750665E+03 -0.22468821613E+04  0.22763344202E+04  0.19900000000E+03 0.  0.
<mgrwt>
<rscale>  0 0.99496434E+03</rscale>
<asrwt>0</asrwt>
<pdfrwt beam="1">  1        1 0.38474233E+00 0.99496434E+03</pdfrwt>
<pdfrwt beam="2">  1       -1 0.13127711E-01 0.99496434E+03</pdfrwt>
<totfact> 0.56190423E+01</totfact>
</mgrwt>
</event>
<event>
 4    1  0.6480558E-006  0.4340638E+03  0.7818608E-02  0.1032584E+00
          1   -1    0    0  501    0  0.00000000000E+00  0.00000000000E+00  0.69445851560E+03  0.69445851562E+03  0.50400000000E-02 0.  1.
         -1   -1    0    0    0  501 -0.00000000000E+00 -0.00000000000E+00 -0.67826722694E+02  0.67826722882E+02  0.50400000000E-02 0. -1.
    5000001    1    1    2    0    0  0.75423828771E+02 -0.37328398611E+02  0.34929282541E+03  0.41071722775E+03  0.19900000000E+03 0.  0.
   -5000001    1    1    2    0    0 -0.75423828771E+02  0.37328398611E+02  0.27733896749E+03  0.35156801075E+03  0.19900000000E+03 0.  0.
<mgrwt>
<rscale>  0 0.43406380E+03</rscale>
<asrwt>0</asrwt>
<pdfrwt beam="1">  1        1 0.99208350E-01 0.43406380E+03</pdfrwt>
<pdfrwt beam="2">  1       -1 0.96895327E-02 0.43406380E+03</pdfrwt>
<totfact> 0.20413559E+03</totfact>
</mgrwt>
</event>
<event>
 4    1  0.6480558E-006  0.4726346E+03  0.7818608E-02  0.1021179E+00
         -1   -1    0    0    0  501 -0.00000000000E+00  0.00000000000E+00  0.76952714458E+02  0.76952714623E+02  0.50400000000E-02 0. -1.
          1   -1    0    0  501    0  0.00000000000E+00 -0.00000000000E+00 -0.72571676730E+03  0.72571676732E+03  0.50400000000E-02 0.  1.
    5000001    1    1    2    0    0  0.11645741454E+03 -0.35240848689E+02 -0.25992248753E+03  0.34923480116E+03  0.19900000000E+03 0.  0.
   -5000001    1    1    2    0    0 -0.11645741454E+03  0.35240848689E+02 -0.38884156531E+03  0.45343468078E+03  0.19900000000E+03 0.  0.
<mgrwt>
<rscale>  0 0.47263464E+03</rscale>
<asrwt>0</asrwt>
<pdfrwt beam="1">  1        1 0.10367382E+00 0.47263464E+03</pdfrwt>
<pdfrwt beam="2">  1       -1 0.10993245E-01 0.47263464E+03</pdfrwt>
<totfact> 0.15705164E+03</totfact>
</mgrwt>
</event>
<event>
 4    1  0.6480558E-006  0.9183217E+03  0.7818608E-02  0.9402964E-01
         -1   -1    0    0    0  501 -0.00000000000E+00  0.00000000000E+00  0.20843805885E+03  0.20843805892E+03  0.50400000000E-02 0. -1.
          1   -1    0    0  501    0  0.00000000000E+00 -0.00000000000E+00 -0.10114693385E+04  0.10114693385E+04  0.50400000000E-02 0.  1.
    5000001    1    1    2    0    0  0.18980639745E+03  0.35283302096E+03 -0.26403907012E+03  0.51945667744E+03  0.19900000000E+03 0.  0.
   -5000001    1    1    2    0    0 -0.18980639745E+03 -0.35283302096E+03 -0.53899220949E+03  0.70045071995E+03  0.19900000000E+03 0.  0.
<mgrwt>
<rscale>  0 0.91832174E+03</rscale>
<asrwt>0</asrwt>
<pdfrwt beam="1">  1        1 0.14449562E+00 0.91832174E+03</pdfrwt>
<pdfrwt beam="2">  1       -1 0.29776866E-01 0.91832174E+03</pdfrwt>
<totfact> 0.17557706E+02</totfact>
</mgrwt>
</event>
<event>
 4    1  0.6480558E-006  0.4651346E+03  0.7818608E-02  0.1023302E+00
         -1   -1    0    0    0  501 -0.00000000000E+00  0.00000000000E+00  0.18676037193E+03  0.18676037200E+03  0.50400000000E-02 0.  1.
          1   -1    0    0  501    0  0.00000000000E+00 -0.00000000000E+00 -0.28960930888E+03  0.28960930892E+03  0.50400000000E-02 0. -1.
    5000001    1    1    2    0    0  0.10647569799E+03  0.47476876989E+02 -0.20778209187E+02  0.23156826658E+03  0.19900000000E+03 0.  0.
   -5000001    1    1    2    0    0 -0.10647569799E+03 -0.47476876989E+02 -0.82070727759E+02  0.24480141435E+03  0.19900000000E+03 0.  0.
<mgrwt>
<rscale>  0 0.46513457E+03</rscale>
<asrwt>0</asrwt>
<pdfrwt beam="1">  1        1 0.41372758E-01 0.46513457E+03</pdfrwt>
<pdfrwt beam="2">  1       -1 0.26680053E-01 0.46513457E+03</pdfrwt>
<totfact> 0.12629528E+03</totfact>
</mgrwt>
</event>
<event>
 4    1  0.6480558E-006  0.5785773E+03  0.7818608E-02  0.9950876E-01
         -1   -1    0    0    0  501 -0.00000000000E+00  0.00000000000E+00  0.22685679439E+03  0.22685679445E+03  0.50400000000E-02 0. -1.
          1   -1    0    0  501    0  0.00000000000E+00 -0.00000000000E+00 -0.36890201569E+03  0.36890201573E+03  0.50400000000E-02 0.  1.
    5000001    1    1    2    0    0 -0.20408382253E+03 -0.13025096753E+02 -0.12005030119E+03  0.30956894964E+03  0.19900000000E+03 0.  0.
   -5000001    1    1    2    0    0  0.20408382253E+03  0.13025096753E+02 -0.21994920108E+02  0.28618986054E+03  0.19900000000E+03 0.  0.
<mgrwt>
<rscale>  0 0.57857732E+03</rscale>
<asrwt>0</asrwt>
<pdfrwt beam="1">  1        1 0.52700288E-01 0.57857732E+03</pdfrwt>
<pdfrwt beam="2">  1       -1 0.32408113E-01 0.57857732E+03</pdfrwt>
<totfact> 0.66081428E+02</totfact>
</mgrwt>
</event>
<event>
 4    1  0.6480558E-006  0.8587156E+03  0.7818608E-02  0.9478713E-01
          1   -1    0    0  501    0  0.00000000000E+00  0.00000000000E+00  0.18232402818E+04  0.18232402819E+04  0.50400000000E-02 0. -1.
         -1   -1    0    0    0  501 -0.00000000000E+00 -0.00000000000E+00 -0.10111015278E+03  0.10111015291E+03  0.50400000000E-02 0.  1.
    5000001    1    1    2    0    0 -0.24353136290E+03 -0.21709434957E+03  0.42244472747E+03  0.56964728482E+03  0.19900000000E+03 0.  0.
   -5000001    1    1    2    0    0  0.24353136290E+03  0.21709434957E+03  0.12996854016E+04  0.13547031499E+04  0.19900000000E+03 0.  0.
<mgrwt>
<rscale>  0 0.85871556E+03</rscale>
<asrwt>0</asrwt>
<pdfrwt beam="1">  1        1 0.26046290E+00 0.85871556E+03</pdfrwt>
<pdfrwt beam="2">  1       -1 0.14444308E-01 0.85871556E+03</pdfrwt>
<totfact> 0.17096314E+02</totfact>
</mgrwt>
</event>
<event>
 4    1  0.6480558E-006  0.5279894E+03  0.7818608E-02  0.1006721E+00
          1   -1    0    0  501    0  0.00000000000E+00  0.00000000000E+00  0.53675839927E+03  0.53675839929E+03  0.50400000000E-02 0.  1.
         -1   -1    0    0    0  501 -0.00000000000E+00 -0.00000000000E+00 -0.12984092332E+03  0.12984092341E+03  0.50400000000E-02 0. -1.
    5000001    1    1    2    0    0  0.16434627362E+03 -0.43537533819E+02  0.15996131874E+03  0.30674718906E+03  0.19900000000E+03 0.  0.
   -5000001    1    1    2    0    0 -0.16434627362E+03  0.43537533819E+02  0.24695615721E+03  0.35985213365E+03  0.19900000000E+03 0.  0.
<mgrwt>
<rscale>  0 0.52798942E+03</rscale>
<asrwt>0</asrwt>
<pdfrwt beam="1">  1        1 0.76679771E-01 0.52798942E+03</pdfrwt>
<pdfrwt beam="2">  1       -1 0.18548703E-01 0.52798942E+03</pdfrwt>
<totfact> 0.10356970E+03</totfact>
</mgrwt>
</event>
<event>
 4    1  0.6480558E-006  0.8157640E+03  0.7818608E-02  0.9537476E-01
         -1   -1    0    0    0  501 -0.00000000000E+00  0.00000000000E+00  0.11234409924E+03  0.11234409935E+03  0.50400000000E-02 0. -1.
          1   -1    0    0  501    0  0.00000000000E+00 -0.00000000000E+00 -0.14808763549E+04  0.14808763549E+04  0.50400000000E-02 0.  1.
    5000001    1    1    2    0    0 -0.42510733912E+02  0.35235344448E+03 -0.62879811751E+03  0.74896474211E+03  0.19900000000E+03 0.  0.
   -5000001    1    1    2    0    0  0.42510733912E+02 -0.35235344448E+03 -0.73973413811E+03  0.84425571210E+03  0.19900000000E+03 0.  0.
<mgrwt>
<rscale>  0 0.81576399E+03</rscale>
<asrwt>0</asrwt>
<pdfrwt beam="1">  1        1 0.21155375E+00 0.81576399E+03</pdfrwt>
<pdfrwt beam="2">  1       -1 0.16049158E-01 0.81576399E+03</pdfrwt>
<totfact> 0.23841204E+02</totfact>
</mgrwt>
</event>
<event>
 4    1  0.6480558E-006  0.7693019E+03  0.7818608E-02  0.9605546E-01
          1   -1    0    0  501    0  0.00000000000E+00  0.00000000000E+00  0.31788921578E+03  0.31788921582E+03  0.50400000000E-02 0.  1.
         -1   -1    0    0    0  501 -0.00000000000E+00 -0.00000000000E+00 -0.46543372112E+03  0.46543372114E+03  0.50400000000E-02 0. -1.
    5000001    1    1    2    0    0  0.19041601512E+03 -0.12854646149E+03 -0.31380781738E+03  0.43687389236E+03  0.19900000000E+03 0.  0.
   -5000001    1    1    2    0    0 -0.19041601512E+03  0.12854646149E+03  0.16626331203E+03  0.34644904460E+03  0.19900000000E+03 0.  0.
<mgrwt>
<rscale>  0 0.76930192E+03</rscale>
<asrwt>0</asrwt>
<pdfrwt beam="1">  1        1 0.45412745E-01 0.76930192E+03</pdfrwt>
<pdfrwt beam="2">  1       -1 0.66490532E-01 0.76930192E+03</pdfrwt>
<totfact> 0.20769528E+02</totfact>
</mgrwt>
</event>
<event>
 4    1  0.6480558E-006  0.6818736E+03  0.7818608E-02  0.9748743E-01
         -1   -1    0    0    0  501 -0.00000000000E+00  0.00000000000E+00  0.21153947152E+03  0.21153947158E+03  0.50400000000E-02 0. -1.
          1   -1    0    0  501    0  0.00000000000E+00 -0.00000000000E+00 -0.54948570877E+03  0.54948570879E+03  0.50400000000E-02 0.  1.
    5000001    1    1    2    0    0  0.20715773748E+03 -0.16480196644E+03 -0.78557591079E+02  0.34036202998E+03  0.19900000000E+03 0.  0.
   -5000001    1    1    2    0    0 -0.20715773748E+03  0.16480196644E+03 -0.25938864616E+03  0.42066315039E+03  0.19900000000E+03 0.  0.
<mgrwt>
<rscale>  0 0.68187364E+03</rscale>
<asrwt>0</asrwt>
<pdfrwt beam="1">  1        1 0.78497958E-01 0.68187364E+03</pdfrwt>
<pdfrwt beam="2">  1       -1 0.30219925E-01 0.68187364E+03</pdfrwt>
<totfact> 0.43823385E+02</totfact>
</mgrwt>
</event>
<event>
 4    1  0.6480558E-006  0.1242761E+04  0.7818608E-02  0.9076230E-01
         -1   -1    0    0    0  501 -0.00000000000E+00  0.00000000000E+00  0.13716795495E+03  0.13716795504E+03  0.50400000000E-02 0. -1.
          1   -1    0    0  501    0  0.00000000000E+00 -0.00000000000E+00 -0.28148965949E+04  0.28148965949E+04  0.50400000000E-02 0.  1.
    5000001    1    1    2    0    0 -0.32119885988E+03  0.49118007083E+03 -0.12303718484E+04  0.13776220290E+04  0.19900000000E+03 0.  0.
   -5000001    1    1    2    0    0  0.32119885988E+03 -0.49118007083E+03 -0.14473567915E+04  0.15744425209E+04  0.19900000000E+03 0.  0.
<mgrwt>
<rscale>  0 0.12427608E+04</rscale>
<asrwt>0</asrwt>
<pdfrwt beam="1">  1        1 0.40212805E+00 0.12427608E+04</pdfrwt>
<pdfrwt beam="2">  1       -1 0.19595424E-01 0.12427608E+04</pdfrwt>
<totfact> 0.23742531E+01</totfact>
</mgrwt>
</event>
<event>
 4    1  0.6480558E-006  0.6280978E+03  0.7818608E-02  0.9848768E-01
         -1   -1    0    0    0  501 -0.00000000000E+00  0.00000000000E+00  0.12019744276E+03  0.12019744287E+03  0.50400000000E-02 0. -1.
          1   -1    0    0  501    0  0.00000000000E+00 -0.00000000000E+00 -0.82053929316E+03  0.82053929317E+03  0.50400000000E-02 0.  1.
    5000001    1    1    2    0    0  0.11343747018E+03 -0.17326873070E+03 -0.15991704413E+03  0.32873176555E+03  0.19900000000E+03 0.  0.
   -5000001    1    1    2    0    0 -0.11343747018E+03  0.17326873070E+03 -0.54042480626E+03  0.61200497049E+03  0.19900000000E+03 0.  0.
<mgrwt>
<rscale>  0 0.62809784E+03</rscale>
<asrwt>0</asrwt>
<pdfrwt beam="1">  1        1 0.11721990E+00 0.62809784E+03</pdfrwt>
<pdfrwt beam="2">  1       -1 0.17171064E-01 0.62809784E+03</pdfrwt>
<totfact> 0.63537980E+02</totfact>
</mgrwt>
</event>
<event>
 4    1  0.6480558E-006  0.9352400E+03  0.7818608E-02  0.9382571E-01
         -1   -1    0    0    0  501 -0.00000000000E+00  0.00000000000E+00  0.13296321108E+03  0.13296321118E+03  0.50400000000E-02 0.  1.
          1   -1    0    0  501    0  0.00000000000E+00 -0.00000000000E+00 -0.16445787032E+04  0.16445787032E+04  0.50400000000E-02 0. -1.
    5000001    1    1    2    0    0 -0.21418468516E+03 -0.31348583640E+03 -0.40064469614E+03  0.58674152872E+03  0.19900000000E+03 0.  0.
   -5000001    1    1    2    0    0  0.21418468516E+03  0.31348583640E+03 -0.11109707960E+04  0.11908003857E+04  0.19900000000E+03 0.  0.
<mgrwt>
<rscale>  0 0.93524000E+03</rscale>
<asrwt>0</asrwt>
<pdfrwt beam="1">  1        1 0.23493980E+00 0.93524000E+03</pdfrwt>
<pdfrwt beam="2">  1       -1 0.18994746E-01 0.93524000E+03</pdfrwt>
<totfact> 0.14057313E+02</totfact>
</mgrwt>
</event>
<event>
 4    1  0.6480558E-006  0.9929734E+03  0.7818608E-02  0.9316285E-01
          1   -1    0    0  501    0  0.00000000000E+00  0.00000000000E+00  0.28551192863E+04  0.28551192863E+04  0.50400000000E-02 0.  1.
         -1   -1    0    0    0  501 -0.00000000000E+00 -0.00000000000E+00 -0.86335818150E+02  0.86335818297E+02  0.50400000000E-02 0. -1.
    5000001    1    1    2    0    0 -0.23068701152E+03 -0.38885744680E+03  0.15316570175E+04  0.16093479520E+04  0.19900000000E+03 0.  0.
   -5000001    1    1    2    0    0  0.23068701152E+03  0.38885744680E+03  0.12371264506E+04  0.13321071526E+04  0.19900000000E+03 0.  0.
<mgrwt>
<rscale>  0 0.99297343E+03</rscale>
<asrwt>0</asrwt>
<pdfrwt beam="1">  1        1 0.40787419E+00 0.99297343E+03</pdfrwt>
<pdfrwt beam="2">  1       -1 0.12333688E-01 0.99297343E+03</pdfrwt>
<totfact> 0.48934690E+01</totfact>
</mgrwt>
</event>
<event>
 4    1  0.6480558E-006  0.7040104E+03  0.7818608E-02  0.9710398E-01
          1   -1    0    0  501    0  0.00000000000E+00  0.00000000000E+00  0.52611778615E+03  0.52611778618E+03  0.50400000000E-02 0.  1.
         -1   -1    0    0    0  501 -0.00000000000E+00 -0.00000000000E+00 -0.23551317764E+03  0.23551317770E+03  0.50400000000E-02 0. -1.
    5000001    1    1    2    0    0 -0.18989086725E+03  0.21927168515E+03  0.13127754342E+03  0.37546425500E+03  0.19900000000E+03 0.  0.
   -5000001    1    1    2    0    0  0.18989086725E+03 -0.21927168515E+03  0.15932706510E+03  0.38616670888E+03  0.19900000000E+03 0.  0.
<mgrwt>
<rscale>  0 0.70401043E+03</rscale>
<asrwt>0</asrwt>
<pdfrwt beam="1">  1        1 0.75159684E-01 0.70401043E+03</pdfrwt>
<pdfrwt beam="2">  1       -1 0.33644740E-01 0.70401043E+03</pdfrwt>
<totfact> 0.38497354E+02</totfact>
</mgrwt>
</event>
<event>
 4    1  0.6480558E-006  0.6973955E+03  0.7818608E-02  0.9721697E-01
         -1   -1    0    0    0  501 -0.00000000000E+00  0.00000000000E+00  0.19673583116E+03  0.19673583123E+03  0.50400000000E-02 0. -1.
          1   -1    0    0  501    0  0.00000000000E+00 -0.00000000000E+00 -0.61803746838E+03  0.61803746840E+03  0.50400000000E-02 0.  1.
    5000001    1    1    2    0    0 -0.24230095542E+03  0.15108831699E+03 -0.18582095638E+03  0.39454766551E+03  0.19900000000E+03 0.  0.
   -5000001    1    1    2    0    0  0.24230095542E+03 -0.15108831699E+03 -0.23548068084E+03  0.42022563412E+03  0.19900000000E+03 0.  0.
<mgrwt>
<rscale>  0 0.69739548E+03</rscale>
<asrwt>0</asrwt>
<pdfrwt beam="1">  1        1 0.88291066E-01 0.69739548E+03</pdfrwt>
<pdfrwt beam="2">  1       -1 0.28105119E-01 0.69739548E+03</pdfrwt>
<totfact> 0.42151640E+02</totfact>
</mgrwt>
</event>
<event>
 4    1  0.6480558E-006  0.4790759E+03  0.7818608E-02  0.1019389E+00
         -1   -1    0    0    0  501 -0.00000000000E+00  0.00000000000E+00  0.45703506617E+02  0.45703506894E+02  0.50400000000E-02 0. -1.
          1   -1    0    0  501    0  0.00000000000E+00 -0.00000000000E+00 -0.12554491928E+04  0.12554491928E+04  0.50400000000E-02 0.  1.
    5000001    1    1    2    0    0 -0.17106946757E+02  0.97732396251E+02 -0.84677909569E+03  0.87548849553E+03  0.19900000000E+03 0.  0.
   -5000001    1    1    2    0    0  0.17106946757E+02 -0.97732396251E+02 -0.36296659051E+03  0.42566420419E+03  0.19900000000E+03 0.  0.
<mgrwt>
<rscale>  0 0.47907590E+03</rscale>
<asrwt>0</asrwt>
<pdfrwt beam="1">  1        1 0.17934986E+00 0.47907590E+03</pdfrwt>
<pdfrwt beam="2">  1       -1 0.65290732E-02 0.47907590E+03</pdfrwt>
<totfact> 0.14166970E+03</totfact>
</mgrwt>
</event>
<event>
 4    1  0.6480558E-006  0.8411962E+03  0.7818608E-02  0.9502230E-01
         -1   -1    0    0    0  501 -0.00000000000E+00  0.00000000000E+00  0.50143293768E+03  0.50143293771E+03  0.50400000000E-02 0. -1.
          1   -1    0    0  501    0  0.00000000000E+00 -0.00000000000E+00 -0.35279448230E+03  0.35279448233E+03  0.50400000000E-02 0.  1.
    5000001    1    1    2    0    0 -0.36437303521E+03  0.65858847608E+02  0.60077815022E+02  0.42463565613E+03  0.19900000000E+03 0.  0.
   -5000001    1    1    2    0    0  0.36437303521E+03 -0.65858847608E+02  0.88560640364E+02  0.42959176391E+03  0.19900000000E+03 0.  0.
<mgrwt>
<rscale>  0 0.84119623E+03</rscale>
<asrwt>0</asrwt>
<pdfrwt beam="1">  1        1 0.50399212E-01 0.84119623E+03</pdfrwt>
<pdfrwt beam="2">  1       -1 0.71633276E-01 0.84119623E+03</pdfrwt>
<totfact> 0.15527075E+02</totfact>
</mgrwt>
</event>
<event>
 4    1  0.6480558E-006  0.8048885E+03  0.7818608E-02  0.9552968E-01
          1   -1    0    0  501    0  0.00000000000E+00  0.00000000000E+00  0.19306077417E+04  0.19306077417E+04  0.50400000000E-02 0.  1.
         -1   -1    0    0    0  501 -0.00000000000E+00 -0.00000000000E+00 -0.83891400373E+02  0.83891400525E+02  0.50400000000E-02 0. -1.
    5000001    1    1    2    0    0  0.22251516641E+03 -0.25340796583E+03  0.11558896739E+04  0.12204140832E+04  0.19900000000E+03 0.  0.
   -5000001    1    1    2    0    0 -0.22251516641E+03  0.25340796583E+03  0.69082666745E+03  0.79408505898E+03  0.19900000000E+03 0.  0.
<mgrwt>
<rscale>  0 0.80488853E+03</rscale>
<asrwt>0</asrwt>
<pdfrwt beam="1">  1        1 0.27580108E+00 0.80488853E+03</pdfrwt>
<pdfrwt beam="2">  1       -1 0.11984487E-01 0.80488853E+03</pdfrwt>
<totfact> 0.19878796E+02</totfact>
</mgrwt>
</event>
<event>
 4    1  0.6480558E-006  0.7388452E+03  0.7818608E-02  0.9653015E-01
          1   -1    0    0  501    0  0.00000000000E+00  0.00000000000E+00  0.70645151674E+03  0.70645151676E+03  0.50400000000E-02 0.  1.
         -1   -1    0    0    0  501 -0.00000000000E+00 -0.00000000000E+00 -0.19318107866E+03  0.19318107873E+03  0.50400000000E-02 0. -1.
    5000001    1    1    2    0    0  0.27476012280E+03 -0.89501965071E+02  0.39741829219E+03  0.53013774229E+03  0.19900000000E+03 0.  0.
   -5000001    1    1    2    0    0 -0.27476012280E+03  0.89501965071E+02  0.11585214589E+03  0.36949485320E+03  0.19900000000E+03 0.  0.
<mgrwt>
<rscale>  0 0.73884522E+03</rscale>
<asrwt>0</asrwt>
<pdfrwt beam="1">  1        1 0.10092165E+00 0.73884522E+03</pdfrwt>
<pdfrwt beam="2">  1       -1 0.27597297E-01 0.73884522E+03</pdfrwt>
<totfact> 0.35793595E+02</totfact>
</mgrwt>
</event>
<event>
 4    1  0.6480558E-006  0.5299462E+03  0.7818608E-02  0.1006245E+00
         -1   -1    0    0    0  501 -0.00000000000E+00  0.00000000000E+00  0.99478877477E+02  0.99478877604E+02  0.50400000000E-02 0. -1.
          1   -1    0    0  501    0  0.00000000000E+00 -0.00000000000E+00 -0.70578540346E+03  0.70578540347E+03  0.50400000000E-02 0.  1.
    5000001    1    1    2    0    0  0.64136757460E+02  0.30289405272E+02 -0.60130766978E+02  0.21965354736E+03  0.19900000000E+03 0.  0.
   -5000001    1    1    2    0    0 -0.64136757460E+02 -0.30289405272E+02 -0.54617575900E+03  0.58561073372E+03  0.19900000000E+03 0.  0.
<mgrwt>
<rscale>  0 0.52994618E+03</rscale>
<asrwt>0</asrwt>
<pdfrwt beam="1">  1        1 0.10082648E+00 0.52994618E+03</pdfrwt>
<pdfrwt beam="2">  1       -1 0.14211269E-01 0.52994618E+03</pdfrwt>
<totfact> 0.10863923E+03</totfact>
</mgrwt>
</event>
<event>
 4    1  0.6480558E-006  0.4717943E+03  0.7818608E-02  0.1021415E+00
          1   -1    0    0  501    0  0.00000000000E+00  0.00000000000E+00  0.11529119260E+03  0.11529119271E+03  0.50400000000E-02 0. -1.
         -1   -1    0    0    0  501 -0.00000000000E+00 -0.00000000000E+00 -0.48266893270E+03  0.48266893273E+03  0.50400000000E-02 0.  1.
    5000001    1    1    2    0    0 -0.42835565868E+02 -0.10284611189E+03 -0.26009496326E+03  0.34592282137E+03  0.19900000000E+03 0.  0.
   -5000001    1    1    2    0    0  0.42835565868E+02  0.10284611189E+03 -0.10728277684E+03  0.25203730406E+03  0.19900000000E+03 0.  0.
<mgrwt>
<rscale>  0 0.47179435E+03</rscale>
<asrwt>0</asrwt>
<pdfrwt beam="1">  1        1 0.16470171E-01 0.47179435E+03</pdfrwt>
<pdfrwt beam="2">  1       -1 0.68952704E-01 0.47179435E+03</pdfrwt>
<totfact> 0.72949658E+02</totfact>
</mgrwt>
</event>
<event>
 4    1  0.6480558E-006  0.7473473E+03  0.7818608E-02  0.9639521E-01
          1   -1    0    0  501    0  0.00000000000E+00  0.00000000000E+00  0.13679011505E+04  0.13679011505E+04  0.50400000000E-02 0.  1.
         -1   -1    0    0    0  501 -0.00000000000E+00 -0.00000000000E+00 -0.10207755265E+03  0.10207755277E+03  0.50400000000E-02 0. -1.
    5000001    1    1    2    0    0  0.21000512726E+03  0.23228495038E+03  0.54555381703E+03  0.65976391151E+03  0.19900000000E+03 0.  0.
   -5000001    1    1    2    0    0 -0.21000512726E+03 -0.23228495038E+03  0.72026978085E+03  0.81021479180E+03  0.19900000000E+03 0.  0.
<mgrwt>
<rscale>  0 0.74734731E+03</rscale>
<asrwt>0</asrwt>
<pdfrwt beam="1">  1        1 0.19541445E+00 0.74734731E+03</pdfrwt>
<pdfrwt beam="2">  1       -1 0.14582508E-01 0.74734731E+03</pdfrwt>
<totfact> 0.33182368E+02</totfact>
</mgrwt>
</event>
<event>
 4    1  0.6480558E-006  0.8320077E+03  0.7818608E-02  0.9514809E-01
         -1   -1    0    0    0  501 -0.00000000000E+00  0.00000000000E+00  0.10956032705E+03  0.10956032717E+03  0.50400000000E-02 0. -1.
          1   -1    0    0  501    0  0.00000000000E+00 -0.00000000000E+00 -0.15795789568E+04  0.15795789568E+04  0.50400000000E-02 0.  1.
    5000001    1    1    2    0    0  0.23569397829E+03 -0.24664735677E+03 -0.10002715770E+04  0.10754212188E+04  0.19900000000E+03 0.  0.
   -5000001    1    1    2    0    0 -0.23569397829E+03  0.24664735677E+03 -0.46974705271E+03  0.61371806518E+03  0.19900000000E+03 0.  0.
<mgrwt>
<rscale>  0 0.83200766E+03</rscale>
<asrwt>0</asrwt>
<pdfrwt beam="1">  1        1 0.22565412E+00 0.83200766E+03</pdfrwt>
<pdfrwt beam="2">  1       -1 0.15651476E-01 0.83200766E+03</pdfrwt>
<totfact> 0.21434050E+02</totfact>
</mgrwt>
</event>
<event>
 4    1  0.6480558E-006  0.5419829E+03  0.7818608E-02  0.1003367E+00
         -1   -1    0    0    0  501 -0.00000000000E+00  0.00000000000E+00  0.26149746293E+02  0.26149746779E+02  0.50400000000E-02 0. -1.
          1   -1    0    0  501    0  0.00000000000E+00 -0.00000000000E+00 -0.28083013688E+04  0.28083013688E+04  0.50400000000E-02 0.  1.
    5000001    1    1    2    0    0  0.14842457940E+03 -0.46393547880E+02 -0.19049040273E+04  0.19215729417E+04  0.19900000000E+03 0.  0.
   -5000001    1    1    2    0    0 -0.14842457940E+03  0.46393547880E+02 -0.87724759520E+03  0.91287817388E+03  0.19900000000E+03 0.  0.
<mgrwt>
<rscale>  0 0.54198291E+03</rscale>
<asrwt>0</asrwt>
<pdfrwt beam="1">  1        1 0.40118572E+00 0.54198291E+03</pdfrwt>
<pdfrwt beam="2">  1       -1 0.37356799E-02 0.54198291E+03</pdfrwt>
<totfact> 0.35212190E+02</totfact>
</mgrwt>
</event>
<event>
 4    1  0.6480558E-006  0.4700362E+03  0.7818608E-02  0.1021910E+00
          1   -1    0    0  501    0  0.00000000000E+00  0.00000000000E+00  0.10198388835E+03  0.10198388848E+03  0.50400000000E-02 0.  1.
         -1   -1    0    0    0  501 -0.00000000000E+00 -0.00000000000E+00 -0.54159051338E+03  0.54159051341E+03  0.50400000000E-02 0. -1.
    5000001    1    1    2    0    0 -0.65033274671E+02 -0.44713411630E+02 -0.87026805215E+02  0.23109149881E+03  0.19900000000E+03 0.  0.
   -5000001    1    1    2    0    0  0.65033274671E+02  0.44713411630E+02 -0.35257981981E+03  0.41248290308E+03  0.19900000000E+03 0.  0.
<mgrwt>
<rscale>  0 0.47003620E+03</rscale>
<asrwt>0</asrwt>
<pdfrwt beam="1">  1        1 0.14569127E-01 0.47003620E+03</pdfrwt>
<pdfrwt beam="2">  1       -1 0.77370072E-01 0.47003620E+03</pdfrwt>
<totfact> 0.67834787E+02</totfact>
</mgrwt>
</event>
<event>
 4    1  0.6480558E-006  0.6592592E+03  0.7818608E-02  0.9789558E-01
          1   -1    0    0  501    0  0.00000000000E+00  0.00000000000E+00  0.58019296762E+03  0.58019296764E+03  0.50400000000E-02 0.  1.
         -1   -1    0    0    0  501 -0.00000000000E+00 -0.00000000000E+00 -0.18727504876E+03  0.18727504883E+03  0.50400000000E-02 0. -1.
    5000001    1    1    2    0    0  0.65792666414E+02  0.21468316397E+03  0.35538447291E+03  0.46509854808E+03  0.19900000000E+03 0.  0.
   -5000001    1    1    2    0    0 -0.65792666414E+02 -0.21468316397E+03  0.37533445951E+02  0.30236946838E+03  0.19900000000E+03 0.  0.
<mgrwt>
<rscale>  0 0.65925918E+03</rscale>
<asrwt>0</asrwt>
<pdfrwt beam="1">  1        1 0.82884710E-01 0.65925918E+03</pdfrwt>
<pdfrwt beam="2">  1       -1 0.26753578E-01 0.65925918E+03</pdfrwt>
<totfact> 0.50205824E+02</totfact>
</mgrwt>
</event>
<event>
 4    1  0.6480558E-006  0.8580086E+03  0.7818608E-02  0.9479651E-01
          1   -1    0    0  501    0  0.00000000000E+00  0.00000000000E+00  0.16802037761E+04  0.16802037761E+04  0.50400000000E-02 0.  1.
         -1   -1    0    0    0  501 -0.00000000000E+00 -0.00000000000E+00 -0.10953713252E+03  0.10953713264E+03  0.50400000000E-02 0. -1.
    5000001    1    1    2    0    0  0.12096419399E+03 -0.36027244106E+03  0.77721808996E+03  0.88774857216E+03  0.19900000000E+03 0.  0.
   -5000001    1    1    2    0    0 -0.12096419399E+03  0.36027244106E+03  0.79344855357E+03  0.90199233655E+03  0.19900000000E+03 0.  0.
<mgrwt>
<rscale>  0 0.85800863E+03</rscale>
<asrwt>0</asrwt>
<pdfrwt beam="1">  1        1 0.24002914E+00 0.85800863E+03</pdfrwt>
<pdfrwt beam="2">  1       -1 0.15648160E-01 0.85800863E+03</pdfrwt>
<totfact> 0.18467128E+02</totfact>
</mgrwt>
</event>
<event>
 4    1  0.6480558E-006  0.9172837E+03  0.7818608E-02  0.9404230E-01
         -1   -1    0    0    0  501 -0.00000000000E+00  0.00000000000E+00  0.89002286350E+02  0.89002286493E+02  0.50400000000E-02 0. -1.
          1   -1    0    0  501    0  0.00000000000E+00 -0.00000000000E+00 -0.23634486574E+04  0.23634486574E+04  0.50400000000E-02 0.  1.
    5000001    1    1    2    0    0 -0.16259867245E+03 -0.36711526535E+03 -0.13983532780E+04  0.14684021371E+04  0.19900000000E+03 0.  0.
   -5000001    1    1    2    0    0  0.16259867245E+03  0.36711526535E+03 -0.87609309305E+03  0.98404880674E+03  0.19900000000E+03 0.  0.
<mgrwt>
<rscale>  0 0.91728367E+03</rscale>
<asrwt>0</asrwt>
<pdfrwt beam="1">  1        1 0.33763548E+00 0.91728367E+03</pdfrwt>
<pdfrwt beam="2">  1       -1 0.12714614E-01 0.91728367E+03</pdfrwt>
<totfact> 0.96231060E+01</totfact>
</mgrwt>
</event>
<event>
 4    1  0.6480558E-006  0.4993880E+03  0.7818608E-02  0.1013939E+00
          1   -1    0    0  501    0  0.00000000000E+00  0.00000000000E+00  0.21341591244E+03  0.21341591250E+03  0.50400000000E-02 0. -1.
         -1   -1    0    0    0  501 -0.00000000000E+00 -0.00000000000E+00 -0.29213895017E+03  0.29213895021E+03  0.50400000000E-02 0.  1.
    5000001    1    1    2    0    0  0.20407062379E+02  0.14602352180E+03 -0.71483196129E+02  0.25777929406E+03  0.19900000000E+03 0.  0.
   -5000001    1    1    2    0    0 -0.20407062379E+02 -0.14602352180E+03 -0.72398416009E+01  0.24777556865E+03  0.19900000000E+03 0.  0.
<mgrwt>
<rscale>  0 0.49938803E+03</rscale>
<asrwt>0</asrwt>
<pdfrwt beam="1">  1        1 0.30487987E-01 0.49938803E+03</pdfrwt>
<pdfrwt beam="2">  1       -1 0.41734136E-01 0.49938803E+03</pdfrwt>
<totfact> 0.85177033E+02</totfact>
</mgrwt>
</event>
<event>
 4    1  0.6480558E-006  0.5205487E+03  0.7818608E-02  0.1008550E+00
         -1   -1    0    0    0  501 -0.00000000000E+00  0.00000000000E+00  0.48331495125E+02  0.48331495388E+02  0.50400000000E-02 0. -1.
          1   -1    0    0  501    0  0.00000000000E+00 -0.00000000000E+00 -0.14016271144E+04  0.14016271144E+04  0.50400000000E-02 0.  1.
    5000001    1    1    2    0    0 -0.95130944705E+02  0.13407755267E+03 -0.76966022608E+03  0.81179095239E+03  0.19900000000E+03 0.  0.
   -5000001    1    1    2    0    0  0.95130944705E+02 -0.13407755267E+03 -0.58363539321E+03  0.63816765742E+03  0.19900000000E+03 0.  0.
<mgrwt>
<rscale>  0 0.52054869E+03</rscale>
<asrwt>0</asrwt>
<pdfrwt beam="1">  1        1 0.20023242E+00 0.52054869E+03</pdfrwt>
<pdfrwt beam="2">  1       -1 0.69045002E-02 0.52054869E+03</pdfrwt>
<totfact> 0.10399039E+03</totfact>
</mgrwt>
</event>
<event>
 4    1  0.6480558E-006  0.5287850E+03  0.7818608E-02  0.1006527E+00
          1   -1    0    0  501    0  0.00000000000E+00  0.00000000000E+00  0.49230309389E+03  0.49230309392E+03  0.50400000000E-02 0.  1.
         -1   -1    0    0    0  501 -0.00000000000E+00 -0.00000000000E+00 -0.14199259838E+03  0.14199259847E+03  0.50400000000E-02 0. -1.
    5000001    1    1    2    0    0 -0.10066393720E+02 -0.17324881726E+03  0.15879971612E+03  0.30811497011E+03  0.19900000000E+03 0.  0.
   -5000001    1    1    2    0    0  0.10066393720E+02  0.17324881726E+03  0.19151077939E+03  0.32618072228E+03  0.19900000000E+03 0.  0.
<mgrwt>
<rscale>  0 0.52878501E+03</rscale>
<asrwt>0</asrwt>
<pdfrwt beam="1">  1        1 0.70329013E-01 0.52878501E+03</pdfrwt>
<pdfrwt beam="2">  1       -1 0.20284657E-01 0.52878501E+03</pdfrwt>
<totfact> 0.10040498E+03</totfact>
</mgrwt>
</event>
<event>
 4    1  0.6480558E-006  0.6416490E+03  0.7818608E-02  0.9822577E-01
          1   -1    0    0  501    0  0.00000000000E+00  0.00000000000E+00  0.17475960493E+03  0.17475960501E+03  0.50400000000E-02 0. -1.
         -1   -1    0    0    0  501 -0.00000000000E+00 -0.00000000000E+00 -0.58897110476E+03  0.58897110478E+03  0.50400000000E-02 0.  1.
    5000001    1    1    2    0    0  0.74811118878E+02 -0.21024901698E+03 -0.34553488589E+03  0.45694278637E+03  0.19900000000E+03 0.  0.
   -5000001    1    1    2    0    0 -0.74811118878E+02  0.21024901698E+03 -0.68676613935E+02  0.30678792341E+03  0.19900000000E+03 0.  0.
<mgrwt>
<rscale>  0 0.64164899E+03</rscale>
<asrwt>0</asrwt>
<pdfrwt beam="1">  1        1 0.24965658E-01 0.64164899E+03</pdfrwt>
<pdfrwt beam="2">  1       -1 0.84138728E-01 0.64164899E+03</pdfrwt>
<totfact> 0.27773458E+02</totfact>
</mgrwt>
</event>
<event>
 4    1  0.6480558E-006  0.6673278E+03  0.7818608E-02  0.9774797E-01
         -1   -1    0    0    0  501 -0.00000000000E+00  0.00000000000E+00  0.65938984653E+03  0.65938984655E+03  0.50400000000E-02 0. -1.
          1   -1    0    0  501    0  0.00000000000E+00 -0.00000000000E+00 -0.16884035153E+03  0.16884035160E+03  0.50400000000E-02 0.  1.
    5000001    1    1    2    0    0 -0.15937039730E+03 -0.21523517625E+03  0.24818777014E+03  0.41584044281E+03  0.19900000000E+03 0.  0.
   -5000001    1    1    2    0    0  0.15937039730E+03  0.21523517625E+03  0.24236172487E+03  0.41238975534E+03  0.19900000000E+03 0.  0.
<mgrwt>
<rscale>  0 0.66732785E+03</rscale>
<asrwt>0</asrwt>
<pdfrwt beam="1">  1        1 0.24120051E-01 0.66732785E+03</pdfrwt>
<pdfrwt beam="2">  1       -1 0.94198548E-01 0.66732785E+03</pdfrwt>
<totfact> 0.22672830E+02</totfact>
</mgrwt>
</event>
<event>
 4    1  0.6480558E-006  0.5333202E+03  0.7818608E-02  0.1005430E+00
          1   -1    0    0  501    0  0.00000000000E+00  0.00000000000E+00  0.58495687678E+03  0.58495687680E+03  0.50400000000E-02 0.  1.
         -1   -1    0    0    0  501 -0.00000000000E+00 -0.00000000000E+00 -0.12156044768E+03  0.12156044779E+03  0.50400000000E-02 0. -1.
    5000001    1    1    2    0    0 -0.14354464660E+03  0.10266526505E+03  0.25688237092E+03  0.36977665517E+03  0.19900000000E+03 0.  0.
   -5000001    1    1    2    0    0  0.14354464660E+03 -0.10266526505E+03  0.20651405818E+03  0.33674066942E+03  0.19900000000E+03 0.  0.
<mgrwt>
<rscale>  0 0.53332024E+03</rscale>
<asrwt>0</asrwt>
<pdfrwt beam="1">  1        1 0.83565268E-01 0.53332024E+03</pdfrwt>
<pdfrwt beam="2">  1       -1 0.17365778E-01 0.53332024E+03</pdfrwt>
<totfact> 0.10252537E+03</totfact>
</mgrwt>
</event>
<event>
 4    1  0.6480558E-006  0.8491184E+03  0.7818608E-02  0.9491521E-01
         -1   -1    0    0    0  501 -0.00000000000E+00  0.00000000000E+00  0.71232116768E+02  0.71232116946E+02  0.50400000000E-02 0. -1.
          1   -1    0    0  501    0  0.00000000000E+00 -0.00000000000E+00 -0.25304670710E+04  0.25304670710E+04  0.50400000000E-02 0.  1.
    5000001    1    1    2    0    0 -0.12618175092E+03 -0.29840195212E+03 -0.65082166688E+03  0.75374757139E+03  0.19900000000E+03 0.  0.
   -5000001    1    1    2    0    0  0.12618175092E+03  0.29840195212E+03 -0.18084132874E+04  0.18479516166E+04  0.19900000000E+03 0.  0.
<mgrwt>
<rscale>  0 0.84911843E+03</rscale>
<asrwt>0</asrwt>
<pdfrwt beam="1">  1        1 0.36149524E+00 0.84911843E+03</pdfrwt>
<pdfrwt beam="2">  1       -1 0.10176018E-01 0.84911843E+03</pdfrwt>
<totfact> 0.10861866E+02</totfact>
</mgrwt>
</event>
<event>
 4    1  0.6480558E-006  0.6806711E+03  0.7818608E-02  0.9750870E-01
         -1   -1    0    0    0  501 -0.00000000000E+00  0.00000000000E+00  0.59642580889E+02  0.59642581102E+02  0.50400000000E-02 0. -1.
          1   -1    0    0  501    0  0.00000000000E+00 -0.00000000000E+00 -0.19420403163E+04  0.19420403163E+04  0.50400000000E-02 0.  1.
    5000001    1    1    2    0    0  0.23227388868E+03  0.14826859176E+03 -0.99149876043E+03  0.10481438482E+04  0.19900000000E+03 0.  0.
   -5000001    1    1    2    0    0 -0.23227388868E+03 -0.14826859176E+03 -0.89089897496E+03  0.95353904915E+03  0.19900000000E+03 0.  0.
<mgrwt>
<rscale>  0 0.68067113E+03</rscale>
<asrwt>0</asrwt>
<pdfrwt beam="1">  1        1 0.27743429E+00 0.68067113E+03</pdfrwt>
<pdfrwt beam="2">  1       -1 0.85203699E-02 0.68067113E+03</pdfrwt>
<totfact> 0.33895345E+02</totfact>
</mgrwt>
</event>
<event>
 4    1  0.6480558E-006  0.9031451E+03  0.7818608E-02  0.9421658E-01
          1   -1    0    0  501    0  0.00000000000E+00  0.00000000000E+00  0.51257137470E+03  0.51257137472E+03  0.50400000000E-02 0.  1.
         -1   -1    0    0    0  501 -0.00000000000E+00 -0.00000000000E+00 -0.39783292847E+03  0.39783292850E+03  0.50400000000E-02 0. -1.
    5000001    1    1    2    0    0  0.28847259886E+03 -0.28448748700E+03  0.70403759143E+02  0.45684489694E+03  0.19900000000E+03 0.  0.
   -5000001    1    1    2    0    0 -0.28847259886E+03  0.28448748700E+03  0.44334687084E+02  0.45355940629E+03  0.19900000000E+03 0.  0.
<mgrwt>
<rscale>  0 0.90314511E+03</rscale>
<asrwt>0</asrwt>
<pdfrwt beam="1">  1        1 0.73224482E-01 0.90314511E+03</pdfrwt>
<pdfrwt beam="2">  1       -1 0.56833275E-01 0.90314511E+03</pdfrwt>
<totfact> 0.14976921E+02</totfact>
</mgrwt>
</event>
<event>
 4    1  0.6480558E-006  0.5580739E+03  0.7818608E-02  0.9996422E-01
         -1   -1    0    0    0  501 -0.00000000000E+00  0.00000000000E+00  0.69002777222E+02  0.69002777407E+02  0.50400000000E-02 0. -1.
          1   -1    0    0  501    0  0.00000000000E+00 -0.00000000000E+00 -0.11283839868E+04  0.11283839868E+04  0.50400000000E-02 0.  1.
    5000001    1    1    2    0    0  0.17595245476E+03 -0.82693550936E+02 -0.57586471364E+03  0.63954566539E+03  0.19900000000E+03 0.  0.
   -5000001    1    1    2    0    0 -0.17595245476E+03  0.82693550936E+02 -0.48351649596E+03  0.55784109886E+03  0.19900000000E+03 0.  0.
<mgrwt>
<rscale>  0 0.55807393E+03</rscale>
<asrwt>0</asrwt>
<pdfrwt beam="1">  1        1 0.16119770E+00 0.55807393E+03</pdfrwt>
<pdfrwt beam="2">  1       -1 0.98575403E-02 0.55807393E+03</pdfrwt>
<totfact> 0.90976857E+02</totfact>
</mgrwt>
</event>
<event>
 4    1  0.6480558E-006  0.6115268E+03  0.7818608E-02  0.9881776E-01
         -1   -1    0    0    0  501 -0.00000000000E+00  0.00000000000E+00  0.83238743007E+03  0.83238743009E+03  0.50400000000E-02 0.  1.
          1   -1    0    0  501    0  0.00000000000E+00 -0.00000000000E+00 -0.11231701070E+03  0.11231701082E+03  0.50400000000E-02 0. -1.
    5000001    1    1    2    0    0  0.26643687414E+02 -0.16764479256E+03  0.60466320133E+03  0.65881199867E+03  0.19900000000E+03 0.  0.
   -5000001    1    1    2    0    0 -0.26643687414E+02  0.16764479256E+03  0.11540721804E+03  0.28589244224E+03  0.19900000000E+03 0.  0.
<mgrwt>
<rscale>  0 0.61152684E+03</rscale>
<asrwt>0</asrwt>
<pdfrwt beam="1">  1        1 0.16045287E-01 0.61152684E+03</pdfrwt>
<pdfrwt beam="2">  1       -1 0.11891249E+00 0.61152684E+03</pdfrwt>
<totfact> 0.22703228E+02</totfact>
</mgrwt>
</event>
<event>
 4    1  0.6480558E-006  0.5731413E+03  0.7818608E-02  0.9962751E-01
          1   -1    0    0  501    0  0.00000000000E+00  0.00000000000E+00  0.12330208207E+04  0.12330208207E+04  0.50400000000E-02 0. -1.
         -1   -1    0    0    0  501 -0.00000000000E+00 -0.00000000000E+00 -0.66602883853E+02  0.66602884044E+02  0.50400000000E-02 0.  1.
    5000001    1    1    2    0    0  0.98429158288E+02  0.13904794719E+03  0.31975271990E+03  0.41335872157E+03  0.19900000000E+03 0.  0.
   -5000001    1    1    2    0    0 -0.98429158288E+02 -0.13904794719E+03  0.84666521696E+03  0.88626498319E+03  0.19900000000E+03 0.  0.
<mgrwt>
<rscale>  0 0.57314132E+03</rscale>
<asrwt>0</asrwt>
<pdfrwt beam="1">  1        1 0.17614585E+00 0.57314132E+03</pdfrwt>
<pdfrwt beam="2">  1       -1 0.95146970E-02 0.57314132E+03</pdfrwt>
<totfact> 0.81446324E+02</totfact>
</mgrwt>
</event>
<event>
 4    1  0.6480558E-006  0.4830570E+03  0.7818608E-02  0.1018298E+00
         -1   -1    0    0    0  501 -0.00000000000E+00  0.00000000000E+00  0.37836466430E+03  0.37836466433E+03  0.50400000000E-02 0.  1.
          1   -1    0    0  501    0  0.00000000000E+00 -0.00000000000E+00 -0.15417935943E+03  0.15417935951E+03  0.50400000000E-02 0. -1.
    5000001    1    1    2    0    0 -0.13012648876E+03 -0.41639121510E+02  0.12120382141E+03  0.27010754495E+03  0.19900000000E+03 0.  0.
   -5000001    1    1    2    0    0  0.13012648876E+03  0.41639121510E+02  0.10298148346E+03  0.26243647889E+03  0.19900000000E+03 0.  0.
<mgrwt>
<rscale>  0 0.48305702E+03</rscale>
<asrwt>0</asrwt>
<pdfrwt beam="1">  1        1 0.22025623E-01 0.48305702E+03</pdfrwt>
<pdfrwt beam="2">  1       -1 0.54052095E-01 0.48305702E+03</pdfrwt>
<totfact> 0.80215004E+02</totfact>
</mgrwt>
</event>
<event>
 4    1  0.6480558E-006  0.6003915E+03  0.7818608E-02  0.9904594E-01
         -1   -1    0    0    0  501 -0.00000000000E+00  0.00000000000E+00  0.64923428046E+02  0.64923428241E+02  0.50400000000E-02 0. -1.
          1   -1    0    0  501    0  0.00000000000E+00 -0.00000000000E+00 -0.13880582980E+04  0.13880582980E+04  0.50400000000E-02 0.  1.
    5000001    1    1    2    0    0 -0.21735151646E+03  0.10052929227E+02 -0.79790408815E+03  0.85064368391E+03  0.19900000000E+03 0.  0.
   -5000001    1    1    2    0    0  0.21735151646E+03 -0.10052929227E+02 -0.52523078180E+03  0.60233804233E+03  0.19900000000E+03 0.  0.
<mgrwt>
<rscale>  0 0.60039155E+03</rscale>
<asrwt>0</asrwt>
<pdfrwt beam="1">  1        1 0.19829402E+00 0.60039155E+03</pdfrwt>
<pdfrwt beam="2">  1       -1 0.92747763E-02 0.60039155E+03</pdfrwt>
<totfact> 0.66788053E+02</totfact>
</mgrwt>
</event>
<event>
 4    1  0.6480558E-006  0.5679297E+03  0.7818608E-02  0.9974270E-01
          1   -1    0    0  501    0  0.00000000000E+00  0.00000000000E+00  0.91313081589E+03  0.91313081590E+03  0.50400000000E-02 0.  1.
         -1   -1    0    0    0  501 -0.00000000000E+00 -0.00000000000E+00 -0.88307222281E+02  0.88307222425E+02  0.50400000000E-02 0. -1.
    5000001    1    1    2    0    0 -0.36320429698E+01 -0.19912619760E+03  0.34713081257E+03  0.44695104356E+03  0.19900000000E+03 0.  0.
   -5000001    1    1    2    0    0  0.36320429698E+01  0.19912619760E+03  0.47769278104E+03  0.55448699476E+03  0.19900000000E+03 0.  0.
<mgrwt>
<rscale>  0 0.56792974E+03</rscale>
<asrwt>0</asrwt>
<pdfrwt beam="1">  1        1 0.13044726E+00 0.56792974E+03</pdfrwt>
<pdfrwt beam="2">  1       -1 0.12615317E-01 0.56792974E+03</pdfrwt>
<totfact> 0.88439810E+02</totfact>
</mgrwt>
</event>
<event>
 4    1  0.6480558E-006  0.6760605E+03  0.7818608E-02  0.9759071E-01
         -1   -1    0    0    0  501 -0.00000000000E+00  0.00000000000E+00  0.65729427308E+02  0.65729427501E+02  0.50400000000E-02 0. -1.
          1   -1    0    0  501    0  0.00000000000E+00 -0.00000000000E+00 -0.17384060453E+04  0.17384060453E+04  0.50400000000E-02 0.  1.
    5000001    1    1    2    0    0 -0.21080419449E+03 -0.41219681229E+02 -0.38562147992E+03  0.48419251989E+03  0.19900000000E+03 0.  0.
   -5000001    1    1    2    0    0  0.21080419449E+03  0.41219681229E+02 -0.12870551381E+04  0.13199429529E+04  0.19900000000E+03 0.  0.
<mgrwt>
<rscale>  0 0.67606045E+03</rscale>
<asrwt>0</asrwt>
<pdfrwt beam="1">  1        1 0.24834369E+00 0.67606045E+03</pdfrwt>
<pdfrwt beam="2">  1       -1 0.93899192E-02 0.67606045E+03</pdfrwt>
<totfact> 0.38979988E+02</totfact>
</mgrwt>
</event>
<event>
 4    1  0.6480558E-006  0.6088820E+03  0.7818608E-02  0.9887148E-01
         -1   -1    0    0    0  501 -0.00000000000E+00  0.00000000000E+00  0.36498625177E+02  0.36498625525E+02  0.50400000000E-02 0. -1.
          1   -1    0    0  501    0  0.00000000000E+00 -0.00000000000E+00 -0.25393923056E+04  0.25393923056E+04  0.50400000000E-02 0.  1.
    5000001    1    1    2    0    0 -0.15863515697E+03  0.23322713733E+02 -0.55149918114E+03  0.60783337257E+03  0.19900000000E+03 0.  0.
   -5000001    1    1    2    0    0  0.15863515697E+03 -0.23322713733E+02 -0.19513944993E+04  0.19680575586E+04  0.19900000000E+03 0.  0.
<mgrwt>
<rscale>  0 0.60888202E+03</rscale>
<asrwt>0</asrwt>
<pdfrwt beam="1">  1        1 0.36277022E+00 0.60888202E+03</pdfrwt>
<pdfrwt beam="2">  1       -1 0.52140910E-02 0.60888202E+03</pdfrwt>
<totfact> 0.31094557E+02</totfact>
</mgrwt>
</event>
<event>
 4    1  0.6480558E-006  0.5703673E+03  0.7818608E-02  0.9968866E-01
          1   -1    0    0  501    0  0.00000000000E+00  0.00000000000E+00  0.17922998773E+04  0.17922998773E+04  0.50400000000E-02 0. -1.
         -1   -1    0    0    0  501 -0.00000000000E+00 -0.00000000000E+00 -0.45377295053E+02  0.45377295333E+02  0.50400000000E-02 0.  1.
    5000001    1    1    2    0    0  0.11362580020E+03 -0.11770967249E+03  0.47935423013E+03  0.54419469624E+03  0.19900000000E+03 0.  0.
   -5000001    1    1    2    0    0 -0.11362580020E+03  0.11770967249E+03  0.12675683521E+04  0.12934824764E+04  0.19900000000E+03 0.  0.
<mgrwt>
<rscale>  0 0.57036732E+03</rscale>
<asrwt>0</asrwt>
<pdfrwt beam="1">  1        1 0.25604275E+00 0.57036732E+03</pdfrwt>
<pdfrwt beam="2">  1       -1 0.64824731E-02 0.57036732E+03</pdfrwt>
<totfact> 0.64716007E+02</totfact>
</mgrwt>
</event>
<event>
 4    1  0.6480558E-006  0.5654201E+03  0.7818608E-02  0.9979865E-01
         -1   -1    0    0    0  501 -0.00000000000E+00  0.00000000000E+00  0.56141059104E+03  0.56141059106E+03  0.50400000000E-02 0.  1.
          1   -1    0    0  501    0  0.00000000000E+00 -0.00000000000E+00 -0.14236455448E+03  0.14236455457E+03  0.50400000000E-02 0. -1.
    5000001    1    1    2    0    0 -0.17506323717E+03  0.95485856940E+02  0.18008704258E+03  0.33436062685E+03  0.19900000000E+03 0.  0.
   -5000001    1    1    2    0    0  0.17506323717E+03 -0.95485856940E+02  0.23895899398E+03  0.36941451878E+03  0.19900000000E+03 0.  0.
<mgrwt>
<rscale>  0 0.56542009E+03</rscale>
<asrwt>0</asrwt>
<pdfrwt beam="1">  1        1 0.20337794E-01 0.56542009E+03</pdfrwt>
<pdfrwt beam="2">  1       -1 0.80201512E-01 0.56542009E+03</pdfrwt>
<totfact> 0.40339820E+02</totfact>
</mgrwt>
</event>
<event>
 4    1  0.6480558E-006  0.5026728E+03  0.7818608E-02  0.1013084E+00
          1   -1    0    0  501    0  0.00000000000E+00  0.00000000000E+00  0.17057230404E+03  0.17057230412E+03  0.50400000000E-02 0.  1.
         -1   -1    0    0    0  501 -0.00000000000E+00 -0.00000000000E+00 -0.37034133394E+03  0.37034133398E+03  0.50400000000E-02 0. -1.
    5000001    1    1    2    0    0 -0.66251118713E+02  0.10657159936E+03 -0.47126332751E+01  0.23530814995E+03  0.19900000000E+03 0.  0.
   -5000001    1    1    2    0    0  0.66251118713E+02 -0.10657159936E+03 -0.19505639663E+03  0.30560548815E+03  0.19900000000E+03 0.  0.
<mgrwt>
<rscale>  0 0.50267275E+03</rscale>
<asrwt>0</asrwt>
<pdfrwt beam="1">  1        1 0.24367472E-01 0.50267275E+03</pdfrwt>
<pdfrwt beam="2">  1       -1 0.52905905E-01 0.50267275E+03</pdfrwt>
<totfact> 0.73245062E+02</totfact>
</mgrwt>
</event>
<event>
 4    1  0.6480558E-006  0.4746615E+03  0.7818608E-02  0.1020613E+00
         -1   -1    0    0    0  501 -0.00000000000E+00  0.00000000000E+00  0.47974347028E+03  0.47974347031E+03  0.50400000000E-02 0. -1.
          1   -1    0    0  501    0  0.00000000000E+00 -0.00000000000E+00 -0.11740836226E+03  0.11740836237E+03  0.50400000000E-02 0.  1.
    5000001    1    1    2    0    0 -0.69606593153E+02 -0.75069764569E+02  0.81754305424E+02  0.23825472465E+03  0.19900000000E+03 0.  0.
   -5000001    1    1    2    0    0  0.69606593153E+02  0.75069764569E+02  0.28058080260E+03  0.35889710802E+03  0.19900000000E+03 0.  0.
<mgrwt>
<rscale>  0 0.47466154E+03</rscale>
<asrwt>0</asrwt>
<pdfrwt beam="1">  1        1 0.16772623E-01 0.47466154E+03</pdfrwt>
<pdfrwt beam="2">  1       -1 0.68534782E-01 0.47466154E+03</pdfrwt>
<totfact> 0.72087195E+02</totfact>
</mgrwt>
</event>
<event>
 4    1  0.6480558E-006  0.5392143E+03  0.7818608E-02  0.1004022E+00
         -1   -1    0    0    0  501 -0.00000000000E+00  0.00000000000E+00  0.93965934508E+02  0.93965934643E+02  0.50400000000E-02 0. -1.
          1   -1    0    0  501    0  0.00000000000E+00 -0.00000000000E+00 -0.77355702786E+03  0.77355702787E+03  0.50400000000E-02 0.  1.
    5000001    1    1    2    0    0 -0.14526275535E+03 -0.10928543496E+03 -0.35027600200E+03  0.44197155108E+03  0.19900000000E+03 0.  0.
   -5000001    1    1    2    0    0  0.14526275535E+03  0.10928543496E+03 -0.32931509135E+03  0.42555141144E+03  0.19900000000E+03 0.  0.
<mgrwt>
<rscale>  0 0.53921428E+03</rscale>
<asrwt>0</asrwt>
<pdfrwt beam="1">  1        1 0.11050814E+00 0.53921428E+03</pdfrwt>
<pdfrwt beam="2">  1       -1 0.13423705E-01 0.53921428E+03</pdfrwt>
<totfact> 0.10387160E+03</totfact>
</mgrwt>
</event>
<event>
 4    1  0.6480558E-006  0.4630086E+03  0.7818608E-02  0.1023912E+00
         -1   -1    0    0    0  501 -0.00000000000E+00  0.00000000000E+00  0.23663309099E+03  0.23663309105E+03  0.50400000000E-02 0. -1.
          1   -1    0    0  501    0  0.00000000000E+00 -0.00000000000E+00 -0.22648666870E+03  0.22648666876E+03  0.50400000000E-02 0.  1.
    5000001    1    1    2    0    0  0.84424798579E+02 -0.73768031870E+02  0.42817816054E+02  0.23238682087E+03  0.19900000000E+03 0.  0.
   -5000001    1    1    2    0    0 -0.84424798579E+02  0.73768031870E+02 -0.32671393763E+02  0.23073293894E+03  0.19900000000E+03 0.  0.
<mgrwt>
<rscale>  0 0.46300860E+03</rscale>
<asrwt>0</asrwt>
<pdfrwt beam="1">  1        1 0.32355239E-01 0.46300860E+03</pdfrwt>
<pdfrwt beam="2">  1       -1 0.33804727E-01 0.46300860E+03</pdfrwt>
<totfact> 0.11493053E+03</totfact>
</mgrwt>
</event>
<event>
 4    1  0.6480558E-006  0.4410993E+03  0.7818608E-02  0.1030410E+00
         -1   -1    0    0    0  501 -0.00000000000E+00  0.00000000000E+00  0.61351141725E+02  0.61351141932E+02  0.50400000000E-02 0. -1.
          1   -1    0    0  501    0  0.00000000000E+00 -0.00000000000E+00 -0.79284830603E+03  0.79284830604E+03  0.50400000000E-02 0.  1.
    5000001    1    1    2    0    0 -0.88112798769E+02  0.21362472736E+01 -0.43483447158E+03  0.48626170581E+03  0.19900000000E+03 0.  0.
   -5000001    1    1    2    0    0  0.88112798769E+02 -0.21362472736E+01 -0.29666269272E+03  0.36793774217E+03  0.19900000000E+03 0.  0.
<mgrwt>
<rscale>  0 0.44109930E+03</rscale>
<asrwt>0</asrwt>
<pdfrwt beam="1">  1        1 0.11326404E+00 0.44109930E+03</pdfrwt>
<pdfrwt beam="2">  1       -1 0.87644493E-02 0.44109930E+03</pdfrwt>
<totfact> 0.19624552E+03</totfact>
</mgrwt>
</event>
<event>
 4    1  0.6480558E-006  0.5013564E+03  0.7818608E-02  0.1013425E+00
         -1   -1    0    0    0  501 -0.00000000000E+00  0.00000000000E+00  0.13477496678E+04  0.13477496678E+04  0.50400000000E-02 0. -1.
          1   -1    0    0  501    0  0.00000000000E+00 -0.00000000000E+00 -0.46625542140E+02  0.46625542412E+02  0.50400000000E-02 0.  1.
    5000001    1    1    2    0    0  0.99717962648E+02  0.11439093796E+03  0.69082719300E+03  0.73475993995E+03  0.19900000000E+03 0.  0.
   -5000001    1    1    2    0    0 -0.99717962648E+02 -0.11439093796E+03  0.61029693265E+03  0.65961527026E+03  0.19900000000E+03 0.  0.
<mgrwt>
<rscale>  0 0.50135640E+03</rscale>
<asrwt>0</asrwt>
<pdfrwt beam="1">  1        1 0.66607928E-02 0.50135640E+03</pdfrwt>
<pdfrwt beam="2">  1       -1 0.19253564E+00 0.50135640E+03</pdfrwt>
<totfact> 0.20715463E+02</totfact>
</mgrwt>
</event>
<event>
 4    1  0.6480558E-006  0.4909401E+03  0.7818608E-02  0.1016171E+00
          1   -1    0    0  501    0  0.00000000000E+00  0.00000000000E+00  0.18190272843E+03  0.18190272850E+03  0.50400000000E-02 0.  1.
         -1   -1    0    0    0  501 -0.00000000000E+00 -0.00000000000E+00 -0.33125141604E+03  0.33125141608E+03  0.50400000000E-02 0. -1.
    5000001    1    1    2    0    0  0.13515857988E+03  0.48077186472E+02 -0.65605419244E+02  0.25393764709E+03  0.19900000000E+03 0.  0.
   -5000001    1    1    2    0    0 -0.13515857988E+03 -0.48077186472E+02 -0.83743268365E+02  0.25921649749E+03  0.19900000000E+03 0.  0.
<mgrwt>
<rscale>  0 0.49094006E+03</rscale>
<asrwt>0</asrwt>
<pdfrwt beam="1">  1        1 0.25986104E-01 0.49094006E+03</pdfrwt>
<pdfrwt beam="2">  1       -1 0.47321631E-01 0.49094006E+03</pdfrwt>
<totfact> 0.83098478E+02</totfact>
</mgrwt>
</event>
<event>
 4    1  0.6480558E-006  0.4747528E+03  0.7818608E-02  0.1020587E+00
         -1   -1    0    0    0  501 -0.00000000000E+00  0.00000000000E+00  0.28008674948E+03  0.28008674953E+03  0.50400000000E-02 0. -1.
          1   -1    0    0  501    0  0.00000000000E+00 -0.00000000000E+00 -0.20117896293E+03  0.20117896300E+03  0.50400000000E-02 0.  1.
    5000001    1    1    2    0    0  0.18326300919E+02 -0.12759515097E+03  0.27887460440E+02  0.23873643690E+03  0.19900000000E+03 0.  0.
   -5000001    1    1    2    0    0 -0.18326300919E+02  0.12759515097E+03  0.51020326106E+02  0.24252927562E+03  0.19900000000E+03 0.  0.
<mgrwt>
<rscale>  0 0.47475283E+03</rscale>
<asrwt>0</asrwt>
<pdfrwt beam="1">  1        1 0.28739852E-01 0.47475283E+03</pdfrwt>
<pdfrwt beam="2">  1       -1 0.40012393E-01 0.47475283E+03</pdfrwt>
<totfact> 0.99180818E+02</totfact>
</mgrwt>
</event>
<event>
 4    1  0.6480558E-006  0.4734748E+03  0.7818608E-02  0.1020944E+00
         -1   -1    0    0    0  501 -0.00000000000E+00  0.00000000000E+00  0.36116587245E+03  0.36116587248E+03  0.50400000000E-02 0.  1.
          1   -1    0    0  501    0  0.00000000000E+00 -0.00000000000E+00 -0.15517690843E+03  0.15517690851E+03  0.50400000000E-02 0. -1.
    5000001    1    1    2    0    0 -0.78294450606E+02 -0.80318453414E+02  0.35218305234E+02  0.23113287083E+03  0.19900000000E+03 0.  0.
   -5000001    1    1    2    0    0  0.78294450606E+02  0.80318453414E+02  0.17077065879E+03  0.28520991017E+03  0.19900000000E+03 0.  0.
<mgrwt>
<rscale>  0 0.47347483E+03</rscale>
<asrwt>0</asrwt>
<pdfrwt beam="1">  1        1 0.22168130E-01 0.47347483E+03</pdfrwt>
<pdfrwt beam="2">  1       -1 0.51595125E-01 0.47347483E+03</pdfrwt>
<totfact> 0.86884124E+02</totfact>
</mgrwt>
</event>
<event>
 4    1  0.6480558E-006  0.6936273E+03  0.7818608E-02  0.9728193E-01
         -1   -1    0    0    0  501 -0.00000000000E+00  0.00000000000E+00  0.11539145547E+03  0.11539145558E+03  0.50400000000E-02 0. -1.
          1   -1    0    0  501    0  0.00000000000E+00 -0.00000000000E+00 -0.10423624529E+04  0.10423624529E+04  0.50400000000E-02 0.  1.
    5000001    1    1    2    0    0 -0.16537351699E+03 -0.23073126121E+03 -0.44735393194E+03  0.56596100170E+03  0.19900000000E+03 0.  0.
   -5000001    1    1    2    0    0  0.16537351699E+03  0.23073126121E+03 -0.47961706550E+03  0.59179290680E+03  0.19900000000E+03 0.  0.
<mgrwt>
<rscale>  0 0.69362734E+03</rscale>
<asrwt>0</asrwt>
<pdfrwt beam="1">  1        1 0.14890892E+00 0.69362734E+03</pdfrwt>
<pdfrwt beam="2">  1       -1 0.16484494E-01 0.69362734E+03</pdfrwt>
<totfact> 0.45706230E+02</totfact>
</mgrwt>
</event>
<event>
 4    1  0.6480558E-006  0.4855580E+03  0.7818608E-02  0.1017619E+00
         -1   -1    0    0    0  501 -0.00000000000E+00  0.00000000000E+00  0.40115426574E+02  0.40115426890E+02  0.50400000000E-02 0.  1.
          1   -1    0    0  501    0  0.00000000000E+00 -0.00000000000E+00 -0.14693009021E+04  0.14693009021E+04  0.50400000000E-02 0. -1.
    5000001    1    1    2    0    0  0.44666670173E+02  0.21775144390E+02 -0.11183711256E+04  0.11370242931E+04  0.19900000000E+03 0.  0.
   -5000001    1    1    2    0    0 -0.44666670173E+02 -0.21775144390E+02 -0.31081434989E+03  0.37239203594E+03  0.19900000000E+03 0.  0.
<mgrwt>
<rscale>  0 0.48555796E+03</rscale>
<asrwt>0</asrwt>
<pdfrwt beam="1">  1        1 0.20990010E+00 0.48555796E+03</pdfrwt>
<pdfrwt beam="2">  1       -1 0.57307762E-02 0.48555796E+03</pdfrwt>
<totfact> 0.12540807E+03</totfact>
</mgrwt>
</event>
<event>
 4    1  0.6480558E-006  0.7088756E+03  0.7818608E-02  0.9702173E-01
          1   -1    0    0  501    0  0.00000000000E+00  0.00000000000E+00  0.45429284741E+04  0.45429284741E+04  0.50400000000E-02 0.  1.
         -1   -1    0    0    0  501 -0.00000000000E+00 -0.00000000000E+00 -0.27653122299E+02  0.27653122758E+02  0.50400000000E-02 0. -1.
    5000001    1    1    2    0    0  0.14737370877E+03 -0.24861700580E+03  0.25797448650E+04  0.26035003350E+04  0.19900000000E+03 0.  0.
   -5000001    1    1    2    0    0 -0.14737370877E+03  0.24861700580E+03  0.19355304868E+04  0.19670812619E+04  0.19900000000E+03 0.  0.
<mgrwt>
<rscale>  0 0.70887561E+03</rscale>
<asrwt>0</asrwt>
<pdfrwt beam="1">  1        1 0.64898955E+00 0.70887561E+03</pdfrwt>
<pdfrwt beam="2">  1       -1 0.39504475E-02 0.70887561E+03</pdfrwt>
<totfact> 0.18055394E+01</totfact>
</mgrwt>
</event>
<event>
 4    1  0.6480558E-006  0.4742130E+03  0.7818608E-02  0.1020738E+00
         -1   -1    0    0    0  501 -0.00000000000E+00  0.00000000000E+00  0.25414636670E+02  0.25414637170E+02  0.50400000000E-02 0. -1.
          1   -1    0    0  501    0  0.00000000000E+00 -0.00000000000E+00 -0.22120913179E+04  0.22120913179E+04  0.50400000000E-02 0.  1.
    5000001    1    1    2    0    0 -0.10251136968E+03  0.77991326223E+02 -0.11179778346E+04  0.11428327377E+04  0.19900000000E+03 0.  0.
   -5000001    1    1    2    0    0  0.10251136968E+03 -0.77991326223E+02 -0.10686988466E+04  0.10946732173E+04  0.19900000000E+03 0.  0.
<mgrwt>
<rscale>  0 0.47421302E+03</rscale>
<asrwt>0</asrwt>
<pdfrwt beam="1">  1        1 0.31601292E+00 0.47421302E+03</pdfrwt>
<pdfrwt beam="2">  1       -1 0.36306638E-02 0.47421302E+03</pdfrwt>
<totfact> 0.86861461E+02</totfact>
</mgrwt>
</event>
<event>
 4    1  0.6480558E-006  0.6086969E+03  0.7818608E-02  0.9887525E-01
          1   -1    0    0  501    0  0.00000000000E+00  0.00000000000E+00  0.22695313501E+03  0.22695313506E+03  0.50400000000E-02 0.  1.
         -1   -1    0    0    0  501 -0.00000000000E+00 -0.00000000000E+00 -0.40813702529E+03  0.40813702532E+03  0.50400000000E-02 0. -1.
    5000001    1    1    2    0    0  0.14239678484E+03  0.15421875559E+03 -0.18939055279E+03  0.34573118227E+03  0.19900000000E+03 0.  0.
   -5000001    1    1    2    0    0 -0.14239678484E+03 -0.15421875559E+03  0.82066625038E+01  0.28935897812E+03  0.19900000000E+03 0.  0.
<mgrwt>
<rscale>  0 0.60869689E+03</rscale>
<asrwt>0</asrwt>
<pdfrwt beam="1">  1        1 0.32421877E-01 0.60869689E+03</pdfrwt>
<pdfrwt beam="2">  1       -1 0.58305289E-01 0.60869689E+03</pdfrwt>
<totfact> 0.41899654E+02</totfact>
</mgrwt>
</event>
<event>
 4    1  0.6480558E-006  0.6314084E+03  0.7818608E-02  0.9842304E-01
          1   -1    0    0  501    0  0.00000000000E+00  0.00000000000E+00  0.32279093542E+03  0.32279093545E+03  0.50400000000E-02 0. -1.
         -1   -1    0    0    0  501 -0.00000000000E+00 -0.00000000000E+00 -0.30877305252E+03  0.30877305256E+03  0.50400000000E-02 0.  1.
    5000001    1    1    2    0    0  0.78471763070E+02  0.22227899362E+03  0.74125206401E+02  0.31727167353E+03  0.19900000000E+03 0.  0.
   -5000001    1    1    2    0    0 -0.78471763070E+02 -0.22227899362E+03 -0.60107323507E+02  0.31429231448E+03  0.19900000000E+03 0.  0.
<mgrwt>
<rscale>  0 0.63140840E+03</rscale>
<asrwt>0</asrwt>
<pdfrwt beam="1">  1        1 0.46112991E-01 0.63140840E+03</pdfrwt>
<pdfrwt beam="2">  1       -1 0.44110436E-01 0.63140840E+03</pdfrwt>
<totfact> 0.45102484E+02</totfact>
</mgrwt>
</event>
<event>
 4    1  0.6480558E-006  0.4955919E+03  0.7818608E-02  0.1014936E+00
         -1   -1    0    0    0  501 -0.00000000000E+00  0.00000000000E+00  0.29252219730E+02  0.29252220164E+02  0.50400000000E-02 0. -1.
          1   -1    0    0  501    0  0.00000000000E+00 -0.00000000000E+00 -0.20990827708E+04  0.20990827708E+04  0.50400000000E-02 0.  1.
    5000001    1    1    2    0    0 -0.10765484862E+03 -0.10054440950E+03 -0.10785182435E+04  0.11065718894E+04  0.19900000000E+03 0.  0.
   -5000001    1    1    2    0    0  0.10765484862E+03  0.10054440950E+03 -0.99131230749E+03  0.10217631016E+04  0.19900000000E+03 0.  0.
<mgrwt>
<rscale>  0 0.49559189E+03</rscale>
<asrwt>0</asrwt>
<pdfrwt beam="1">  1        1 0.29986887E+00 0.49559189E+03</pdfrwt>
<pdfrwt beam="2">  1       -1 0.41788899E-02 0.49559189E+03</pdfrwt>
<totfact> 0.82278489E+02</totfact>
</mgrwt>
</event>
<event>
 4    1  0.6480558E-006  0.7787232E+03  0.7818608E-02  0.9591335E-01
          1   -1    0    0  501    0  0.00000000000E+00  0.00000000000E+00  0.18438309768E+03  0.18438309775E+03  0.50400000000E-02 0.  1.
         -1   -1    0    0    0  501 -0.00000000000E+00 -0.00000000000E+00 -0.82221457966E+03  0.82221457968E+03  0.50400000000E-02 0. -1.
    5000001    1    1    2    0    0 -0.32690129549E+03  0.32613935497E+02 -0.23641679357E+03  0.45102330989E+03  0.19900000000E+03 0.  0.
   -5000001    1    1    2    0    0  0.32690129549E+03 -0.32613935497E+02 -0.40141468842E+03  0.55557436754E+03  0.19900000000E+03 0.  0.
<mgrwt>
<rscale>  0 0.77872324E+03</rscale>
<asrwt>0</asrwt>
<pdfrwt beam="1">  1        1 0.26340443E-01 0.77872324E+03</pdfrwt>
<pdfrwt beam="2">  1       -1 0.11745922E+00 0.77872324E+03</pdfrwt>
<totfact> 0.12048477E+02</totfact>
</mgrwt>
</event>
<event>
 4    1  0.6480558E-006  0.1124947E+04  0.7818608E-02  0.9181213E-01
          1   -1    0    0  501    0  0.00000000000E+00  0.00000000000E+00  0.22698052916E+03  0.22698052921E+03  0.50400000000E-02 0.  1.
         -1   -1    0    0    0  501 -0.00000000000E+00 -0.00000000000E+00 -0.13938477038E+04  0.13938477038E+04  0.50400000000E-02 0. -1.
    5000001    1    1    2    0    0  0.96350539576E+02 -0.51712918513E+03 -0.57144207521E+03  0.80178118332E+03  0.19900000000E+03 0.  0.
   -5000001    1    1    2    0    0 -0.96350539576E+02  0.51712918513E+03 -0.59542509940E+03  0.81904704968E+03  0.19900000000E+03 0.  0.
<mgrwt>
<rscale>  0 0.11249467E+04</rscale>
<asrwt>0</asrwt>
<pdfrwt beam="1">  1        1 0.32425791E-01 0.11249467E+04</pdfrwt>
<pdfrwt beam="2">  1       -1 0.19912110E+00 0.11249467E+04</pdfrwt>
<totfact> 0.21117826E+01</totfact>
</mgrwt>
</event>
<event>
 4    1  0.6480558E-006  0.7847255E+03  0.7818608E-02  0.9582393E-01
         -1   -1    0    0    0  501 -0.00000000000E+00  0.00000000000E+00  0.38655169201E+02  0.38655169530E+02  0.50400000000E-02 0. -1.
          1   -1    0    0  501    0  0.00000000000E+00 -0.00000000000E+00 -0.39826112753E+04  0.39826112753E+04  0.50400000000E-02 0.  1.
    5000001    1    1    2    0    0 -0.27341817983E+03 -0.11516431689E+03 -0.28034495736E+04  0.28261193947E+04  0.19900000000E+03 0.  0.
   -5000001    1    1    2    0    0  0.27341817983E+03  0.11516431689E+03 -0.11405065324E+04  0.11951470501E+04  0.19900000000E+03 0.  0.
<mgrwt>
<rscale>  0 0.78472546E+03</rscale>
<asrwt>0</asrwt>
<pdfrwt beam="1">  1        1 0.56894421E+00 0.78472546E+03</pdfrwt>
<pdfrwt beam="2">  1       -1 0.55221696E-02 0.78472546E+03</pdfrwt>
<totfact> 0.29760960E+01</totfact>
</mgrwt>
</event>
<event>
 4    1  0.6480558E-006  0.6070976E+03  0.7818608E-02  0.9890789E-01
         -1   -1    0    0    0  501 -0.00000000000E+00  0.00000000000E+00  0.20771822042E+04  0.20771822042E+04  0.50400000000E-02 0. -1.
          1   -1    0    0  501    0  0.00000000000E+00 -0.00000000000E+00 -0.44359066685E+02  0.44359066972E+02  0.50400000000E-02 0.  1.
    5000001    1    1    2    0    0  0.16690640600E+03 -0.11596853211E+03  0.13868092260E+04  0.14156790873E+04  0.19900000000E+03 0.  0.
   -5000001    1    1    2    0    0 -0.16690640600E+03  0.11596853211E+03  0.64601391147E+03  0.70586218387E+03  0.19900000000E+03 0.  0.
<mgrwt>
<rscale>  0 0.60709757E+03</rscale>
<asrwt>0</asrwt>
<pdfrwt beam="1">  1        1 0.63370086E-02 0.60709757E+03</pdfrwt>
<pdfrwt beam="2">  1       -1 0.29674036E+00 0.60709757E+03</pdfrwt>
<totfact> 0.46392236E+01</totfact>
</mgrwt>
</event>
<event>
 4    1  0.6480558E-006  0.5179853E+03  0.7818608E-02  0.1009188E+00
          1   -1    0    0  501    0  0.00000000000E+00  0.00000000000E+00  0.99438434501E+03  0.99438434503E+03  0.50400000000E-02 0.  1.
         -1   -1    0    0    0  501 -0.00000000000E+00 -0.00000000000E+00 -0.67456003199E+02  0.67456003387E+02  0.50400000000E-02 0. -1.
    5000001    1    1    2    0    0 -0.45952163748E+01 -0.16495436763E+03  0.43136869766E+03  0.50290258772E+03  0.19900000000E+03 0.  0.
   -5000001    1    1    2    0    0  0.45952163748E+01  0.16495436763E+03  0.49555964415E+03  0.55893776069E+03  0.19900000000E+03 0.  0.
<mgrwt>
<rscale>  0 0.51798530E+03</rscale>
<asrwt>0</asrwt>
<pdfrwt beam="1">  1        1 0.14205490E+00 0.51798530E+03</pdfrwt>
<pdfrwt beam="2">  1       -1 0.96365721E-02 0.51798530E+03</pdfrwt>
<totfact> 0.11777801E+03</totfact>
</mgrwt>
</event>
<event>
 4    1  0.6480558E-006  0.4365858E+03  0.7818608E-02  0.1031800E+00
         -1   -1    0    0    0  501 -0.00000000000E+00  0.00000000000E+00  0.38673681689E+02  0.38673682018E+02  0.50400000000E-02 0.  1.
          1   -1    0    0  501    0  0.00000000000E+00 -0.00000000000E+00 -0.12321501596E+04  0.12321501597E+04  0.50400000000E-02 0. -1.
    5000001    1    1    2    0    0 -0.57667196812E+02  0.26127440230E+02 -0.78181335129E+03  0.80922263004E+03  0.19900000000E+03 0.  0.
   -5000001    1    1    2    0    0  0.57667196812E+02 -0.26127440230E+02 -0.41166312667E+03  0.46160121163E+03  0.19900000000E+03 0.  0.
<mgrwt>
<rscale>  0 0.43658577E+03</rscale>
<asrwt>0</asrwt>
<pdfrwt beam="1">  1        1 0.17602143E+00 0.43658577E+03</pdfrwt>
<pdfrwt beam="2">  1       -1 0.55248125E-02 0.43658577E+03</pdfrwt>
<totfact> 0.18979384E+03</totfact>
</mgrwt>
</event>
<event>
 4    1  0.6480558E-006  0.5039357E+03  0.7818608E-02  0.1012757E+00
          1   -1    0    0  501    0  0.00000000000E+00  0.00000000000E+00  0.14833508560E+04  0.14833508560E+04  0.50400000000E-02 0.  1.
         -1   -1    0    0    0  501 -0.00000000000E+00 -0.00000000000E+00 -0.42800262236E+02  0.42800262533E+02  0.50400000000E-02 0. -1.
    5000001    1    1    2    0    0  0.32143367973E+02  0.14721997610E+03  0.61624906943E+03  0.66488407489E+03  0.19900000000E+03 0.  0.
   -5000001    1    1    2    0    0 -0.32143367973E+02 -0.14721997610E+03  0.82430152434E+03  0.86126704366E+03  0.19900000000E+03 0.  0.
<mgrwt>
<rscale>  0 0.50393573E+03</rscale>
<asrwt>0</asrwt>
<pdfrwt beam="1">  1        1 0.21190721E+00 0.50393573E+03</pdfrwt>
<pdfrwt beam="2">  1       -1 0.61143247E-02 0.50393573E+03</pdfrwt>
<totfact> 0.11115068E+03</totfact>
</mgrwt>
</event>
<event>
 4    1  0.6480558E-006  0.6783322E+03  0.7818608E-02  0.9755022E-01
         -1   -1    0    0    0  501 -0.00000000000E+00  0.00000000000E+00  0.45082404232E+02  0.45082404513E+02  0.50400000000E-02 0. -1.
          1   -1    0    0  501    0  0.00000000000E+00 -0.00000000000E+00 -0.25516302936E+04  0.25516302936E+04  0.50400000000E-02 0.  1.
    5000001    1    1    2    0    0  0.13962080665E+03 -0.17951865827E+03 -0.66380227540E+03  0.72935271244E+03  0.19900000000E+03 0.  0.
   -5000001    1    1    2    0    0 -0.13962080665E+03  0.17951865827E+03 -0.18427456139E+04  0.18673599856E+04  0.19900000000E+03 0.  0.
<mgrwt>
<rscale>  0 0.67833216E+03</rscale>
<asrwt>0</asrwt>
<pdfrwt beam="1">  1        1 0.36451852E+00 0.67833216E+03</pdfrwt>
<pdfrwt beam="2">  1       -1 0.64403451E-02 0.67833216E+03</pdfrwt>
<totfact> 0.21925631E+02</totfact>
</mgrwt>
</event>
<event>
 4    1  0.6480558E-006  0.8589290E+03  0.7818608E-02  0.9478431E-01
          1   -1    0    0  501    0  0.00000000000E+00  0.00000000000E+00  0.85988675350E+03  0.85988675351E+03  0.50400000000E-02 0.  1.
         -1   -1    0    0    0  501 -0.00000000000E+00 -0.00000000000E+00 -0.21449305579E+03  0.21449305585E+03  0.50400000000E-02 0. -1.
    5000001    1    1    2    0    0 -0.25327430606E+03  0.28406028551E+03  0.32367978539E+03  0.53778036724E+03  0.19900000000E+03 0.  0.
   -5000001    1    1    2    0    0  0.25327430606E+03 -0.28406028551E+03  0.32171391232E+03  0.53659944213E+03  0.19900000000E+03 0.  0.
<mgrwt>
<rscale>  0 0.85892895E+03</rscale>
<asrwt>0</asrwt>
<pdfrwt beam="1">  1        1 0.12284096E+00 0.85892895E+03</pdfrwt>
<pdfrwt beam="2">  1       -1 0.30641865E-01 0.85892895E+03</pdfrwt>
<totfact> 0.21947240E+02</totfact>
</mgrwt>
</event>
<event>
 4    1  0.6480558E-006  0.8216525E+03  0.7818608E-02  0.9529194E-01
          1   -1    0    0  501    0  0.00000000000E+00  0.00000000000E+00  0.66628801536E+03  0.66628801538E+03  0.50400000000E-02 0.  1.
         -1   -1    0    0    0  501 -0.00000000000E+00 -0.00000000000E+00 -0.25331116450E+03  0.25331116455E+03  0.50400000000E-02 0. -1.
    5000001    1    1    2    0    0 -0.11474574268E+03 -0.30767618159E+03  0.42969354688E+02  0.38636586757E+03  0.19900000000E+03 0.  0.
   -5000001    1    1    2    0    0  0.11474574268E+03  0.30767618159E+03  0.37000749617E+03  0.53323331235E+03  0.19900000000E+03 0.  0.
<mgrwt>
<rscale>  0 0.82165246E+03</rscale>
<asrwt>0</asrwt>
<pdfrwt beam="1">  1        1 0.95184003E-01 0.82165246E+03</pdfrwt>
<pdfrwt beam="2">  1       -1 0.36187309E-01 0.82165246E+03</pdfrwt>
<totfact> 0.24137853E+02</totfact>
</mgrwt>
</event>
<event>
 4    1  0.6480558E-006  0.5454831E+03  0.7818608E-02  0.1002545E+00
          1   -1    0    0  501    0  0.00000000000E+00  0.00000000000E+00  0.33838888277E+04  0.33838888277E+04  0.50400000000E-02 0.  1.
         -1   -1    0    0    0  501 -0.00000000000E+00 -0.00000000000E+00 -0.21982976008E+02  0.21982976585E+02  0.50400000000E-02 0. -1.
    5000001    1    1    2    0    0 -0.62513867505E+02 -0.11078729423E+03  0.82929835769E+03  0.86227523115E+03  0.19900000000E+03 0.  0.
   -5000001    1    1    2    0    0  0.62513867505E+02  0.11078729423E+03  0.25326074940E+04  0.25435965731E+04  0.19900000000E+03 0.  0.
<mgrwt>
<rscale>  0 0.54548308E+03</rscale>
<asrwt>0</asrwt>
<pdfrwt beam="1">  1        1 0.48341274E+00 0.54548308E+03</pdfrwt>
<pdfrwt beam="2">  1       -1 0.31404249E-02 0.54548308E+03</pdfrwt>
<totfact> 0.19263975E+02</totfact>
</mgrwt>
</event>
<event>
 4    1  0.6480558E-006  0.5686967E+03  0.7818608E-02  0.9972567E-01
         -1   -1    0    0    0  501 -0.00000000000E+00  0.00000000000E+00  0.15918552009E+03  0.15918552017E+03  0.50400000000E-02 0. -1.
          1   -1    0    0  501    0  0.00000000000E+00 -0.00000000000E+00 -0.50792294593E+03  0.50792294595E+03  0.50400000000E-02 0.  1.
    5000001    1    1    2    0    0 -0.20202781783E+03  0.17603357413E+02 -0.16110439971E+03  0.32662018458E+03  0.19900000000E+03 0.  0.
   -5000001    1    1    2    0    0  0.20202781783E+03 -0.17603357413E+02 -0.18763302613E+03  0.34048828154E+03  0.19900000000E+03 0.  0.
<mgrwt>
<rscale>  0 0.56869668E+03</rscale>
<asrwt>0</asrwt>
<pdfrwt beam="1">  1        1 0.72560420E-01 0.56869668E+03</pdfrwt>
<pdfrwt beam="2">  1       -1 0.22740789E-01 0.56869668E+03</pdfrwt>
<totfact> 0.79530179E+02</totfact>
</mgrwt>
</event>
<event>
 4    1  0.6480558E-006  0.7511209E+03  0.7818608E-02  0.9633594E-01
         -1   -1    0    0    0  501 -0.00000000000E+00  0.00000000000E+00  0.18351995819E+03  0.18351995826E+03  0.50400000000E-02 0.  1.
          1   -1    0    0  501    0  0.00000000000E+00 -0.00000000000E+00 -0.76855749926E+03  0.76855749927E+03  0.50400000000E-02 0. -1.
    5000001    1    1    2    0    0  0.15010327479E+03  0.27980934732E+03 -0.26094764796E+03  0.45663874006E+03  0.19900000000E+03 0.  0.
   -5000001    1    1    2    0    0 -0.15010327479E+03 -0.27980934732E+03 -0.32408989311E+03  0.49543871747E+03  0.19900000000E+03 0.  0.
<mgrwt>
<rscale>  0 0.75112087E+03</rscale>
<asrwt>0</asrwt>
<pdfrwt beam="1">  1        1 0.10979393E+00 0.75112087E+03</pdfrwt>
<pdfrwt beam="2">  1       -1 0.26217137E-01 0.75112087E+03</pdfrwt>
<totfact> 0.34435232E+02</totfact>
</mgrwt>
</event>
<event>
 4    1  0.6480558E-006  0.5019882E+03  0.7818608E-02  0.1013261E+00
         -1   -1    0    0    0  501 -0.00000000000E+00  0.00000000000E+00  0.35176174256E+02  0.35176174618E+02  0.50400000000E-02 0.  1.
          1   -1    0    0  501    0  0.00000000000E+00 -0.00000000000E+00 -0.17909290232E+04  0.17909290232E+04  0.50400000000E-02 0. -1.
    5000001    1    1    2    0    0  0.13593714126E+03 -0.28341415165E+02 -0.64452449413E+03  0.68869076204E+03  0.19900000000E+03 0.  0.
   -5000001    1    1    2    0    0 -0.13593714126E+03  0.28341415165E+02 -0.11112283548E+04  0.11374144358E+04  0.19900000000E+03 0.  0.
<mgrwt>
<rscale>  0 0.50198817E+03</rscale>
<asrwt>0</asrwt>
<pdfrwt beam="1">  1        1 0.25584695E+00 0.50198817E+03</pdfrwt>
<pdfrwt beam="2">  1       -1 0.50251689E-02 0.50198817E+03</pdfrwt>
<totfact> 0.96195479E+02</totfact>
</mgrwt>
</event>
<event>
 4    1  0.6480558E-006  0.5304442E+03  0.7818608E-02  0.1006124E+00
         -1   -1    0    0    0  501 -0.00000000000E+00  0.00000000000E+00  0.60702552036E+02  0.60702552245E+02  0.50400000000E-02 0. -1.
          1   -1    0    0  501    0  0.00000000000E+00 -0.00000000000E+00 -0.11588106789E+04  0.11588106789E+04  0.50400000000E-02 0.  1.
    5000001    1    1    2    0    0 -0.13811111390E+03 -0.10666777226E+03 -0.58814265293E+03  0.64495385387E+03  0.19900000000E+03 0.  0.
   -5000001    1    1    2    0    0  0.13811111390E+03  0.10666777226E+03 -0.50996547391E+03  0.57455937727E+03  0.19900000000E+03 0.  0.
<mgrwt>
<rscale>  0 0.53044421E+03</rscale>
<asrwt>0</asrwt>
<pdfrwt beam="1">  1        1 0.16554437E+00 0.53044421E+03</pdfrwt>
<pdfrwt beam="2">  1       -1 0.86717939E-02 0.53044421E+03</pdfrwt>
<totfact> 0.10602541E+03</totfact>
</mgrwt>
</event>
<event>
 4    1  0.6480558E-006  0.5229886E+03  0.7818608E-02  0.1007947E+00
          1   -1    0    0  501    0  0.00000000000E+00  0.00000000000E+00  0.23893042758E+03  0.23893042763E+03  0.50400000000E-02 0.  1.
         -1   -1    0    0    0  501 -0.00000000000E+00 -0.00000000000E+00 -0.28618904028E+03  0.28618904032E+03  0.50400000000E-02 0. -1.
    5000001    1    1    2    0    0 -0.11084391682E+03  0.11474239571E+03  0.34277837254E+02  0.25734832698E+03  0.19900000000E+03 0.  0.
   -5000001    1    1    2    0    0  0.11084391682E+03 -0.11474239571E+03 -0.81536449952E+02  0.26777114098E+03  0.19900000000E+03 0.  0.
<mgrwt>
<rscale>  0 0.52298860E+03</rscale>
<asrwt>0</asrwt>
<pdfrwt beam="1">  1        1 0.34132918E-01 0.52298860E+03</pdfrwt>
<pdfrwt beam="2">  1       -1 0.40884149E-01 0.52298860E+03</pdfrwt>
<totfact> 0.76461972E+02</totfact>
</mgrwt>
</event>
<event>
 4    1  0.6480558E-006  0.4938011E+03  0.7818608E-02  0.1015410E+00
         -1   -1    0    0    0  501 -0.00000000000E+00  0.00000000000E+00  0.56523853713E+02  0.56523853938E+02  0.50400000000E-02 0. -1.
          1   -1    0    0  501    0  0.00000000000E+00 -0.00000000000E+00 -0.10784805753E+04  0.10784805753E+04  0.50400000000E-02 0.  1.
    5000001    1    1    2    0    0 -0.25926487738E+02 -0.11514921091E+03 -0.70906838344E+03  0.74586224997E+03  0.19900000000E+03 0.  0.
   -5000001    1    1    2    0    0  0.25926487738E+02  0.11514921091E+03 -0.31288833812E+03  0.38914217925E+03  0.19900000000E+03 0.  0.
<mgrwt>
<rscale>  0 0.49380109E+03</rscale>
<asrwt>0</asrwt>
<pdfrwt beam="1">  1        1 0.15406864E+00 0.49380109E+03</pdfrwt>
<pdfrwt beam="2">  1       -1 0.80748369E-02 0.49380109E+03</pdfrwt>
<totfact> 0.13499748E+03</totfact>
</mgrwt>
</event>
<event>
 4    1  0.6480558E-006  0.8594781E+03  0.7818608E-02  0.9477703E-01
          1   -1    0    0  501    0  0.00000000000E+00  0.00000000000E+00  0.13050503584E+04  0.13050503584E+04  0.50400000000E-02 0. -1.
         -1   -1    0    0    0  501 -0.00000000000E+00 -0.00000000000E+00 -0.14150843270E+03  0.14150843279E+03  0.50400000000E-02 0.  1.
    5000001    1    1    2    0    0 -0.10607521024E+03  0.19266045762E+03  0.58381555836E+02  0.30229027146E+03  0.19900000000E+03 0.  0.
   -5000001    1    1    2    0    0  0.10607521024E+03 -0.19266045762E+03  0.11051603699E+04  0.11442685198E+04  0.19900000000E+03 0.  0.
<mgrwt>
<rscale>  0 0.85947805E+03</rscale>
<asrwt>0</asrwt>
<pdfrwt beam="1">  1        1 0.18643577E+00 0.85947805E+03</pdfrwt>
<pdfrwt beam="2">  1       -1 0.20215490E-01 0.85947805E+03</pdfrwt>
<totfact> 0.21202621E+02</totfact>
</mgrwt>
</event>
<event>
 4    1  0.6480558E-006  0.8131849E+03  0.7818608E-02  0.9541126E-01
         -1   -1    0    0    0  501 -0.00000000000E+00  0.00000000000E+00  0.63132941340E+03  0.63132941342E+03  0.50400000000E-02 0. -1.
          1   -1    0    0  501    0  0.00000000000E+00 -0.00000000000E+00 -0.26185601461E+03  0.26185601465E+03  0.50400000000E-02 0.  1.
    5000001    1    1    2    0    0 -0.73697039110E+02  0.32462931002E+03  0.31881530758E+03  0.50205541810E+03  0.19900000000E+03 0.  0.
   -5000001    1    1    2    0    0  0.73697039110E+02 -0.32462931002E+03  0.50658091212E+02  0.39113000997E+03  0.19900000000E+03 0.  0.
<mgrwt>
<rscale>  0 0.81318486E+03</rscale>
<asrwt>0</asrwt>
<pdfrwt beam="1">  1        1 0.37408002E-01 0.81318486E+03</pdfrwt>
<pdfrwt beam="2">  1       -1 0.90189917E-01 0.81318486E+03</pdfrwt>
<totfact> 0.14018248E+02</totfact>
</mgrwt>
</event>
<event>
 4    1  0.6480558E-006  0.5543714E+03  0.7818608E-02  0.1000487E+00
          1   -1    0    0  501    0  0.00000000000E+00  0.00000000000E+00  0.36003751861E+03  0.36003751865E+03  0.50400000000E-02 0. -1.
         -1   -1    0    0    0  501 -0.00000000000E+00 -0.00000000000E+00 -0.21339977287E+03  0.21339977293E+03  0.50400000000E-02 0.  1.
    5000001    1    1    2    0    0 -0.14010308815E+03 -0.38919009247E+02  0.20451695073E+03  0.32026824339E+03  0.19900000000E+03 0.  0.
   -5000001    1    1    2    0    0  0.14010308815E+03  0.38919009247E+02 -0.57879204983E+02  0.25316904819E+03  0.19900000000E+03 0.  0.
<mgrwt>
<rscale>  0 0.55437144E+03</rscale>
<asrwt>0</asrwt>
<pdfrwt beam="1">  1        1 0.51433930E-01 0.55437144E+03</pdfrwt>
<pdfrwt beam="2">  1       -1 0.30485682E-01 0.55437144E+03</pdfrwt>
<totfact> 0.75904246E+02</totfact>
</mgrwt>
</event>
<event>
 4    1  0.6480558E-006  0.5991771E+03  0.7818608E-02  0.9907115E-01
          1   -1    0    0  501    0  0.00000000000E+00  0.00000000000E+00  0.32183064210E+04  0.32183064210E+04  0.50400000000E-02 0. -1.
         -1   -1    0    0    0  501 -0.00000000000E+00 -0.00000000000E+00 -0.27888363530E+02  0.27888363986E+02  0.50400000000E-02 0.  1.
    5000001    1    1    2    0    0  0.90890165997E+02  0.14967302781E+03  0.23515490319E+04  0.23664418199E+04  0.19900000000E+03 0.  0.
   -5000001    1    1    2    0    0 -0.90890165997E+02 -0.14967302781E+03  0.83886902556E+03  0.87975296508E+03  0.19900000000E+03 0.  0.
<mgrwt>
<rscale>  0 0.59917710E+03</rscale>
<asrwt>0</asrwt>
<pdfrwt beam="1">  1        1 0.45975773E+00 0.59917710E+03</pdfrwt>
<pdfrwt beam="2">  1       -1 0.39840548E-02 0.59917710E+03</pdfrwt>
<totfact> 0.17225514E+02</totfact>
</mgrwt>
</event>
<event>
 4    1  0.6480558E-006  0.4891776E+03  0.7818608E-02  0.1016643E+00
         -1   -1    0    0    0  501 -0.00000000000E+00  0.00000000000E+00  0.35210409773E+02  0.35210410133E+02  0.50400000000E-02 0.  1.
          1   -1    0    0  501    0  0.00000000000E+00 -0.00000000000E+00 -0.16990342659E+04  0.16990342659E+04  0.50400000000E-02 0. -1.
    5000001    1    1    2    0    0 -0.65889281685E+02 -0.10192654076E+03 -0.10946481416E+04  0.11191898727E+04  0.19900000000E+03 0.  0.
   -5000001    1    1    2    0    0  0.65889281685E+02  0.10192654076E+03 -0.56917571446E+03  0.61505480332E+03  0.19900000000E+03 0.  0.
<mgrwt>
<rscale>  0 0.48917765E+03</rscale>
<asrwt>0</asrwt>
<pdfrwt beam="1">  1        1 0.24271913E+00 0.48917765E+03</pdfrwt>
<pdfrwt beam="2">  1       -1 0.50300596E-02 0.48917765E+03</pdfrwt>
<totfact> 0.10961244E+03</totfact>
</mgrwt>
</event>
<event>
 4    1  0.6480558E-006  0.7455948E+03  0.7818608E-02  0.9642287E-01
          1   -1    0    0  501    0  0.00000000000E+00  0.00000000000E+00  0.27175046421E+03  0.27175046426E+03  0.50400000000E-02 0. -1.
         -1   -1    0    0    0  501 -0.00000000000E+00 -0.00000000000E+00 -0.51141741192E+03  0.51141741194E+03  0.50400000000E-02 0.  1.
    5000001    1    1    2    0    0  0.18704395928E+03 -0.25088098250E+03 -0.15983414433E+03  0.40382504105E+03  0.19900000000E+03 0.  0.
   -5000001    1    1    2    0    0 -0.18704395928E+03  0.25088098250E+03 -0.79832803384E+02  0.37934283515E+03  0.19900000000E+03 0.  0.
<mgrwt>
<rscale>  0 0.74559485E+03</rscale>
<asrwt>0</asrwt>
<pdfrwt beam="1">  1        1 0.38821495E-01 0.74559485E+03</pdfrwt>
<pdfrwt beam="2">  1       -1 0.73059630E-01 0.74559485E+03</pdfrwt>
<totfact> 0.21007813E+02</totfact>
</mgrwt>
</event>
<event>
 4    1  0.6480558E-006  0.7026899E+03  0.7818608E-02  0.9712643E-01
          1   -1    0    0  501    0  0.00000000000E+00  0.00000000000E+00  0.10652002605E+04  0.10652002605E+04  0.50400000000E-02 0.  1.
         -1   -1    0    0    0  501 -0.00000000000E+00 -0.00000000000E+00 -0.11588739474E+03  0.11588739485E+03  0.50400000000E-02 0. -1.
    5000001    1    1    2    0    0  0.25778502010E+03 -0.11351830275E+03  0.58744312881E+03  0.68119743924E+03  0.19900000000E+03 0.  0.
   -5000001    1    1    2    0    0 -0.25778502010E+03  0.11351830275E+03  0.36186973690E+03  0.49989021608E+03  0.19900000000E+03 0.  0.
<mgrwt>
<rscale>  0 0.70268993E+03</rscale>
<asrwt>0</asrwt>
<pdfrwt beam="1">  1        1 0.15217147E+00 0.70268993E+03</pdfrwt>
<pdfrwt beam="2">  1       -1 0.16555342E-01 0.70268993E+03</pdfrwt>
<totfact> 0.43670226E+02</totfact>
</mgrwt>
</event>
<event>
 4    1  0.6480558E-006  0.7618122E+03  0.7818608E-02  0.9616999E-01
          1   -1    0    0  501    0  0.00000000000E+00  0.00000000000E+00  0.38128988359E+03  0.38128988363E+03  0.50400000000E-02 0.  1.
         -1   -1    0    0    0  501 -0.00000000000E+00 -0.00000000000E+00 -0.38052270837E+03  0.38052270840E+03  0.50400000000E-02 0. -1.
    5000001    1    1    2    0    0  0.22159655953E+03  0.23261251812E+03 -0.47311723804E+02  0.38085826496E+03  0.19900000000E+03 0.  0.
   -5000001    1    1    2    0    0 -0.22159655953E+03 -0.23261251812E+03  0.48078899030E+02  0.38095432707E+03  0.19900000000E+03 0.  0.
<mgrwt>
<rscale>  0 0.76181221E+03</rscale>
<asrwt>0</asrwt>
<pdfrwt beam="1">  1        1 0.54469983E-01 0.76181221E+03</pdfrwt>
<pdfrwt beam="2">  1       -1 0.54360387E-01 0.76181221E+03</pdfrwt>
<totfact> 0.24389189E+02</totfact>
</mgrwt>
</event>
<event>
 4    1  0.6480558E-006  0.9360365E+03  0.7818608E-02  0.9381622E-01
          1   -1    0    0  501    0  0.00000000000E+00  0.00000000000E+00  0.85494048854E+03  0.85494048855E+03  0.50400000000E-02 0.  1.
         -1   -1    0    0    0  501 -0.00000000000E+00 -0.00000000000E+00 -0.25620623886E+03  0.25620623891E+03  0.50400000000E-02 0. -1.
    5000001    1    1    2    0    0  0.69109027161E+02 -0.24329723514E+03  0.70274689798E+03  0.77293195359E+03  0.19900000000E+03 0.  0.
   -5000001    1    1    2    0    0 -0.69109027161E+02  0.24329723514E+03 -0.10401264830E+03  0.33821477387E+03  0.19900000000E+03 0.  0.
<mgrwt>
<rscale>  0 0.93603651E+03</rscale>
<asrwt>0</asrwt>
<pdfrwt beam="1">  1        1 0.12213435E+00 0.93603651E+03</pdfrwt>
<pdfrwt beam="2">  1       -1 0.36600892E-01 0.93603651E+03</pdfrwt>
<totfact> 0.16093554E+02</totfact>
</mgrwt>
</event>
<event>
 4    1  0.6480558E-006  0.9082963E+03  0.7818608E-02  0.9415270E-01
          1   -1    0    0  501    0  0.00000000000E+00  0.00000000000E+00  0.57902561410E+03  0.57902561413E+03  0.50400000000E-02 0.  1.
         -1   -1    0    0    0  501 -0.00000000000E+00 -0.00000000000E+00 -0.35620281427E+03  0.35620281430E+03  0.50400000000E-02 0. -1.
    5000001    1    1    2    0    0  0.52907354594E+02  0.33338863910E+03 -0.12496562315E+03  0.41129621906E+03  0.19900000000E+03 0.  0.
   -5000001    1    1    2    0    0 -0.52907354594E+02 -0.33338863910E+03  0.34778842298E+03  0.52393220936E+03  0.19900000000E+03 0.  0.
<mgrwt>
<rscale>  0 0.90829632E+03</rscale>
<asrwt>0</asrwt>
<pdfrwt beam="1">  1        1 0.82717944E-01 0.90829632E+03</pdfrwt>
<pdfrwt beam="2">  1       -1 0.50886117E-01 0.90829632E+03</pdfrwt>
<totfact> 0.15652581E+02</totfact>
</mgrwt>
</event>
<event>
 4    1  0.6480558E-006  0.5596372E+03  0.7818608E-02  0.9992876E-01
          1   -1    0    0  501    0  0.00000000000E+00  0.00000000000E+00  0.16805868781E+04  0.16805868781E+04  0.50400000000E-02 0.  1.
         -1   -1    0    0    0  501 -0.00000000000E+00 -0.00000000000E+00 -0.46589938560E+02  0.46589938833E+02  0.50400000000E-02 0. -1.
    5000001    1    1    2    0    0  0.17875382764E+03 -0.79359216998E+02  0.88222150375E+03  0.92529270931E+03  0.19900000000E+03 0.  0.
   -5000001    1    1    2    0    0 -0.17875382764E+03  0.79359216998E+02  0.75177543580E+03  0.80188410765E+03  0.19900000000E+03 0.  0.
<mgrwt>
<rscale>  0 0.55963717E+03</rscale>
<asrwt>0</asrwt>
<pdfrwt beam="1">  1        1 0.24008379E+00 0.55963717E+03</pdfrwt>
<pdfrwt beam="2">  1       -1 0.66557070E-02 0.55963717E+03</pdfrwt>
<totfact> 0.72995336E+02</totfact>
</mgrwt>
</event>
<event>
 4    1  0.6480558E-006  0.5038750E+03  0.7818608E-02  0.1012772E+00
         -1   -1    0    0    0  501 -0.00000000000E+00  0.00000000000E+00  0.56226637912E+03  0.56226637914E+03  0.50400000000E-02 0. -1.
          1   -1    0    0  501    0  0.00000000000E+00 -0.00000000000E+00 -0.11288687804E+03  0.11288687816E+03  0.50400000000E-02 0.  1.
    5000001    1    1    2    0    0 -0.61764502888E+02  0.12405454761E+03  0.31622822617E+03  0.39850429813E+03  0.19900000000E+03 0.  0.
   -5000001    1    1    2    0    0  0.61764502888E+02 -0.12405454761E+03  0.13315127491E+03  0.27664895917E+03  0.19900000000E+03 0.  0.
<mgrwt>
<rscale>  0 0.50387497E+03</rscale>
<asrwt>0</asrwt>
<pdfrwt beam="1">  1        1 0.16126697E-01 0.50387497E+03</pdfrwt>
<pdfrwt beam="2">  1       -1 0.80323768E-01 0.50387497E+03</pdfrwt>
<totfact> 0.54742445E+02</totfact>
</mgrwt>
</event>
<event>
 4    1  0.6480558E-006  0.4510427E+03  0.7818608E-02  0.1027412E+00
          1   -1    0    0  501    0  0.00000000000E+00  0.00000000000E+00  0.19416211831E+03  0.19416211837E+03  0.50400000000E-02 0.  1.
         -1   -1    0    0    0  501 -0.00000000000E+00 -0.00000000000E+00 -0.26194544931E+03  0.26194544936E+03  0.50400000000E-02 0. -1.
    5000001    1    1    2    0    0  0.44657053473E+02 -0.92285676462E+02 -0.62352430398E+01  0.22394369105E+03  0.19900000000E+03 0.  0.
   -5000001    1    1    2    0    0 -0.44657053473E+02  0.92285676462E+02 -0.61548087968E+02  0.23216387669E+03  0.19900000000E+03 0.  0.
<mgrwt>
<rscale>  0 0.45104272E+03</rscale>
<asrwt>0</asrwt>
<pdfrwt beam="1">  1        1 0.27737446E-01 0.45104272E+03</pdfrwt>
<pdfrwt beam="2">  1       -1 0.37420778E-01 0.45104272E+03</pdfrwt>
<totfact> 0.11702282E+03</totfact>
</mgrwt>
</event>
<event>
 4    1  0.6480558E-006  0.8215836E+03  0.7818608E-02  0.9529291E-01
         -1   -1    0    0    0  501 -0.00000000000E+00  0.00000000000E+00  0.10837842851E+04  0.10837842851E+04  0.50400000000E-02 0. -1.
          1   -1    0    0  501    0  0.00000000000E+00 -0.00000000000E+00 -0.15570432050E+03  0.15570432058E+03  0.50400000000E-02 0.  1.
    5000001    1    1    2    0    0 -0.43496889653E+02 -0.32826411046E+03  0.67471038608E+03  0.77748595531E+03  0.19900000000E+03 0.  0.
   -5000001    1    1    2    0    0  0.43496889653E+02  0.32826411046E+03  0.25336957850E+03  0.46200265035E+03  0.19900000000E+03 0.  0.
<mgrwt>
<rscale>  0 0.82158358E+03</rscale>
<asrwt>0</asrwt>
<pdfrwt beam="1">  1        1 0.22243474E-01 0.82158358E+03</pdfrwt>
<pdfrwt beam="2">  1       -1 0.15482633E+00 0.82158358E+03</pdfrwt>
<totfact> 0.73897866E+01</totfact>
</mgrwt>
</event>
<event>
 4    1  0.6480558E-006  0.6081010E+03  0.7818608E-02  0.9888740E-01
          1   -1    0    0  501    0  0.00000000000E+00  0.00000000000E+00  0.90770291373E+03  0.90770291374E+03  0.50400000000E-02 0.  1.
         -1   -1    0    0    0  501 -0.00000000000E+00 -0.00000000000E+00 -0.10184687212E+03  0.10184687225E+03  0.50400000000E-02 0. -1.
    5000001    1    1    2    0    0 -0.46040920121E+02 -0.22147753077E+03  0.33501031369E+03  0.45056073202E+03  0.19900000000E+03 0.  0.
   -5000001    1    1    2    0    0  0.46040920121E+02  0.22147753077E+03  0.47084572792E+03  0.55898905397E+03  0.19900000000E+03 0.  0.
<mgrwt>
<rscale>  0 0.60810099E+03</rscale>
<asrwt>0</asrwt>
<pdfrwt beam="1">  1        1 0.12967184E+00 0.60810099E+03</pdfrwt>
<pdfrwt beam="2">  1       -1 0.14549553E-01 0.60810099E+03</pdfrwt>
<totfact> 0.70919276E+02</totfact>
</mgrwt>
</event>
<event>
 4    1  0.6480558E-006  0.6934987E+03  0.7818608E-02  0.9728415E-01
          1   -1    0    0  501    0  0.00000000000E+00  0.00000000000E+00  0.20550699196E+03  0.20550699202E+03  0.50400000000E-02 0.  1.
         -1   -1    0    0    0  501 -0.00000000000E+00 -0.00000000000E+00 -0.58506587809E+03  0.58506587812E+03  0.50400000000E-02 0. -1.
    5000001    1    1    2    0    0  0.91525234384E+02  0.22290578818E+03 -0.36104285822E+03  0.47751105160E+03  0.19900000000E+03 0.  0.
   -5000001    1    1    2    0    0 -0.91525234384E+02 -0.22290578818E+03 -0.18516027916E+02  0.31306181853E+03  0.19900000000E+03 0.  0.
<mgrwt>
<rscale>  0 0.69349875E+03</rscale>
<asrwt>0</asrwt>
<pdfrwt beam="1">  1        1 0.29358142E-01 0.69349875E+03</pdfrwt>
<pdfrwt beam="2">  1       -1 0.83580839E-01 0.69349875E+03</pdfrwt>
<totfact> 0.22768876E+02</totfact>
</mgrwt>
</event>
<event>
 4    1  0.6480558E-006  0.8371467E+03  0.7818608E-02  0.9507752E-01
          1   -1    0    0  501    0  0.00000000000E+00  0.00000000000E+00  0.35131567761E+03  0.35131567765E+03  0.50400000000E-02 0.  1.
         -1   -1    0    0    0  501 -0.00000000000E+00 -0.00000000000E+00 -0.49870722654E+03  0.49870722657E+03  0.50400000000E-02 0. -1.
    5000001    1    1    2    0    0 -0.15926390080E+03  0.13462584550E+03  0.23447455116E+03  0.37157559596E+03  0.19900000000E+03 0.  0.
   -5000001    1    1    2    0    0  0.15926390080E+03 -0.13462584550E+03 -0.38186610009E+03  0.47844730825E+03  0.19900000000E+03 0.  0.
<mgrwt>
<rscale>  0 0.83714674E+03</rscale>
<asrwt>0</asrwt>
<pdfrwt beam="1">  1        1 0.50187954E-01 0.83714674E+03</pdfrwt>
<pdfrwt beam="2">  1       -1 0.71243889E-01 0.83714674E+03</pdfrwt>
<totfact> 0.15791866E+02</totfact>
</mgrwt>
</event>
<event>
 4    1  0.6480558E-006  0.8511022E+03  0.7818608E-02  0.9488859E-01
          1   -1    0    0  501    0  0.00000000000E+00  0.00000000000E+00  0.57750060802E+03  0.57750060804E+03  0.50400000000E-02 0.  1.
         -1   -1    0    0    0  501 -0.00000000000E+00 -0.00000000000E+00 -0.31358193010E+03  0.31358193014E+03  0.50400000000E-02 0. -1.
    5000001    1    1    2    0    0 -0.19805886936E+03 -0.27493240178E+03  0.30296468701E+03  0.49618922082E+03  0.19900000000E+03 0.  0.
   -5000001    1    1    2    0    0  0.19805886936E+03  0.27493240178E+03 -0.39046009088E+02  0.39489331737E+03  0.19900000000E+03 0.  0.
<mgrwt>
<rscale>  0 0.85110224E+03</rscale>
<asrwt>0</asrwt>
<pdfrwt beam="1">  1        1 0.82500087E-01 0.85110224E+03</pdfrwt>
<pdfrwt beam="2">  1       -1 0.44797419E-01 0.85110224E+03</pdfrwt>
<totfact> 0.20024694E+02</totfact>
</mgrwt>
</event>
<event>
 4    1  0.6480558E-006  0.6653013E+03  0.7818608E-02  0.9778484E-01
         -1   -1    0    0    0  501 -0.00000000000E+00  0.00000000000E+00  0.13942692470E+03  0.13942692479E+03  0.50400000000E-02 0. -1.
          1   -1    0    0  501    0  0.00000000000E+00 -0.00000000000E+00 -0.79365195210E+03  0.79365195211E+03  0.50400000000E-02 0.  1.
    5000001    1    1    2    0    0  0.97414068617E+02 -0.15294466972E+03 -0.53091962452E+02  0.27441087667E+03  0.19900000000E+03 0.  0.
   -5000001    1    1    2    0    0 -0.97414068617E+02  0.15294466972E+03 -0.60113306494E+03  0.65866800023E+03  0.19900000000E+03 0.  0.
<mgrwt>
<rscale>  0 0.66530129E+03</rscale>
<asrwt>0</asrwt>
<pdfrwt beam="1">  1        1 0.11337885E+00 0.66530129E+03</pdfrwt>
<pdfrwt beam="2">  1       -1 0.19918132E-01 0.66530129E+03</pdfrwt>
<totfact> 0.52297404E+02</totfact>
</mgrwt>
</event>
<event>
 4    1  0.6480558E-006  0.5055656E+03  0.7818608E-02  0.1012336E+00
          1   -1    0    0  501    0  0.00000000000E+00  0.00000000000E+00  0.42716106209E+03  0.42716106211E+03  0.50400000000E-02 0. -1.
         -1   -1    0    0    0  501 -0.00000000000E+00 -0.00000000000E+00 -0.14959025983E+03  0.14959025991E+03  0.50400000000E-02 0.  1.
    5000001    1    1    2    0    0 -0.14903400649E+03 -0.34862699850E+02  0.17246505161E+03  0.30458453171E+03  0.19900000000E+03 0.  0.
   -5000001    1    1    2    0    0  0.14903400649E+03  0.34862699850E+02  0.10510575065E+03  0.27216679032E+03  0.19900000000E+03 0.  0.
<mgrwt>
<rscale>  0 0.50556556E+03</rscale>
<asrwt>0</asrwt>
<pdfrwt beam="1">  1        1 0.61023009E-01 0.50556556E+03</pdfrwt>
<pdfrwt beam="2">  1       -1 0.21370037E-01 0.50556556E+03</pdfrwt>
<totfact> 0.11112320E+03</totfact>
</mgrwt>
</event>
<event>
 4    1  0.6480558E-006  0.6251365E+03  0.7818608E-02  0.9854586E-01
          1   -1    0    0  501    0  0.00000000000E+00  0.00000000000E+00  0.80967545151E+03  0.80967545153E+03  0.50400000000E-02 0.  1.
         -1   -1    0    0    0  501 -0.00000000000E+00 -0.00000000000E+00 -0.12066430328E+03  0.12066430339E+03  0.50400000000E-02 0. -1.
    5000001    1    1    2    0    0  0.22539857808E+03 -0.39526668837E+02  0.45716919533E+03  0.54860874010E+03  0.19900000000E+03 0.  0.
   -5000001    1    1    2    0    0 -0.22539857808E+03  0.39526668837E+02  0.23184195290E+03  0.38173101482E+03  0.19900000000E+03 0.  0.
<mgrwt>
<rscale>  0 0.62513654E+03</rscale>
<asrwt>0</asrwt>
<pdfrwt beam="1">  1        1 0.11566792E+00 0.62513654E+03</pdfrwt>
<pdfrwt beam="2">  1       -1 0.17237758E-01 0.62513654E+03</pdfrwt>
<totfact> 0.64458932E+02</totfact>
</mgrwt>
</event>
<event>
 4    1  0.6480558E-006  0.4217617E+03  0.7818608E-02  0.1036494E+00
          1   -1    0    0  501    0  0.00000000000E+00  0.00000000000E+00  0.45947354723E+02  0.45947355000E+02  0.50400000000E-02 0.  1.
         -1   -1    0    0    0  501 -0.00000000000E+00 -0.00000000000E+00 -0.96786291001E+03  0.96786291002E+03  0.50400000000E-02 0. -1.
    5000001    1    1    2    0    0  0.88797297760E+01  0.64401366717E+02 -0.52192758665E+03  0.56234846078E+03  0.19900000000E+03 0.  0.
   -5000001    1    1    2    0    0 -0.88797297760E+01 -0.64401366717E+02 -0.39998796864E+03  0.45146180424E+03  0.19900000000E+03 0.  0.
<mgrwt>
<rscale>  0 0.42176174E+03</rscale>
<asrwt>0</asrwt>
<pdfrwt beam="1">  1        1 0.65639085E-02 0.42176174E+03</pdfrwt>
<pdfrwt beam="2">  1       -1 0.13826612E+00 0.42176174E+03</pdfrwt>
<totfact> 0.53263022E+02</totfact>
</mgrwt>
</event>
<event>
 4    1  0.6480558E-006  0.2039019E+04  0.7818608E-02  0.8588592E-01
         -1   -1    0    0    0  501 -0.00000000000E+00  0.00000000000E+00  0.72031190146E+03  0.72031190147E+03  0.50400000000E-02 0. -1.
          1   -1    0    0  501    0  0.00000000000E+00 -0.00000000000E+00 -0.14429858594E+04  0.14429858594E+04  0.50400000000E-02 0.  1.
    5000001    1    1    2    0    0 -0.93504315594E+03 -0.25593389503E+03 -0.10147776689E+03  0.99483998677E+03  0.19900000000E+03 0.  0.
   -5000001    1    1    2    0    0  0.93504315594E+03  0.25593389503E+03 -0.62119619105E+03  0.11684577741E+04  0.19900000000E+03 0.  0.
<mgrwt>
<rscale>  0 0.20390193E+04</rscale>
<asrwt>0</asrwt>
<pdfrwt beam="1">  1        1 0.20614084E+00 0.20390193E+04</pdfrwt>
<pdfrwt beam="2">  1       -1 0.10290170E+00 0.20390193E+04</pdfrwt>
<totfact> 0.70206508E+00</totfact>
</mgrwt>
</event>
<event>
 4    1  0.6480558E-006  0.5625195E+03  0.7818608E-02  0.9986370E-01
         -1   -1    0    0    0  501 -0.00000000000E+00  0.00000000000E+00  0.10511145701E+04  0.10511145701E+04  0.50400000000E-02 0. -1.
          1   -1    0    0  501    0  0.00000000000E+00 -0.00000000000E+00 -0.75260166055E+02  0.75260166224E+02  0.50400000000E-02 0.  1.
    5000001    1    1    2    0    0  0.14985695028E+02  0.18306571007E+03  0.33584647604E+03  0.43142957795E+03  0.19900000000E+03 0.  0.
   -5000001    1    1    2    0    0 -0.14985695028E+02 -0.18306571007E+03  0.64000792797E+03  0.69494515836E+03  0.19900000000E+03 0.  0.
<mgrwt>
<rscale>  0 0.56251954E+03</rscale>
<asrwt>0</asrwt>
<pdfrwt beam="1">  1        1 0.10751452E-01 0.56251954E+03</pdfrwt>
<pdfrwt beam="2">  1       -1 0.15015922E+00 0.56251954E+03</pdfrwt>
<totfact> 0.21627891E+02</totfact>
</mgrwt>
</event>
<event>
 4    1  0.6480558E-006  0.1278144E+04  0.7818608E-02  0.9047079E-01
          1   -1    0    0  501    0  0.00000000000E+00  0.00000000000E+00  0.11638642734E+04  0.11638642734E+04  0.50400000000E-02 0. -1.
         -1   -1    0    0    0  501 -0.00000000000E+00 -0.00000000000E+00 -0.35091145570E+03  0.35091145574E+03  0.50400000000E-02 0.  1.
    5000001    1    1    2    0    0  0.46975204331E+03  0.80109327376E+02  0.85264187685E+03  0.99683682550E+03  0.19900000000E+03 0.  0.
   -5000001    1    1    2    0    0 -0.46975204331E+03 -0.80109327376E+02 -0.39689059123E+02  0.51793890367E+03  0.19900000000E+03 0.  0.
<mgrwt>
<rscale>  0 0.12781444E+04</rscale>
<asrwt>0</asrwt>
<pdfrwt beam="1">  1        1 0.16626632E+00 0.12781444E+04</pdfrwt>
<pdfrwt beam="2">  1       -1 0.50130208E-01 0.12781444E+04</pdfrwt>
<totfact> 0.51582854E+01</totfact>
</mgrwt>
</event>
<event>
 4    1  0.6480558E-006  0.5470347E+03  0.7818608E-02  0.1002183E+00
         -1   -1    0    0    0  501 -0.00000000000E+00  0.00000000000E+00  0.67774662013E+03  0.67774662015E+03  0.50400000000E-02 0. -1.
          1   -1    0    0  501    0  0.00000000000E+00 -0.00000000000E+00 -0.11038306478E+03  0.11038306489E+03  0.50400000000E-02 0.  1.
    5000001    1    1    2    0    0  0.10946633668E+03  0.15438589724E+01  0.64115723183E+02  0.23600230576E+03  0.19900000000E+03 0.  0.
   -5000001    1    1    2    0    0 -0.10946633668E+03 -0.15438589724E+01  0.50324783217E+03  0.55212737928E+03  0.19900000000E+03 0.  0.
<mgrwt>
<rscale>  0 0.54703473E+03</rscale>
<asrwt>0</asrwt>
<pdfrwt beam="1">  1        1 0.15769009E-01 0.54703473E+03</pdfrwt>
<pdfrwt beam="2">  1       -1 0.96820948E-01 0.54703473E+03</pdfrwt>
<totfact> 0.37561440E+02</totfact>
</mgrwt>
</event>
<event>
 4    1  0.6480558E-006  0.1313582E+04  0.7818608E-02  0.9018863E-01
         -1   -1    0    0    0  501 -0.00000000000E+00  0.00000000000E+00  0.15722364360E+03  0.15722364368E+03  0.50400000000E-02 0. -1.
          1   -1    0    0  501    0  0.00000000000E+00 -0.00000000000E+00 -0.27437003484E+04  0.27437003484E+04  0.50400000000E-02 0.  1.
    5000001    1    1    2    0    0 -0.12657470986E+03 -0.61139438619E+03 -0.11957349212E+04  0.13635275041E+04  0.19900000000E+03 0.  0.
   -5000001    1    1    2    0    0  0.12657470986E+03  0.61139438619E+03 -0.13907417835E+04  0.15373964879E+04  0.19900000000E+03 0.  0.
<mgrwt>
<rscale>  0 0.13135822E+04</rscale>
<asrwt>0</asrwt>
<pdfrwt beam="1">  1        1 0.39195716E+00 0.13135822E+04</pdfrwt>
<pdfrwt beam="2">  1       -1 0.22460522E-01 0.13135822E+04</pdfrwt>
<totfact> 0.20834425E+01</totfact>
</mgrwt>
</event>
<event>
 4    1  0.6480558E-006  0.8021662E+03  0.7818608E-02  0.9556887E-01
         -1   -1    0    0    0  501 -0.00000000000E+00  0.00000000000E+00  0.28792834252E+03  0.28792834257E+03  0.50400000000E-02 0.  1.
          1   -1    0    0  501    0  0.00000000000E+00 -0.00000000000E+00 -0.55870720024E+03  0.55870720026E+03  0.50400000000E-02 0. -1.
    5000001    1    1    2    0    0  0.34341825586E+03 -0.57362801283E+02 -0.14206865995E+03  0.42545398526E+03  0.19900000000E+03 0.  0.
   -5000001    1    1    2    0    0 -0.34341825586E+03  0.57362801283E+02 -0.12871019777E+03  0.42118155757E+03  0.19900000000E+03 0.  0.
<mgrwt>
<rscale>  0 0.80216616E+03</rscale>
<asrwt>0</asrwt>
<pdfrwt beam="1">  1        1 0.79815314E-01 0.80216616E+03</pdfrwt>
<pdfrwt beam="2">  1       -1 0.41132621E-01 0.80216616E+03</pdfrwt>
<totfact> 0.24598654E+02</totfact>
</mgrwt>
</event>
<event>
 4    1  0.6480558E-006  0.7058029E+03  0.7818608E-02  0.9707360E-01
          1   -1    0    0  501    0  0.00000000000E+00  0.00000000000E+00  0.42895675662E+03  0.42895675665E+03  0.50400000000E-02 0. -1.
         -1   -1    0    0    0  501 -0.00000000000E+00 -0.00000000000E+00 -0.29033101036E+03  0.29033101040E+03  0.50400000000E-02 0.  1.
    5000001    1    1    2    0    0 -0.28538118637E+03  0.22375356163E+02  0.12508850283E+03  0.37039332018E+03  0.19900000000E+03 0.  0.
   -5000001    1    1    2    0    0  0.28538118637E+03 -0.22375356163E+02  0.13537243428E+02  0.34889444687E+03  0.19900000000E+03 0.  0.
<mgrwt>
<rscale>  0 0.70580294E+03</rscale>
<asrwt>0</asrwt>
<pdfrwt beam="1">  1        1 0.61279537E-01 0.70580294E+03</pdfrwt>
<pdfrwt beam="2">  1       -1 0.41475859E-01 0.70580294E+03</pdfrwt>
<totfact> 0.34763533E+02</totfact>
</mgrwt>
</event>
<event>
 4    1  0.6480558E-006  0.5514373E+03  0.7818608E-02  0.1001162E+00
          1   -1    0    0  501    0  0.00000000000E+00  0.00000000000E+00  0.25885928031E+04  0.25885928031E+04  0.50400000000E-02 0.  1.
         -1   -1    0    0    0  501 -0.00000000000E+00 -0.00000000000E+00 -0.29367602307E+02  0.29367602740E+02  0.50400000000E-02 0. -1.
    5000001    1    1    2    0    0 -0.15761918634E+02 -0.14651408506E+03  0.18553159128E+04  0.18717673337E+04  0.19900000000E+03 0.  0.
   -5000001    1    1    2    0    0  0.15761918634E+02  0.14651408506E+03  0.70390928800E+03  0.74619307215E+03  0.19900000000E+03 0.  0.
<mgrwt>
<rscale>  0 0.55143727E+03</rscale>
<asrwt>0</asrwt>
<pdfrwt beam="1">  1        1 0.36979874E+00 0.55143727E+03</pdfrwt>
<pdfrwt beam="2">  1       -1 0.41953744E-02 0.55143727E+03</pdfrwt>
<totfact> 0.40574645E+02</totfact>
</mgrwt>
</event>
<event>
 4    1  0.6480558E-006  0.1420567E+04  0.7818608E-02  0.8939064E-01
         -1   -1    0    0    0  501 -0.00000000000E+00  0.00000000000E+00  0.51994337269E+03  0.51994337272E+03  0.50400000000E-02 0. -1.
          1   -1    0    0  501    0  0.00000000000E+00 -0.00000000000E+00 -0.97030284225E+03  0.97030284227E+03  0.50400000000E-02 0.  1.
    5000001    1    1    2    0    0  0.49474524681E+03 -0.39509607570E+03 -0.49062838697E+03  0.82534294834E+03  0.19900000000E+03 0.  0.
   -5000001    1    1    2    0    0 -0.49474524681E+03  0.39509607570E+03  0.40268917408E+02  0.66490326664E+03  0.19900000000E+03 0.  0.
<mgrwt>
<rscale>  0 0.14205668E+04</rscale>
<asrwt>0</asrwt>
<pdfrwt beam="1">  1        1 0.13861469E+00 0.14205668E+04</pdfrwt>
<pdfrwt beam="2">  1       -1 0.74277625E-01 0.14205668E+04</pdfrwt>
<totfact> 0.32335156E+01</totfact>
</mgrwt>
</event>
<event>
 4    1  0.6480558E-006  0.6872480E+03  0.7818608E-02  0.9739292E-01
          1   -1    0    0  501    0  0.00000000000E+00  0.00000000000E+00  0.11235538920E+04  0.11235538920E+04  0.50400000000E-02 0. -1.
         -1   -1    0    0    0  501 -0.00000000000E+00 -0.00000000000E+00 -0.10509282736E+03  0.10509282748E+03  0.50400000000E-02 0.  1.
    5000001    1    1    2    0    0  0.21603086827E+03  0.15740986801E+03  0.35934210076E+03  0.49007647156E+03  0.19900000000E+03 0.  0.
   -5000001    1    1    2    0    0 -0.21603086827E+03 -0.15740986801E+03  0.65911896391E+03  0.73857024796E+03  0.19900000000E+03 0.  0.
<mgrwt>
<rscale>  0 0.68724801E+03</rscale>
<asrwt>0</asrwt>
<pdfrwt beam="1">  1        1 0.16050769E+00 0.68724801E+03</pdfrwt>
<pdfrwt beam="2">  1       -1 0.15013262E-01 0.68724801E+03</pdfrwt>
<totfact> 0.46569122E+02</totfact>
</mgrwt>
</event>
<event>
 4    1  0.6480558E-006  0.5839819E+03  0.7818608E-02  0.9939207E-01
         -1   -1    0    0    0  501 -0.00000000000E+00  0.00000000000E+00  0.32513499598E+03  0.32513499601E+03  0.50400000000E-02 0. -1.
          1   -1    0    0  501    0  0.00000000000E+00 -0.00000000000E+00 -0.26222557521E+03  0.26222557526E+03  0.50400000000E-02 0.  1.
    5000001    1    1    2    0    0  0.20391372964E+03 -0.21888855319E+02  0.91783238283E+02  0.30014178975E+03  0.19900000000E+03 0.  0.
   -5000001    1    1    2    0    0 -0.20391372964E+03  0.21888855319E+02 -0.28873817516E+02  0.28721878152E+03  0.19900000000E+03 0.  0.
<mgrwt>
<rscale>  0 0.58398189E+03</rscale>
<asrwt>0</asrwt>
<pdfrwt beam="1">  1        1 0.37460796E-01 0.58398189E+03</pdfrwt>
<pdfrwt beam="2">  1       -1 0.46447857E-01 0.58398189E+03</pdfrwt>
<totfact> 0.53632638E+02</totfact>
</mgrwt>
</event>
<event>
 4    1  0.6480558E-006  0.7175521E+03  0.7818608E-02  0.9687678E-01
         -1   -1    0    0    0  501 -0.00000000000E+00  0.00000000000E+00  0.35918663919E+03  0.35918663922E+03  0.50400000000E-02 0. -1.
          1   -1    0    0  501    0  0.00000000000E+00 -0.00000000000E+00 -0.35836597656E+03  0.35836597660E+03  0.50400000000E-02 0.  1.
    5000001    1    1    2    0    0  0.20561492954E+03 -0.21408458228E+03 -0.31363312602E+02  0.35873996850E+03  0.19900000000E+03 0.  0.
   -5000001    1    1    2    0    0 -0.20561492954E+03  0.21408458228E+03  0.32183975224E+02  0.35881264733E+03  0.19900000000E+03 0.  0.
<mgrwt>
<rscale>  0 0.71755215E+03</rscale>
<asrwt>0</asrwt>
<pdfrwt beam="1">  1        1 0.51195139E-01 0.71755215E+03</pdfrwt>
<pdfrwt beam="2">  1       -1 0.51312377E-01 0.71755215E+03</pdfrwt>
<totfact> 0.29587966E+02</totfact>
</mgrwt>
</event>
<event>
 4    1  0.6480558E-006  0.6060064E+03  0.7818608E-02  0.9893022E-01
          1   -1    0    0  501    0  0.00000000000E+00  0.00000000000E+00  0.36533677607E+03  0.36533677611E+03  0.50400000000E-02 0. -1.
         -1   -1    0    0    0  501 -0.00000000000E+00 -0.00000000000E+00 -0.25130496310E+03  0.25130496315E+03  0.50400000000E-02 0.  1.
    5000001    1    1    2    0    0  0.21896705139E+03  0.65246322674E+02  0.54463328942E+02  0.30784883696E+03  0.19900000000E+03 0.  0.
   -5000001    1    1    2    0    0 -0.21896705139E+03 -0.65246322674E+02  0.59568484035E+02  0.30879290229E+03  0.19900000000E+03 0.  0.
<mgrwt>
<rscale>  0 0.60600642E+03</rscale>
<asrwt>0</asrwt>
<pdfrwt beam="1">  1        1 0.52190968E-01 0.60600642E+03</pdfrwt>
<pdfrwt beam="2">  1       -1 0.35900709E-01 0.60600642E+03</pdfrwt>
<totfact> 0.55823249E+02</totfact>
</mgrwt>
</event>
<event>
 4    1  0.6480558E-006  0.5770101E+03  0.7818608E-02  0.9954285E-01
          1   -1    0    0  501    0  0.00000000000E+00  0.00000000000E+00  0.18171535581E+03  0.18171535588E+03  0.50400000000E-02 0. -1.
         -1   -1    0    0    0  501 -0.00000000000E+00 -0.00000000000E+00 -0.45805247200E+03  0.45805247203E+03  0.50400000000E-02 0.  1.
    5000001    1    1    2    0    0 -0.20134297997E+03 -0.44931363836E+02 -0.17454453822E+03  0.33559591604E+03  0.19900000000E+03 0.  0.
   -5000001    1    1    2    0    0  0.20134297997E+03  0.44931363836E+02 -0.10179257797E+03  0.30417191187E+03  0.19900000000E+03 0.  0.
<mgrwt>
<rscale>  0 0.57701011E+03</rscale>
<asrwt>0</asrwt>
<pdfrwt beam="1">  1        1 0.25959337E-01 0.57701011E+03</pdfrwt>
<pdfrwt beam="2">  1       -1 0.65436067E-01 0.57701011E+03</pdfrwt>
<totfact> 0.44520372E+02</totfact>
</mgrwt>
</event>
<event>
 4    1  0.6480558E-006  0.8768996E+03  0.7818608E-02  0.9454928E-01
         -1   -1    0    0    0  501 -0.00000000000E+00  0.00000000000E+00  0.49517858028E+03  0.49517858031E+03  0.50400000000E-02 0. -1.
          1   -1    0    0  501    0  0.00000000000E+00 -0.00000000000E+00 -0.38821998902E+03  0.38821998906E+03  0.50400000000E-02 0.  1.
    5000001    1    1    2    0    0 -0.61880543334E+02  0.30243954476E+03 -0.18774963630E+03  0.41249218879E+03  0.19900000000E+03 0.  0.
   -5000001    1    1    2    0    0  0.61880543334E+02 -0.30243954476E+03  0.29470822756E+03  0.47090638058E+03  0.19900000000E+03 0.  0.
<mgrwt>
<rscale>  0 0.87689959E+03</rscale>
<asrwt>0</asrwt>
<pdfrwt beam="1">  1        1 0.55459998E-01 0.87689959E+03</pdfrwt>
<pdfrwt beam="2">  1       -1 0.70739797E-01 0.87689959E+03</pdfrwt>
<totfact> 0.14030874E+02</totfact>
</mgrwt>
</event>
<event>
 4    1  0.6480558E-006  0.4337337E+03  0.7818608E-02  0.1032687E+00
         -1   -1    0    0    0  501 -0.00000000000E+00  0.00000000000E+00  0.85918031242E+02  0.85918031390E+02  0.50400000000E-02 0. -1.
          1   -1    0    0  501    0  0.00000000000E+00 -0.00000000000E+00 -0.54739646235E+03  0.54739646237E+03  0.50400000000E-02 0.  1.
    5000001    1    1    2    0    0  0.52155487732E+02  0.85268727020E+01 -0.13130634041E+03  0.24420331179E+03  0.19900000000E+03 0.  0.
   -5000001    1    1    2    0    0 -0.52155487732E+02 -0.85268727020E+01 -0.33017209070E+03  0.38911118197E+03  0.19900000000E+03 0.  0.
<mgrwt>
<rscale>  0 0.43373368E+03</rscale>
<asrwt>0</asrwt>
<pdfrwt beam="1">  1        1 0.78199493E-01 0.43373368E+03</pdfrwt>
<pdfrwt beam="2">  1       -1 0.12274005E-01 0.43373368E+03</pdfrwt>
<totfact> 0.19622067E+03</totfact>
</mgrwt>
</event>
<event>
 4    1  0.6480558E-006  0.4636426E+03  0.7818608E-02  0.1023730E+00
         -1   -1    0    0    0  501 -0.00000000000E+00  0.00000000000E+00  0.67488257710E+03  0.67488257712E+03  0.50400000000E-02 0. -1.
          1   -1    0    0  501    0  0.00000000000E+00 -0.00000000000E+00 -0.79630320522E+02  0.79630320681E+02  0.50400000000E-02 0.  1.
    5000001    1    1    2    0    0  0.77927188573E+02  0.24724631505E+02  0.15710520455E+03  0.26639632020E+03  0.19900000000E+03 0.  0.
   -5000001    1    1    2    0    0 -0.77927188573E+02 -0.24724631505E+02  0.43814705203E+03  0.48811657760E+03  0.19900000000E+03 0.  0.
<mgrwt>
<rscale>  0 0.46364260E+03</rscale>
<asrwt>0</asrwt>
<pdfrwt beam="1">  1        1 0.11375760E-01 0.46364260E+03</pdfrwt>
<pdfrwt beam="2">  1       -1 0.96411798E-01 0.46364260E+03</pdfrwt>
<totfact> 0.58965205E+02</totfact>
</mgrwt>
</event>
<event>
 4    1  0.6480558E-006  0.6424957E+03  0.7818608E-02  0.9820963E-01
         -1   -1    0    0    0  501 -0.00000000000E+00  0.00000000000E+00  0.25663922936E+02  0.25663923431E+02  0.50400000000E-02 0. -1.
          1   -1    0    0  501    0  0.00000000000E+00 -0.00000000000E+00 -0.40212166987E+04  0.40212166988E+04  0.50400000000E-02 0.  1.
    5000001    1    1    2    0    0 -0.89579653933E+02 -0.17326162585E+03 -0.99087056509E+03  0.10293053882E+04  0.19900000000E+03 0.  0.
   -5000001    1    1    2    0    0  0.89579653933E+02  0.17326162585E+03 -0.30046822107E+04  0.30175752340E+04  0.19900000000E+03 0.  0.
<mgrwt>
<rscale>  0 0.64249575E+03</rscale>
<asrwt>0</asrwt>
<pdfrwt beam="1">  1        1 0.57445913E+00 0.64249575E+03</pdfrwt>
<pdfrwt beam="2">  1       -1 0.36662773E-02 0.64249575E+03</pdfrwt>
<totfact> 0.53171476E+01</totfact>
</mgrwt>
</event>
<event>
 4    1  0.6480558E-006  0.4944873E+03  0.7818608E-02  0.1015228E+00
         -1   -1    0    0    0  501 -0.00000000000E+00  0.00000000000E+00  0.10689259703E+03  0.10689259715E+03  0.50400000000E-02 0. -1.
          1   -1    0    0  501    0  0.00000000000E+00 -0.00000000000E+00 -0.57187696377E+03  0.57187696379E+03  0.50400000000E-02 0.  1.
    5000001    1    1    2    0    0  0.12017451324E+03  0.73982524949E+02 -0.17736116155E+03  0.30161781986E+03  0.19900000000E+03 0.  0.
   -5000001    1    1    2    0    0 -0.12017451324E+03 -0.73982524949E+02 -0.28762320520E+03  0.37715174108E+03  0.19900000000E+03 0.  0.
<mgrwt>
<rscale>  0 0.49448727E+03</rscale>
<asrwt>0</asrwt>
<pdfrwt beam="1">  1        1 0.81696707E-01 0.49448727E+03</pdfrwt>
<pdfrwt beam="2">  1       -1 0.15270371E-01 0.49448727E+03</pdfrwt>
<totfact> 0.13038812E+03</totfact>
</mgrwt>
</event>
<event>
 4    1  0.6480558E-006  0.4572368E+03  0.7818608E-02  0.1025586E+00
         -1   -1    0    0    0  501 -0.00000000000E+00  0.00000000000E+00  0.11733960830E+03  0.11733960841E+03  0.50400000000E-02 0. -1.
          1   -1    0    0  501    0  0.00000000000E+00 -0.00000000000E+00 -0.44542816042E+03  0.44542816045E+03  0.50400000000E-02 0.  1.
    5000001    1    1    2    0    0  0.10133403673E+03 -0.48750206818E+02 -0.15851302482E+03  0.27815921466E+03  0.19900000000E+03 0.  0.
   -5000001    1    1    2    0    0 -0.10133403673E+03  0.48750206818E+02 -0.16957552730E+03  0.28460855420E+03  0.19900000000E+03 0.  0.
<mgrwt>
<rscale>  0 0.45723677E+03</rscale>
<asrwt>0</asrwt>
<pdfrwt beam="1">  1        1 0.63632594E-01 0.45723677E+03</pdfrwt>
<pdfrwt beam="2">  1       -1 0.16762801E-01 0.45723677E+03</pdfrwt>
<totfact> 0.15672155E+03</totfact>
</mgrwt>
</event>
<event>
 4    1  0.6480558E-006  0.7440316E+03  0.7818608E-02  0.9644761E-01
          1   -1    0    0  501    0  0.00000000000E+00  0.00000000000E+00  0.47794959510E+03  0.47794959513E+03  0.50400000000E-02 0.  1.
         -1   -1    0    0    0  501 -0.00000000000E+00 -0.00000000000E+00 -0.28956142189E+03  0.28956142193E+03  0.50400000000E-02 0. -1.
    5000001    1    1    2    0    0  0.18022584404E+03 -0.24978021965E+03  0.15880654889E+03  0.39961485578E+03  0.19900000000E+03 0.  0.
   -5000001    1    1    2    0    0 -0.18022584404E+03  0.24978021965E+03  0.29581624319E+02  0.36789616128E+03  0.19900000000E+03 0.  0.
<mgrwt>
<rscale>  0 0.74403162E+03</rscale>
<asrwt>0</asrwt>
<pdfrwt beam="1">  1        1 0.68278513E-01 0.74403162E+03</pdfrwt>
<pdfrwt beam="2">  1       -1 0.41365918E-01 0.74403162E+03</pdfrwt>
<totfact> 0.30199208E+02</totfact>
</mgrwt>
</event>
<event>
 4    1  0.6480558E-006  0.5754329E+03  0.7818608E-02  0.9957728E-01
         -1   -1    0    0    0  501 -0.00000000000E+00  0.00000000000E+00  0.75186046779E+02  0.75186046948E+02  0.50400000000E-02 0.  1.
          1   -1    0    0  501    0  0.00000000000E+00 -0.00000000000E+00 -0.11010121671E+04  0.11010121671E+04  0.50400000000E-02 0. -1.
    5000001    1    1    2    0    0 -0.46341382682E+02 -0.18080283173E+03 -0.32621679637E+03  0.42527119106E+03  0.19900000000E+03 0.  0.
   -5000001    1    1    2    0    0  0.46341382682E+02  0.18080283173E+03 -0.69960932396E+03  0.75092702301E+03  0.19900000000E+03 0.  0.
<mgrwt>
<rscale>  0 0.57543289E+03</rscale>
<asrwt>0</asrwt>
<pdfrwt beam="1">  1        1 0.15728744E+00 0.57543289E+03</pdfrwt>
<pdfrwt beam="2">  1       -1 0.10740865E-01 0.57543289E+03</pdfrwt>
<totfact> 0.83006203E+02</totfact>
</mgrwt>
</event>
<event>
 4    1  0.6480558E-006  0.5116947E+03  0.7818608E-02  0.1010771E+00
          1   -1    0    0  501    0  0.00000000000E+00  0.00000000000E+00  0.15354913163E+03  0.15354913171E+03  0.50400000000E-02 0.  1.
         -1   -1    0    0    0  501 -0.00000000000E+00 -0.00000000000E+00 -0.42629919674E+03  0.42629919677E+03  0.50400000000E-02 0. -1.
    5000001    1    1    2    0    0 -0.14217802830E+03  0.64095537761E+02 -0.18075858633E+03  0.31080137745E+03  0.19900000000E+03 0.  0.
   -5000001    1    1    2    0    0  0.14217802830E+03 -0.64095537761E+02 -0.91991478781E+02  0.26904695103E+03  0.19900000000E+03 0.  0.
<mgrwt>
<rscale>  0 0.51169472E+03</rscale>
<asrwt>0</asrwt>
<pdfrwt beam="1">  1        1 0.21935590E-01 0.51169472E+03</pdfrwt>
<pdfrwt beam="2">  1       -1 0.60899885E-01 0.51169472E+03</pdfrwt>
<totfact> 0.64014392E+02</totfact>
</mgrwt>
</event>
<event>
 4    1  0.6480558E-006  0.4946408E+03  0.7818608E-02  0.1015187E+00
          1   -1    0    0  501    0  0.00000000000E+00  0.00000000000E+00  0.77995813677E+03  0.77995813679E+03  0.50400000000E-02 0.  1.
         -1   -1    0    0    0  501 -0.00000000000E+00 -0.00000000000E+00 -0.78423925732E+02  0.78423925894E+02  0.50400000000E-02 0. -1.
    5000001    1    1    2    0    0 -0.24814947517E+02 -0.96986624714E+02  0.53722143583E+03  0.58157549648E+03  0.19900000000E+03 0.  0.
   -5000001    1    1    2    0    0  0.24814947517E+02  0.96986624714E+02  0.16431277521E+03  0.27680656620E+03  0.19900000000E+03 0.  0.
<mgrwt>
<rscale>  0 0.49464080E+03</rscale>
<asrwt>0</asrwt>
<pdfrwt beam="1">  1        1 0.11142260E+00 0.49464080E+03</pdfrwt>
<pdfrwt beam="2">  1       -1 0.11203417E-01 0.49464080E+03</pdfrwt>
<totfact> 0.13688239E+03</totfact>
</mgrwt>
</event>
<event>
 4    1  0.6480558E-006  0.4839294E+03  0.7818608E-02  0.1018061E+00
          1   -1    0    0  501    0  0.00000000000E+00  0.00000000000E+00  0.51825890222E+02  0.51825890467E+02  0.50400000000E-02 0.  1.
         -1   -1    0    0    0  501 -0.00000000000E+00 -0.00000000000E+00 -0.11296848695E+04  0.11296848695E+04  0.50400000000E-02 0. -1.
    5000001    1    1    2    0    0 -0.25111270438E+02  0.96237549429E+02 -0.77123968512E+03  0.80268542638E+03  0.19900000000E+03 0.  0.
   -5000001    1    1    2    0    0  0.25111270438E+02 -0.96237549429E+02 -0.30661929415E+03  0.37882533359E+03  0.19900000000E+03 0.  0.
<mgrwt>
<rscale>  0 0.48392943E+03</rscale>
<asrwt>0</asrwt>
<pdfrwt beam="1">  1        1 0.74036993E-02 0.48392943E+03</pdfrwt>
<pdfrwt beam="2">  1       -1 0.16138354E+00 0.48392943E+03</pdfrwt>
<totfact> 0.29840297E+02</totfact>
</mgrwt>
</event>
<event>
 4    1  0.6480558E-006  0.7201354E+03  0.7818608E-02  0.9683404E-01
          1   -1    0    0  501    0  0.00000000000E+00  0.00000000000E+00  0.22060628702E+04  0.22060628702E+04  0.50400000000E-02 0.  1.
         -1   -1    0    0    0  501 -0.00000000000E+00 -0.00000000000E+00 -0.58769296683E+02  0.58769296899E+02  0.50400000000E-02 0. -1.
    5000001    1    1    2    0    0  0.27626987363E+03 -0.11651157501E+03  0.10354154087E+04  0.10961688094E+04  0.19900000000E+03 0.  0.
   -5000001    1    1    2    0    0 -0.27626987363E+03  0.11651157501E+03  0.11118781648E+04  0.11686633576E+04  0.19900000000E+03 0.  0.
<mgrwt>
<rscale>  0 0.72013544E+03</rscale>
<asrwt>0</asrwt>
<pdfrwt beam="1">  1        1 0.31515190E+00 0.72013544E+03</pdfrwt>
<pdfrwt beam="2">  1       -1 0.83956123E-02 0.72013544E+03</pdfrwt>
<totfact> 0.23723875E+02</totfact>
</mgrwt>
</event>
<event>
 4    1  0.6480558E-006  0.6909058E+03  0.7818608E-02  0.9732912E-01
          1   -1    0    0  501    0  0.00000000000E+00  0.00000000000E+00  0.11050908674E+04  0.11050908674E+04  0.50400000000E-02 0.  1.
         -1   -1    0    0    0  501 -0.00000000000E+00 -0.00000000000E+00 -0.10798905050E+03  0.10798905061E+03  0.50400000000E-02 0. -1.
    5000001    1    1    2    0    0 -0.18723789854E+03 -0.21122911341E+03  0.51225777032E+03  0.61780643592E+03  0.19900000000E+03 0.  0.
   -5000001    1    1    2    0    0  0.18723789854E+03  0.21122911341E+03  0.48484404660E+03  0.59527348213E+03  0.19900000000E+03 0.  0.
<mgrwt>
<rscale>  0 0.69090582E+03</rscale>
<asrwt>0</asrwt>
<pdfrwt beam="1">  1        1 0.15787013E+00 0.69090582E+03</pdfrwt>
<pdfrwt beam="2">  1       -1 0.15427006E-01 0.69090582E+03</pdfrwt>
<totfact> 0.45909132E+02</totfact>
</mgrwt>
</event>
<event>
 4    1  0.6480558E-006  0.1493921E+04  0.7818608E-02  0.8888506E-01
          1   -1    0    0  501    0  0.00000000000E+00  0.00000000000E+00  0.26478385004E+04  0.26478385004E+04  0.50400000000E-02 0.  1.
         -1   -1    0    0    0  501 -0.00000000000E+00 -0.00000000000E+00 -0.21071895710E+03  0.21071895716E+03  0.50400000000E-02 0. -1.
    5000001    1    1    2    0    0  0.45572122440E+03  0.55565650693E+03  0.11348739619E+04  0.13579307411E+04  0.19900000000E+03 0.  0.
   -5000001    1    1    2    0    0 -0.45572122440E+03 -0.55565650693E+03  0.13022455814E+04  0.15006267165E+04  0.19900000000E+03 0.  0.
<mgrwt>
<rscale>  0 0.14939207E+04</rscale>
<asrwt>0</asrwt>
<pdfrwt beam="1">  1        1 0.37826264E+00 0.14939207E+04</pdfrwt>
<pdfrwt beam="2">  1       -1 0.30102708E-01 0.14939207E+04</pdfrwt>
<totfact> 0.14255951E+01</totfact>
</mgrwt>
</event>
<event>
 4    1  0.6480558E-006  0.1419472E+04  0.7818608E-02  0.8939843E-01
         -1   -1    0    0    0  501 -0.00000000000E+00  0.00000000000E+00  0.32933303161E+03  0.32933303165E+03  0.50400000000E-02 0. -1.
          1   -1    0    0  501    0  0.00000000000E+00 -0.00000000000E+00 -0.15295303477E+04  0.15295303477E+04  0.50400000000E-02 0.  1.
    5000001    1    1    2    0    0 -0.17935403769E+03 -0.51781801247E+03 -0.11301340949E+04  0.12716553925E+04  0.19900000000E+03 0.  0.
   -5000001    1    1    2    0    0  0.17935403769E+03  0.51781801247E+03 -0.70063221216E+02  0.58720798686E+03  0.19900000000E+03 0.  0.
<mgrwt>
<rscale>  0 0.14194715E+04</rscale>
<asrwt>0</asrwt>
<pdfrwt beam="1">  1        1 0.21850433E+00 0.14194715E+04</pdfrwt>
<pdfrwt beam="2">  1       -1 0.47047577E-01 0.14194715E+04</pdfrwt>
<totfact> 0.32651055E+01</totfact>
</mgrwt>
</event>
<event>
 4    1  0.6480558E-006  0.6630341E+03  0.7818608E-02  0.9782624E-01
          1   -1    0    0  501    0  0.00000000000E+00  0.00000000000E+00  0.27682505820E+03  0.27682505825E+03  0.50400000000E-02 0.  1.
         -1   -1    0    0    0  501 -0.00000000000E+00 -0.00000000000E+00 -0.39701451720E+03  0.39701451723E+03  0.50400000000E-02 0. -1.
    5000001    1    1    2    0    0 -0.23484756818E+03 -0.88747043245E+02  0.26577878330E+02  0.32146041993E+03  0.19900000000E+03 0.  0.
   -5000001    1    1    2    0    0  0.23484756818E+03  0.88747043245E+02 -0.14676733732E+03  0.35237915555E+03  0.19900000000E+03 0.  0.
<mgrwt>
<rscale>  0 0.66303414E+03</rscale>
<asrwt>0</asrwt>
<pdfrwt beam="1">  1        1 0.39546437E-01 0.66303414E+03</pdfrwt>
<pdfrwt beam="2">  1       -1 0.56716359E-01 0.66303414E+03</pdfrwt>
<totfact> 0.34163408E+02</totfact>
</mgrwt>
</event>
<event>
 4    1  0.6480558E-006  0.6156581E+03  0.7818608E-02  0.9873443E-01
         -1   -1    0    0    0  501 -0.00000000000E+00  0.00000000000E+00  0.40950642361E+02  0.40950642671E+02  0.50400000000E-02 0. -1.
          1   -1    0    0  501    0  0.00000000000E+00 -0.00000000000E+00 -0.23139738940E+04  0.23139738940E+04  0.50400000000E-02 0.  1.
    5000001    1    1    2    0    0  0.68890871919E+02 -0.49218637575E+02 -0.19744451754E+04  0.19862535531E+04  0.19900000000E+03 0.  0.
   -5000001    1    1    2    0    0 -0.68890871919E+02  0.49218637575E+02 -0.29857807619E+03  0.36867098353E+03  0.19900000000E+03 0.  0.
<mgrwt>
<rscale>  0 0.61565808E+03</rscale>
<asrwt>0</asrwt>
<pdfrwt beam="1">  1        1 0.33056762E+00 0.61565808E+03</pdfrwt>
<pdfrwt beam="2">  1       -1 0.58500932E-02 0.61565808E+03</pdfrwt>
<totfact> 0.35961218E+02</totfact>
</mgrwt>
</event>
<event>
 4    1  0.6480558E-006  0.5558596E+03  0.7818608E-02  0.1000147E+00
         -1   -1    0    0    0  501 -0.00000000000E+00  0.00000000000E+00  0.46294154104E+03  0.46294154107E+03  0.50400000000E-02 0. -1.
          1   -1    0    0  501    0  0.00000000000E+00 -0.00000000000E+00 -0.16685683718E+03  0.16685683725E+03  0.50400000000E-02 0.  1.
    5000001    1    1    2    0    0 -0.18189025093E+03  0.67525300956E+02  0.14858775245E+03  0.31515559622E+03  0.19900000000E+03 0.  0.
   -5000001    1    1    2    0    0  0.18189025093E+03 -0.67525300956E+02  0.14749695141E+03  0.31464278210E+03  0.19900000000E+03 0.  0.
<mgrwt>
<rscale>  0 0.55585956E+03</rscale>
<asrwt>0</asrwt>
<pdfrwt beam="1">  1        1 0.23836690E-01 0.55585956E+03</pdfrwt>
<pdfrwt beam="2">  1       -1 0.66134507E-01 0.55585956E+03</pdfrwt>
<totfact> 0.48727302E+02</totfact>
</mgrwt>
</event>
<event>
 4    1  0.6480558E-006  0.6114409E+03  0.7818608E-02  0.9881950E-01
         -1   -1    0    0    0  501 -0.00000000000E+00  0.00000000000E+00  0.96798075535E+02  0.96798075666E+02  0.50400000000E-02 0. -1.
          1   -1    0    0  501    0  0.00000000000E+00 -0.00000000000E+00 -0.96556667757E+03  0.96556667758E+03  0.50400000000E-02 0.  1.
    5000001    1    1    2    0    0  0.20032023252E+03 -0.11191026923E+03 -0.49486978824E+03  0.58064551253E+03  0.19900000000E+03 0.  0.
   -5000001    1    1    2    0    0 -0.20032023252E+03  0.11191026923E+03 -0.37389881380E+03  0.48171924071E+03  0.19900000000E+03 0.  0.
<mgrwt>
<rscale>  0 0.61144091E+03</rscale>
<asrwt>0</asrwt>
<pdfrwt beam="1">  1        1 0.13793809E+00 0.61144091E+03</pdfrwt>
<pdfrwt beam="2">  1       -1 0.13828297E-01 0.61144091E+03</pdfrwt>
<totfact> 0.69522306E+02</totfact>
</mgrwt>
</event>
<event>
 4    1  0.6480558E-006  0.5935127E+03  0.7818608E-02  0.9918957E-01
         -1   -1    0    0    0  501 -0.00000000000E+00  0.00000000000E+00  0.18552151882E+03  0.18552151889E+03  0.50400000000E-02 0. -1.
          1   -1    0    0  501    0  0.00000000000E+00 -0.00000000000E+00 -0.47468530871E+03  0.47468530873E+03  0.50400000000E-02 0.  1.
    5000001    1    1    2    0    0 -0.81208386960E+02  0.20036830367E+03 -0.19072964520E+03  0.35031565307E+03  0.19900000000E+03 0.  0.
   -5000001    1    1    2    0    0  0.81208386960E+02 -0.20036830367E+03 -0.98434144682E+02  0.30989117455E+03  0.19900000000E+03 0.  0.
<mgrwt>
<rscale>  0 0.59351273E+03</rscale>
<asrwt>0</asrwt>
<pdfrwt beam="1">  1        1 0.67812187E-01 0.59351273E+03</pdfrwt>
<pdfrwt beam="2">  1       -1 0.26503074E-01 0.59351273E+03</pdfrwt>
<totfact> 0.67173126E+02</totfact>
</mgrwt>
</event>
<event>
 4    1  0.6480558E-006  0.5686639E+03  0.7818608E-02  0.9972640E-01
          1   -1    0    0  501    0  0.00000000000E+00  0.00000000000E+00  0.20749874820E+03  0.20749874827E+03  0.50400000000E-02 0.  1.
         -1   -1    0    0    0  501 -0.00000000000E+00 -0.00000000000E+00 -0.38961516504E+03  0.38961516508E+03  0.50400000000E-02 0. -1.
    5000001    1    1    2    0    0  0.15249998645E+03 -0.11807299030E+03 -0.15785017689E+03  0.31892813493E+03  0.19900000000E+03 0.  0.
   -5000001    1    1    2    0    0 -0.15249998645E+03  0.11807299030E+03 -0.24266239949E+02  0.27818577841E+03  0.19900000000E+03 0.  0.
<mgrwt>
<rscale>  0 0.56866390E+03</rscale>
<asrwt>0</asrwt>
<pdfrwt beam="1">  1        1 0.29642678E-01 0.56866390E+03</pdfrwt>
<pdfrwt beam="2">  1       -1 0.55659309E-01 0.56866390E+03</pdfrwt>
<totfact> 0.51517332E+02</totfact>
</mgrwt>
</event>
<event>
 4    1  0.6480558E-006  0.1181338E+04  0.7818608E-02  0.9129350E-01
          1   -1    0    0  501    0  0.00000000000E+00  0.00000000000E+00  0.19534484286E+04  0.19534484286E+04  0.50400000000E-02 0.  1.
         -1   -1    0    0    0  501 -0.00000000000E+00 -0.00000000000E+00 -0.17860215569E+03  0.17860215576E+03  0.50400000000E-02 0. -1.
    5000001    1    1    2    0    0 -0.48206239560E+03 -0.13915124018E+03  0.45449560288E+03  0.70563055060E+03  0.19900000000E+03 0.  0.
   -5000001    1    1    2    0    0  0.48206239560E+03  0.13915124018E+03  0.13203506700E+04  0.14264200338E+04  0.19900000000E+03 0.  0.
<mgrwt>
<rscale>  0 0.11813384E+04</rscale>
<asrwt>0</asrwt>
<pdfrwt beam="1">  1        1 0.27906406E+00 0.11813384E+04</pdfrwt>
<pdfrwt beam="2">  1       -1 0.25514594E-01 0.11813384E+04</pdfrwt>
<totfact> 0.53482245E+01</totfact>
</mgrwt>
</event>
<event>
 4    1  0.6480558E-006  0.8086872E+03  0.7818608E-02  0.9547527E-01
         -1   -1    0    0    0  501 -0.00000000000E+00  0.00000000000E+00  0.15591355841E+03  0.15591355850E+03  0.50400000000E-02 0.  1.
          1   -1    0    0  501    0  0.00000000000E+00 -0.00000000000E+00 -0.10486177695E+04  0.10486177695E+04  0.50400000000E-02 0. -1.
    5000001    1    1    2    0    0  0.78389554257E+02  0.32661576125E+03 -0.28963716960E+03  0.48612083655E+03  0.19900000000E+03 0.  0.
   -5000001    1    1    2    0    0 -0.78389554257E+02 -0.32661576125E+03 -0.60306704150E+03  0.71841049147E+03  0.19900000000E+03 0.  0.
<mgrwt>
<rscale>  0 0.80868715E+03</rscale>
<asrwt>0</asrwt>
<pdfrwt beam="1">  1        1 0.14980253E+00 0.80868715E+03</pdfrwt>
<pdfrwt beam="2">  1       -1 0.22273366E-01 0.80868715E+03</pdfrwt>
<totfact> 0.27287260E+02</totfact>
</mgrwt>
</event>
<event>
 4    1  0.6480558E-006  0.1174536E+04  0.7818608E-02  0.9135441E-01
         -1   -1    0    0    0  501 -0.00000000000E+00  0.00000000000E+00  0.15963559952E+03  0.15963559960E+03  0.50400000000E-02 0. -1.
          1   -1    0    0  501    0  0.00000000000E+00 -0.00000000000E+00 -0.21604452118E+04  0.21604452118E+04  0.50400000000E-02 0.  1.
    5000001    1    1    2    0    0 -0.13464140608E+03 -0.53385728115E+03 -0.90879054939E+03  0.10810333795E+04  0.19900000000E+03 0.  0.
   -5000001    1    1    2    0    0  0.13464140608E+03  0.53385728115E+03 -0.10920190629E+04  0.12390474319E+04  0.19900000000E+03 0.  0.
<mgrwt>
<rscale>  0 0.11745364E+04</rscale>
<asrwt>0</asrwt>
<pdfrwt beam="1">  1        1 0.30863501E+00 0.11745364E+04</pdfrwt>
<pdfrwt beam="2">  1       -1 0.22805087E-01 0.11745364E+04</pdfrwt>
<totfact> 0.48074929E+01</totfact>
</mgrwt>
</event>
<event>
 4    1  0.6480558E-006  0.6033611E+03  0.7818608E-02  0.9898457E-01
          1   -1    0    0  501    0  0.00000000000E+00  0.00000000000E+00  0.66209707234E+03  0.66209707236E+03  0.50400000000E-02 0. -1.
         -1   -1    0    0    0  501 -0.00000000000E+00 -0.00000000000E+00 -0.13745894399E+03  0.13745894408E+03  0.50400000000E-02 0.  1.
    5000001    1    1    2    0    0  0.28348725873E+02  0.22180952179E+03  0.31202707246E+03  0.43239450524E+03  0.19900000000E+03 0.  0.
   -5000001    1    1    2    0    0 -0.28348725873E+02 -0.22180952179E+03  0.21261105589E+03  0.36716151119E+03  0.19900000000E+03 0.  0.
<mgrwt>
<rscale>  0 0.60336113E+03</rscale>
<asrwt>0</asrwt>
<pdfrwt beam="1">  1        1 0.94585297E-01 0.60336113E+03</pdfrwt>
<pdfrwt beam="2">  1       -1 0.19636992E-01 0.60336113E+03</pdfrwt>
<totfact> 0.70220393E+02</totfact>
</mgrwt>
</event>
<event>
 4    1  0.6480558E-006  0.1103724E+04  0.7818608E-02  0.9201570E-01
         -1   -1    0    0    0  501 -0.00000000000E+00  0.00000000000E+00  0.42888068846E+03  0.42888068849E+03  0.50400000000E-02 0. -1.
          1   -1    0    0  501    0  0.00000000000E+00 -0.00000000000E+00 -0.71010809909E+03  0.71010809911E+03  0.50400000000E-02 0.  1.
    5000001    1    1    2    0    0 -0.25406710502E+03 -0.44707721680E+03 -0.11702468314E+03  0.56367003477E+03  0.19900000000E+03 0.  0.
   -5000001    1    1    2    0    0  0.25406710502E+03  0.44707721680E+03 -0.16420272749E+03  0.57531875282E+03  0.19900000000E+03 0.  0.
<mgrwt>
<rscale>  0 0.11037240E+04</rscale>
<asrwt>0</asrwt>
<pdfrwt beam="1">  1        1 0.10144401E+00 0.11037240E+04</pdfrwt>
<pdfrwt beam="2">  1       -1 0.61268670E-01 0.11037240E+04</pdfrwt>
<totfact> 0.80317124E+01</totfact>
</mgrwt>
</event>
<event>
 4    1  0.6480558E-006  0.8799260E+03  0.7818608E-02  0.9451029E-01
         -1   -1    0    0    0  501 -0.00000000000E+00  0.00000000000E+00  0.15079936508E+03  0.15079936516E+03  0.50400000000E-02 0.  1.
          1   -1    0    0  501    0  0.00000000000E+00 -0.00000000000E+00 -0.12836091921E+04  0.12836091921E+04  0.50400000000E-02 0. -1.
    5000001    1    1    2    0    0  0.18538979594E+03 -0.26974802892E+03 -0.21362565249E+03  0.43860038184E+03  0.19900000000E+03 0.  0.
   -5000001    1    1    2    0    0 -0.18538979594E+03  0.26974802892E+03 -0.91918417450E+03  0.99580817540E+03  0.19900000000E+03 0.  0.
<mgrwt>
<rscale>  0 0.87992602E+03</rscale>
<asrwt>0</asrwt>
<pdfrwt beam="1">  1        1 0.18337274E+00 0.87992602E+03</pdfrwt>
<pdfrwt beam="2">  1       -1 0.21542767E-01 0.87992602E+03</pdfrwt>
<totfact> 0.19678612E+02</totfact>
</mgrwt>
</event>
<event>
 4    1  0.6480558E-006  0.7171409E+03  0.7818608E-02  0.9688360E-01
          1   -1    0    0  501    0  0.00000000000E+00  0.00000000000E+00  0.55176358597E+03  0.55176358600E+03  0.50400000000E-02 0.  1.
         -1   -1    0    0    0  501 -0.00000000000E+00 -0.00000000000E+00 -0.23302145238E+03  0.23302145243E+03  0.50400000000E-02 0. -1.
    5000001    1    1    2    0    0 -0.17753707764E+03  0.23402955333E+03  0.21604934322E+03  0.41541252326E+03  0.19900000000E+03 0.  0.
   -5000001    1    1    2    0    0  0.17753707764E+03 -0.23402955333E+03  0.10269279037E+03  0.36937251517E+03  0.19900000000E+03 0.  0.
<mgrwt>
<rscale>  0 0.71714086E+03</rscale>
<asrwt>0</asrwt>
<pdfrwt beam="1">  1        1 0.78823369E-01 0.71714086E+03</pdfrwt>
<pdfrwt beam="2">  1       -1 0.33288779E-01 0.71714086E+03</pdfrwt>
<totfact> 0.36729944E+02</totfact>
</mgrwt>
</event>
<event>
 4    1  0.6480558E-006  0.5198564E+03  0.7818608E-02  0.1008722E+00
          1   -1    0    0  501    0  0.00000000000E+00  0.00000000000E+00  0.77422053606E+02  0.77422053771E+02  0.50400000000E-02 0.  1.
         -1   -1    0    0    0  501 -0.00000000000E+00 -0.00000000000E+00 -0.87265420385E+03  0.87265420386E+03  0.50400000000E-02 0. -1.
    5000001    1    1    2    0    0  0.15574149956E+03  0.42374076566E+02 -0.47750226209E+03  0.54190440795E+03  0.19900000000E+03 0.  0.
   -5000001    1    1    2    0    0 -0.15574149956E+03 -0.42374076566E+02 -0.31772988815E+03  0.40817184969E+03  0.19900000000E+03 0.  0.
<mgrwt>
<rscale>  0 0.51985644E+03</rscale>
<asrwt>0</asrwt>
<pdfrwt beam="1">  1        1 0.11060294E-01 0.51985644E+03</pdfrwt>
<pdfrwt beam="2">  1       -1 0.12466488E+00 0.51985644E+03</pdfrwt>
<totfact> 0.33554655E+02</totfact>
</mgrwt>
</event>
<event>
 4    1  0.6480558E-006  0.5359279E+03  0.7818608E-02  0.1004805E+00
          1   -1    0    0  501    0  0.00000000000E+00  0.00000000000E+00  0.49135674868E+03  0.49135674870E+03  0.50400000000E-02 0.  1.
         -1   -1    0    0    0  501 -0.00000000000E+00 -0.00000000000E+00 -0.14613555230E+03  0.14613555238E+03  0.50400000000E-02 0. -1.
    5000001    1    1    2    0    0  0.17602426646E+03 -0.38761835123E+01  0.21388719797E+03  0.34109866701E+03  0.19900000000E+03 0.  0.
   -5000001    1    1    2    0    0 -0.17602426646E+03  0.38761835123E+01  0.13133399841E+03  0.29639363407E+03  0.19900000000E+03 0.  0.
<mgrwt>
<rscale>  0 0.53592794E+03</rscale>
<asrwt>0</asrwt>
<pdfrwt beam="1">  1        1 0.70193821E-01 0.53592794E+03</pdfrwt>
<pdfrwt beam="2">  1       -1 0.20876508E-01 0.53592794E+03</pdfrwt>
<totfact> 0.95965499E+02</totfact>
</mgrwt>
</event>
<event>
 4    1  0.6480558E-006  0.8538316E+03  0.7818608E-02  0.9485209E-01
          1   -1    0    0  501    0  0.00000000000E+00  0.00000000000E+00  0.65667414585E+03  0.65667414587E+03  0.50400000000E-02 0.  1.
         -1   -1    0    0    0  501 -0.00000000000E+00 -0.00000000000E+00 -0.27754569630E+03  0.27754569635E+03  0.50400000000E-02 0. -1.
    5000001    1    1    2    0    0  0.13962310986E+03  0.30562061816E+03  0.37830909782E+03  0.54370704295E+03  0.19900000000E+03 0.  0.
   -5000001    1    1    2    0    0 -0.13962310986E+03 -0.30562061816E+03  0.81935172086E+00  0.39051279927E+03  0.19900000000E+03 0.  0.
<mgrwt>
<rscale>  0 0.85383156E+03</rscale>
<asrwt>0</asrwt>
<pdfrwt beam="1">  1        1 0.93810594E-01 0.85383156E+03</pdfrwt>
<pdfrwt beam="2">  1       -1 0.39649385E-01 0.85383156E+03</pdfrwt>
<totfact> 0.20871984E+02</totfact>
</mgrwt>
</event>
<event>
 4    1  0.6480558E-006  0.4491752E+03  0.7818608E-02  0.1027968E+00
          1   -1    0    0  501    0  0.00000000000E+00  0.00000000000E+00  0.61320133369E+03  0.61320133371E+03  0.50400000000E-02 0.  1.
         -1   -1    0    0    0  501 -0.00000000000E+00 -0.00000000000E+00 -0.82256151483E+02  0.82256151638E+02  0.50400000000E-02 0. -1.
    5000001    1    1    2    0    0  0.57183414648E+02  0.50617372205E+02  0.15591994949E+03  0.26409106749E+03  0.19900000000E+03 0.  0.
   -5000001    1    1    2    0    0 -0.57183414648E+02 -0.50617372205E+02  0.37502523272E+03  0.43136641786E+03  0.19900000000E+03 0.  0.
<mgrwt>
<rscale>  0 0.44917516E+03</rscale>
<asrwt>0</asrwt>
<pdfrwt beam="1">  1        1 0.87600190E-01 0.44917516E+03</pdfrwt>
<pdfrwt beam="2">  1       -1 0.11750879E-01 0.44917516E+03</pdfrwt>
<totfact> 0.17987731E+03</totfact>
</mgrwt>
</event>
<event>
 4    1  0.6480558E-006  0.8432440E+03  0.7818608E-02  0.9499450E-01
         -1   -1    0    0    0  501 -0.00000000000E+00  0.00000000000E+00  0.17567730041E+03  0.17567730049E+03  0.50400000000E-02 0. -1.
          1   -1    0    0  501    0  0.00000000000E+00 -0.00000000000E+00 -0.10118844566E+04  0.10118844566E+04  0.50400000000E-02 0.  1.
    5000001    1    1    2    0    0 -0.30263119362E+03  0.21236692368E+03 -0.36394656313E+03  0.55564687567E+03  0.19900000000E+03 0.  0.
   -5000001    1    1    2    0    0  0.30263119362E+03 -0.21236692368E+03 -0.47226059309E+03  0.63191488146E+03  0.19900000000E+03 0.  0.
<mgrwt>
<rscale>  0 0.84324404E+03</rscale>
<asrwt>0</asrwt>
<pdfrwt beam="1">  1        1 0.14455492E+00 0.84324404E+03</pdfrwt>
<pdfrwt beam="2">  1       -1 0.25096758E-01 0.84324404E+03</pdfrwt>
<totfact> 0.23671907E+02</totfact>
</mgrwt>
</event>
<event>
 4    1  0.6480558E-006  0.5108604E+03  0.7818608E-02  0.1010982E+00
         -1   -1    0    0    0  501 -0.00000000000E+00  0.00000000000E+00  0.44470838504E+02  0.44470838790E+02  0.50400000000E-02 0.  1.
          1   -1    0    0  501    0  0.00000000000E+00 -0.00000000000E+00 -0.14671318369E+04  0.14671318369E+04  0.50400000000E-02 0. -1.
    5000001    1    1    2    0    0 -0.15472709914E+03 -0.35123010714E+02 -0.77544332994E+03  0.81614181307E+03  0.19900000000E+03 0.  0.
   -5000001    1    1    2    0    0  0.15472709914E+03  0.35123010714E+02 -0.64721766848E+03  0.69546086265E+03  0.19900000000E+03 0.  0.
<mgrwt>
<rscale>  0 0.51086038E+03</rscale>
<asrwt>0</asrwt>
<pdfrwt beam="1">  1        1 0.20959023E+00 0.51086038E+03</pdfrwt>
<pdfrwt beam="2">  1       -1 0.63529779E-02 0.51086038E+03</pdfrwt>
<totfact> 0.10730546E+03</totfact>
</mgrwt>
</event>
<event>
 4    1  0.6480558E-006  0.4939907E+03  0.7818608E-02  0.1015359E+00
         -1   -1    0    0    0  501 -0.00000000000E+00  0.00000000000E+00  0.61558416989E+02  0.61558417196E+02  0.50400000000E-02 0.  1.
          1   -1    0    0  501    0  0.00000000000E+00 -0.00000000000E+00 -0.99103771622E+03  0.99103771623E+03  0.50400000000E-02 0. -1.
    5000001    1    1    2    0    0 -0.22035104755E+02 -0.14314652746E+03 -0.42059353193E+03  0.48731549664E+03  0.19900000000E+03 0.  0.
   -5000001    1    1    2    0    0  0.22035104755E+02  0.14314652746E+03 -0.50888576730E+03  0.56528063678E+03  0.19900000000E+03 0.  0.
<mgrwt>
<rscale>  0 0.49399074E+03</rscale>
<asrwt>0</asrwt>
<pdfrwt beam="1">  1        1 0.14157681E+00 0.49399074E+03</pdfrwt>
<pdfrwt beam="2">  1       -1 0.87940602E-02 0.49399074E+03</pdfrwt>
<totfact> 0.13674489E+03</totfact>
</mgrwt>
</event>
<event>
 4    1  0.6480558E-006  0.1192552E+04  0.7818608E-02  0.9119401E-01
         -1   -1    0    0    0  501 -0.00000000000E+00  0.00000000000E+00  0.36596717873E+03  0.36596717876E+03  0.50400000000E-02 0. -1.
          1   -1    0    0  501    0  0.00000000000E+00 -0.00000000000E+00 -0.97152195397E+03  0.97152195398E+03  0.50400000000E-02 0.  1.
    5000001    1    1    2    0    0 -0.18691960177E+03  0.46784339841E+03 -0.23229795859E+02  0.54217802093E+03  0.19900000000E+03 0.  0.
   -5000001    1    1    2    0    0  0.18691960177E+03 -0.46784339841E+03 -0.58232497938E+03  0.79531111182E+03  0.19900000000E+03 0.  0.
<mgrwt>
<rscale>  0 0.11925521E+04</rscale>
<asrwt>0</asrwt>
<pdfrwt beam="1">  1        1 0.13878885E+00 0.11925521E+04</pdfrwt>
<pdfrwt beam="2">  1       -1 0.52281026E-01 0.11925521E+04</pdfrwt>
<totfact> 0.66184853E+01</totfact>
</mgrwt>
</event>
<event>
 4    1  0.6480558E-006  0.4407121E+03  0.7818608E-02  0.1030529E+00
         -1   -1    0    0    0  501 -0.00000000000E+00  0.00000000000E+00  0.59306161890E+03  0.59306161892E+03  0.50400000000E-02 0. -1.
          1   -1    0    0  501    0  0.00000000000E+00 -0.00000000000E+00 -0.81874790282E+02  0.81874790437E+02  0.50400000000E-02 0.  1.
    5000001    1    1    2    0    0  0.93701877363E+02 -0.12290413086E+02  0.24798221131E+03  0.33170359239E+03  0.19900000000E+03 0.  0.
   -5000001    1    1    2    0    0 -0.93701877363E+02  0.12290413086E+02  0.26320461730E+03  0.34323281697E+03  0.19900000000E+03 0.  0.
<mgrwt>
<rscale>  0 0.44071213E+03</rscale>
<asrwt>0</asrwt>
<pdfrwt beam="1">  1        1 0.11696398E-01 0.44071213E+03</pdfrwt>
<pdfrwt beam="2">  1       -1 0.84723092E-01 0.44071213E+03</pdfrwt>
<totfact> 0.75282481E+02</totfact>
</mgrwt>
</event>
<event>
 4    1  0.6480558E-006  0.5160800E+03  0.7818608E-02  0.1009665E+00
          1   -1    0    0  501    0  0.00000000000E+00  0.00000000000E+00  0.20961995402E+03  0.20961995408E+03  0.50400000000E-02 0.  1.
         -1   -1    0    0    0  501 -0.00000000000E+00 -0.00000000000E+00 -0.31764462977E+03  0.31764462981E+03  0.50400000000E-02 0. -1.
    5000001    1    1    2    0    0 -0.16213957588E+03 -0.34009252921E+01 -0.27314727091E+02  0.25816255088E+03  0.19900000000E+03 0.  0.
   -5000001    1    1    2    0    0  0.16213957588E+03  0.34009252921E+01 -0.80709948663E+02  0.26910203301E+03  0.19900000000E+03 0.  0.
<mgrwt>
<rscale>  0 0.51608004E+03</rscale>
<asrwt>0</asrwt>
<pdfrwt beam="1">  1        1 0.29945708E-01 0.51608004E+03</pdfrwt>
<pdfrwt beam="2">  1       -1 0.45377804E-01 0.51608004E+03</pdfrwt>
<totfact> 0.74770385E+02</totfact>
</mgrwt>
</event>
<event>
 4    1  0.6480558E-006  0.1080921E+04  0.7818608E-02  0.9223989E-01
         -1   -1    0    0    0  501 -0.00000000000E+00  0.00000000000E+00  0.15210402482E+03  0.15210402490E+03  0.50400000000E-02 0. -1.
          1   -1    0    0  501    0  0.00000000000E+00 -0.00000000000E+00 -0.19203808329E+04  0.19203808329E+04  0.50400000000E-02 0.  1.
    5000001    1    1    2    0    0 -0.19902229762E+03 -0.11380015515E+03 -0.26817989092E+02  0.30476311260E+03  0.19900000000E+03 0.  0.
   -5000001    1    1    2    0    0  0.19902229762E+03  0.11380015515E+03 -0.17414588190E+04  0.17677217452E+04  0.19900000000E+03 0.  0.
<mgrwt>
<rscale>  0 0.10809212E+04</rscale>
<asrwt>0</asrwt>
<pdfrwt beam="1">  1        1 0.27434010E+00 0.10809212E+04</pdfrwt>
<pdfrwt beam="2">  1       -1 0.21729148E-01 0.10809212E+04</pdfrwt>
<totfact> 0.74323641E+01</totfact>
</mgrwt>
</event>
<event>
 4    1  0.6480558E-006  0.5359900E+03  0.7818608E-02  0.1004790E+00
         -1   -1    0    0    0  501 -0.00000000000E+00  0.00000000000E+00  0.10747107160E+03  0.10747107171E+03  0.50400000000E-02 0. -1.
          1   -1    0    0  501    0  0.00000000000E+00 -0.00000000000E+00 -0.66828504348E+03  0.66828504350E+03  0.50400000000E-02 0.  1.
    5000001    1    1    2    0    0  0.13138187192E+03  0.11643566644E+03 -0.33459699057E+03  0.42705340039E+03  0.19900000000E+03 0.  0.
   -5000001    1    1    2    0    0 -0.13138187192E+03 -0.11643566644E+03 -0.22621698132E+03  0.34870271482E+03  0.19900000000E+03 0.  0.
<mgrwt>
<rscale>  0 0.53598996E+03</rscale>
<asrwt>0</asrwt>
<pdfrwt beam="1">  1        1 0.95469290E-01 0.53598996E+03</pdfrwt>
<pdfrwt beam="2">  1       -1 0.15353011E-01 0.53598996E+03</pdfrwt>
<totfact> 0.10379508E+03</totfact>
</mgrwt>
</event>
<event>
 4    1  0.6480558E-006  0.7908021E+03  0.7818608E-02  0.9573427E-01
          1   -1    0    0  501    0  0.00000000000E+00  0.00000000000E+00  0.16571729561E+04  0.16571729561E+04  0.50400000000E-02 0.  1.
         -1   -1    0    0    0  501 -0.00000000000E+00 -0.00000000000E+00 -0.94342591516E+02  0.94342591651E+02  0.50400000000E-02 0. -1.
    5000001    1    1    2    0    0 -0.86401384395E+02 -0.32843440577E+03  0.69834663325E+03  0.80163793466E+03  0.19900000000E+03 0.  0.
   -5000001    1    1    2    0    0  0.86401384395E+02  0.32843440577E+03  0.86448373129E+03  0.94987761305E+03  0.19900000000E+03 0.  0.
<mgrwt>
<rscale>  0 0.79080210E+03</rscale>
<asrwt>0</asrwt>
<pdfrwt beam="1">  1        1 0.23673900E+00 0.79080210E+03</pdfrwt>
<pdfrwt beam="2">  1       -1 0.13477512E-01 0.79080210E+03</pdfrwt>
<totfact> 0.24457458E+02</totfact>
</mgrwt>
</event>
<event>
 4    1  0.6480558E-006  0.4184777E+03  0.7818608E-02  0.1037563E+00
         -1   -1    0    0    0  501 -0.00000000000E+00  0.00000000000E+00  0.12379540630E+04  0.12379540631E+04  0.50400000000E-02 0. -1.
          1   -1    0    0  501    0  0.00000000000E+00 -0.00000000000E+00 -0.35365526515E+02  0.35365526874E+02  0.50400000000E-02 0.  1.
    5000001    1    1    2    0    0 -0.33961043374E+02  0.48876452460E+02  0.52446052585E+03  0.56409405532E+03  0.19900000000E+03 0.  0.
   -5000001    1    1    2    0    0  0.33961043374E+02 -0.48876452460E+02  0.67812801068E+03  0.70922553461E+03  0.19900000000E+03 0.  0.
<mgrwt>
<rscale>  0 0.41847771E+03</rscale>
<asrwt>0</asrwt>
<pdfrwt beam="1">  1        1 0.50522176E-02 0.41847771E+03</pdfrwt>
<pdfrwt beam="2">  1       -1 0.17685060E+00 0.41847771E+03</pdfrwt>
<totfact> 0.39388209E+02</totfact>
</mgrwt>
</event>
<event>
 4    1  0.6480558E-006  0.5289774E+03  0.7818608E-02  0.1006480E+00
         -1   -1    0    0    0  501 -0.00000000000E+00  0.00000000000E+00  0.43477522454E+03  0.43477522457E+03  0.50400000000E-02 0. -1.
          1   -1    0    0  501    0  0.00000000000E+00 -0.00000000000E+00 -0.16089758649E+03  0.16089758657E+03  0.50400000000E-02 0.  1.
    5000001    1    1    2    0    0  0.12206960187E+02 -0.17301212615E+03  0.15547918412E+03  0.30636086951E+03  0.19900000000E+03 0.  0.
   -5000001    1    1    2    0    0 -0.12206960187E+02  0.17301212615E+03  0.11839845393E+03  0.28931194162E+03  0.19900000000E+03 0.  0.
<mgrwt>
<rscale>  0 0.52897744E+03</rscale>
<asrwt>0</asrwt>
<pdfrwt beam="1">  1        1 0.22985369E-01 0.52897744E+03</pdfrwt>
<pdfrwt beam="2">  1       -1 0.62110747E-01 0.52897744E+03</pdfrwt>
<totfact> 0.57919100E+02</totfact>
</mgrwt>
</event>
<event>
 4    1  0.6480558E-006  0.5039363E+03  0.7818608E-02  0.1012757E+00
         -1   -1    0    0    0  501 -0.00000000000E+00  0.00000000000E+00  0.12564295071E+03  0.12564295081E+03  0.50400000000E-02 0. -1.
          1   -1    0    0  501    0  0.00000000000E+00 -0.00000000000E+00 -0.50530443964E+03  0.50530443966E+03  0.50400000000E-02 0.  1.
    5000001    1    1    2    0    0 -0.65926534212E+02  0.13571501367E+03 -0.23177061832E+03  0.34071027628E+03  0.19900000000E+03 0.  0.
   -5000001    1    1    2    0    0  0.65926534212E+02 -0.13571501367E+03 -0.14789087061E+03  0.29023711420E+03  0.19900000000E+03 0.  0.
<mgrwt>
<rscale>  0 0.50393627E+03</rscale>
<asrwt>0</asrwt>
<pdfrwt beam="1">  1        1 0.72186347E-01 0.50393627E+03</pdfrwt>
<pdfrwt beam="2">  1       -1 0.17948993E-01 0.50393627E+03</pdfrwt>
<totfact> 0.11861536E+03</totfact>
</mgrwt>
</event>
<event>
 4    1  0.6480558E-006  0.9637906E+03  0.7818608E-02  0.9349175E-01
          1   -1    0    0  501    0  0.00000000000E+00  0.00000000000E+00  0.84661931726E+03  0.84661931727E+03  0.50400000000E-02 0. -1.
         -1   -1    0    0    0  501 -0.00000000000E+00 -0.00000000000E+00 -0.27429454295E+03  0.27429454300E+03  0.50400000000E-02 0.  1.
    5000001    1    1    2    0    0 -0.24637850589E+03  0.33272588019E+03  0.11677055964E+03  0.47396755492E+03  0.19900000000E+03 0.  0.
   -5000001    1    1    2    0    0  0.24637850589E+03 -0.33272588019E+03  0.45555421466E+03  0.64694630535E+03  0.19900000000E+03 0.  0.
<mgrwt>
<rscale>  0 0.96379056E+03</rscale>
<asrwt>0</asrwt>
<pdfrwt beam="1">  1        1 0.12094562E+00 0.96379056E+03</pdfrwt>
<pdfrwt beam="2">  1       -1 0.39184934E-01 0.96379056E+03</pdfrwt>
<totfact> 0.14427358E+02</totfact>
</mgrwt>
</event>
<event>
 4    1  0.6480558E-006  0.7078250E+03  0.7818608E-02  0.9703943E-01
         -1   -1    0    0    0  501 -0.00000000000E+00  0.00000000000E+00  0.44310396619E+02  0.44310396906E+02  0.50400000000E-02 0. -1.
          1   -1    0    0  501    0  0.00000000000E+00 -0.00000000000E+00 -0.28267421244E+04  0.28267421244E+04  0.50400000000E-02 0.  1.
    5000001    1    1    2    0    0  0.17363794622E+03  0.23546524546E+03 -0.13600475158E+04  0.14053199861E+04  0.19900000000E+03 0.  0.
   -5000001    1    1    2    0    0 -0.17363794622E+03 -0.23546524546E+03 -0.14223842120E+04  0.14657325352E+04  0.19900000000E+03 0.  0.
<mgrwt>
<rscale>  0 0.70782502E+03</rscale>
<asrwt>0</asrwt>
<pdfrwt beam="1">  1        1 0.40382019E+00 0.70782502E+03</pdfrwt>
<pdfrwt beam="2">  1       -1 0.63300585E-02 0.70782502E+03</pdfrwt>
<totfact> 0.15038477E+02</totfact>
</mgrwt>
</event>
<event>
 4    1  0.6480558E-006  0.6141186E+03  0.7818608E-02  0.9876540E-01
         -1   -1    0    0    0  501 -0.00000000000E+00  0.00000000000E+00  0.11213964840E+03  0.11213964851E+03  0.50400000000E-02 0. -1.
          1   -1    0    0  501    0  0.00000000000E+00 -0.00000000000E+00 -0.84078567540E+03  0.84078567541E+03  0.50400000000E-02 0.  1.
    5000001    1    1    2    0    0  0.23224599384E+03 -0.69764790722E+01 -0.32334128230E+03  0.44512633909E+03  0.19900000000E+03 0.  0.
   -5000001    1    1    2    0    0 -0.23224599384E+03  0.69764790722E+01 -0.40530474470E+03  0.50779898483E+03  0.19900000000E+03 0.  0.
<mgrwt>
<rscale>  0 0.61411859E+03</rscale>
<asrwt>0</asrwt>
<pdfrwt beam="1">  1        1 0.12011224E+00 0.61411859E+03</pdfrwt>
<pdfrwt beam="2">  1       -1 0.16019950E-01 0.61411859E+03</pdfrwt>
<totfact> 0.68536491E+02</totfact>
</mgrwt>
</event>
<event>
 4    1  0.6480558E-006  0.6984970E+03  0.7818608E-02  0.9719806E-01
         -1   -1    0    0    0  501 -0.00000000000E+00  0.00000000000E+00  0.28865971030E+03  0.28865971034E+03  0.50400000000E-02 0. -1.
          1   -1    0    0  501    0  0.00000000000E+00 -0.00000000000E+00 -0.42255472233E+03  0.42255472236E+03  0.50400000000E-02 0.  1.
    5000001    1    1    2    0    0 -0.26141759027E+03  0.43239101168E+02 -0.17924952067E+03  0.37674947516E+03  0.19900000000E+03 0.  0.
   -5000001    1    1    2    0    0  0.26141759027E+03 -0.43239101168E+02  0.45354508640E+02  0.33446495754E+03  0.19900000000E+03 0.  0.
<mgrwt>
<rscale>  0 0.69849703E+03</rscale>
<asrwt>0</asrwt>
<pdfrwt beam="1">  1        1 0.60364960E-01 0.69849703E+03</pdfrwt>
<pdfrwt beam="2">  1       -1 0.41237102E-01 0.69849703E+03</pdfrwt>
<totfact> 0.35846360E+02</totfact>
</mgrwt>
</event>
<event>
 4    1  0.6480558E-006  0.1766246E+04  0.7818608E-02  0.8724459E-01
          1   -1    0    0  501    0  0.00000000000E+00  0.00000000000E+00  0.10018655061E+04  0.10018655061E+04  0.50400000000E-02 0.  1.
         -1   -1    0    0    0  501 -0.00000000000E+00 -0.00000000000E+00 -0.77845362972E+03  0.77845362974E+03  0.50400000000E-02 0. -1.
    5000001    1    1    2    0    0 -0.62423216171E+03 -0.36452817720E+03 -0.35865808134E+03  0.83113368540E+03  0.19900000000E+03 0.  0.
   -5000001    1    1    2    0    0  0.62423216171E+03  0.36452817720E+03  0.58206995775E+03  0.94918545048E+03  0.19900000000E+03 0.  0.
<mgrwt>
<rscale>  0 0.17662456E+04</rscale>
<asrwt>0</asrwt>
<pdfrwt beam="1">  1        1 0.14312364E+00 0.17662456E+04</pdfrwt>
<pdfrwt beam="2">  1       -1 0.11120766E+00 0.17662456E+04</pdfrwt>
<totfact> 0.12145045E+01</totfact>
</mgrwt>
</event>
<event>
 4    1  0.6480558E-006  0.4844806E+03  0.7818608E-02  0.1017911E+00
         -1   -1    0    0    0  501 -0.00000000000E+00  0.00000000000E+00  0.23946329705E+02  0.23946330235E+02  0.50400000000E-02 0. -1.
          1   -1    0    0  501    0  0.00000000000E+00 -0.00000000000E+00 -0.24504953611E+04  0.24504953611E+04  0.50400000000E-02 0.  1.
    5000001    1    1    2    0    0 -0.51510898223E+02 -0.11632208967E+03 -0.93846118839E+03  0.96772651265E+03  0.19900000000E+03 0.  0.
   -5000001    1    1    2    0    0  0.51510898223E+02  0.11632208967E+03 -0.14880878430E+04  0.15067151787E+04  0.19900000000E+03 0.  0.
<mgrwt>
<rscale>  0 0.48448063E+03</rscale>
<asrwt>0</asrwt>
<pdfrwt beam="1">  1        1 0.35007061E+00 0.48448063E+03</pdfrwt>
<pdfrwt beam="2">  1       -1 0.34209058E-02 0.48448063E+03</pdfrwt>
<totfact> 0.67701776E+02</totfact>
</mgrwt>
</event>
<event>
 4    1  0.6480558E-006  0.1072684E+04  0.7818608E-02  0.9232232E-01
         -1   -1    0    0    0  501 -0.00000000000E+00  0.00000000000E+00  0.31372392242E+03  0.31372392246E+03  0.50400000000E-02 0. -1.
          1   -1    0    0  501    0  0.00000000000E+00 -0.00000000000E+00 -0.91692980505E+03  0.91692980506E+03  0.50400000000E-02 0.  1.
    5000001    1    1    2    0    0  0.24453482569E+03  0.42257290775E+03 -0.18862975986E+03  0.55995297092E+03  0.19900000000E+03 0.  0.
   -5000001    1    1    2    0    0 -0.24453482569E+03 -0.42257290775E+03 -0.41457612278E+03  0.67070075661E+03  0.19900000000E+03 0.  0.
<mgrwt>
<rscale>  0 0.10726841E+04</rscale>
<asrwt>0</asrwt>
<pdfrwt beam="1">  1        1 0.13098997E+00 0.10726841E+04</pdfrwt>
<pdfrwt beam="2">  1       -1 0.44817704E-01 0.10726841E+04</pdfrwt>
<totfact> 0.98350364E+01</totfact>
</mgrwt>
</event>
<event>
 4    1  0.6480558E-006  0.7578799E+03  0.7818608E-02  0.9623069E-01
          1   -1    0    0  501    0  0.00000000000E+00  0.00000000000E+00  0.15882016555E+04  0.15882016555E+04  0.50400000000E-02 0.  1.
         -1   -1    0    0    0  501 -0.00000000000E+00 -0.00000000000E+00 -0.90413878139E+02  0.90413878279E+02  0.50400000000E-02 0. -1.
    5000001    1    1    2    0    0 -0.24820244848E+03  0.20394423971E+03  0.81141337117E+03  0.89509237917E+03  0.19900000000E+03 0.  0.
   -5000001    1    1    2    0    0  0.24820244848E+03 -0.20394423971E+03  0.68637440621E+03  0.78352315463E+03  0.19900000000E+03 0.  0.
<mgrwt>
<rscale>  0 0.75787986E+03</rscale>
<asrwt>0</asrwt>
<pdfrwt beam="1">  1        1 0.22688594E+00 0.75787986E+03</pdfrwt>
<pdfrwt beam="2">  1       -1 0.12916269E-01 0.75787986E+03</pdfrwt>
<totfact> 0.29040139E+02</totfact>
</mgrwt>
</event>
<event>
 4    1  0.6480558E-006  0.5528126E+03  0.7818608E-02  0.1000845E+00
         -1   -1    0    0    0  501 -0.00000000000E+00  0.00000000000E+00  0.18417501120E+03  0.18417501127E+03  0.50400000000E-02 0. -1.
          1   -1    0    0  501    0  0.00000000000E+00 -0.00000000000E+00 -0.41482528086E+03  0.41482528090E+03  0.50400000000E-02 0.  1.
    5000001    1    1    2    0    0  0.12046632434E+03 -0.12558676518E+03 -0.27863897577E+02  0.26582243637E+03  0.19900000000E+03 0.  0.
   -5000001    1    1    2    0    0 -0.12046632434E+03  0.12558676518E+03 -0.20278637209E+03  0.33317785580E+03  0.19900000000E+03 0.  0.
<mgrwt>
<rscale>  0 0.55281263E+03</rscale>
<asrwt>0</asrwt>
<pdfrwt beam="1">  1        1 0.59260754E-01 0.55281263E+03</pdfrwt>
<pdfrwt beam="2">  1       -1 0.26310716E-01 0.55281263E+03</pdfrwt>
<totfact> 0.81328192E+02</totfact>
</mgrwt>
</event>
<event>
 4    1  0.6480558E-006  0.6001847E+03  0.7818608E-02  0.9905023E-01
         -1   -1    0    0    0  501 -0.00000000000E+00  0.00000000000E+00  0.46302526645E+02  0.46302526919E+02  0.50400000000E-02 0.  1.
          1   -1    0    0  501    0  0.00000000000E+00 -0.00000000000E+00 -0.19449355901E+04  0.19449355901E+04  0.50400000000E-02 0. -1.
    5000001    1    1    2    0    0  0.16554297716E+03 -0.14395318742E+03 -0.11093743919E+04  0.11482332249E+04  0.19900000000E+03 0.  0.
   -5000001    1    1    2    0    0 -0.16554297716E+03  0.14395318742E+03 -0.78925867154E+03  0.84300489207E+03  0.19900000000E+03 0.  0.
<mgrwt>
<rscale>  0 0.60018475E+03</rscale>
<asrwt>0</asrwt>
<pdfrwt beam="1">  1        1 0.27784789E+00 0.60018475E+03</pdfrwt>
<pdfrwt beam="2">  1       -1 0.66146479E-02 0.60018475E+03</pdfrwt>
<totfact> 0.50352383E+02</totfact>
</mgrwt>
</event>
<event>
 4    1  0.6480558E-006  0.5521231E+03  0.7818608E-02  0.1001004E+00
          1   -1    0    0  501    0  0.00000000000E+00  0.00000000000E+00  0.36044873765E+03  0.36044873768E+03  0.50400000000E-02 0.  1.
         -1   -1    0    0    0  501 -0.00000000000E+00 -0.00000000000E+00 -0.21143085246E+03  0.21143085252E+03  0.50400000000E-02 0. -1.
    5000001    1    1    2    0    0  0.19965868210E+02  0.19010838663E+03  0.83122105738E+02  0.28818417552E+03  0.19900000000E+03 0.  0.
   -5000001    1    1    2    0    0 -0.19965868210E+02 -0.19010838663E+03  0.65895779446E+02  0.28369541468E+03  0.19900000000E+03 0.  0.
<mgrwt>
<rscale>  0 0.55212312E+03</rscale>
<asrwt>0</asrwt>
<pdfrwt beam="1">  1        1 0.51492677E-01 0.55212312E+03</pdfrwt>
<pdfrwt beam="2">  1       -1 0.30204408E-01 0.55212312E+03</pdfrwt>
<totfact> 0.77023498E+02</totfact>
</mgrwt>
</event>
<event>
 4    1  0.6480558E-006  0.6357061E+03  0.7818608E-02  0.9833977E-01
         -1   -1    0    0    0  501 -0.00000000000E+00  0.00000000000E+00  0.38942308634E+02  0.38942308960E+02  0.50400000000E-02 0. -1.
          1   -1    0    0  501    0  0.00000000000E+00 -0.00000000000E+00 -0.25943651064E+04  0.25943651064E+04  0.50400000000E-02 0.  1.
    5000001    1    1    2    0    0 -0.18976814047E+02  0.19440426991E+03 -0.19096913972E+04  0.19299418054E+04  0.19900000000E+03 0.  0.
   -5000001    1    1    2    0    0  0.18976814047E+02 -0.19440426991E+03 -0.64573140057E+03  0.70336560999E+03  0.19900000000E+03 0.  0.
<mgrwt>
<rscale>  0 0.63570612E+03</rscale>
<asrwt>0</asrwt>
<pdfrwt beam="1">  1        1 0.37062348E+00 0.63570612E+03</pdfrwt>
<pdfrwt beam="2">  1       -1 0.55631886E-02 0.63570612E+03</pdfrwt>
<totfact> 0.25940798E+02</totfact>
</mgrwt>
</event>
<event>
 4    1  0.6480558E-006  0.6254450E+03  0.7818608E-02  0.9853978E-01
          1   -1    0    0  501    0  0.00000000000E+00  0.00000000000E+00  0.50518207443E+02  0.50518207694E+02  0.50400000000E-02 0. -1.
         -1   -1    0    0    0  501 -0.00000000000E+00 -0.00000000000E+00 -0.19358437906E+04  0.19358437907E+04  0.50400000000E-02 0.  1.
    5000001    1    1    2    0    0 -0.20304906187E+03 -0.11198282205E+03 -0.73139179613E+03  0.79265631481E+03  0.19900000000E+03 0.  0.
   -5000001    1    1    2    0    0  0.20304906187E+03  0.11198282205E+03 -0.11539337871E+04  0.11937056835E+04  0.19900000000E+03 0.  0.
<mgrwt>
<rscale>  0 0.62544499E+03</rscale>
<asrwt>0</asrwt>
<pdfrwt beam="1">  1        1 0.72168880E-02 0.62544499E+03</pdfrwt>
<pdfrwt beam="2">  1       -1 0.27654907E+00 0.62544499E+03</pdfrwt>
<totfact> 0.51876425E+01</totfact>
</mgrwt>
</event>
<event>
 4    1  0.6480558E-006  0.4255909E+03  0.7818608E-02  0.1035262E+00
          1   -1    0    0  501    0  0.00000000000E+00  0.00000000000E+00  0.87325170416E+02  0.87325170561E+02  0.50400000000E-02 0. -1.
         -1   -1    0    0    0  501 -0.00000000000E+00 -0.00000000000E+00 -0.51854364087E+03  0.51854364090E+03  0.50400000000E-02 0.  1.
    5000001    1    1    2    0    0 -0.48691384355E+02  0.14195779681E+02 -0.13623774971E+03  0.24644288490E+03  0.19900000000E+03 0.  0.
   -5000001    1    1    2    0    0  0.48691384355E+02 -0.14195779681E+02 -0.29498072074E+03  0.35942592656E+03  0.19900000000E+03 0.  0.
<mgrwt>
<rscale>  0 0.42559094E+03</rscale>
<asrwt>0</asrwt>
<pdfrwt beam="1">  1        1 0.12475025E-01 0.42559094E+03</pdfrwt>
<pdfrwt beam="2">  1       -1 0.74077661E-01 0.42559094E+03</pdfrwt>
<totfact> 0.91402241E+02</totfact>
</mgrwt>
</event>
<event>
 4    1  0.6480558E-006  0.5978050E+03  0.7818608E-02  0.9909970E-01
         -1   -1    0    0    0  501 -0.00000000000E+00  0.00000000000E+00  0.32780385926E+03  0.32780385929E+03  0.50400000000E-02 0. -1.
          1   -1    0    0  501    0  0.00000000000E+00 -0.00000000000E+00 -0.27254929794E+03  0.27254929799E+03  0.50400000000E-02 0.  1.
    5000001    1    1    2    0    0 -0.11707860994E+03  0.18961988088E+03  0.36531391467E+02  0.30099608418E+03  0.19900000000E+03 0.  0.
   -5000001    1    1    2    0    0  0.11707860994E+03 -0.18961988088E+03  0.18723169846E+02  0.29935707310E+03  0.19900000000E+03 0.  0.
<mgrwt>
<rscale>  0 0.59780502E+03</rscale>
<asrwt>0</asrwt>
<pdfrwt beam="1">  1        1 0.38935614E-01 0.59780502E+03</pdfrwt>
<pdfrwt beam="2">  1       -1 0.46829123E-01 0.59780502E+03</pdfrwt>
<totfact> 0.50247687E+02</totfact>
</mgrwt>
</event>
<event>
 4    1  0.6480558E-006  0.4391283E+03  0.7818608E-02  0.1031015E+00
          1   -1    0    0  501    0  0.00000000000E+00  0.00000000000E+00  0.30200076126E+03  0.30200076130E+03  0.50400000000E-02 0.  1.
         -1   -1    0    0    0  501 -0.00000000000E+00 -0.00000000000E+00 -0.15963011241E+03  0.15963011249E+03  0.50400000000E-02 0. -1.
    5000001    1    1    2    0    0 -0.77433056047E+02  0.35054093445E+02  0.11027615693E+03  0.24287136188E+03  0.19900000000E+03 0.  0.
   -5000001    1    1    2    0    0  0.77433056047E+02 -0.35054093445E+02  0.32094491922E+02  0.21875951190E+03  0.19900000000E+03 0.  0.
<mgrwt>
<rscale>  0 0.43912830E+03</rscale>
<asrwt>0</asrwt>
<pdfrwt beam="1">  1        1 0.43142966E-01 0.43912830E+03</pdfrwt>
<pdfrwt beam="2">  1       -1 0.22804302E-01 0.43912830E+03</pdfrwt>
<totfact> 0.15589078E+03</totfact>
</mgrwt>
</event>
<event>
 4    1  0.6480558E-006  0.7719645E+03  0.7818608E-02  0.9601508E-01
         -1   -1    0    0    0  501 -0.00000000000E+00  0.00000000000E+00  0.60091573901E+02  0.60091574112E+02  0.50400000000E-02 0. -1.
          1   -1    0    0  501    0  0.00000000000E+00 -0.00000000000E+00 -0.24792545032E+04  0.24792545032E+04  0.50400000000E-02 0.  1.
    5000001    1    1    2    0    0 -0.15262921677E+03 -0.14837110417E+02 -0.24567726386E+03  0.35138886669E+03  0.19900000000E+03 0.  0.
   -5000001    1    1    2    0    0  0.15262921677E+03  0.14837110417E+02 -0.21734856654E+04  0.21879572106E+04  0.19900000000E+03 0.  0.
<mgrwt>
<rscale>  0 0.77196452E+03</rscale>
<asrwt>0</asrwt>
<pdfrwt beam="1">  1        1 0.35417915E+00 0.77196452E+03</pdfrwt>
<pdfrwt beam="2">  1       -1 0.85845121E-02 0.77196452E+03</pdfrwt>
<totfact> 0.15412820E+02</totfact>
</mgrwt>
</event>
<event>
 4    1  0.6480558E-006  0.5057551E+03  0.7818608E-02  0.1012288E+00
          1   -1    0    0  501    0  0.00000000000E+00  0.00000000000E+00  0.89029250773E+03  0.89029250774E+03  0.50400000000E-02 0.  1.
         -1   -1    0    0    0  501 -0.00000000000E+00 -0.00000000000E+00 -0.71827010622E+02  0.71827010799E+02  0.50400000000E-02 0. -1.
    5000001    1    1    2    0    0 -0.10573893795E+03  0.91973521012E+02  0.27872873491E+03  0.37004129396E+03  0.19900000000E+03 0.  0.
   -5000001    1    1    2    0    0  0.10573893795E+03 -0.91973521012E+02  0.53973676219E+03  0.59207822459E+03  0.19900000000E+03 0.  0.
<mgrwt>
<rscale>  0 0.50575508E+03</rscale>
<asrwt>0</asrwt>
<pdfrwt beam="1">  1        1 0.12718465E+00 0.50575508E+03</pdfrwt>
<pdfrwt beam="2">  1       -1 0.10261001E-01 0.50575508E+03</pdfrwt>
<totfact> 0.12799993E+03</totfact>
</mgrwt>
</event>
<event>
 4    1  0.6480558E-006  0.4808594E+03  0.7818608E-02  0.1018899E+00
         -1   -1    0    0    0  501 -0.00000000000E+00  0.00000000000E+00  0.24508022002E+02  0.24508022520E+02  0.50400000000E-02 0.  1.
          1   -1    0    0  501    0  0.00000000000E+00 -0.00000000000E+00 -0.23586739520E+04  0.23586739520E+04  0.50400000000E-02 0. -1.
    5000001    1    1    2    0    0  0.48479091335E+02  0.12581229803E+03 -0.11415809585E+04  0.11666134927E+04  0.19900000000E+03 0.  0.
   -5000001    1    1    2    0    0 -0.48479091335E+02 -0.12581229803E+03 -0.11925849715E+04  0.12165684817E+04  0.19900000000E+03 0.  0.
<mgrwt>
<rscale>  0 0.48085937E+03</rscale>
<asrwt>0</asrwt>
<pdfrwt beam="1">  1        1 0.33695328E+00 0.48085937E+03</pdfrwt>
<pdfrwt beam="2">  1       -1 0.35011475E-02 0.48085937E+03</pdfrwt>
<totfact> 0.74517449E+02</totfact>
</mgrwt>
</event>
<event>
 4    1  0.6480558E-006  0.9287276E+03  0.7818608E-02  0.9390366E-01
          1   -1    0    0  501    0  0.00000000000E+00  0.00000000000E+00  0.15384038205E+04  0.15384038205E+04  0.50400000000E-02 0. -1.
         -1   -1    0    0    0  501 -0.00000000000E+00 -0.00000000000E+00 -0.14016719465E+03  0.14016719474E+03  0.50400000000E-02 0.  1.
    5000001    1    1    2    0    0  0.36568014193E+03  0.20465936534E+03  0.73639284788E+03  0.87033490591E+03  0.19900000000E+03 0.  0.
   -5000001    1    1    2    0    0 -0.36568014193E+03 -0.20465936534E+03  0.66184377796E+03  0.80823610934E+03  0.19900000000E+03 0.  0.
<mgrwt>
<rscale>  0 0.92872762E+03</rscale>
<asrwt>0</asrwt>
<pdfrwt beam="1">  1        1 0.21977198E+00 0.92872762E+03</pdfrwt>
<pdfrwt beam="2">  1       -1 0.20023884E-01 0.92872762E+03</pdfrwt>
<totfact> 0.15064011E+02</totfact>
</mgrwt>
</event>
<event>
 4    1  0.6480558E-006  0.7048722E+03  0.7818608E-02  0.9708936E-01
          1   -1    0    0  501    0  0.00000000000E+00  0.00000000000E+00  0.10554598268E+04  0.10554598268E+04  0.50400000000E-02 0. -1.
         -1   -1    0    0    0  501 -0.00000000000E+00 -0.00000000000E+00 -0.11768443372E+03  0.11768443383E+03  0.50400000000E-02 0.  1.
    5000001    1    1    2    0    0  0.19146054322E+02  0.29005805854E+03  0.48633890922E+03  0.60052209230E+03  0.19900000000E+03 0.  0.
   -5000001    1    1    2    0    0 -0.19146054322E+02 -0.29005805854E+03  0.45143648387E+03  0.57262216835E+03  0.19900000000E+03 0.  0.
<mgrwt>
<rscale>  0 0.70487216E+03</rscale>
<asrwt>0</asrwt>
<pdfrwt beam="1">  1        1 0.15077999E+00 0.70487216E+03</pdfrwt>
<pdfrwt beam="2">  1       -1 0.16812060E-01 0.70487216E+03</pdfrwt>
<totfact> 0.43275325E+02</totfact>
</mgrwt>
</event>
<event>
 4    1  0.6480558E-006  0.6528375E+03  0.7818608E-02  0.9801469E-01
          1   -1    0    0  501    0  0.00000000000E+00  0.00000000000E+00  0.92913219647E+03  0.92913219649E+03  0.50400000000E-02 0.  1.
         -1   -1    0    0    0  501 -0.00000000000E+00 -0.00000000000E+00 -0.11467603714E+03  0.11467603725E+03  0.50400000000E-02 0. -1.
    5000001    1    1    2    0    0 -0.51519898236E+02 -0.17858571641E+03  0.11942521879E+03  0.29733910086E+03  0.19900000000E+03 0.  0.
   -5000001    1    1    2    0    0  0.51519898236E+02  0.17858571641E+03  0.69503094055E+03  0.74646913288E+03  0.19900000000E+03 0.  0.
<mgrwt>
<rscale>  0 0.65283749E+03</rscale>
<asrwt>0</asrwt>
<pdfrwt beam="1">  1        1 0.13273316E+00 0.65283749E+03</pdfrwt>
<pdfrwt beam="2">  1       -1 0.16382292E-01 0.65283749E+03</pdfrwt>
<totfact> 0.56207485E+02</totfact>
</mgrwt>
</event>
<event>
 4    1  0.6480558E-006  0.9167029E+03  0.7818608E-02  0.9404940E-01
         -1   -1    0    0    0  501 -0.00000000000E+00  0.00000000000E+00  0.18451250121E+03  0.18451250128E+03  0.50400000000E-02 0.  1.
          1   -1    0    0  501    0  0.00000000000E+00 -0.00000000000E+00 -0.11386005892E+04  0.11386005892E+04  0.50400000000E-02 0. -1.
    5000001    1    1    2    0    0  0.20931816353E+03  0.33346312706E+03 -0.29750466019E+03  0.53209188448E+03  0.19900000000E+03 0.  0.
   -5000001    1    1    2    0    0 -0.20931816353E+03 -0.33346312706E+03 -0.65658342777E+03  0.79102120598E+03  0.19900000000E+03 0.  0.
<mgrwt>
<rscale>  0 0.91670288E+03</rscale>
<asrwt>0</asrwt>
<pdfrwt beam="1">  1        1 0.16265722E+00 0.91670288E+03</pdfrwt>
<pdfrwt beam="2">  1       -1 0.26358929E-01 0.91670288E+03</pdfrwt>
<totfact> 0.17546307E+02</totfact>
</mgrwt>
</event>
<event>
 4    1  0.6480558E-006  0.5019163E+03  0.7818608E-02  0.1013280E+00
         -1   -1    0    0    0  501 -0.00000000000E+00  0.00000000000E+00  0.60784219558E+02  0.60784219767E+02  0.50400000000E-02 0. -1.
          1   -1    0    0  501    0  0.00000000000E+00 -0.00000000000E+00 -0.10361239195E+04  0.10361239195E+04  0.50400000000E-02 0.  1.
    5000001    1    1    2    0    0 -0.88504305945E+02 -0.12433454767E+03 -0.50804162762E+03  0.56656807827E+03  0.19900000000E+03 0.  0.
   -5000001    1    1    2    0    0  0.88504305945E+02  0.12433454767E+03 -0.46729807230E+03  0.53034006099E+03  0.19900000000E+03 0.  0.
<mgrwt>
<rscale>  0 0.50191626E+03</rscale>
<asrwt>0</asrwt>
<pdfrwt beam="1">  1        1 0.14801769E+00 0.50191626E+03</pdfrwt>
<pdfrwt beam="2">  1       -1 0.86834606E-02 0.50191626E+03</pdfrwt>
<totfact> 0.12926597E+03</totfact>
</mgrwt>
</event>
<event>
 4    1  0.6480558E-006  0.6105191E+03  0.7818608E-02  0.9883819E-01
         -1   -1    0    0    0  501 -0.00000000000E+00  0.00000000000E+00  0.30718840983E+03  0.30718840987E+03  0.50400000000E-02 0. -1.
          1   -1    0    0  501    0  0.00000000000E+00 -0.00000000000E+00 -0.30334278159E+03  0.30334278163E+03  0.50400000000E-02 0.  1.
    5000001    1    1    2    0    0 -0.65377141295E+02 -0.21151324105E+03 -0.65683001645E+02  0.30483975864E+03  0.19900000000E+03 0.  0.
   -5000001    1    1    2    0    0  0.65377141295E+02  0.21151324105E+03  0.69528629887E+02  0.30569143285E+03  0.19900000000E+03 0.  0.
<mgrwt>
<rscale>  0 0.61051908E+03</rscale>
<asrwt>0</asrwt>
<pdfrwt beam="1">  1        1 0.43334683E-01 0.61051908E+03</pdfrwt>
<pdfrwt beam="2">  1       -1 0.43884059E-01 0.61051908E+03</pdfrwt>
<totfact> 0.49359825E+02</totfact>
</mgrwt>
</event>
<event>
 4    1  0.6480558E-006  0.4673456E+03  0.7818608E-02  0.1022672E+00
          1   -1    0    0  501    0  0.00000000000E+00  0.00000000000E+00  0.14948474662E+04  0.14948474662E+04  0.50400000000E-02 0. -1.
         -1   -1    0    0    0  501 -0.00000000000E+00 -0.00000000000E+00 -0.36527460697E+02  0.36527461045E+02  0.50400000000E-02 0.  1.
    5000001    1    1    2    0    0 -0.22771900401E+02  0.92386374255E+02  0.47644243503E+03  0.52502589983E+03  0.19900000000E+03 0.  0.
   -5000001    1    1    2    0    0  0.22771900401E+02 -0.92386374255E+02  0.98187757048E+03  0.10063490274E+04  0.19900000000E+03 0.  0.
<mgrwt>
<rscale>  0 0.46734562E+03</rscale>
<asrwt>0</asrwt>
<pdfrwt beam="1">  1        1 0.21354961E+00 0.46734562E+03</pdfrwt>
<pdfrwt beam="2">  1       -1 0.52182094E-02 0.46734562E+03</pdfrwt>
<totfact> 0.13944958E+03</totfact>
</mgrwt>
</event>
<event>
 4    1  0.6480558E-006  0.7187393E+03  0.7818608E-02  0.9685711E-01
          1   -1    0    0  501    0  0.00000000000E+00  0.00000000000E+00  0.21335230121E+04  0.21335230121E+04  0.50400000000E-02 0. -1.
         -1   -1    0    0    0  501 -0.00000000000E+00 -0.00000000000E+00 -0.60532061435E+02  0.60532061645E+02  0.50400000000E-02 0.  1.
    5000001    1    1    2    0    0 -0.28415193708E+03 -0.88586678288E+02  0.11308623365E+04  0.11861873996E+04  0.19900000000E+03 0.  0.
   -5000001    1    1    2    0    0  0.28415193708E+03  0.88586678288E+02  0.94212861419E+03  0.10078676741E+04  0.19900000000E+03 0.  0.
<mgrwt>
<rscale>  0 0.71873930E+03</rscale>
<asrwt>0</asrwt>
<pdfrwt beam="1">  1        1 0.30478897E+00 0.71873930E+03</pdfrwt>
<pdfrwt beam="2">  1       -1 0.86474382E-02 0.71873930E+03</pdfrwt>
<totfact> 0.25122905E+02</totfact>
</mgrwt>
</event>
<event>
 4    1  0.6480558E-006  0.5513674E+03  0.7818608E-02  0.1001178E+00
          1   -1    0    0  501    0  0.00000000000E+00  0.00000000000E+00  0.24634694895E+04  0.24634694895E+04  0.50400000000E-02 0.  1.
         -1   -1    0    0    0  501 -0.00000000000E+00 -0.00000000000E+00 -0.30851404756E+02  0.30851405168E+02  0.50400000000E-02 0. -1.
    5000001    1    1    2    0    0  0.49906897839E+02 -0.16417904167E+03  0.83903142875E+03  0.87921567013E+03  0.19900000000E+03 0.  0.
   -5000001    1    1    2    0    0 -0.49906897839E+02  0.16417904167E+03  0.15935866560E+04  0.16151052245E+04  0.19900000000E+03 0.  0.
<mgrwt>
<rscale>  0 0.55136737E+03</rscale>
<asrwt>0</asrwt>
<pdfrwt beam="1">  1        1 0.35192428E+00 0.55136737E+03</pdfrwt>
<pdfrwt beam="2">  1       -1 0.44073427E-02 0.55136737E+03</pdfrwt>
<totfact> 0.45048842E+02</totfact>
</mgrwt>
</event>
<event>
 4    1  0.6480558E-006  0.9823812E+03  0.7818608E-02  0.9328083E-01
         -1   -1    0    0    0  501 -0.00000000000E+00  0.00000000000E+00  0.90495358617E+02  0.90495358757E+02  0.50400000000E-02 0. -1.
          1   -1    0    0  501    0  0.00000000000E+00 -0.00000000000E+00 -0.26660839263E+04  0.26660839263E+04  0.50400000000E-02 0.  1.
    5000001    1    1    2    0    0  0.29920446162E+03 -0.17661327980E+03 -0.48942593175E+03  0.63234033804E+03  0.19900000000E+03 0.  0.
   -5000001    1    1    2    0    0 -0.29920446162E+03  0.17661327980E+03 -0.20861626359E+04  0.21242389470E+04  0.19900000000E+03 0.  0.
<mgrwt>
<rscale>  0 0.98238123E+03</rscale>
<asrwt>0</asrwt>
<pdfrwt beam="1">  1        1 0.38086908E+00 0.98238123E+03</pdfrwt>
<pdfrwt beam="2">  1       -1 0.12927910E-01 0.98238123E+03</pdfrwt>
<totfact> 0.60009172E+01</totfact>
</mgrwt>
</event>
<event>
 4    1  0.6480558E-006  0.1162595E+04  0.7818608E-02  0.9146242E-01
          1   -1    0    0  501    0  0.00000000000E+00  0.00000000000E+00  0.20254510107E+04  0.20254510107E+04  0.50400000000E-02 0. -1.
         -1   -1    0    0    0  501 -0.00000000000E+00 -0.00000000000E+00 -0.16683045984E+03  0.16683045992E+03  0.50400000000E-02 0.  1.
    5000001    1    1    2    0    0 -0.16262864566E+02  0.54416103114E+03  0.10121560988E+04  0.11663775876E+04  0.19900000000E+03 0.  0.
   -5000001    1    1    2    0    0  0.16262864566E+02 -0.54416103114E+03  0.84646445214E+03  0.10259038831E+04  0.19900000000E+03 0.  0.
<mgrwt>
<rscale>  0 0.11625952E+04</rscale>
<asrwt>0</asrwt>
<pdfrwt beam="1">  1        1 0.28935016E+00 0.11625952E+04</pdfrwt>
<pdfrwt beam="2">  1       -1 0.23832922E-01 0.11625952E+04</pdfrwt>
<totfact> 0.54244769E+01</totfact>
</mgrwt>
</event>
<event>
 4    1  0.6480558E-006  0.4657247E+03  0.7818608E-02  0.1023134E+00
         -1   -1    0    0    0  501 -0.00000000000E+00  0.00000000000E+00  0.48224996728E+03  0.48224996731E+03  0.50400000000E-02 0.  1.
          1   -1    0    0  501    0  0.00000000000E+00 -0.00000000000E+00 -0.11244141461E+03  0.11244141473E+03  0.50400000000E-02 0. -1.
    5000001    1    1    2    0    0  0.10219146860E+03 -0.16563543121E+01  0.26744116808E+03  0.34867121783E+03  0.19900000000E+03 0.  0.
   -5000001    1    1    2    0    0 -0.10219146860E+03  0.16563543121E+01  0.10236738459E+03  0.24602016420E+03  0.19900000000E+03 0.  0.
<mgrwt>
<rscale>  0 0.46572468E+03</rscale>
<asrwt>0</asrwt>
<pdfrwt beam="1">  1        1 0.16063059E-01 0.46572468E+03</pdfrwt>
<pdfrwt beam="2">  1       -1 0.68892853E-01 0.46572468E+03</pdfrwt>
<totfact> 0.75549903E+02</totfact>
</mgrwt>
</event>
<event>
 4    1  0.6480558E-006  0.4411274E+03  0.7818608E-02  0.1030401E+00
          1   -1    0    0  501    0  0.00000000000E+00  0.00000000000E+00  0.78190861800E+02  0.78190861962E+02  0.50400000000E-02 0.  1.
         -1   -1    0    0    0  501 -0.00000000000E+00 -0.00000000000E+00 -0.62217443401E+03  0.62217443403E+03  0.50400000000E-02 0. -1.
    5000001    1    1    2    0    0 -0.46351579354E+02 -0.52867012573E+02 -0.37370148830E+03  0.42918200368E+03  0.19900000000E+03 0.  0.
   -5000001    1    1    2    0    0  0.46351579354E+02  0.52867012573E+02 -0.17028208391E+03  0.27118329231E+03  0.19900000000E+03 0.  0.
<mgrwt>
<rscale>  0 0.44112744E+03</rscale>
<asrwt>0</asrwt>
<pdfrwt beam="1">  1        1 0.11170123E-01 0.44112744E+03</pdfrwt>
<pdfrwt beam="2">  1       -1 0.88882059E-01 0.44112744E+03</pdfrwt>
<totfact> 0.72278310E+02</totfact>
</mgrwt>
</event>
<event>
 4    1  0.6480558E-006  0.5233539E+03  0.7818608E-02  0.1007857E+00
          1   -1    0    0  501    0  0.00000000000E+00  0.00000000000E+00  0.66842954378E+03  0.66842954380E+03  0.50400000000E-02 0.  1.
         -1   -1    0    0    0  501 -0.00000000000E+00 -0.00000000000E+00 -0.10244134701E+03  0.10244134713E+03  0.50400000000E-02 0. -1.
    5000001    1    1    2    0    0  0.25655179835E+02  0.13440348667E+03  0.13458934084E+03  0.27647382543E+03  0.19900000000E+03 0.  0.
   -5000001    1    1    2    0    0 -0.25655179835E+02 -0.13440348667E+03  0.43139885593E+03  0.49439706550E+03  0.19900000000E+03 0.  0.
<mgrwt>
<rscale>  0 0.52335389E+03</rscale>
<asrwt>0</asrwt>
<pdfrwt beam="1">  1        1 0.95489934E-01 0.52335389E+03</pdfrwt>
<pdfrwt beam="2">  1       -1 0.14634478E-01 0.52335389E+03</pdfrwt>
<totfact> 0.11213335E+03</totfact>
</mgrwt>
</event>
<event>
 4    1  0.6480558E-006  0.5730119E+03  0.7818608E-02  0.9963036E-01
         -1   -1    0    0    0  501 -0.00000000000E+00  0.00000000000E+00  0.11286294490E+03  0.11286294501E+03  0.50400000000E-02 0. -1.
          1   -1    0    0  501    0  0.00000000000E+00 -0.00000000000E+00 -0.72730387955E+03  0.72730387957E+03  0.50400000000E-02 0.  1.
    5000001    1    1    2    0    0 -0.84180919638E+02 -0.90901478514E+02 -0.54874876410E+03  0.59672079915E+03  0.19900000000E+03 0.  0.
   -5000001    1    1    2    0    0  0.84180919638E+02  0.90901478514E+02 -0.65692170554E+02  0.24344602543E+03  0.19900000000E+03 0.  0.
<mgrwt>
<rscale>  0 0.57301189E+03</rscale>
<asrwt>0</asrwt>
<pdfrwt beam="1">  1        1 0.10390055E+00 0.57301189E+03</pdfrwt>
<pdfrwt beam="2">  1       -1 0.16123278E-01 0.57301189E+03</pdfrwt>
<totfact> 0.84674989E+02</totfact>
</mgrwt>
</event>
<event>
 4    1  0.6480558E-006  0.8530405E+03  0.7818608E-02  0.9486265E-01
          1   -1    0    0  501    0  0.00000000000E+00  0.00000000000E+00  0.20645339572E+04  0.20645339572E+04  0.50400000000E-02 0. -1.
         -1   -1    0    0    0  501 -0.00000000000E+00 -0.00000000000E+00 -0.88116505453E+02  0.88116505597E+02  0.50400000000E-02 0.  1.
    5000001    1    1    2    0    0 -0.22961374109E+03 -0.24230240654E+03  0.14316966869E+04  0.14835057565E+04  0.19900000000E+03 0.  0.
   -5000001    1    1    2    0    0  0.22961374109E+03  0.24230240654E+03  0.54472076487E+03  0.66914470632E+03  0.19900000000E+03 0.  0.
<mgrwt>
<rscale>  0 0.85304049E+03</rscale>
<asrwt>0</asrwt>
<pdfrwt beam="1">  1        1 0.29493340E+00 0.85304049E+03</pdfrwt>
<pdfrwt beam="2">  1       -1 0.12588073E-01 0.85304049E+03</pdfrwt>
<totfact> 0.15103114E+02</totfact>
</mgrwt>
</event>
<event>
 4    1  0.6480558E-006  0.5246265E+03  0.7818608E-02  0.1007544E+00
         -1   -1    0    0    0  501 -0.00000000000E+00  0.00000000000E+00  0.65162303184E+03  0.65162303185E+03  0.50400000000E-02 0.  1.
          1   -1    0    0  501    0  0.00000000000E+00 -0.00000000000E+00 -0.10559514715E+03  0.10559514727E+03  0.50400000000E-02 0. -1.
    5000001    1    1    2    0    0  0.13371323215E+03 -0.10640542393E+03  0.26951184173E+03  0.37608373473E+03  0.19900000000E+03 0.  0.
   -5000001    1    1    2    0    0 -0.13371323215E+03  0.10640542393E+03  0.27651604296E+03  0.38113444440E+03  0.19900000000E+03 0.  0.
<mgrwt>
<rscale>  0 0.52462646E+03</rscale>
<asrwt>0</asrwt>
<pdfrwt beam="1">  1        1 0.15085021E-01 0.52462646E+03</pdfrwt>
<pdfrwt beam="2">  1       -1 0.93089007E-01 0.52462646E+03</pdfrwt>
<totfact> 0.43521489E+02</totfact>
</mgrwt>
</event>
<event>
 4    1  0.6480558E-006  0.5923734E+03  0.7818608E-02  0.9921356E-01
          1   -1    0    0  501    0  0.00000000000E+00  0.00000000000E+00  0.14073933071E+03  0.14073933080E+03  0.50400000000E-02 0. -1.
         -1   -1    0    0    0  501 -0.00000000000E+00 -0.00000000000E+00 -0.62332658892E+03  0.62332658894E+03  0.50400000000E-02 0.  1.
    5000001    1    1    2    0    0  0.13681858897E+03  0.14703639691E+03 -0.35511072198E+03  0.45392031588E+03  0.19900000000E+03 0.  0.
   -5000001    1    1    2    0    0 -0.13681858897E+03 -0.14703639691E+03 -0.12747653624E+03  0.31014560386E+03  0.19900000000E+03 0.  0.
<mgrwt>
<rscale>  0 0.59237342E+03</rscale>
<asrwt>0</asrwt>
<pdfrwt beam="1">  1        1 0.20105619E-01 0.59237342E+03</pdfrwt>
<pdfrwt beam="2">  1       -1 0.89046654E-01 0.59237342E+03</pdfrwt>
<totfact> 0.32691198E+02</totfact>
</mgrwt>
</event>
<event>
 4    1  0.6480558E-006  0.1329852E+04  0.7818608E-02  0.9006221E-01
         -1   -1    0    0    0  501 -0.00000000000E+00  0.00000000000E+00  0.15233461926E+04  0.15233461926E+04  0.50400000000E-02 0. -1.
          1   -1    0    0  501    0  0.00000000000E+00 -0.00000000000E+00 -0.29023387967E+03  0.29023387971E+03  0.50400000000E-02 0.  1.
    5000001    1    1    2    0    0  0.19952066955E+01 -0.62901586512E+03  0.50359770258E+03  0.82998589474E+03  0.19900000000E+03 0.  0.
   -5000001    1    1    2    0    0 -0.19952066955E+01  0.62901586512E+03  0.72951461032E+03  0.98359417754E+03  0.19900000000E+03 0.  0.
<mgrwt>
<rscale>  0 0.13298521E+04</rscale>
<asrwt>0</asrwt>
<pdfrwt beam="1">  1        1 0.41461983E-01 0.13298521E+04</pdfrwt>
<pdfrwt beam="2">  1       -1 0.21762088E+00 0.13298521E+04</pdfrwt>
<totfact> 0.11302769E+01</totfact>
</mgrwt>
</event>
<event>
 4    1  0.6480558E-006  0.7774463E+03  0.7818608E-02  0.9593249E-01
         -1   -1    0    0    0  501 -0.00000000000E+00  0.00000000000E+00  0.37414274915E+03  0.37414274918E+03  0.50400000000E-02 0. -1.
          1   -1    0    0  501    0  0.00000000000E+00 -0.00000000000E+00 -0.40387177005E+03  0.40387177008E+03  0.50400000000E-02 0.  1.
    5000001    1    1    2    0    0 -0.32491344233E+03 -0.27472961597E+02  0.57168550844E+02  0.38625477580E+03  0.19900000000E+03 0.  0.
   -5000001    1    1    2    0    0  0.32491344233E+03  0.27472961597E+02 -0.86897571742E+02  0.39175974346E+03  0.19900000000E+03 0.  0.
<mgrwt>
<rscale>  0 0.77744632E+03</rscale>
<asrwt>0</asrwt>
<pdfrwt beam="1">  1        1 0.57695967E-01 0.77744632E+03</pdfrwt>
<pdfrwt beam="2">  1       -1 0.53448964E-01 0.77744632E+03</pdfrwt>
<totfact> 0.23345471E+02</totfact>
</mgrwt>
</event>
<event>
 4    1  0.6480558E-006  0.1050354E+04  0.7818608E-02  0.9254979E-01
          1   -1    0    0  501    0  0.00000000000E+00  0.00000000000E+00  0.57406443823E+03  0.57406443826E+03  0.50400000000E-02 0.  1.
         -1   -1    0    0    0  501 -0.00000000000E+00 -0.00000000000E+00 -0.48045263677E+03  0.48045263679E+03  0.50400000000E-02 0. -1.
    5000001    1    1    2    0    0 -0.28405818790E+02  0.40763121365E+03 -0.21737141431E+03  0.50380693588E+03  0.19900000000E+03 0.  0.
   -5000001    1    1    2    0    0  0.28405818790E+02 -0.40763121365E+03  0.31098321578E+03  0.55071013917E+03  0.19900000000E+03 0.  0.
<mgrwt>
<rscale>  0 0.10503538E+04</rscale>
<asrwt>0</asrwt>
<pdfrwt beam="1">  1        1 0.82009205E-01 0.10503538E+04</pdfrwt>
<pdfrwt beam="2">  1       -1 0.68636091E-01 0.10503538E+04</pdfrwt>
<totfact> 0.87132441E+01</totfact>
</mgrwt>
</event>
<event>
 4    1  0.6480558E-006  0.8420030E+03  0.7818608E-02  0.9501134E-01
         -1   -1    0    0    0  501 -0.00000000000E+00  0.00000000000E+00  0.32438540418E+03  0.32438540422E+03  0.50400000000E-02 0.  1.
          1   -1    0    0  501    0  0.00000000000E+00 -0.00000000000E+00 -0.54639408195E+03  0.54639408198E+03  0.50400000000E-02 0. -1.
    5000001    1    1    2    0    0 -0.23765902104E+03  0.23401361362E+03 -0.27902880381E+03  0.47822824571E+03  0.19900000000E+03 0.  0.
   -5000001    1    1    2    0    0  0.23765902104E+03 -0.23401361362E+03  0.57020126036E+02  0.39255124049E+03  0.19900000000E+03 0.  0.
<mgrwt>
<rscale>  0 0.84200301E+03</rscale>
<asrwt>0</asrwt>
<pdfrwt beam="1">  1        1 0.78056297E-01 0.84200301E+03</pdfrwt>
<pdfrwt beam="2">  1       -1 0.46340772E-01 0.84200301E+03</pdfrwt>
<totfact> 0.20312802E+02</totfact>
</mgrwt>
</event>
<event>
 4    1  0.6480558E-006  0.1816220E+04  0.7818608E-02  0.8697721E-01
          1   -1    0    0  501    0  0.00000000000E+00  0.00000000000E+00  0.22539036642E+04  0.22539036642E+04  0.50400000000E-02 0.  1.
         -1   -1    0    0    0  501 -0.00000000000E+00 -0.00000000000E+00 -0.36588224783E+03  0.36588224787E+03  0.50400000000E-02 0. -1.
    5000001    1    1    2    0    0 -0.84539914244E+03  0.26017889834E+03  0.86948294040E+03  0.12561824520E+04  0.19900000000E+03 0.  0.
   -5000001    1    1    2    0    0  0.84539914244E+03 -0.26017889834E+03  0.10185384760E+04  0.13636034601E+04  0.19900000000E+03 0.  0.
<mgrwt>
<rscale>  0 0.18162195E+04</rscale>
<asrwt>0</asrwt>
<pdfrwt beam="1">  1        1 0.32198624E+00 0.18162195E+04</pdfrwt>
<pdfrwt beam="2">  1       -1 0.52268892E-01 0.18162195E+04</pdfrwt>
<totfact> 0.89789924E+00</totfact>
</mgrwt>
</event>
<event>
 4    1  0.6480558E-006  0.9217006E+03  0.7818608E-02  0.9398854E-01
          1   -1    0    0  501    0  0.00000000000E+00  0.00000000000E+00  0.28204626065E+03  0.28204626069E+03  0.50400000000E-02 0.  1.
         -1   -1    0    0    0  501 -0.00000000000E+00 -0.00000000000E+00 -0.75300769065E+03  0.75300769066E+03  0.50400000000E-02 0. -1.
    5000001    1    1    2    0    0 -0.14848826179E+03 -0.18120887349E+03  0.15010747467E+03  0.34207992293E+03  0.19900000000E+03 0.  0.
   -5000001    1    1    2    0    0  0.14848826179E+03  0.18120887349E+03 -0.62106890467E+03  0.69297402842E+03  0.19900000000E+03 0.  0.
<mgrwt>
<rscale>  0 0.92170061E+03</rscale>
<asrwt>0</asrwt>
<pdfrwt beam="1">  1        1 0.40292323E-01 0.92170061E+03</pdfrwt>
<pdfrwt beam="2">  1       -1 0.10757253E+00 0.92170061E+03</pdfrwt>
<totfact> 0.84784709E+01</totfact>
</mgrwt>
</event>
<event>
 4    1  0.6480558E-006  0.4458393E+03  0.7818608E-02  0.1028970E+00
         -1   -1    0    0    0  501 -0.00000000000E+00  0.00000000000E+00  0.28965065422E+03  0.28965065426E+03  0.50400000000E-02 0. -1.
          1   -1    0    0  501    0  0.00000000000E+00 -0.00000000000E+00 -0.17156245501E+03  0.17156245508E+03  0.50400000000E-02 0.  1.
    5000001    1    1    2    0    0 -0.26062991793E+02 -0.94471760027E+02  0.81896205218E+02  0.23645756789E+03  0.19900000000E+03 0.  0.
   -5000001    1    1    2    0    0  0.26062991793E+02  0.94471760027E+02  0.36191993997E+02  0.22475554145E+03  0.19900000000E+03 0.  0.
<mgrwt>
<rscale>  0 0.44583933E+03</rscale>
<asrwt>0</asrwt>
<pdfrwt beam="1">  1        1 0.24508922E-01 0.44583933E+03</pdfrwt>
<pdfrwt beam="2">  1       -1 0.41378665E-01 0.44583933E+03</pdfrwt>
<totfact> 0.11462525E+03</totfact>
</mgrwt>
</event>
<event>
 4    1  0.6480558E-006  0.5040024E+03  0.7818608E-02  0.1012739E+00
         -1   -1    0    0    0  501 -0.00000000000E+00  0.00000000000E+00  0.37824384518E+02  0.37824384854E+02  0.50400000000E-02 0. -1.
          1   -1    0    0  501    0  0.00000000000E+00 -0.00000000000E+00 -0.16789326248E+04  0.16789326248E+04  0.50400000000E-02 0.  1.
    5000001    1    1    2    0    0 -0.13892030117E+03 -0.57902345303E+02 -0.70002578776E+03  0.74316124442E+03  0.19900000000E+03 0.  0.
   -5000001    1    1    2    0    0  0.13892030117E+03  0.57902345303E+02 -0.94108245252E+03  0.97359576525E+03  0.19900000000E+03 0.  0.
<mgrwt>
<rscale>  0 0.50400236E+03</rscale>
<asrwt>0</asrwt>
<pdfrwt beam="1">  1        1 0.23984747E+00 0.50400236E+03</pdfrwt>
<pdfrwt beam="2">  1       -1 0.54034846E-02 0.50400236E+03</pdfrwt>
<totfact> 0.10107465E+03</totfact>
</mgrwt>
</event>
<event>
 4    1  0.6480558E-006  0.7540860E+03  0.7818608E-02  0.9628962E-01
         -1   -1    0    0    0  501 -0.00000000000E+00  0.00000000000E+00  0.24901967174E+03  0.24901967179E+03  0.50400000000E-02 0. -1.
          1   -1    0    0  501    0  0.00000000000E+00 -0.00000000000E+00 -0.57088432157E+03  0.57088432159E+03  0.50400000000E-02 0.  1.
    5000001    1    1    2    0    0  0.32023262758E+03  0.12987284456E+01 -0.15752791316E+03  0.40861554778E+03  0.19900000000E+03 0.  0.
   -5000001    1    1    2    0    0 -0.32023262758E+03 -0.12987284456E+01 -0.16433673667E+03  0.41128844560E+03  0.19900000000E+03 0.  0.
<mgrwt>
<rscale>  0 0.75408601E+03</rscale>
<asrwt>0</asrwt>
<pdfrwt beam="1">  1        1 0.81554903E-01 0.75408601E+03</pdfrwt>
<pdfrwt beam="2">  1       -1 0.35574239E-01 0.75408601E+03</pdfrwt>
<totfact> 0.31094582E+02</totfact>
</mgrwt>
</event>
<event>
 4    1  0.6480558E-006  0.8037806E+03  0.7818608E-02  0.9554561E-01
          1   -1    0    0  501    0  0.00000000000E+00  0.00000000000E+00  0.84937622802E+03  0.84937622804E+03  0.50400000000E-02 0.  1.
         -1   -1    0    0    0  501 -0.00000000000E+00 -0.00000000000E+00 -0.19015816029E+03  0.19015816036E+03  0.50400000000E-02 0. -1.
    5000001    1    1    2    0    0 -0.18889432714E+03  0.17773900787E+03  0.63192912171E+03  0.71148270296E+03  0.19900000000E+03 0.  0.
   -5000001    1    1    2    0    0  0.18889432714E+03 -0.17773900787E+03  0.27288946021E+02  0.32805168544E+03  0.19900000000E+03 0.  0.
<mgrwt>
<rscale>  0 0.80378062E+03</rscale>
<asrwt>0</asrwt>
<pdfrwt beam="1">  1        1 0.12133946E+00 0.80378062E+03</pdfrwt>
<pdfrwt beam="2">  1       -1 0.27165452E-01 0.80378062E+03</pdfrwt>
<totfact> 0.27666971E+02</totfact>
</mgrwt>
</event>
<event>
 4    1  0.6480558E-006  0.4354222E+03  0.7818608E-02  0.1032161E+00
          1   -1    0    0  501    0  0.00000000000E+00  0.00000000000E+00  0.14591685787E+03  0.14591685796E+03  0.50400000000E-02 0.  1.
         -1   -1    0    0    0  501 -0.00000000000E+00 -0.00000000000E+00 -0.32482967287E+03  0.32482967291E+03  0.50400000000E-02 0. -1.
    5000001    1    1    2    0    0  0.30739467043E+02  0.73923031627E+02 -0.49183958628E+02  0.22006724251E+03  0.19900000000E+03 0.  0.
   -5000001    1    1    2    0    0 -0.30739467043E+02 -0.73923031627E+02 -0.12972885637E+03  0.25067928836E+03  0.19900000000E+03 0.  0.
<mgrwt>
<rscale>  0 0.43542221E+03</rscale>
<asrwt>0</asrwt>
<pdfrwt beam="1">  1        1 0.20845265E-01 0.43542221E+03</pdfrwt>
<pdfrwt beam="2">  1       -1 0.46404239E-01 0.43542221E+03</pdfrwt>
<totfact> 0.11472690E+03</totfact>
</mgrwt>
</event>
<event>
 4    1  0.6480558E-006  0.5323093E+03  0.7818608E-02  0.1005674E+00
          1   -1    0    0  501    0  0.00000000000E+00  0.00000000000E+00  0.37138855705E+03  0.37138855708E+03  0.50400000000E-02 0.  1.
         -1   -1    0    0    0  501 -0.00000000000E+00 -0.00000000000E+00 -0.19073906547E+03  0.19073906554E+03  0.50400000000E-02 0. -1.
    5000001    1    1    2    0    0  0.13628968874E+03 -0.10404343608E+03  0.45058802246E+02  0.26651681280E+03  0.19900000000E+03 0.  0.
   -5000001    1    1    2    0    0 -0.13628968874E+03  0.10404343608E+03  0.13559068933E+03  0.29561080982E+03  0.19900000000E+03 0.  0.
<mgrwt>
<rscale>  0 0.53230933E+03</rscale>
<asrwt>0</asrwt>
<pdfrwt beam="1">  1        1 0.53055509E-01 0.53230933E+03</pdfrwt>
<pdfrwt beam="2">  1       -1 0.27248438E-01 0.53230933E+03</pdfrwt>
<totfact> 0.88498961E+02</totfact>
</mgrwt>
</event>
<event>
 4    1  0.6480558E-006  0.4763712E+03  0.7818608E-02  0.1020137E+00
         -1   -1    0    0    0  501 -0.00000000000E+00  0.00000000000E+00  0.10021988351E+03  0.10021988363E+03  0.50400000000E-02 0. -1.
          1   -1    0    0  501    0  0.00000000000E+00 -0.00000000000E+00 -0.56607901788E+03  0.56607901790E+03  0.50400000000E-02 0.  1.
    5000001    1    1    2    0    0 -0.11006528889E+03  0.67339192471E+02 -0.26365122569E+03  0.35462924790E+03  0.19900000000E+03 0.  0.
   -5000001    1    1    2    0    0  0.11006528889E+03 -0.67339192471E+02 -0.20220790868E+03  0.31166965363E+03  0.19900000000E+03 0.  0.
<mgrwt>
<rscale>  0 0.47637117E+03</rscale>
<asrwt>0</asrwt>
<pdfrwt beam="1">  1        1 0.80868429E-01 0.47637117E+03</pdfrwt>
<pdfrwt beam="2">  1       -1 0.14317127E-01 0.47637117E+03</pdfrwt>
<totfact> 0.14668330E+03</totfact>
</mgrwt>
</event>
<event>
 4    1  0.6480558E-006  0.7336588E+03  0.7818608E-02  0.9661342E-01
          1   -1    0    0  501    0  0.00000000000E+00  0.00000000000E+00  0.23419029164E+04  0.23419029164E+04  0.50400000000E-02 0. -1.
         -1   -1    0    0    0  501 -0.00000000000E+00 -0.00000000000E+00 -0.57459180694E+02  0.57459180915E+02  0.50400000000E-02 0.  1.
    5000001    1    1    2    0    0  0.68224990020E+02 -0.28922550792E+03  0.14090512944E+04  0.14537305782E+04  0.19900000000E+03 0.  0.
   -5000001    1    1    2    0    0 -0.68224990020E+02  0.28922550792E+03  0.87539244130E+03  0.94563151913E+03  0.19900000000E+03 0.  0.
<mgrwt>
<rscale>  0 0.73365884E+03</rscale>
<asrwt>0</asrwt>
<pdfrwt beam="1">  1        1 0.33455759E+00 0.73365884E+03</pdfrwt>
<pdfrwt beam="2">  1       -1 0.82084536E-02 0.73365884E+03</pdfrwt>
<totfact> 0.20213950E+02</totfact>
</mgrwt>
</event>
<event>
 4    1  0.6480558E-006  0.7762687E+03  0.7818608E-02  0.9595017E-01
          1   -1    0    0  501    0  0.00000000000E+00  0.00000000000E+00  0.39052386351E+04  0.39052386351E+04  0.50400000000E-02 0. -1.
         -1   -1    0    0    0  501 -0.00000000000E+00 -0.00000000000E+00 -0.38575946036E+02  0.38575946365E+02  0.50400000000E-02 0.  1.
    5000001    1    1    2    0    0 -0.28323962102E+03  0.12024894455E+03  0.25832110995E+04  0.26090736050E+04  0.19900000000E+03 0.  0.
   -5000001    1    1    2    0    0  0.28323962102E+03 -0.12024894455E+03  0.12834515895E+04  0.13347409764E+04  0.19900000000E+03 0.  0.
<mgrwt>
<rscale>  0 0.77626870E+03</rscale>
<asrwt>0</asrwt>
<pdfrwt beam="1">  1        1 0.55789077E+00 0.77626870E+03</pdfrwt>
<pdfrwt beam="2">  1       -1 0.55108541E-02 0.77626870E+03</pdfrwt>
<totfact> 0.34111600E+01</totfact>
</mgrwt>
</event>
<event>
 4    1  0.6480558E-006  0.6534015E+03  0.7818608E-02  0.9800417E-01
          1   -1    0    0  501    0  0.00000000000E+00  0.00000000000E+00  0.92635094186E+03  0.92635094187E+03  0.50400000000E-02 0. -1.
         -1   -1    0    0    0  501 -0.00000000000E+00 -0.00000000000E+00 -0.11521915120E+03  0.11521915131E+03  0.50400000000E-02 0.  1.
    5000001    1    1    2    0    0  0.15585746654E+03 -0.20683637808E+03  0.41786530011E+03  0.53036331529E+03  0.19900000000E+03 0.  0.
   -5000001    1    1    2    0    0 -0.15585746654E+03  0.20683637808E+03  0.39326649055E+03  0.51120677789E+03  0.19900000000E+03 0.  0.
<mgrwt>
<rscale>  0 0.65340147E+03</rscale>
<asrwt>0</asrwt>
<pdfrwt beam="1">  1        1 0.13233584E+00 0.65340147E+03</pdfrwt>
<pdfrwt beam="2">  1       -1 0.16459879E-01 0.65340147E+03</pdfrwt>
<totfact> 0.56049574E+02</totfact>
</mgrwt>
</event>
<event>
 4    1  0.6480558E-006  0.6423782E+03  0.7818608E-02  0.9821187E-01
         -1   -1    0    0    0  501 -0.00000000000E+00  0.00000000000E+00  0.27471014777E+03  0.27471014781E+03  0.50400000000E-02 0. -1.
          1   -1    0    0  501    0  0.00000000000E+00 -0.00000000000E+00 -0.37553198454E+03  0.37553198457E+03  0.50400000000E-02 0.  1.
    5000001    1    1    2    0    0 -0.17291520854E+03 -0.18206377618E+03 -0.27449331321E+02  0.32156080876E+03  0.19900000000E+03 0.  0.
   -5000001    1    1    2    0    0  0.17291520854E+03  0.18206377618E+03 -0.73372505453E+02  0.32868132362E+03  0.19900000000E+03 0.  0.
<mgrwt>
<rscale>  0 0.64237823E+03</rscale>
<asrwt>0</asrwt>
<pdfrwt beam="1">  1        1 0.53647426E-01 0.64237823E+03</pdfrwt>
<pdfrwt beam="2">  1       -1 0.39244307E-01 0.64237823E+03</pdfrwt>
<totfact> 0.45866164E+02</totfact>
</mgrwt>
</event>
<event>
 4    1  0.6480558E-006  0.9728983E+03  0.7818608E-02  0.9338779E-01
         -1   -1    0    0    0  501 -0.00000000000E+00  0.00000000000E+00  0.23144085692E+03  0.23144085698E+03  0.50400000000E-02 0. -1.
          1   -1    0    0  501    0  0.00000000000E+00 -0.00000000000E+00 -0.10224331138E+04  0.10224331138E+04  0.50400000000E-02 0.  1.
    5000001    1    1    2    0    0  0.10200680505E+03 -0.42790139884E+03 -0.31895816917E+03  0.57865387676E+03  0.19900000000E+03 0.  0.
   -5000001    1    1    2    0    0 -0.10200680505E+03  0.42790139884E+03 -0.47203408769E+03  0.67522009400E+03  0.19900000000E+03 0.  0.
<mgrwt>
<rscale>  0 0.97289834E+03</rscale>
<asrwt>0</asrwt>
<pdfrwt beam="1">  1        1 0.14606187E+00 0.97289834E+03</pdfrwt>
<pdfrwt beam="2">  1       -1 0.33062980E-01 0.97289834E+03</pdfrwt>
<totfact> 0.14287304E+02</totfact>
</mgrwt>
</event>
<event>
 4    1  0.6480558E-006  0.4659430E+03  0.7818608E-02  0.1023072E+00
          1   -1    0    0  501    0  0.00000000000E+00  0.00000000000E+00  0.36564422864E+03  0.36564422867E+03  0.50400000000E-02 0.  1.
         -1   -1    0    0    0  501 -0.00000000000E+00 -0.00000000000E+00 -0.14843863272E+03  0.14843863280E+03  0.50400000000E-02 0. -1.
    5000001    1    1    2    0    0  0.51617466403E+02 -0.24044624322E+02 -0.93655864216E+01  0.20719850628E+03  0.19900000000E+03 0.  0.
   -5000001    1    1    2    0    0 -0.51617466403E+02  0.24044624322E+02  0.22657118234E+03  0.30688435520E+03  0.19900000000E+03 0.  0.
<mgrwt>
<rscale>  0 0.46594304E+03</rscale>
<asrwt>0</asrwt>
<pdfrwt beam="1">  1        1 0.52234891E-01 0.46594304E+03</pdfrwt>
<pdfrwt beam="2">  1       -1 0.21205519E-01 0.46594304E+03</pdfrwt>
<totfact> 0.13773568E+03</totfact>
</mgrwt>
</event>
<event>
 4    1  0.6480558E-006  0.5650783E+03  0.7818608E-02  0.9980629E-01
          1   -1    0    0  501    0  0.00000000000E+00  0.00000000000E+00  0.52250242750E+03  0.52250242753E+03  0.50400000000E-02 0.  1.
         -1   -1    0    0    0  501 -0.00000000000E+00 -0.00000000000E+00 -0.15278086801E+03  0.15278086809E+03  0.50400000000E-02 0. -1.
    5000001    1    1    2    0    0  0.18959034501E+03  0.64125834200E+02  0.16924508065E+03  0.32909196109E+03  0.19900000000E+03 0.  0.
   -5000001    1    1    2    0    0 -0.18959034501E+03 -0.64125834200E+02  0.20047647884E+03  0.34619133452E+03  0.19900000000E+03 0.  0.
<mgrwt>
<rscale>  0 0.56507831E+03</rscale>
<asrwt>0</asrwt>
<pdfrwt beam="1">  1        1 0.74643205E-01 0.56507831E+03</pdfrwt>
<pdfrwt beam="2">  1       -1 0.21825838E-01 0.56507831E+03</pdfrwt>
<totfact> 0.81999451E+02</totfact>
</mgrwt>
</event>
<event>
 4    1  0.6480558E-006  0.8323017E+03  0.7818608E-02  0.9514404E-01
          1   -1    0    0  501    0  0.00000000000E+00  0.00000000000E+00  0.31202929236E+03  0.31202929240E+03  0.50400000000E-02 0. -1.
         -1   -1    0    0    0  501 -0.00000000000E+00 -0.00000000000E+00 -0.55501693576E+03  0.55501693578E+03  0.50400000000E-02 0.  1.
    5000001    1    1    2    0    0  0.10332252571E+03  0.24505823968E+03 -0.38266132078E+03  0.50671468459E+03  0.19900000000E+03 0.  0.
   -5000001    1    1    2    0    0 -0.10332252571E+03 -0.24505823968E+03  0.13967367737E+03  0.36033154359E+03  0.19900000000E+03 0.  0.
<mgrwt>
<rscale>  0 0.83230173E+03</rscale>
<asrwt>0</asrwt>
<pdfrwt beam="1">  1        1 0.44575613E-01 0.83230173E+03</pdfrwt>
<pdfrwt beam="2">  1       -1 0.79288134E-01 0.83230173E+03</pdfrwt>
<totfact> 0.14740452E+02</totfact>
</mgrwt>
</event>
<event>
 4    1  0.6480558E-006  0.5167524E+03  0.7818608E-02  0.1009496E+00
          1   -1    0    0  501    0  0.00000000000E+00  0.00000000000E+00  0.21039672490E+04  0.21039672490E+04  0.50400000000E-02 0.  1.
         -1   -1    0    0    0  501 -0.00000000000E+00 -0.00000000000E+00 -0.31729703471E+02  0.31729703871E+02  0.50400000000E-02 0. -1.
    5000001    1    1    2    0    0  0.74419111863E+01  0.16327760721E+03  0.94919976292E+03  0.98351214989E+03  0.19900000000E+03 0.  0.
   -5000001    1    1    2    0    0 -0.74419111863E+01 -0.16327760721E+03  0.11230377826E+04  0.11521848029E+04  0.19900000000E+03 0.  0.
<mgrwt>
<rscale>  0 0.51675239E+03</rscale>
<asrwt>0</asrwt>
<pdfrwt beam="1">  1        1 0.30056660E+00 0.51675239E+03</pdfrwt>
<pdfrwt beam="2">  1       -1 0.45328171E-02 0.51675239E+03</pdfrwt>
<totfact> 0.72128640E+02</totfact>
</mgrwt>
</event>
<event>
 4    1  0.6480558E-006  0.7066847E+03  0.7818608E-02  0.9705868E-01
          1   -1    0    0  501    0  0.00000000000E+00  0.00000000000E+00  0.12617070202E+04  0.12617070202E+04  0.50400000000E-02 0.  1.
         -1   -1    0    0    0  501 -0.00000000000E+00 -0.00000000000E+00 -0.98953878821E+02  0.98953878949E+02  0.50400000000E-02 0. -1.
    5000001    1    1    2    0    0  0.25411999006E+03  0.91200824209E+02  0.79539437354E+03  0.86321942120E+03  0.19900000000E+03 0.  0.
   -5000001    1    1    2    0    0 -0.25411999006E+03 -0.91200824209E+02  0.36735876785E+03  0.49744147797E+03  0.19900000000E+03 0.  0.
<mgrwt>
<rscale>  0 0.70668466E+03</rscale>
<asrwt>0</asrwt>
<pdfrwt beam="1">  1        1 0.18024387E+00 0.70668466E+03</pdfrwt>
<pdfrwt beam="2">  1       -1 0.14136268E-01 0.70668466E+03</pdfrwt>
<totfact> 0.41182406E+02</totfact>
</mgrwt>
</event>
<event>
 4    1  0.6480558E-006  0.4701898E+03  0.7818608E-02  0.1021867E+00
         -1   -1    0    0    0  501 -0.00000000000E+00  0.00000000000E+00  0.88626309785E+02  0.88626309929E+02  0.50400000000E-02 0. -1.
          1   -1    0    0  501    0  0.00000000000E+00 -0.00000000000E+00 -0.62362521310E+03  0.62362521312E+03  0.50400000000E-02 0.  1.
    5000001    1    1    2    0    0  0.19932675730E+02 -0.62984845905E+02 -0.10644226001E+03  0.23514964829E+03  0.19900000000E+03 0.  0.
   -5000001    1    1    2    0    0 -0.19932675730E+02  0.62984845905E+02 -0.42855664331E+03  0.47710187476E+03  0.19900000000E+03 0.  0.
<mgrwt>
<rscale>  0 0.47018975E+03</rscale>
<asrwt>0</asrwt>
<pdfrwt beam="1">  1        1 0.89089314E-01 0.47018975E+03</pdfrwt>
<pdfrwt beam="2">  1       -1 0.12660902E-01 0.47018975E+03</pdfrwt>
<totfact> 0.15609680E+03</totfact>
</mgrwt>
</event>
<event>
 4    1  0.6480558E-006  0.7082926E+03  0.7818608E-02  0.9703155E-01
         -1   -1    0    0    0  501 -0.00000000000E+00  0.00000000000E+00  0.56844792945E+02  0.56844793168E+02  0.50400000000E-02 0.  1.
          1   -1    0    0  501    0  0.00000000000E+00 -0.00000000000E+00 -0.22063519010E+04  0.22063519010E+04  0.50400000000E-02 0. -1.
    5000001    1    1    2    0    0  0.18388898642E+03 -0.22529475933E+03 -0.11875307813E+04  0.12387103150E+04  0.19900000000E+03 0.  0.
   -5000001    1    1    2    0    0 -0.18388898642E+03  0.22529475933E+03 -0.96197632675E+03  0.10244863792E+04  0.19900000000E+03 0.  0.
<mgrwt>
<rscale>  0 0.70829264E+03</rscale>
<asrwt>0</asrwt>
<pdfrwt beam="1">  1        1 0.31519308E+00 0.70829264E+03</pdfrwt>
<pdfrwt beam="2">  1       -1 0.81206861E-02 0.70829264E+03</pdfrwt>
<totfact> 0.25008910E+02</totfact>
</mgrwt>
</event>
<event>
 4    1  0.6480558E-006  0.4666546E+03  0.7818608E-02  0.1022869E+00
          1   -1    0    0  501    0  0.00000000000E+00  0.00000000000E+00  0.20852900421E+04  0.20852900421E+04  0.50400000000E-02 0.  1.
         -1   -1    0    0    0  501 -0.00000000000E+00 -0.00000000000E+00 -0.26107455534E+02  0.26107456021E+02  0.50400000000E-02 0. -1.
    5000001    1    1    2    0    0 -0.10626265735E+03 -0.54832217944E+02  0.92422746663E+03  0.95294057241E+03  0.19900000000E+03 0.  0.
   -5000001    1    1    2    0    0  0.10626265735E+03  0.54832217944E+02  0.11349551199E+04  0.11584569257E+04  0.19900000000E+03 0.  0.
<mgrwt>
<rscale>  0 0.46665455E+03</rscale>
<asrwt>0</asrwt>
<pdfrwt beam="1">  1        1 0.29789856E+00 0.46665455E+03</pdfrwt>
<pdfrwt beam="2">  1       -1 0.37296367E-02 0.46665455E+03</pdfrwt>
<totfact> 0.99811187E+02</totfact>
</mgrwt>
</event>
<event>
 4    1  0.6480558E-006  0.5810422E+03  0.7818608E-02  0.9945537E-01
          1   -1    0    0  501    0  0.00000000000E+00  0.00000000000E+00  0.37103686183E+04  0.37103686183E+04  0.50400000000E-02 0. -1.
         -1   -1    0    0    0  501 -0.00000000000E+00 -0.00000000000E+00 -0.22747742628E+02  0.22747743186E+02  0.50400000000E-02 0.  1.
    5000001    1    1    2    0    0  0.21082928513E+03 -0.12037037135E+02  0.19363894991E+04  0.19580089811E+04  0.19900000000E+03 0.  0.
   -5000001    1    1    2    0    0 -0.21082928513E+03  0.12037037135E+02  0.17512313766E+04  0.17751073805E+04  0.19900000000E+03 0.  0.
<mgrwt>
<rscale>  0 0.58104221E+03</rscale>
<asrwt>0</asrwt>
<pdfrwt beam="1">  1        1 0.53005296E+00 0.58104221E+03</pdfrwt>
<pdfrwt beam="2">  1       -1 0.32496757E-02 0.58104221E+03</pdfrwt>
<totfact> 0.10839454E+02</totfact>
</mgrwt>
</event>
<event>
 4    1  0.6480558E-006  0.6138689E+03  0.7818608E-02  0.9877043E-01
          1   -1    0    0  501    0  0.00000000000E+00  0.00000000000E+00  0.32481524395E+03  0.32481524399E+03  0.50400000000E-02 0. -1.
         -1   -1    0    0    0  501 -0.00000000000E+00 -0.00000000000E+00 -0.29003794086E+03  0.29003794091E+03  0.50400000000E-02 0.  1.
    5000001    1    1    2    0    0 -0.18381905357E+03 -0.11644352183E+03 -0.67948942181E+02  0.30259973063E+03  0.19900000000E+03 0.  0.
   -5000001    1    1    2    0    0  0.18381905357E+03  0.11644352183E+03  0.10272624527E+03  0.31225345427E+03  0.19900000000E+03 0.  0.
<mgrwt>
<rscale>  0 0.61386886E+03</rscale>
<asrwt>0</asrwt>
<pdfrwt beam="1">  1        1 0.46402178E-01 0.61386886E+03</pdfrwt>
<pdfrwt beam="2">  1       -1 0.41433991E-01 0.61386886E+03</pdfrwt>
<totfact> 0.50203658E+02</totfact>
</mgrwt>
</event>
<event>
 4    1  0.6480558E-006  0.9978818E+03  0.7818608E-02  0.9310871E-01
         -1   -1    0    0    0  501 -0.00000000000E+00  0.00000000000E+00  0.12885089967E+03  0.12885089977E+03  0.50400000000E-02 0. -1.
          1   -1    0    0  501    0  0.00000000000E+00 -0.00000000000E+00 -0.19320163604E+04  0.19320163604E+04  0.50400000000E-02 0.  1.
    5000001    1    1    2    0    0 -0.24308536718E+03 -0.33732129704E+02 -0.16990781639E+04  0.17282059945E+04  0.19900000000E+03 0.  0.
   -5000001    1    1    2    0    0  0.24308536718E+03  0.33732129704E+02 -0.10408729677E+03  0.33266126564E+03  0.19900000000E+03 0.  0.
<mgrwt>
<rscale>  0 0.99788185E+03</rscale>
<asrwt>0</asrwt>
<pdfrwt beam="1">  1        1 0.27600232E+00 0.99788185E+03</pdfrwt>
<pdfrwt beam="2">  1       -1 0.18407273E-01 0.99788185E+03</pdfrwt>
<totfact> 0.97106062E+01</totfact>
</mgrwt>
</event>
<event>
 4    1  0.6480558E-006  0.7822898E+03  0.7818608E-02  0.9586012E-01
          1   -1    0    0  501    0  0.00000000000E+00  0.00000000000E+00  0.89695388983E+03  0.89695388984E+03  0.50400000000E-02 0.  1.
         -1   -1    0    0    0  501 -0.00000000000E+00 -0.00000000000E+00 -0.17057102871E+03  0.17057102878E+03  0.50400000000E-02 0. -1.
    5000001    1    1    2    0    0  0.24710094276E+03 -0.24953870323E+02  0.67350806750E+03  0.74491320873E+03  0.19900000000E+03 0.  0.
   -5000001    1    1    2    0    0 -0.24710094276E+03  0.24953870323E+02  0.52874793625E+02  0.32261170989E+03  0.19900000000E+03 0.  0.
<mgrwt>
<rscale>  0 0.78228984E+03</rscale>
<asrwt>0</asrwt>
<pdfrwt beam="1">  1        1 0.12813627E+00 0.78228984E+03</pdfrwt>
<pdfrwt beam="2">  1       -1 0.24367290E-01 0.78228984E+03</pdfrwt>
<totfact> 0.30562417E+02</totfact>
</mgrwt>
</event>
<event>
 4    1  0.6480558E-006  0.6530846E+03  0.7818608E-02  0.9801008E-01
         -1   -1    0    0    0  501 -0.00000000000E+00  0.00000000000E+00  0.12368573426E+04  0.12368573427E+04  0.50400000000E-02 0. -1.
          1   -1    0    0  501    0  0.00000000000E+00 -0.00000000000E+00 -0.86210329306E+02  0.86210329453E+02  0.50400000000E-02 0.  1.
    5000001    1    1    2    0    0 -0.23991440138E+02 -0.23286576687E+03  0.79933455614E+03  0.85635202296E+03  0.19900000000E+03 0.  0.
   -5000001    1    1    2    0    0  0.23991440138E+02  0.23286576687E+03  0.35131245720E+03  0.46671564915E+03  0.19900000000E+03 0.  0.
<mgrwt>
<rscale>  0 0.65308462E+03</rscale>
<asrwt>0</asrwt>
<pdfrwt beam="1">  1        1 0.12315760E-01 0.65308462E+03</pdfrwt>
<pdfrwt beam="2">  1       -1 0.17669392E+00 0.65308462E+03</pdfrwt>
<totfact> 0.11359024E+02</totfact>
</mgrwt>
</event>
<event>
 4    1  0.6480558E-006  0.4687958E+03  0.7818608E-02  0.1022261E+00
          1   -1    0    0  501    0  0.00000000000E+00  0.00000000000E+00  0.12746305825E+04  0.12746305825E+04  0.50400000000E-02 0.  1.
         -1   -1    0    0    0  501 -0.00000000000E+00 -0.00000000000E+00 -0.43104546086E+02  0.43104546380E+02  0.50400000000E-02 0. -1.
    5000001    1    1    2    0    0  0.11762751435E+03  0.68174321367E+01  0.50840809618E+03  0.55853603444E+03  0.19900000000E+03 0.  0.
   -5000001    1    1    2    0    0 -0.11762751435E+03 -0.68174321367E+01  0.72311794021E+03  0.75919909442E+03  0.19900000000E+03 0.  0.
<mgrwt>
<rscale>  0 0.46879579E+03</rscale>
<asrwt>0</asrwt>
<pdfrwt beam="1">  1        1 0.18209009E+00 0.46879579E+03</pdfrwt>
<pdfrwt beam="2">  1       -1 0.61577921E-02 0.46879579E+03</pdfrwt>
<totfact> 0.15053059E+03</totfact>
</mgrwt>
</event>
<event>
 4    1  0.6480558E-006  0.1280178E+04  0.7818608E-02  0.9045433E-01
          1   -1    0    0  501    0  0.00000000000E+00  0.00000000000E+00  0.18595292509E+04  0.18595292509E+04  0.50400000000E-02 0.  1.
         -1   -1    0    0    0  501 -0.00000000000E+00 -0.00000000000E+00 -0.22033220929E+03  0.22033220935E+03  0.50400000000E-02 0. -1.
    5000001    1    1    2    0    0  0.54906535125E+03 -0.10421319486E+03  0.42906994060E+03  0.73214422339E+03  0.19900000000E+03 0.  0.
   -5000001    1    1    2    0    0 -0.54906535125E+03  0.10421319486E+03  0.12101271010E+04  0.13477172369E+04  0.19900000000E+03 0.  0.
<mgrwt>
<rscale>  0 0.12801784E+04</rscale>
<asrwt>0</asrwt>
<pdfrwt beam="1">  1        1 0.26564702E+00 0.12801784E+04</pdfrwt>
<pdfrwt beam="2">  1       -1 0.31476031E-01 0.12801784E+04</pdfrwt>
<totfact> 0.42190103E+01</totfact>
</mgrwt>
</event>
<event>
 4    1  0.6480558E-006  0.1163001E+04  0.7818608E-02  0.9145873E-01
          1   -1    0    0  501    0  0.00000000000E+00  0.00000000000E+00  0.18763911859E+03  0.18763911866E+03  0.50400000000E-02 0.  1.
         -1   -1    0    0    0  501 -0.00000000000E+00 -0.00000000000E+00 -0.18020917340E+04  0.18020917340E+04  0.50400000000E-02 0. -1.
    5000001    1    1    2    0    0 -0.56764458358E+02 -0.54332482122E+03 -0.78865425984E+03  0.97979620670E+03  0.19900000000E+03 0.  0.
   -5000001    1    1    2    0    0  0.56764458358E+02  0.54332482122E+03 -0.82579835555E+03  0.10099346460E+04  0.19900000000E+03 0.  0.
<mgrwt>
<rscale>  0 0.11630011E+04</rscale>
<asrwt>0</asrwt>
<pdfrwt beam="1">  1        1 0.26805589E-01 0.11630011E+04</pdfrwt>
<pdfrwt beam="2">  1       -1 0.25744167E+00 0.11630011E+04</pdfrwt>
<totfact> 0.11071918E+01</totfact>
</mgrwt>
</event>
<event>
 4    1  0.6480558E-006  0.6399070E+03  0.7818608E-02  0.9825905E-01
          1   -1    0    0  501    0  0.00000000000E+00  0.00000000000E+00  0.49728472753E+03  0.49728472756E+03  0.50400000000E-02 0.  1.
         -1   -1    0    0    0  501 -0.00000000000E+00 -0.00000000000E+00 -0.20585839528E+03  0.20585839534E+03  0.50400000000E-02 0. -1.
    5000001    1    1    2    0    0  0.10097748060E+03  0.13599087445E+03 -0.57135429334E+02  0.26749846132E+03  0.19900000000E+03 0.  0.
   -5000001    1    1    2    0    0 -0.10097748060E+03 -0.13599087445E+03  0.34856176159E+03  0.43564466158E+03  0.19900000000E+03 0.  0.
<mgrwt>
<rscale>  0 0.63990698E+03</rscale>
<asrwt>0</asrwt>
<pdfrwt beam="1">  1        1 0.71040675E-01 0.63990698E+03</pdfrwt>
<pdfrwt beam="2">  1       -1 0.29408342E-01 0.63990698E+03</pdfrwt>
<totfact> 0.52704553E+02</totfact>
</mgrwt>
</event>
<event>
 4    1  0.6480558E-006  0.5503567E+03  0.7818608E-02  0.1001411E+00
          1   -1    0    0  501    0  0.00000000000E+00  0.00000000000E+00  0.57672188490E+03  0.57672188492E+03  0.50400000000E-02 0.  1.
         -1   -1    0    0    0  501 -0.00000000000E+00 -0.00000000000E+00 -0.13129919910E+03  0.13129919920E+03  0.50400000000E-02 0. -1.
    5000001    1    1    2    0    0 -0.11177316720E+03 -0.10330282645E+03  0.76270915778E+02  0.26188349977E+03  0.19900000000E+03 0.  0.
   -5000001    1    1    2    0    0  0.11177316720E+03  0.10330282645E+03  0.36915177002E+03  0.44613758434E+03  0.19900000000E+03 0.  0.
<mgrwt>
<rscale>  0 0.55035669E+03</rscale>
<asrwt>0</asrwt>
<pdfrwt beam="1">  1        1 0.82388841E-01 0.55035669E+03</pdfrwt>
<pdfrwt beam="2">  1       -1 0.18757028E-01 0.55035669E+03</pdfrwt>
<totfact> 0.92123698E+02</totfact>
</mgrwt>
</event>
<event>
 4    1  0.6480558E-006  0.9967000E+03  0.7818608E-02  0.9312172E-01
         -1   -1    0    0    0  501 -0.00000000000E+00  0.00000000000E+00  0.76621346073E+02  0.76621346239E+02  0.50400000000E-02 0. -1.
          1   -1    0    0  501    0  0.00000000000E+00 -0.00000000000E+00 -0.32412991032E+04  0.32412991032E+04  0.50400000000E-02 0.  1.
    5000001    1    1    2    0    0 -0.14026775006E+03 -0.39109510470E+03 -0.94966036781E+03  0.10555028360E+04  0.19900000000E+03 0.  0.
   -5000001    1    1    2    0    0  0.14026775006E+03  0.39109510470E+03 -0.22150173893E+04  0.22624176135E+04  0.19900000000E+03 0.  0.
<mgrwt>
<rscale>  0 0.99669996E+03</rscale>
<asrwt>0</asrwt>
<pdfrwt beam="1">  1        1 0.46304264E+00 0.99669996E+03</pdfrwt>
<pdfrwt beam="2">  1       -1 0.10945909E-01 0.99669996E+03</pdfrwt>
<totfact> 0.33026122E+01</totfact>
</mgrwt>
</event>
<event>
 4    1  0.6480558E-006  0.5502823E+03  0.7818608E-02  0.1001429E+00
         -1   -1    0    0    0  501 -0.00000000000E+00  0.00000000000E+00  0.36112353153E+02  0.36112353505E+02  0.50400000000E-02 0. -1.
          1   -1    0    0  501    0  0.00000000000E+00 -0.00000000000E+00 -0.20963088587E+04  0.20963088587E+04  0.50400000000E-02 0.  1.
    5000001    1    1    2    0    0  0.10335679621E+03  0.15623974251E+03 -0.11531400239E+04  0.11850849755E+04  0.19900000000E+03 0.  0.
   -5000001    1    1    2    0    0 -0.10335679621E+03 -0.15623974251E+03 -0.90705648158E+03  0.94733623663E+03  0.19900000000E+03 0.  0.
<mgrwt>
<rscale>  0 0.55028228E+03</rscale>
<asrwt>0</asrwt>
<pdfrwt beam="1">  1        1 0.29947262E+00 0.55028228E+03</pdfrwt>
<pdfrwt beam="2">  1       -1 0.51589089E-02 0.55028228E+03</pdfrwt>
<totfact> 0.59723883E+02</totfact>
</mgrwt>
</event>
<event>
 4    1  0.6480558E-006  0.5652862E+03  0.7818608E-02  0.9980164E-01
         -1   -1    0    0    0  501 -0.00000000000E+00  0.00000000000E+00  0.44371604100E+03  0.44371604102E+03  0.50400000000E-02 0. -1.
          1   -1    0    0  501    0  0.00000000000E+00 -0.00000000000E+00 -0.18004109841E+03  0.18004109849E+03  0.50400000000E-02 0.  1.
    5000001    1    1    2    0    0  0.12447886323E+03 -0.15744492231E+03  0.13348616950E+03  0.31257550832E+03  0.19900000000E+03 0.  0.
   -5000001    1    1    2    0    0 -0.12447886323E+03  0.15744492231E+03  0.13018877308E+03  0.31118163119E+03  0.19900000000E+03 0.  0.
<mgrwt>
<rscale>  0 0.56528621E+03</rscale>
<asrwt>0</asrwt>
<pdfrwt beam="1">  1        1 0.25720157E-01 0.56528621E+03</pdfrwt>
<pdfrwt beam="2">  1       -1 0.63388005E-01 0.56528621E+03</pdfrwt>
<totfact> 0.48020923E+02</totfact>
</mgrwt>
</event>
<event>
 4    1  0.6480558E-006  0.6165312E+03  0.7818608E-02  0.9871690E-01
          1   -1    0    0  501    0  0.00000000000E+00  0.00000000000E+00  0.24361051313E+03  0.24361051318E+03  0.50400000000E-02 0.  1.
         -1   -1    0    0    0  501 -0.00000000000E+00 -0.00000000000E+00 -0.39008036266E+03  0.39008036270E+03  0.50400000000E-02 0. -1.
    5000001    1    1    2    0    0 -0.12772194886E+03 -0.18245570228E+03  0.52022274305E+01  0.29871565524E+03  0.19900000000E+03 0.  0.
   -5000001    1    1    2    0    0  0.12772194886E+03  0.18245570228E+03 -0.15167207696E+03  0.33497522064E+03  0.19900000000E+03 0.  0.
<mgrwt>
<rscale>  0 0.61653119E+03</rscale>
<asrwt>0</asrwt>
<pdfrwt beam="1">  1        1 0.34801502E-01 0.61653119E+03</pdfrwt>
<pdfrwt beam="2">  1       -1 0.55725766E-01 0.61653119E+03</pdfrwt>
<totfact> 0.41740596E+02</totfact>
</mgrwt>
</event>
<event>
 4    1  0.6480558E-006  0.9104048E+03  0.7818608E-02  0.9412668E-01
         -1   -1    0    0    0  501 -0.00000000000E+00  0.00000000000E+00  0.93773174011E+02  0.93773174146E+02  0.50400000000E-02 0.  1.
          1   -1    0    0  501    0  0.00000000000E+00 -0.00000000000E+00 -0.22096857163E+04  0.22096857163E+04  0.50400000000E-02 0. -1.
    5000001    1    1    2    0    0 -0.23808799121E+03  0.30769548127E+03 -0.73546569489E+03  0.85549587323E+03  0.19900000000E+03 0.  0.
   -5000001    1    1    2    0    0  0.23808799121E+03 -0.30769548127E+03 -0.13804468474E+04  0.14479630173E+04  0.19900000000E+03 0.  0.
<mgrwt>
<rscale>  0 0.91040484E+03</rscale>
<asrwt>0</asrwt>
<pdfrwt beam="1">  1        1 0.31566936E+00 0.91040484E+03</pdfrwt>
<pdfrwt beam="2">  1       -1 0.13396169E-01 0.91040484E+03</pdfrwt>
<totfact> 0.11040888E+02</totfact>
</mgrwt>
</event>
<event>
 4    1  0.6480558E-006  0.7984638E+03  0.7818608E-02  0.9562243E-01
          1   -1    0    0  501    0  0.00000000000E+00  0.00000000000E+00  0.13790662719E+04  0.13790662719E+04  0.50400000000E-02 0. -1.
         -1   -1    0    0    0  501 -0.00000000000E+00 -0.00000000000E+00 -0.11557536989E+03  0.11557537000E+03  0.50400000000E-02 0.  1.
    5000001    1    1    2    0    0 -0.31042541699E+03  0.15241440294E+03  0.60587499717E+03  0.72545130914E+03  0.19900000000E+03 0.  0.
   -5000001    1    1    2    0    0  0.31042541699E+03 -0.15241440294E+03  0.65761590484E+03  0.76919033277E+03  0.19900000000E+03 0.  0.
<mgrwt>
<rscale>  0 0.79846376E+03</rscale>
<asrwt>0</asrwt>
<pdfrwt beam="1">  1        1 0.19700945E+00 0.79846376E+03</pdfrwt>
<pdfrwt beam="2">  1       -1 0.16510769E-01 0.79846376E+03</pdfrwt>
<totfact> 0.26559925E+02</totfact>
</mgrwt>
</event>
<event>
 4    1  0.6480558E-006  0.6447684E+03  0.7818608E-02  0.9816646E-01
         -1   -1    0    0    0  501 -0.00000000000E+00  0.00000000000E+00  0.83648635982E+02  0.83648636134E+02  0.50400000000E-02 0.  1.
          1   -1    0    0  501    0  0.00000000000E+00 -0.00000000000E+00 -0.12424779622E+04  0.12424779623E+04  0.50400000000E-02 0. -1.
    5000001    1    1    2    0    0 -0.97981017766E+02 -0.23129670333E+03 -0.50721891780E+03  0.59997539565E+03  0.19900000000E+03 0.  0.
   -5000001    1    1    2    0    0  0.97981017766E+02  0.23129670333E+03 -0.65161040847E+03  0.72615120274E+03  0.19900000000E+03 0.  0.
<mgrwt>
<rscale>  0 0.64476844E+03</rscale>
<asrwt>0</asrwt>
<pdfrwt beam="1">  1        1 0.17749684E+00 0.64476844E+03</pdfrwt>
<pdfrwt beam="2">  1       -1 0.11949806E-01 0.64476844E+03</pdfrwt>
<totfact> 0.55763332E+02</totfact>
</mgrwt>
</event>
<event>
 4    1  0.6480558E-006  0.8763275E+03  0.7818608E-02  0.9455667E-01
          1   -1    0    0  501    0  0.00000000000E+00  0.00000000000E+00  0.10541367203E+04  0.10541367203E+04  0.50400000000E-02 0. -1.
         -1   -1    0    0    0  501 -0.00000000000E+00 -0.00000000000E+00 -0.18212769642E+03  0.18212769649E+03  0.50400000000E-02 0.  1.
    5000001    1    1    2    0    0 -0.29961078361E+03 -0.21162221482E+03  0.62440955829E+03  0.75102521925E+03  0.19900000000E+03 0.  0.
   -5000001    1    1    2    0    0  0.29961078361E+03  0.21162221482E+03  0.24759946554E+03  0.48523919750E+03  0.19900000000E+03 0.  0.
<mgrwt>
<rscale>  0 0.87632755E+03</rscale>
<asrwt>0</asrwt>
<pdfrwt beam="1">  1        1 0.15059096E+00 0.87632755E+03</pdfrwt>
<pdfrwt beam="2">  1       -1 0.26018243E-01 0.87632755E+03</pdfrwt>
<totfact> 0.20679241E+02</totfact>
</mgrwt>
</event>
<event>
 4    1  0.6480558E-006  0.1327165E+04  0.7818608E-02  0.9008296E-01
          1   -1    0    0  501    0  0.00000000000E+00  0.00000000000E+00  0.51896436121E+03  0.51896436123E+03  0.50400000000E-02 0.  1.
         -1   -1    0    0    0  501 -0.00000000000E+00 -0.00000000000E+00 -0.84850078588E+03  0.84850078590E+03  0.50400000000E-02 0. -1.
    5000001    1    1    2    0    0  0.17490803268E+03  0.60771313177E+03 -0.19449917984E+03  0.69089724372E+03  0.19900000000E+03 0.  0.
   -5000001    1    1    2    0    0 -0.17490803268E+03 -0.60771313177E+03 -0.13503724483E+03  0.67656790341E+03  0.19900000000E+03 0.  0.
<mgrwt>
<rscale>  0 0.13271649E+04</rscale>
<asrwt>0</asrwt>
<pdfrwt beam="1">  1        1 0.74137767E-01 0.13271649E+04</pdfrwt>
<pdfrwt beam="2">  1       -1 0.12121440E+00 0.13271649E+04</pdfrwt>
<totfact> 0.27672968E+01</totfact>
</mgrwt>
</event>
<event>
 4    1  0.6480558E-006  0.1190245E+04  0.7818608E-02  0.9121438E-01
          1   -1    0    0  501    0  0.00000000000E+00  0.00000000000E+00  0.15944083358E+04  0.15944083358E+04  0.50400000000E-02 0.  1.
         -1   -1    0    0    0  501 -0.00000000000E+00 -0.00000000000E+00 -0.22213305524E+03  0.22213305530E+03  0.50400000000E-02 0. -1.
    5000001    1    1    2    0    0 -0.36639658796E+03  0.42431299331E+03  0.71175852250E+03  0.92762555502E+03  0.19900000000E+03 0.  0.
   -5000001    1    1    2    0    0  0.36639658796E+03 -0.42431299331E+03  0.66051675803E+03  0.88891583606E+03  0.19900000000E+03 0.  0.
<mgrwt>
<rscale>  0 0.11902450E+04</rscale>
<asrwt>0</asrwt>
<pdfrwt beam="1">  1        1 0.22777261E+00 0.11902450E+04</pdfrwt>
<pdfrwt beam="2">  1       -1 0.31733295E-01 0.11902450E+04</pdfrwt>
<totfact> 0.61757127E+01</totfact>
</mgrwt>
</event>
<event>
 4    1  0.6480558E-006  0.8244941E+03  0.7818608E-02  0.9525224E-01
         -1   -1    0    0    0  501 -0.00000000000E+00  0.00000000000E+00  0.21275018897E+03  0.21275018903E+03  0.50400000000E-02 0.  1.
          1   -1    0    0  501    0  0.00000000000E+00 -0.00000000000E+00 -0.79881308683E+03  0.79881308685E+03  0.50400000000E-02 0. -1.
    5000001    1    1    2    0    0 -0.26176818757E+03 -0.24677302755E+03 -0.25567423998E+03  0.48413823247E+03  0.19900000000E+03 0.  0.
   -5000001    1    1    2    0    0  0.26176818757E+03  0.24677302755E+03 -0.33038865788E+03  0.52742504340E+03  0.19900000000E+03 0.  0.
<mgrwt>
<rscale>  0 0.82449411E+03</rscale>
<asrwt>0</asrwt>
<pdfrwt beam="1">  1        1 0.11411615E+00 0.82449411E+03</pdfrwt>
<pdfrwt beam="2">  1       -1 0.30392885E-01 0.82449411E+03</pdfrwt>
<totfact> 0.25042097E+02</totfact>
</mgrwt>
</event>
<event>
 4    1  0.6480558E-006  0.6142850E+03  0.7818608E-02  0.9876204E-01
         -1   -1    0    0    0  501 -0.00000000000E+00  0.00000000000E+00  0.56492305098E+02  0.56492305322E+02  0.50400000000E-02 0. -1.
          1   -1    0    0  501    0  0.00000000000E+00 -0.00000000000E+00 -0.16699004985E+04  0.16699004985E+04  0.50400000000E-02 0.  1.
    5000001    1    1    2    0    0  0.15717120675E+03 -0.15631817447E+03 -0.59644168815E+03  0.66669471819E+03  0.19900000000E+03 0.  0.
   -5000001    1    1    2    0    0 -0.15717120675E+03  0.15631817447E+03 -0.10169665052E+04  0.10596980856E+04  0.19900000000E+03 0.  0.
<mgrwt>
<rscale>  0 0.61428504E+03</rscale>
<asrwt>0</asrwt>
<pdfrwt beam="1">  1        1 0.23855718E+00 0.61428504E+03</pdfrwt>
<pdfrwt beam="2">  1       -1 0.80703304E-02 0.61428504E+03</pdfrwt>
<totfact> 0.54787580E+02</totfact>
</mgrwt>
</event>
<event>
 4    1  0.6480558E-006  0.6032932E+03  0.7818608E-02  0.9898597E-01
          1   -1    0    0  501    0  0.00000000000E+00  0.00000000000E+00  0.43323437301E+03  0.43323437304E+03  0.50400000000E-02 0. -1.
         -1   -1    0    0    0  501 -0.00000000000E+00 -0.00000000000E+00 -0.21002643048E+03  0.21002643054E+03  0.50400000000E-02 0.  1.
    5000001    1    1    2    0    0  0.23831886045E+00  0.22656333877E+03  0.10343719369E+03  0.31879657512E+03  0.19900000000E+03 0.  0.
   -5000001    1    1    2    0    0 -0.23831886045E+00 -0.22656333877E+03  0.11977074884E+03  0.32446422846E+03  0.19900000000E+03 0.  0.
<mgrwt>
<rscale>  0 0.60329319E+03</rscale>
<asrwt>0</asrwt>
<pdfrwt beam="1">  1        1 0.61890624E-01 0.60329319E+03</pdfrwt>
<pdfrwt beam="2">  1       -1 0.30003776E-01 0.60329319E+03</pdfrwt>
<totfact> 0.61228923E+02</totfact>
</mgrwt>
</event>
<event>
 4    1  0.6480558E-006  0.4946795E+03  0.7818608E-02  0.1015177E+00
          1   -1    0    0  501    0  0.00000000000E+00  0.00000000000E+00  0.12954295946E+04  0.12954295946E+04  0.50400000000E-02 0.  1.
         -1   -1    0    0    0  501 -0.00000000000E+00 -0.00000000000E+00 -0.47225223909E+02  0.47225224178E+02  0.50400000000E-02 0. -1.
    5000001    1    1    2    0    0 -0.22431512581E+02 -0.13705078484E+03  0.49422132469E+03  0.55058315281E+03  0.19900000000E+03 0.  0.
   -5000001    1    1    2    0    0  0.22431512581E+02  0.13705078484E+03  0.75398304595E+03  0.79207166593E+03  0.19900000000E+03 0.  0.
<mgrwt>
<rscale>  0 0.49467950E+03</rscale>
<asrwt>0</asrwt>
<pdfrwt beam="1">  1        1 0.18506135E+00 0.49467950E+03</pdfrwt>
<pdfrwt beam="2">  1       -1 0.67464613E-02 0.49467950E+03</pdfrwt>
<totfact> 0.12663552E+03</totfact>
</mgrwt>
</event>
<event>
 4    1  0.6480558E-006  0.4835107E+03  0.7818608E-02  0.1018175E+00
         -1   -1    0    0    0  501 -0.00000000000E+00  0.00000000000E+00  0.78229443558E+03  0.78229443560E+03  0.50400000000E-02 0. -1.
          1   -1    0    0  501    0  0.00000000000E+00 -0.00000000000E+00 -0.74710537486E+02  0.74710537656E+02  0.50400000000E-02 0.  1.
    5000001    1    1    2    0    0 -0.14414958475E+02  0.12958917941E+03  0.42989426118E+03  0.49133616012E+03  0.19900000000E+03 0.  0.
   -5000001    1    1    2    0    0  0.14414958475E+02 -0.12958917941E+03  0.27768963692E+03  0.36566881313E+03  0.19900000000E+03 0.  0.
<mgrwt>
<rscale>  0 0.48351065E+03</rscale>
<asrwt>0</asrwt>
<pdfrwt beam="1">  1        1 0.10672934E-01 0.48351065E+03</pdfrwt>
<pdfrwt beam="2">  1       -1 0.11175635E+00 0.48351065E+03</pdfrwt>
<totfact> 0.45843785E+02</totfact>
</mgrwt>
</event>
<event>
 4    1  0.6480558E-006  0.5705460E+03  0.7818608E-02  0.9968471E-01
         -1   -1    0    0    0  501 -0.00000000000E+00  0.00000000000E+00  0.58090101400E+03  0.58090101402E+03  0.50400000000E-02 0. -1.
          1   -1    0    0  501    0  0.00000000000E+00 -0.00000000000E+00 -0.14009388929E+03  0.14009388938E+03  0.50400000000E-02 0.  1.
    5000001    1    1    2    0    0 -0.60664226061E+01  0.15980721178E+03  0.38126792220E+03  0.45884787775E+03  0.19900000000E+03 0.  0.
   -5000001    1    1    2    0    0  0.60664226061E+01 -0.15980721178E+03  0.59539202513E+02  0.26214702565E+03  0.19900000000E+03 0.  0.
<mgrwt>
<rscale>  0 0.57054599E+03</rscale>
<asrwt>0</asrwt>
<pdfrwt beam="1">  1        1 0.20013413E-01 0.57054599E+03</pdfrwt>
<pdfrwt beam="2">  1       -1 0.82985860E-01 0.57054599E+03</pdfrwt>
<totfact> 0.38318349E+02</totfact>
</mgrwt>
</event>
<event>
 4    1  0.6480558E-006  0.4612308E+03  0.7818608E-02  0.1024425E+00
         -1   -1    0    0    0  501 -0.00000000000E+00  0.00000000000E+00  0.34478700125E+03  0.34478700128E+03  0.50400000000E-02 0.  1.
          1   -1    0    0  501    0  0.00000000000E+00 -0.00000000000E+00 -0.15425018388E+03  0.15425018396E+03  0.50400000000E-02 0. -1.
    5000001    1    1    2    0    0 -0.10465873428E+03 -0.12164870752E+02  0.14916112519E+03  0.27009530912E+03  0.19900000000E+03 0.  0.
   -5000001    1    1    2    0    0  0.10465873428E+03  0.12164870752E+02  0.41375692175E+02  0.22894187613E+03  0.19900000000E+03 0.  0.
<mgrwt>
<rscale>  0 0.46123078E+03</rscale>
<asrwt>0</asrwt>
<pdfrwt beam="1">  1        1 0.22035741E-01 0.46123078E+03</pdfrwt>
<pdfrwt beam="2">  1       -1 0.49255285E-01 0.46123078E+03</pdfrwt>
<totfact> 0.95540119E+02</totfact>
</mgrwt>
</event>
<event>
 4    1  0.6480558E-006  0.5701378E+03  0.7818608E-02  0.9969374E-01
          1   -1    0    0  501    0  0.00000000000E+00  0.00000000000E+00  0.12097850215E+03  0.12097850225E+03  0.50400000000E-02 0.  1.
         -1   -1    0    0    0  501 -0.00000000000E+00 -0.00000000000E+00 -0.67172482822E+03  0.67172482824E+03  0.50400000000E-02 0. -1.
    5000001    1    1    2    0    0 -0.16697357584E+03  0.26993631639E+02 -0.43423145278E+03  0.50672160577E+03  0.19900000000E+03 0.  0.
   -5000001    1    1    2    0    0  0.16697357584E+03 -0.26993631639E+02 -0.11651487330E+03  0.28598172472E+03  0.19900000000E+03 0.  0.
<mgrwt>
<rscale>  0 0.57013775E+03</rscale>
<asrwt>0</asrwt>
<pdfrwt beam="1">  1        1 0.17282643E-01 0.57013775E+03</pdfrwt>
<pdfrwt beam="2">  1       -1 0.95960688E-01 0.57013775E+03</pdfrwt>
<totfact> 0.33888334E+02</totfact>
</mgrwt>
</event>
<event>
 4    1  0.6480558E-006  0.4682333E+03  0.7818608E-02  0.1022420E+00
          1   -1    0    0  501    0  0.00000000000E+00  0.00000000000E+00  0.20765703531E+04  0.20765703531E+04  0.50400000000E-02 0. -1.
         -1   -1    0    0    0  501 -0.00000000000E+00 -0.00000000000E+00 -0.26394779187E+02  0.26394779668E+02  0.50400000000E-02 0.  1.
    5000001    1    1    2    0    0  0.48046852116E+02 -0.63676525531E+02  0.14475164956E+04  0.14633072832E+04  0.19900000000E+03 0.  0.
   -5000001    1    1    2    0    0 -0.48046852116E+02  0.63676525531E+02  0.60265907825E+03  0.63965784956E+03  0.19900000000E+03 0.  0.
<mgrwt>
<rscale>  0 0.46823335E+03</rscale>
<asrwt>0</asrwt>
<pdfrwt beam="1">  1        1 0.29665290E+00 0.46823335E+03</pdfrwt>
<pdfrwt beam="2">  1       -1 0.37706828E-02 0.46823335E+03</pdfrwt>
<totfact> 0.99383606E+02</totfact>
</mgrwt>
</event>
<event>
 4    1  0.6480558E-006  0.6192476E+03  0.7818608E-02  0.9866259E-01
         -1   -1    0    0    0  501 -0.00000000000E+00  0.00000000000E+00  0.25357900020E+03  0.25357900025E+03  0.50400000000E-02 0.  1.
          1   -1    0    0  501    0  0.00000000000E+00 -0.00000000000E+00 -0.37805537512E+03  0.37805537516E+03  0.50400000000E-02 0. -1.
    5000001    1    1    2    0    0 -0.10979650328E+03 -0.14146694190E+03 -0.22090598025E+03  0.34708589699E+03  0.19900000000E+03 0.  0.
   -5000001    1    1    2    0    0  0.10979650328E+03  0.14146694190E+03  0.96429605323E+02  0.28454847841E+03  0.19900000000E+03 0.  0.
<mgrwt>
<rscale>  0 0.61924762E+03</rscale>
<asrwt>0</asrwt>
<pdfrwt beam="1">  1        1 0.54007910E-01 0.61924762E+03</pdfrwt>
<pdfrwt beam="2">  1       -1 0.36225572E-01 0.61924762E+03</pdfrwt>
<totfact> 0.52525071E+02</totfact>
</mgrwt>
</event>
<event>
 4    1  0.6480558E-006  0.1150809E+04  0.7818608E-02  0.9157037E-01
          1   -1    0    0  501    0  0.00000000000E+00  0.00000000000E+00  0.36607820975E+04  0.36607820975E+04  0.50400000000E-02 0. -1.
         -1   -1    0    0    0  501 -0.00000000000E+00 -0.00000000000E+00 -0.90442559166E+02  0.90442559307E+02  0.50400000000E-02 0.  1.
    5000001    1    1    2    0    0  0.24297114449E+03 -0.47955770941E+03  0.19474634742E+04  0.20300801849E+04  0.19900000000E+03 0.  0.
   -5000001    1    1    2    0    0 -0.24297114449E+03  0.47955770941E+03  0.16228760641E+04  0.17211444719E+04  0.19900000000E+03 0.  0.
<mgrwt>
<rscale>  0 0.11508093E+04</rscale>
<asrwt>0</asrwt>
<pdfrwt beam="1">  1        1 0.52296886E+00 0.11508093E+04</pdfrwt>
<pdfrwt beam="2">  1       -1 0.12920366E-01 0.11508093E+04</pdfrwt>
<totfact> 0.12776427E+01</totfact>
</mgrwt>
</event>
<event>
 4    1  0.6480558E-006  0.1038332E+04  0.7818608E-02  0.9267474E-01
          1   -1    0    0  501    0  0.00000000000E+00  0.00000000000E+00  0.26712882563E+03  0.26712882568E+03  0.50400000000E-02 0.  1.
         -1   -1    0    0    0  501 -0.00000000000E+00 -0.00000000000E+00 -0.10090021948E+04  0.10090021948E+04  0.50400000000E-02 0. -1.
    5000001    1    1    2    0    0 -0.33156645931E+03  0.30380536848E+03 -0.16639238798E+03  0.51915454889E+03  0.19900000000E+03 0.  0.
   -5000001    1    1    2    0    0  0.33156645931E+03 -0.30380536848E+03 -0.57548098123E+03  0.75697647164E+03  0.19900000000E+03 0.  0.
<mgrwt>
<rscale>  0 0.10383325E+04</rscale>
<asrwt>0</asrwt>
<pdfrwt beam="1">  1        1 0.38161261E-01 0.10383325E+04</pdfrwt>
<pdfrwt beam="2">  1       -1 0.14414317E+00 0.10383325E+04</pdfrwt>
<totfact> 0.43634768E+01</totfact>
</mgrwt>
</event>
<event>
 4    1  0.6480558E-006  0.6568844E+03  0.7818608E-02  0.9793946E-01
          1   -1    0    0  501    0  0.00000000000E+00  0.00000000000E+00  0.50026629986E+03  0.50026629989E+03  0.50400000000E-02 0.  1.
         -1   -1    0    0    0  501 -0.00000000000E+00 -0.00000000000E+00 -0.21563370221E+03  0.21563370227E+03  0.50400000000E-02 0. -1.
    5000001    1    1    2    0    0 -0.18870952097E+03  0.17736037086E+03  0.10447995321E+03  0.34290675858E+03  0.19900000000E+03 0.  0.
   -5000001    1    1    2    0    0  0.18870952097E+03 -0.17736037086E+03  0.18015264444E+03  0.37299324358E+03  0.19900000000E+03 0.  0.
<mgrwt>
<rscale>  0 0.65688439E+03</rscale>
<asrwt>0</asrwt>
<pdfrwt beam="1">  1        1 0.71466615E-01 0.65688439E+03</pdfrwt>
<pdfrwt beam="2">  1       -1 0.30804814E-01 0.65688439E+03</pdfrwt>
<totfact> 0.48204452E+02</totfact>
</mgrwt>
</event>
<event>
 4    1  0.6480558E-006  0.4498583E+03  0.7818608E-02  0.1027764E+00
         -1   -1    0    0    0  501 -0.00000000000E+00  0.00000000000E+00  0.18487064395E+02  0.18487065082E+02  0.50400000000E-02 0.  1.
          1   -1    0    0  501    0  0.00000000000E+00 -0.00000000000E+00 -0.27366773734E+04  0.27366773734E+04  0.50400000000E-02 0. -1.
    5000001    1    1    2    0    0  0.55454237654E+02  0.82545751491E+02 -0.15625137492E+04  0.15782709495E+04  0.19900000000E+03 0.  0.
   -5000001    1    1    2    0    0 -0.55454237654E+02 -0.82545751491E+02 -0.11556765598E+04  0.11768934890E+04  0.19900000000E+03 0.  0.
<mgrwt>
<rscale>  0 0.44985834E+03</rscale>
<asrwt>0</asrwt>
<pdfrwt beam="1">  1        1 0.39095365E+00 0.44985834E+03</pdfrwt>
<pdfrwt beam="2">  1       -1 0.26410110E-02 0.44985834E+03</pdfrwt>
<totfact> 0.66379219E+02</totfact>
</mgrwt>
</event>
<event>
 4    1  0.6480558E-006  0.9929702E+03  0.7818608E-02  0.9316289E-01
          1   -1    0    0  501    0  0.00000000000E+00  0.00000000000E+00  0.64540649610E+03  0.64540649612E+03  0.50400000000E-02 0.  1.
         -1   -1    0    0    0  501 -0.00000000000E+00 -0.00000000000E+00 -0.38192588726E+03  0.38192588729E+03  0.50400000000E-02 0. -1.
    5000001    1    1    2    0    0  0.32775097038E+03 -0.31463790653E+03  0.10910305462E+03  0.50786040143E+03  0.19900000000E+03 0.  0.
   -5000001    1    1    2    0    0 -0.32775097038E+03  0.31463790653E+03  0.15437755423E+03  0.51947198198E+03  0.19900000000E+03 0.  0.
<mgrwt>
<rscale>  0 0.99297019E+03</rscale>
<asrwt>0</asrwt>
<pdfrwt beam="1">  1        1 0.92200927E-01 0.99297019E+03</pdfrwt>
<pdfrwt beam="2">  1       -1 0.54560841E-01 0.99297019E+03</pdfrwt>
<totfact> 0.11677427E+02</totfact>
</mgrwt>
</event>
<event>
 4    1  0.6480558E-006  0.6768310E+03  0.7818608E-02  0.9757696E-01
          1   -1    0    0  501    0  0.00000000000E+00  0.00000000000E+00  0.94365395300E+03  0.94365395301E+03  0.50400000000E-02 0.  1.
         -1   -1    0    0    0  501 -0.00000000000E+00 -0.00000000000E+00 -0.12136340452E+03  0.12136340462E+03  0.50400000000E-02 0. -1.
    5000001    1    1    2    0    0  0.39632739180E+02  0.21788084853E+03  0.66429004401E+03  0.72795953235E+03  0.19900000000E+03 0.  0.
   -5000001    1    1    2    0    0 -0.39632739180E+02 -0.21788084853E+03  0.15800050447E+03  0.33705782528E+03  0.19900000000E+03 0.  0.
<mgrwt>
<rscale>  0 0.67683102E+03</rscale>
<asrwt>0</asrwt>
<pdfrwt beam="1">  1        1 0.13480772E+00 0.67683102E+03</pdfrwt>
<pdfrwt beam="2">  1       -1 0.17337628E-01 0.67683102E+03</pdfrwt>
<totfact> 0.49882124E+02</totfact>
</mgrwt>
</event>
<event>
 4    1  0.6480558E-006  0.4984272E+03  0.7818608E-02  0.1014190E+00
          1   -1    0    0  501    0  0.00000000000E+00  0.00000000000E+00  0.41696359804E+03  0.41696359807E+03  0.50400000000E-02 0.  1.
         -1   -1    0    0    0  501 -0.00000000000E+00 -0.00000000000E+00 -0.14895163430E+03  0.14895163438E+03  0.50400000000E-02 0. -1.
    5000001    1    1    2    0    0 -0.12559435942E+03 -0.81106154897E+02  0.14810774514E+03  0.28963607450E+03  0.19900000000E+03 0.  0.
   -5000001    1    1    2    0    0  0.12559435942E+03  0.81106154897E+02  0.11990421861E+03  0.27627915796E+03  0.19900000000E+03 0.  0.
<mgrwt>
<rscale>  0 0.49842716E+03</rscale>
<asrwt>0</asrwt>
<pdfrwt beam="1">  1        1 0.59566230E-01 0.49842716E+03</pdfrwt>
<pdfrwt beam="2">  1       -1 0.21278804E-01 0.49842716E+03</pdfrwt>
<totfact> 0.11551247E+03</totfact>
</mgrwt>
</event>
<event>
 4    1  0.6480558E-006  0.5414683E+03  0.7818608E-02  0.1003488E+00
         -1   -1    0    0    0  501 -0.00000000000E+00  0.00000000000E+00  0.30281812713E+03  0.30281812717E+03  0.50400000000E-02 0. -1.
          1   -1    0    0  501    0  0.00000000000E+00 -0.00000000000E+00 -0.24204954042E+03  0.24204954047E+03  0.50400000000E-02 0.  1.
    5000001    1    1    2    0    0 -0.57358280675E+02  0.17357669626E+03  0.47136530689E+02  0.27430219535E+03  0.19900000000E+03 0.  0.
   -5000001    1    1    2    0    0  0.57358280675E+02 -0.17357669626E+03  0.13632056026E+02  0.27056547229E+03  0.19900000000E+03 0.  0.
<mgrwt>
<rscale>  0 0.54146833E+03</rscale>
<asrwt>0</asrwt>
<pdfrwt beam="1">  1        1 0.34578506E-01 0.54146833E+03</pdfrwt>
<pdfrwt beam="2">  1       -1 0.43259733E-01 0.54146833E+03</pdfrwt>
<totfact> 0.67829778E+02</totfact>
</mgrwt>
</event>
<event>
 4    1  0.6480558E-006  0.8279288E+03  0.7818608E-02  0.9520449E-01
          1   -1    0    0  501    0  0.00000000000E+00  0.00000000000E+00  0.90082768681E+03  0.90082768682E+03  0.50400000000E-02 0. -1.
         -1   -1    0    0    0  501 -0.00000000000E+00 -0.00000000000E+00 -0.19023230114E+03  0.19023230121E+03  0.50400000000E-02 0.  1.
    5000001    1    1    2    0    0 -0.21695064671E+03 -0.10185576322E+03  0.71456546551E+03  0.77951714805E+03  0.19900000000E+03 0.  0.
   -5000001    1    1    2    0    0  0.21695064671E+03  0.10185576322E+03 -0.39700798444E+01  0.31154283998E+03  0.19900000000E+03 0.  0.
<mgrwt>
<rscale>  0 0.82792880E+03</rscale>
<asrwt>0</asrwt>
<pdfrwt beam="1">  1        1 0.12868967E+00 0.82792880E+03</pdfrwt>
<pdfrwt beam="2">  1       -1 0.27176042E-01 0.82792880E+03</pdfrwt>
<totfact> 0.25121025E+02</totfact>
</mgrwt>
</event>
<event>
 4    1  0.6480558E-006  0.6590062E+03  0.7818608E-02  0.9790025E-01
          1   -1    0    0  501    0  0.00000000000E+00  0.00000000000E+00  0.24089464638E+03  0.24089464643E+03  0.50400000000E-02 0.  1.
         -1   -1    0    0    0  501 -0.00000000000E+00 -0.00000000000E+00 -0.45070441875E+03  0.45070441877E+03  0.50400000000E-02 0. -1.
    5000001    1    1    2    0    0  0.60866703873E+02  0.15438287473E+03  0.10871183653E+03  0.28099482389E+03  0.19900000000E+03 0.  0.
   -5000001    1    1    2    0    0 -0.60866703873E+02 -0.15438287473E+03 -0.31852160890E+03  0.41060424131E+03  0.19900000000E+03 0.  0.
<mgrwt>
<rscale>  0 0.65900617E+03</rscale>
<asrwt>0</asrwt>
<pdfrwt beam="1">  1        1 0.34413521E-01 0.65900617E+03</pdfrwt>
<pdfrwt beam="2">  1       -1 0.64386346E-01 0.65900617E+03</pdfrwt>
<totfact> 0.31846164E+02</totfact>
</mgrwt>
</event>
<event>
 4    1  0.6480558E-006  0.4944705E+03  0.7818608E-02  0.1015232E+00
          1   -1    0    0  501    0  0.00000000000E+00  0.00000000000E+00  0.12557703712E+03  0.12557703722E+03  0.50400000000E-02 0.  1.
         -1   -1    0    0    0  501 -0.00000000000E+00 -0.00000000000E+00 -0.48675506208E+03  0.48675506211E+03  0.50400000000E-02 0. -1.
    5000001    1    1    2    0    0  0.89463498825E+02 -0.10944238547E+03 -0.13194646686E+03  0.27747472583E+03  0.19900000000E+03 0.  0.
   -5000001    1    1    2    0    0 -0.89463498825E+02  0.10944238547E+03 -0.22923155810E+03  0.33485737350E+03  0.19900000000E+03 0.  0.
<mgrwt>
<rscale>  0 0.49447046E+03</rscale>
<asrwt>0</asrwt>
<pdfrwt beam="1">  1        1 0.17939577E-01 0.49447046E+03</pdfrwt>
<pdfrwt beam="2">  1       -1 0.69536436E-01 0.49447046E+03</pdfrwt>
<totfact> 0.64028758E+02</totfact>
</mgrwt>
</event>
<event>
 4    1  0.6480558E-006  0.8137141E+03  0.7818608E-02  0.9540376E-01
          1   -1    0    0  501    0  0.00000000000E+00  0.00000000000E+00  0.10634123289E+04  0.10634123289E+04  0.50400000000E-02 0.  1.
         -1   -1    0    0    0  501 -0.00000000000E+00 -0.00000000000E+00 -0.15566178448E+03  0.15566178456E+03  0.50400000000E-02 0. -1.
    5000001    1    1    2    0    0 -0.20404125457E+03 -0.54959401767E+02  0.26759559678E+02  0.29149690126E+03  0.19900000000E+03 0.  0.
   -5000001    1    1    2    0    0  0.20404125457E+03  0.54959401767E+02  0.88099098476E+03  0.92757721223E+03  0.19900000000E+03 0.  0.
<mgrwt>
<rscale>  0 0.81371410E+03</rscale>
<asrwt>0</asrwt>
<pdfrwt beam="1">  1        1 0.15191604E+00 0.81371410E+03</pdfrwt>
<pdfrwt beam="2">  1       -1 0.22237398E-01 0.81371410E+03</pdfrwt>
<totfact> 0.26684872E+02</totfact>
</mgrwt>
</event>
<event>
 4    1  0.6480558E-006  0.5634930E+03  0.7818608E-02  0.9984182E-01
         -1   -1    0    0    0  501 -0.00000000000E+00  0.00000000000E+00  0.19974608943E+03  0.19974608949E+03  0.50400000000E-02 0. -1.
          1   -1    0    0  501    0  0.00000000000E+00 -0.00000000000E+00 -0.39740999824E+03  0.39740999827E+03  0.50400000000E-02 0.  1.
    5000001    1    1    2    0    0 -0.11538777639E+03 -0.53298181265E+02 -0.26171870992E+03  0.35249499030E+03  0.19900000000E+03 0.  0.
   -5000001    1    1    2    0    0  0.11538777639E+03  0.53298181265E+02  0.64054801104E+02  0.24466109746E+03  0.19900000000E+03 0.  0.
<mgrwt>
<rscale>  0 0.56349301E+03</rscale>
<asrwt>0</asrwt>
<pdfrwt beam="1">  1        1 0.56772856E-01 0.56349301E+03</pdfrwt>
<pdfrwt beam="2">  1       -1 0.28535156E-01 0.56349301E+03</pdfrwt>
<totfact> 0.74838815E+02</totfact>
</mgrwt>
</event>
<event>
 4    1  0.6480558E-006  0.5711396E+03  0.7818608E-02  0.9967160E-01
          1   -1    0    0  501    0  0.00000000000E+00  0.00000000000E+00  0.20435956104E+04  0.20435956104E+04  0.50400000000E-02 0.  1.
         -1   -1    0    0    0  501 -0.00000000000E+00 -0.00000000000E+00 -0.39905207667E+02  0.39905207985E+02  0.50400000000E-02 0. -1.
    5000001    1    1    2    0    0  0.42414787395E+02 -0.14881355921E+03  0.51235571749E+03  0.57101127033E+03  0.19900000000E+03 0.  0.
   -5000001    1    1    2    0    0 -0.42414787395E+02  0.14881355921E+03  0.14913346852E+04  0.15124895480E+04  0.19900000000E+03 0.  0.
<mgrwt>
<rscale>  0 0.57113959E+03</rscale>
<asrwt>0</asrwt>
<pdfrwt beam="1">  1        1 0.29194217E+00 0.57113959E+03</pdfrwt>
<pdfrwt beam="2">  1       -1 0.57007451E-02 0.57113959E+03</pdfrwt>
<totfact> 0.55146073E+02</totfact>
</mgrwt>
</event>
<event>
 4    1  0.6480558E-006  0.5000300E+03  0.7818608E-02  0.1013771E+00
          1   -1    0    0  501    0  0.00000000000E+00  0.00000000000E+00  0.48021171206E+03  0.48021171209E+03  0.50400000000E-02 0.  1.
         -1   -1    0    0    0  501 -0.00000000000E+00 -0.00000000000E+00 -0.13016656522E+03  0.13016656532E+03  0.50400000000E-02 0. -1.
    5000001    1    1    2    0    0  0.71272320610E+02 -0.12088673473E+03  0.10582842866E+03  0.26550706701E+03  0.19900000000E+03 0.  0.
   -5000001    1    1    2    0    0 -0.71272320610E+02  0.12088673473E+03  0.24421671819E+03  0.34487121040E+03  0.19900000000E+03 0.  0.
<mgrwt>
<rscale>  0 0.50003004E+03</rscale>
<asrwt>0</asrwt>
<pdfrwt beam="1">  1        1 0.68601672E-01 0.50003004E+03</pdfrwt>
<pdfrwt beam="2">  1       -1 0.18595224E-01 0.50003004E+03</pdfrwt>
<totfact> 0.11982096E+03</totfact>
</mgrwt>
</event>
<event>
 4    1  0.6480558E-006  0.5952912E+03  0.7818608E-02  0.9915224E-01
         -1   -1    0    0    0  501 -0.00000000000E+00  0.00000000000E+00  0.16209109619E+03  0.16209109627E+03  0.50400000000E-02 0. -1.
          1   -1    0    0  501    0  0.00000000000E+00 -0.00000000000E+00 -0.54656250090E+03  0.54656250093E+03  0.50400000000E-02 0.  1.
    5000001    1    1    2    0    0 -0.17564696026E+03  0.61798341232E+02 -0.33469524996E+03  0.43161649641E+03  0.19900000000E+03 0.  0.
   -5000001    1    1    2    0    0  0.17564696026E+03 -0.61798341232E+02 -0.49776154752E+02  0.27703710078E+03  0.19900000000E+03 0.  0.
<mgrwt>
<rscale>  0 0.59529124E+03</rscale>
<asrwt>0</asrwt>
<pdfrwt beam="1">  1        1 0.78080357E-01 0.59529124E+03</pdfrwt>
<pdfrwt beam="2">  1       -1 0.23155871E-01 0.59529124E+03</pdfrwt>
<totfact> 0.69797175E+02</totfact>
</mgrwt>
</event>
<event>
 4    1  0.6480558E-006  0.8489302E+03  0.7818608E-02  0.9491774E-01
          1   -1    0    0  501    0  0.00000000000E+00  0.00000000000E+00  0.63741483537E+03  0.63741483539E+03  0.50400000000E-02 0.  1.
         -1   -1    0    0    0  501 -0.00000000000E+00 -0.00000000000E+00 -0.28265837491E+03  0.28265837495E+03  0.50400000000E-02 0. -1.
    5000001    1    1    2    0    0  0.23242068232E+03  0.20640548614E+03 -0.49825369586E+02  0.37243276673E+03  0.19900000000E+03 0.  0.
   -5000001    1    1    2    0    0 -0.23242068232E+03 -0.20640548614E+03  0.40458183005E+03  0.54764044362E+03  0.19900000000E+03 0.  0.
<mgrwt>
<rscale>  0 0.84893025E+03</rscale>
<asrwt>0</asrwt>
<pdfrwt beam="1">  1        1 0.91059262E-01 0.84893025E+03</pdfrwt>
<pdfrwt beam="2">  1       -1 0.40379768E-01 0.84893025E+03</pdfrwt>
<totfact> 0.21079867E+02</totfact>
</mgrwt>
</event>
<event>
 4    1  0.6480558E-006  0.7871289E+03  0.7818608E-02  0.9578837E-01
          1   -1    0    0  501    0  0.00000000000E+00  0.00000000000E+00  0.35443712385E+04  0.35443712385E+04  0.50400000000E-02 0. -1.
         -1   -1    0    0    0  501 -0.00000000000E+00 -0.00000000000E+00 -0.43701113435E+02  0.43701113725E+02  0.50400000000E-02 0.  1.
    5000001    1    1    2    0    0  0.65393342128E+02  0.32629812833E+03  0.14430139261E+04  0.14942011071E+04  0.19900000000E+03 0.  0.
   -5000001    1    1    2    0    0 -0.65393342128E+02 -0.32629812833E+03  0.20576561990E+04  0.20938712451E+04  0.19900000000E+03 0.  0.
<mgrwt>
<rscale>  0 0.78712888E+03</rscale>
<asrwt>0</asrwt>
<pdfrwt beam="1">  1        1 0.50633880E+00 0.78712888E+03</pdfrwt>
<pdfrwt beam="2">  1       -1 0.62430156E-02 0.78712888E+03</pdfrwt>
<totfact> 0.50843459E+01</totfact>
</mgrwt>
</event>
<event>
 4    1  0.6480558E-006  0.4913144E+03  0.7818608E-02  0.1016071E+00
         -1   -1    0    0    0  501 -0.00000000000E+00  0.00000000000E+00  0.61685480312E+02  0.61685480517E+02  0.50400000000E-02 0. -1.
          1   -1    0    0  501    0  0.00000000000E+00 -0.00000000000E+00 -0.97830913166E+03  0.97830913167E+03  0.50400000000E-02 0.  1.
    5000001    1    1    2    0    0  0.25679927964E+02  0.10232144380E+03 -0.25072543691E+03  0.33703617206E+03  0.19900000000E+03 0.  0.
   -5000001    1    1    2    0    0 -0.25679927964E+02 -0.10232144380E+03 -0.66589821443E+03  0.70295844013E+03  0.19900000000E+03 0.  0.
<mgrwt>
<rscale>  0 0.49131444E+03</rscale>
<asrwt>0</asrwt>
<pdfrwt beam="1">  1        1 0.13975844E+00 0.49131444E+03</pdfrwt>
<pdfrwt beam="2">  1       -1 0.88122121E-02 0.49131444E+03</pdfrwt>
<totfact> 0.13930125E+03</totfact>
</mgrwt>
</event>
<event>
 4    1  0.6480558E-006  0.5766099E+03  0.7818608E-02  0.9955158E-01
          1   -1    0    0  501    0  0.00000000000E+00  0.00000000000E+00  0.10035410716E+04  0.10035410716E+04  0.50400000000E-02 0.  1.
         -1   -1    0    0    0  501 -0.00000000000E+00 -0.00000000000E+00 -0.82826436880E+02  0.82826437033E+02  0.50400000000E-02 0. -1.
    5000001    1    1    2    0    0  0.67106627212E+02 -0.19622195649E+03  0.41771027045E+03  0.50703966873E+03  0.19900000000E+03 0.  0.
   -5000001    1    1    2    0    0 -0.67106627212E+02  0.19622195649E+03  0.50300436427E+03  0.57932783991E+03  0.19900000000E+03 0.  0.
<mgrwt>
<rscale>  0 0.57660986E+03</rscale>
<asrwt>0</asrwt>
<pdfrwt beam="1">  1        1 0.14336300E+00 0.57660986E+03</pdfrwt>
<pdfrwt beam="2">  1       -1 0.11832349E-01 0.57660986E+03</pdfrwt>
<totfact> 0.83701261E+02</totfact>
</mgrwt>
</event>
<event>
 4    1  0.6480558E-006  0.7352103E+03  0.7818608E-02  0.9658843E-01
          1   -1    0    0  501    0  0.00000000000E+00  0.00000000000E+00  0.12740042249E+04  0.12740042249E+04  0.50400000000E-02 0.  1.
         -1   -1    0    0    0  501 -0.00000000000E+00 -0.00000000000E+00 -0.10606992195E+03  0.10606992207E+03  0.50400000000E-02 0. -1.
    5000001    1    1    2    0    0 -0.22665684208E+03  0.20985630198E+03  0.56344407344E+03  0.67266872637E+03  0.19900000000E+03 0.  0.
   -5000001    1    1    2    0    0  0.22665684208E+03 -0.20985630198E+03  0.60449022953E+03  0.70740542063E+03  0.19900000000E+03 0.  0.
<mgrwt>
<rscale>  0 0.73521025E+03</rscale>
<asrwt>0</asrwt>
<pdfrwt beam="1">  1        1 0.18200059E+00 0.73521025E+03</pdfrwt>
<pdfrwt beam="2">  1       -1 0.15152847E-01 0.73521025E+03</pdfrwt>
<totfact> 0.36041868E+02</totfact>
</mgrwt>
</event>
<event>
 4    1  0.6480558E-006  0.5038398E+03  0.7818608E-02  0.1012782E+00
         -1   -1    0    0    0  501 -0.00000000000E+00  0.00000000000E+00  0.12060548507E+03  0.12060548517E+03  0.50400000000E-02 0. -1.
          1   -1    0    0  501    0  0.00000000000E+00 -0.00000000000E+00 -0.52620851044E+03  0.52620851046E+03  0.50400000000E-02 0.  1.
    5000001    1    1    2    0    0 -0.93550473650E+02 -0.11330117773E+03 -0.26401704333E+03  0.36179392914E+03  0.19900000000E+03 0.  0.
   -5000001    1    1    2    0    0  0.93550473650E+02  0.11330117773E+03 -0.14158598204E+03  0.28502006650E+03  0.19900000000E+03 0.  0.
<mgrwt>
<rscale>  0 0.50383979E+03</rscale>
<asrwt>0</asrwt>
<pdfrwt beam="1">  1        1 0.75172643E-01 0.50383979E+03</pdfrwt>
<pdfrwt beam="2">  1       -1 0.17229355E-01 0.50383979E+03</pdfrwt>
<totfact> 0.12007535E+03</totfact>
</mgrwt>
</event>
<event>
 4    1  0.6480558E-006  0.7123090E+03  0.7818608E-02  0.9696411E-01
          1   -1    0    0  501    0  0.00000000000E+00  0.00000000000E+00  0.15186584538E+03  0.15186584547E+03  0.50400000000E-02 0.  1.
         -1   -1    0    0    0  501 -0.00000000000E+00 -0.00000000000E+00 -0.83525042837E+03  0.83525042839E+03  0.50400000000E-02 0. -1.
    5000001    1    1    2    0    0  0.29131687510E+03 -0.40722359034E+02 -0.30447696712E+03  0.46779381756E+03  0.19900000000E+03 0.  0.
   -5000001    1    1    2    0    0 -0.29131687510E+03  0.40722359034E+02 -0.37890761586E+03  0.51932245629E+03  0.19900000000E+03 0.  0.
<mgrwt>
<rscale>  0 0.71230896E+03</rscale>
<asrwt>0</asrwt>
<pdfrwt beam="1">  1        1 0.21695121E-01 0.71230896E+03</pdfrwt>
<pdfrwt beam="2">  1       -1 0.11932149E+00 0.71230896E+03</pdfrwt>
<totfact> 0.15012950E+02</totfact>
</mgrwt>
</event>
<event>
 4    1  0.6480558E-006  0.8560585E+03  0.7818608E-02  0.9482241E-01
          1   -1    0    0  501    0  0.00000000000E+00  0.00000000000E+00  0.15174205998E+04  0.15174205998E+04  0.50400000000E-02 0.  1.
         -1   -1    0    0    0  501 -0.00000000000E+00 -0.00000000000E+00 -0.12073714047E+03  0.12073714058E+03  0.50400000000E-02 0. -1.
    5000001    1    1    2    0    0  0.15717671970E+03 -0.33369832664E+03  0.86460448934E+03  0.96083350140E+03  0.19900000000E+03 0.  0.
   -5000001    1    1    2    0    0 -0.15717671970E+03  0.33369832664E+03  0.53207896997E+03  0.67732423897E+03  0.19900000000E+03 0.  0.
<mgrwt>
<rscale>  0 0.85605847E+03</rscale>
<asrwt>0</asrwt>
<pdfrwt beam="1">  1        1 0.21677435E+00 0.85605847E+03</pdfrwt>
<pdfrwt beam="2">  1       -1 0.17248164E-01 0.85605847E+03</pdfrwt>
<totfact> 0.20005267E+02</totfact>
</mgrwt>
</event>
<event>
 4    1  0.6480558E-006  0.1126193E+04  0.7818608E-02  0.9180032E-01
         -1   -1    0    0    0  501 -0.00000000000E+00  0.00000000000E+00  0.40905816615E+03  0.40905816619E+03  0.50400000000E-02 0. -1.
          1   -1    0    0  501    0  0.00000000000E+00 -0.00000000000E+00 -0.77514074363E+03  0.77514074364E+03  0.50400000000E-02 0.  1.
    5000001    1    1    2    0    0  0.25197906262E+03  0.14866935316E+03  0.27756239722E+03  0.44970869340E+03  0.19900000000E+03 0.  0.
   -5000001    1    1    2    0    0 -0.25197906262E+03 -0.14866935316E+03 -0.64364497470E+03  0.73449021642E+03  0.19900000000E+03 0.  0.
<mgrwt>
<rscale>  0 0.11261930E+04</rscale>
<asrwt>0</asrwt>
<pdfrwt beam="1">  1        1 0.11073439E+00 0.11261930E+04</pdfrwt>
<pdfrwt beam="2">  1       -1 0.58436881E-01 0.11261930E+04</pdfrwt>
<totfact> 0.77126651E+01</totfact>
</mgrwt>
</event>
<event>
 4    1  0.6480558E-006  0.5249617E+03  0.7818608E-02  0.1007461E+00
         -1   -1    0    0    0  501 -0.00000000000E+00  0.00000000000E+00  0.46159360096E+03  0.46159360099E+03  0.50400000000E-02 0. -1.
          1   -1    0    0  501    0  0.00000000000E+00 -0.00000000000E+00 -0.14925727840E+03  0.14925727849E+03  0.50400000000E-02 0.  1.
    5000001    1    1    2    0    0 -0.47537825339E+01  0.14443556387E+03  0.26288444824E+03  0.35999092167E+03  0.19900000000E+03 0.  0.
   -5000001    1    1    2    0    0  0.47537825339E+01 -0.14443556387E+03  0.49451874322E+02  0.25085995781E+03  0.19900000000E+03 0.  0.
<mgrwt>
<rscale>  0 0.52496173E+03</rscale>
<asrwt>0</asrwt>
<pdfrwt beam="1">  1        1 0.21322468E-01 0.52496173E+03</pdfrwt>
<pdfrwt beam="2">  1       -1 0.65941945E-01 0.52496173E+03</pdfrwt>
<totfact> 0.56734833E+02</totfact>
</mgrwt>
</event>
<event>
 4    1  0.6480558E-006  0.5748644E+03  0.7818608E-02  0.9958972E-01
         -1   -1    0    0    0  501 -0.00000000000E+00  0.00000000000E+00  0.14784373572E+03  0.14784373581E+03  0.50400000000E-02 0. -1.
          1   -1    0    0  501    0  0.00000000000E+00 -0.00000000000E+00 -0.55881479733E+03  0.55881479735E+03  0.50400000000E-02 0.  1.
    5000001    1    1    2    0    0  0.11481098507E+03 -0.15722433802E+03 -0.11756788731E+03  0.30219904514E+03  0.19900000000E+03 0.  0.
   -5000001    1    1    2    0    0 -0.11481098507E+03  0.15722433802E+03 -0.29340317430E+03  0.40445948802E+03  0.19900000000E+03 0.  0.
<mgrwt>
<rscale>  0 0.57486439E+03</rscale>
<asrwt>0</asrwt>
<pdfrwt beam="1">  1        1 0.79830684E-01 0.57486439E+03</pdfrwt>
<pdfrwt beam="2">  1       -1 0.21120534E-01 0.57486439E+03</pdfrwt>
<totfact> 0.79015941E+02</totfact>
</mgrwt>
</event>
<event>
 4    1  0.6480558E-006  0.6111552E+03  0.7818608E-02  0.9882529E-01
          1   -1    0    0  501    0  0.00000000000E+00  0.00000000000E+00  0.10195267032E+03  0.10195267045E+03  0.50400000000E-02 0.  1.
         -1   -1    0    0    0  501 -0.00000000000E+00 -0.00000000000E+00 -0.91589223665E+03  0.91589223667E+03  0.50400000000E-02 0. -1.
    5000001    1    1    2    0    0 -0.15160801500E+03  0.16858617461E+03 -0.32588520369E+03  0.44408158537E+03  0.19900000000E+03 0.  0.
   -5000001    1    1    2    0    0  0.15160801500E+03 -0.16858617461E+03 -0.48805436265E+03  0.57376332174E+03  0.19900000000E+03 0.  0.
<mgrwt>
<rscale>  0 0.61115517E+03</rscale>
<asrwt>0</asrwt>
<pdfrwt beam="1">  1        1 0.14564668E-01 0.61115517E+03</pdfrwt>
<pdfrwt beam="2">  1       -1 0.13084174E+00 0.61115517E+03</pdfrwt>
<totfact> 0.20420969E+02</totfact>
</mgrwt>
</event>
<event>
 4    1  0.6480558E-006  0.6107776E+03  0.7818608E-02  0.9883295E-01
         -1   -1    0    0    0  501 -0.00000000000E+00  0.00000000000E+00  0.41839098977E+03  0.41839098980E+03  0.50400000000E-02 0. -1.
          1   -1    0    0  501    0  0.00000000000E+00 -0.00000000000E+00 -0.22290709061E+03  0.22290709067E+03  0.50400000000E-02 0.  1.
    5000001    1    1    2    0    0  0.12422659424E+03  0.19060866680E+03  0.52006055621E+02  0.30670758125E+03  0.19900000000E+03 0.  0.
   -5000001    1    1    2    0    0 -0.12422659424E+03 -0.19060866680E+03  0.14347784354E+03  0.33459049921E+03  0.19900000000E+03 0.  0.
<mgrwt>
<rscale>  0 0.61077760E+03</rscale>
<asrwt>0</asrwt>
<pdfrwt beam="1">  1        1 0.31843871E-01 0.61077760E+03</pdfrwt>
<pdfrwt beam="2">  1       -1 0.59770141E-01 0.61077760E+03</pdfrwt>
<totfact> 0.40850254E+02</totfact>
</mgrwt>
</event>
<event>
 4    1  0.6480558E-006  0.6190025E+03  0.7818608E-02  0.9866748E-01
          1   -1    0    0  501    0  0.00000000000E+00  0.00000000000E+00  0.52889003579E+03  0.52889003581E+03  0.50400000000E-02 0. -1.
         -1   -1    0    0    0  501 -0.00000000000E+00 -0.00000000000E+00 -0.18111708145E+03  0.18111708152E+03  0.50400000000E-02 0.  1.
    5000001    1    1    2    0    0 -0.28174048178E+02  0.23334474875E+03  0.13859872820E+03  0.33771904924E+03  0.19900000000E+03 0.  0.
   -5000001    1    1    2    0    0  0.28174048178E+02 -0.23334474875E+03  0.20917422614E+03  0.37228806809E+03  0.19900000000E+03 0.  0.
<mgrwt>
<rscale>  0 0.61900249E+03</rscale>
<asrwt>0</asrwt>
<pdfrwt beam="1">  1        1 0.75555722E-01 0.61900249E+03</pdfrwt>
<pdfrwt beam="2">  1       -1 0.25873868E-01 0.61900249E+03</pdfrwt>
<totfact> 0.60455630E+02</totfact>
</mgrwt>
</event>
<event>
 4    1  0.6480558E-006  0.6227039E+03  0.7818608E-02  0.9859391E-01
         -1   -1    0    0    0  501 -0.00000000000E+00  0.00000000000E+00  0.33185968505E+03  0.33185968509E+03  0.50400000000E-02 0. -1.
          1   -1    0    0  501    0  0.00000000000E+00 -0.00000000000E+00 -0.29211149958E+03  0.29211149962E+03  0.50400000000E-02 0.  1.
    5000001    1    1    2    0    0  0.91856229203E+01 -0.17060398522E+03 -0.14824380314E+03  0.30127615341E+03  0.19900000000E+03 0.  0.
   -5000001    1    1    2    0    0 -0.91856229203E+01  0.17060398522E+03  0.18799198862E+03  0.32269503130E+03  0.19900000000E+03 0.  0.
<mgrwt>
<rscale>  0 0.62270388E+03</rscale>
<asrwt>0</asrwt>
<pdfrwt beam="1">  1        1 0.41730214E-01 0.62270388E+03</pdfrwt>
<pdfrwt beam="2">  1       -1 0.47408526E-01 0.62270388E+03</pdfrwt>
<totfact> 0.44887926E+02</totfact>
</mgrwt>
</event>
<event>
 4    1  0.6480558E-006  0.4393129E+03  0.7818608E-02  0.1030958E+00
          1   -1    0    0  501    0  0.00000000000E+00  0.00000000000E+00  0.44463639912E+03  0.44463639915E+03  0.50400000000E-02 0. -1.
         -1   -1    0    0    0  501 -0.00000000000E+00 -0.00000000000E+00 -0.10851328577E+03  0.10851328588E+03  0.50400000000E-02 0.  1.
    5000001    1    1    2    0    0  0.36755456318E+02 -0.78747957184E+02  0.12638182487E+03  0.25124802484E+03  0.19900000000E+03 0.  0.
   -5000001    1    1    2    0    0 -0.36755456318E+02  0.78747957184E+02  0.20974128849E+03  0.30190166019E+03  0.19900000000E+03 0.  0.
<mgrwt>
<rscale>  0 0.43931290E+03</rscale>
<asrwt>0</asrwt>
<pdfrwt beam="1">  1        1 0.63519486E-01 0.43931290E+03</pdfrwt>
<pdfrwt beam="2">  1       -1 0.15501898E-01 0.43931290E+03</pdfrwt>
<totfact> 0.17822591E+03</totfact>
</mgrwt>
</event>
<event>
 4    1  0.6480558E-006  0.8208961E+03  0.7818608E-02  0.9530254E-01
          1   -1    0    0  501    0  0.00000000000E+00  0.00000000000E+00  0.46265422446E+03  0.46265422449E+03  0.50400000000E-02 0. -1.
         -1   -1    0    0    0  501 -0.00000000000E+00 -0.00000000000E+00 -0.36413289211E+03  0.36413289214E+03  0.50400000000E-02 0.  1.
    5000001    1    1    2    0    0 -0.25050318519E+03  0.24510654467E+03 -0.28998658921E+02  0.40406804656E+03  0.19900000000E+03 0.  0.
   -5000001    1    1    2    0    0  0.25050318519E+03 -0.24510654467E+03  0.12751999128E+03  0.42271907007E+03  0.19900000000E+03 0.  0.
<mgrwt>
<rscale>  0 0.82089615E+03</rscale>
<asrwt>0</asrwt>
<pdfrwt beam="1">  1        1 0.66093461E-01 0.82089615E+03</pdfrwt>
<pdfrwt beam="2">  1       -1 0.52018984E-01 0.82089615E+03</pdfrwt>
<totfact> 0.20490867E+02</totfact>
</mgrwt>
</event>
<event>
 4    1  0.6480558E-006  0.4441688E+03  0.7818608E-02  0.1029475E+00
         -1   -1    0    0    0  501 -0.00000000000E+00  0.00000000000E+00  0.21105348550E+02  0.21105349151E+02  0.50400000000E-02 0. -1.
          1   -1    0    0  501    0  0.00000000000E+00 -0.00000000000E+00 -0.23369185777E+04  0.23369185777E+04  0.50400000000E-02 0.  1.
    5000001    1    1    2    0    0 -0.98477188285E+02 -0.27545112965E+01 -0.11785619742E+04  0.11992975740E+04  0.19900000000E+03 0.  0.
   -5000001    1    1    2    0    0  0.98477188285E+02  0.27545112965E+01 -0.11372512550E+04  0.11587263529E+04  0.19900000000E+03 0.  0.
<mgrwt>
<rscale>  0 0.44416880E+03</rscale>
<asrwt>0</asrwt>
<pdfrwt beam="1">  1        1 0.33384535E+00 0.44416880E+03</pdfrwt>
<pdfrwt beam="2">  1       -1 0.30150513E-02 0.44416880E+03</pdfrwt>
<totfact> 0.96444758E+02</totfact>
</mgrwt>
</event>
<event>
 4    1  0.6480558E-006  0.4166066E+03  0.7818608E-02  0.1038176E+00
         -1   -1    0    0    0  501 -0.00000000000E+00  0.00000000000E+00  0.27105637060E+02  0.27105637528E+02  0.50400000000E-02 0.  1.
          1   -1    0    0  501    0  0.00000000000E+00 -0.00000000000E+00 -0.16007834690E+04  0.16007834690E+04  0.50400000000E-02 0. -1.
    5000001    1    1    2    0    0 -0.41864037457E+02  0.33006383966E+02 -0.66657701536E+03  0.69768756361E+03  0.19900000000E+03 0.  0.
   -5000001    1    1    2    0    0  0.41864037457E+02 -0.33006383966E+02 -0.90710081657E+03  0.93020154291E+03  0.19900000000E+03 0.  0.
<mgrwt>
<rscale>  0 0.41660656E+03</rscale>
<asrwt>0</asrwt>
<pdfrwt beam="1">  1        1 0.22868329E+00 0.41660656E+03</pdfrwt>
<pdfrwt beam="2">  1       -1 0.38722349E-02 0.41660656E+03</pdfrwt>
<totfact> 0.18807817E+03</totfact>
</mgrwt>
</event>
<event>
 4    1  0.6480558E-006  0.6006267E+03  0.7818608E-02  0.9904107E-01
         -1   -1    0    0    0  501 -0.00000000000E+00  0.00000000000E+00  0.13293614071E+03  0.13293614080E+03  0.50400000000E-02 0. -1.
          1   -1    0    0  501    0  0.00000000000E+00 -0.00000000000E+00 -0.67843181947E+03  0.67843181949E+03  0.50400000000E-02 0.  1.
    5000001    1    1    2    0    0  0.89926788306E+02  0.11858808836E+03 -0.50054915281E+03  0.55883845280E+03  0.19900000000E+03 0.  0.
   -5000001    1    1    2    0    0 -0.89926788306E+02 -0.11858808836E+03 -0.44946525961E+02  0.25252950749E+03  0.19900000000E+03 0.  0.
<mgrwt>
<rscale>  0 0.60062670E+03</rscale>
<asrwt>0</asrwt>
<pdfrwt beam="1">  1        1 0.96918830E-01 0.60062670E+03</pdfrwt>
<pdfrwt beam="2">  1       -1 0.18990878E-01 0.60062670E+03</pdfrwt>
<totfact> 0.71653915E+02</totfact>
</mgrwt>
</event>
<event>
 4    1  0.6480558E-006  0.5480660E+03  0.7818608E-02  0.1001943E+00
          1   -1    0    0  501    0  0.00000000000E+00  0.00000000000E+00  0.29987709092E+02  0.29987709515E+02  0.50400000000E-02 0.  1.
         -1   -1    0    0    0  501 -0.00000000000E+00 -0.00000000000E+00 -0.25041619520E+04  0.25041619520E+04  0.50400000000E-02 0. -1.
    5000001    1    1    2    0    0 -0.12277253027E+03 -0.31434680126E+02 -0.59253735255E+03  0.63777954457E+03  0.19900000000E+03 0.  0.
   -5000001    1    1    2    0    0  0.12277253027E+03  0.31434680126E+02 -0.18816368904E+04  0.18963701170E+04  0.19900000000E+03 0.  0.
<mgrwt>
<rscale>  0 0.54806598E+03</rscale>
<asrwt>0</asrwt>
<pdfrwt beam="1">  1        1 0.42839600E-02 0.54806598E+03</pdfrwt>
<pdfrwt beam="2">  1       -1 0.35773729E+00 0.54806598E+03</pdfrwt>
<totfact> 0.32895856E+01</totfact>
</mgrwt>
</event>
<event>
 4    1  0.6480558E-006  0.6419941E+03  0.7818608E-02  0.9821919E-01
         -1   -1    0    0    0  501 -0.00000000000E+00  0.00000000000E+00  0.30756981408E+03  0.30756981412E+03  0.50400000000E-02 0. -1.
          1   -1    0    0  501    0  0.00000000000E+00 -0.00000000000E+00 -0.33501046361E+03  0.33501046365E+03  0.50400000000E-02 0.  1.
    5000001    1    1    2    0    0  0.29179489544E+02 -0.24437995495E+03 -0.67295836318E+02  0.32357801930E+03  0.19900000000E+03 0.  0.
   -5000001    1    1    2    0    0 -0.29179489544E+02  0.24437995495E+03  0.39855186787E+02  0.31900225846E+03  0.19900000000E+03 0.  0.
<mgrwt>
<rscale>  0 0.64199410E+03</rscale>
<asrwt>0</asrwt>
<pdfrwt beam="1">  1        1 0.47858638E-01 0.64199410E+03</pdfrwt>
<pdfrwt beam="2">  1       -1 0.43938545E-01 0.64199410E+03</pdfrwt>
<totfact> 0.43284120E+02</totfact>
</mgrwt>
</event>
<event>
 4    1  0.6480558E-006  0.4576156E+03  0.7818608E-02  0.1025475E+00
         -1   -1    0    0    0  501 -0.00000000000E+00  0.00000000000E+00  0.29922954883E+03  0.29922954887E+03  0.50400000000E-02 0. -1.
          1   -1    0    0  501    0  0.00000000000E+00 -0.00000000000E+00 -0.17495932010E+03  0.17495932017E+03  0.50400000000E-02 0.  1.
    5000001    1    1    2    0    0  0.30258397359E+02  0.93325903546E+02  0.12007717464E+03  0.25227925549E+03  0.19900000000E+03 0.  0.
   -5000001    1    1    2    0    0 -0.30258397359E+02 -0.93325903546E+02  0.41930540893E+01  0.22190961355E+03  0.19900000000E+03 0.  0.
<mgrwt>
<rscale>  0 0.45761555E+03</rscale>
<asrwt>0</asrwt>
<pdfrwt beam="1">  1        1 0.24994189E-01 0.45761555E+03</pdfrwt>
<pdfrwt beam="2">  1       -1 0.42747078E-01 0.45761555E+03</pdfrwt>
<totfact> 0.10535345E+03</totfact>
</mgrwt>
</event>
<event>
 4    1  0.6480558E-006  0.4558365E+03  0.7818608E-02  0.1025996E+00
         -1   -1    0    0    0  501 -0.00000000000E+00  0.00000000000E+00  0.64872791689E+02  0.64872791885E+02  0.50400000000E-02 0. -1.
          1   -1    0    0  501    0  0.00000000000E+00 -0.00000000000E+00 -0.80074753364E+03  0.80074753365E+03  0.50400000000E-02 0.  1.
    5000001    1    1    2    0    0  0.54206946635E+02 -0.82859563464E+02 -0.46367315974E+03  0.51419636267E+03  0.19900000000E+03 0.  0.
   -5000001    1    1    2    0    0 -0.54206946635E+02  0.82859563464E+02 -0.27220158221E+03  0.35142396287E+03  0.19900000000E+03 0.  0.
<mgrwt>
<rscale>  0 0.45583650E+03</rscale>
<asrwt>0</asrwt>
<pdfrwt beam="1">  1        1 0.11439250E+00 0.45583650E+03</pdfrwt>
<pdfrwt beam="2">  1       -1 0.92675422E-02 0.45583650E+03</pdfrwt>
<totfact> 0.17721850E+03</totfact>
</mgrwt>
</event>
<event>
 4    1  0.6480558E-006  0.6531767E+03  0.7818608E-02  0.9800837E-01
          1   -1    0    0  501    0  0.00000000000E+00  0.00000000000E+00  0.18368600385E+03  0.18368600392E+03  0.50400000000E-02 0.  1.
         -1   -1    0    0    0  501 -0.00000000000E+00 -0.00000000000E+00 -0.58066452384E+03  0.58066452386E+03  0.50400000000E-02 0. -1.
    5000001    1    1    2    0    0 -0.11777770485E+03 -0.22070788304E+03 -0.27677402824E+03  0.42283379725E+03  0.19900000000E+03 0.  0.
   -5000001    1    1    2    0    0  0.11777770485E+03  0.22070788304E+03 -0.12020449175E+03  0.34151673053E+03  0.19900000000E+03 0.  0.
<mgrwt>
<rscale>  0 0.65317669E+03</rscale>
<asrwt>0</asrwt>
<pdfrwt beam="1">  1        1 0.26240858E-01 0.65317669E+03</pdfrwt>
<pdfrwt beam="2">  1       -1 0.82952074E-01 0.65317669E+03</pdfrwt>
<totfact> 0.26819289E+02</totfact>
</mgrwt>
</event>
<event>
 4    1  0.6480558E-006  0.5631687E+03  0.7818608E-02  0.9984910E-01
         -1   -1    0    0    0  501 -0.00000000000E+00  0.00000000000E+00  0.55932271725E+02  0.55932271952E+02  0.50400000000E-02 0. -1.
          1   -1    0    0  501    0  0.00000000000E+00 -0.00000000000E+00 -0.14176029746E+04  0.14176029746E+04  0.50400000000E-02 0.  1.
    5000001    1    1    2    0    0  0.22280755126E+02  0.16491143377E+03 -0.96741809291E+03  0.10015942190E+04  0.19900000000E+03 0.  0.
   -5000001    1    1    2    0    0 -0.22280755126E+02 -0.16491143377E+03 -0.39425260999E+03  0.47194102759E+03  0.19900000000E+03 0.  0.
<mgrwt>
<rscale>  0 0.56316873E+03</rscale>
<asrwt>0</asrwt>
<pdfrwt beam="1">  1        1 0.20251469E+00 0.56316873E+03</pdfrwt>
<pdfrwt beam="2">  1       -1 0.79903254E-02 0.56316873E+03</pdfrwt>
<totfact> 0.80811302E+02</totfact>
</mgrwt>
</event>
<event>
 4    1  0.6480558E-006  0.6885213E+03  0.7818608E-02  0.9737066E-01
         -1   -1    0    0    0  501 -0.00000000000E+00  0.00000000000E+00  0.52848490488E+03  0.52848490490E+03  0.50400000000E-02 0. -1.
          1   -1    0    0  501    0  0.00000000000E+00 -0.00000000000E+00 -0.22425500072E+03  0.22425500078E+03  0.50400000000E-02 0.  1.
    5000001    1    1    2    0    0  0.15330166329E+03 -0.22842669680E+03  0.21428952782E+03  0.40149863949E+03  0.19900000000E+03 0.  0.
   -5000001    1    1    2    0    0 -0.15330166329E+03  0.22842669680E+03  0.89940376332E+02  0.35124126619E+03  0.19900000000E+03 0.  0.
<mgrwt>
<rscale>  0 0.68852126E+03</rscale>
<asrwt>0</asrwt>
<pdfrwt beam="1">  1        1 0.32036429E-01 0.68852126E+03</pdfrwt>
<pdfrwt beam="2">  1       -1 0.75497842E-01 0.68852126E+03</pdfrwt>
<totfact> 0.25217326E+02</totfact>
</mgrwt>
</event>
<event>
 4    1  0.6480558E-006  0.7836975E+03  0.7818608E-02  0.9583919E-01
          1   -1    0    0  501    0  0.00000000000E+00  0.00000000000E+00  0.15606170881E+04  0.15606170881E+04  0.50400000000E-02 0.  1.
         -1   -1    0    0    0  501 -0.00000000000E+00 -0.00000000000E+00 -0.98387653796E+02  0.98387653925E+02  0.50400000000E-02 0. -1.
    5000001    1    1    2    0    0  0.29945197353E+03 -0.14192433881E+03  0.86716451889E+03  0.94941524383E+03  0.19900000000E+03 0.  0.
   -5000001    1    1    2    0    0 -0.29945197353E+03  0.14192433881E+03  0.59506491541E+03  0.70958949819E+03  0.19900000000E+03 0.  0.
<mgrwt>
<rscale>  0 0.78369753E+03</rscale>
<asrwt>0</asrwt>
<pdfrwt beam="1">  1        1 0.22294528E+00 0.78369753E+03</pdfrwt>
<pdfrwt beam="2">  1       -1 0.14055380E-01 0.78369753E+03</pdfrwt>
<totfact> 0.26341301E+02</totfact>
</mgrwt>
</event>
<event>
 4    1  0.6480558E-006  0.6956537E+03  0.7818608E-02  0.9724694E-01
         -1   -1    0    0    0  501 -0.00000000000E+00  0.00000000000E+00  0.16300396035E+03  0.16300396043E+03  0.50400000000E-02 0.  1.
          1   -1    0    0  501    0  0.00000000000E+00 -0.00000000000E+00 -0.74221219793E+03  0.74221219795E+03  0.50400000000E-02 0. -1.
    5000001    1    1    2    0    0  0.93488511878E+02  0.13725013105E+03  0.12231022516E+02  0.25947697053E+03  0.19900000000E+03 0.  0.
   -5000001    1    1    2    0    0 -0.93488511878E+02 -0.13725013105E+03 -0.59143926010E+03  0.64573918784E+03  0.19900000000E+03 0.  0.
<mgrwt>
<rscale>  0 0.69565373E+03</rscale>
<asrwt>0</asrwt>
<pdfrwt beam="1">  1        1 0.10603031E+00 0.69565373E+03</pdfrwt>
<pdfrwt beam="2">  1       -1 0.23286281E-01 0.69565373E+03</pdfrwt>
<totfact> 0.44511744E+02</totfact>
</mgrwt>
</event>
<event>
 4    1  0.6480558E-006  0.6476379E+03  0.7818608E-02  0.9811222E-01
          1   -1    0    0  501    0  0.00000000000E+00  0.00000000000E+00  0.13589296395E+04  0.13589296396E+04  0.50400000000E-02 0.  1.
         -1   -1    0    0    0  501 -0.00000000000E+00 -0.00000000000E+00 -0.77162722703E+02  0.77162722868E+02  0.50400000000E-02 0. -1.
    5000001    1    1    2    0    0 -0.19712606352E+02 -0.25374944438E+03  0.68948232817E+03  0.76142251624E+03  0.19900000000E+03 0.  0.
   -5000001    1    1    2    0    0  0.19712606352E+02  0.25374944438E+03  0.59228458867E+03  0.67466984618E+03  0.19900000000E+03 0.  0.
<mgrwt>
<rscale>  0 0.64763790E+03</rscale>
<asrwt>0</asrwt>
<pdfrwt beam="1">  1        1 0.19413279E+00 0.64763790E+03</pdfrwt>
<pdfrwt beam="2">  1       -1 0.11023247E-01 0.64763790E+03</pdfrwt>
<totfact> 0.53002381E+02</totfact>
</mgrwt>
</event>
<event>
 4    1  0.6480558E-006  0.6846420E+03  0.7818608E-02  0.9743863E-01
          1   -1    0    0  501    0  0.00000000000E+00  0.00000000000E+00  0.62929679997E+03  0.62929679999E+03  0.50400000000E-02 0. -1.
         -1   -1    0    0    0  501 -0.00000000000E+00 -0.00000000000E+00 -0.18621365788E+03  0.18621365795E+03  0.50400000000E-02 0.  1.
    5000001    1    1    2    0    0  0.15576149045E+02 -0.18887825282E+03  0.46467907629E+03  0.53985669834E+03  0.19900000000E+03 0.  0.
   -5000001    1    1    2    0    0 -0.15576149045E+02  0.18887825282E+03 -0.21595934196E+02  0.27565375960E+03  0.19900000000E+03 0.  0.
<mgrwt>
<rscale>  0 0.68464198E+03</rscale>
<asrwt>0</asrwt>
<pdfrwt beam="1">  1        1 0.89899543E-01 0.68464198E+03</pdfrwt>
<pdfrwt beam="2">  1       -1 0.26601951E-01 0.68464198E+03</pdfrwt>
<totfact> 0.45179029E+02</totfact>
</mgrwt>
</event>
<event>
 4    1  0.6480558E-006  0.5372372E+03  0.7818608E-02  0.1004492E+00
         -1   -1    0    0    0  501 -0.00000000000E+00  0.00000000000E+00  0.60899430577E+02  0.60899430786E+02  0.50400000000E-02 0. -1.
          1   -1    0    0  501    0  0.00000000000E+00 -0.00000000000E+00 -0.11848378263E+04  0.11848378263E+04  0.50400000000E-02 0.  1.
    5000001    1    1    2    0    0 -0.10448858330E+03  0.14707501479E+03 -0.55627750648E+03  0.61773342813E+03  0.19900000000E+03 0.  0.
   -5000001    1    1    2    0    0  0.10448858330E+03 -0.14707501479E+03 -0.56766088920E+03  0.62800382892E+03  0.19900000000E+03 0.  0.
<mgrwt>
<rscale>  0 0.53723719E+03</rscale>
<asrwt>0</asrwt>
<pdfrwt beam="1">  1        1 0.16926253E+00 0.53723719E+03</pdfrwt>
<pdfrwt beam="2">  1       -1 0.86999194E-02 0.53723719E+03</pdfrwt>
<totfact> 0.10120446E+03</totfact>
</mgrwt>
</event>
<event>
 4    1  0.6480558E-006  0.4796778E+03  0.7818608E-02  0.1019224E+00
          1   -1    0    0  501    0  0.00000000000E+00  0.00000000000E+00  0.31060362856E+02  0.31060363265E+02  0.50400000000E-02 0.  1.
         -1   -1    0    0    0  501 -0.00000000000E+00 -0.00000000000E+00 -0.18519647625E+04  0.18519647626E+04  0.50400000000E-02 0. -1.
    5000001    1    1    2    0    0 -0.88664915905E+02  0.69733424792E+02 -0.11934629367E+04  0.12151868165E+04  0.19900000000E+03 0.  0.
   -5000001    1    1    2    0    0  0.88664915905E+02 -0.69733424792E+02 -0.62744146302E+03  0.66783830930E+03  0.19900000000E+03 0.  0.
<mgrwt>
<rscale>  0 0.47967780E+03</rscale>
<asrwt>0</asrwt>
<pdfrwt beam="1">  1        1 0.44371959E-02 0.47967780E+03</pdfrwt>
<pdfrwt beam="2">  1       -1 0.26456633E+00 0.47967780E+03</pdfrwt>
<totfact> 0.12409608E+02</totfact>
</mgrwt>
</event>
<event>
 4    1  0.6480558E-006  0.8277598E+03  0.7818608E-02  0.9520683E-01
          1   -1    0    0  501    0  0.00000000000E+00  0.00000000000E+00  0.79566840668E+03  0.79566840670E+03  0.50400000000E-02 0.  1.
         -1   -1    0    0    0  501 -0.00000000000E+00 -0.00000000000E+00 -0.21528638749E+03  0.21528638755E+03  0.50400000000E-02 0. -1.
    5000001    1    1    2    0    0 -0.15181407536E+03 -0.21892696948E+03 -0.10755884950E+02  0.33270590693E+03  0.19900000000E+03 0.  0.
   -5000001    1    1    2    0    0  0.15181407536E+03  0.21892696948E+03  0.59113790414E+03  0.67824888732E+03  0.19900000000E+03 0.  0.
<mgrwt>
<rscale>  0 0.82775981E+03</rscale>
<asrwt>0</asrwt>
<pdfrwt beam="1">  1        1 0.11366692E+00 0.82775981E+03</pdfrwt>
<pdfrwt beam="2">  1       -1 0.30755198E-01 0.82775981E+03</pdfrwt>
<totfact> 0.24674260E+02</totfact>
</mgrwt>
</event>
<event>
 4    1  0.6480558E-006  0.6546437E+03  0.7818608E-02  0.9798104E-01
          1   -1    0    0  501    0  0.00000000000E+00  0.00000000000E+00  0.19445918388E+03  0.19445918394E+03  0.50400000000E-02 0.  1.
         -1   -1    0    0    0  501 -0.00000000000E+00 -0.00000000000E+00 -0.55096192266E+03  0.55096192268E+03  0.50400000000E-02 0. -1.
    5000001    1    1    2    0    0  0.43456983617E+02 -0.25600199765E+03 -0.16614323187E+03  0.36691975379E+03  0.19900000000E+03 0.  0.
   -5000001    1    1    2    0    0 -0.43456983617E+02  0.25600199765E+03 -0.19035950691E+03  0.37850135283E+03  0.19900000000E+03 0.  0.
<mgrwt>
<rscale>  0 0.65464374E+03</rscale>
<asrwt>0</asrwt>
<pdfrwt beam="1">  1        1 0.27779884E-01 0.65464374E+03</pdfrwt>
<pdfrwt beam="2">  1       -1 0.78708845E-01 0.65464374E+03</pdfrwt>
<totfact> 0.27837024E+02</totfact>
</mgrwt>
</event>
<event>
 4    1  0.6480558E-006  0.6125851E+03  0.7818608E-02  0.9879635E-01
         -1   -1    0    0    0  501 -0.00000000000E+00  0.00000000000E+00  0.65124733588E+02  0.65124733783E+02  0.50400000000E-02 0. -1.
          1   -1    0    0  501    0  0.00000000000E+00 -0.00000000000E+00 -0.14405453330E+04  0.14405453330E+04  0.50400000000E-02 0.  1.
    5000001    1    1    2    0    0  0.19341742262E+01  0.22109508069E+03 -0.86710896726E+03  0.91671464308E+03  0.19900000000E+03 0.  0.
   -5000001    1    1    2    0    0 -0.19341742262E+01 -0.22109508069E+03 -0.50831163212E+03  0.58895542368E+03  0.19900000000E+03 0.  0.
<mgrwt>
<rscale>  0 0.61258512E+03</rscale>
<asrwt>0</asrwt>
<pdfrwt beam="1">  1        1 0.20579217E+00 0.61258512E+03</pdfrwt>
<pdfrwt beam="2">  1       -1 0.93035343E-02 0.61258512E+03</pdfrwt>
<totfact> 0.61399157E+02</totfact>
</mgrwt>
</event>
<event>
 4    1  0.6480558E-006  0.6367122E+03  0.7818608E-02  0.9832037E-01
          1   -1    0    0  501    0  0.00000000000E+00  0.00000000000E+00  0.45786341156E+03  0.45786341159E+03  0.50400000000E-02 0. -1.
         -1   -1    0    0    0  501 -0.00000000000E+00 -0.00000000000E+00 -0.22135554707E+03  0.22135554712E+03  0.50400000000E-02 0.  1.
    5000001    1    1    2    0    0 -0.19958468665E+03  0.13537619057E+03  0.54347579549E+02  0.31735692764E+03  0.19900000000E+03 0.  0.
   -5000001    1    1    2    0    0  0.19958468665E+03 -0.13537619057E+03  0.18216028494E+03  0.36186203107E+03  0.19900000000E+03 0.  0.
<mgrwt>
<rscale>  0 0.63671220E+03</rscale>
<asrwt>0</asrwt>
<pdfrwt beam="1">  1        1 0.65409059E-01 0.63671220E+03</pdfrwt>
<pdfrwt beam="2">  1       -1 0.31622221E-01 0.63671220E+03</pdfrwt>
<totfact> 0.51881303E+02</totfact>
</mgrwt>
</event>
<event>
 4    1  0.6480558E-006  0.4983239E+03  0.7818608E-02  0.1014217E+00
          1   -1    0    0  501    0  0.00000000000E+00  0.00000000000E+00  0.23457644694E+03  0.23457644699E+03  0.50400000000E-02 0.  1.
         -1   -1    0    0    0  501 -0.00000000000E+00 -0.00000000000E+00 -0.26465430698E+03  0.26465430703E+03  0.50400000000E-02 0. -1.
    5000001    1    1    2    0    0  0.61833272776E+02  0.13658747997E+03 -0.16124283766E+02  0.24968076785E+03  0.19900000000E+03 0.  0.
   -5000001    1    1    2    0    0 -0.61833272776E+02 -0.13658747997E+03 -0.13953576282E+02  0.24954998617E+03  0.19900000000E+03 0.  0.
<mgrwt>
<rscale>  0 0.49832386E+03</rscale>
<asrwt>0</asrwt>
<pdfrwt beam="1">  1        1 0.33510921E-01 0.49832386E+03</pdfrwt>
<pdfrwt beam="2">  1       -1 0.37807758E-01 0.49832386E+03</pdfrwt>
<totfact> 0.90138252E+02</totfact>
</mgrwt>
</event>
<event>
 4    1  0.6480558E-006  0.6941571E+03  0.7818608E-02  0.9727277E-01
          1   -1    0    0  501    0  0.00000000000E+00  0.00000000000E+00  0.23864934674E+04  0.23864934674E+04  0.50400000000E-02 0. -1.
         -1   -1    0    0    0  501 -0.00000000000E+00 -0.00000000000E+00 -0.50477204138E+02  0.50477204389E+02  0.50400000000E-02 0.  1.
    5000001    1    1    2    0    0 -0.20988991236E+03 -0.17639938437E+03  0.90314287997E+03  0.96459244231E+03  0.19900000000E+03 0.  0.
   -5000001    1    1    2    0    0  0.20988991236E+03  0.17639938437E+03  0.14328733833E+04  0.14723782295E+04  0.19900000000E+03 0.  0.
<mgrwt>
<rscale>  0 0.69415710E+03</rscale>
<asrwt>0</asrwt>
<pdfrwt beam="1">  1        1 0.34092757E+00 0.69415710E+03</pdfrwt>
<pdfrwt beam="2">  1       -1 0.72110307E-02 0.69415710E+03</pdfrwt>
<totfact> 0.23295433E+02</totfact>
</mgrwt>
</event>
<event>
 4    1  0.6480558E-006  0.5168417E+03  0.7818608E-02  0.1009474E+00
          1   -1    0    0  501    0  0.00000000000E+00  0.00000000000E+00  0.17859988919E+04  0.17859988919E+04  0.50400000000E-02 0. -1.
         -1   -1    0    0    0  501 -0.00000000000E+00 -0.00000000000E+00 -0.37391584524E+02  0.37391584863E+02  0.50400000000E-02 0.  1.
    5000001    1    1    2    0    0 -0.12789966890E+03 -0.73263065733E+02  0.61374788330E+03  0.66182570693E+03  0.19900000000E+03 0.  0.
   -5000001    1    1    2    0    0  0.12789966890E+03  0.73263065733E+02  0.11348594240E+04  0.11615647698E+04  0.19900000000E+03 0.  0.
<mgrwt>
<rscale>  0 0.51684167E+03</rscale>
<asrwt>0</asrwt>
<pdfrwt beam="1">  1        1 0.25514273E+00 0.51684167E+03</pdfrwt>
<pdfrwt beam="2">  1       -1 0.53416543E-02 0.51684167E+03</pdfrwt>
<totfact> 0.88182018E+02</totfact>
</mgrwt>
</event>
<event>
 4    1  0.6480558E-006  0.6390163E+03  0.7818608E-02  0.9827610E-01
         -1   -1    0    0    0  501 -0.00000000000E+00  0.00000000000E+00  0.94762525518E+03  0.94762525519E+03  0.50400000000E-02 0. -1.
          1   -1    0    0  501    0  0.00000000000E+00 -0.00000000000E+00 -0.10772765225E+03  0.10772765236E+03  0.50400000000E-02 0.  1.
    5000001    1    1    2    0    0 -0.22667383855E+03  0.73889568829E+02  0.29587800918E+03  0.42893530256E+03  0.19900000000E+03 0.  0.
   -5000001    1    1    2    0    0  0.22667383855E+03 -0.73889568829E+02  0.54401959375E+03  0.62641760500E+03  0.19900000000E+03 0.  0.
<mgrwt>
<rscale>  0 0.63901626E+03</rscale>
<asrwt>0</asrwt>
<pdfrwt beam="1">  1        1 0.15389664E-01 0.63901626E+03</pdfrwt>
<pdfrwt beam="2">  1       -1 0.13537504E+00 0.63901626E+03</pdfrwt>
<totfact> 0.17374412E+02</totfact>
</mgrwt>
</event>
<event>
 4    1  0.6480558E-006  0.5542222E+03  0.7818608E-02  0.1000521E+00
         -1   -1    0    0    0  501 -0.00000000000E+00  0.00000000000E+00  0.34483174594E+03  0.34483174598E+03  0.50400000000E-02 0. -1.
          1   -1    0    0  501    0  0.00000000000E+00 -0.00000000000E+00 -0.22268994396E+03  0.22268994401E+03  0.50400000000E-02 0.  1.
    5000001    1    1    2    0    0  0.16751783170E+03  0.83128263254E+02  0.12855660062E+02  0.27338397920E+03  0.19900000000E+03 0.  0.
   -5000001    1    1    2    0    0 -0.16751783170E+03 -0.83128263254E+02  0.10928614192E+03  0.29413771079E+03  0.19900000000E+03 0.  0.
<mgrwt>
<rscale>  0 0.55422220E+03</rscale>
<asrwt>0</asrwt>
<pdfrwt beam="1">  1        1 0.31812849E-01 0.55422220E+03</pdfrwt>
<pdfrwt beam="2">  1       -1 0.49261678E-01 0.55422220E+03</pdfrwt>
<totfact> 0.59332889E+02</totfact>
</mgrwt>
</event>
<event>
 4    1  0.6480558E-006  0.5162345E+03  0.7818608E-02  0.1009626E+00
          1   -1    0    0  501    0  0.00000000000E+00  0.00000000000E+00  0.13753124774E+04  0.13753124774E+04  0.50400000000E-02 0.  1.
         -1   -1    0    0    0  501 -0.00000000000E+00 -0.00000000000E+00 -0.48443174890E+02  0.48443175152E+02  0.50400000000E-02 0. -1.
    5000001    1    1    2    0    0 -0.14351272160E+01 -0.79753717007E+02  0.10598604555E+04  0.10813269164E+04  0.19900000000E+03 0.  0.
   -5000001    1    1    2    0    0  0.14351272160E+01  0.79753717007E+02  0.26700884694E+03  0.34242873610E+03  0.19900000000E+03 0.  0.
<mgrwt>
<rscale>  0 0.51623445E+03</rscale>
<asrwt>0</asrwt>
<pdfrwt beam="1">  1        1 0.19647323E+00 0.51623445E+03</pdfrwt>
<pdfrwt beam="2">  1       -1 0.69204529E-02 0.51623445E+03</pdfrwt>
<totfact> 0.10780602E+03</totfact>
</mgrwt>
</event>
<event>
 4    1  0.6480558E-006  0.6033162E+03  0.7818608E-02  0.9898550E-01
         -1   -1    0    0    0  501 -0.00000000000E+00  0.00000000000E+00  0.17658020715E+03  0.17658020723E+03  0.50400000000E-02 0.  1.
          1   -1    0    0  501    0  0.00000000000E+00 -0.00000000000E+00 -0.51533306722E+03  0.51533306724E+03  0.50400000000E-02 0. -1.
    5000001    1    1    2    0    0 -0.14560019662E+03 -0.17336051717E+03 -0.15564610900E+03  0.33923442841E+03  0.19900000000E+03 0.  0.
   -5000001    1    1    2    0    0  0.14560019662E+03  0.17336051717E+03 -0.18310675107E+03  0.35267884606E+03  0.19900000000E+03 0.  0.
<mgrwt>
<rscale>  0 0.60331623E+03</rscale>
<asrwt>0</asrwt>
<pdfrwt beam="1">  1        1 0.73619009E-01 0.60331623E+03</pdfrwt>
<pdfrwt beam="2">  1       -1 0.25225744E-01 0.60331623E+03</pdfrwt>
<totfact> 0.65415092E+02</totfact>
</mgrwt>
</event>
<event>
 4    1  0.6480558E-006  0.5316427E+03  0.7818608E-02  0.1005835E+00
         -1   -1    0    0    0  501 -0.00000000000E+00  0.00000000000E+00  0.22976292891E+03  0.22976292897E+03  0.50400000000E-02 0. -1.
          1   -1    0    0  501    0  0.00000000000E+00 -0.00000000000E+00 -0.30753866514E+03  0.30753866518E+03  0.50400000000E-02 0.  1.
    5000001    1    1    2    0    0 -0.15111499088E+03 -0.86182463695E+02 -0.67416457820E+02  0.27278038108E+03  0.19900000000E+03 0.  0.
   -5000001    1    1    2    0    0  0.15111499088E+03  0.86182463695E+02 -0.10359278411E+02  0.26452121307E+03  0.19900000000E+03 0.  0.
<mgrwt>
<rscale>  0 0.53164268E+03</rscale>
<asrwt>0</asrwt>
<pdfrwt beam="1">  1        1 0.43934095E-01 0.53164268E+03</pdfrwt>
<pdfrwt beam="2">  1       -1 0.32823276E-01 0.53164268E+03</pdfrwt>
<totfact> 0.81774857E+02</totfact>
</mgrwt>
</event>
<event>
 4    1  0.6480558E-006  0.7847998E+03  0.7818608E-02  0.9582283E-01
          1   -1    0    0  501    0  0.00000000000E+00  0.00000000000E+00  0.23241839702E+04  0.23241839702E+04  0.50400000000E-02 0.  1.
         -1   -1    0    0    0  501 -0.00000000000E+00 -0.00000000000E+00 -0.66250209190E+02  0.66250209381E+02  0.50400000000E-02 0. -1.
    5000001    1    1    2    0    0  0.15177821477E+03 -0.16279526125E+03  0.35337744116E+03  0.46261813571E+03  0.19900000000E+03 0.  0.
   -5000001    1    1    2    0    0 -0.15177821477E+03  0.16279526125E+03  0.19045563198E+04  0.19278160439E+04  0.19900000000E+03 0.  0.
<mgrwt>
<rscale>  0 0.78479978E+03</rscale>
<asrwt>0</asrwt>
<pdfrwt beam="1">  1        1 0.33202627E+00 0.78479978E+03</pdfrwt>
<pdfrwt beam="2">  1       -1 0.94643159E-02 0.78479978E+03</pdfrwt>
<totfact> 0.16499409E+02</totfact>
</mgrwt>
</event>
<event>
 4    1  0.6480558E-006  0.5208754E+03  0.7818608E-02  0.1008469E+00
          1   -1    0    0  501    0  0.00000000000E+00  0.00000000000E+00  0.16454019383E+04  0.16454019383E+04  0.50400000000E-02 0. -1.
         -1   -1    0    0    0  501 -0.00000000000E+00 -0.00000000000E+00 -0.41222630659E+02  0.41222630967E+02  0.50400000000E-02 0.  1.
    5000001    1    1    2    0    0  0.14023086185E+02  0.16155849054E+03  0.65987278305E+03  0.70804723192E+03  0.19900000000E+03 0.  0.
   -5000001    1    1    2    0    0 -0.14023086185E+02 -0.16155849054E+03  0.94430652462E+03  0.97857733739E+03  0.19900000000E+03 0.  0.
<mgrwt>
<rscale>  0 0.52087540E+03</rscale>
<asrwt>0</asrwt>
<pdfrwt beam="1">  1        1 0.23505742E+00 0.52087540E+03</pdfrwt>
<pdfrwt beam="2">  1       -1 0.58889473E-02 0.52087540E+03</pdfrwt>
<totfact> 0.92910065E+02</totfact>
</mgrwt>
</event>
<event>
 4    1  0.6480558E-006  0.7330265E+03  0.7818608E-02  0.9662362E-01
          1   -1    0    0  501    0  0.00000000000E+00  0.00000000000E+00  0.14304170749E+04  0.14304170749E+04  0.50400000000E-02 0.  1.
         -1   -1    0    0    0  501 -0.00000000000E+00 -0.00000000000E+00 -0.93911050224E+02  0.93911050359E+02  0.50400000000E-02 0. -1.
    5000001    1    1    2    0    0  0.30029496180E+03 -0.65615575789E+02  0.63547189755E+03  0.73342211614E+03  0.19900000000E+03 0.  0.
   -5000001    1    1    2    0    0 -0.30029496180E+03  0.65615575789E+02  0.70103412707E+03  0.79090600907E+03  0.19900000000E+03 0.  0.
<mgrwt>
<rscale>  0 0.73302652E+03</rscale>
<asrwt>0</asrwt>
<pdfrwt beam="1">  1        1 0.20434527E+00 0.73302652E+03</pdfrwt>
<pdfrwt beam="2">  1       -1 0.13415866E-01 0.73302652E+03</pdfrwt>
<totfact> 0.34579715E+02</totfact>
</mgrwt>
</event>
<event>
 4    1  0.6480558E-006  0.4375785E+03  0.7818608E-02  0.1031492E+00
         -1   -1    0    0    0  501 -0.00000000000E+00  0.00000000000E+00  0.23398320631E+02  0.23398321174E+02  0.50400000000E-02 0. -1.
          1   -1    0    0  501    0  0.00000000000E+00 -0.00000000000E+00 -0.20458191619E+04  0.20458191619E+04  0.50400000000E-02 0.  1.
    5000001    1    1    2    0    0  0.84455140158E+02 -0.20425483845E+02 -0.11379086990E+04  0.11584416595E+04  0.19900000000E+03 0.  0.
   -5000001    1    1    2    0    0 -0.84455140158E+02  0.20425483845E+02 -0.88451214230E+03  0.91077582366E+03  0.19900000000E+03 0.  0.
<mgrwt>
<rscale>  0 0.43757849E+03</rscale>
<asrwt>0</asrwt>
<pdfrwt beam="1">  1        1 0.29225977E+00 0.43757849E+03</pdfrwt>
<pdfrwt beam="2">  1       -1 0.33426186E-02 0.43757849E+03</pdfrwt>
<totfact> 0.12462908E+03</totfact>
</mgrwt>
</event>
<event>
 4    1  0.6480558E-006  0.6355680E+03  0.7818608E-02  0.9834243E-01
          1   -1    0    0  501    0  0.00000000000E+00  0.00000000000E+00  0.12282255859E+03  0.12282255869E+03  0.50400000000E-02 0.  1.
         -1   -1    0    0    0  501 -0.00000000000E+00 -0.00000000000E+00 -0.82221595575E+03  0.82221595577E+03  0.50400000000E-02 0. -1.
    5000001    1    1    2    0    0 -0.20449413268E+03 -0.13952303932E+03 -0.36465030951E+03  0.48358595619E+03  0.19900000000E+03 0.  0.
   -5000001    1    1    2    0    0  0.20449413268E+03  0.13952303932E+03 -0.33474308765E+03  0.46145255826E+03  0.19900000000E+03 0.  0.
<mgrwt>
<rscale>  0 0.63556799E+03</rscale>
<asrwt>0</asrwt>
<pdfrwt beam="1">  1        1 0.17546080E-01 0.63556799E+03</pdfrwt>
<pdfrwt beam="2">  1       -1 0.11745942E+00 0.63556799E+03</pdfrwt>
<totfact> 0.20733236E+02</totfact>
</mgrwt>
</event>
<event>
 4    1  0.6480558E-006  0.9667292E+03  0.7818608E-02  0.9345808E-01
          1   -1    0    0  501    0  0.00000000000E+00  0.00000000000E+00  0.33312532122E+03  0.33312532126E+03  0.50400000000E-02 0.  1.
         -1   -1    0    0    0  501 -0.00000000000E+00 -0.00000000000E+00 -0.70136167090E+03  0.70136167092E+03  0.50400000000E-02 0. -1.
    5000001    1    1    2    0    0 -0.24321696870E+03  0.29029383010E+03  0.56629022143E+02  0.43154704009E+03  0.19900000000E+03 0.  0.
   -5000001    1    1    2    0    0  0.24321696870E+03 -0.29029383010E+03 -0.42486537182E+03  0.60293995209E+03  0.19900000000E+03 0.  0.
<mgrwt>
<rscale>  0 0.96672919E+03</rscale>
<asrwt>0</asrwt>
<pdfrwt beam="1">  1        1 0.47589332E-01 0.96672919E+03</pdfrwt>
<pdfrwt beam="2">  1       -1 0.10019452E+00 0.96672919E+03</pdfrwt>
<totfact> 0.80316431E+01</totfact>
</mgrwt>
</event>
<event>
 4    1  0.6480558E-006  0.5427229E+03  0.7818608E-02  0.1003192E+00
          1   -1    0    0  501    0  0.00000000000E+00  0.00000000000E+00  0.12398780067E+04  0.12398780067E+04  0.50400000000E-02 0.  1.
         -1   -1    0    0    0  501 -0.00000000000E+00 -0.00000000000E+00 -0.59390559550E+02  0.59390559764E+02  0.50400000000E-02 0. -1.
    5000001    1    1    2    0    0  0.15097901022E+03 -0.78053752172E+02  0.76202750241E+03  0.80571332630E+03  0.19900000000E+03 0.  0.
   -5000001    1    1    2    0    0 -0.15097901022E+03  0.78053752172E+02  0.41845994478E+03  0.49355524021E+03  0.19900000000E+03 0.  0.
<mgrwt>
<rscale>  0 0.54272294E+03</rscale>
<asrwt>0</asrwt>
<pdfrwt beam="1">  1        1 0.17712541E+00 0.54272294E+03</pdfrwt>
<pdfrwt beam="2">  1       -1 0.84843667E-02 0.54272294E+03</pdfrwt>
<totfact> 0.96535447E+02</totfact>
</mgrwt>
</event>
<event>
 4    1  0.6480558E-006  0.6651717E+03  0.7818608E-02  0.9778720E-01
          1   -1    0    0  501    0  0.00000000000E+00  0.00000000000E+00  0.77939201754E+03  0.77939201756E+03  0.50400000000E-02 0.  1.
         -1   -1    0    0    0  501 -0.00000000000E+00 -0.00000000000E+00 -0.14192261690E+03  0.14192261699E+03  0.50400000000E-02 0. -1.
    5000001    1    1    2    0    0 -0.15685587701E+02 -0.26362791119E+03  0.36802949451E+03  0.49476501700E+03  0.19900000000E+03 0.  0.
   -5000001    1    1    2    0    0  0.15685587701E+02  0.26362791119E+03  0.26943990613E+03  0.42654961755E+03  0.19900000000E+03 0.  0.
<mgrwt>
<rscale>  0 0.66517172E+03</rscale>
<asrwt>0</asrwt>
<pdfrwt beam="1">  1        1 0.11134172E+00 0.66517172E+03</pdfrwt>
<pdfrwt beam="2">  1       -1 0.20274660E-01 0.66517172E+03</pdfrwt>
<totfact> 0.52205254E+02</totfact>
</mgrwt>
</event>
<event>
 4    1  0.6480558E-006  0.5980757E+03  0.7818608E-02  0.9909406E-01
         -1   -1    0    0    0  501 -0.00000000000E+00  0.00000000000E+00  0.30532783849E+03  0.30532783854E+03  0.50400000000E-02 0. -1.
          1   -1    0    0  501    0  0.00000000000E+00 -0.00000000000E+00 -0.29287743999E+03  0.29287744003E+03  0.50400000000E-02 0.  1.
    5000001    1    1    2    0    0  0.20608139901E+03 -0.27045770374E+02 -0.75165762088E+02  0.29740865573E+03  0.19900000000E+03 0.  0.
   -5000001    1    1    2    0    0 -0.20608139901E+03  0.27045770374E+02  0.87616160591E+02  0.30079662284E+03  0.19900000000E+03 0.  0.
<mgrwt>
<rscale>  0 0.59807570E+03</rscale>
<asrwt>0</asrwt>
<pdfrwt beam="1">  1        1 0.41839634E-01 0.59807570E+03</pdfrwt>
<pdfrwt beam="2">  1       -1 0.43618263E-01 0.59807570E+03</pdfrwt>
<totfact> 0.52238701E+02</totfact>
</mgrwt>
</event>
<event>
 4    1  0.6480558E-006  0.4344856E+03  0.7818608E-02  0.1032452E+00
          1   -1    0    0  501    0  0.00000000000E+00  0.00000000000E+00  0.19702959026E+03  0.19702959032E+03  0.50400000000E-02 0. -1.
         -1   -1    0    0    0  501 -0.00000000000E+00 -0.00000000000E+00 -0.23952965415E+03  0.23952965420E+03  0.50400000000E-02 0.  1.
    5000001    1    1    2    0    0 -0.68197427046E+02 -0.37915214118E+02  0.17729154579E+02  0.21448490725E+03  0.19900000000E+03 0.  0.
   -5000001    1    1    2    0    0  0.68197427046E+02  0.37915214118E+02 -0.60229218472E+02  0.22207433727E+03  0.19900000000E+03 0.  0.
<mgrwt>
<rscale>  0 0.43448558E+03</rscale>
<asrwt>0</asrwt>
<pdfrwt beam="1">  1        1 0.28147084E-01 0.43448558E+03</pdfrwt>
<pdfrwt beam="2">  1       -1 0.34218522E-01 0.43448558E+03</pdfrwt>
<totfact> 0.13447347E+03</totfact>
</mgrwt>
</event>
<event>
 4    1  0.6480558E-006  0.1283598E+04  0.7818608E-02  0.9042674E-01
          1   -1    0    0  501    0  0.00000000000E+00  0.00000000000E+00  0.35080416903E+04  0.35080416903E+04  0.50400000000E-02 0.  1.
         -1   -1    0    0    0  501 -0.00000000000E+00 -0.00000000000E+00 -0.11741772469E+03  0.11741772479E+03  0.50400000000E-02 0. -1.
    5000001    1    1    2    0    0  0.19485244840E+03 -0.51036788532E+03  0.24629307976E+04  0.25306267936E+04  0.19900000000E+03 0.  0.
   -5000001    1    1    2    0    0 -0.19485244840E+03  0.51036788532E+03  0.92769316810E+03  0.10948326215E+04  0.19900000000E+03 0.  0.
<mgrwt>
<rscale>  0 0.12835985E+04</rscale>
<asrwt>0</asrwt>
<pdfrwt beam="1">  1        1 0.50114871E+00 0.12835985E+04</pdfrwt>
<pdfrwt beam="2">  1       -1 0.16773964E-01 0.12835985E+04</pdfrwt>
<totfact> 0.10531680E+01</totfact>
</mgrwt>
</event>
<event>
 4    1  0.6480558E-006  0.6164114E+03  0.7818608E-02  0.9871931E-01
         -1   -1    0    0    0  501 -0.00000000000E+00  0.00000000000E+00  0.63020290435E+03  0.63020290437E+03  0.50400000000E-02 0. -1.
          1   -1    0    0  501    0  0.00000000000E+00 -0.00000000000E+00 -0.15073044890E+03  0.15073044898E+03  0.50400000000E-02 0.  1.
    5000001    1    1    2    0    0 -0.23326877560E+03 -0.30644057396E+02  0.24737837027E+03  0.39515875038E+03  0.19900000000E+03 0.  0.
   -5000001    1    1    2    0    0  0.23326877560E+03  0.30644057396E+02  0.23209408517E+03  0.38577460297E+03  0.19900000000E+03 0.  0.
<mgrwt>
<rscale>  0 0.61641144E+03</rscale>
<asrwt>0</asrwt>
<pdfrwt beam="1">  1        1 0.21532921E-01 0.61641144E+03</pdfrwt>
<pdfrwt beam="2">  1       -1 0.90028986E-01 0.61641144E+03</pdfrwt>
<totfact> 0.29136296E+02</totfact>
</mgrwt>
</event>
<event>
 4    1  0.6480558E-006  0.5927696E+03  0.7818608E-02  0.9920521E-01
         -1   -1    0    0    0  501 -0.00000000000E+00  0.00000000000E+00  0.20546540746E+03  0.20546540752E+03  0.50400000000E-02 0. -1.
          1   -1    0    0  501    0  0.00000000000E+00 -0.00000000000E+00 -0.42753646055E+03  0.42753646058E+03  0.50400000000E-02 0.  1.
    5000001    1    1    2    0    0 -0.18208551587E+03  0.78867490607E+02 -0.10475481111E+02  0.28122224640E+03  0.19900000000E+03 0.  0.
   -5000001    1    1    2    0    0  0.18208551587E+03 -0.78867490607E+02 -0.21159557198E+03  0.35177962170E+03  0.19900000000E+03 0.  0.
<mgrwt>
<rscale>  0 0.59276961E+03</rscale>
<asrwt>0</asrwt>
<pdfrwt beam="1">  1        1 0.61076636E-01 0.59276961E+03</pdfrwt>
<pdfrwt beam="2">  1       -1 0.29352201E-01 0.59276961E+03</pdfrwt>
<totfact> 0.64738014E+02</totfact>
</mgrwt>
</event>
<event>
 4    1  0.6480558E-006  0.8436413E+03  0.7818608E-02  0.9498911E-01
          1   -1    0    0  501    0  0.00000000000E+00  0.00000000000E+00  0.70756893489E+03  0.70756893491E+03  0.50400000000E-02 0.  1.
         -1   -1    0    0    0  501 -0.00000000000E+00 -0.00000000000E+00 -0.25147043987E+03  0.25147043992E+03  0.50400000000E-02 0. -1.
    5000001    1    1    2    0    0  0.20055285699E+03 -0.31217746484E+03  0.19894546201E+03  0.46567855314E+03  0.19900000000E+03 0.  0.
   -5000001    1    1    2    0    0 -0.20055285699E+03  0.31217746484E+03  0.25715303301E+03  0.49336082170E+03  0.19900000000E+03 0.  0.
<mgrwt>
<rscale>  0 0.84364133E+03</rscale>
<asrwt>0</asrwt>
<pdfrwt beam="1">  1        1 0.10108128E+00 0.84364133E+03</pdfrwt>
<pdfrwt beam="2">  1       -1 0.35924349E-01 0.84364133E+03</pdfrwt>
<totfact> 0.22365893E+02</totfact>
</mgrwt>
</event>
<event>
 4    1  0.6480558E-006  0.5312239E+03  0.7818608E-02  0.1005936E+00
          1   -1    0    0  501    0  0.00000000000E+00  0.00000000000E+00  0.90710144809E+03  0.90710144810E+03  0.50400000000E-02 0.  1.
         -1   -1    0    0    0  501 -0.00000000000E+00 -0.00000000000E+00 -0.77774884874E+02  0.77774885037E+02  0.50400000000E-02 0. -1.
    5000001    1    1    2    0    0 -0.71099062929E+02  0.14995056619E+03  0.30642439958E+03  0.40129435794E+03  0.19900000000E+03 0.  0.
   -5000001    1    1    2    0    0  0.71099062929E+02 -0.14995056619E+03  0.52290216363E+03  0.58358197520E+03  0.19900000000E+03 0.  0.
<mgrwt>
<rscale>  0 0.53122391E+03</rscale>
<asrwt>0</asrwt>
<pdfrwt beam="1">  1        1 0.12958590E+00 0.53122391E+03</pdfrwt>
<pdfrwt beam="2">  1       -1 0.11110699E-01 0.53122391E+03</pdfrwt>
<totfact> 0.10949893E+03</totfact>
</mgrwt>
</event>
<event>
 4    1  0.6480558E-006  0.5536314E+03  0.7818608E-02  0.1000657E+00
          1   -1    0    0  501    0  0.00000000000E+00  0.00000000000E+00  0.59762740795E+03  0.59762740798E+03  0.50400000000E-02 0.  1.
         -1   -1    0    0    0  501 -0.00000000000E+00 -0.00000000000E+00 -0.12821854862E+03  0.12821854872E+03  0.50400000000E-02 0. -1.
    5000001    1    1    2    0    0  0.18312824845E+03 -0.45020404986E+02  0.28485371486E+03  0.39535481673E+03  0.19900000000E+03 0.  0.
   -5000001    1    1    2    0    0 -0.18312824845E+03  0.45020404986E+02  0.18455514447E+03  0.33049113997E+03  0.19900000000E+03 0.  0.
<mgrwt>
<rscale>  0 0.55363135E+03</rscale>
<asrwt>0</asrwt>
<pdfrwt beam="1">  1        1 0.85375344E-01 0.55363135E+03</pdfrwt>
<pdfrwt beam="2">  1       -1 0.18316935E-01 0.55363135E+03</pdfrwt>
<totfact> 0.91162111E+02</totfact>
</mgrwt>
</event>
<event>
 4    1  0.6480558E-006  0.1017122E+04  0.7818608E-02  0.9289963E-01
          1   -1    0    0  501    0  0.00000000000E+00  0.00000000000E+00  0.30614466977E+04  0.30614466977E+04  0.50400000000E-02 0.  1.
         -1   -1    0    0    0  501 -0.00000000000E+00 -0.00000000000E+00 -0.84480989993E+02  0.84480990144E+02  0.50400000000E-02 0. -1.
    5000001    1    1    2    0    0 -0.40273304977E+03 -0.21258199152E+03  0.18222950774E+04  0.18888476280E+04  0.19900000000E+03 0.  0.
   -5000001    1    1    2    0    0  0.40273304977E+03  0.21258199152E+03  0.11546706303E+04  0.12570800599E+04  0.19900000000E+03 0.  0.
<mgrwt>
<rscale>  0 0.10171215E+04</rscale>
<asrwt>0</asrwt>
<pdfrwt beam="1">  1        1 0.43734953E+00 0.10171215E+04</pdfrwt>
<pdfrwt beam="2">  1       -1 0.12068713E-01 0.10171215E+04</pdfrwt>
<totfact> 0.37096868E+01</totfact>
</mgrwt>
</event>
<event>
 4    1  0.6480558E-006  0.6692538E+03  0.7818608E-02  0.9771307E-01
          1   -1    0    0  501    0  0.00000000000E+00  0.00000000000E+00  0.28596971664E+03  0.28596971668E+03  0.50400000000E-02 0.  1.
         -1   -1    0    0    0  501 -0.00000000000E+00 -0.00000000000E+00 -0.39156306545E+03  0.39156306548E+03  0.50400000000E-02 0. -1.
    5000001    1    1    2    0    0 -0.62103716163E+01 -0.23988542061E+03 -0.17591771008E+03  0.35795477991E+03  0.19900000000E+03 0.  0.
   -5000001    1    1    2    0    0  0.62103716163E+01  0.23988542061E+03  0.70324361271E+02  0.31957800226E+03  0.19900000000E+03 0.  0.
<mgrwt>
<rscale>  0 0.66925385E+03</rscale>
<asrwt>0</asrwt>
<pdfrwt beam="1">  1        1 0.40852817E-01 0.66925385E+03</pdfrwt>
<pdfrwt beam="2">  1       -1 0.55937580E-01 0.66925385E+03</pdfrwt>
<totfact> 0.33643324E+02</totfact>
</mgrwt>
</event>
<event>
 4    1  0.6480558E-006  0.4465392E+03  0.7818608E-02  0.1028759E+00
         -1   -1    0    0    0  501 -0.00000000000E+00  0.00000000000E+00  0.13582285301E+03  0.13582285310E+03  0.50400000000E-02 0. -1.
          1   -1    0    0  501    0  0.00000000000E+00 -0.00000000000E+00 -0.36701715481E+03  0.36701715485E+03  0.50400000000E-02 0.  1.
    5000001    1    1    2    0    0  0.15907399638E+02  0.97276883753E+02 -0.14158209100E+03  0.26336728340E+03  0.19900000000E+03 0.  0.
   -5000001    1    1    2    0    0 -0.15907399638E+02 -0.97276883753E+02 -0.89612210811E+02  0.23947272455E+03  0.19900000000E+03 0.  0.
<mgrwt>
<rscale>  0 0.44653921E+03</rscale>
<asrwt>0</asrwt>
<pdfrwt beam="1">  1        1 0.52431022E-01 0.44653921E+03</pdfrwt>
<pdfrwt beam="2">  1       -1 0.19403265E-01 0.44653921E+03</pdfrwt>
<totfact> 0.15868707E+03</totfact>
</mgrwt>
</event>
<event>
 4    1  0.6480558E-006  0.5315819E+03  0.7818608E-02  0.1005849E+00
         -1   -1    0    0    0  501 -0.00000000000E+00  0.00000000000E+00  0.27378509199E+03  0.27378509203E+03  0.50400000000E-02 0. -1.
          1   -1    0    0  501    0  0.00000000000E+00 -0.00000000000E+00 -0.25803019932E+03  0.25803019937E+03  0.50400000000E-02 0.  1.
    5000001    1    1    2    0    0  0.36646063928E+02 -0.16223898912E+03 -0.50280672106E+02  0.26418472624E+03  0.19900000000E+03 0.  0.
   -5000001    1    1    2    0    0 -0.36646063928E+02  0.16223898912E+03  0.66035564772E+02  0.26763056516E+03  0.19900000000E+03 0.  0.
<mgrwt>
<rscale>  0 0.53158187E+03</rscale>
<asrwt>0</asrwt>
<pdfrwt beam="1">  1        1 0.36861457E-01 0.53158187E+03</pdfrwt>
<pdfrwt beam="2">  1       -1 0.39112156E-01 0.53158187E+03</pdfrwt>
<totfact> 0.75039869E+02</totfact>
</mgrwt>
</event>
<event>
 4    1  0.6480558E-006  0.4636298E+03  0.7818608E-02  0.1023734E+00
         -1   -1    0    0    0  501 -0.00000000000E+00  0.00000000000E+00  0.65707665837E+03  0.65707665839E+03  0.50400000000E-02 0. -1.
          1   -1    0    0  501    0  0.00000000000E+00 -0.00000000000E+00 -0.81783675853E+02  0.81783676008E+02  0.50400000000E-02 0.  1.
    5000001    1    1    2    0    0  0.32578257808E+02 -0.80044163416E+02  0.41778706139E+03  0.47076049074E+03  0.19900000000E+03 0.  0.
   -5000001    1    1    2    0    0 -0.32578257808E+02  0.80044163416E+02  0.15750592113E+03  0.26809984366E+03  0.19900000000E+03 0.  0.
<mgrwt>
<rscale>  0 0.46362979E+03</rscale>
<asrwt>0</asrwt>
<pdfrwt beam="1">  1        1 0.11683382E-01 0.46362979E+03</pdfrwt>
<pdfrwt beam="2">  1       -1 0.93868097E-01 0.46362979E+03</pdfrwt>
<totfact> 0.60344359E+02</totfact>
</mgrwt>
</event>
<event>
 4    1  0.6480558E-006  0.6571753E+03  0.7818608E-02  0.9793408E-01
         -1   -1    0    0    0  501 -0.00000000000E+00  0.00000000000E+00  0.84176421500E+02  0.84176421651E+02  0.50400000000E-02 0. -1.
          1   -1    0    0  501    0  0.00000000000E+00 -0.00000000000E+00 -0.12826612792E+04  0.12826612792E+04  0.50400000000E-02 0.  1.
    5000001    1    1    2    0    0  0.22589542673E+03  0.99000699586E+02 -0.77983142569E+03  0.84176477405E+03  0.19900000000E+03 0.  0.
   -5000001    1    1    2    0    0 -0.22589542673E+03 -0.99000699586E+02 -0.41865343200E+03  0.52507292680E+03  0.19900000000E+03 0.  0.
<mgrwt>
<rscale>  0 0.65717528E+03</rscale>
<asrwt>0</asrwt>
<pdfrwt beam="1">  1        1 0.18323731E+00 0.65717528E+03</pdfrwt>
<pdfrwt beam="2">  1       -1 0.12025204E-01 0.65717528E+03</pdfrwt>
<totfact> 0.51833986E+02</totfact>
</mgrwt>
</event>
<event>
 4    1  0.6480558E-006  0.6282062E+03  0.7818608E-02  0.9848556E-01
         -1   -1    0    0    0  501 -0.00000000000E+00  0.00000000000E+00  0.42310088428E+03  0.42310088431E+03  0.50400000000E-02 0. -1.
          1   -1    0    0  501    0  0.00000000000E+00 -0.00000000000E+00 -0.23318492134E+03  0.23318492140E+03  0.50400000000E-02 0.  1.
    5000001    1    1    2    0    0 -0.23524055422E+03  0.51142049427E+02  0.12970293374E+03  0.33819739590E+03  0.19900000000E+03 0.  0.
   -5000001    1    1    2    0    0  0.23524055422E+03 -0.51142049427E+02  0.60213029190E+02  0.31808840981E+03  0.19900000000E+03 0.  0.
<mgrwt>
<rscale>  0 0.62820617E+03</rscale>
<asrwt>0</asrwt>
<pdfrwt beam="1">  1        1 0.33312132E-01 0.62820617E+03</pdfrwt>
<pdfrwt beam="2">  1       -1 0.60442983E-01 0.62820617E+03</pdfrwt>
<totfact> 0.37683600E+02</totfact>
</mgrwt>
</event>
<event>
 4    1  0.6480558E-006  0.5339851E+03  0.7818608E-02  0.1005270E+00
         -1   -1    0    0    0  501 -0.00000000000E+00  0.00000000000E+00  0.31917461098E+02  0.31917461496E+02  0.50400000000E-02 0. -1.
          1   -1    0    0  501    0  0.00000000000E+00 -0.00000000000E+00 -0.22334175823E+04  0.22334175823E+04  0.50400000000E-02 0.  1.
    5000001    1    1    2    0    0  0.13410581735E+03  0.10408003526E+03 -0.87359793752E+03  0.91191632315E+03  0.19900000000E+03 0.  0.
   -5000001    1    1    2    0    0 -0.13410581735E+03 -0.10408003526E+03 -0.13279021837E+04  0.13534187207E+04  0.19900000000E+03 0.  0.
<mgrwt>
<rscale>  0 0.53398509E+03</rscale>
<asrwt>0</asrwt>
<pdfrwt beam="1">  1        1 0.31905956E+00 0.53398509E+03</pdfrwt>
<pdfrwt beam="2">  1       -1 0.45596387E-02 0.53398509E+03</pdfrwt>
<totfact> 0.59436905E+02</totfact>
</mgrwt>
</event>
<event>
 4    1  0.6480558E-006  0.4809895E+03  0.7818608E-02  0.1018864E+00
         -1   -1    0    0    0  501 -0.00000000000E+00  0.00000000000E+00  0.15405976289E+02  0.15405977113E+02  0.50400000000E-02 0. -1.
          1   -1    0    0  501    0  0.00000000000E+00 -0.00000000000E+00 -0.37542388662E+04  0.37542388662E+04  0.50400000000E-02 0.  1.
    5000001    1    1    2    0    0 -0.11751629615E+03  0.64245350831E+02 -0.17338584872E+04  0.17503724743E+04  0.19900000000E+03 0.  0.
   -5000001    1    1    2    0    0  0.11751629615E+03 -0.64245350831E+02 -0.20049744027E+04  0.20192723690E+04  0.19900000000E+03 0.  0.
<mgrwt>
<rscale>  0 0.48098947E+03</rscale>
<asrwt>0</asrwt>
<pdfrwt beam="1">  1        1 0.53631925E+00 0.48098947E+03</pdfrwt>
<pdfrwt beam="2">  1       -1 0.22008562E-02 0.48098947E+03</pdfrwt>
<totfact> 0.18357056E+02</totfact>
</mgrwt>
</event>
<event>
 4    1  0.6480558E-006  0.6087565E+03  0.7818608E-02  0.9887404E-01
          1   -1    0    0  501    0  0.00000000000E+00  0.00000000000E+00  0.92029795241E+03  0.92029795242E+03  0.50400000000E-02 0.  1.
         -1   -1    0    0    0  501 -0.00000000000E+00 -0.00000000000E+00 -0.10066970948E+03  0.10066970961E+03  0.50400000000E-02 0. -1.
    5000001    1    1    2    0    0  0.21813110835E+03 -0.45441012044E+02  0.50759363467E+03  0.58898078403E+03  0.19900000000E+03 0.  0.
   -5000001    1    1    2    0    0 -0.21813110835E+03  0.45441012044E+02  0.31203460826E+03  0.43198687799E+03  0.19900000000E+03 0.  0.
<mgrwt>
<rscale>  0 0.60875653E+03</rscale>
<asrwt>0</asrwt>
<pdfrwt beam="1">  1        1 0.13147114E+00 0.60875653E+03</pdfrwt>
<pdfrwt beam="2">  1       -1 0.14381387E-01 0.60875653E+03</pdfrwt>
<totfact> 0.70658838E+02</totfact>
</mgrwt>
</event>
<event>
 4    1  0.6480558E-006  0.1408867E+04  0.7818608E-02  0.8947425E-01
          1   -1    0    0  501    0  0.00000000000E+00  0.00000000000E+00  0.82259068297E+03  0.82259068299E+03  0.50400000000E-02 0.  1.
         -1   -1    0    0    0  501 -0.00000000000E+00 -0.00000000000E+00 -0.60324856566E+03  0.60324856568E+03  0.50400000000E-02 0. -1.
    5000001    1    1    2    0    0 -0.36892093146E+03 -0.35448944583E+03 -0.33707644203E+03  0.64419480644E+03  0.19900000000E+03 0.  0.
   -5000001    1    1    2    0    0  0.36892093146E+03  0.35448944583E+03  0.55641855935E+03  0.78164444222E+03  0.19900000000E+03 0.  0.
<mgrwt>
<rscale>  0 0.14088671E+04</rscale>
<asrwt>0</asrwt>
<pdfrwt beam="1">  1        1 0.11751295E+00 0.14088671E+04</pdfrwt>
<pdfrwt beam="2">  1       -1 0.86178367E-01 0.14088671E+04</pdfrwt>
<totfact> 0.30891879E+01</totfact>
</mgrwt>
</event>
<event>
 4    1  0.6480558E-006  0.6290861E+03  0.7818608E-02  0.9846834E-01
         -1   -1    0    0    0  501 -0.00000000000E+00  0.00000000000E+00  0.64751880906E+02  0.64751881102E+02  0.50400000000E-02 0. -1.
          1   -1    0    0  501    0  0.00000000000E+00 -0.00000000000E+00 -0.15279450856E+04  0.15279450856E+04  0.50400000000E-02 0.  1.
    5000001    1    1    2    0    0 -0.21127534905E+03 -0.73398152228E+02 -0.48728792335E+03  0.57190478413E+03  0.19900000000E+03 0.  0.
   -5000001    1    1    2    0    0  0.21127534905E+03  0.73398152228E+02 -0.97590528137E+03  0.10207921826E+04  0.19900000000E+03 0.  0.
<mgrwt>
<rscale>  0 0.62908606E+03</rscale>
<asrwt>0</asrwt>
<pdfrwt beam="1">  1        1 0.21827785E+00 0.62908606E+03</pdfrwt>
<pdfrwt beam="2">  1       -1 0.92502697E-02 0.62908606E+03</pdfrwt>
<totfact> 0.54381472E+02</totfact>
</mgrwt>
</event>
<event>
 4    1  0.6480558E-006  0.8090665E+03  0.7818608E-02  0.9546986E-01
         -1   -1    0    0    0  501 -0.00000000000E+00  0.00000000000E+00  0.22477475432E+03  0.22477475438E+03  0.50400000000E-02 0. -1.
          1   -1    0    0  501    0  0.00000000000E+00 -0.00000000000E+00 -0.72804956577E+03  0.72804956579E+03  0.50400000000E-02 0.  1.
    5000001    1    1    2    0    0 -0.21766126489E+03  0.26878171183E+03 -0.17328712499E+03  0.43502811695E+03  0.19900000000E+03 0.  0.
   -5000001    1    1    2    0    0  0.21766126489E+03 -0.26878171183E+03 -0.32998768646E+03  0.51779620321E+03  0.19900000000E+03 0.  0.
<mgrwt>
<rscale>  0 0.80906653E+03</rscale>
<asrwt>0</asrwt>
<pdfrwt beam="1">  1        1 0.10400708E+00 0.80906653E+03</pdfrwt>
<pdfrwt beam="2">  1       -1 0.32110680E-01 0.80906653E+03</pdfrwt>
<totfact> 0.26204844E+02</totfact>
</mgrwt>
</event>
<event>
 4    1  0.6480558E-006  0.7834206E+03  0.7818608E-02  0.9584330E-01
         -1   -1    0    0    0  501 -0.00000000000E+00  0.00000000000E+00  0.20433958559E+03  0.20433958566E+03  0.50400000000E-02 0. -1.
          1   -1    0    0  501    0  0.00000000000E+00 -0.00000000000E+00 -0.75089205286E+03  0.75089205287E+03  0.50400000000E-02 0.  1.
    5000001    1    1    2    0    0  0.72356835372E+02  0.26975713122E+03 -0.42470555403E+02  0.34555631892E+03  0.19900000000E+03 0.  0.
   -5000001    1    1    2    0    0 -0.72356835372E+02 -0.26975713122E+03 -0.50408191186E+03  0.60967531961E+03  0.19900000000E+03 0.  0.
<mgrwt>
<rscale>  0 0.78342063E+03</rscale>
<asrwt>0</asrwt>
<pdfrwt beam="1">  1        1 0.10727029E+00 0.78342063E+03</pdfrwt>
<pdfrwt beam="2">  1       -1 0.29191370E-01 0.78342063E+03</pdfrwt>
<totfact> 0.29589934E+02</totfact>
</mgrwt>
</event>
<event>
 4    1  0.6480558E-006  0.4306966E+03  0.7818608E-02  0.1033640E+00
         -1   -1    0    0    0  501 -0.00000000000E+00  0.00000000000E+00  0.20319190853E+03  0.20319190859E+03  0.50400000000E-02 0. -1.
          1   -1    0    0  501    0  0.00000000000E+00 -0.00000000000E+00 -0.22823197396E+03  0.22823197402E+03  0.50400000000E-02 0.  1.
    5000001    1    1    2    0    0 -0.36603531908E+02 -0.59196983155E+02 -0.56523576860E+02  0.21826592978E+03  0.19900000000E+03 0.  0.
   -5000001    1    1    2    0    0  0.36603531908E+02  0.59196983155E+02  0.31483511429E+02  0.21315795283E+03  0.19900000000E+03 0.  0.
<mgrwt>
<rscale>  0 0.43069660E+03</rscale>
<asrwt>0</asrwt>
<pdfrwt beam="1">  1        1 0.32604568E-01 0.43069660E+03</pdfrwt>
<pdfrwt beam="2">  1       -1 0.29027416E-01 0.43069660E+03</pdfrwt>
<totfact> 0.14816595E+03</totfact>
</mgrwt>
</event>
<event>
 4    1  0.6480558E-006  0.5545053E+03  0.7818608E-02  0.1000456E+00
          1   -1    0    0  501    0  0.00000000000E+00  0.00000000000E+00  0.11984023872E+03  0.11984023882E+03  0.50400000000E-02 0.  1.
         -1   -1    0    0    0  501 -0.00000000000E+00 -0.00000000000E+00 -0.64142925994E+03  0.64142925996E+03  0.50400000000E-02 0. -1.
    5000001    1    1    2    0    0  0.17078897521E+03 -0.89322320616E+02 -0.24571251645E+03  0.37030121760E+03  0.19900000000E+03 0.  0.
   -5000001    1    1    2    0    0 -0.17078897521E+03  0.89322320616E+02 -0.27587650477E+03  0.39096828119E+03  0.19900000000E+03 0.  0.
<mgrwt>
<rscale>  0 0.55450531E+03</rscale>
<asrwt>0</asrwt>
<pdfrwt beam="1">  1        1 0.17120034E-01 0.55450531E+03</pdfrwt>
<pdfrwt beam="2">  1       -1 0.91632750E-01 0.55450531E+03</pdfrwt>
<totfact> 0.38030676E+02</totfact>
</mgrwt>
</event>
<event>
 4    1  0.6480558E-006  0.6452644E+03  0.7818608E-02  0.9815706E-01
          1   -1    0    0  501    0  0.00000000000E+00  0.00000000000E+00  0.44180771554E+03  0.44180771557E+03  0.50400000000E-02 0.  1.
         -1   -1    0    0    0  501 -0.00000000000E+00 -0.00000000000E+00 -0.23560368765E+03  0.23560368770E+03  0.50400000000E-02 0. -1.
    5000001    1    1    2    0    0  0.22891472490E+03  0.81766384331E+02  0.18026795131E+03  0.36219501260E+03  0.19900000000E+03 0.  0.
   -5000001    1    1    2    0    0 -0.22891472490E+03 -0.81766384331E+02  0.25936076592E+02  0.31521639068E+03  0.19900000000E+03 0.  0.
<mgrwt>
<rscale>  0 0.64526437E+03</rscale>
<asrwt>0</asrwt>
<pdfrwt beam="1">  1        1 0.63115387E-01 0.64526437E+03</pdfrwt>
<pdfrwt beam="2">  1       -1 0.33657670E-01 0.64526437E+03</pdfrwt>
<totfact> 0.48737814E+02</totfact>
</mgrwt>
</event>
<event>
 4    1  0.6480558E-006  0.7565708E+03  0.7818608E-02  0.9625098E-01
         -1   -1    0    0    0  501 -0.00000000000E+00  0.00000000000E+00  0.19731602297E+03  0.19731602304E+03  0.50400000000E-02 0.  1.
          1   -1    0    0  501    0  0.00000000000E+00 -0.00000000000E+00 -0.72523180629E+03  0.72523180631E+03  0.50400000000E-02 0. -1.
    5000001    1    1    2    0    0  0.53486995998E+02  0.24125893751E+03 -0.51513882726E+03  0.60500888012E+03  0.19900000000E+03 0.  0.
   -5000001    1    1    2    0    0 -0.53486995998E+02 -0.24125893751E+03 -0.12776956057E+02  0.31753894923E+03  0.19900000000E+03 0.  0.
<mgrwt>
<rscale>  0 0.75657083E+03</rscale>
<asrwt>0</asrwt>
<pdfrwt beam="1">  1        1 0.10360454E+00 0.75657083E+03</pdfrwt>
<pdfrwt beam="2">  1       -1 0.28188004E-01 0.75657083E+03</pdfrwt>
<totfact> 0.33164508E+02</totfact>
</mgrwt>
</event>
<event>
 4    1  0.6480558E-006  0.1011258E+04  0.7818608E-02  0.9296283E-01
         -1   -1    0    0    0  501 -0.00000000000E+00  0.00000000000E+00  0.78298207302E+03  0.78298207303E+03  0.50400000000E-02 0. -1.
          1   -1    0    0  501    0  0.00000000000E+00 -0.00000000000E+00 -0.32652187368E+03  0.32652187372E+03  0.50400000000E-02 0.  1.
    5000001    1    1    2    0    0  0.95660014428E+02 -0.42971380005E+03  0.64555811087E+02  0.48741485519E+03  0.19900000000E+03 0.  0.
   -5000001    1    1    2    0    0 -0.95660014428E+02  0.42971380005E+03  0.39190438825E+03  0.62208909156E+03  0.19900000000E+03 0.  0.
<mgrwt>
<rscale>  0 0.10112582E+04</rscale>
<asrwt>0</asrwt>
<pdfrwt beam="1">  1        1 0.46645982E-01 0.10112582E+04</pdfrwt>
<pdfrwt beam="2">  1       -1 0.11185458E+00 0.10112582E+04</pdfrwt>
<totfact> 0.63577329E+01</totfact>
</mgrwt>
</event>
<event>
 4    1  0.6480558E-006  0.8921313E+03  0.7818608E-02  0.9435471E-01
         -1   -1    0    0    0  501 -0.00000000000E+00  0.00000000000E+00  0.32047489013E+03  0.32047489017E+03  0.50400000000E-02 0. -1.
          1   -1    0    0  501    0  0.00000000000E+00 -0.00000000000E+00 -0.62087413185E+03  0.62087413187E+03  0.50400000000E-02 0.  1.
    5000001    1    1    2    0    0  0.16792235822E+03  0.29276644601E+03  0.74785154565E+02  0.39887833940E+03  0.19900000000E+03 0.  0.
   -5000001    1    1    2    0    0 -0.16792235822E+03 -0.29276644601E+03 -0.37518439628E+03  0.54247068263E+03  0.19900000000E+03 0.  0.
<mgrwt>
<rscale>  0 0.89213131E+03</rscale>
<asrwt>0</asrwt>
<pdfrwt beam="1">  1        1 0.88696304E-01 0.89213131E+03</pdfrwt>
<pdfrwt beam="2">  1       -1 0.45782127E-01 0.89213131E+03</pdfrwt>
<totfact> 0.17323354E+02</totfact>
</mgrwt>
</event>
<event>
 4    1  0.6480558E-006  0.9213367E+03  0.7818608E-02  0.9399296E-01
          1   -1    0    0  501    0  0.00000000000E+00  0.00000000000E+00  0.20852599311E+03  0.20852599317E+03  0.50400000000E-02 0.  1.
         -1   -1    0    0    0  501 -0.00000000000E+00 -0.00000000000E+00 -0.10176923451E+04  0.10176923452E+04  0.50400000000E-02 0. -1.
    5000001    1    1    2    0    0 -0.27879061655E+01  0.24131294811E+03  0.45522245362E+02  0.31609015513E+03  0.19900000000E+03 0.  0.
   -5000001    1    1    2    0    0  0.27879061655E+01 -0.24131294811E+03 -0.85468859739E+03  0.91012818320E+03  0.19900000000E+03 0.  0.
<mgrwt>
<rscale>  0 0.92133665E+03</rscale>
<asrwt>0</asrwt>
<pdfrwt beam="1">  1        1 0.29789428E-01 0.92133665E+03</pdfrwt>
<pdfrwt beam="2">  1       -1 0.14538462E+00 0.92133665E+03</pdfrwt>
<totfact> 0.59309449E+01</totfact>
</mgrwt>
</event>
<event>
 4    1  0.6480558E-006  0.9121351E+03  0.7818608E-02  0.9410538E-01
          1   -1    0    0  501    0  0.00000000000E+00  0.00000000000E+00  0.84595544565E+03  0.84595544566E+03  0.50400000000E-02 0.  1.
         -1   -1    0    0    0  501 -0.00000000000E+00 -0.00000000000E+00 -0.24587300533E+03  0.24587300538E+03  0.50400000000E-02 0. -1.
    5000001    1    1    2    0    0 -0.30968084862E+03 -0.13502427431E+03  0.57887567796E+03  0.69916509723E+03  0.19900000000E+03 0.  0.
   -5000001    1    1    2    0    0  0.30968084862E+03  0.13502427431E+03  0.21206762361E+02  0.39266335381E+03  0.19900000000E+03 0.  0.
<mgrwt>
<rscale>  0 0.91213509E+03</rscale>
<asrwt>0</asrwt>
<pdfrwt beam="1">  1        1 0.12085078E+00 0.91213509E+03</pdfrwt>
<pdfrwt beam="2">  1       -1 0.35124715E-01 0.91213509E+03</pdfrwt>
<totfact> 0.17643391E+02</totfact>
</mgrwt>
</event>
<event>
 4    1  0.6480558E-006  0.5974246E+03  0.7818608E-02  0.9910764E-01
          1   -1    0    0  501    0  0.00000000000E+00  0.00000000000E+00  0.17901882216E+03  0.17901882224E+03  0.50400000000E-02 0.  1.
         -1   -1    0    0    0  501 -0.00000000000E+00 -0.00000000000E+00 -0.49843386232E+03  0.49843386234E+03  0.50400000000E-02 0. -1.
    5000001    1    1    2    0    0  0.10836284798E+03 -0.19193399749E+03 -0.12301786422E+03  0.32142738081E+03  0.19900000000E+03 0.  0.
   -5000001    1    1    2    0    0 -0.10836284798E+03  0.19193399749E+03 -0.19639717593E+03  0.35602530377E+03  0.19900000000E+03 0.  0.
<mgrwt>
<rscale>  0 0.59742462E+03</rscale>
<asrwt>0</asrwt>
<pdfrwt beam="1">  1        1 0.25574118E-01 0.59742462E+03</pdfrwt>
<pdfrwt beam="2">  1       -1 0.71204837E-01 0.59742462E+03</pdfrwt>
<totfact> 0.38240586E+02</totfact>
</mgrwt>
</event>
<event>
 4    1  0.6480558E-006  0.6944090E+03  0.7818608E-02  0.9726842E-01
         -1   -1    0    0    0  501 -0.00000000000E+00  0.00000000000E+00  0.14542085481E+03  0.14542085490E+03  0.50400000000E-02 0.  1.
          1   -1    0    0  501    0  0.00000000000E+00 -0.00000000000E+00 -0.82897990151E+03  0.82897990152E+03  0.50400000000E-02 0. -1.
    5000001    1    1    2    0    0  0.21501655744E+03  0.18545876188E+03 -0.36699411852E+03  0.50488885446E+03  0.19900000000E+03 0.  0.
   -5000001    1    1    2    0    0 -0.21501655744E+03 -0.18545876188E+03 -0.31656492817E+03  0.46951190196E+03  0.19900000000E+03 0.  0.
<mgrwt>
<rscale>  0 0.69440900E+03</rscale>
<asrwt>0</asrwt>
<pdfrwt beam="1">  1        1 0.11842570E+00 0.69440900E+03</pdfrwt>
<pdfrwt beam="2">  1       -1 0.20774408E-01 0.69440900E+03</pdfrwt>
<totfact> 0.45523116E+02</totfact>
</mgrwt>
</event>
<event>
 4    1  0.6480558E-006  0.8401597E+03  0.7818608E-02  0.9503640E-01
         -1   -1    0    0    0  501 -0.00000000000E+00  0.00000000000E+00  0.14087225907E+04  0.14087225907E+04  0.50400000000E-02 0. -1.
          1   -1    0    0  501    0  0.00000000000E+00 -0.00000000000E+00 -0.12526744904E+03  0.12526744914E+03  0.50400000000E-02 0.  1.
    5000001    1    1    2    0    0 -0.36304416947E+03 -0.68170752408E+02  0.67904628657E+03  0.79821875433E+03  0.19900000000E+03 0.  0.
   -5000001    1    1    2    0    0  0.36304416947E+03  0.68170752408E+02  0.60440885507E+03  0.73577128549E+03  0.19900000000E+03 0.  0.
<mgrwt>
<rscale>  0 0.84015971E+03</rscale>
<asrwt>0</asrwt>
<pdfrwt beam="1">  1        1 0.17895351E-01 0.84015971E+03</pdfrwt>
<pdfrwt beam="2">  1       -1 0.20124608E+00 0.84015971E+03</pdfrwt>
<totfact> 0.45632652E+01</totfact>
</mgrwt>
</event>
<event>
 4    1  0.6480558E-006  0.6229428E+03  0.7818608E-02  0.9858918E-01
          1   -1    0    0  501    0  0.00000000000E+00  0.00000000000E+00  0.22829479417E+03  0.22829479423E+03  0.50400000000E-02 0.  1.
         -1   -1    0    0    0  501 -0.00000000000E+00 -0.00000000000E+00 -0.42495240002E+03  0.42495240005E+03  0.50400000000E-02 0. -1.
    5000001    1    1    2    0    0 -0.19601508429E+03  0.10044494682E+03 -0.19727087774E+03  0.35640973586E+03  0.19900000000E+03 0.  0.
   -5000001    1    1    2    0    0  0.19601508429E+03 -0.10044494682E+03  0.61327189919E+00  0.29683745841E+03  0.19900000000E+03 0.  0.
<mgrwt>
<rscale>  0 0.62294276E+03</rscale>
<asrwt>0</asrwt>
<pdfrwt beam="1">  1        1 0.32613542E-01 0.62294276E+03</pdfrwt>
<pdfrwt beam="2">  1       -1 0.60707486E-01 0.62294276E+03</pdfrwt>
<totfact> 0.38403413E+02</totfact>
</mgrwt>
</event>
<event>
 4    1  0.6480558E-006  0.7583976E+03  0.7818608E-02  0.9622267E-01
         -1   -1    0    0    0  501 -0.00000000000E+00  0.00000000000E+00  0.11177583304E+04  0.11177583304E+04  0.50400000000E-02 0. -1.
          1   -1    0    0  501    0  0.00000000000E+00 -0.00000000000E+00 -0.12864294948E+03  0.12864294958E+03  0.50400000000E-02 0.  1.
    5000001    1    1    2    0    0 -0.71733704197E+01  0.32057451797E+03  0.43369947568E+03  0.57490496086E+03  0.19900000000E+03 0.  0.
   -5000001    1    1    2    0    0  0.71733704197E+01 -0.32057451797E+03  0.55541590528E+03  0.67149631916E+03  0.19900000000E+03 0.  0.
<mgrwt>
<rscale>  0 0.75839760E+03</rscale>
<asrwt>0</asrwt>
<pdfrwt beam="1">  1        1 0.18377563E-01 0.75839760E+03</pdfrwt>
<pdfrwt beam="2">  1       -1 0.15967977E+00 0.75839760E+03</pdfrwt>
<totfact> 0.87768449E+01</totfact>
</mgrwt>
</event>
<event>
 4    1  0.6480558E-006  0.6539270E+03  0.7818608E-02  0.9799438E-01
         -1   -1    0    0    0  501 -0.00000000000E+00  0.00000000000E+00  0.42301557898E+03  0.42301557901E+03  0.50400000000E-02 0. -1.
          1   -1    0    0  501    0  0.00000000000E+00 -0.00000000000E+00 -0.25272152322E+03  0.25272152327E+03  0.50400000000E-02 0.  1.
    5000001    1    1    2    0    0 -0.53247974643E+02  0.21897407966E+03 -0.47666491078E+02  0.30439791185E+03  0.19900000000E+03 0.  0.
   -5000001    1    1    2    0    0  0.53247974643E+02 -0.21897407966E+03  0.21796054684E+03  0.37133919042E+03  0.19900000000E+03 0.  0.
<mgrwt>
<rscale>  0 0.65392703E+03</rscale>
<asrwt>0</asrwt>
<pdfrwt beam="1">  1        1 0.36103075E-01 0.65392703E+03</pdfrwt>
<pdfrwt beam="2">  1       -1 0.60430796E-01 0.65392703E+03</pdfrwt>
<totfact> 0.33953521E+02</totfact>
</mgrwt>
</event>
<event>
 4    1  0.6480558E-006  0.4811650E+03  0.7818608E-02  0.1018815E+00
         -1   -1    0    0    0  501 -0.00000000000E+00  0.00000000000E+00  0.26223175145E+03  0.26223175150E+03  0.50400000000E-02 0. -1.
          1   -1    0    0  501    0  0.00000000000E+00 -0.00000000000E+00 -0.22072056479E+03  0.22072056485E+03  0.50400000000E-02 0.  1.
    5000001    1    1    2    0    0  0.94112185155E+02  0.82275157887E+02  0.72450647373E+02  0.24591950168E+03  0.19900000000E+03 0.  0.
   -5000001    1    1    2    0    0 -0.94112185155E+02 -0.82275157887E+02 -0.30939460715E+02  0.23703281467E+03  0.19900000000E+03 0.  0.
<mgrwt>
<rscale>  0 0.48116500E+03</rscale>
<asrwt>0</asrwt>
<pdfrwt beam="1">  1        1 0.31531509E-01 0.48116500E+03</pdfrwt>
<pdfrwt beam="2">  1       -1 0.37461679E-01 0.48116500E+03</pdfrwt>
<totfact> 0.99074786E+02</totfact>
</mgrwt>
</event>
<event>
 4    1  0.6480558E-006  0.5462699E+03  0.7818608E-02  0.1002361E+00
          1   -1    0    0  501    0  0.00000000000E+00  0.00000000000E+00  0.14964158098E+04  0.14964158098E+04  0.50400000000E-02 0.  1.
         -1   -1    0    0    0  501 -0.00000000000E+00 -0.00000000000E+00 -0.49854255118E+02  0.49854255373E+02  0.50400000000E-02 0. -1.
    5000001    1    1    2    0    0  0.13231393855E+03 -0.41408163347E+02  0.36770455467E+03  0.44048751838E+03  0.19900000000E+03 0.  0.
   -5000001    1    1    2    0    0 -0.13231393855E+03  0.41408163347E+02  0.10788570000E+04  0.11057825468E+04  0.19900000000E+03 0.  0.
<mgrwt>
<rscale>  0 0.54626988E+03</rscale>
<asrwt>0</asrwt>
<pdfrwt beam="1">  1        1 0.21377372E+00 0.54626988E+03</pdfrwt>
<pdfrwt beam="2">  1       -1 0.71220352E-02 0.54626988E+03</pdfrwt>
<totfact> 0.86021637E+02</totfact>
</mgrwt>
</event>
<event>
 4    1  0.6480558E-006  0.6154562E+03  0.7818608E-02  0.9873848E-01
         -1   -1    0    0    0  501 -0.00000000000E+00  0.00000000000E+00  0.12618347614E+03  0.12618347624E+03  0.50400000000E-02 0. -1.
          1   -1    0    0  501    0  0.00000000000E+00 -0.00000000000E+00 -0.75046726964E+03  0.75046726966E+03  0.50400000000E-02 0.  1.
    5000001    1    1    2    0    0  0.22314533970E+03  0.13512661905E+02 -0.41405446518E+03  0.51089973067E+03  0.19900000000E+03 0.  0.
   -5000001    1    1    2    0    0 -0.22314533970E+03 -0.13512661905E+02 -0.21022932832E+03  0.36575101523E+03  0.19900000000E+03 0.  0.
<mgrwt>
<rscale>  0 0.61545615E+03</rscale>
<asrwt>0</asrwt>
<pdfrwt beam="1">  1        1 0.10720961E+00 0.61545615E+03</pdfrwt>
<pdfrwt beam="2">  1       -1 0.18026211E-01 0.61545615E+03</pdfrwt>
<totfact> 0.67256385E+02</totfact>
</mgrwt>
</event>
<event>
 4    1  0.6480558E-006  0.1271501E+04  0.7818608E-02  0.9052476E-01
          1   -1    0    0  501    0  0.00000000000E+00  0.00000000000E+00  0.68280780589E+03  0.68280780591E+03  0.50400000000E-02 0. -1.
         -1   -1    0    0    0  501 -0.00000000000E+00 -0.00000000000E+00 -0.59193594298E+03  0.59193594300E+03  0.50400000000E-02 0.  1.
    5000001    1    1    2    0    0  0.17240699657E+03  0.27244629951E+03 -0.46638193253E+03  0.60088623347E+03  0.19900000000E+03 0.  0.
   -5000001    1    1    2    0    0 -0.17240699657E+03 -0.27244629951E+03  0.55725379544E+03  0.67385751544E+03  0.19900000000E+03 0.  0.
<mgrwt>
<rscale>  0 0.12715007E+04</rscale>
<asrwt>0</asrwt>
<pdfrwt beam="1">  1        1 0.97543972E-01 0.12715007E+04</pdfrwt>
<pdfrwt beam="2">  1       -1 0.84562277E-01 0.12715007E+04</pdfrwt>
<totfact> 0.43163031E+01</totfact>
</mgrwt>
</event>
<event>
 4    1  0.6480558E-006  0.5732030E+03  0.7818608E-02  0.9962616E-01
          1   -1    0    0  501    0  0.00000000000E+00  0.00000000000E+00  0.25846346150E+04  0.25846346150E+04  0.50400000000E-02 0.  1.
         -1   -1    0    0    0  501 -0.00000000000E+00 -0.00000000000E+00 -0.31780279897E+02  0.31780280297E+02  0.50400000000E-02 0. -1.
    5000001    1    1    2    0    0  0.16313560091E+03  0.12619177814E+03  0.12702643928E+04  0.13021943852E+04  0.19900000000E+03 0.  0.
   -5000001    1    1    2    0    0 -0.16313560091E+03 -0.12619177814E+03  0.12825899423E+04  0.13142205101E+04  0.19900000000E+03 0.  0.
<mgrwt>
<rscale>  0 0.57320297E+03</rscale>
<asrwt>0</asrwt>
<pdfrwt beam="1">  1        1 0.36923378E+00 0.57320297E+03</pdfrwt>
<pdfrwt beam="2">  1       -1 0.45400367E-02 0.57320297E+03</pdfrwt>
<totfact> 0.36115550E+02</totfact>
</mgrwt>
</event>
<event>
 4    1  0.6480558E-006  0.5437638E+03  0.7818608E-02  0.1002948E+00
          1   -1    0    0  501    0  0.00000000000E+00  0.00000000000E+00  0.51685341428E+03  0.51685341430E+03  0.50400000000E-02 0.  1.
         -1   -1    0    0    0  501 -0.00000000000E+00 -0.00000000000E+00 -0.14301881649E+03  0.14301881658E+03  0.50400000000E-02 0. -1.
    5000001    1    1    2    0    0 -0.11332654370E+03 -0.12986826715E+03  0.26931295882E+03  0.37661537689E+03  0.19900000000E+03 0.  0.
   -5000001    1    1    2    0    0  0.11332654370E+03  0.12986826715E+03  0.10452163897E+03  0.28325685399E+03  0.19900000000E+03 0.  0.
<mgrwt>
<rscale>  0 0.54376379E+03</rscale>
<asrwt>0</asrwt>
<pdfrwt beam="1">  1        1 0.73836203E-01 0.54376379E+03</pdfrwt>
<pdfrwt beam="2">  1       -1 0.20431259E-01 0.54376379E+03</pdfrwt>
<totfact> 0.92914107E+02</totfact>
</mgrwt>
</event>
<event>
 4    1  0.6480558E-006  0.1423644E+04  0.7818608E-02  0.8936880E-01
         -1   -1    0    0    0  501 -0.00000000000E+00  0.00000000000E+00  0.24550259583E+03  0.24550259588E+03  0.50400000000E-02 0. -1.
          1   -1    0    0  501    0  0.00000000000E+00 -0.00000000000E+00 -0.20638898640E+04  0.20638898640E+04  0.50400000000E-02 0.  1.
    5000001    1    1    2    0    0  0.44591266232E+02 -0.62557560059E+03 -0.13497438664E+04  0.15015800738E+04  0.19900000000E+03 0.  0.
   -5000001    1    1    2    0    0 -0.44591266232E+02  0.62557560059E+03 -0.46864340171E+03  0.80781238604E+03  0.19900000000E+03 0.  0.
<mgrwt>
<rscale>  0 0.14236437E+04</rscale>
<asrwt>0</asrwt>
<pdfrwt beam="1">  1        1 0.29484140E+00 0.14236437E+04</pdfrwt>
<pdfrwt beam="2">  1       -1 0.35071800E-01 0.14236437E+04</pdfrwt>
<totfact> 0.25591081E+01</totfact>
</mgrwt>
</event>
<event>
 4    1  0.6480558E-006  0.5191552E+03  0.7818608E-02  0.1008897E+00
          1   -1    0    0  501    0  0.00000000000E+00  0.00000000000E+00  0.52558784339E+03  0.52558784341E+03  0.50400000000E-02 0.  1.
         -1   -1    0    0    0  501 -0.00000000000E+00 -0.00000000000E+00 -0.12820033174E+03  0.12820033184E+03  0.50400000000E-02 0. -1.
    5000001    1    1    2    0    0 -0.69212906611E+02 -0.13068837748E+03  0.29550392747E+03  0.38573753979E+03  0.19900000000E+03 0.  0.
   -5000001    1    1    2    0    0  0.69212906611E+02  0.13068837748E+03  0.10188358417E+03  0.26805063547E+03  0.19900000000E+03 0.  0.
<mgrwt>
<rscale>  0 0.51915522E+03</rscale>
<asrwt>0</asrwt>
<pdfrwt beam="1">  1        1 0.75083976E-01 0.51915522E+03</pdfrwt>
<pdfrwt beam="2">  1       -1 0.18314333E-01 0.51915522E+03</pdfrwt>
<totfact> 0.10882382E+03</totfact>
</mgrwt>
</event>
<event>
 4    1  0.6480558E-006  0.6760051E+03  0.7818608E-02  0.9759170E-01
         -1   -1    0    0    0  501 -0.00000000000E+00  0.00000000000E+00  0.13457485470E+03  0.13457485480E+03  0.50400000000E-02 0. -1.
          1   -1    0    0  501    0  0.00000000000E+00 -0.00000000000E+00 -0.84893822777E+03  0.84893822779E+03  0.50400000000E-02 0.  1.
    5000001    1    1    2    0    0 -0.63865214016E+02 -0.16797096046E+03 -0.57772090015E+02  0.27428383748E+03  0.19900000000E+03 0.  0.
   -5000001    1    1    2    0    0  0.63865214016E+02  0.16797096046E+03 -0.65659128305E+03  0.70922924510E+03  0.19900000000E+03 0.  0.
<mgrwt>
<rscale>  0 0.67600514E+03</rscale>
<asrwt>0</asrwt>
<pdfrwt beam="1">  1        1 0.12127689E+00 0.67600514E+03</pdfrwt>
<pdfrwt beam="2">  1       -1 0.19224980E-01 0.67600514E+03</pdfrwt>
<totfact> 0.49921958E+02</totfact>
</mgrwt>
</event>
<event>
 4    1  0.6480558E-006  0.8026282E+03  0.7818608E-02  0.9556221E-01
         -1   -1    0    0    0  501 -0.00000000000E+00  0.00000000000E+00  0.32038662973E+03  0.32038662977E+03  0.50400000000E-02 0. -1.
          1   -1    0    0  501    0  0.00000000000E+00 -0.00000000000E+00 -0.50268323937E+03  0.50268323939E+03  0.50400000000E-02 0.  1.
    5000001    1    1    2    0    0  0.20122899391E+03  0.27371626372E+03 -0.17083378995E+03  0.42918397547E+03  0.19900000000E+03 0.  0.
   -5000001    1    1    2    0    0 -0.20122899391E+03 -0.27371626372E+03 -0.11462819677E+02  0.39388589369E+03  0.19900000000E+03 0.  0.
<mgrwt>
<rscale>  0 0.80262816E+03</rscale>
<asrwt>0</asrwt>
<pdfrwt beam="1">  1        1 0.71811891E-01 0.80262816E+03</pdfrwt>
<pdfrwt beam="2">  1       -1 0.45769519E-01 0.80262816E+03</pdfrwt>
<totfact> 0.23345563E+02</totfact>
</mgrwt>
</event>
<event>
 4    1  0.6480558E-006  0.7753757E+03  0.7818608E-02  0.9596360E-01
          1   -1    0    0  501    0  0.00000000000E+00  0.00000000000E+00  0.21139874684E+03  0.21139874690E+03  0.50400000000E-02 0. -1.
         -1   -1    0    0    0  501 -0.00000000000E+00 -0.00000000000E+00 -0.71098756732E+03  0.71098756734E+03  0.50400000000E-02 0.  1.
    5000001    1    1    2    0    0  0.28770692244E+03 -0.15020590890E+03 -0.16267064590E+03  0.41400462235E+03  0.19900000000E+03 0.  0.
   -5000001    1    1    2    0    0 -0.28770692244E+03  0.15020590890E+03 -0.33691817458E+03  0.50838169189E+03  0.19900000000E+03 0.  0.
<mgrwt>
<rscale>  0 0.77537573E+03</rscale>
<asrwt>0</asrwt>
<pdfrwt beam="1">  1        1 0.30199821E-01 0.77537573E+03</pdfrwt>
<pdfrwt beam="2">  1       -1 0.10156965E+00 0.77537573E+03</pdfrwt>
<totfact> 0.14194520E+02</totfact>
</mgrwt>
</event>
<event>
 4    1  0.6480558E-006  0.4934279E+03  0.7818608E-02  0.1015509E+00
         -1   -1    0    0    0  501 -0.00000000000E+00  0.00000000000E+00  0.90750713528E+02  0.90750713668E+02  0.50400000000E-02 0. -1.
          1   -1    0    0  501    0  0.00000000000E+00 -0.00000000000E+00 -0.67071406321E+03  0.67071406323E+03  0.50400000000E-02 0.  1.
    5000001    1    1    2    0    0  0.45388332959E+02  0.13203650874E+03 -0.22500083898E+03  0.33124027223E+03  0.19900000000E+03 0.  0.
   -5000001    1    1    2    0    0 -0.45388332959E+02 -0.13203650874E+03 -0.35496251071E+03  0.43022450467E+03  0.19900000000E+03 0.  0.
<mgrwt>
<rscale>  0 0.49342793E+03</rscale>
<asrwt>0</asrwt>
<pdfrwt beam="1">  1        1 0.95816292E-01 0.49342793E+03</pdfrwt>
<pdfrwt beam="2">  1       -1 0.12964388E-01 0.49342793E+03</pdfrwt>
<totfact> 0.13555840E+03</totfact>
</mgrwt>
</event>
<event>
 4    1  0.6480558E-006  0.5134059E+03  0.7818608E-02  0.1010338E+00
         -1   -1    0    0    0  501 -0.00000000000E+00  0.00000000000E+00  0.37662003595E+03  0.37662003599E+03  0.50400000000E-02 0.  1.
          1   -1    0    0  501    0  0.00000000000E+00 -0.00000000000E+00 -0.17496788402E+03  0.17496788409E+03  0.50400000000E-02 0. -1.
    5000001    1    1    2    0    0 -0.15539511968E+03  0.84675256004E-01  0.51035541641E+02  0.25759129819E+03  0.19900000000E+03 0.  0.
   -5000001    1    1    2    0    0  0.15539511968E+03 -0.84675256004E-01  0.15061661029E+03  0.29399662190E+03  0.19900000000E+03 0.  0.
<mgrwt>
<rscale>  0 0.51340592E+03</rscale>
<asrwt>0</asrwt>
<pdfrwt beam="1">  1        1 0.24995412E-01 0.51340592E+03</pdfrwt>
<pdfrwt beam="2">  1       -1 0.53802862E-01 0.51340592E+03</pdfrwt>
<totfact> 0.68623731E+02</totfact>
</mgrwt>
</event>
<event>
 4    1  0.6480558E-006  0.7004823E+03  0.7818608E-02  0.9716408E-01
          1   -1    0    0  501    0  0.00000000000E+00  0.00000000000E+00  0.27289165949E+03  0.27289165954E+03  0.50400000000E-02 0.  1.
         -1   -1    0    0    0  501 -0.00000000000E+00 -0.00000000000E+00 -0.44951482821E+03  0.44951482824E+03  0.50400000000E-02 0. -1.
    5000001    1    1    2    0    0 -0.11896567201E+03 -0.25344672603E+03 -0.17761601552E+02  0.34395428264E+03  0.19900000000E+03 0.  0.
   -5000001    1    1    2    0    0  0.11896567201E+03  0.25344672603E+03 -0.15886156717E+03  0.37845220514E+03  0.19900000000E+03 0.  0.
<mgrwt>
<rscale>  0 0.70048226E+03</rscale>
<asrwt>0</asrwt>
<pdfrwt beam="1">  1        1 0.38984523E-01 0.70048226E+03</pdfrwt>
<pdfrwt beam="2">  1       -1 0.64216404E-01 0.70048226E+03</pdfrwt>
<totfact> 0.27212200E+02</totfact>
</mgrwt>
</event>
<event>
 4    1  0.6480558E-006  0.4370570E+03  0.7818608E-02  0.1031654E+00
          1   -1    0    0  501    0  0.00000000000E+00  0.00000000000E+00  0.19598211245E+03  0.19598211252E+03  0.50400000000E-02 0. -1.
         -1   -1    0    0    0  501 -0.00000000000E+00 -0.00000000000E+00 -0.24366871877E+03  0.24366871882E+03  0.50400000000E-02 0.  1.
    5000001    1    1    2    0    0  0.28886863276E+01 -0.90126774428E+02 -0.19068524949E+02  0.21930752067E+03  0.19900000000E+03 0.  0.
   -5000001    1    1    2    0    0 -0.28886863276E+01  0.90126774428E+02 -0.28618081367E+02  0.22034331067E+03  0.19900000000E+03 0.  0.
<mgrwt>
<rscale>  0 0.43705702E+03</rscale>
<asrwt>0</asrwt>
<pdfrwt beam="1">  1        1 0.27997444E-01 0.43705702E+03</pdfrwt>
<pdfrwt beam="2">  1       -1 0.34809817E-01 0.43705702E+03</pdfrwt>
<totfact> 0.13138853E+03</totfact>
</mgrwt>
</event>
<event>
 4    1  0.6480558E-006  0.7663782E+03  0.7818608E-02  0.9610000E-01
         -1   -1    0    0    0  501 -0.00000000000E+00  0.00000000000E+00  0.17155549637E+03  0.17155549645E+03  0.50400000000E-02 0. -1.
          1   -1    0    0  501    0  0.00000000000E+00 -0.00000000000E+00 -0.85589720854E+03  0.85589720856E+03  0.50400000000E-02 0.  1.
    5000001    1    1    2    0    0 -0.24044514406E+03  0.21892724813E+03 -0.39391865971E+03  0.54819332151E+03  0.19900000000E+03 0.  0.
   -5000001    1    1    2    0    0  0.24044514406E+03 -0.21892724813E+03 -0.29042305245E+03  0.47925938350E+03  0.19900000000E+03 0.  0.
<mgrwt>
<rscale>  0 0.76637816E+03</rscale>
<asrwt>0</asrwt>
<pdfrwt beam="1">  1        1 0.12227103E+00 0.76637816E+03</pdfrwt>
<pdfrwt beam="2">  1       -1 0.24507929E-01 0.76637816E+03</pdfrwt>
<totfact> 0.32658332E+02</totfact>
</mgrwt>
</event>
<event>
 4    1  0.6480558E-006  0.7458616E+03  0.7818608E-02  0.9641865E-01
         -1   -1    0    0    0  501 -0.00000000000E+00  0.00000000000E+00  0.22825388774E+03  0.22825388780E+03  0.50400000000E-02 0. -1.
          1   -1    0    0  501    0  0.00000000000E+00 -0.00000000000E+00 -0.60930997488E+03  0.60930997490E+03  0.50400000000E-02 0.  1.
    5000001    1    1    2    0    0 -0.17821278236E+02  0.29857734807E+03 -0.78175188806E+02  0.36766614051E+03  0.19900000000E+03 0.  0.
   -5000001    1    1    2    0    0  0.17821278236E+02 -0.29857734807E+03 -0.30288089834E+03  0.46989772218E+03  0.19900000000E+03 0.  0.
<mgrwt>
<rscale>  0 0.74586157E+03</rscale>
<asrwt>0</asrwt>
<pdfrwt beam="1">  1        1 0.87044281E-01 0.74586157E+03</pdfrwt>
<pdfrwt beam="2">  1       -1 0.32607699E-01 0.74586157E+03</pdfrwt>
<totfact> 0.33127900E+02</totfact>
</mgrwt>
</event>
<event>
 4    1  0.6480558E-006  0.7427398E+03  0.7818608E-02  0.9646810E-01
          1   -1    0    0  501    0  0.00000000000E+00  0.00000000000E+00  0.19640159558E+04  0.19640159559E+04  0.50400000000E-02 0.  1.
         -1   -1    0    0    0  501 -0.00000000000E+00 -0.00000000000E+00 -0.70221217674E+02  0.70221217854E+02  0.50400000000E-02 0. -1.
    5000001    1    1    2    0    0 -0.22945451435E+03 -0.75848598246E+02  0.39973303075E+03  0.50773012505E+03  0.19900000000E+03 0.  0.
   -5000001    1    1    2    0    0  0.22945451435E+03  0.75848598246E+02  0.14940617074E+04  0.15265070487E+04  0.19900000000E+03 0.  0.
<mgrwt>
<rscale>  0 0.74273977E+03</rscale>
<asrwt>0</asrwt>
<pdfrwt beam="1">  1        1 0.28057374E+00 0.74273977E+03</pdfrwt>
<pdfrwt beam="2">  1       -1 0.10031601E-01 0.74273977E+03</pdfrwt>
<totfact> 0.25276724E+02</totfact>
</mgrwt>
</event>
<event>
 4    1  0.6480558E-006  0.5363630E+03  0.7818608E-02  0.1004701E+00
         -1   -1    0    0    0  501 -0.00000000000E+00  0.00000000000E+00  0.13394164395E+02  0.13394165343E+02  0.50400000000E-02 0.  1.
          1   -1    0    0  501    0  0.00000000000E+00 -0.00000000000E+00 -0.53696016070E+04  0.53696016070E+04  0.50400000000E-02 0. -1.
    5000001    1    1    2    0    0  0.15652964392E+03 -0.46465393819E+02 -0.34331341691E+04  0.34427709458E+04  0.19900000000E+03 0.  0.
   -5000001    1    1    2    0    0 -0.15652964392E+03  0.46465393819E+02 -0.19230732735E+04  0.19402248265E+04  0.19900000000E+03 0.  0.
<mgrwt>
<rscale>  0 0.53636305E+03</rscale>
<asrwt>0</asrwt>
<pdfrwt beam="1">  1        1 0.76708457E+00 0.53636305E+03</pdfrwt>
<pdfrwt beam="2">  1       -1 0.19134556E-02 0.53636305E+03</pdfrwt>
<totfact> 0.86898607E+00</totfact>
</mgrwt>
</event>
<event>
 4    1  0.6480558E-006  0.6695675E+03  0.7818608E-02  0.9770740E-01
          1   -1    0    0  501    0  0.00000000000E+00  0.00000000000E+00  0.38814889530E+02  0.38814889857E+02  0.50400000000E-02 0.  1.
         -1   -1    0    0    0  501 -0.00000000000E+00 -0.00000000000E+00 -0.28875555057E+04  0.28875555057E+04  0.50400000000E-02 0. -1.
    5000001    1    1    2    0    0  0.12146951054E+03 -0.21772917385E+03 -0.18683256702E+04  0.18953634598E+04  0.19900000000E+03 0.  0.
   -5000001    1    1    2    0    0 -0.12146951054E+03  0.21772917385E+03 -0.98041494600E+03  0.10310069357E+04  0.19900000000E+03 0.  0.
<mgrwt>
<rscale>  0 0.66956747E+03</rscale>
<asrwt>0</asrwt>
<pdfrwt beam="1">  1        1 0.55449861E-02 0.66956747E+03</pdfrwt>
<pdfrwt beam="2">  1       -1 0.41250779E+00 0.66956747E+03</pdfrwt>
<totfact> 0.96691993E+00</totfact>
</mgrwt>
</event>
<event>
 4    1  0.6480558E-006  0.4130102E+03  0.7818608E-02  0.1039366E+00
          1   -1    0    0  501    0  0.00000000000E+00  0.00000000000E+00  0.18696284744E+04  0.18696284744E+04  0.50400000000E-02 0.  1.
         -1   -1    0    0    0  501 -0.00000000000E+00 -0.00000000000E+00 -0.22808999364E+02  0.22808999921E+02  0.50400000000E-02 0. -1.
    5000001    1    1    2    0    0  0.21264603045E+02  0.48175764614E+02  0.99873796398E+03  0.10197311451E+04  0.19900000000E+03 0.  0.
   -5000001    1    1    2    0    0 -0.21264603045E+02 -0.48175764614E+02  0.84808151104E+03  0.87270632918E+03  0.19900000000E+03 0.  0.
<mgrwt>
<rscale>  0 0.41301019E+03</rscale>
<asrwt>0</asrwt>
<pdfrwt beam="1">  1        1 0.26708982E+00 0.41301019E+03</pdfrwt>
<pdfrwt beam="2">  1       -1 0.32584281E-02 0.41301019E+03</pdfrwt>
<totfact> 0.16617859E+03</totfact>
</mgrwt>
</event>
<event>
 4    1  0.6480558E-006  0.4755475E+03  0.7818608E-02  0.1020366E+00
         -1   -1    0    0    0  501 -0.00000000000E+00  0.00000000000E+00  0.69219263342E+02  0.69219263526E+02  0.50400000000E-02 0. -1.
          1   -1    0    0  501    0  0.00000000000E+00 -0.00000000000E+00 -0.81677208556E+03  0.81677208558E+03  0.50400000000E-02 0.  1.
    5000001    1    1    2    0    0 -0.65527277783E+01  0.76476617250E+02 -0.17798490034E+03  0.27779711297E+03  0.19900000000E+03 0.  0.
   -5000001    1    1    2    0    0  0.65527277783E+01 -0.76476617250E+02 -0.56956792188E+03  0.60819423613E+03  0.19900000000E+03 0.  0.
<mgrwt>
<rscale>  0 0.47554753E+03</rscale>
<asrwt>0</asrwt>
<pdfrwt beam="1">  1        1 0.11668172E+00 0.47554753E+03</pdfrwt>
<pdfrwt beam="2">  1       -1 0.98884667E-02 0.47554753E+03</pdfrwt>
<totfact> 0.15533177E+03</totfact>
</mgrwt>
</event>
<event>
 4    1  0.6480558E-006  0.4477536E+03  0.7818608E-02  0.1028394E+00
          1   -1    0    0  501    0  0.00000000000E+00  0.00000000000E+00  0.16828034524E+03  0.16828034532E+03  0.50400000000E-02 0.  1.
         -1   -1    0    0    0  501 -0.00000000000E+00 -0.00000000000E+00 -0.29784120392E+03  0.29784120396E+03  0.50400000000E-02 0. -1.
    5000001    1    1    2    0    0  0.73862812128E+02 -0.47810510281E+02 -0.11965189997E+03  0.24831257937E+03  0.19900000000E+03 0.  0.
   -5000001    1    1    2    0    0 -0.73862812128E+02  0.47810510281E+02 -0.99089587101E+01  0.21780896991E+03  0.19900000000E+03 0.  0.
<mgrwt>
<rscale>  0 0.44775360E+03</rscale>
<asrwt>0</asrwt>
<pdfrwt beam="1">  1        1 0.24040050E-01 0.44775360E+03</pdfrwt>
<pdfrwt beam="2">  1       -1 0.42548743E-01 0.44775360E+03</pdfrwt>
<totfact> 0.11173423E+03</totfact>
</mgrwt>
</event>
<event>
 4    1  0.6480558E-006  0.7686218E+03  0.7818608E-02  0.9606580E-01
          1   -1    0    0  501    0  0.00000000000E+00  0.00000000000E+00  0.43144633101E+03  0.43144633103E+03  0.50400000000E-02 0.  1.
         -1   -1    0    0    0  501 -0.00000000000E+00 -0.00000000000E+00 -0.34232502399E+03  0.34232502403E+03  0.50400000000E-02 0. -1.
    5000001    1    1    2    0    0 -0.13557231532E+02  0.26755370704E+03  0.23642898283E+03  0.40898465570E+03  0.19900000000E+03 0.  0.
   -5000001    1    1    2    0    0  0.13557231532E+02 -0.26755370704E+03 -0.14730767581E+03  0.36478669936E+03  0.19900000000E+03 0.  0.
<mgrwt>
<rscale>  0 0.76862182E+03</rscale>
<asrwt>0</asrwt>
<pdfrwt beam="1">  1        1 0.61635190E-01 0.76862182E+03</pdfrwt>
<pdfrwt beam="2">  1       -1 0.48903575E-01 0.76862182E+03</pdfrwt>
<totfact> 0.25346279E+02</totfact>
</mgrwt>
</event>
<event>
 4    1  0.6480558E-006  0.6230694E+03  0.7818608E-02  0.9858667E-01
         -1   -1    0    0    0  501 -0.00000000000E+00  0.00000000000E+00  0.17117436234E+03  0.17117436242E+03  0.50400000000E-02 0.  1.
          1   -1    0    0  501    0  0.00000000000E+00 -0.00000000000E+00 -0.56698835722E+03  0.56698835724E+03  0.50400000000E-02 0. -1.
    5000001    1    1    2    0    0  0.23809683151E+03  0.10047421825E+00 -0.16518728873E+03  0.35153655803E+03  0.19900000000E+03 0.  0.
   -5000001    1    1    2    0    0 -0.23809683151E+03 -0.10047421825E+00 -0.23062670614E+03  0.38662616163E+03  0.19900000000E+03 0.  0.
<mgrwt>
<rscale>  0 0.62306940E+03</rscale>
<asrwt>0</asrwt>
<pdfrwt beam="1">  1        1 0.80998336E-01 0.62306940E+03</pdfrwt>
<pdfrwt beam="2">  1       -1 0.24453481E-01 0.62306940E+03</pdfrwt>
<totfact> 0.60480458E+02</totfact>
</mgrwt>
</event>
<event>
 4    1  0.6480558E-006  0.4668864E+03  0.7818608E-02  0.1022803E+00
         -1   -1    0    0    0  501 -0.00000000000E+00  0.00000000000E+00  0.68558631585E+03  0.68558631587E+03  0.50400000000E-02 0. -1.
          1   -1    0    0  501    0  0.00000000000E+00 -0.00000000000E+00 -0.79487785510E+02  0.79487785670E+02  0.50400000000E-02 0.  1.
    5000001    1    1    2    0    0 -0.10379814530E+02  0.12152411401E+03  0.29592768017E+03  0.37689526758E+03  0.19900000000E+03 0.  0.
   -5000001    1    1    2    0    0  0.10379814530E+02 -0.12152411401E+03  0.31017085017E+03  0.38817883395E+03  0.19900000000E+03 0.  0.
<mgrwt>
<rscale>  0 0.46688644E+03</rscale>
<asrwt>0</asrwt>
<pdfrwt beam="1">  1        1 0.11355398E-01 0.46688644E+03</pdfrwt>
<pdfrwt beam="2">  1       -1 0.97940899E-01 0.46688644E+03</pdfrwt>
<totfact> 0.57064978E+02</totfact>
</mgrwt>
</event>
<event>
 4    1  0.6480558E-006  0.8664509E+03  0.7818608E-02  0.9468519E-01
         -1   -1    0    0    0  501 -0.00000000000E+00  0.00000000000E+00  0.17765759664E+03  0.17765759671E+03  0.50400000000E-02 0.  1.
          1   -1    0    0  501    0  0.00000000000E+00 -0.00000000000E+00 -0.10564382426E+04  0.10564382427E+04  0.50400000000E-02 0. -1.
    5000001    1    1    2    0    0 -0.78908928050E+01 -0.30757882190E+03 -0.76857663581E+03  0.85145642459E+03  0.19900000000E+03 0.  0.
   -5000001    1    1    2    0    0  0.78908928050E+01  0.30757882190E+03 -0.11020401020E+03  0.38263941477E+03  0.19900000000E+03 0.  0.
<mgrwt>
<rscale>  0 0.86645087E+03</rscale>
<asrwt>0</asrwt>
<pdfrwt beam="1">  1        1 0.15091974E+00 0.86645087E+03</pdfrwt>
<pdfrwt beam="2">  1       -1 0.25379657E-01 0.86645087E+03</pdfrwt>
<totfact> 0.21507655E+02</totfact>
</mgrwt>
</event>
<event>
 4    1  0.6480558E-006  0.5639760E+03  0.7818608E-02  0.9983098E-01
         -1   -1    0    0    0  501 -0.00000000000E+00  0.00000000000E+00  0.87107571958E+02  0.87107572104E+02  0.50400000000E-02 0. -1.
          1   -1    0    0  501    0  0.00000000000E+00 -0.00000000000E+00 -0.91286244587E+03  0.91286244589E+03  0.50400000000E-02 0.  1.
    5000001    1    1    2    0    0  0.19649474623E+03 -0.20537789481E+02 -0.36015290797E+03  0.45644616683E+03  0.19900000000E+03 0.  0.
   -5000001    1    1    2    0    0 -0.19649474623E+03  0.20537789481E+02 -0.46560196594E+03  0.54352385116E+03  0.19900000000E+03 0.  0.
<mgrwt>
<rscale>  0 0.56397600E+03</rscale>
<asrwt>0</asrwt>
<pdfrwt beam="1">  1        1 0.13040892E+00 0.56397600E+03</pdfrwt>
<pdfrwt beam="2">  1       -1 0.12443939E-01 0.56397600E+03</pdfrwt>
<totfact> 0.90445693E+02</totfact>
</mgrwt>
</event>
<event>
 4    1  0.6480558E-006  0.2312414E+04  0.7818608E-02  0.8473043E-01
         -1   -1    0    0    0  501 -0.00000000000E+00  0.00000000000E+00  0.82887756337E+03  0.82887756339E+03  0.50400000000E-02 0.  1.
          1   -1    0    0  501    0  0.00000000000E+00 -0.00000000000E+00 -0.16128009480E+04  0.16128009480E+04  0.50400000000E-02 0. -1.
    5000001    1    1    2    0    0  0.28258423818E+03 -0.10995629016E+04 -0.48828094705E+03  0.12517634399E+04  0.19900000000E+03 0.  0.
   -5000001    1    1    2    0    0 -0.28258423818E+03  0.10995629016E+04 -0.29564243755E+03  0.11899150714E+04  0.19900000000E+03 0.  0.
<mgrwt>
<rscale>  0 0.23124139E+04</rscale>
<asrwt>0</asrwt>
<pdfrwt beam="1">  1        1 0.23040013E+00 0.23124139E+04</pdfrwt>
<pdfrwt beam="2">  1       -1 0.11841108E+00 0.23124139E+04</pdfrwt>
<totfact> 0.38133169E+00</totfact>
</mgrwt>
</event>
<event>
 4    1  0.6480558E-006  0.4574963E+03  0.7818608E-02  0.1025510E+00
          1   -1    0    0  501    0  0.00000000000E+00  0.00000000000E+00  0.77809348052E+03  0.77809348054E+03  0.50400000000E-02 0.  1.
         -1   -1    0    0    0  501 -0.00000000000E+00 -0.00000000000E+00 -0.67248638139E+02  0.67248638328E+02  0.50400000000E-02 0. -1.
    5000001    1    1    2    0    0  0.49793168148E+02 -0.99129726863E+02  0.39322992682E+03  0.45446324129E+03  0.19900000000E+03 0.  0.
   -5000001    1    1    2    0    0 -0.49793168148E+02  0.99129726863E+02  0.31761491557E+03  0.39087887757E+03  0.19900000000E+03 0.  0.
<mgrwt>
<rscale>  0 0.45749635E+03</rscale>
<asrwt>0</asrwt>
<pdfrwt beam="1">  1        1 0.11115620E+00 0.45749635E+03</pdfrwt>
<pdfrwt beam="2">  1       -1 0.96069489E-02 0.45749635E+03</pdfrwt>
<totfact> 0.17497112E+03</totfact>
</mgrwt>
</event>
<event>
 4    1  0.6480558E-006  0.7107155E+03  0.7818608E-02  0.9699081E-01
          1   -1    0    0  501    0  0.00000000000E+00  0.00000000000E+00  0.85751399194E+03  0.85751399196E+03  0.50400000000E-02 0.  1.
         -1   -1    0    0    0  501 -0.00000000000E+00 -0.00000000000E+00 -0.14726188484E+03  0.14726188492E+03  0.50400000000E-02 0. -1.
    5000001    1    1    2    0    0  0.14966454825E+03  0.24867322130E+03  0.28528783689E+03  0.45302096847E+03  0.19900000000E+03 0.  0.
   -5000001    1    1    2    0    0 -0.14966454825E+03 -0.24867322130E+03  0.42496427021E+03  0.55175490841E+03  0.19900000000E+03 0.  0.
<mgrwt>
<rscale>  0 0.71071549E+03</rscale>
<asrwt>0</asrwt>
<pdfrwt beam="1">  1        1 0.12250200E+00 0.71071549E+03</pdfrwt>
<pdfrwt beam="2">  1       -1 0.21037412E-01 0.71071549E+03</pdfrwt>
<totfact> 0.42230151E+02</totfact>
</mgrwt>
</event>
<event>
 4    1  0.6480558E-006  0.6389285E+03  0.7818608E-02  0.9827779E-01
         -1   -1    0    0    0  501 -0.00000000000E+00  0.00000000000E+00  0.66617635958E+02  0.66617636148E+02  0.50400000000E-02 0.  1.
          1   -1    0    0  501    0  0.00000000000E+00 -0.00000000000E+00 -0.15319879043E+04  0.15319879043E+04  0.50400000000E-02 0. -1.
    5000001    1    1    2    0    0 -0.24093245992E+03 -0.64855770961E+02 -0.69715206518E+03  0.76673119361E+03  0.19900000000E+03 0.  0.
   -5000001    1    1    2    0    0  0.24093245992E+03  0.64855770961E+02 -0.76821820314E+03  0.83187434683E+03  0.19900000000E+03 0.  0.
<mgrwt>
<rscale>  0 0.63892852E+03</rscale>
<asrwt>0</asrwt>
<pdfrwt beam="1">  1        1 0.21885539E+00 0.63892852E+03</pdfrwt>
<pdfrwt beam="2">  1       -1 0.95168061E-02 0.63892852E+03</pdfrwt>
<totfact> 0.51666273E+02</totfact>
</mgrwt>
</event>
<event>
 4    1  0.6480558E-006  0.7132620E+03  0.7818608E-02  0.9694817E-01
         -1   -1    0    0    0  501 -0.00000000000E+00  0.00000000000E+00  0.88556562800E+03  0.88556562801E+03  0.50400000000E-02 0.  1.
          1   -1    0    0  501    0  0.00000000000E+00 -0.00000000000E+00 -0.14362083209E+03  0.14362083218E+03  0.50400000000E-02 0. -1.
    5000001    1    1    2    0    0  0.26104060968E+03 -0.12715735907E+03  0.28841619260E+03  0.45507811859E+03  0.19900000000E+03 0.  0.
   -5000001    1    1    2    0    0 -0.26104060968E+03  0.12715735907E+03  0.45352860332E+03  0.57410834160E+03  0.19900000000E+03 0.  0.
<mgrwt>
<rscale>  0 0.71326201E+03</rscale>
<asrwt>0</asrwt>
<pdfrwt beam="1">  1        1 0.20517262E-01 0.71326201E+03</pdfrwt>
<pdfrwt beam="2">  1       -1 0.12650938E+00 0.71326201E+03</pdfrwt>
<totfact> 0.13994038E+02</totfact>
</mgrwt>
</event>
<event>
 4    1  0.6480558E-006  0.1998889E+04  0.7818608E-02  0.8607140E-01
          1   -1    0    0  501    0  0.00000000000E+00  0.00000000000E+00  0.42385947259E+04  0.42385947260E+04  0.50400000000E-02 0.  1.
         -1   -1    0    0    0  501 -0.00000000000E+00 -0.00000000000E+00 -0.23566520973E+03  0.23566520979E+03  0.50400000000E-02 0. -1.
    5000001    1    1    2    0    0  0.93165104295E+03  0.27114392041E+03  0.17028652145E+04  0.19699856929E+04  0.19900000000E+03 0.  0.
   -5000001    1    1    2    0    0 -0.93165104295E+03 -0.27114392041E+03  0.23000643017E+04  0.25042742429E+04  0.19900000000E+03 0.  0.
<mgrwt>
<rscale>  0 0.19988890E+04</rscale>
<asrwt>0</asrwt>
<pdfrwt beam="1">  1        1 0.60551352E+00 0.19988890E+04</pdfrwt>
<pdfrwt beam="2">  1       -1 0.33666459E-01 0.19988890E+04</pdfrwt>
<totfact> 0.85116715E-01</totfact>
</mgrwt>
</event>
<event>
 4    1  0.6480558E-006  0.4352912E+03  0.7818608E-02  0.1032201E+00
          1   -1    0    0  501    0  0.00000000000E+00  0.00000000000E+00  0.97669869228E+03  0.97669869230E+03  0.50400000000E-02 0.  1.
         -1   -1    0    0    0  501 -0.00000000000E+00 -0.00000000000E+00 -0.48499706100E+02  0.48499706362E+02  0.50400000000E-02 0. -1.
    5000001    1    1    2    0    0  0.87106236476E+02 -0.12401826109E+02  0.45179417022E+03  0.50145814778E+03  0.19900000000E+03 0.  0.
   -5000001    1    1    2    0    0 -0.87106236476E+02  0.12401826109E+02  0.47640481596E+03  0.52374025088E+03  0.19900000000E+03 0.  0.
<mgrwt>
<rscale>  0 0.43529117E+03</rscale>
<asrwt>0</asrwt>
<pdfrwt beam="1">  1        1 0.13952837E+00 0.43529117E+03</pdfrwt>
<pdfrwt beam="2">  1       -1 0.69285302E-02 0.43529117E+03</pdfrwt>
<totfact> 0.20281039E+03</totfact>
</mgrwt>
</event>
<event>
 4    1  0.6480558E-006  0.6576038E+03  0.7818608E-02  0.9792615E-01
          1   -1    0    0  501    0  0.00000000000E+00  0.00000000000E+00  0.29479108422E+04  0.29479108422E+04  0.50400000000E-02 0.  1.
         -1   -1    0    0    0  501 -0.00000000000E+00 -0.00000000000E+00 -0.36673664283E+02  0.36673664629E+02  0.50400000000E-02 0. -1.
    5000001    1    1    2    0    0  0.22677010157E+03 -0.13060282538E+03  0.14795984745E+04  0.15156828240E+04  0.19900000000E+03 0.  0.
   -5000001    1    1    2    0    0 -0.22677010157E+03  0.13060282538E+03  0.14316387034E+04  0.14689016829E+04  0.19900000000E+03 0.  0.
<mgrwt>
<rscale>  0 0.65760381E+03</rscale>
<asrwt>0</asrwt>
<pdfrwt beam="1">  1        1 0.42112995E+00 0.65760381E+03</pdfrwt>
<pdfrwt beam="2">  1       -1 0.52390970E-02 0.65760381E+03</pdfrwt>
<totfact> 0.16918019E+02</totfact>
</mgrwt>
</event>
<event>
 4    1  0.6480558E-006  0.8919599E+03  0.7818608E-02  0.9435688E-01
         -1   -1    0    0    0  501 -0.00000000000E+00  0.00000000000E+00  0.16555295814E+04  0.16555295814E+04  0.50400000000E-02 0. -1.
          1   -1    0    0  501    0  0.00000000000E+00 -0.00000000000E+00 -0.12014169187E+03  0.12014169197E+03  0.50400000000E-02 0.  1.
    5000001    1    1    2    0    0  0.87643911249E+02 -0.25344079966E+03  0.13561740355E+04  0.13966827517E+04  0.19900000000E+03 0.  0.
   -5000001    1    1    2    0    0 -0.87643911249E+02  0.25344079966E+03  0.17921385394E+03  0.37898852167E+03  0.19900000000E+03 0.  0.
<mgrwt>
<rscale>  0 0.89195992E+03</rscale>
<asrwt>0</asrwt>
<pdfrwt beam="1">  1        1 0.17163100E-01 0.89195992E+03</pdfrwt>
<pdfrwt beam="2">  1       -1 0.23650420E+00 0.89195992E+03</pdfrwt>
<totfact> 0.27973308E+01</totfact>
</mgrwt>
</event>
<event>
 4    1  0.6480558E-006  0.4372819E+03  0.7818608E-02  0.1031584E+00
         -1   -1    0    0    0  501 -0.00000000000E+00  0.00000000000E+00  0.57988166624E+02  0.57988166843E+02  0.50400000000E-02 0. -1.
          1   -1    0    0  501    0  0.00000000000E+00 -0.00000000000E+00 -0.82437274272E+03  0.82437274273E+03  0.50400000000E-02 0.  1.
    5000001    1    1    2    0    0 -0.79480625170E+02  0.38996531368E+02 -0.42174103553E+03  0.47466240665E+03  0.19900000000E+03 0.  0.
   -5000001    1    1    2    0    0  0.79480625170E+02 -0.38996531368E+02 -0.34464354057E+03  0.40769850293E+03  0.19900000000E+03 0.  0.
<mgrwt>
<rscale>  0 0.43728190E+03</rscale>
<asrwt>0</asrwt>
<pdfrwt beam="1">  1        1 0.11776753E+00 0.43728190E+03</pdfrwt>
<pdfrwt beam="2">  1       -1 0.82840243E-02 0.43728190E+03</pdfrwt>
<totfact> 0.20182223E+03</totfact>
</mgrwt>
</event>
<event>
 4    1  0.6480558E-006  0.9473517E+03  0.7818608E-02  0.9368251E-01
          1   -1    0    0  501    0  0.00000000000E+00  0.00000000000E+00  0.52320624688E+03  0.52320624690E+03  0.50400000000E-02 0.  1.
         -1   -1    0    0    0  501 -0.00000000000E+00 -0.00000000000E+00 -0.42883437941E+03  0.42883437944E+03  0.50400000000E-02 0. -1.
    5000001    1    1    2    0    0 -0.41195695344E+03  0.11150511316E+03 -0.43112747837E+01  0.47091560692E+03  0.19900000000E+03 0.  0.
   -5000001    1    1    2    0    0  0.41195695344E+03 -0.11150511316E+03  0.98683142250E+02  0.48112501942E+03  0.19900000000E+03 0.  0.
<mgrwt>
<rscale>  0 0.94735173E+03</rscale>
<asrwt>0</asrwt>
<pdfrwt beam="1">  1        1 0.74743750E-01 0.94735173E+03</pdfrwt>
<pdfrwt beam="2">  1       -1 0.61262054E-01 0.94735173E+03</pdfrwt>
<totfact> 0.12532664E+02</totfact>
</mgrwt>
</event>
<event>
 4    1  0.6480558E-006  0.6428050E+03  0.7818608E-02  0.9820374E-01
          1   -1    0    0  501    0  0.00000000000E+00  0.00000000000E+00  0.19568702572E+03  0.19568702578E+03  0.50400000000E-02 0.  1.
         -1   -1    0    0    0  501 -0.00000000000E+00 -0.00000000000E+00 -0.52788160551E+03  0.52788160553E+03  0.50400000000E-02 0. -1.
    5000001    1    1    2    0    0 -0.18968423472E+03  0.13262529289E+03 -0.27938526868E+03  0.41379548761E+03  0.19900000000E+03 0.  0.
   -5000001    1    1    2    0    0  0.18968423472E+03 -0.13262529289E+03 -0.52809311113E+02  0.30977314370E+03  0.19900000000E+03 0.  0.
<mgrwt>
<rscale>  0 0.64280504E+03</rscale>
<asrwt>0</asrwt>
<pdfrwt beam="1">  1        1 0.27955289E-01 0.64280504E+03</pdfrwt>
<pdfrwt beam="2">  1       -1 0.75411658E-01 0.64280504E+03</pdfrwt>
<totfact> 0.30211392E+02</totfact>
</mgrwt>
</event>
<event>
 4    1  0.6480558E-006  0.5272973E+03  0.7818608E-02  0.1006890E+00
         -1   -1    0    0    0  501 -0.00000000000E+00  0.00000000000E+00  0.37319065301E+02  0.37319065641E+02  0.50400000000E-02 0. -1.
          1   -1    0    0  501    0  0.00000000000E+00 -0.00000000000E+00 -0.18626028974E+04  0.18626028974E+04  0.50400000000E-02 0.  1.
    5000001    1    1    2    0    0  0.13715053374E+03  0.88729429933E+02 -0.11173055228E+04  0.11465844112E+04  0.19900000000E+03 0.  0.
   -5000001    1    1    2    0    0 -0.13715053374E+03 -0.88729429933E+02 -0.70797830926E+03  0.75333755184E+03  0.19900000000E+03 0.  0.
<mgrwt>
<rscale>  0 0.52729726E+03</rscale>
<asrwt>0</asrwt>
<pdfrwt beam="1">  1        1 0.26608607E+00 0.52729726E+03</pdfrwt>
<pdfrwt beam="2">  1       -1 0.53312963E-02 0.52729726E+03</pdfrwt>
<totfact> 0.79249596E+02</totfact>
</mgrwt>
</event>
<event>
 4    1  0.6480558E-006  0.5836831E+03  0.7818608E-02  0.9939849E-01
          1   -1    0    0  501    0  0.00000000000E+00  0.00000000000E+00  0.11470699548E+04  0.11470699548E+04  0.50400000000E-02 0.  1.
         -1   -1    0    0    0  501 -0.00000000000E+00 -0.00000000000E+00 -0.74251348120E+02  0.74251348291E+02  0.50400000000E-02 0. -1.
    5000001    1    1    2    0    0 -0.12279052186E+02  0.18369729405E+03  0.31031916305E+03  0.41206122594E+03  0.19900000000E+03 0.  0.
   -5000001    1    1    2    0    0  0.12279052186E+02 -0.18369729405E+03  0.76249944364E+03  0.80926007718E+03  0.19900000000E+03 0.  0.
<mgrwt>
<rscale>  0 0.58368310E+03</rscale>
<asrwt>0</asrwt>
<pdfrwt beam="1">  1        1 0.16386714E+00 0.58368310E+03</pdfrwt>
<pdfrwt beam="2">  1       -1 0.10607335E-01 0.58368310E+03</pdfrwt>
<totfact> 0.78569591E+02</totfact>
</mgrwt>
</event>
<event>
 4    1  0.6480558E-006  0.5449206E+03  0.7818608E-02  0.1002676E+00
          1   -1    0    0  501    0  0.00000000000E+00  0.00000000000E+00  0.67880216308E+02  0.67880216495E+02  0.50400000000E-02 0.  1.
         -1   -1    0    0    0  501 -0.00000000000E+00 -0.00000000000E+00 -0.10936119946E+04  0.10936119946E+04  0.50400000000E-02 0. -1.
    5000001    1    1    2    0    0  0.15818730499E+03  0.97634264771E+02 -0.49404763708E+03  0.56412741542E+03  0.19900000000E+03 0.  0.
   -5000001    1    1    2    0    0 -0.15818730499E+03 -0.97634264771E+02 -0.53168414122E+03  0.59736479570E+03  0.19900000000E+03 0.  0.
<mgrwt>
<rscale>  0 0.54492061E+03</rscale>
<asrwt>0</asrwt>
<pdfrwt beam="1">  1        1 0.96971744E-02 0.54492061E+03</pdfrwt>
<pdfrwt beam="2">  1       -1 0.15623027E+00 0.54492061E+03</pdfrwt>
<totfact> 0.22409711E+02</totfact>
</mgrwt>
</event>
<event>
 4    1  0.6480558E-006  0.6666817E+03  0.7818608E-02  0.9775971E-01
          1   -1    0    0  501    0  0.00000000000E+00  0.00000000000E+00  0.58481227504E+03  0.58481227507E+03  0.50400000000E-02 0. -1.
         -1   -1    0    0    0  501 -0.00000000000E+00 -0.00000000000E+00 -0.19000304103E+03  0.19000304110E+03  0.50400000000E-02 0.  1.
    5000001    1    1    2    0    0  0.34559572914E+02  0.23893886298E+03  0.33107729298E+03  0.45552093063E+03  0.19900000000E+03 0.  0.
   -5000001    1    1    2    0    0 -0.34559572914E+02 -0.23893886298E+03  0.63731941037E+02  0.31929438553E+03  0.19900000000E+03 0.  0.
<mgrwt>
<rscale>  0 0.66668167E+03</rscale>
<asrwt>0</asrwt>
<pdfrwt beam="1">  1        1 0.83544610E-01 0.66668167E+03</pdfrwt>
<pdfrwt beam="2">  1       -1 0.27143292E-01 0.66668167E+03</pdfrwt>
<totfact> 0.48425547E+02</totfact>
</mgrwt>
</event>
<event>
 4    1  0.6480558E-006  0.6326048E+03  0.7818608E-02  0.9839979E-01
         -1   -1    0    0    0  501 -0.00000000000E+00  0.00000000000E+00  0.49783340337E+03  0.49783340340E+03  0.50400000000E-02 0. -1.
          1   -1    0    0  501    0  0.00000000000E+00 -0.00000000000E+00 -0.20096525873E+03  0.20096525880E+03  0.50400000000E-02 0.  1.
    5000001    1    1    2    0    0 -0.19129884951E+03 -0.87057660052E+02  0.28934320104E+03  0.40926125395E+03  0.19900000000E+03 0.  0.
   -5000001    1    1    2    0    0  0.19129884951E+03  0.87057660052E+02  0.75249436010E+01  0.28953740824E+03  0.19900000000E+03 0.  0.
<mgrwt>
<rscale>  0 0.63260483E+03</rscale>
<asrwt>0</asrwt>
<pdfrwt beam="1">  1        1 0.28709323E-01 0.63260483E+03</pdfrwt>
<pdfrwt beam="2">  1       -1 0.71119057E-01 0.63260483E+03</pdfrwt>
<totfact> 0.32950912E+02</totfact>
</mgrwt>
</event>
<event>
 4    1  0.6480558E-006  0.5479832E+03  0.7818608E-02  0.1001962E+00
         -1   -1    0    0    0  501 -0.00000000000E+00  0.00000000000E+00  0.42930989299E+02  0.42930989595E+02  0.50400000000E-02 0. -1.
          1   -1    0    0  501    0  0.00000000000E+00 -0.00000000000E+00 -0.17486528299E+04  0.17486528299E+04  0.50400000000E-02 0.  1.
    5000001    1    1    2    0    0 -0.16145295123E+03 -0.86416274758E+02 -0.99669908322E+03  0.10327366027E+04  0.19900000000E+03 0.  0.
   -5000001    1    1    2    0    0  0.16145295123E+03  0.86416274758E+02 -0.70902275736E+03  0.75884721681E+03  0.19900000000E+03 0.  0.
<mgrwt>
<rscale>  0 0.54798320E+03</rscale>
<asrwt>0</asrwt>
<pdfrwt beam="1">  1        1 0.24980750E+00 0.54798320E+03</pdfrwt>
<pdfrwt beam="2">  1       -1 0.61329996E-02 0.54798320E+03</pdfrwt>
<totfact> 0.75133413E+02</totfact>
</mgrwt>
</event>
<event>
 4    1  0.6480558E-006  0.5903639E+03  0.7818608E-02  0.9925602E-01
         -1   -1    0    0    0  501 -0.00000000000E+00  0.00000000000E+00  0.74066983590E+02  0.74066983761E+02  0.50400000000E-02 0. -1.
          1   -1    0    0  501    0  0.00000000000E+00 -0.00000000000E+00 -0.11763998488E+04  0.11763998488E+04  0.50400000000E-02 0.  1.
    5000001    1    1    2    0    0  0.17531991921E+03 -0.11285337253E+03 -0.68610355258E+03  0.74418548939E+03  0.19900000000E+03 0.  0.
   -5000001    1    1    2    0    0 -0.17531991921E+03  0.11285337253E+03 -0.41622931266E+03  0.50628134321E+03  0.19900000000E+03 0.  0.
<mgrwt>
<rscale>  0 0.59036392E+03</rscale>
<asrwt>0</asrwt>
<pdfrwt beam="1">  1        1 0.16805711E+00 0.59036392E+03</pdfrwt>
<pdfrwt beam="2">  1       -1 0.10580998E-01 0.59036392E+03</pdfrwt>
<totfact> 0.75253542E+02</totfact>
</mgrwt>
</event>
<event>
 4    1  0.6480558E-006  0.1961611E+04  0.7818608E-02  0.8624782E-01
          1   -1    0    0  501    0  0.00000000000E+00  0.00000000000E+00  0.51189619388E+03  0.51189619390E+03  0.50400000000E-02 0.  1.
         -1   -1    0    0    0  501 -0.00000000000E+00 -0.00000000000E+00 -0.18792479307E+04  0.18792479307E+04  0.50400000000E-02 0. -1.
    5000001    1    1    2    0    0  0.84225024931E+03 -0.29459320539E+03 -0.25062731204E+03  0.94793759745E+03  0.19900000000E+03 0.  0.
   -5000001    1    1    2    0    0 -0.84225024931E+03  0.29459320539E+03 -0.11167244248E+04  0.14432065272E+04  0.19900000000E+03 0.  0.
<mgrwt>
<rscale>  0 0.19616114E+04</rscale>
<asrwt>0</asrwt>
<pdfrwt beam="1">  1        1 0.73128029E-01 0.19616114E+04</pdfrwt>
<pdfrwt beam="2">  1       -1 0.26846399E+00 0.19616114E+04</pdfrwt>
<totfact> 0.23472848E+00</totfact>
</mgrwt>
</event>
<event>
 4    1  0.6480558E-006  0.4937485E+03  0.7818608E-02  0.1015424E+00
         -1   -1    0    0    0  501 -0.00000000000E+00  0.00000000000E+00  0.12555593050E+03  0.12555593060E+03  0.50400000000E-02 0. -1.
          1   -1    0    0  501    0  0.00000000000E+00 -0.00000000000E+00 -0.48541630951E+03  0.48541630954E+03  0.50400000000E-02 0.  1.
    5000001    1    1    2    0    0 -0.87035106603E+02 -0.86707235408E+02 -0.82083200263E+02  0.24785460702E+03  0.19900000000E+03 0.  0.
   -5000001    1    1    2    0    0  0.87035106603E+02  0.86707235408E+02 -0.27777717875E+03  0.36311763312E+03  0.19900000000E+03 0.  0.
<mgrwt>
<rscale>  0 0.49374850E+03</rscale>
<asrwt>0</asrwt>
<pdfrwt beam="1">  1        1 0.69345186E-01 0.49374850E+03</pdfrwt>
<pdfrwt beam="2">  1       -1 0.17936562E-01 0.49374850E+03</pdfrwt>
<totfact> 0.12530468E+03</totfact>
</mgrwt>
</event>
<event>
 4    1  0.6480558E-006  0.6011276E+03  0.7818608E-02  0.9903069E-01
          1   -1    0    0  501    0  0.00000000000E+00  0.00000000000E+00  0.30165970903E+03  0.30165970907E+03  0.50400000000E-02 0. -1.
         -1   -1    0    0    0  501 -0.00000000000E+00 -0.00000000000E+00 -0.29947189470E+03  0.29947189474E+03  0.50400000000E-02 0.  1.
    5000001    1    1    2    0    0  0.12434700778E+03 -0.18651347548E+03 -0.21000350664E+02  0.30048539001E+03  0.19900000000E+03 0.  0.
   -5000001    1    1    2    0    0 -0.12434700778E+03  0.18651347548E+03  0.23188164992E+02  0.30064621380E+03  0.19900000000E+03 0.  0.
<mgrwt>
<rscale>  0 0.60112762E+03</rscale>
<asrwt>0</asrwt>
<pdfrwt beam="1">  1        1 0.43094244E-01 0.60112762E+03</pdfrwt>
<pdfrwt beam="2">  1       -1 0.42781699E-01 0.60112762E+03</pdfrwt>
<totfact> 0.52104966E+02</totfact>
</mgrwt>
</event>
<event>
 4    1  0.6480558E-006  0.8402140E+03  0.7818608E-02  0.9503566E-01
         -1   -1    0    0    0  501 -0.00000000000E+00  0.00000000000E+00  0.34884364864E+03  0.34884364868E+03  0.50400000000E-02 0. -1.
          1   -1    0    0  501    0  0.00000000000E+00 -0.00000000000E+00 -0.50592830585E+03  0.50592830588E+03  0.50400000000E-02 0.  1.
    5000001    1    1    2    0    0 -0.28073767554E+03  0.78397616598E+02 -0.31037014656E+03  0.46998984738E+03  0.19900000000E+03 0.  0.
   -5000001    1    1    2    0    0  0.28073767554E+03 -0.78397616598E+02  0.15328548935E+03  0.38478210718E+03  0.19900000000E+03 0.  0.
<mgrwt>
<rscale>  0 0.84021396E+03</rscale>
<asrwt>0</asrwt>
<pdfrwt beam="1">  1        1 0.72275473E-01 0.84021396E+03</pdfrwt>
<pdfrwt beam="2">  1       -1 0.49834807E-01 0.84021396E+03</pdfrwt>
<totfact> 0.19687598E+02</totfact>
</mgrwt>
</event>
<event>
 4    1  0.6480558E-006  0.6278623E+03  0.7818608E-02  0.9849229E-01
         -1   -1    0    0    0  501 -0.00000000000E+00  0.00000000000E+00  0.67931310218E+02  0.67931310405E+02  0.50400000000E-02 0. -1.
          1   -1    0    0  501    0  0.00000000000E+00 -0.00000000000E+00 -0.14507710318E+04  0.14507710318E+04  0.50400000000E-02 0.  1.
    5000001    1    1    2    0    0 -0.69935403309E+02 -0.21163425606E+03 -0.92433047567E+03  0.97142567767E+03  0.19900000000E+03 0.  0.
   -5000001    1    1    2    0    0  0.69935403309E+02  0.21163425606E+03 -0.45850924590E+03  0.54727666454E+03  0.19900000000E+03 0.  0.
<mgrwt>
<rscale>  0 0.62786233E+03</rscale>
<asrwt>0</asrwt>
<pdfrwt beam="1">  1        1 0.20725299E+00 0.62786233E+03</pdfrwt>
<pdfrwt beam="2">  1       -1 0.97044738E-02 0.62786233E+03</pdfrwt>
<totfact> 0.56538773E+02</totfact>
</mgrwt>
</event>
<event>
 4    1  0.6480558E-006  0.4688367E+03  0.7818608E-02  0.1022249E+00
         -1   -1    0    0    0  501 -0.00000000000E+00  0.00000000000E+00  0.96921203806E+02  0.96921203937E+02  0.50400000000E-02 0. -1.
          1   -1    0    0  501    0  0.00000000000E+00 -0.00000000000E+00 -0.56697561304E+03  0.56697561306E+03  0.50400000000E-02 0.  1.
    5000001    1    1    2    0    0 -0.11381798195E+02  0.11500671086E+03 -0.29827367795E+03  0.37672838469E+03  0.19900000000E+03 0.  0.
   -5000001    1    1    2    0    0  0.11381798195E+02 -0.11500671086E+03 -0.17178073128E+03  0.28716843231E+03  0.19900000000E+03 0.  0.
<mgrwt>
<rscale>  0 0.46883668E+03</rscale>
<asrwt>0</asrwt>
<pdfrwt beam="1">  1        1 0.80996514E-01 0.46883668E+03</pdfrwt>
<pdfrwt beam="2">  1       -1 0.13845887E-01 0.46883668E+03</pdfrwt>
<totfact> 0.15442934E+03</totfact>
</mgrwt>
</event>
<event>
 4    1  0.6480558E-006  0.5611836E+03  0.7818608E-02  0.9989380E-01
         -1   -1    0    0    0  501 -0.00000000000E+00  0.00000000000E+00  0.20867969347E+03  0.20867969353E+03  0.50400000000E-02 0. -1.
          1   -1    0    0  501    0  0.00000000000E+00 -0.00000000000E+00 -0.37728525443E+03  0.37728525446E+03  0.50400000000E-02 0.  1.
    5000001    1    1    2    0    0  0.16439822065E+03 -0.95508281020E+02 -0.14132346602E+03  0.30938960672E+03  0.19900000000E+03 0.  0.
   -5000001    1    1    2    0    0 -0.16439822065E+03  0.95508281020E+02 -0.27282094933E+02  0.27657534127E+03  0.19900000000E+03 0.  0.
<mgrwt>
<rscale>  0 0.56118365E+03</rscale>
<asrwt>0</asrwt>
<pdfrwt beam="1">  1        1 0.53897893E-01 0.56118365E+03</pdfrwt>
<pdfrwt beam="2">  1       -1 0.29811385E-01 0.56118365E+03</pdfrwt>
<totfact> 0.74252822E+02</totfact>
</mgrwt>
</event>
<event>
 4    1  0.6480558E-006  0.5248135E+03  0.7818608E-02  0.1007498E+00
         -1   -1    0    0    0  501 -0.00000000000E+00  0.00000000000E+00  0.25725378809E+03  0.25725378814E+03  0.50400000000E-02 0.  1.
          1   -1    0    0  501    0  0.00000000000E+00 -0.00000000000E+00 -0.26766297452E+03  0.26766297457E+03  0.50400000000E-02 0. -1.
    5000001    1    1    2    0    0  0.13676611942E+03  0.83242496034E+02  0.54990543271E+02  0.26126470182E+03  0.19900000000E+03 0.  0.
   -5000001    1    1    2    0    0 -0.13676611942E+03 -0.83242496034E+02 -0.65399729697E+02  0.26365206089E+03  0.19900000000E+03 0.  0.
<mgrwt>
<rscale>  0 0.52481354E+03</rscale>
<asrwt>0</asrwt>
<pdfrwt beam="1">  1        1 0.38237568E-01 0.52481354E+03</pdfrwt>
<pdfrwt beam="2">  1       -1 0.36750541E-01 0.52481354E+03</pdfrwt>
<totfact> 0.80040458E+02</totfact>
</mgrwt>
</event>
<event>
 4    1  0.6480558E-006  0.6500290E+03  0.7818608E-02  0.9806725E-01
          1   -1    0    0  501    0  0.00000000000E+00  0.00000000000E+00  0.64355650094E+03  0.64355650096E+03  0.50400000000E-02 0.  1.
         -1   -1    0    0    0  501 -0.00000000000E+00 -0.00000000000E+00 -0.16414164082E+03  0.16414164090E+03  0.50400000000E-02 0. -1.
    5000001    1    1    2    0    0 -0.13770343604E+03  0.16669871017E+03  0.41225170433E+03  0.50626392721E+03  0.19900000000E+03 0.  0.
   -5000001    1    1    2    0    0  0.13770343604E+03 -0.16669871017E+03  0.67163155789E+02  0.30143421465E+03  0.19900000000E+03 0.  0.
<mgrwt>
<rscale>  0 0.65002898E+03</rscale>
<asrwt>0</asrwt>
<pdfrwt beam="1">  1        1 0.91936643E-01 0.65002898E+03</pdfrwt>
<pdfrwt beam="2">  1       -1 0.23448806E-01 0.65002898E+03</pdfrwt>
<totfact> 0.54292795E+02</totfact>
</mgrwt>
</event>
<event>
 4    1  0.6480558E-006  0.7289399E+03  0.7818608E-02  0.9668982E-01
         -1   -1    0    0    0  501 -0.00000000000E+00  0.00000000000E+00  0.59552838657E+02  0.59552838870E+02  0.50400000000E-02 0.  1.
          1   -1    0    0  501    0  0.00000000000E+00 -0.00000000000E+00 -0.22305966273E+04  0.22305966274E+04  0.50400000000E-02 0. -1.
    5000001    1    1    2    0    0  0.19922816328E+03 -0.21146304351E+03 -0.13807277180E+04  0.14249275459E+04  0.19900000000E+03 0.  0.
   -5000001    1    1    2    0    0 -0.19922816328E+03  0.21146304351E+03 -0.79031607072E+03  0.86522192035E+03  0.19900000000E+03 0.  0.
<mgrwt>
<rscale>  0 0.72893995E+03</rscale>
<asrwt>0</asrwt>
<pdfrwt beam="1">  1        1 0.31865661E+00 0.72893995E+03</pdfrwt>
<pdfrwt beam="2">  1       -1 0.85075498E-02 0.72893995E+03</pdfrwt>
<totfact> 0.22419411E+02</totfact>
</mgrwt>
</event>
<event>
 4    1  0.6480558E-006  0.7383356E+03  0.7818608E-02  0.9653830E-01
         -1   -1    0    0    0  501 -0.00000000000E+00  0.00000000000E+00  0.42360697743E+03  0.42360697746E+03  0.50400000000E-02 0. -1.
          1   -1    0    0  501    0  0.00000000000E+00 -0.00000000000E+00 -0.32172479422E+03  0.32172479426E+03  0.50400000000E-02 0.  1.
    5000001    1    1    2    0    0  0.25606036598E+03 -0.44241609440E+02  0.22332109083E+03  0.39622915168E+03  0.19900000000E+03 0.  0.
   -5000001    1    1    2    0    0 -0.25606036598E+03  0.44241609440E+02 -0.12143890761E+03  0.34910262004E+03  0.19900000000E+03 0.  0.
<mgrwt>
<rscale>  0 0.73833561E+03</rscale>
<asrwt>0</asrwt>
<pdfrwt beam="1">  1        1 0.45960685E-01 0.73833561E+03</pdfrwt>
<pdfrwt beam="2">  1       -1 0.60515282E-01 0.73833561E+03</pdfrwt>
<totfact> 0.24710979E+02</totfact>
</mgrwt>
</event>
<event>
 4    1  0.6480558E-006  0.6408264E+03  0.7818608E-02  0.9824147E-01
          1   -1    0    0  501    0  0.00000000000E+00  0.00000000000E+00  0.31263672690E+03  0.31263672694E+03  0.50400000000E-02 0. -1.
         -1   -1    0    0    0  501 -0.00000000000E+00 -0.00000000000E+00 -0.32838307023E+03  0.32838307027E+03  0.50400000000E-02 0.  1.
    5000001    1    1    2    0    0 -0.20581322109E+02  0.16611329375E+03  0.17939014936E+03  0.31590986510E+03  0.19900000000E+03 0.  0.
   -5000001    1    1    2    0    0  0.20581322109E+02 -0.16611329375E+03 -0.19513649269E+03  0.32510993211E+03  0.19900000000E+03 0.  0.
<mgrwt>
<rscale>  0 0.64082637E+03</rscale>
<asrwt>0</asrwt>
<pdfrwt beam="1">  1        1 0.44662390E-01 0.64082637E+03</pdfrwt>
<pdfrwt beam="2">  1       -1 0.46911867E-01 0.64082637E+03</pdfrwt>
<totfact> 0.41919745E+02</totfact>
</mgrwt>
</event>
<event>
 4    1  0.6480558E-006  0.7583145E+03  0.7818608E-02  0.9622396E-01
          1   -1    0    0  501    0  0.00000000000E+00  0.00000000000E+00  0.81570916282E+02  0.81570916437E+02  0.50400000000E-02 0.  1.
         -1   -1    0    0    0  501 -0.00000000000E+00 -0.00000000000E+00 -0.17623953886E+04  0.17623953886E+04  0.50400000000E-02 0. -1.
    5000001    1    1    2    0    0  0.14262627782E+03 -0.24497237403E+03 -0.46523007372E+03  0.57999460399E+03  0.19900000000E+03 0.  0.
   -5000001    1    1    2    0    0 -0.14262627782E+03  0.24497237403E+03 -0.12155943986E+04  0.12639717010E+04  0.19900000000E+03 0.  0.
<mgrwt>
<rscale>  0 0.75831446E+03</rscale>
<asrwt>0</asrwt>
<pdfrwt beam="1">  1        1 0.11652989E-01 0.75831446E+03</pdfrwt>
<pdfrwt beam="2">  1       -1 0.25177075E+00 0.75831446E+03</pdfrwt>
<totfact> 0.38054061E+01</totfact>
</mgrwt>
</event>
<event>
 4    1  0.6480558E-006  0.4688670E+03  0.7818608E-02  0.1022240E+00
         -1   -1    0    0    0  501 -0.00000000000E+00  0.00000000000E+00  0.43125208214E+03  0.43125208217E+03  0.50400000000E-02 0.  1.
          1   -1    0    0  501    0  0.00000000000E+00 -0.00000000000E+00 -0.12744072135E+03  0.12744072145E+03  0.50400000000E-02 0. -1.
    5000001    1    1    2    0    0  0.18550637417E+01 -0.76547067130E+02  0.35794240982E+02  0.21620620351E+03  0.19900000000E+03 0.  0.
   -5000001    1    1    2    0    0 -0.18550637417E+01  0.76547067130E+02  0.26801711981E+03  0.34248660011E+03  0.19900000000E+03 0.  0.
<mgrwt>
<rscale>  0 0.46886704E+03</rscale>
<asrwt>0</asrwt>
<pdfrwt beam="1">  1        1 0.18205817E-01 0.46886704E+03</pdfrwt>
<pdfrwt beam="2">  1       -1 0.61607440E-01 0.46886704E+03</pdfrwt>
<totfact> 0.79954562E+02</totfact>
</mgrwt>
</event>
<event>
 4    1  0.6480558E-006  0.5777782E+03  0.7818608E-02  0.9952613E-01
          1   -1    0    0  501    0  0.00000000000E+00  0.00000000000E+00  0.13567904331E+04  0.13567904332E+04  0.50400000000E-02 0.  1.
         -1   -1    0    0    0  501 -0.00000000000E+00 -0.00000000000E+00 -0.61510540298E+02  0.61510540505E+02  0.50400000000E-02 0. -1.
    5000001    1    1    2    0    0 -0.63164950959E+02 -0.19548310090E+03  0.54785326170E+03  0.61801913411E+03  0.19900000000E+03 0.  0.
   -5000001    1    1    2    0    0  0.63164950959E+02  0.19548310090E+03  0.74742663114E+03  0.80028183955E+03  0.19900000000E+03 0.  0.
<mgrwt>
<rscale>  0 0.57777820E+03</rscale>
<asrwt>0</asrwt>
<pdfrwt beam="1">  1        1 0.19382718E+00 0.57777820E+03</pdfrwt>
<pdfrwt beam="2">  1       -1 0.87872213E-02 0.57777820E+03</pdfrwt>
<totfact> 0.76284689E+02</totfact>
</mgrwt>
</event>
<event>
 4    1  0.6480558E-006  0.6673362E+03  0.7818608E-02  0.9774782E-01
          1   -1    0    0  501    0  0.00000000000E+00  0.00000000000E+00  0.74044713011E+03  0.74044713013E+03  0.50400000000E-02 0. -1.
         -1   -1    0    0    0  501 -0.00000000000E+00 -0.00000000000E+00 -0.15036105765E+03  0.15036105773E+03  0.50400000000E-02 0.  1.
    5000001    1    1    2    0    0 -0.27207858722E+02  0.26610459587E+03  0.31302619627E+03  0.45731643647E+03  0.19900000000E+03 0.  0.
   -5000001    1    1    2    0    0  0.27207858722E+02 -0.26610459587E+03  0.27705987620E+03  0.43349175138E+03  0.19900000000E+03 0.  0.
<mgrwt>
<rscale>  0 0.66733624E+03</rscale>
<asrwt>0</asrwt>
<pdfrwt beam="1">  1        1 0.10577816E+00 0.66733624E+03</pdfrwt>
<pdfrwt beam="2">  1       -1 0.21480151E-01 0.66733624E+03</pdfrwt>
<totfact> 0.51219966E+02</totfact>
</mgrwt>
</event>
<event>
 4    1  0.6480558E-006  0.5734207E+03  0.7818608E-02  0.9962138E-01
          1   -1    0    0  501    0  0.00000000000E+00  0.00000000000E+00  0.15190204982E+04  0.15190204982E+04  0.50400000000E-02 0.  1.
         -1   -1    0    0    0  501 -0.00000000000E+00 -0.00000000000E+00 -0.54115671270E+02  0.54115671505E+02  0.50400000000E-02 0. -1.
    5000001    1    1    2    0    0  0.91491266269E+02  0.98725096364E+02  0.11617305348E+04  0.11863119876E+04  0.19900000000E+03 0.  0.
   -5000001    1    1    2    0    0 -0.91491266269E+02 -0.98725096364E+02  0.30317429215E+03  0.38682418212E+03  0.19900000000E+03 0.  0.
<mgrwt>
<rscale>  0 0.57342066E+03</rscale>
<asrwt>0</asrwt>
<pdfrwt beam="1">  1        1 0.21700296E+00 0.57342066E+03</pdfrwt>
<pdfrwt beam="2">  1       -1 0.77308090E-02 0.57342066E+03</pdfrwt>
<totfact> 0.73165682E+02</totfact>
</mgrwt>
</event>
<event>
 4    1  0.6480558E-006  0.5176658E+03  0.7818608E-02  0.1009268E+00
          1   -1    0    0  501    0  0.00000000000E+00  0.00000000000E+00  0.93317786152E+03  0.93317786153E+03  0.50400000000E-02 0. -1.
         -1   -1    0    0    0  501 -0.00000000000E+00 -0.00000000000E+00 -0.71791753783E+02  0.71791753959E+02  0.50400000000E-02 0.  1.
    5000001    1    1    2    0    0  0.15952459668E+03  0.37678515792E+02  0.38618120036E+03  0.46433251772E+03  0.19900000000E+03 0.  0.
   -5000001    1    1    2    0    0 -0.15952459668E+03 -0.37678515792E+02  0.47520490738E+03  0.54063709778E+03  0.19900000000E+03 0.  0.
<mgrwt>
<rscale>  0 0.51766582E+03</rscale>
<asrwt>0</asrwt>
<pdfrwt beam="1">  1        1 0.13331112E+00 0.51766582E+03</pdfrwt>
<pdfrwt beam="2">  1       -1 0.10255965E-01 0.51766582E+03</pdfrwt>
<totfact> 0.11868773E+03</totfact>
</mgrwt>
</event>
<event>
 4    1  0.6480558E-006  0.4799181E+03  0.7818608E-02  0.1019158E+00
          1   -1    0    0  501    0  0.00000000000E+00  0.00000000000E+00  0.41309003391E+03  0.41309003394E+03  0.50400000000E-02 0.  1.
         -1   -1    0    0    0  501 -0.00000000000E+00 -0.00000000000E+00 -0.13938935005E+03  0.13938935014E+03  0.50400000000E-02 0. -1.
    5000001    1    1    2    0    0  0.10329434102E+03  0.34845768022E+02  0.46973017414E+02  0.23171407554E+03  0.19900000000E+03 0.  0.
   -5000001    1    1    2    0    0 -0.10329434102E+03 -0.34845768022E+02  0.22672766645E+03  0.32076530855E+03  0.19900000000E+03 0.  0.
<mgrwt>
<rscale>  0 0.47991812E+03</rscale>
<asrwt>0</asrwt>
<pdfrwt beam="1">  1        1 0.59012863E-01 0.47991812E+03</pdfrwt>
<pdfrwt beam="2">  1       -1 0.19912764E-01 0.47991812E+03</pdfrwt>
<totfact> 0.13050437E+03</totfact>
</mgrwt>
</event>
<event>
 4    1  0.6480558E-006  0.7409699E+03  0.7818608E-02  0.9649625E-01
         -1   -1    0    0    0  501 -0.00000000000E+00  0.00000000000E+00  0.21071163810E+03  0.21071163816E+03  0.50400000000E-02 0. -1.
          1   -1    0    0  501    0  0.00000000000E+00 -0.00000000000E+00 -0.65140737230E+03  0.65140737232E+03  0.50400000000E-02 0.  1.
    5000001    1    1    2    0    0 -0.16896712439E+03 -0.86910247338E+02 -0.50901524875E+03  0.57861974013E+03  0.19900000000E+03 0.  0.
   -5000001    1    1    2    0    0  0.16896712439E+03  0.86910247338E+02  0.68319514546E+02  0.28349927034E+03  0.19900000000E+03 0.  0.
<mgrwt>
<rscale>  0 0.74096994E+03</rscale>
<asrwt>0</asrwt>
<pdfrwt beam="1">  1        1 0.93058196E-01 0.74096994E+03</pdfrwt>
<pdfrwt beam="2">  1       -1 0.30101663E-01 0.74096994E+03</pdfrwt>
<totfact> 0.34652901E+02</totfact>
</mgrwt>
</event>
<event>
 4    1  0.6480558E-006  0.8955609E+03  0.7818608E-02  0.9431148E-01
          1   -1    0    0  501    0  0.00000000000E+00  0.00000000000E+00  0.37148412000E+03  0.37148412003E+03  0.50400000000E-02 0.  1.
         -1   -1    0    0    0  501 -0.00000000000E+00 -0.00000000000E+00 -0.53974666911E+03  0.53974666913E+03  0.50400000000E-02 0. -1.
    5000001    1    1    2    0    0 -0.23226398823E+03  0.32686779448E+03 -0.73115902567E+02  0.45358136040E+03  0.19900000000E+03 0.  0.
   -5000001    1    1    2    0    0  0.23226398823E+03 -0.32686779448E+03 -0.95146646543E+02  0.45764942876E+03  0.19900000000E+03 0.  0.
<mgrwt>
<rscale>  0 0.89556087E+03</rscale>
<asrwt>0</asrwt>
<pdfrwt beam="1">  1        1 0.53069160E-01 0.89556087E+03</pdfrwt>
<pdfrwt beam="2">  1       -1 0.77106667E-01 0.89556087E+03</pdfrwt>
<totfact> 0.12414907E+02</totfact>
</mgrwt>
</event>
<event>
 4    1  0.6480558E-006  0.6346797E+03  0.7818608E-02  0.9835959E-01
          1   -1    0    0  501    0  0.00000000000E+00  0.00000000000E+00  0.16104496742E+04  0.16104496742E+04  0.50400000000E-02 0.  1.
         -1   -1    0    0    0  501 -0.00000000000E+00 -0.00000000000E+00 -0.62531963122E+02  0.62531963325E+02  0.50400000000E-02 0. -1.
    5000001    1    1    2    0    0 -0.10958255305E+03 -0.21912464757E+03  0.68734755005E+03  0.75635415096E+03  0.19900000000E+03 0.  0.
   -5000001    1    1    2    0    0  0.10958255305E+03  0.21912464757E+03  0.86057016104E+03  0.91662748659E+03  0.19900000000E+03 0.  0.
<mgrwt>
<rscale>  0 0.63467970E+03</rscale>
<asrwt>0</asrwt>
<pdfrwt beam="1">  1        1 0.23006424E+00 0.63467970E+03</pdfrwt>
<pdfrwt beam="2">  1       -1 0.89331374E-02 0.63467970E+03</pdfrwt>
<totfact> 0.50888734E+02</totfact>
</mgrwt>
</event>
<event>
 4    1  0.6480558E-006  0.5752838E+03  0.7818608E-02  0.9958054E-01
          1   -1    0    0  501    0  0.00000000000E+00  0.00000000000E+00  0.34826613817E+04  0.34826613817E+04  0.50400000000E-02 0. -1.
         -1   -1    0    0    0  501 -0.00000000000E+00 -0.00000000000E+00 -0.23757082317E+02  0.23757082852E+02  0.50400000000E-02 0.  1.
    5000001    1    1    2    0    0 -0.32098855197E+02  0.18598644254E+03  0.12010521081E+04  0.12319693421E+04  0.19900000000E+03 0.  0.
   -5000001    1    1    2    0    0  0.32098855197E+02 -0.18598644254E+03  0.22578521913E+04  0.22744491225E+04  0.19900000000E+03 0.  0.
<mgrwt>
<rscale>  0 0.57528384E+03</rscale>
<asrwt>0</asrwt>
<pdfrwt beam="1">  1        1 0.49752294E+00 0.57528384E+03</pdfrwt>
<pdfrwt beam="2">  1       -1 0.33938697E-02 0.57528384E+03</pdfrwt>
<totfact> 0.14628627E+02</totfact>
</mgrwt>
</event>
<event>
 4    1  0.6480558E-006  0.5261513E+03  0.7818608E-02  0.1007170E+00
          1   -1    0    0  501    0  0.00000000000E+00  0.00000000000E+00  0.54092538337E+03  0.54092538339E+03  0.50400000000E-02 0. -1.
         -1   -1    0    0    0  501 -0.00000000000E+00 -0.00000000000E+00 -0.12794519217E+03  0.12794519226E+03  0.50400000000E-02 0.  1.
    5000001    1    1    2    0    0  0.71111673463E+02 -0.15464895060E+03  0.23851539099E+03  0.35420863875E+03  0.19900000000E+03 0.  0.
   -5000001    1    1    2    0    0 -0.71111673463E+02  0.15464895060E+03  0.17446480021E+03  0.31466193691E+03  0.19900000000E+03 0.  0.
<mgrwt>
<rscale>  0 0.52615132E+03</rscale>
<asrwt>0</asrwt>
<pdfrwt beam="1">  1        1 0.77275053E-01 0.52615132E+03</pdfrwt>
<pdfrwt beam="2">  1       -1 0.18277885E-01 0.52615132E+03</pdfrwt>
<totfact> 0.10499227E+03</totfact>
</mgrwt>
</event>
<event>
 4    1  0.6480558E-006  0.1232667E+04  0.7818608E-02  0.9084734E-01
          1   -1    0    0  501    0  0.00000000000E+00  0.00000000000E+00  0.27758759726E+03  0.27758759731E+03  0.50400000000E-02 0.  1.
         -1   -1    0    0    0  501 -0.00000000000E+00 -0.00000000000E+00 -0.13684587217E+04  0.13684587217E+04  0.50400000000E-02 0. -1.
    5000001    1    1    2    0    0 -0.22031585022E+03 -0.49791004657E+03 -0.82494474945E+03  0.10082600498E+04  0.19900000000E+03 0.  0.
   -5000001    1    1    2    0    0  0.22031585022E+03  0.49791004657E+03 -0.26592637502E+03  0.63778626927E+03  0.19900000000E+03 0.  0.
<mgrwt>
<rscale>  0 0.12326673E+04</rscale>
<asrwt>0</asrwt>
<pdfrwt beam="1">  1        1 0.39655372E-01 0.12326673E+04</pdfrwt>
<pdfrwt beam="2">  1       -1 0.19549410E+00 0.12326673E+04</pdfrwt>
<totfact> 0.17081351E+01</totfact>
</mgrwt>
</event>
<event>
 4    1  0.6480558E-006  0.4547267E+03  0.7818608E-02  0.1026322E+00
         -1   -1    0    0    0  501 -0.00000000000E+00  0.00000000000E+00  0.80872502587E+02  0.80872502744E+02  0.50400000000E-02 0.  1.
          1   -1    0    0  501    0  0.00000000000E+00 -0.00000000000E+00 -0.63920492694E+03  0.63920492696E+03  0.50400000000E-02 0. -1.
    5000001    1    1    2    0    0  0.59899332245E+02 -0.91711813035E+02 -0.29452862111E+03  0.37195039361E+03  0.19900000000E+03 0.  0.
   -5000001    1    1    2    0    0 -0.59899332245E+02  0.91711813035E+02 -0.26380380324E+03  0.34812703609E+03  0.19900000000E+03 0.  0.
<mgrwt>
<rscale>  0 0.45472674E+03</rscale>
<asrwt>0</asrwt>
<pdfrwt beam="1">  1        1 0.91314987E-01 0.45472674E+03</pdfrwt>
<pdfrwt beam="2">  1       -1 0.11553215E-01 0.45472674E+03</pdfrwt>
<totfact> 0.17431342E+03</totfact>
</mgrwt>
</event>
<event>
 4    1  0.6480558E-006  0.6613590E+03  0.7818608E-02  0.9785695E-01
          1   -1    0    0  501    0  0.00000000000E+00  0.00000000000E+00  0.30431518152E+03  0.30431518156E+03  0.50400000000E-02 0.  1.
         -1   -1    0    0    0  501 -0.00000000000E+00 -0.00000000000E+00 -0.35932793158E+03  0.35932793162E+03  0.50400000000E-02 0. -1.
    5000001    1    1    2    0    0 -0.70482503570E+02 -0.21019551087E+03 -0.17152210041E+03  0.34375975190E+03  0.19900000000E+03 0.  0.
   -5000001    1    1    2    0    0  0.70482503570E+02  0.21019551087E+03  0.11650935035E+03  0.31988336127E+03  0.19900000000E+03 0.  0.
<mgrwt>
<rscale>  0 0.66135904E+03</rscale>
<asrwt>0</asrwt>
<pdfrwt beam="1">  1        1 0.43473598E-01 0.66135904E+03</pdfrwt>
<pdfrwt beam="2">  1       -1 0.51332561E-01 0.66135904E+03</pdfrwt>
<totfact> 0.36615606E+02</totfact>
</mgrwt>
</event>
<event>
 4    1  0.6480558E-006  0.6620166E+03  0.7818608E-02  0.9784489E-01
          1   -1    0    0  501    0  0.00000000000E+00  0.00000000000E+00  0.13801001543E+04  0.13801001543E+04  0.50400000000E-02 0.  1.
         -1   -1    0    0    0  501 -0.00000000000E+00 -0.00000000000E+00 -0.79390244063E+02  0.79390244223E+02  0.50400000000E-02 0. -1.
    5000001    1    1    2    0    0 -0.23428542679E+03 -0.11465936990E+03  0.55352610357E+03  0.64345052618E+03  0.19900000000E+03 0.  0.
   -5000001    1    1    2    0    0  0.23428542679E+03  0.11465936990E+03  0.74718380663E+03  0.81603987232E+03  0.19900000000E+03 0.  0.
<mgrwt>
<rscale>  0 0.66201658E+03</rscale>
<asrwt>0</asrwt>
<pdfrwt beam="1">  1        1 0.19715715E+00 0.66201658E+03</pdfrwt>
<pdfrwt beam="2">  1       -1 0.11341464E-01 0.66201658E+03</pdfrwt>
<totfact> 0.49020716E+02</totfact>
</mgrwt>
</event>
<event>
 4    1  0.6480558E-006  0.7696883E+03  0.7818608E-02  0.9604959E-01
         -1   -1    0    0    0  501 -0.00000000000E+00  0.00000000000E+00  0.65447866484E+02  0.65447866678E+02  0.50400000000E-02 0.  1.
          1   -1    0    0  501    0  0.00000000000E+00 -0.00000000000E+00 -0.22629462613E+04  0.22629462613E+04  0.50400000000E-02 0. -1.
    5000001    1    1    2    0    0 -0.32502194564E+02 -0.32745583094E+03 -0.10538498383E+04  0.11218218199E+04  0.19900000000E+03 0.  0.
   -5000001    1    1    2    0    0  0.32502194564E+02  0.32745583094E+03 -0.11436485565E+04  0.12065723081E+04  0.19900000000E+03 0.  0.
<mgrwt>
<rscale>  0 0.76968826E+03</rscale>
<asrwt>0</asrwt>
<pdfrwt beam="1">  1        1 0.32327799E+00 0.76968826E+03</pdfrwt>
<pdfrwt beam="2">  1       -1 0.93496967E-02 0.76968826E+03</pdfrwt>
<totfact> 0.18386952E+02</totfact>
</mgrwt>
</event>
<event>
 4    1  0.6480558E-006  0.7493330E+03  0.7818608E-02  0.9636397E-01
          1   -1    0    0  501    0  0.00000000000E+00  0.00000000000E+00  0.42298267043E+03  0.42298267046E+03  0.50400000000E-02 0.  1.
         -1   -1    0    0    0  501 -0.00000000000E+00 -0.00000000000E+00 -0.33186932520E+03  0.33186932524E+03  0.50400000000E-02 0. -1.
    5000001    1    1    2    0    0  0.88743601165E+02 -0.30371515529E+03  0.71350950655E+02  0.38053945979E+03  0.19900000000E+03 0.  0.
   -5000001    1    1    2    0    0 -0.88743601165E+02  0.30371515529E+03  0.19762394576E+02  0.37431253591E+03  0.19900000000E+03 0.  0.
<mgrwt>
<rscale>  0 0.74933297E+03</rscale>
<asrwt>0</asrwt>
<pdfrwt beam="1">  1        1 0.60426096E-01 0.74933297E+03</pdfrwt>
<pdfrwt beam="2">  1       -1 0.47409904E-01 0.74933297E+03</pdfrwt>
<totfact> 0.27604639E+02</totfact>
</mgrwt>
</event>
<event>
 4    1  0.6480558E-006  0.7719207E+03  0.7818608E-02  0.9601574E-01
          1   -1    0    0  501    0  0.00000000000E+00  0.00000000000E+00  0.42520241148E+03  0.42520241151E+03  0.50400000000E-02 0.  1.
         -1   -1    0    0    0  501 -0.00000000000E+00 -0.00000000000E+00 -0.35033996800E+03  0.35033996804E+03  0.50400000000E-02 0. -1.
    5000001    1    1    2    0    0  0.32618357686E+03  0.37105071084E+02  0.77516875824E+02  0.39164062372E+03  0.19900000000E+03 0.  0.
   -5000001    1    1    2    0    0 -0.32618357686E+03 -0.37105071084E+02 -0.26544323471E+01  0.38390175582E+03  0.19900000000E+03 0.  0.
<mgrwt>
<rscale>  0 0.77192072E+03</rscale>
<asrwt>0</asrwt>
<pdfrwt beam="1">  1        1 0.60743202E-01 0.77192072E+03</pdfrwt>
<pdfrwt beam="2">  1       -1 0.50048567E-01 0.77192072E+03</pdfrwt>
<totfact> 0.24731053E+02</totfact>
</mgrwt>
</event>
<event>
 4    1  0.6480558E-006  0.1035596E+04  0.7818608E-02  0.9270343E-01
          1   -1    0    0  501    0  0.00000000000E+00  0.00000000000E+00  0.25209761670E+04  0.25209761670E+04  0.50400000000E-02 0.  1.
         -1   -1    0    0    0  501 -0.00000000000E+00 -0.00000000000E+00 -0.10635353329E+03  0.10635353341E+03  0.50400000000E-02 0. -1.
    5000001    1    1    2    0    0  0.30627264991E+03  0.14922329183E+03  0.35658309802E+03  0.53181108742E+03  0.19900000000E+03 0.  0.
   -5000001    1    1    2    0    0 -0.30627264991E+03 -0.14922329183E+03  0.20580395356E+04  0.20955186129E+04  0.19900000000E+03 0.  0.
<mgrwt>
<rscale>  0 0.10355959E+04</rscale>
<asrwt>0</asrwt>
<pdfrwt beam="1">  1        1 0.36013945E+00 0.10355959E+04</pdfrwt>
<pdfrwt beam="2">  1       -1 0.15193362E-01 0.10355959E+04</pdfrwt>
<totfact> 0.56767961E+01</totfact>
</mgrwt>
</event>
<event>
 4    1  0.6480558E-006  0.5453452E+03  0.7818608E-02  0.1002577E+00
          1   -1    0    0  501    0  0.00000000000E+00  0.00000000000E+00  0.26782155162E+04  0.26782155162E+04  0.50400000000E-02 0.  1.
         -1   -1    0    0    0  501 -0.00000000000E+00 -0.00000000000E+00 -0.27761152045E+02  0.27761152503E+02  0.50400000000E-02 0. -1.
    5000001    1    1    2    0    0  0.16360414914E+03 -0.34653878635E+02  0.17338625172E+04  0.17532391273E+04  0.19900000000E+03 0.  0.
   -5000001    1    1    2    0    0 -0.16360414914E+03  0.34653878635E+02  0.91659184697E+03  0.95273754144E+03  0.19900000000E+03 0.  0.
<mgrwt>
<rscale>  0 0.54534521E+03</rscale>
<asrwt>0</asrwt>
<pdfrwt beam="1">  1        1 0.38260235E+00 0.54534521E+03</pdfrwt>
<pdfrwt beam="2">  1       -1 0.39658775E-02 0.54534521E+03</pdfrwt>
<totfact> 0.38848837E+02</totfact>
</mgrwt>
</event>
<event>
 4    1  0.6480558E-006  0.9022124E+03  0.7818608E-02  0.9422820E-01
         -1   -1    0    0    0  501 -0.00000000000E+00  0.00000000000E+00  0.12427609547E+03  0.12427609557E+03  0.50400000000E-02 0. -1.
          1   -1    0    0  501    0  0.00000000000E+00 -0.00000000000E+00 -0.16374573528E+04  0.16374573528E+04  0.50400000000E-02 0.  1.
    5000001    1    1    2    0    0 -0.29186897514E+03  0.14545541464E+03 -0.28814633169E+03  0.47851236636E+03  0.19900000000E+03 0.  0.
   -5000001    1    1    2    0    0  0.29186897514E+03 -0.14545541464E+03 -0.12250349256E+04  0.12832210820E+04  0.19900000000E+03 0.  0.
<mgrwt>
<rscale>  0 0.90221241E+03</rscale>
<asrwt>0</asrwt>
<pdfrwt beam="1">  1        1 0.23392247E+00 0.90221241E+03</pdfrwt>
<pdfrwt beam="2">  1       -1 0.17753729E-01 0.90221241E+03</pdfrwt>
<totfact> 0.15925820E+02</totfact>
</mgrwt>
</event>
<event>
 4    1  0.6480558E-006  0.4177092E+03  0.7818608E-02  0.1037814E+00
         -1   -1    0    0    0  501 -0.00000000000E+00  0.00000000000E+00  0.61798673713E+02  0.61798673918E+02  0.50400000000E-02 0.  1.
          1   -1    0    0  501    0  0.00000000000E+00 -0.00000000000E+00 -0.70584435463E+03  0.70584435464E+03  0.50400000000E-02 0. -1.
    5000001    1    1    2    0    0 -0.31262801707E+02 -0.40081511162E+02 -0.39164778916E+03  0.44223622766E+03  0.19900000000E+03 0.  0.
   -5000001    1    1    2    0    0  0.31262801707E+02  0.40081511162E+02 -0.25239789176E+03  0.32540680090E+03  0.19900000000E+03 0.  0.
<mgrwt>
<rscale>  0 0.41770921E+03</rscale>
<asrwt>0</asrwt>
<pdfrwt beam="1">  1        1 0.10083490E+00 0.41770921E+03</pdfrwt>
<pdfrwt beam="2">  1       -1 0.88283824E-02 0.41770921E+03</pdfrwt>
<totfact> 0.23045626E+03</totfact>
</mgrwt>
</event>
<event>
 4    1  0.6480558E-006  0.8415785E+03  0.7818608E-02  0.9501710E-01
         -1   -1    0    0    0  501 -0.00000000000E+00  0.00000000000E+00  0.10428572197E+03  0.10428572210E+03  0.50400000000E-02 0. -1.
          1   -1    0    0  501    0  0.00000000000E+00 -0.00000000000E+00 -0.16978698878E+04  0.16978698878E+04  0.50400000000E-02 0.  1.
    5000001    1    1    2    0    0  0.32236708547E+03 -0.37292590610E+02 -0.11807618352E+04  0.12406090386E+04  0.19900000000E+03 0.  0.
   -5000001    1    1    2    0    0 -0.32236708547E+03  0.37292590610E+02 -0.41282233060E+03  0.56154657131E+03  0.19900000000E+03 0.  0.
<mgrwt>
<rscale>  0 0.84157849E+03</rscale>
<asrwt>0</asrwt>
<pdfrwt beam="1">  1        1 0.24255282E+00 0.84157849E+03</pdfrwt>
<pdfrwt beam="2">  1       -1 0.14897961E-01 0.84157849E+03</pdfrwt>
<totfact> 0.19522464E+02</totfact>
</mgrwt>
</event>
<event>
 4    1  0.6480558E-006  0.6053539E+03  0.7818608E-02  0.9894360E-01
          1   -1    0    0  501    0  0.00000000000E+00  0.00000000000E+00  0.56890876215E+03  0.56890876217E+03  0.50400000000E-02 0. -1.
         -1   -1    0    0    0  501 -0.00000000000E+00 -0.00000000000E+00 -0.16103342632E+03  0.16103342640E+03  0.50400000000E-02 0.  1.
    5000001    1    1    2    0    0 -0.68335224322E+02 -0.21416775345E+03  0.25024453262E+03  0.39084633248E+03  0.19900000000E+03 0.  0.
   -5000001    1    1    2    0    0  0.68335224322E+02  0.21416775345E+03  0.15763080321E+03  0.33909585610E+03  0.19900000000E+03 0.  0.
<mgrwt>
<rscale>  0 0.60535387E+03</rscale>
<asrwt>0</asrwt>
<pdfrwt beam="1">  1        1 0.81272682E-01 0.60535387E+03</pdfrwt>
<pdfrwt beam="2">  1       -1 0.23004775E-01 0.60535387E+03</pdfrwt>
<totfact> 0.66767989E+02</totfact>
</mgrwt>
</event>
<event>
 4    1  0.6480558E-006  0.5196816E+03  0.7818608E-02  0.1008766E+00
         -1   -1    0    0    0  501 -0.00000000000E+00  0.00000000000E+00  0.60534854255E+02  0.60534854465E+02  0.50400000000E-02 0. -1.
          1   -1    0    0  501    0  0.00000000000E+00 -0.00000000000E+00 -0.11153449343E+04  0.11153449343E+04  0.50400000000E-02 0.  1.
    5000001    1    1    2    0    0  0.77031268983E+02  0.14824078026E+03 -0.53343325390E+03  0.59334743759E+03  0.19900000000E+03 0.  0.
   -5000001    1    1    2    0    0 -0.77031268983E+02 -0.14824078026E+03 -0.52137682616E+03  0.58253235119E+03  0.19900000000E+03 0.  0.
<mgrwt>
<rscale>  0 0.51968161E+03</rscale>
<asrwt>0</asrwt>
<pdfrwt beam="1">  1        1 0.15933498E+00 0.51968161E+03</pdfrwt>
<pdfrwt beam="2">  1       -1 0.86478370E-02 0.51968161E+03</pdfrwt>
<totfact> 0.11420513E+03</totfact>
</mgrwt>
</event>
<event>
 4    1  0.6480558E-006  0.9746009E+03  0.7818608E-02  0.9336849E-01
          1   -1    0    0  501    0  0.00000000000E+00  0.00000000000E+00  0.14231707023E+04  0.14231707024E+04  0.50400000000E-02 0. -1.
         -1   -1    0    0    0  501 -0.00000000000E+00 -0.00000000000E+00 -0.16685401959E+03  0.16685401966E+03  0.50400000000E-02 0.  1.
    5000001    1    1    2    0    0  0.35304014048E+03 -0.27032601165E+03  0.64795618530E+03  0.81065511251E+03  0.19900000000E+03 0.  0.
   -5000001    1    1    2    0    0 -0.35304014048E+03  0.27032601165E+03  0.60836049745E+03  0.77936960951E+03  0.19900000000E+03 0.  0.
<mgrwt>
<rscale>  0 0.97460095E+03</rscale>
<asrwt>0</asrwt>
<pdfrwt beam="1">  1        1 0.20331009E+00 0.97460095E+03</pdfrwt>
<pdfrwt beam="2">  1       -1 0.23836289E-01 0.97460095E+03</pdfrwt>
<totfact> 0.13303950E+02</totfact>
</mgrwt>
</event>
<event>
 4    1  0.6480558E-006  0.6062355E+03  0.7818608E-02  0.9892553E-01
          1   -1    0    0  501    0  0.00000000000E+00  0.00000000000E+00  0.29714590186E+03  0.29714590191E+03  0.50400000000E-02 0.  1.
         -1   -1    0    0    0  501 -0.00000000000E+00 -0.00000000000E+00 -0.30920964913E+03  0.30920964917E+03  0.50400000000E-02 0. -1.
    5000001    1    1    2    0    0 -0.30277315568E+02  0.22625295668E+03 -0.19159403863E+02  0.30343895432E+03  0.19900000000E+03 0.  0.
   -5000001    1    1    2    0    0  0.30277315568E+02 -0.22625295668E+03  0.70956565995E+01  0.30291659675E+03  0.19900000000E+03 0.  0.
<mgrwt>
<rscale>  0 0.60623553E+03</rscale>
<asrwt>0</asrwt>
<pdfrwt beam="1">  1        1 0.42449415E-01 0.60623553E+03</pdfrwt>
<pdfrwt beam="2">  1       -1 0.44172807E-01 0.60623553E+03</pdfrwt>
<totfact> 0.50086311E+02</totfact>
</mgrwt>
</event>
<event>
 4    1  0.6480558E-006  0.7039370E+03  0.7818608E-02  0.9710523E-01
         -1   -1    0    0    0  501 -0.00000000000E+00  0.00000000000E+00  0.14414571049E+03  0.14414571058E+03  0.50400000000E-02 0. -1.
          1   -1    0    0  501    0  0.00000000000E+00 -0.00000000000E+00 -0.85942087566E+03  0.85942087567E+03  0.50400000000E-02 0.  1.
    5000001    1    1    2    0    0 -0.17950711660E+03  0.18838024903E+03 -0.17411666961E+03  0.37098185639E+03  0.19900000000E+03 0.  0.
   -5000001    1    1    2    0    0  0.17950711660E+03 -0.18838024903E+03 -0.54115849556E+03  0.63258472986E+03  0.19900000000E+03 0.  0.
<mgrwt>
<rscale>  0 0.70393702E+03</rscale>
<asrwt>0</asrwt>
<pdfrwt beam="1">  1        1 0.12277441E+00 0.70393702E+03</pdfrwt>
<pdfrwt beam="2">  1       -1 0.20592245E-01 0.70393702E+03</pdfrwt>
<totfact> 0.43624626E+02</totfact>
</mgrwt>
</event>
<event>
 4    1  0.6480558E-006  0.8061776E+03  0.7818608E-02  0.9551118E-01
          1   -1    0    0  501    0  0.00000000000E+00  0.00000000000E+00  0.42453229602E+03  0.42453229605E+03  0.50400000000E-02 0.  1.
         -1   -1    0    0    0  501 -0.00000000000E+00 -0.00000000000E+00 -0.38272841700E+03  0.38272841704E+03  0.50400000000E-02 0. -1.
    5000001    1    1    2    0    0 -0.32830053271E+03 -0.26480653711E+02  0.14105110087E+03  0.40985226345E+03  0.19900000000E+03 0.  0.
   -5000001    1    1    2    0    0  0.32830053271E+03  0.26480653711E+02 -0.99247221853E+02  0.39740844964E+03  0.19900000000E+03 0.  0.
<mgrwt>
<rscale>  0 0.80617758E+03</rscale>
<asrwt>0</asrwt>
<pdfrwt beam="1">  1        1 0.60647471E-01 0.80617758E+03</pdfrwt>
<pdfrwt beam="2">  1       -1 0.54675488E-01 0.80617758E+03</pdfrwt>
<totfact> 0.20895965E+02</totfact>
</mgrwt>
</event>
<event>
 4    1  0.6480558E-006  0.5400886E+03  0.7818608E-02  0.1003814E+00
         -1   -1    0    0    0  501 -0.00000000000E+00  0.00000000000E+00  0.21266516640E+03  0.21266516646E+03  0.50400000000E-02 0. -1.
          1   -1    0    0  501    0  0.00000000000E+00 -0.00000000000E+00 -0.34290493963E+03  0.34290493966E+03  0.50400000000E-02 0.  1.
    5000001    1    1    2    0    0  0.56508167372E+02 -0.16137908120E+03  0.63870603878E+00  0.26236956526E+03  0.19900000000E+03 0.  0.
   -5000001    1    1    2    0    0 -0.56508167372E+02  0.16137908120E+03 -0.13087847927E+03  0.29320054086E+03  0.19900000000E+03 0.  0.
<mgrwt>
<rscale>  0 0.54008864E+03</rscale>
<asrwt>0</asrwt>
<pdfrwt beam="1">  1        1 0.48986420E-01 0.54008864E+03</pdfrwt>
<pdfrwt beam="2">  1       -1 0.30380738E-01 0.54008864E+03</pdfrwt>
<totfact> 0.81339996E+02</totfact>
</mgrwt>
</event>
<event>
 4    1  0.6480558E-006  0.4632045E+03  0.7818608E-02  0.1023856E+00
         -1   -1    0    0    0  501 -0.00000000000E+00  0.00000000000E+00  0.20040768652E+03  0.20040768658E+03  0.50400000000E-02 0. -1.
          1   -1    0    0  501    0  0.00000000000E+00 -0.00000000000E+00 -0.26765240994E+03  0.26765240998E+03  0.50400000000E-02 0.  1.
    5000001    1    1    2    0    0 -0.35726226705E+02 -0.75259431576E+00  0.80529400792E+02  0.21763022323E+03  0.19900000000E+03 0.  0.
   -5000001    1    1    2    0    0  0.35726226705E+02  0.75259431576E+00 -0.14777412421E+03  0.25042987333E+03  0.19900000000E+03 0.  0.
<mgrwt>
<rscale>  0 0.46320449E+03</rscale>
<asrwt>0</asrwt>
<pdfrwt beam="1">  1        1 0.38236058E-01 0.46320449E+03</pdfrwt>
<pdfrwt beam="2">  1       -1 0.28629670E-01 0.46320449E+03</pdfrwt>
<totfact> 0.12382501E+03</totfact>
</mgrwt>
</event>
<event>
 4    1  0.6480558E-006  0.5667286E+03  0.7818608E-02  0.9976944E-01
         -1   -1    0    0    0  501 -0.00000000000E+00  0.00000000000E+00  0.97647750771E+02  0.97647750901E+02  0.50400000000E-02 0. -1.
          1   -1    0    0  501    0  0.00000000000E+00 -0.00000000000E+00 -0.82229565239E+03  0.82229565241E+03  0.50400000000E-02 0.  1.
    5000001    1    1    2    0    0 -0.10194288759E+02  0.19903315032E+03 -0.31160666994E+03  0.42002123185E+03  0.19900000000E+03 0.  0.
   -5000001    1    1    2    0    0  0.10194288759E+02 -0.19903315032E+03 -0.41304123168E+03  0.49992217146E+03  0.19900000000E+03 0.  0.
<mgrwt>
<rscale>  0 0.56672858E+03</rscale>
<asrwt>0</asrwt>
<pdfrwt beam="1">  1        1 0.11747080E+00 0.56672858E+03</pdfrwt>
<pdfrwt beam="2">  1       -1 0.13949679E-01 0.56672858E+03</pdfrwt>
<totfact> 0.88886945E+02</totfact>
</mgrwt>
</event>
<event>
 4    1  0.6480558E-006  0.6806817E+03  0.7818608E-02  0.9750852E-01
          1   -1    0    0  501    0  0.00000000000E+00  0.00000000000E+00  0.17230843283E+03  0.17230843290E+03  0.50400000000E-02 0.  1.
         -1   -1    0    0    0  501 -0.00000000000E+00 -0.00000000000E+00 -0.67223578272E+03  0.67223578274E+03  0.50400000000E-02 0. -1.
    5000001    1    1    2    0    0 -0.17276927156E+03  0.21195267057E+03 -0.20259206684E+03  0.39423051798E+03  0.19900000000E+03 0.  0.
   -5000001    1    1    2    0    0  0.17276927156E+03 -0.21195267057E+03 -0.29733528305E+03  0.45031369767E+03  0.19900000000E+03 0.  0.
<mgrwt>
<rscale>  0 0.68068170E+03</rscale>
<asrwt>0</asrwt>
<pdfrwt beam="1">  1        1 0.24615491E-01 0.68068170E+03</pdfrwt>
<pdfrwt beam="2">  1       -1 0.96033682E-01 0.68068170E+03</pdfrwt>
<totfact> 0.21134072E+02</totfact>
</mgrwt>
</event>
<event>
 4    1  0.6480558E-006  0.7428610E+03  0.7818608E-02  0.9646617E-01
          1   -1    0    0  501    0  0.00000000000E+00  0.00000000000E+00  0.13985763739E+04  0.13985763739E+04  0.50400000000E-02 0.  1.
         -1   -1    0    0    0  501 -0.00000000000E+00 -0.00000000000E+00 -0.98643602924E+02  0.98643603053E+02  0.50400000000E-02 0. -1.
    5000001    1    1    2    0    0  0.20045210792E+03  0.21586955957E+03  0.43309029313E+03  0.56031144582E+03  0.19900000000E+03 0.  0.
   -5000001    1    1    2    0    0 -0.20045210792E+03 -0.21586955957E+03  0.86684247786E+03  0.93690853115E+03  0.19900000000E+03 0.  0.
<mgrwt>
<rscale>  0 0.74286099E+03</rscale>
<asrwt>0</asrwt>
<pdfrwt beam="1">  1        1 0.19979661E+00 0.74286099E+03</pdfrwt>
<pdfrwt beam="2">  1       -1 0.14091944E-01 0.74286099E+03</pdfrwt>
<totfact> 0.33489374E+02</totfact>
</mgrwt>
</event>
<event>
 4    1  0.6480558E-006  0.9869008E+03  0.7818608E-02  0.9323030E-01
         -1   -1    0    0    0  501 -0.00000000000E+00  0.00000000000E+00  0.72291132545E+03  0.72291132547E+03  0.50400000000E-02 0.  1.
          1   -1    0    0  501    0  0.00000000000E+00 -0.00000000000E+00 -0.33682318627E+03  0.33682318630E+03  0.50400000000E-02 0. -1.
    5000001    1    1    2    0    0  0.15365217138E+03 -0.29605206007E+03  0.51986857276E+03  0.64893770501E+03  0.19900000000E+03 0.  0.
   -5000001    1    1    2    0    0 -0.15365217138E+03  0.29605206007E+03 -0.13378043357E+03  0.41079680676E+03  0.19900000000E+03 0.  0.
<mgrwt>
<rscale>  0 0.98690080E+03</rscale>
<asrwt>0</asrwt>
<pdfrwt beam="1">  1        1 0.48117599E-01 0.98690080E+03</pdfrwt>
<pdfrwt beam="2">  1       -1 0.10327304E+00 0.98690080E+03</pdfrwt>
<totfact> 0.73745688E+01</totfact>
</mgrwt>
</event>
<event>
 4    1  0.6480558E-006  0.7234194E+03  0.7818608E-02  0.9677999E-01
         -1   -1    0    0    0  501 -0.00000000000E+00  0.00000000000E+00  0.33566536875E+03  0.33566536879E+03  0.50400000000E-02 0. -1.
          1   -1    0    0  501    0  0.00000000000E+00 -0.00000000000E+00 -0.38977478129E+03  0.38977478133E+03  0.50400000000E-02 0.  1.
    5000001    1    1    2    0    0  0.26361867183E+03  0.10415749312E+03  0.77588635701E+02  0.35491489670E+03  0.19900000000E+03 0.  0.
   -5000001    1    1    2    0    0 -0.26361867183E+03 -0.10415749312E+03 -0.13169804824E+03  0.37052525342E+03  0.19900000000E+03 0.  0.
<mgrwt>
<rscale>  0 0.72341937E+03</rscale>
<asrwt>0</asrwt>
<pdfrwt beam="1">  1        1 0.55682111E-01 0.72341937E+03</pdfrwt>
<pdfrwt beam="2">  1       -1 0.47952196E-01 0.72341937E+03</pdfrwt>
<totfact> 0.30123687E+02</totfact>
</mgrwt>
</event>
<event>
 4    1  0.6480558E-006  0.6924226E+03  0.7818608E-02  0.9730279E-01
          1   -1    0    0  501    0  0.00000000000E+00  0.00000000000E+00  0.14334921614E+04  0.14334921614E+04  0.50400000000E-02 0.  1.
         -1   -1    0    0    0  501 -0.00000000000E+00 -0.00000000000E+00 -0.83615559644E+02  0.83615559796E+02  0.50400000000E-02 0. -1.
    5000001    1    1    2    0    0 -0.12689925405E+03 -0.13826599312E+03  0.20994568097E+03  0.34481747996E+03  0.19900000000E+03 0.  0.
   -5000001    1    1    2    0    0  0.12689925405E+03  0.13826599312E+03  0.11399309208E+04  0.11722902413E+04  0.19900000000E+03 0.  0.
<mgrwt>
<rscale>  0 0.69242256E+03</rscale>
<asrwt>0</asrwt>
<pdfrwt beam="1">  1        1 0.20478457E+00 0.69242256E+03</pdfrwt>
<pdfrwt beam="2">  1       -1 0.11945081E-01 0.69242256E+03</pdfrwt>
<totfact> 0.41573043E+02</totfact>
</mgrwt>
</event>
<event>
 4    1  0.6480558E-006  0.4786130E+03  0.7818608E-02  0.1019517E+00
          1   -1    0    0  501    0  0.00000000000E+00  0.00000000000E+00  0.16193773958E+04  0.16193773958E+04  0.50400000000E-02 0.  1.
         -1   -1    0    0    0  501 -0.00000000000E+00 -0.00000000000E+00 -0.35363968477E+02  0.35363968836E+02  0.50400000000E-02 0. -1.
    5000001    1    1    2    0    0  0.62302540708E+02 -0.76580887996E+02  0.10997002664E+04  0.11219126146E+04  0.19900000000E+03 0.  0.
   -5000001    1    1    2    0    0 -0.62302540708E+02  0.76580887996E+02  0.48431316099E+03  0.53282875006E+03  0.19900000000E+03 0.  0.
<mgrwt>
<rscale>  0 0.47861304E+03</rscale>
<asrwt>0</asrwt>
<pdfrwt beam="1">  1        1 0.23133957E+00 0.47861304E+03</pdfrwt>
<pdfrwt beam="2">  1       -1 0.50519968E-02 0.47861304E+03</pdfrwt>
<totfact> 0.12217247E+03</totfact>
</mgrwt>
</event>
<event>
 4    1  0.6480558E-006  0.4587108E+03  0.7818608E-02  0.1025156E+00
          1   -1    0    0  501    0  0.00000000000E+00  0.00000000000E+00  0.19286692602E+03  0.19286692608E+03  0.50400000000E-02 0.  1.
         -1   -1    0    0    0  501 -0.00000000000E+00 -0.00000000000E+00 -0.27274716027E+03  0.27274716032E+03  0.50400000000E-02 0. -1.
    5000001    1    1    2    0    0  0.90460563271E+02 -0.49192874532E+02 -0.89665659308E+02  0.24133790185E+03  0.19900000000E+03 0.  0.
   -5000001    1    1    2    0    0 -0.90460563271E+02  0.49192874532E+02  0.97854250520E+01  0.22427618455E+03  0.19900000000E+03 0.  0.
<mgrwt>
<rscale>  0 0.45871083E+03</rscale>
<asrwt>0</asrwt>
<pdfrwt beam="1">  1        1 0.27552418E-01 0.45871083E+03</pdfrwt>
<pdfrwt beam="2">  1       -1 0.38963880E-01 0.45871083E+03</pdfrwt>
<totfact> 0.10982591E+03</totfact>
</mgrwt>
</event>
<event>
 4    1  0.6480558E-006  0.5262709E+03  0.7818608E-02  0.1007141E+00
         -1   -1    0    0    0  501 -0.00000000000E+00  0.00000000000E+00  0.66785381814E+02  0.66785382004E+02  0.50400000000E-02 0. -1.
          1   -1    0    0  501    0  0.00000000000E+00 -0.00000000000E+00 -0.10367579672E+04  0.10367579672E+04  0.50400000000E-02 0.  1.
    5000001    1    1    2    0    0 -0.65127421045E+02  0.12688399803E+03 -0.28278766426E+03  0.37404677914E+03  0.19900000000E+03 0.  0.
   -5000001    1    1    2    0    0  0.65127421045E+02 -0.12688399803E+03 -0.68718492108E+03  0.72949657003E+03  0.19900000000E+03 0.  0.
<mgrwt>
<rscale>  0 0.52627094E+03</rscale>
<asrwt>0</asrwt>
<pdfrwt beam="1">  1        1 0.14810827E+00 0.52627094E+03</pdfrwt>
<pdfrwt beam="2">  1       -1 0.95407695E-02 0.52627094E+03</pdfrwt>
<totfact> 0.11138231E+03</totfact>
</mgrwt>
</event>
<event>
 4    1  0.6480558E-006  0.6870270E+03  0.7818608E-02  0.9739679E-01
          1   -1    0    0  501    0  0.00000000000E+00  0.00000000000E+00  0.13076360918E+04  0.13076360918E+04  0.50400000000E-02 0.  1.
         -1   -1    0    0    0  501 -0.00000000000E+00 -0.00000000000E+00 -0.90240335591E+02  0.90240335732E+02  0.50400000000E-02 0. -1.
    5000001    1    1    2    0    0  0.15584388007E+03 -0.26002409690E+02  0.10790426737E+04  0.11085565083E+04  0.19900000000E+03 0.  0.
   -5000001    1    1    2    0    0 -0.15584388007E+03  0.26002409690E+02  0.13835308248E+03  0.28931991928E+03  0.19900000000E+03 0.  0.
<mgrwt>
<rscale>  0 0.68702699E+03</rscale>
<asrwt>0</asrwt>
<pdfrwt beam="1">  1        1 0.18680514E+00 0.68702699E+03</pdfrwt>
<pdfrwt beam="2">  1       -1 0.12891478E-01 0.68702699E+03</pdfrwt>
<totfact> 0.44548125E+02</totfact>
</mgrwt>
</event>
<event>
 4    1  0.6480558E-006  0.4432688E+03  0.7818608E-02  0.1029749E+00
         -1   -1    0    0    0  501 -0.00000000000E+00  0.00000000000E+00  0.26071839101E+03  0.26071839106E+03  0.50400000000E-02 0. -1.
          1   -1    0    0  501    0  0.00000000000E+00 -0.00000000000E+00 -0.18840946114E+03  0.18840946120E+03  0.50400000000E-02 0.  1.
    5000001    1    1    2    0    0  0.95588338504E+02 -0.15929616813E+02  0.24605184967E+02  0.22270450888E+03  0.19900000000E+03 0.  0.
   -5000001    1    1    2    0    0 -0.95588338504E+02  0.15929616813E+02  0.47703744911E+02  0.22642334338E+03  0.19900000000E+03 0.  0.
<mgrwt>
<rscale>  0 0.44326882E+03</rscale>
<asrwt>0</asrwt>
<pdfrwt beam="1">  1        1 0.26915637E-01 0.44326882E+03</pdfrwt>
<pdfrwt beam="2">  1       -1 0.37245485E-01 0.44326882E+03</pdfrwt>
<totfact> 0.12265339E+03</totfact>
</mgrwt>
</event>
<event>
 4    1  0.6480558E-006  0.4734186E+03  0.7818608E-02  0.1020960E+00
          1   -1    0    0  501    0  0.00000000000E+00  0.00000000000E+00  0.90243681018E+03  0.90243681019E+03  0.50400000000E-02 0. -1.
         -1   -1    0    0    0  501 -0.00000000000E+00 -0.00000000000E+00 -0.62088891708E+02  0.62088891913E+02  0.50400000000E-02 0.  1.
    5000001    1    1    2    0    0 -0.38787663852E+02  0.10154891397E+03  0.55855931999E+03  0.60283179971E+03  0.19900000000E+03 0.  0.
   -5000001    1    1    2    0    0  0.38787663852E+02 -0.10154891397E+03  0.28178859848E+03  0.36169390239E+03  0.19900000000E+03 0.  0.
<mgrwt>
<rscale>  0 0.47341864E+03</rscale>
<asrwt>0</asrwt>
<pdfrwt beam="1">  1        1 0.12891955E+00 0.47341864E+03</pdfrwt>
<pdfrwt beam="2">  1       -1 0.88698416E-02 0.47341864E+03</pdfrwt>
<totfact> 0.15742071E+03</totfact>
</mgrwt>
</event>
<event>
 4    1  0.6480558E-006  0.5123692E+03  0.7818608E-02  0.1010600E+00
         -1   -1    0    0    0  501 -0.00000000000E+00  0.00000000000E+00  0.54860913033E+03  0.54860913035E+03  0.50400000000E-02 0. -1.
          1   -1    0    0  501    0  0.00000000000E+00 -0.00000000000E+00 -0.11963077707E+03  0.11963077717E+03  0.50400000000E-02 0.  1.
    5000001    1    1    2    0    0 -0.72468119208E+02 -0.98246594829E+02  0.76923687984E+02  0.24580942917E+03  0.19900000000E+03 0.  0.
   -5000001    1    1    2    0    0  0.72468119208E+02  0.98246594829E+02  0.35205466528E+03  0.42243047835E+03  0.19900000000E+03 0.  0.
<mgrwt>
<rscale>  0 0.51236915E+03</rscale>
<asrwt>0</asrwt>
<pdfrwt beam="1">  1        1 0.17090111E-01 0.51236915E+03</pdfrwt>
<pdfrwt beam="2">  1       -1 0.78372734E-01 0.51236915E+03</pdfrwt>
<totfact> 0.53357105E+02</totfact>
</mgrwt>
</event>
<event>
 4    1  0.6480558E-006  0.4766558E+03  0.7818608E-02  0.1020058E+00
         -1   -1    0    0    0  501 -0.00000000000E+00  0.00000000000E+00  0.40024663280E+03  0.40024663283E+03  0.50400000000E-02 0.  1.
          1   -1    0    0  501    0  0.00000000000E+00 -0.00000000000E+00 -0.14191295309E+03  0.14191295318E+03  0.50400000000E-02 0. -1.
    5000001    1    1    2    0    0 -0.41970436338E+02 -0.11771507052E+03  0.17439035951E+03  0.29262835277E+03  0.19900000000E+03 0.  0.
   -5000001    1    1    2    0    0  0.41970436338E+02  0.11771507052E+03  0.83943320195E+02  0.24953123324E+03  0.19900000000E+03 0.  0.
<mgrwt>
<rscale>  0 0.47665577E+03</rscale>
<asrwt>0</asrwt>
<pdfrwt beam="1">  1        1 0.20273279E-01 0.47665577E+03</pdfrwt>
<pdfrwt beam="2">  1       -1 0.57178090E-01 0.47665577E+03</pdfrwt>
<totfact> 0.80263460E+02</totfact>
</mgrwt>
</event>
<event>
 4    1  0.6480558E-006  0.5954070E+03  0.7818608E-02  0.9914981E-01
         -1   -1    0    0    0  501 -0.00000000000E+00  0.00000000000E+00  0.59491690222E+03  0.59491690225E+03  0.50400000000E-02 0. -1.
          1   -1    0    0  501    0  0.00000000000E+00 -0.00000000000E+00 -0.14897436502E+03  0.14897436511E+03  0.50400000000E-02 0.  1.
    5000001    1    1    2    0    0 -0.71199156321E+02  0.13932182953E+03  0.27226523071E+02  0.25460199450E+03  0.19900000000E+03 0.  0.
   -5000001    1    1    2    0    0  0.71199156321E+02 -0.13932182953E+03  0.41871601413E+03  0.48928927286E+03  0.19900000000E+03 0.  0.
<mgrwt>
<rscale>  0 0.59540698E+03</rscale>
<asrwt>0</asrwt>
<pdfrwt beam="1">  1        1 0.21282052E-01 0.59540698E+03</pdfrwt>
<pdfrwt beam="2">  1       -1 0.84988130E-01 0.59540698E+03</pdfrwt>
<totfact> 0.33556026E+02</totfact>
</mgrwt>
</event>
<event>
 4    1  0.6480558E-006  0.5335489E+03  0.7818608E-02  0.1005375E+00
          1   -1    0    0  501    0  0.00000000000E+00  0.00000000000E+00  0.81407599545E+03  0.81407599546E+03  0.50400000000E-02 0. -1.
         -1   -1    0    0    0  501 -0.00000000000E+00 -0.00000000000E+00 -0.87422564697E+02  0.87422564842E+02  0.50400000000E-02 0.  1.
    5000001    1    1    2    0    0  0.13295429689E+03 -0.79261539369E+02  0.21594732905E+03  0.33195404141E+03  0.19900000000E+03 0.  0.
   -5000001    1    1    2    0    0 -0.13295429689E+03  0.79261539369E+02  0.51070610171E+03  0.56954451890E+03  0.19900000000E+03 0.  0.
<mgrwt>
<rscale>  0 0.53354892E+03</rscale>
<asrwt>0</asrwt>
<pdfrwt beam="1">  1        1 0.11629657E+00 0.53354892E+03</pdfrwt>
<pdfrwt beam="2">  1       -1 0.12488938E-01 0.53354892E+03</pdfrwt>
<totfact> 0.10785400E+03</totfact>
</mgrwt>
</event>
<event>
 4    1  0.6480558E-006  0.6903055E+03  0.7818608E-02  0.9733956E-01
          1   -1    0    0  501    0  0.00000000000E+00  0.00000000000E+00  0.15434733684E+04  0.15434733684E+04  0.50400000000E-02 0.  1.
         -1   -1    0    0    0  501 -0.00000000000E+00 -0.00000000000E+00 -0.77183332208E+02  0.77183332373E+02  0.50400000000E-02 0. -1.
    5000001    1    1    2    0    0  0.20996269819E+03 -0.15458849471E+03  0.98543111665E+03  0.10385843360E+04  0.19900000000E+03 0.  0.
   -5000001    1    1    2    0    0 -0.20996269819E+03  0.15458849471E+03  0.48085891950E+03  0.58207236474E+03  0.19900000000E+03 0.  0.
<mgrwt>
<rscale>  0 0.69030549E+03</rscale>
<asrwt>0</asrwt>
<pdfrwt beam="1">  1        1 0.22049619E+00 0.69030549E+03</pdfrwt>
<pdfrwt beam="2">  1       -1 0.11026190E-01 0.69030549E+03</pdfrwt>
<totfact> 0.40118247E+02</totfact>
</mgrwt>
</event>
<event>
 4    1  0.6480558E-006  0.9634990E+03  0.7818608E-02  0.9349510E-01
          1   -1    0    0  501    0  0.00000000000E+00  0.00000000000E+00  0.10025788279E+04  0.10025788279E+04  0.50400000000E-02 0.  1.
         -1   -1    0    0    0  501 -0.00000000000E+00 -0.00000000000E+00 -0.23148560610E+03  0.23148560615E+03  0.50400000000E-02 0. -1.
    5000001    1    1    2    0    0  0.74626192650E+02 -0.40256214811E+03  0.58747811809E+03  0.74320716557E+03  0.19900000000E+03 0.  0.
   -5000001    1    1    2    0    0 -0.74626192650E+02  0.40256214811E+03  0.18361510372E+03  0.49085726850E+03  0.19900000000E+03 0.  0.
<mgrwt>
<rscale>  0 0.96349897E+03</rscale>
<asrwt>0</asrwt>
<pdfrwt beam="1">  1        1 0.14322555E+00 0.96349897E+03</pdfrwt>
<pdfrwt beam="2">  1       -1 0.33069372E-01 0.96349897E+03</pdfrwt>
<totfact> 0.14785179E+02</totfact>
</mgrwt>
</event>
<event>
 4    1  0.6480558E-006  0.4896219E+03  0.7818608E-02  0.1016524E+00
          1   -1    0    0  501    0  0.00000000000E+00  0.00000000000E+00  0.88010339704E+03  0.88010339706E+03  0.50400000000E-02 0. -1.
         -1   -1    0    0    0  501 -0.00000000000E+00 -0.00000000000E+00 -0.68096986764E+02  0.68096986951E+02  0.50400000000E-02 0.  1.
    5000001    1    1    2    0    0  0.13731112457E+03 -0.34957644399E+02  0.37507776195E+03  0.44761669913E+03  0.19900000000E+03 0.  0.
   -5000001    1    1    2    0    0 -0.13731112457E+03  0.34957644399E+02  0.43692864833E+03  0.50058368488E+03  0.19900000000E+03 0.  0.
<mgrwt>
<rscale>  0 0.48962185E+03</rscale>
<asrwt>0</asrwt>
<pdfrwt beam="1">  1        1 0.12572905E+00 0.48962185E+03</pdfrwt>
<pdfrwt beam="2">  1       -1 0.97281417E-02 0.48962185E+03</pdfrwt>
<totfact> 0.14179458E+03</totfact>
</mgrwt>
</event>
<event>
 4    1  0.6480558E-006  0.8798128E+03  0.7818608E-02  0.9451174E-01
         -1   -1    0    0    0  501 -0.00000000000E+00  0.00000000000E+00  0.23116397497E+03  0.23116397502E+03  0.50400000000E-02 0. -1.
          1   -1    0    0  501    0  0.00000000000E+00 -0.00000000000E+00 -0.83714436555E+03  0.83714436556E+03  0.50400000000E-02 0.  1.
    5000001    1    1    2    0    0  0.36087435683E+03 -0.88611024866E+02 -0.45578452185E+03  0.62082424687E+03  0.19900000000E+03 0.  0.
   -5000001    1    1    2    0    0 -0.36087435683E+03  0.88611024866E+02 -0.15019586873E+03  0.44748409371E+03  0.19900000000E+03 0.  0.
<mgrwt>
<rscale>  0 0.87981275E+03</rscale>
<asrwt>0</asrwt>
<pdfrwt beam="1">  1        1 0.11959205E+00 0.87981275E+03</pdfrwt>
<pdfrwt beam="2">  1       -1 0.33023425E-01 0.87981275E+03</pdfrwt>
<totfact> 0.20053278E+02</totfact>
</mgrwt>
</event>
<event>
 4    1  0.6480558E-006  0.1253700E+04  0.7818608E-02  0.9067109E-01
          1   -1    0    0  501    0  0.00000000000E+00  0.00000000000E+00  0.96927817320E+03  0.96927817321E+03  0.50400000000E-02 0.  1.
         -1   -1    0    0    0  501 -0.00000000000E+00 -0.00000000000E+00 -0.40539545822E+03  0.40539545826E+03  0.50400000000E-02 0. -1.
    5000001    1    1    2    0    0 -0.49145329754E+03  0.19829585565E+03 -0.13282959997E+02  0.56623760654E+03  0.19900000000E+03 0.  0.
   -5000001    1    1    2    0    0  0.49145329754E+03 -0.19829585565E+03  0.57716567497E+03  0.80843602492E+03  0.19900000000E+03 0.  0.
<mgrwt>
<rscale>  0 0.12537001E+04</rscale>
<asrwt>0</asrwt>
<pdfrwt beam="1">  1        1 0.13846831E+00 0.12537001E+04</pdfrwt>
<pdfrwt beam="2">  1       -1 0.57913637E-01 0.12537001E+04</pdfrwt>
<totfact> 0.54249600E+01</totfact>
</mgrwt>
</event>
<event>
 4    1  0.6480558E-006  0.5314125E+03  0.7818608E-02  0.1005890E+00
         -1   -1    0    0    0  501 -0.00000000000E+00  0.00000000000E+00  0.54587533894E+02  0.54587534126E+02  0.50400000000E-02 0. -1.
          1   -1    0    0  501    0  0.00000000000E+00 -0.00000000000E+00 -0.12933322983E+04  0.12933322983E+04  0.50400000000E-02 0.  1.
    5000001    1    1    2    0    0  0.79376998471E+02 -0.12561790299E+03 -0.85890916970E+03  0.89409536808E+03  0.19900000000E+03 0.  0.
   -5000001    1    1    2    0    0 -0.79376998471E+02  0.12561790299E+03 -0.37983559471E+03  0.45382446435E+03  0.19900000000E+03 0.  0.
<mgrwt>
<rscale>  0 0.53141254E+03</rscale>
<asrwt>0</asrwt>
<pdfrwt beam="1">  1        1 0.18476174E+00 0.53141254E+03</pdfrwt>
<pdfrwt beam="2">  1       -1 0.77982200E-02 0.53141254E+03</pdfrwt>
<totfact> 0.10140771E+03</totfact>
</mgrwt>
</event>
<event>
 4    1  0.6480558E-006  0.5160355E+03  0.7818608E-02  0.1009676E+00
         -1   -1    0    0    0  501 -0.00000000000E+00  0.00000000000E+00  0.47182517458E+02  0.47182517727E+02  0.50400000000E-02 0. -1.
          1   -1    0    0  501    0  0.00000000000E+00 -0.00000000000E+00 -0.14109709469E+04  0.14109709469E+04  0.50400000000E-02 0.  1.
    5000001    1    1    2    0    0 -0.16229706165E+03 -0.19787201524E+02 -0.72569614790E+03  0.77004400436E+03  0.19900000000E+03 0.  0.
   -5000001    1    1    2    0    0  0.16229706165E+03  0.19787201524E+02 -0.63809228149E+03  0.68810946023E+03  0.19900000000E+03 0.  0.
<mgrwt>
<rscale>  0 0.51603551E+03</rscale>
<asrwt>0</asrwt>
<pdfrwt beam="1">  1        1 0.20156725E+00 0.51603551E+03</pdfrwt>
<pdfrwt beam="2">  1       -1 0.67403605E-02 0.51603551E+03</pdfrwt>
<totfact> 0.10644779E+03</totfact>
</mgrwt>
</event>
<event>
 4    1  0.6480558E-006  0.7399089E+03  0.7818608E-02  0.9651316E-01
         -1   -1    0    0    0  501 -0.00000000000E+00  0.00000000000E+00  0.17734278028E+03  0.17734278035E+03  0.50400000000E-02 0.  1.
          1   -1    0    0  501    0  0.00000000000E+00 -0.00000000000E+00 -0.77176136946E+03  0.77176136948E+03  0.50400000000E-02 0. -1.
    5000001    1    1    2    0    0 -0.15985760047E+03  0.20452925885E+03 -0.75483616343E+02  0.33568653010E+03  0.19900000000E+03 0.  0.
   -5000001    1    1    2    0    0  0.15985760047E+03 -0.20452925885E+03 -0.51893497284E+03  0.61341761973E+03  0.19900000000E+03 0.  0.
<mgrwt>
<rscale>  0 0.73990893E+03</rscale>
<asrwt>0</asrwt>
<pdfrwt beam="1">  1        1 0.11025162E+00 0.73990893E+03</pdfrwt>
<pdfrwt beam="2">  1       -1 0.25334683E-01 0.73990893E+03</pdfrwt>
<totfact> 0.36298793E+02</totfact>
</mgrwt>
</event>
<event>
 4    1  0.6480558E-006  0.9872906E+03  0.7818608E-02  0.9322595E-01
          1   -1    0    0  501    0  0.00000000000E+00  0.00000000000E+00  0.77703154661E+03  0.77703154663E+03  0.50400000000E-02 0.  1.
         -1   -1    0    0    0  501 -0.00000000000E+00 -0.00000000000E+00 -0.31361105055E+03  0.31361105059E+03  0.50400000000E-02 0. -1.
    5000001    1    1    2    0    0 -0.18003916061E+03  0.41428379229E+03  0.23865480613E+03  0.54827208245E+03  0.19900000000E+03 0.  0.
   -5000001    1    1    2    0    0  0.18003916061E+03 -0.41428379229E+03  0.22476568993E+03  0.54237051476E+03  0.19900000000E+03 0.  0.
<mgrwt>
<rscale>  0 0.98729059E+03</rscale>
<asrwt>0</asrwt>
<pdfrwt beam="1">  1        1 0.11100450E+00 0.98729059E+03</pdfrwt>
<pdfrwt beam="2">  1       -1 0.44801579E-01 0.98729059E+03</pdfrwt>
<totfact> 0.12876939E+02</totfact>
</mgrwt>
</event>
<event>
 4    1  0.6480558E-006  0.1063091E+04  0.7818608E-02  0.9241932E-01
         -1   -1    0    0    0  501 -0.00000000000E+00  0.00000000000E+00  0.31268507304E+03  0.31268507308E+03  0.50400000000E-02 0. -1.
          1   -1    0    0  501    0  0.00000000000E+00 -0.00000000000E+00 -0.90359418557E+03  0.90359418558E+03  0.50400000000E-02 0.  1.
    5000001    1    1    2    0    0 -0.33990220321E+03 -0.81111940672E+02  0.10223536085E+03  0.41492857660E+03  0.19900000000E+03 0.  0.
   -5000001    1    1    2    0    0  0.33990220321E+03  0.81111940672E+02 -0.69314447338E+03  0.80135068206E+03  0.19900000000E+03 0.  0.
<mgrwt>
<rscale>  0 0.10630906E+04</rscale>
<asrwt>0</asrwt>
<pdfrwt beam="1">  1        1 0.12908488E+00 0.10630906E+04</pdfrwt>
<pdfrwt beam="2">  1       -1 0.44669297E-01 0.10630906E+04</pdfrwt>
<totfact> 0.10143802E+02</totfact>
</mgrwt>
</event>
<event>
 4    1  0.6480558E-006  0.4799905E+03  0.7818608E-02  0.1019138E+00
         -1   -1    0    0    0  501 -0.00000000000E+00  0.00000000000E+00  0.18875547985E+02  0.18875548658E+02  0.50400000000E-02 0.  1.
          1   -1    0    0  501    0  0.00000000000E+00 -0.00000000000E+00 -0.30514462760E+04  0.30514462760E+04  0.50400000000E-02 0. -1.
    5000001    1    1    2    0    0  0.12133537620E+03 -0.50225233002E+02 -0.16916830315E+04  0.17084019804E+04  0.19900000000E+03 0.  0.
   -5000001    1    1    2    0    0 -0.12133537620E+03  0.50225233002E+02 -0.13408876965E+04  0.13619198443E+04  0.19900000000E+03 0.  0.
<mgrwt>
<rscale>  0 0.47999051E+03</rscale>
<asrwt>0</asrwt>
<pdfrwt beam="1">  1        1 0.43592058E+00 0.47999051E+03</pdfrwt>
<pdfrwt beam="2">  1       -1 0.26965088E-02 0.47999051E+03</pdfrwt>
<totfact> 0.40431072E+02</totfact>
</mgrwt>
</event>
<event>
 4    1  0.6480558E-006  0.8070339E+03  0.7818608E-02  0.9549891E-01
         -1   -1    0    0    0  501 -0.00000000000E+00  0.00000000000E+00  0.17116796930E+03  0.17116796938E+03  0.50400000000E-02 0. -1.
          1   -1    0    0  501    0  0.00000000000E+00 -0.00000000000E+00 -0.95126390676E+03  0.95126390677E+03  0.50400000000E-02 0.  1.
    5000001    1    1    2    0    0 -0.16072169829E+03  0.31161733625E+03 -0.41365420868E+03  0.57762239648E+03  0.19900000000E+03 0.  0.
   -5000001    1    1    2    0    0  0.16072169829E+03 -0.31161733625E+03 -0.36644172877E+03  0.54480947967E+03  0.19900000000E+03 0.  0.
<mgrwt>
<rscale>  0 0.80703386E+03</rscale>
<asrwt>0</asrwt>
<pdfrwt beam="1">  1        1 0.13589484E+00 0.80703386E+03</pdfrwt>
<pdfrwt beam="2">  1       -1 0.24452568E-01 0.80703386E+03</pdfrwt>
<totfact> 0.27540242E+02</totfact>
</mgrwt>
</event>
<event>
 4    1  0.6480558E-006  0.9131994E+03  0.7818608E-02  0.9409230E-01
          1   -1    0    0  501    0  0.00000000000E+00  0.00000000000E+00  0.13425520178E+04  0.13425520179E+04  0.50400000000E-02 0.  1.
         -1   -1    0    0    0  501 -0.00000000000E+00 -0.00000000000E+00 -0.15528879668E+03  0.15528879676E+03  0.50400000000E-02 0. -1.
    5000001    1    1    2    0    0  0.40550435338E+03  0.10243725491E+02  0.48553213234E+03  0.66323537757E+03  0.19900000000E+03 0.  0.
   -5000001    1    1    2    0    0 -0.40550435338E+03 -0.10243725491E+02  0.70173108883E+03  0.83460543704E+03  0.19900000000E+03 0.  0.
<mgrwt>
<rscale>  0 0.91319940E+03</rscale>
<asrwt>0</asrwt>
<pdfrwt beam="1">  1        1 0.19179315E+00 0.91319940E+03</pdfrwt>
<pdfrwt beam="2">  1       -1 0.22184113E-01 0.91319940E+03</pdfrwt>
<totfact> 0.17061513E+02</totfact>
</mgrwt>
</event>
<event>
 4    1  0.6480558E-006  0.5864863E+03  0.7818608E-02  0.9933846E-01
          1   -1    0    0  501    0  0.00000000000E+00  0.00000000000E+00  0.48566550192E+03  0.48566550195E+03  0.50400000000E-02 0.  1.
         -1   -1    0    0    0  501 -0.00000000000E+00 -0.00000000000E+00 -0.17705920544E+03  0.17705920551E+03  0.50400000000E-02 0. -1.
    5000001    1    1    2    0    0  0.21099296786E+03 -0.41081476091E+02  0.13894075520E+03  0.32420865753E+03  0.19900000000E+03 0.  0.
   -5000001    1    1    2    0    0 -0.21099296786E+03  0.41081476091E+02  0.16966554128E+03  0.33851604993E+03  0.19900000000E+03 0.  0.
<mgrwt>
<rscale>  0 0.58648631E+03</rscale>
<asrwt>0</asrwt>
<pdfrwt beam="1">  1        1 0.69380787E-01 0.58648631E+03</pdfrwt>
<pdfrwt beam="2">  1       -1 0.25294172E-01 0.58648631E+03</pdfrwt>
<totfact> 0.70552990E+02</totfact>
</mgrwt>
</event>
<event>
 4    1  0.6480558E-006  0.9553973E+03  0.7818608E-02  0.9358864E-01
          1   -1    0    0  501    0  0.00000000000E+00  0.00000000000E+00  0.18948466612E+03  0.18948466619E+03  0.50400000000E-02 0.  1.
         -1   -1    0    0    0  501 -0.00000000000E+00 -0.00000000000E+00 -0.12042978741E+04  0.12042978741E+04  0.50400000000E-02 0. -1.
    5000001    1    1    2    0    0 -0.41570534939E+03  0.50172664095E+02 -0.67543908932E+03  0.81923573965E+03  0.19900000000E+03 0.  0.
   -5000001    1    1    2    0    0  0.41570534939E+03 -0.50172664095E+02 -0.33937411866E+03  0.57454680066E+03  0.19900000000E+03 0.  0.
<mgrwt>
<rscale>  0 0.95539726E+03</rscale>
<asrwt>0</asrwt>
<pdfrwt beam="1">  1        1 0.27069239E-01 0.95539726E+03</pdfrwt>
<pdfrwt beam="2">  1       -1 0.17204255E+00 0.95539726E+03</pdfrwt>
<totfact> 0.42081520E+01</totfact>
</mgrwt>
</event>
<event>
 4    1  0.6480558E-006  0.9375416E+03  0.7818608E-02  0.9379832E-01
          1   -1    0    0  501    0  0.00000000000E+00  0.00000000000E+00  0.87389028862E+03  0.87389028863E+03  0.50400000000E-02 0.  1.
         -1   -1    0    0    0  501 -0.00000000000E+00 -0.00000000000E+00 -0.25145726758E+03  0.25145726763E+03  0.50400000000E-02 0. -1.
    5000001    1    1    2    0    0 -0.33934035041E+03 -0.19441166926E+03  0.11326493220E+03  0.45318618185E+03  0.19900000000E+03 0.  0.
   -5000001    1    1    2    0    0  0.33934035041E+03  0.19441166926E+03  0.50916808884E+03  0.67216137441E+03  0.19900000000E+03 0.  0.
<mgrwt>
<rscale>  0 0.93754160E+03</rscale>
<asrwt>0</asrwt>
<pdfrwt beam="1">  1        1 0.12484147E+00 0.93754160E+03</pdfrwt>
<pdfrwt beam="2">  1       -1 0.35922466E-01 0.93754160E+03</pdfrwt>
<totfact> 0.16066253E+02</totfact>
</mgrwt>
</event>
<event>
 4    1  0.6480558E-006  0.5466294E+03  0.7818608E-02  0.1002277E+00
          1   -1    0    0  501    0  0.00000000000E+00  0.00000000000E+00  0.57280936368E+02  0.57280936590E+02  0.50400000000E-02 0. -1.
         -1   -1    0    0    0  501 -0.00000000000E+00 -0.00000000000E+00 -0.13041151220E+04  0.13041151220E+04  0.50400000000E-02 0.  1.
    5000001    1    1    2    0    0  0.49456012181E+02 -0.61023589693E+02 -0.19980642390E+03  0.29273432096E+03  0.19900000000E+03 0.  0.
   -5000001    1    1    2    0    0 -0.49456012181E+02  0.61023589693E+02 -0.10470277617E+04  0.10686617376E+04  0.19900000000E+03 0.  0.
<mgrwt>
<rscale>  0 0.54662944E+03</rscale>
<asrwt>0</asrwt>
<pdfrwt beam="1">  1        1 0.81829917E-02 0.54662944E+03</pdfrwt>
<pdfrwt beam="2">  1       -1 0.18630214E+00 0.54662944E+03</pdfrwt>
<totfact> 0.17141805E+02</totfact>
</mgrwt>
</event>
<event>
 4    1  0.6480558E-006  0.5212051E+03  0.7818608E-02  0.1008388E+00
          1   -1    0    0  501    0  0.00000000000E+00  0.00000000000E+00  0.10091991927E+04  0.10091991927E+04  0.50400000000E-02 0.  1.
         -1   -1    0    0    0  501 -0.00000000000E+00 -0.00000000000E+00 -0.67294642793E+02  0.67294642981E+02  0.50400000000E-02 0. -1.
    5000001    1    1    2    0    0  0.16817769886E+03 -0.45824485980E+01  0.46512432762E+03  0.53314761312E+03  0.19900000000E+03 0.  0.
   -5000001    1    1    2    0    0 -0.16817769886E+03  0.45824485980E+01  0.47678022231E+03  0.54334622260E+03  0.19900000000E+03 0.  0.
<mgrwt>
<rscale>  0 0.52120514E+03</rscale>
<asrwt>0</asrwt>
<pdfrwt beam="1">  1        1 0.14417131E+00 0.52120514E+03</pdfrwt>
<pdfrwt beam="2">  1       -1 0.96135204E-02 0.52120514E+03</pdfrwt>
<totfact> 0.11528394E+03</totfact>
</mgrwt>
</event>
<event>
 4    1  0.6480558E-006  0.1473513E+04  0.7818608E-02  0.8902260E-01
         -1   -1    0    0    0  501 -0.00000000000E+00  0.00000000000E+00  0.92060047524E+03  0.92060047525E+03  0.50400000000E-02 0. -1.
          1   -1    0    0  501    0  0.00000000000E+00 -0.00000000000E+00 -0.58962636288E+03  0.58962636290E+03  0.50400000000E-02 0.  1.
    5000001    1    1    2    0    0 -0.53603664080E+03 -0.44179098893E+03  0.31292805167E+03  0.78742588458E+03  0.19900000000E+03 0.  0.
   -5000001    1    1    2    0    0  0.53603664080E+03  0.44179098893E+03  0.18046060691E+02  0.72280095357E+03  0.19900000000E+03 0.  0.
<mgrwt>
<rscale>  0 0.14735132E+04</rscale>
<asrwt>0</asrwt>
<pdfrwt beam="1">  1        1 0.84232339E-01 0.14735132E+04</pdfrwt>
<pdfrwt beam="2">  1       -1 0.13151435E+00 0.14735132E+04</pdfrwt>
<totfact> 0.18686979E+01</totfact>
</mgrwt>
</event>
<event>
 4    1  0.6480558E-006  0.4842545E+03  0.7818608E-02  0.1017972E+00
          1   -1    0    0  501    0  0.00000000000E+00  0.00000000000E+00  0.11835499536E+03  0.11835499547E+03  0.50400000000E-02 0.  1.
         -1   -1    0    0    0  501 -0.00000000000E+00 -0.00000000000E+00 -0.49533694445E+03  0.49533694448E+03  0.50400000000E-02 0. -1.
    5000001    1    1    2    0    0  0.12460137940E+03  0.50405117606E+02 -0.14925764254E+03  0.28274551011E+03  0.19900000000E+03 0.  0.
   -5000001    1    1    2    0    0 -0.12460137940E+03 -0.50405117606E+02 -0.22772430655E+03  0.33094642984E+03  0.19900000000E+03 0.  0.
<mgrwt>
<rscale>  0 0.48425449E+03</rscale>
<asrwt>0</asrwt>
<pdfrwt beam="1">  1        1 0.16907857E-01 0.48425449E+03</pdfrwt>
<pdfrwt beam="2">  1       -1 0.70762420E-01 0.48425449E+03</pdfrwt>
<totfact> 0.66845639E+02</totfact>
</mgrwt>
</event>
<event>
 4    1  0.6480558E-006  0.6032078E+03  0.7818608E-02  0.9898773E-01
         -1   -1    0    0    0  501 -0.00000000000E+00  0.00000000000E+00  0.81525881617E+02  0.81525881773E+02  0.50400000000E-02 0.  1.
          1   -1    0    0  501    0  0.00000000000E+00 -0.00000000000E+00 -0.11157797338E+04  0.11157797339E+04  0.50400000000E-02 0. -1.
    5000001    1    1    2    0    0  0.15039965011E+03  0.14597004735E+03 -0.68829617619E+03  0.74651184561E+03  0.19900000000E+03 0.  0.
   -5000001    1    1    2    0    0 -0.15039965011E+03 -0.14597004735E+03 -0.34595767603E+03  0.45079377001E+03  0.19900000000E+03 0.  0.
<mgrwt>
<rscale>  0 0.60320785E+03</rscale>
<asrwt>0</asrwt>
<pdfrwt beam="1">  1        1 0.15939710E+00 0.60320785E+03</pdfrwt>
<pdfrwt beam="2">  1       -1 0.11646555E-01 0.60320785E+03</pdfrwt>
<totfact> 0.71192526E+02</totfact>
</mgrwt>
</event>
<event>
 4    1  0.6480558E-006  0.4391135E+03  0.7818608E-02  0.1031019E+00
         -1   -1    0    0    0  501 -0.00000000000E+00  0.00000000000E+00  0.26021978325E+03  0.26021978330E+03  0.50400000000E-02 0.  1.
          1   -1    0    0  501    0  0.00000000000E+00 -0.00000000000E+00 -0.18524788354E+03  0.18524788361E+03  0.50400000000E-02 0. -1.
    5000001    1    1    2    0    0  0.18116728918E+02  0.90239612259E+02  0.49174861622E+02  0.22470106921E+03  0.19900000000E+03 0.  0.
   -5000001    1    1    2    0    0 -0.18116728918E+02 -0.90239612259E+02  0.25797038093E+02  0.22076659770E+03  0.19900000000E+03 0.  0.
<mgrwt>
<rscale>  0 0.43911349E+03</rscale>
<asrwt>0</asrwt>
<pdfrwt beam="1">  1        1 0.26463984E-01 0.43911349E+03</pdfrwt>
<pdfrwt beam="2">  1       -1 0.37174254E-01 0.43911349E+03</pdfrwt>
<totfact> 0.12577902E+03</totfact>
</mgrwt>
</event>
<event>
 4    1  0.6480558E-006  0.1939400E+04  0.7818608E-02  0.8635489E-01
          1   -1    0    0  501    0  0.00000000000E+00  0.00000000000E+00  0.14067545862E+04  0.14067545862E+04  0.50400000000E-02 0.  1.
         -1   -1    0    0    0  501 -0.00000000000E+00 -0.00000000000E+00 -0.66843061974E+03  0.66843061976E+03  0.50400000000E-02 0. -1.
    5000001    1    1    2    0    0  0.34478500595E+03  0.43109495995E+03  0.11952221224E+04  0.13314940806E+04  0.19900000000E+03 0.  0.
   -5000001    1    1    2    0    0 -0.34478500595E+03 -0.43109495995E+03 -0.45689815603E+03  0.74369112527E+03  0.19900000000E+03 0.  0.
<mgrwt>
<rscale>  0 0.19393997E+04</rscale>
<asrwt>0</asrwt>
<pdfrwt beam="1">  1        1 0.20096494E+00 0.19393997E+04</pdfrwt>
<pdfrwt beam="2">  1       -1 0.95490088E-01 0.19393997E+04</pdfrwt>
<totfact> 0.88727748E+00</totfact>
</mgrwt>
</event>
<event>
 4    1  0.6480558E-006  0.5669169E+03  0.7818608E-02  0.9976524E-01
          1   -1    0    0  501    0  0.00000000000E+00  0.00000000000E+00  0.16858717973E+04  0.16858717973E+04  0.50400000000E-02 0. -1.
         -1   -1    0    0    0  501 -0.00000000000E+00 -0.00000000000E+00 -0.47660026711E+02  0.47660026977E+02  0.50400000000E-02 0.  1.
    5000001    1    1    2    0    0 -0.12802483484E+03  0.55979749705E+02  0.37363227645E+03  0.44578713386E+03  0.19900000000E+03 0.  0.
   -5000001    1    1    2    0    0  0.12802483484E+03 -0.55979749705E+02  0.12645794942E+04  0.12877446905E+04  0.19900000000E+03 0.  0.
<mgrwt>
<rscale>  0 0.56691691E+03</rscale>
<asrwt>0</asrwt>
<pdfrwt beam="1">  1        1 0.24083881E+00 0.56691691E+03</pdfrwt>
<pdfrwt beam="2">  1       -1 0.68085758E-02 0.56691691E+03</pdfrwt>
<totfact> 0.69914047E+02</totfact>
</mgrwt>
</event>
<event>
 4    1  0.6480558E-006  0.6304283E+03  0.7818608E-02  0.9844213E-01
         -1   -1    0    0    0  501 -0.00000000000E+00  0.00000000000E+00  0.16111514400E+03  0.16111514408E+03  0.50400000000E-02 0. -1.
          1   -1    0    0  501    0  0.00000000000E+00 -0.00000000000E+00 -0.61670149628E+03  0.61670149630E+03  0.50400000000E-02 0.  1.
    5000001    1    1    2    0    0  0.14345263367E+02  0.24337798001E+03 -0.20571132911E+03  0.37597443883E+03  0.19900000000E+03 0.  0.
   -5000001    1    1    2    0    0 -0.14345263367E+02 -0.24337798001E+03 -0.24987502317E+03  0.40184220154E+03  0.19900000000E+03 0.  0.
<mgrwt>
<rscale>  0 0.63042827E+03</rscale>
<asrwt>0</asrwt>
<pdfrwt beam="1">  1        1 0.88100213E-01 0.63042827E+03</pdfrwt>
<pdfrwt beam="2">  1       -1 0.23016449E-01 0.63042827E+03</pdfrwt>
<totfact> 0.59558472E+02</totfact>
</mgrwt>
</event>
<event>
 4    1  0.6480558E-006  0.4767548E+03  0.7818608E-02  0.1020031E+00
         -1   -1    0    0    0  501 -0.00000000000E+00  0.00000000000E+00  0.56088923977E+02  0.56088924203E+02  0.50400000000E-02 0. -1.
          1   -1    0    0  501    0  0.00000000000E+00 -0.00000000000E+00 -0.10131017131E+04  0.10131017132E+04  0.50400000000E-02 0.  1.
    5000001    1    1    2    0    0  0.14000376707E+01  0.11010022290E+03 -0.31836905522E+03  0.39125934431E+03  0.19900000000E+03 0.  0.
   -5000001    1    1    2    0    0 -0.14000376707E+01 -0.11010022290E+03 -0.63864373394E+03  0.67793129305E+03  0.19900000000E+03 0.  0.
<mgrwt>
<rscale>  0 0.47675480E+03</rscale>
<asrwt>0</asrwt>
<pdfrwt beam="1">  1        1 0.14472881E+00 0.47675480E+03</pdfrwt>
<pdfrwt beam="2">  1       -1 0.80127040E-02 0.47675480E+03</pdfrwt>
<totfact> 0.15229809E+03</totfact>
</mgrwt>
</event>
<event>
 4    1  0.6480558E-006  0.6973401E+03  0.7818608E-02  0.9721792E-01
          1   -1    0    0  501    0  0.00000000000E+00  0.00000000000E+00  0.14612092075E+03  0.14612092084E+03  0.50400000000E-02 0.  1.
         -1   -1    0    0    0  501 -0.00000000000E+00 -0.00000000000E+00 -0.83198774495E+03  0.83198774497E+03  0.50400000000E-02 0. -1.
    5000001    1    1    2    0    0 -0.96714263302E+02  0.24699616419E+03 -0.19180678039E+03  0.38308170781E+03  0.19900000000E+03 0.  0.
   -5000001    1    1    2    0    0  0.96714263302E+02 -0.24699616419E+03 -0.49406004382E+03  0.59502695800E+03  0.19900000000E+03 0.  0.
<mgrwt>
<rscale>  0 0.69734013E+03</rscale>
<asrwt>0</asrwt>
<pdfrwt beam="1">  1        1 0.20874418E-01 0.69734013E+03</pdfrwt>
<pdfrwt beam="2">  1       -1 0.11885539E+00 0.69734013E+03</pdfrwt>
<totfact> 0.15959228E+02</totfact>
</mgrwt>
</event>
<event>
 4    1  0.6480558E-006  0.9519168E+03  0.7818608E-02  0.9362913E-01
         -1   -1    0    0    0  501 -0.00000000000E+00  0.00000000000E+00  0.38086990047E+03  0.38086990050E+03  0.50400000000E-02 0. -1.
          1   -1    0    0  501    0  0.00000000000E+00 -0.00000000000E+00 -0.59478688079E+03  0.59478688081E+03  0.50400000000E-02 0.  1.
    5000001    1    1    2    0    0 -0.13212822717E+03 -0.16906836267E+03  0.27776033894E+03  0.40347711901E+03  0.19900000000E+03 0.  0.
   -5000001    1    1    2    0    0  0.13212822717E+03  0.16906836267E+03 -0.49167731927E+03  0.57217966230E+03  0.19900000000E+03 0.  0.
<mgrwt>
<rscale>  0 0.95191685E+03</rscale>
<asrwt>0</asrwt>
<pdfrwt beam="1">  1        1 0.84969554E-01 0.95191685E+03</pdfrwt>
<pdfrwt beam="2">  1       -1 0.54409986E-01 0.95191685E+03</pdfrwt>
<totfact> 0.13223754E+02</totfact>
</mgrwt>
</event>
<event>
 4    1  0.6480558E-006  0.5142497E+03  0.7818608E-02  0.1010125E+00
         -1   -1    0    0    0  501 -0.00000000000E+00  0.00000000000E+00  0.10074692244E+03  0.10074692257E+03  0.50400000000E-02 0. -1.
          1   -1    0    0  501    0  0.00000000000E+00 -0.00000000000E+00 -0.65623027384E+03  0.65623027386E+03  0.50400000000E-02 0.  1.
    5000001    1    1    2    0    0 -0.14357980219E+03 -0.74753040260E+02 -0.30361729662E+03  0.39747658979E+03  0.19900000000E+03 0.  0.
   -5000001    1    1    2    0    0  0.14357980219E+03  0.74753040260E+02 -0.25186605478E+03  0.35950060664E+03  0.19900000000E+03 0.  0.
<mgrwt>
<rscale>  0 0.51424967E+03</rscale>
<asrwt>0</asrwt>
<pdfrwt beam="1">  1        1 0.93747180E-01 0.51424967E+03</pdfrwt>
<pdfrwt beam="2">  1       -1 0.14392418E-01 0.51424967E+03</pdfrwt>
<totfact> 0.11827808E+03</totfact>
</mgrwt>
</event>
<event>
 4    1  0.6480558E-006  0.1910707E+04  0.7818608E-02  0.8649545E-01
          1   -1    0    0  501    0  0.00000000000E+00  0.00000000000E+00  0.88706174364E+03  0.88706174365E+03  0.50400000000E-02 0.  1.
         -1   -1    0    0    0  501 -0.00000000000E+00 -0.00000000000E+00 -0.10289027614E+04  0.10289027614E+04  0.50400000000E-02 0. -1.
    5000001    1    1    2    0    0 -0.44305623405E+03  0.81120817372E+03  0.66356700396E+02  0.94781946558E+03  0.19900000000E+03 0.  0.
   -5000001    1    1    2    0    0  0.44305623405E+03 -0.81120817372E+03 -0.20819771817E+03  0.96814503950E+03  0.19900000000E+03 0.  0.
<mgrwt>
<rscale>  0 0.19107070E+04</rscale>
<asrwt>0</asrwt>
<pdfrwt beam="1">  1        1 0.12672311E+00 0.19107070E+04</pdfrwt>
<pdfrwt beam="2">  1       -1 0.14698611E+00 0.19107070E+04</pdfrwt>
<totfact> 0.72949045E+00</totfact>
</mgrwt>
</event>
<event>
 4    1  0.6480558E-006  0.8739657E+03  0.7818608E-02  0.9458724E-01
          1   -1    0    0  501    0  0.00000000000E+00  0.00000000000E+00  0.22238802630E+04  0.22238802630E+04  0.50400000000E-02 0.  1.
         -1   -1    0    0    0  501 -0.00000000000E+00 -0.00000000000E+00 -0.85865236810E+02  0.85865236958E+02  0.50400000000E-02 0. -1.
    5000001    1    1    2    0    0  0.24743559610E+03 -0.76108740940E+02  0.30151087620E+03  0.44443978572E+03  0.19900000000E+03 0.  0.
   -5000001    1    1    2    0    0 -0.24743559610E+03  0.76108740940E+02  0.18365041500E+04  0.18653057142E+04  0.19900000000E+03 0.  0.
<mgrwt>
<rscale>  0 0.87396569E+03</rscale>
<asrwt>0</asrwt>
<pdfrwt beam="1">  1        1 0.31769718E+00 0.87396569E+03</pdfrwt>
<pdfrwt beam="2">  1       -1 0.12266463E-01 0.87396569E+03</pdfrwt>
<totfact> 0.12507309E+02</totfact>
</mgrwt>
</event>
<event>
 4    1  0.6480558E-006  0.4644154E+03  0.7818608E-02  0.1023508E+00
         -1   -1    0    0    0  501 -0.00000000000E+00  0.00000000000E+00  0.16542263131E+02  0.16542263898E+02  0.50400000000E-02 0. -1.
          1   -1    0    0  501    0  0.00000000000E+00 -0.00000000000E+00 -0.32595552104E+04  0.32595552104E+04  0.50400000000E-02 0.  1.
    5000001    1    1    2    0    0  0.44121926004E+02  0.11105475673E+03 -0.16658517216E+04  0.16819461530E+04  0.19900000000E+03 0.  0.
   -5000001    1    1    2    0    0 -0.44121926004E+02 -0.11105475673E+03 -0.15771612257E+04  0.15941513213E+04  0.19900000000E+03 0.  0.
<mgrwt>
<rscale>  0 0.46441542E+03</rscale>
<asrwt>0</asrwt>
<pdfrwt beam="1">  1        1 0.46565033E+00 0.46441542E+03</pdfrwt>
<pdfrwt beam="2">  1       -1 0.23631826E-02 0.46441542E+03</pdfrwt>
<totfact> 0.36059048E+02</totfact>
</mgrwt>
</event>
<event>
 4    1  0.6480558E-006  0.1053632E+04  0.7818608E-02  0.9251602E-01
         -1   -1    0    0    0  501 -0.00000000000E+00  0.00000000000E+00  0.75620527465E+02  0.75620527633E+02  0.50400000000E-02 0. -1.
          1   -1    0    0  501    0  0.00000000000E+00 -0.00000000000E+00 -0.36701039828E+04  0.36701039828E+04  0.50400000000E-02 0.  1.
    5000001    1    1    2    0    0  0.25234667095E+03  0.30706645526E+03 -0.79193575435E+03  0.90814750416E+03  0.19900000000E+03 0.  0.
   -5000001    1    1    2    0    0 -0.25234667095E+03 -0.30706645526E+03 -0.28025477009E+04  0.28375770062E+04  0.19900000000E+03 0.  0.
<mgrwt>
<rscale>  0 0.10536322E+04</rscale>
<asrwt>0</asrwt>
<pdfrwt beam="1">  1        1 0.52430046E+00 0.10536322E+04</pdfrwt>
<pdfrwt beam="2">  1       -1 0.10802935E-01 0.10536322E+04</pdfrwt>
<totfact> 0.16961519E+01</totfact>
</mgrwt>
</event>
<event>
 4    1  0.6480558E-006  0.5376491E+03  0.7818608E-02  0.1004394E+00
         -1   -1    0    0    0  501 -0.00000000000E+00  0.00000000000E+00  0.12527266425E+04  0.12527266425E+04  0.50400000000E-02 0. -1.
          1   -1    0    0  501    0  0.00000000000E+00 -0.00000000000E+00 -0.57687467056E+02  0.57687467276E+02  0.50400000000E-02 0.  1.
    5000001    1    1    2    0    0 -0.34403915691E+02 -0.16667457392E+03  0.74580672488E+03  0.79043830492E+03  0.19900000000E+03 0.  0.
   -5000001    1    1    2    0    0  0.34403915691E+02  0.16667457392E+03  0.44923245053E+03  0.51997580483E+03  0.19900000000E+03 0.  0.
<mgrwt>
<rscale>  0 0.53764906E+03</rscale>
<asrwt>0</asrwt>
<pdfrwt beam="1">  1        1 0.82410668E-02 0.53764906E+03</pdfrwt>
<pdfrwt beam="2">  1       -1 0.17896095E+00 0.53764906E+03</pdfrwt>
<totfact> 0.19128772E+02</totfact>
</mgrwt>
</event>
<event>
 4    1  0.6480558E-006  0.1036471E+04  0.7818608E-02  0.9269424E-01
         -1   -1    0    0    0  501 -0.00000000000E+00  0.00000000000E+00  0.99689801068E+03  0.99689801069E+03  0.50400000000E-02 0. -1.
          1   -1    0    0  501    0  0.00000000000E+00 -0.00000000000E+00 -0.26940372657E+03  0.26940372662E+03  0.50400000000E-02 0.  1.
    5000001    1    1    2    0    0 -0.43442016104E+03  0.12808958957E+03  0.17511049763E+03  0.52477853010E+03  0.19900000000E+03 0.  0.
   -5000001    1    1    2    0    0  0.43442016104E+03 -0.12808958957E+03  0.55238378648E+03  0.74152320721E+03  0.19900000000E+03 0.  0.
<mgrwt>
<rscale>  0 0.10364710E+04</rscale>
<asrwt>0</asrwt>
<pdfrwt beam="1">  1        1 0.38486246E-01 0.10364710E+04</pdfrwt>
<pdfrwt beam="2">  1       -1 0.14241400E+00 0.10364710E+04</pdfrwt>
<totfact> 0.44560330E+01</totfact>
</mgrwt>
</event>
<event>
 4    1  0.6480558E-006  0.5685272E+03  0.7818608E-02  0.9972943E-01
          1   -1    0    0  501    0  0.00000000000E+00  0.00000000000E+00  0.10517018774E+04  0.10517018774E+04  0.50400000000E-02 0.  1.
         -1   -1    0    0    0  501 -0.00000000000E+00 -0.00000000000E+00 -0.76833377498E+02  0.76833377663E+02  0.50400000000E-02 0. -1.
    5000001    1    1    2    0    0 -0.57476513111E+02 -0.18876807359E+03  0.58196500917E+03  0.64592662669E+03  0.19900000000E+03 0.  0.
   -5000001    1    1    2    0    0  0.57476513111E+02  0.18876807359E+03  0.39290349075E+03  0.48260862841E+03  0.19900000000E+03 0.  0.
<mgrwt>
<rscale>  0 0.56852725E+03</rscale>
<asrwt>0</asrwt>
<pdfrwt beam="1">  1        1 0.15024313E+00 0.56852725E+03</pdfrwt>
<pdfrwt beam="2">  1       -1 0.10976196E-01 0.56852725E+03</pdfrwt>
<totfact> 0.87001365E+02</totfact>
</mgrwt>
</event>
<event>
 4    1  0.6480558E-006  0.6334504E+03  0.7818608E-02  0.9838339E-01
          1   -1    0    0  501    0  0.00000000000E+00  0.00000000000E+00  0.54202599139E+03  0.54202599141E+03  0.50400000000E-02 0.  1.
         -1   -1    0    0    0  501 -0.00000000000E+00 -0.00000000000E+00 -0.18507385469E+03  0.18507385476E+03  0.50400000000E-02 0. -1.
    5000001    1    1    2    0    0 -0.24449052862E+03 -0.26086460003E+02  0.16004911553E+03  0.35450365494E+03  0.19900000000E+03 0.  0.
   -5000001    1    1    2    0    0  0.24449052862E+03  0.26086460003E+02  0.19690302117E+03  0.37259619124E+03  0.19900000000E+03 0.  0.
<mgrwt>
<rscale>  0 0.63345036E+03</rscale>
<asrwt>0</asrwt>
<pdfrwt beam="1">  1        1 0.77432285E-01 0.63345036E+03</pdfrwt>
<pdfrwt beam="2">  1       -1 0.26439122E-01 0.63345036E+03</pdfrwt>
<totfact> 0.56323057E+02</totfact>
</mgrwt>
</event>
<event>
 4    1  0.6480558E-006  0.8679266E+03  0.7818608E-02  0.9466587E-01
          1   -1    0    0  501    0  0.00000000000E+00  0.00000000000E+00  0.27284645537E+03  0.27284645541E+03  0.50400000000E-02 0. -1.
         -1   -1    0    0    0  501 -0.00000000000E+00 -0.00000000000E+00 -0.69022020672E+03  0.69022020674E+03  0.50400000000E-02 0.  1.
    5000001    1    1    2    0    0 -0.16780996809E+03  0.29211318896E+03 -0.40706992498E+00  0.39126904588E+03  0.19900000000E+03 0.  0.
   -5000001    1    1    2    0    0  0.16780996809E+03 -0.29211318896E+03 -0.41696668143E+03  0.57179761628E+03  0.19900000000E+03 0.  0.
<mgrwt>
<rscale>  0 0.86792658E+03</rscale>
<asrwt>0</asrwt>
<pdfrwt beam="1">  1        1 0.38978065E-01 0.86792658E+03</pdfrwt>
<pdfrwt beam="2">  1       -1 0.98602886E-01 0.86792658E+03</pdfrwt>
<totfact> 0.10856337E+02</totfact>
</mgrwt>
</event>
<event>
 4    1  0.6480558E-006  0.4984410E+03  0.7818608E-02  0.1014187E+00
         -1   -1    0    0    0  501 -0.00000000000E+00  0.00000000000E+00  0.71422934349E+02  0.71422934527E+02  0.50400000000E-02 0.  1.
          1   -1    0    0  501    0  0.00000000000E+00 -0.00000000000E+00 -0.86962060538E+03  0.86962060540E+03  0.50400000000E-02 0. -1.
    5000001    1    1    2    0    0  0.61226207950E+02 -0.12971456870E+03 -0.48215547134E+03  0.54097080921E+03  0.19900000000E+03 0.  0.
   -5000001    1    1    2    0    0 -0.61226207950E+02  0.12971456870E+03 -0.31604219969E+03  0.40007273071E+03  0.19900000000E+03 0.  0.
<mgrwt>
<rscale>  0 0.49844099E+03</rscale>
<asrwt>0</asrwt>
<pdfrwt beam="1">  1        1 0.12423151E+00 0.49844099E+03</pdfrwt>
<pdfrwt beam="2">  1       -1 0.10203277E-01 0.49844099E+03</pdfrwt>
<totfact> 0.13407267E+03</totfact>
</mgrwt>
</event>
<event>
 4    1  0.6480558E-006  0.5010000E+03  0.7818608E-02  0.1013518E+00
         -1   -1    0    0    0  501 -0.00000000000E+00  0.00000000000E+00  0.39182042730E+02  0.39182043055E+02  0.50400000000E-02 0. -1.
          1   -1    0    0  501    0  0.00000000000E+00 -0.00000000000E+00 -0.16015056132E+04  0.16015056132E+04  0.50400000000E-02 0.  1.
    5000001    1    1    2    0    0 -0.10118971979E+02 -0.12608460699E+03 -0.10580644865E+04  0.10840208390E+04  0.19900000000E+03 0.  0.
   -5000001    1    1    2    0    0  0.10118971979E+02  0.12608460699E+03 -0.50425908396E+03  0.55666681729E+03  0.19900000000E+03 0.  0.
<mgrwt>
<rscale>  0 0.50100005E+03</rscale>
<asrwt>0</asrwt>
<pdfrwt beam="1">  1        1 0.22878647E+00 0.50100005E+03</pdfrwt>
<pdfrwt beam="2">  1       -1 0.55974357E-02 0.50100005E+03</pdfrwt>
<totfact> 0.10710830E+03</totfact>
</mgrwt>
</event>
<event>
 4    1  0.6480558E-006  0.4493736E+03  0.7818608E-02  0.1027909E+00
          1   -1    0    0  501    0  0.00000000000E+00  0.00000000000E+00  0.15076101758E+03  0.15076101766E+03  0.50400000000E-02 0.  1.
         -1   -1    0    0    0  501 -0.00000000000E+00 -0.00000000000E+00 -0.33486209306E+03  0.33486209310E+03  0.50400000000E-02 0. -1.
    5000001    1    1    2    0    0 -0.58194648133E+02  0.82568591188E+02 -0.63891739555E+02  0.23213647646E+03  0.19900000000E+03 0.  0.
   -5000001    1    1    2    0    0  0.58194648133E+02 -0.82568591188E+02 -0.12020933592E+03  0.25348663429E+03  0.19900000000E+03 0.  0.
<mgrwt>
<rscale>  0 0.44937356E+03</rscale>
<asrwt>0</asrwt>
<pdfrwt beam="1">  1        1 0.21537288E-01 0.44937356E+03</pdfrwt>
<pdfrwt beam="2">  1       -1 0.47837441E-01 0.44937356E+03</pdfrwt>
<totfact> 0.10393272E+03</totfact>
</mgrwt>
</event>
<event>
 4    1  0.6480558E-006  0.5841404E+03  0.7818608E-02  0.9938867E-01
         -1   -1    0    0    0  501 -0.00000000000E+00  0.00000000000E+00  0.22014093581E+03  0.22014093587E+03  0.50400000000E-02 0. -1.
          1   -1    0    0  501    0  0.00000000000E+00 -0.00000000000E+00 -0.38750179154E+03  0.38750179157E+03  0.50400000000E-02 0.  1.
    5000001    1    1    2    0    0 -0.84433874093E+02  0.16190974115E+03 -0.19932976769E+03  0.33567424635E+03  0.19900000000E+03 0.  0.
   -5000001    1    1    2    0    0  0.84433874093E+02 -0.16190974115E+03  0.31968911966E+02  0.27196848109E+03  0.19900000000E+03 0.  0.
<mgrwt>
<rscale>  0 0.58414042E+03</rscale>
<asrwt>0</asrwt>
<pdfrwt beam="1">  1        1 0.55357399E-01 0.58414042E+03</pdfrwt>
<pdfrwt beam="2">  1       -1 0.31448705E-01 0.58414042E+03</pdfrwt>
<totfact> 0.65323631E+02</totfact>
</mgrwt>
</event>
<event>
 4    1  0.6480558E-006  0.5763988E+03  0.7818608E-02  0.9955618E-01
          1   -1    0    0  501    0  0.00000000000E+00  0.00000000000E+00  0.14982519772E+03  0.14982519781E+03  0.50400000000E-02 0.  1.
         -1   -1    0    0    0  501 -0.00000000000E+00 -0.00000000000E+00 -0.55437195884E+03  0.55437195886E+03  0.50400000000E-02 0. -1.
    5000001    1    1    2    0    0  0.45502001725E+02  0.19770342017E+03 -0.26087531579E+03  0.38576418302E+03  0.19900000000E+03 0.  0.
   -5000001    1    1    2    0    0 -0.45502001725E+02 -0.19770342017E+03 -0.14367144532E+03  0.31843297365E+03  0.19900000000E+03 0.  0.
<mgrwt>
<rscale>  0 0.57639878E+03</rscale>
<asrwt>0</asrwt>
<pdfrwt beam="1">  1        1 0.21403600E-01 0.57639878E+03</pdfrwt>
<pdfrwt beam="2">  1       -1 0.79195993E-01 0.57639878E+03</pdfrwt>
<totfact> 0.38725388E+02</totfact>
</mgrwt>
</event>
<event>
 4    1  0.6480558E-006  0.4685540E+03  0.7818608E-02  0.1022329E+00
         -1   -1    0    0    0  501 -0.00000000000E+00  0.00000000000E+00  0.15088881582E+03  0.15088881591E+03  0.50400000000E-02 0. -1.
          1   -1    0    0  501    0  0.00000000000E+00 -0.00000000000E+00 -0.36374933843E+03  0.36374933846E+03  0.50400000000E-02 0.  1.
    5000001    1    1    2    0    0  0.66561022857E+02  0.96611806230E+02 -0.14925897277E+03  0.27503354672E+03  0.19900000000E+03 0.  0.
   -5000001    1    1    2    0    0 -0.66561022857E+02 -0.96611806230E+02 -0.63601549832E+02  0.23960460765E+03  0.19900000000E+03 0.  0.
<mgrwt>
<rscale>  0 0.46855398E+03</rscale>
<asrwt>0</asrwt>
<pdfrwt beam="1">  1        1 0.51964191E-01 0.46855398E+03</pdfrwt>
<pdfrwt beam="2">  1       -1 0.21555545E-01 0.46855398E+03</pdfrwt>
<totfact> 0.13494574E+03</totfact>
</mgrwt>
</event>
<event>
 4    1  0.6480558E-006  0.5828101E+03  0.7818608E-02  0.9941726E-01
          1   -1    0    0  501    0  0.00000000000E+00  0.00000000000E+00  0.10979307186E+04  0.10979307186E+04  0.50400000000E-02 0.  1.
         -1   -1    0    0    0  501 -0.00000000000E+00 -0.00000000000E+00 -0.77342689712E+02  0.77342689876E+02  0.50400000000E-02 0. -1.
    5000001    1    1    2    0    0 -0.20595995626E+03 -0.53816724978E+02  0.51112918586E+03  0.58836195332E+03  0.19900000000E+03 0.  0.
   -5000001    1    1    2    0    0  0.20595995626E+03  0.53816724978E+02  0.50945884301E+03  0.58691145516E+03  0.19900000000E+03 0.  0.
<mgrwt>
<rscale>  0 0.58281014E+03</rscale>
<asrwt>0</asrwt>
<pdfrwt beam="1">  1        1 0.15684723E+00 0.58281014E+03</pdfrwt>
<pdfrwt beam="2">  1       -1 0.11048957E-01 0.58281014E+03</pdfrwt>
<totfact> 0.79748657E+02</totfact>
</mgrwt>
</event>
<event>
 4    1  0.6480558E-006  0.9867919E+03  0.7818608E-02  0.9323151E-01
          1   -1    0    0  501    0  0.00000000000E+00  0.00000000000E+00  0.10543207626E+04  0.10543207626E+04  0.50400000000E-02 0.  1.
         -1   -1    0    0    0  501 -0.00000000000E+00 -0.00000000000E+00 -0.23089705664E+03  0.23089705669E+03  0.50400000000E-02 0. -1.
    5000001    1    1    2    0    0 -0.20850826512E+03 -0.40027499648E+03  0.42727517389E+03  0.65258014347E+03  0.19900000000E+03 0.  0.
   -5000001    1    1    2    0    0  0.20850826512E+03  0.40027499648E+03  0.39614853209E+03  0.63263767585E+03  0.19900000000E+03 0.  0.
<mgrwt>
<rscale>  0 0.98679189E+03</rscale>
<asrwt>0</asrwt>
<pdfrwt beam="1">  1        1 0.15061725E+00 0.98679189E+03</pdfrwt>
<pdfrwt beam="2">  1       -1 0.32985293E-01 0.98679189E+03</pdfrwt>
<totfact> 0.13580746E+02</totfact>
</mgrwt>
</event>
<event>
 4    1  0.6480558E-006  0.6459622E+03  0.7818608E-02  0.9814385E-01
         -1   -1    0    0    0  501 -0.00000000000E+00  0.00000000000E+00  0.73305279253E+02  0.73305279426E+02  0.50400000000E-02 0. -1.
          1   -1    0    0  501    0  0.00000000000E+00 -0.00000000000E+00 -0.14230461257E+04  0.14230461257E+04  0.50400000000E-02 0.  1.
    5000001    1    1    2    0    0 -0.20429539888E+03 -0.30558943314E+02 -0.10188121235E+04  0.10584184437E+04  0.19900000000E+03 0.  0.
   -5000001    1    1    2    0    0  0.20429539888E+03  0.30558943314E+02 -0.33092872295E+03  0.43793296142E+03  0.19900000000E+03 0.  0.
<mgrwt>
<rscale>  0 0.64596221E+03</rscale>
<asrwt>0</asrwt>
<pdfrwt beam="1">  1        1 0.20329229E+00 0.64596221E+03</pdfrwt>
<pdfrwt beam="2">  1       -1 0.10472184E-01 0.64596221E+03</pdfrwt>
<totfact> 0.52200167E+02</totfact>
</mgrwt>
</event>
<event>
 4    1  0.6480558E-006  0.6930309E+03  0.7818608E-02  0.9729225E-01
          1   -1    0    0  501    0  0.00000000000E+00  0.00000000000E+00  0.65794384613E+03  0.65794384615E+03  0.50400000000E-02 0.  1.
         -1   -1    0    0    0  501 -0.00000000000E+00 -0.00000000000E+00 -0.18249729179E+03  0.18249729186E+03  0.50400000000E-02 0. -1.
    5000001    1    1    2    0    0  0.27893150200E+03 -0.48418470135E+02  0.21586636565E+03  0.40785588004E+03  0.19900000000E+03 0.  0.
   -5000001    1    1    2    0    0 -0.27893150200E+03  0.48418470135E+02  0.25958018869E+03  0.43258525798E+03  0.19900000000E+03 0.  0.
<mgrwt>
<rscale>  0 0.69303094E+03</rscale>
<asrwt>0</asrwt>
<pdfrwt beam="1">  1        1 0.93991980E-01 0.69303094E+03</pdfrwt>
<pdfrwt beam="2">  1       -1 0.26071041E-01 0.69303094E+03</pdfrwt>
<totfact> 0.43862537E+02</totfact>
</mgrwt>
</event>
<event>
 4    1  0.6480558E-006  0.5011730E+03  0.7818608E-02  0.1013473E+00
          1   -1    0    0  501    0  0.00000000000E+00  0.00000000000E+00  0.18967599796E+04  0.18967599796E+04  0.50400000000E-02 0.  1.
         -1   -1    0    0    0  501 -0.00000000000E+00 -0.00000000000E+00 -0.33105710463E+02  0.33105710846E+02  0.50400000000E-02 0. -1.
    5000001    1    1    2    0    0 -0.31459043450E+02 -0.11129800301E+03  0.13133314210E+04  0.13333481684E+04  0.19900000000E+03 0.  0.
   -5000001    1    1    2    0    0  0.31459043450E+02  0.11129800301E+03  0.55032284814E+03  0.59651752201E+03  0.19900000000E+03 0.  0.
<mgrwt>
<rscale>  0 0.50117297E+03</rscale>
<asrwt>0</asrwt>
<pdfrwt beam="1">  1        1 0.27096575E+00 0.50117297E+03</pdfrwt>
<pdfrwt beam="2">  1       -1 0.47293865E-02 0.50117297E+03</pdfrwt>
<totfact> 0.90765445E+02</totfact>
</mgrwt>
</event>
<event>
 4    1  0.6480558E-006  0.7977309E+03  0.7818608E-02  0.9563307E-01
          1   -1    0    0  501    0  0.00000000000E+00  0.00000000000E+00  0.15662126683E+04  0.15662126683E+04  0.50400000000E-02 0.  1.
         -1   -1    0    0    0  501 -0.00000000000E+00 -0.00000000000E+00 -0.10157857964E+03  0.10157857977E+03  0.50400000000E-02 0. -1.
    5000001    1    1    2    0    0 -0.23718524358E+03 -0.16357935477E+03  0.33301781862E+03  0.48323587677E+03  0.19900000000E+03 0.  0.
   -5000001    1    1    2    0    0  0.23718524358E+03  0.16357935477E+03  0.11316162700E+04  0.11845553713E+04  0.19900000000E+03 0.  0.
<mgrwt>
<rscale>  0 0.79773093E+03</rscale>
<asrwt>0</asrwt>
<pdfrwt beam="1">  1        1 0.22374466E+00 0.79773093E+03</pdfrwt>
<pdfrwt beam="2">  1       -1 0.14511226E-01 0.79773093E+03</pdfrwt>
<totfact> 0.24784012E+02</totfact>
</mgrwt>
</event>
<event>
 4    1  0.6480558E-006  0.5127760E+03  0.7818608E-02  0.1010497E+00
         -1   -1    0    0    0  501 -0.00000000000E+00  0.00000000000E+00  0.55193509886E+02  0.55193510117E+02  0.50400000000E-02 0. -1.
          1   -1    0    0  501    0  0.00000000000E+00 -0.00000000000E+00 -0.11909878443E+04  0.11909878443E+04  0.50400000000E-02 0.  1.
    5000001    1    1    2    0    0 -0.13872239954E+03  0.74980342230E+02 -0.48136323636E+03  0.54422194110E+03  0.19900000000E+03 0.  0.
   -5000001    1    1    2    0    0  0.13872239954E+03 -0.74980342230E+02 -0.65443109802E+03  0.70195941329E+03  0.19900000000E+03 0.  0.
<mgrwt>
<rscale>  0 0.51277597E+03</rscale>
<asrwt>0</asrwt>
<pdfrwt beam="1">  1        1 0.17014110E+00 0.51277597E+03</pdfrwt>
<pdfrwt beam="2">  1       -1 0.78847879E-02 0.51277597E+03</pdfrwt>
<totfact> 0.11691222E+03</totfact>
</mgrwt>
</event>
<event>
 4    1  0.6480558E-006  0.5042970E+03  0.7818608E-02  0.1012663E+00
         -1   -1    0    0    0  501 -0.00000000000E+00  0.00000000000E+00  0.77191492051E+02  0.77191492216E+02  0.50400000000E-02 0. -1.
          1   -1    0    0  501    0  0.00000000000E+00 -0.00000000000E+00 -0.82365134642E+03  0.82365134644E+03  0.50400000000E-02 0.  1.
    5000001    1    1    2    0    0 -0.24915526270E+02  0.10991907654E+03 -0.18355114202E+03  0.29324905554E+03  0.19900000000E+03 0.  0.
   -5000001    1    1    2    0    0  0.24915526270E+02 -0.10991907654E+03 -0.56290871235E+03  0.60759378311E+03  0.19900000000E+03 0.  0.
<mgrwt>
<rscale>  0 0.50429704E+03</rscale>
<asrwt>0</asrwt>
<pdfrwt beam="1">  1        1 0.11766447E+00 0.50429704E+03</pdfrwt>
<pdfrwt beam="2">  1       -1 0.11027356E-01 0.50429704E+03</pdfrwt>
<totfact> 0.12912413E+03</totfact>
</mgrwt>
</event>
<event>
 4    1  0.6480558E-006  0.4614493E+03  0.7818608E-02  0.1024362E+00
          1   -1    0    0  501    0  0.00000000000E+00  0.00000000000E+00  0.20753943048E+03  0.20753943054E+03  0.50400000000E-02 0.  1.
         -1   -1    0    0    0  501 -0.00000000000E+00 -0.00000000000E+00 -0.25649995293E+03  0.25649995298E+03  0.50400000000E-02 0. -1.
    5000001    1    1    2    0    0  0.45284259775E+02 -0.50032578592E+02  0.71337992062E+02  0.22190996421E+03  0.19900000000E+03 0.  0.
   -5000001    1    1    2    0    0 -0.45284259775E+02  0.50032578592E+02 -0.12029851451E+03  0.24212941931E+03  0.19900000000E+03 0.  0.
<mgrwt>
<rscale>  0 0.46144926E+03</rscale>
<asrwt>0</asrwt>
<pdfrwt beam="1">  1        1 0.29648490E-01 0.46144926E+03</pdfrwt>
<pdfrwt beam="2">  1       -1 0.36642850E-01 0.46144926E+03</pdfrwt>
<totfact> 0.11151289E+03</totfact>
</mgrwt>
</event>
<event>
 4    1  0.6480558E-006  0.5028406E+03  0.7818608E-02  0.1013040E+00
          1   -1    0    0  501    0  0.00000000000E+00  0.00000000000E+00  0.10633329119E+04  0.10633329119E+04  0.50400000000E-02 0.  1.
         -1   -1    0    0    0  501 -0.00000000000E+00 -0.00000000000E+00 -0.59447212536E+02  0.59447212749E+02  0.50400000000E-02 0. -1.
    5000001    1    1    2    0    0 -0.11169395199E+03 -0.46306511690E+02  0.29021563001E+03  0.37208324853E+03  0.19900000000E+03 0.  0.
   -5000001    1    1    2    0    0  0.11169395199E+03  0.46306511690E+02  0.71367006934E+03  0.75069687611E+03  0.19900000000E+03 0.  0.
<mgrwt>
<rscale>  0 0.50284064E+03</rscale>
<asrwt>0</asrwt>
<pdfrwt beam="1">  1        1 0.15190469E+00 0.50284064E+03</pdfrwt>
<pdfrwt beam="2">  1       -1 0.84924596E-02 0.50284064E+03</pdfrwt>
<totfact> 0.12792863E+03</totfact>
</mgrwt>
</event>
<event>
 4    1  0.6480558E-006  0.6671795E+03  0.7818608E-02  0.9775067E-01
         -1   -1    0    0    0  501 -0.00000000000E+00  0.00000000000E+00  0.14264647952E+04  0.14264647952E+04  0.50400000000E-02 0.  1.
          1   -1    0    0  501    0  0.00000000000E+00 -0.00000000000E+00 -0.78012522577E+02  0.78012522739E+02  0.50400000000E-02 0. -1.
    5000001    1    1    2    0    0  0.54362439796E+02 -0.21444253236E+03  0.10142743565E+04  0.10570214496E+04  0.19900000000E+03 0.  0.
   -5000001    1    1    2    0    0 -0.54362439796E+02  0.21444253236E+03  0.33417791612E+03  0.44745586840E+03  0.19900000000E+03 0.  0.
<mgrwt>
<rscale>  0 0.66717949E+03</rscale>
<asrwt>0</asrwt>
<pdfrwt beam="1">  1        1 0.11144646E-01 0.66717949E+03</pdfrwt>
<pdfrwt beam="2">  1       -1 0.20378068E+00 0.66717949E+03</pdfrwt>
<totfact> 0.84280717E+01</totfact>
</mgrwt>
</event>
<event>
 4    1  0.6480558E-006  0.5462492E+03  0.7818608E-02  0.1002366E+00
          1   -1    0    0  501    0  0.00000000000E+00  0.00000000000E+00  0.34969706996E+03  0.34969707000E+03  0.50400000000E-02 0. -1.
         -1   -1    0    0    0  501 -0.00000000000E+00 -0.00000000000E+00 -0.21331902870E+03  0.21331902876E+03  0.50400000000E-02 0.  1.
    5000001    1    1    2    0    0 -0.15407349707E+03  0.85706944912E+02  0.37255470102E+01  0.26589321655E+03  0.19900000000E+03 0.  0.
   -5000001    1    1    2    0    0  0.15407349707E+03 -0.85706944912E+02  0.13265249425E+03  0.29712288221E+03  0.19900000000E+03 0.  0.
<mgrwt>
<rscale>  0 0.54624917E+03</rscale>
<asrwt>0</asrwt>
<pdfrwt beam="1">  1        1 0.49956724E-01 0.54624917E+03</pdfrwt>
<pdfrwt beam="2">  1       -1 0.30474147E-01 0.54624917E+03</pdfrwt>
<totfact> 0.78879345E+02</totfact>
</mgrwt>
</event>
<event>
 4    1  0.6480558E-006  0.8859671E+03  0.7818608E-02  0.9443295E-01
         -1   -1    0    0    0  501 -0.00000000000E+00  0.00000000000E+00  0.26420969472E+03  0.26420969477E+03  0.50400000000E-02 0.  1.
          1   -1    0    0  501    0  0.00000000000E+00 -0.00000000000E+00 -0.74272220736E+03  0.74272220738E+03  0.50400000000E-02 0. -1.
    5000001    1    1    2    0    0  0.29675438704E+03 -0.15020096951E+02  0.57865702692E+02  0.36226814528E+03  0.19900000000E+03 0.  0.
   -5000001    1    1    2    0    0 -0.29675438704E+03  0.15020096951E+02 -0.53637821533E+03  0.64466375687E+03  0.19900000000E+03 0.  0.
<mgrwt>
<rscale>  0 0.88596706E+03</rscale>
<asrwt>0</asrwt>
<pdfrwt beam="1">  1        1 0.10610317E+00 0.88596706E+03</pdfrwt>
<pdfrwt beam="2">  1       -1 0.37744242E-01 0.88596706E+03</pdfrwt>
<totfact> 0.18991670E+02</totfact>
</mgrwt>
</event>
<event>
 4    1  0.6480558E-006  0.1010689E+04  0.7818608E-02  0.9296899E-01
         -1   -1    0    0    0  501 -0.00000000000E+00  0.00000000000E+00  0.21037154180E+03  0.21037154186E+03  0.50400000000E-02 0. -1.
          1   -1    0    0  501    0  0.00000000000E+00 -0.00000000000E+00 -0.12139134267E+04  0.12139134268E+04  0.50400000000E-02 0.  1.
    5000001    1    1    2    0    0 -0.29618162745E+03  0.31293331398E+03 -0.74634726320E+03  0.88446936223E+03  0.19900000000E+03 0.  0.
   -5000001    1    1    2    0    0  0.29618162745E+03 -0.31293331398E+03 -0.25719462175E+03  0.53981560638E+03  0.19900000000E+03 0.  0.
<mgrwt>
<rscale>  0 0.10106886E+04</rscale>
<asrwt>0</asrwt>
<pdfrwt beam="1">  1        1 0.17341620E+00 0.10106886E+04</pdfrwt>
<pdfrwt beam="2">  1       -1 0.30053078E-01 0.10106886E+04</pdfrwt>
<totfact> 0.12307513E+02</totfact>
</mgrwt>
</event>
<event>
 4    1  0.6480558E-006  0.5319901E+03  0.7818608E-02  0.1005751E+00
          1   -1    0    0  501    0  0.00000000000E+00  0.00000000000E+00  0.21263569692E+04  0.21263569693E+04  0.50400000000E-02 0. -1.
         -1   -1    0    0    0  501 -0.00000000000E+00 -0.00000000000E+00 -0.33274449856E+02  0.33274450238E+02  0.50400000000E-02 0.  1.
    5000001    1    1    2    0    0 -0.52309586931E+02 -0.15252251134E+03  0.75513152835E+03  0.79738575010E+03  0.19900000000E+03 0.  0.
   -5000001    1    1    2    0    0  0.52309586931E+02  0.15252251134E+03  0.13379509910E+04  0.13622456694E+04  0.19900000000E+03 0.  0.
<mgrwt>
<rscale>  0 0.53199007E+03</rscale>
<asrwt>0</asrwt>
<pdfrwt beam="1">  1        1 0.30376530E+00 0.53199007E+03</pdfrwt>
<pdfrwt beam="2">  1       -1 0.47534926E-02 0.53199007E+03</pdfrwt>
<totfact> 0.64933539E+02</totfact>
</mgrwt>
</event>
<event>
 4    1  0.6480558E-006  0.6348735E+03  0.7818608E-02  0.9835584E-01
          1   -1    0    0  501    0  0.00000000000E+00  0.00000000000E+00  0.60708296502E+02  0.60708296711E+02  0.50400000000E-02 0.  1.
         -1   -1    0    0    0  501 -0.00000000000E+00 -0.00000000000E+00 -0.16598404148E+04  0.16598404148E+04  0.50400000000E-02 0. -1.
    5000001    1    1    2    0    0  0.21391502667E+03  0.12165676501E+03 -0.86622910488E+03  0.92223308835E+03  0.19900000000E+03 0.  0.
   -5000001    1    1    2    0    0 -0.21391502667E+03 -0.12165676501E+03 -0.73290301338E+03  0.79831562313E+03  0.19900000000E+03 0.  0.
<mgrwt>
<rscale>  0 0.63487348E+03</rscale>
<asrwt>0</asrwt>
<pdfrwt beam="1">  1        1 0.86726148E-02 0.63487348E+03</pdfrwt>
<pdfrwt beam="2">  1       -1 0.23712003E+00 0.63487348E+03</pdfrwt>
<totfact> 0.71824922E+01</totfact>
</mgrwt>
</event>
<event>
 4    1  0.6480558E-006  0.5996748E+03  0.7818608E-02  0.9906081E-01
          1   -1    0    0  501    0  0.00000000000E+00  0.00000000000E+00  0.29105754073E+03  0.29105754078E+03  0.50400000000E-02 0.  1.
         -1   -1    0    0    0  501 -0.00000000000E+00 -0.00000000000E+00 -0.30888214425E+03  0.30888214429E+03  0.50400000000E-02 0. -1.
    5000001    1    1    2    0    0 -0.20946318669E+03 -0.78121509131E+02 -0.26911371460E+02  0.30050460676E+03  0.19900000000E+03 0.  0.
   -5000001    1    1    2    0    0  0.20946318669E+03  0.78121509131E+02  0.90867679498E+01  0.29943507831E+03  0.19900000000E+03 0.  0.
<mgrwt>
<rscale>  0 0.59967484E+03</rscale>
<asrwt>0</asrwt>
<pdfrwt beam="1">  1        1 0.41579649E-01 0.59967484E+03</pdfrwt>
<pdfrwt beam="2">  1       -1 0.44126021E-01 0.59967484E+03</pdfrwt>
<totfact> 0.51547713E+02</totfact>
</mgrwt>
</event>
<event>
 4    1  0.6480558E-006  0.4495489E+03  0.7818608E-02  0.1027857E+00
          1   -1    0    0  501    0  0.00000000000E+00  0.00000000000E+00  0.33644936382E+04  0.33644936382E+04  0.50400000000E-02 0.  1.
         -1   -1    0    0    0  501 -0.00000000000E+00 -0.00000000000E+00 -0.15016687225E+02  0.15016688071E+02  0.50400000000E-02 0. -1.
    5000001    1    1    2    0    0  0.14693465196E+02  0.10223719935E+03  0.15548794363E+04  0.15709612994E+04  0.19900000000E+03 0.  0.
   -5000001    1    1    2    0    0 -0.14693465196E+02 -0.10223719935E+03  0.17945975146E+04  0.18085490268E+04  0.19900000000E+03 0.  0.
<mgrwt>
<rscale>  0 0.44954889E+03</rscale>
<asrwt>0</asrwt>
<pdfrwt beam="1">  1        1 0.48064279E+00 0.44954889E+03</pdfrwt>
<pdfrwt beam="2">  1       -1 0.21452373E-02 0.44954889E+03</pdfrwt>
<totfact> 0.35525303E+02</totfact>
</mgrwt>
</event>
<event>
 4    1  0.6480558E-006  0.6921626E+03  0.7818608E-02  0.9730730E-01
          1   -1    0    0  501    0  0.00000000000E+00  0.00000000000E+00  0.30455136172E+03  0.30455136176E+03  0.50400000000E-02 0.  1.
         -1   -1    0    0    0  501 -0.00000000000E+00 -0.00000000000E+00 -0.39327441239E+03  0.39327441242E+03  0.50400000000E-02 0. -1.
    5000001    1    1    2    0    0  0.26766669252E+03 -0.82126723981E+02 -0.18143291498E+01  0.34350334622E+03  0.19900000000E+03 0.  0.
   -5000001    1    1    2    0    0 -0.26766669252E+03  0.82126723981E+02 -0.86908721526E+02  0.35432242796E+03  0.19900000000E+03 0.  0.
<mgrwt>
<rscale>  0 0.69216258E+03</rscale>
<asrwt>0</asrwt>
<pdfrwt beam="1">  1        1 0.43507337E-01 0.69216258E+03</pdfrwt>
<pdfrwt beam="2">  1       -1 0.56182059E-01 0.69216258E+03</pdfrwt>
<totfact> 0.30732122E+02</totfact>
</mgrwt>
</event>
<event>
 4    1  0.6480558E-006  0.1858142E+04  0.7818608E-02  0.8675977E-01
         -1   -1    0    0    0  501 -0.00000000000E+00  0.00000000000E+00  0.47668426576E+03  0.47668426579E+03  0.50400000000E-02 0.  1.
          1   -1    0    0  501    0  0.00000000000E+00 -0.00000000000E+00 -0.18107847042E+04  0.18107847042E+04  0.50400000000E-02 0. -1.
    5000001    1    1    2    0    0 -0.80935625443E+03  0.29251187910E+03 -0.31249264315E+03  0.93694898368E+03  0.19900000000E+03 0.  0.
   -5000001    1    1    2    0    0  0.80935625443E+03 -0.29251187910E+03 -0.10216077953E+04  0.13505199863E+04  0.19900000000E+03 0.  0.
<mgrwt>
<rscale>  0 0.18581416E+04</rscale>
<asrwt>0</asrwt>
<pdfrwt beam="1">  1        1 0.25868353E+00 0.18581416E+04</pdfrwt>
<pdfrwt beam="2">  1       -1 0.68097753E-01 0.18581416E+04</pdfrwt>
<totfact> 0.10091721E+01</totfact>
</mgrwt>
</event>
<event>
 4    1  0.6480558E-006  0.8745946E+03  0.7818608E-02  0.9457909E-01
          1   -1    0    0  501    0  0.00000000000E+00  0.00000000000E+00  0.87743811163E+03  0.87743811165E+03  0.50400000000E-02 0.  1.
         -1   -1    0    0    0  501 -0.00000000000E+00 -0.00000000000E+00 -0.21794006014E+03  0.21794006020E+03  0.50400000000E-02 0. -1.
    5000001    1    1    2    0    0  0.16110736088E+03  0.19501090608E+03  0.70052887291E+03  0.77092576620E+03  0.19900000000E+03 0.  0.
   -5000001    1    1    2    0    0 -0.16110736088E+03 -0.19501090608E+03 -0.41030821418E+02  0.32445240564E+03  0.19900000000E+03 0.  0.
<mgrwt>
<rscale>  0 0.87459457E+03</rscale>
<asrwt>0</asrwt>
<pdfrwt beam="1">  1        1 0.12534830E+00 0.87459457E+03</pdfrwt>
<pdfrwt beam="2">  1       -1 0.31134294E-01 0.87459457E+03</pdfrwt>
<totfact> 0.20643366E+02</totfact>
</mgrwt>
</event>
<event>
 4    1  0.6480558E-006  0.5912556E+03  0.7818608E-02  0.9923716E-01
         -1   -1    0    0    0  501 -0.00000000000E+00  0.00000000000E+00  0.15698481362E+03  0.15698481370E+03  0.50400000000E-02 0. -1.
          1   -1    0    0  501    0  0.00000000000E+00 -0.00000000000E+00 -0.55671489258E+03  0.55671489260E+03  0.50400000000E-02 0.  1.
    5000001    1    1    2    0    0  0.21435007464E+03 -0.33962422105E+02 -0.23169619029E+03  0.37467789527E+03  0.19900000000E+03 0.  0.
   -5000001    1    1    2    0    0 -0.21435007464E+03  0.33962422105E+02 -0.16803388866E+03  0.33902181103E+03  0.19900000000E+03 0.  0.
<mgrwt>
<rscale>  0 0.59125556E+03</rscale>
<asrwt>0</asrwt>
<pdfrwt beam="1">  1        1 0.79530698E-01 0.59125556E+03</pdfrwt>
<pdfrwt beam="2">  1       -1 0.22426402E-01 0.59125556E+03</pdfrwt>
<totfact> 0.71822893E+02</totfact>
</mgrwt>
</event>
<event>
 4    1  0.6480558E-006  0.9108498E+03  0.7818608E-02  0.9412119E-01
          1   -1    0    0  501    0  0.00000000000E+00  0.00000000000E+00  0.12649927247E+04  0.12649927248E+04  0.50400000000E-02 0. -1.
         -1   -1    0    0    0  501 -0.00000000000E+00 -0.00000000000E+00 -0.16396287583E+03  0.16396287591E+03  0.50400000000E-02 0.  1.
    5000001    1    1    2    0    0 -0.36238431419E+03  0.42564695252E+02  0.25837504441E+03  0.48938002414E+03  0.19900000000E+03 0.  0.
   -5000001    1    1    2    0    0  0.36238431419E+03 -0.42564695252E+02  0.84265480450E+03  0.93957557652E+03  0.19900000000E+03 0.  0.
<mgrwt>
<rscale>  0 0.91084981E+03</rscale>
<asrwt>0</asrwt>
<pdfrwt beam="1">  1        1 0.18071324E+00 0.91084981E+03</pdfrwt>
<pdfrwt beam="2">  1       -1 0.23423268E-01 0.91084981E+03</pdfrwt>
<totfact> 0.17554045E+02</totfact>
</mgrwt>
</event>
<event>
 4    1  0.6480558E-006  0.7928529E+03  0.7818608E-02  0.9570420E-01
         -1   -1    0    0    0  501 -0.00000000000E+00  0.00000000000E+00  0.88179187989E+02  0.88179188133E+02  0.50400000000E-02 0. -1.
          1   -1    0    0  501    0  0.00000000000E+00 -0.00000000000E+00 -0.17822109108E+04  0.17822109108E+04  0.50400000000E-02 0.  1.
    5000001    1    1    2    0    0 -0.36930969318E+02  0.31165595891E+03 -0.52133199812E+03  0.64021979467E+03  0.19900000000E+03 0.  0.
   -5000001    1    1    2    0    0  0.36930969318E+02 -0.31165595891E+03 -0.11726997247E+04  0.12301703043E+04  0.19900000000E+03 0.  0.
<mgrwt>
<rscale>  0 0.79285285E+03</rscale>
<asrwt>0</asrwt>
<pdfrwt beam="1">  1        1 0.25460154E+00 0.79285285E+03</pdfrwt>
<pdfrwt beam="2">  1       -1 0.12597028E-01 0.79285285E+03</pdfrwt>
<totfact> 0.22740553E+02</totfact>
</mgrwt>
</event>
<event>
 4    1  0.6480558E-006  0.6428535E+03  0.7818608E-02  0.9820282E-01
          1   -1    0    0  501    0  0.00000000000E+00  0.00000000000E+00  0.41068430097E+04  0.41068430098E+04  0.50400000000E-02 0.  1.
         -1   -1    0    0    0  501 -0.00000000000E+00 -0.00000000000E+00 -0.25156829785E+02  0.25156830290E+02  0.50400000000E-02 0. -1.
    5000001    1    1    2    0    0 -0.17634505242E+03  0.17295245115E+03  0.23750793329E+04  0.23961663059E+04  0.19900000000E+03 0.  0.
   -5000001    1    1    2    0    0  0.17634505242E+03 -0.17295245115E+03  0.17066068471E+04  0.17358335342E+04  0.19900000000E+03 0.  0.
<mgrwt>
<rscale>  0 0.64285349E+03</rscale>
<asrwt>0</asrwt>
<pdfrwt beam="1">  1        1 0.58669159E+00 0.64285349E+03</pdfrwt>
<pdfrwt beam="2">  1       -1 0.35938345E-02 0.64285349E+03</pdfrwt>
<totfact> 0.47210680E+01</totfact>
</mgrwt>
</event>
<event>
 4    1  0.6480558E-006  0.6304701E+03  0.7818608E-02  0.9844132E-01
          1   -1    0    0  501    0  0.00000000000E+00  0.00000000000E+00  0.62249451055E+03  0.62249451057E+03  0.50400000000E-02 0.  1.
         -1   -1    0    0    0  501 -0.00000000000E+00 -0.00000000000E+00 -0.15963698069E+03  0.15963698077E+03  0.50400000000E-02 0. -1.
    5000001    1    1    2    0    0  0.48728923535E+02  0.22796433183E+03  0.14001509138E+03  0.33696805544E+03  0.19900000000E+03 0.  0.
   -5000001    1    1    2    0    0 -0.48728923535E+02 -0.22796433183E+03  0.32284243848E+03  0.44516343590E+03  0.19900000000E+03 0.  0.
<mgrwt>
<rscale>  0 0.63047012E+03</rscale>
<asrwt>0</asrwt>
<pdfrwt beam="1">  1        1 0.88927786E-01 0.63047012E+03</pdfrwt>
<pdfrwt beam="2">  1       -1 0.22805283E-01 0.63047012E+03</pdfrwt>
<totfact> 0.59694855E+02</totfact>
</mgrwt>
</event>
<event>
 4    1  0.6480558E-006  0.9495080E+03  0.7818608E-02  0.9365726E-01
         -1   -1    0    0    0  501 -0.00000000000E+00  0.00000000000E+00  0.29149239633E+03  0.29149239637E+03  0.50400000000E-02 0. -1.
          1   -1    0    0  501    0  0.00000000000E+00 -0.00000000000E+00 -0.77323236507E+03  0.77323236509E+03  0.50400000000E-02 0.  1.
    5000001    1    1    2    0    0 -0.40837204999E+03  0.78725625299E+02 -0.11388109620E+03  0.47490563206E+03  0.19900000000E+03 0.  0.
   -5000001    1    1    2    0    0  0.40837204999E+03 -0.78725625299E+02 -0.36785887254E+03  0.58981912940E+03  0.19900000000E+03 0.  0.
<mgrwt>
<rscale>  0 0.94950799E+03</rscale>
<asrwt>0</asrwt>
<pdfrwt beam="1">  1        1 0.11046177E+00 0.94950799E+03</pdfrwt>
<pdfrwt beam="2">  1       -1 0.41641771E-01 0.94950799E+03</pdfrwt>
<totfact> 0.14885165E+02</totfact>
</mgrwt>
</event>
<event>
 4    1  0.6480558E-006  0.6668225E+03  0.7818608E-02  0.9775715E-01
         -1   -1    0    0    0  501 -0.00000000000E+00  0.00000000000E+00  0.14468710991E+03  0.14468711000E+03  0.50400000000E-02 0. -1.
          1   -1    0    0  501    0  0.00000000000E+00 -0.00000000000E+00 -0.76829966170E+03  0.76829966171E+03  0.50400000000E-02 0.  1.
    5000001    1    1    2    0    0  0.33523383568E+02  0.10453106068E+03  0.22200046531E+02  0.22835148775E+03  0.19900000000E+03 0.  0.
   -5000001    1    1    2    0    0 -0.33523383568E+02 -0.10453106068E+03 -0.64581259832E+03  0.68463528396E+03  0.19900000000E+03 0.  0.
<mgrwt>
<rscale>  0 0.66682249E+03</rscale>
<asrwt>0</asrwt>
<pdfrwt beam="1">  1        1 0.10975709E+00 0.66682249E+03</pdfrwt>
<pdfrwt beam="2">  1       -1 0.20669588E-01 0.66682249E+03</pdfrwt>
<totfact> 0.51664894E+02</totfact>
</mgrwt>
</event>
<event>
 4    1  0.6480558E-006  0.6862885E+03  0.7818608E-02  0.9740972E-01
         -1   -1    0    0    0  501 -0.00000000000E+00  0.00000000000E+00  0.44212633624E+03  0.44212633626E+03  0.50400000000E-02 0.  1.
          1   -1    0    0  501    0  0.00000000000E+00 -0.00000000000E+00 -0.26632199612E+03  0.26632199617E+03  0.50400000000E-02 0. -1.
    5000001    1    1    2    0    0 -0.53279039110E+02 -0.27375517132E+03  0.10766231973E+03  0.35912772787E+03  0.19900000000E+03 0.  0.
   -5000001    1    1    2    0    0  0.53279039110E+02  0.27375517132E+03  0.68142020382E+02  0.34932060457E+03  0.19900000000E+03 0.  0.
<mgrwt>
<rscale>  0 0.68628848E+03</rscale>
<asrwt>0</asrwt>
<pdfrwt beam="1">  1        1 0.38046000E-01 0.68628848E+03</pdfrwt>
<pdfrwt beam="2">  1       -1 0.63160905E-01 0.68628848E+03</pdfrwt>
<totfact> 0.29041734E+02</totfact>
</mgrwt>
</event>
<event>
 4    1  0.6480558E-006  0.5254290E+03  0.7818608E-02  0.1007347E+00
         -1   -1    0    0    0  501 -0.00000000000E+00  0.00000000000E+00  0.23723103684E+02  0.23723104219E+02  0.50400000000E-02 0. -1.
          1   -1    0    0  501    0  0.00000000000E+00 -0.00000000000E+00 -0.29093543388E+04  0.29093543388E+04  0.50400000000E-02 0.  1.
    5000001    1    1    2    0    0 -0.96689484787E+02 -0.36987860824E+02 -0.67943454785E+03  0.71550629846E+03  0.19900000000E+03 0.  0.
   -5000001    1    1    2    0    0  0.96689484787E+02  0.36987860824E+02 -0.22061966873E+04  0.22175711446E+04  0.19900000000E+03 0.  0.
<mgrwt>
<rscale>  0 0.52542903E+03</rscale>
<asrwt>0</asrwt>
<pdfrwt beam="1">  1        1 0.41562182E+00 0.52542903E+03</pdfrwt>
<pdfrwt beam="2">  1       -1 0.33890167E-02 0.52542903E+03</pdfrwt>
<totfact> 0.35231178E+02</totfact>
</mgrwt>
</event>
<event>
 4    1  0.6480558E-006  0.4904039E+03  0.7818608E-02  0.1016314E+00
         -1   -1    0    0    0  501 -0.00000000000E+00  0.00000000000E+00  0.61415564302E+03  0.61415564304E+03  0.50400000000E-02 0.  1.
          1   -1    0    0  501    0  0.00000000000E+00 -0.00000000000E+00 -0.97896987972E+02  0.97896988102E+02  0.50400000000E-02 0. -1.
    5000001    1    1    2    0    0  0.42282524784E+02 -0.12380098910E+03  0.34289876036E+03  0.41748659459E+03  0.19900000000E+03 0.  0.
   -5000001    1    1    2    0    0 -0.42282524784E+02  0.12380098910E+03  0.17335989469E+03  0.29456603656E+03  0.19900000000E+03 0.  0.
<mgrwt>
<rscale>  0 0.49040386E+03</rscale>
<asrwt>0</asrwt>
<pdfrwt beam="1">  1        1 0.13985283E-01 0.49040386E+03</pdfrwt>
<pdfrwt beam="2">  1       -1 0.87736525E-01 0.49040386E+03</pdfrwt>
<totfact> 0.54862732E+02</totfact>
</mgrwt>
</event>
<event>
 4    1  0.6480558E-006  0.4916407E+03  0.7818608E-02  0.1015984E+00
         -1   -1    0    0    0  501 -0.00000000000E+00  0.00000000000E+00  0.13691815754E+03  0.13691815764E+03  0.50400000000E-02 0. -1.
          1   -1    0    0  501    0  0.00000000000E+00 -0.00000000000E+00 -0.44134133607E+03  0.44134133610E+03  0.50400000000E-02 0.  1.
    5000001    1    1    2    0    0  0.13578368342E+03 -0.43307478945E+02 -0.17887481286E+03  0.30316653029E+03  0.19900000000E+03 0.  0.
   -5000001    1    1    2    0    0 -0.13578368342E+03  0.43307478945E+02 -0.12554836567E+03  0.27509296345E+03  0.19900000000E+03 0.  0.
<mgrwt>
<rscale>  0 0.49164069E+03</rscale>
<asrwt>0</asrwt>
<pdfrwt beam="1">  1        1 0.63048761E-01 0.49164069E+03</pdfrwt>
<pdfrwt beam="2">  1       -1 0.19559737E-01 0.49164069E+03</pdfrwt>
<totfact> 0.12327357E+03</totfact>
</mgrwt>
</event>
<event>
 4    1  0.6480558E-006  0.9501897E+03  0.7818608E-02  0.9364929E-01
          1   -1    0    0  501    0  0.00000000000E+00  0.00000000000E+00  0.14836686256E+04  0.14836686256E+04  0.50400000000E-02 0.  1.
         -1   -1    0    0    0  501 -0.00000000000E+00 -0.00000000000E+00 -0.15213309745E+03  0.15213309753E+03  0.50400000000E-02 0. -1.
    5000001    1    1    2    0    0  0.11331976290E+03  0.33121064478E+03  0.23170340710E+03  0.46457435222E+03  0.19900000000E+03 0.  0.
   -5000001    1    1    2    0    0 -0.11331976290E+03 -0.33121064478E+03  0.10998321211E+04  0.11712273709E+04  0.19900000000E+03 0.  0.
<mgrwt>
<rscale>  0 0.95018967E+03</rscale>
<asrwt>0</asrwt>
<pdfrwt beam="1">  1        1 0.21195266E+00 0.95018967E+03</pdfrwt>
<pdfrwt beam="2">  1       -1 0.21733300E-01 0.95018967E+03</pdfrwt>
<totfact> 0.14225015E+02</totfact>
</mgrwt>
</event>
<event>
 4    1  0.6480558E-006  0.4518664E+03  0.7818608E-02  0.1027167E+00
         -1   -1    0    0    0  501 -0.00000000000E+00  0.00000000000E+00  0.25610996535E+02  0.25610997031E+02  0.50400000000E-02 0. -1.
          1   -1    0    0  501    0  0.00000000000E+00 -0.00000000000E+00 -0.19931204913E+04  0.19931204913E+04  0.50400000000E-02 0.  1.
    5000001    1    1    2    0    0 -0.94400346778E+02 -0.48645156254E+02 -0.10414925605E+04  0.10656385552E+04  0.19900000000E+03 0.  0.
   -5000001    1    1    2    0    0  0.94400346778E+02  0.48645156254E+02 -0.92601693427E+03  0.95309293317E+03  0.19900000000E+03 0.  0.
<mgrwt>
<rscale>  0 0.45186636E+03</rscale>
<asrwt>0</asrwt>
<pdfrwt beam="1">  1        1 0.28473140E+00 0.45186636E+03</pdfrwt>
<pdfrwt beam="2">  1       -1 0.36587151E-02 0.45186636E+03</pdfrwt>
<totfact> 0.11710615E+03</totfact>
</mgrwt>
</event>
<event>
 4    1  0.6480558E-006  0.5907604E+03  0.7818608E-02  0.9924763E-01
         -1   -1    0    0    0  501 -0.00000000000E+00  0.00000000000E+00  0.12196545972E+03  0.12196545982E+03  0.50400000000E-02 0. -1.
          1   -1    0    0  501    0  0.00000000000E+00 -0.00000000000E+00 -0.71536215419E+03  0.71536215421E+03  0.50400000000E-02 0.  1.
    5000001    1    1    2    0    0  0.98773867969E+02 -0.19046252748E+03 -0.23971675135E+03  0.37828213313E+03  0.19900000000E+03 0.  0.
   -5000001    1    1    2    0    0 -0.98773867969E+02  0.19046252748E+03 -0.35367994312E+03  0.45904548090E+03  0.19900000000E+03 0.  0.
<mgrwt>
<rscale>  0 0.59076044E+03</rscale>
<asrwt>0</asrwt>
<pdfrwt beam="1">  1        1 0.10219459E+00 0.59076044E+03</pdfrwt>
<pdfrwt beam="2">  1       -1 0.17423637E-01 0.59076044E+03</pdfrwt>
<totfact> 0.76420909E+02</totfact>
</mgrwt>
</event>
<event>
 4    1  0.6480558E-006  0.9158599E+03  0.7818608E-02  0.9405970E-01
          1   -1    0    0  501    0  0.00000000000E+00  0.00000000000E+00  0.26478041894E+03  0.26478041899E+03  0.50400000000E-02 0.  1.
         -1   -1    0    0    0  501 -0.00000000000E+00 -0.00000000000E+00 -0.79197645682E+03  0.79197645684E+03  0.50400000000E-02 0. -1.
    5000001    1    1    2    0    0 -0.33315885499E+02  0.30957757302E+03 -0.57567021126E+03  0.68406535804E+03  0.19900000000E+03 0.  0.
   -5000001    1    1    2    0    0  0.33315885499E+02 -0.30957757302E+03  0.48474173380E+02  0.37269151779E+03  0.19900000000E+03 0.  0.
<mgrwt>
<rscale>  0 0.91585994E+03</rscale>
<asrwt>0</asrwt>
<pdfrwt beam="1">  1        1 0.37825774E-01 0.91585994E+03</pdfrwt>
<pdfrwt beam="2">  1       -1 0.11313949E+00 0.91585994E+03</pdfrwt>
<totfact> 0.81701482E+01</totfact>
</mgrwt>
</event>
<event>
 4    1  0.6480558E-006  0.6791954E+03  0.7818608E-02  0.9753488E-01
         -1   -1    0    0    0  501 -0.00000000000E+00  0.00000000000E+00  0.18161851947E+03  0.18161851954E+03  0.50400000000E-02 0. -1.
          1   -1    0    0  501    0  0.00000000000E+00 -0.00000000000E+00 -0.63499358386E+03  0.63499358388E+03  0.50400000000E-02 0.  1.
    5000001    1    1    2    0    0 -0.17734184287E+03  0.18537986368E+03 -0.34637616427E+03  0.47475601130E+03  0.19900000000E+03 0.  0.
   -5000001    1    1    2    0    0  0.17734184287E+03 -0.18537986368E+03 -0.10699890011E+03  0.34185609212E+03  0.19900000000E+03 0.  0.
<mgrwt>
<rscale>  0 0.67919539E+03</rscale>
<asrwt>0</asrwt>
<pdfrwt beam="1">  1        1 0.90713368E-01 0.67919539E+03</pdfrwt>
<pdfrwt beam="2">  1       -1 0.25945503E-01 0.67919539E+03</pdfrwt>
<totfact> 0.46559592E+02</totfact>
</mgrwt>
</event>
<event>
 4    1  0.6480558E-006  0.1070363E+04  0.7818608E-02  0.9234569E-01
          1   -1    0    0  501    0  0.00000000000E+00  0.00000000000E+00  0.10616954851E+04  0.10616954852E+04  0.50400000000E-02 0.  1.
         -1   -1    0    0    0  501 -0.00000000000E+00 -0.00000000000E+00 -0.26977527216E+03  0.26977527221E+03  0.50400000000E-02 0. -1.
    5000001    1    1    2    0    0 -0.48481258269E+03 -0.82349522623E+02  0.48386302525E+03  0.71801748684E+03  0.19900000000E+03 0.  0.
   -5000001    1    1    2    0    0  0.48481258269E+03  0.82349522623E+02  0.30805718773E+03  0.61345327053E+03  0.19900000000E+03 0.  0.
<mgrwt>
<rscale>  0 0.10703629E+04</rscale>
<asrwt>0</asrwt>
<pdfrwt beam="1">  1        1 0.15167078E+00 0.10703629E+04</pdfrwt>
<pdfrwt beam="2">  1       -1 0.38539324E-01 0.10703629E+04</pdfrwt>
<totfact> 0.10094701E+02</totfact>
</mgrwt>
</event>
<event>
 4    1  0.6480558E-006  0.5329961E+03  0.7818608E-02  0.1005508E+00
         -1   -1    0    0    0  501 -0.00000000000E+00  0.00000000000E+00  0.17610892661E+03  0.17610892668E+03  0.50400000000E-02 0.  1.
          1   -1    0    0  501    0  0.00000000000E+00 -0.00000000000E+00 -0.40328006066E+03  0.40328006069E+03  0.50400000000E-02 0. -1.
    5000001    1    1    2    0    0  0.83230420745E+01  0.12539621527E+03  0.22302181015E+02  0.23641461696E+03  0.19900000000E+03 0.  0.
   -5000001    1    1    2    0    0 -0.83230420745E+01 -0.12539621527E+03 -0.24947331507E+03  0.34297437042E+03  0.19900000000E+03 0.  0.
<mgrwt>
<rscale>  0 0.53299613E+03</rscale>
<asrwt>0</asrwt>
<pdfrwt beam="1">  1        1 0.57611437E-01 0.53299613E+03</pdfrwt>
<pdfrwt beam="2">  1       -1 0.25158418E-01 0.53299613E+03</pdfrwt>
<totfact> 0.91076071E+02</totfact>
</mgrwt>
</event>
<event>
 4    1  0.6480558E-006  0.4446093E+03  0.7818608E-02  0.1029342E+00
          1   -1    0    0  501    0  0.00000000000E+00  0.00000000000E+00  0.79203935106E+03  0.79203935108E+03  0.50400000000E-02 0.  1.
         -1   -1    0    0    0  501 -0.00000000000E+00 -0.00000000000E+00 -0.62395090136E+02  0.62395090340E+02  0.50400000000E-02 0. -1.
    5000001    1    1    2    0    0  0.92189405770E+00 -0.68867623330E+02  0.50172363820E+03  0.54412425838E+03  0.19900000000E+03 0.  0.
   -5000001    1    1    2    0    0 -0.92189405770E+00  0.68867623330E+02  0.22792062273E+03  0.31031018304E+03  0.19900000000E+03 0.  0.
<mgrwt>
<rscale>  0 0.44460934E+03</rscale>
<asrwt>0</asrwt>
<pdfrwt beam="1">  1        1 0.11314848E+00 0.44460934E+03</pdfrwt>
<pdfrwt beam="2">  1       -1 0.89135842E-02 0.44460934E+03</pdfrwt>
<totfact> 0.19145927E+03</totfact>
</mgrwt>
</event>
<event>
 4    1  0.6480558E-006  0.8776364E+03  0.7818608E-02  0.9453977E-01
          1   -1    0    0  501    0  0.00000000000E+00  0.00000000000E+00  0.17396949379E+04  0.17396949379E+04  0.50400000000E-02 0.  1.
         -1   -1    0    0    0  501 -0.00000000000E+00 -0.00000000000E+00 -0.11068688523E+03  0.11068688534E+03  0.50400000000E-02 0. -1.
    5000001    1    1    2    0    0  0.25015378783E+03  0.11673788857E+03  0.23038383601E+03  0.41095299499E+03  0.19900000000E+03 0.  0.
   -5000001    1    1    2    0    0 -0.25015378783E+03 -0.11673788857E+03  0.13986242167E+04  0.14394288283E+04  0.19900000000E+03 0.  0.
<mgrwt>
<rscale>  0 0.87763640E+03</rscale>
<asrwt>0</asrwt>
<pdfrwt beam="1">  1        1 0.24852786E+00 0.87763640E+03</pdfrwt>
<pdfrwt beam="2">  1       -1 0.15812411E-01 0.87763640E+03</pdfrwt>
<totfact> 0.16624757E+02</totfact>
</mgrwt>
</event>
<event>
 4    1  0.6480558E-006  0.6079932E+03  0.7818608E-02  0.9888960E-01
         -1   -1    0    0    0  501 -0.00000000000E+00  0.00000000000E+00  0.75864832393E+02  0.75864832560E+02  0.50400000000E-02 0. -1.
          1   -1    0    0  501    0  0.00000000000E+00 -0.00000000000E+00 -0.12181393843E+04  0.12181393843E+04  0.50400000000E-02 0.  1.
    5000001    1    1    2    0    0 -0.18562934753E+03 -0.12347421289E+03 -0.45246926796E+03  0.54224862781E+03  0.19900000000E+03 0.  0.
   -5000001    1    1    2    0    0  0.18562934753E+03  0.12347421289E+03 -0.68980528392E+03  0.75175558903E+03  0.19900000000E+03 0.  0.
<mgrwt>
<rscale>  0 0.60799322E+03</rscale>
<asrwt>0</asrwt>
<pdfrwt beam="1">  1        1 0.17401990E+00 0.60799322E+03</pdfrwt>
<pdfrwt beam="2">  1       -1 0.10837834E-01 0.60799322E+03</pdfrwt>
<totfact> 0.67779546E+02</totfact>
</mgrwt>
</event>
<event>
 4    1  0.6480558E-006  0.9608422E+03  0.7818608E-02  0.9352567E-01
         -1   -1    0    0    0  501 -0.00000000000E+00  0.00000000000E+00  0.14162042157E+03  0.14162042166E+03  0.50400000000E-02 0. -1.
          1   -1    0    0  501    0  0.00000000000E+00 -0.00000000000E+00 -0.16297396827E+04  0.16297396827E+04  0.50400000000E-02 0.  1.
    5000001    1    1    2    0    0  0.59691507488E+02 -0.42100641122E+03 -0.93201080480E+03  0.10435777952E+04  0.19900000000E+03 0.  0.
   -5000001    1    1    2    0    0 -0.59691507488E+02  0.42100641122E+03 -0.55610845635E+03  0.72778230920E+03  0.19900000000E+03 0.  0.
<mgrwt>
<rscale>  0 0.96084217E+03</rscale>
<asrwt>0</asrwt>
<pdfrwt beam="1">  1        1 0.23281994E+00 0.96084217E+03</pdfrwt>
<pdfrwt beam="2">  1       -1 0.20231490E-01 0.96084217E+03</pdfrwt>
<totfact> 0.12908040E+02</totfact>
</mgrwt>
</event>
<event>
 4    1  0.6480558E-006  0.4456914E+03  0.7818608E-02  0.1029015E+00
          1   -1    0    0  501    0  0.00000000000E+00  0.00000000000E+00  0.54368541478E+03  0.54368541481E+03  0.50400000000E-02 0. -1.
         -1   -1    0    0    0  501 -0.00000000000E+00 -0.00000000000E+00 -0.91339976366E+02  0.91339976505E+02  0.50400000000E-02 0.  1.
    5000001    1    1    2    0    0 -0.93317278675E+02  0.34518586867E+02  0.24417081292E+03  0.33033321544E+03  0.19900000000E+03 0.  0.
   -5000001    1    1    2    0    0  0.93317278675E+02 -0.34518586867E+02  0.20817462550E+03  0.30469217588E+03  0.19900000000E+03 0.  0.
<mgrwt>
<rscale>  0 0.44569143E+03</rscale>
<asrwt>0</asrwt>
<pdfrwt beam="1">  1        1 0.77669346E-01 0.44569143E+03</pdfrwt>
<pdfrwt beam="2">  1       -1 0.13048568E-01 0.44569143E+03</pdfrwt>
<totfact> 0.17972401E+03</totfact>
</mgrwt>
</event>
<event>
 4    1  0.6480558E-006  0.6352332E+03  0.7818608E-02  0.9834890E-01
         -1   -1    0    0    0  501 -0.00000000000E+00  0.00000000000E+00  0.42249904865E+03  0.42249904868E+03  0.50400000000E-02 0. -1.
          1   -1    0    0  501    0  0.00000000000E+00 -0.00000000000E+00 -0.23877046490E+03  0.23877046495E+03  0.50400000000E-02 0.  1.
    5000001    1    1    2    0    0 -0.49618870570E+02  0.23695750343E+03  0.14563813667E+03  0.34557540075E+03  0.19900000000E+03 0.  0.
   -5000001    1    1    2    0    0  0.49618870570E+02 -0.23695750343E+03  0.38090447074E+02  0.31569411288E+03  0.19900000000E+03 0.  0.
<mgrwt>
<rscale>  0 0.63523317E+03</rscale>
<asrwt>0</asrwt>
<pdfrwt beam="1">  1        1 0.34110066E-01 0.63523317E+03</pdfrwt>
<pdfrwt beam="2">  1       -1 0.60357007E-01 0.63523317E+03</pdfrwt>
<totfact> 0.36644471E+02</totfact>
</mgrwt>
</event>
<event>
 4    1  0.6480558E-006  0.4795556E+03  0.7818608E-02  0.1019257E+00
          1   -1    0    0  501    0  0.00000000000E+00  0.00000000000E+00  0.19796208543E+03  0.19796208549E+03  0.50400000000E-02 0.  1.
         -1   -1    0    0    0  501 -0.00000000000E+00 -0.00000000000E+00 -0.29042625262E+03  0.29042625267E+03  0.50400000000E-02 0. -1.
    5000001    1    1    2    0    0  0.93555702826E+02 -0.57705820841E+02 -0.12385773662E+03  0.25889065300E+03  0.19900000000E+03 0.  0.
   -5000001    1    1    2    0    0 -0.93555702826E+02  0.57705820841E+02  0.31393569428E+02  0.22949768516E+03  0.19900000000E+03 0.  0.
<mgrwt>
<rscale>  0 0.47955557E+03</rscale>
<asrwt>0</asrwt>
<pdfrwt beam="1">  1        1 0.28280298E-01 0.47955557E+03</pdfrwt>
<pdfrwt beam="2">  1       -1 0.41489465E-01 0.47955557E+03</pdfrwt>
<totfact> 0.94838243E+02</totfact>
</mgrwt>
</event>
<event>
 4    1  0.6480558E-006  0.7107281E+03  0.7818608E-02  0.9699060E-01
         -1   -1    0    0    0  501 -0.00000000000E+00  0.00000000000E+00  0.26964372402E+03  0.26964372406E+03  0.50400000000E-02 0. -1.
          1   -1    0    0  501    0  0.00000000000E+00 -0.00000000000E+00 -0.46833511606E+03  0.46833511608E+03  0.50400000000E-02 0.  1.
    5000001    1    1    2    0    0 -0.37653082517E+02  0.28933370951E+03 -0.14023679229E+03  0.37999882630E+03  0.19900000000E+03 0.  0.
   -5000001    1    1    2    0    0  0.37653082517E+02 -0.28933370951E+03 -0.58454599752E+02  0.35798001384E+03  0.19900000000E+03 0.  0.
<mgrwt>
<rscale>  0 0.71072815E+03</rscale>
<asrwt>0</asrwt>
<pdfrwt beam="1">  1        1 0.66905016E-01 0.71072815E+03</pdfrwt>
<pdfrwt beam="2">  1       -1 0.38520532E-01 0.71072815E+03</pdfrwt>
<totfact> 0.35369003E+02</totfact>
</mgrwt>
</event>
<event>
 4    1  0.6480558E-006  0.4874709E+03  0.7818608E-02  0.1017102E+00
          1   -1    0    0  501    0  0.00000000000E+00  0.00000000000E+00  0.13919711278E+04  0.13919711278E+04  0.50400000000E-02 0.  1.
         -1   -1    0    0    0  501 -0.00000000000E+00 -0.00000000000E+00 -0.42678306121E+02  0.42678306419E+02  0.50400000000E-02 0. -1.
    5000001    1    1    2    0    0 -0.10425675253E+03  0.93347537935E+02  0.63072329722E+03  0.67601487479E+03  0.19900000000E+03 0.  0.
   -5000001    1    1    2    0    0  0.10425675253E+03 -0.93347537935E+02  0.71856952444E+03  0.75863455942E+03  0.19900000000E+03 0.  0.
<mgrwt>
<rscale>  0 0.48747090E+03</rscale>
<asrwt>0</asrwt>
<pdfrwt beam="1">  1        1 0.19885300E+00 0.48747090E+03</pdfrwt>
<pdfrwt beam="2">  1       -1 0.60969015E-02 0.48747090E+03</pdfrwt>
<totfact> 0.12791824E+03</totfact>
</mgrwt>
</event>
<event>
 4    1  0.6480558E-006  0.7861582E+03  0.7818608E-02  0.9580271E-01
         -1   -1    0    0    0  501 -0.00000000000E+00  0.00000000000E+00  0.13655354198E+04  0.13655354198E+04  0.50400000000E-02 0. -1.
          1   -1    0    0  501    0  0.00000000000E+00 -0.00000000000E+00 -0.11315062544E+03  0.11315062555E+03  0.50400000000E-02 0.  1.
    5000001    1    1    2    0    0 -0.11749291392E+03  0.30187233217E+03  0.81408208089E+03  0.89847767039E+03  0.19900000000E+03 0.  0.
   -5000001    1    1    2    0    0  0.11749291392E+03 -0.30187233217E+03  0.43830271344E+03  0.58020837495E+03  0.19900000000E+03 0.  0.
<mgrwt>
<rscale>  0 0.78615822E+03</rscale>
<asrwt>0</asrwt>
<pdfrwt beam="1">  1        1 0.16164375E-01 0.78615822E+03</pdfrwt>
<pdfrwt beam="2">  1       -1 0.19507649E+00 0.78615822E+03</pdfrwt>
<totfact> 0.57885303E+01</totfact>
</mgrwt>
</event>
<event>
 4    1  0.6480558E-006  0.5757255E+03  0.7818608E-02  0.9957088E-01
         -1   -1    0    0    0  501 -0.00000000000E+00  0.00000000000E+00  0.13138588140E+03  0.13138588150E+03  0.50400000000E-02 0.  1.
          1   -1    0    0  501    0  0.00000000000E+00 -0.00000000000E+00 -0.63069910118E+03  0.63069910120E+03  0.50400000000E-02 0. -1.
    5000001    1    1    2    0    0  0.44310510503E+02 -0.46069761074E+02  0.12348469198E+02  0.20937843470E+03  0.19900000000E+03 0.  0.
   -5000001    1    1    2    0    0 -0.44310510503E+02  0.46069761074E+02 -0.51166168898E+03  0.55270654800E+03  0.19900000000E+03 0.  0.
<mgrwt>
<rscale>  0 0.57572548E+03</rscale>
<asrwt>0</asrwt>
<pdfrwt beam="1">  1        1 0.90099870E-01 0.57572548E+03</pdfrwt>
<pdfrwt beam="2">  1       -1 0.18769412E-01 0.57572548E+03</pdfrwt>
<totfact> 0.81152488E+02</totfact>
</mgrwt>
</event>
<event>
 4    1  0.6480558E-006  0.5415045E+03  0.7818608E-02  0.1003480E+00
         -1   -1    0    0    0  501 -0.00000000000E+00  0.00000000000E+00  0.12459566738E+04  0.12459566739E+04  0.50400000000E-02 0. -1.
          1   -1    0    0  501    0  0.00000000000E+00 -0.00000000000E+00 -0.58835741973E+02  0.58835742189E+02  0.50400000000E-02 0.  1.
    5000001    1    1    2    0    0  0.18319724408E+03 -0.57799014542E+01  0.56815716178E+03  0.62928387710E+03  0.19900000000E+03 0.  0.
   -5000001    1    1    2    0    0 -0.18319724408E+03  0.57799014542E+01  0.61896377009E+03  0.67550853894E+03  0.19900000000E+03 0.  0.
<mgrwt>
<rscale>  0 0.54150452E+03</rscale>
<asrwt>0</asrwt>
<pdfrwt beam="1">  1        1 0.84051053E-02 0.54150452E+03</pdfrwt>
<pdfrwt beam="2">  1       -1 0.17799383E+00 0.54150452E+03</pdfrwt>
<totfact> 0.18907196E+02</totfact>
</mgrwt>
</event>
<event>
 4    1  0.6480558E-006  0.5276066E+03  0.7818608E-02  0.1006814E+00
         -1   -1    0    0    0  501 -0.00000000000E+00  0.00000000000E+00  0.43898223661E+03  0.43898223664E+03  0.50400000000E-02 0.  1.
          1   -1    0    0  501    0  0.00000000000E+00 -0.00000000000E+00 -0.15853075800E+03  0.15853075808E+03  0.50400000000E-02 0. -1.
    5000001    1    1    2    0    0  0.12789016961E+03 -0.58479465717E+02  0.25468889828E+03  0.35248145809E+03  0.19900000000E+03 0.  0.
   -5000001    1    1    2    0    0 -0.12789016961E+03  0.58479465717E+02  0.25762580332E+02  0.24503153662E+03  0.19900000000E+03 0.  0.
<mgrwt>
<rscale>  0 0.52760662E+03</rscale>
<asrwt>0</asrwt>
<pdfrwt beam="1">  1        1 0.22647251E-01 0.52760662E+03</pdfrwt>
<pdfrwt beam="2">  1       -1 0.62711748E-01 0.52760662E+03</pdfrwt>
<totfact> 0.57939478E+02</totfact>
</mgrwt>
</event>
<event>
 4    1  0.6480558E-006  0.5239217E+03  0.7818608E-02  0.1007717E+00
          1   -1    0    0  501    0  0.00000000000E+00  0.00000000000E+00  0.16195360938E+03  0.16195360946E+03  0.50400000000E-02 0. -1.
         -1   -1    0    0    0  501 -0.00000000000E+00 -0.00000000000E+00 -0.42372302887E+03  0.42372302890E+03  0.50400000000E-02 0.  1.
    5000001    1    1    2    0    0 -0.61369960059E+02 -0.92381938942E+02  0.13670184121E+02  0.22822920184E+03  0.19900000000E+03 0.  0.
   -5000001    1    1    2    0    0  0.61369960059E+02  0.92381938942E+02 -0.27543960361E+03  0.35744743652E+03  0.19900000000E+03 0.  0.
<mgrwt>
<rscale>  0 0.52392165E+03</rscale>
<asrwt>0</asrwt>
<pdfrwt beam="1">  1        1 0.23136230E-01 0.52392165E+03</pdfrwt>
<pdfrwt beam="2">  1       -1 0.60531861E-01 0.52392165E+03</pdfrwt>
<totfact> 0.60414777E+02</totfact>
</mgrwt>
</event>
<event>
 4    1  0.6480558E-006  0.5550724E+03  0.7818608E-02  0.1000327E+00
          1   -1    0    0  501    0  0.00000000000E+00  0.00000000000E+00  0.17377837192E+04  0.17377837193E+04  0.50400000000E-02 0.  1.
         -1   -1    0    0    0  501 -0.00000000000E+00 -0.00000000000E+00 -0.44324472410E+02  0.44324472696E+02  0.50400000000E-02 0. -1.
    5000001    1    1    2    0    0  0.16285534555E+03 -0.10426449776E+03  0.86500395848E+03  0.90841939502E+03  0.19900000000E+03 0.  0.
   -5000001    1    1    2    0    0 -0.16285534555E+03  0.10426449776E+03  0.82845528836E+03  0.87368879693E+03  0.19900000000E+03 0.  0.
<mgrwt>
<rscale>  0 0.55507242E+03</rscale>
<asrwt>0</asrwt>
<pdfrwt beam="1">  1        1 0.24825481E+00 0.55507242E+03</pdfrwt>
<pdfrwt beam="2">  1       -1 0.63320677E-02 0.55507242E+03</pdfrwt>
<totfact> 0.72621522E+02</totfact>
</mgrwt>
</event>
<event>
 4    1  0.6480558E-006  0.5581642E+03  0.7818608E-02  0.9996217E-01
         -1   -1    0    0    0  501 -0.00000000000E+00  0.00000000000E+00  0.22033381492E+03  0.22033381498E+03  0.50400000000E-02 0. -1.
          1   -1    0    0  501    0  0.00000000000E+00 -0.00000000000E+00 -0.35349458708E+03  0.35349458712E+03  0.50400000000E-02 0.  1.
    5000001    1    1    2    0    0 -0.64620839209E+02 -0.17248177189E+03  0.13029459962E+01  0.27116141348E+03  0.19900000000E+03 0.  0.
   -5000001    1    1    2    0    0  0.64620839209E+02  0.17248177189E+03 -0.13446371816E+03  0.30266698861E+03  0.19900000000E+03 0.  0.
<mgrwt>
<rscale>  0 0.55816417E+03</rscale>
<asrwt>0</asrwt>
<pdfrwt beam="1">  1        1 0.50499227E-01 0.55816417E+03</pdfrwt>
<pdfrwt beam="2">  1       -1 0.31476259E-01 0.55816417E+03</pdfrwt>
<totfact> 0.73516025E+02</totfact>
</mgrwt>
</event>
<event>
 4    1  0.6480558E-006  0.5095273E+03  0.7818608E-02  0.1011322E+00
         -1   -1    0    0    0  501 -0.00000000000E+00  0.00000000000E+00  0.61242322257E+02  0.61242322464E+02  0.50400000000E-02 0. -1.
          1   -1    0    0  501    0  0.00000000000E+00 -0.00000000000E+00 -0.10597984113E+04  0.10597984113E+04  0.50400000000E-02 0.  1.
    5000001    1    1    2    0    0  0.77458335568E+02  0.13888968436E+03 -0.50732526615E+03  0.56768835099E+03  0.19900000000E+03 0.  0.
   -5000001    1    1    2    0    0 -0.77458335568E+02 -0.13888968436E+03 -0.49123082284E+03  0.55335238274E+03  0.19900000000E+03 0.  0.
<mgrwt>
<rscale>  0 0.50952729E+03</rscale>
<asrwt>0</asrwt>
<pdfrwt beam="1">  1        1 0.15139976E+00 0.50952729E+03</pdfrwt>
<pdfrwt beam="2">  1       -1 0.87489039E-02 0.50952729E+03</pdfrwt>
<totfact> 0.12282498E+03</totfact>
</mgrwt>
</event>
<event>
 4    1  0.6480558E-006  0.5545459E+03  0.7818608E-02  0.1000447E+00
         -1   -1    0    0    0  501 -0.00000000000E+00  0.00000000000E+00  0.35754332635E+02  0.35754332991E+02  0.50400000000E-02 0.  1.
          1   -1    0    0  501    0  0.00000000000E+00 -0.00000000000E+00 -0.21502370985E+04  0.21502370985E+04  0.50400000000E-02 0. -1.
    5000001    1    1    2    0    0 -0.16740885373E+03 -0.19613920022E+02 -0.68600980550E+03  0.73390795295E+03  0.19900000000E+03 0.  0.
   -5000001    1    1    2    0    0  0.16740885373E+03  0.19613920022E+02 -0.14284729603E+04  0.14520834785E+04  0.19900000000E+03 0.  0.
<mgrwt>
<rscale>  0 0.55454591E+03</rscale>
<asrwt>0</asrwt>
<pdfrwt beam="1">  1        1 0.30717665E+00 0.55454591E+03</pdfrwt>
<pdfrwt beam="2">  1       -1 0.51077632E-02 0.55454591E+03</pdfrwt>
<totfact> 0.56159898E+02</totfact>
</mgrwt>
</event>
<event>
 4    1  0.6480558E-006  0.5653445E+03  0.7818608E-02  0.9980034E-01
          1   -1    0    0  501    0  0.00000000000E+00  0.00000000000E+00  0.74846418294E+03  0.74846418296E+03  0.50400000000E-02 0.  1.
         -1   -1    0    0    0  501 -0.00000000000E+00 -0.00000000000E+00 -0.10675676227E+03  0.10675676239E+03  0.50400000000E-02 0. -1.
    5000001    1    1    2    0    0 -0.96326979053E+02 -0.14587768010E+03  0.47017475687E+03  0.53965219025E+03  0.19900000000E+03 0.  0.
   -5000001    1    1    2    0    0  0.96326979053E+02  0.14587768010E+03  0.17153266380E+03  0.31556875510E+03  0.19900000000E+03 0.  0.
<mgrwt>
<rscale>  0 0.56534454E+03</rscale>
<asrwt>0</asrwt>
<pdfrwt beam="1">  1        1 0.10692345E+00 0.56534454E+03</pdfrwt>
<pdfrwt beam="2">  1       -1 0.15250967E-01 0.56534454E+03</pdfrwt>
<totfact> 0.88817669E+02</totfact>
</mgrwt>
</event>
<event>
 4    1  0.6480558E-006  0.6445321E+03  0.7818608E-02  0.9817094E-01
         -1   -1    0    0    0  501 -0.00000000000E+00  0.00000000000E+00  0.45626135306E+02  0.45626135585E+02  0.50400000000E-02 0.  1.
          1   -1    0    0  501    0  0.00000000000E+00 -0.00000000000E+00 -0.22762262975E+04  0.22762262975E+04  0.50400000000E-02 0. -1.
    5000001    1    1    2    0    0  0.20819479356E+03  0.13831958999E+03 -0.12671579265E+04  0.13068158216E+04  0.19900000000E+03 0.  0.
   -5000001    1    1    2    0    0 -0.20819479356E+03 -0.13831958999E+03 -0.96344223573E+03  0.10150366115E+04  0.19900000000E+03 0.  0.
<mgrwt>
<rscale>  0 0.64453211E+03</rscale>
<asrwt>0</asrwt>
<pdfrwt beam="1">  1        1 0.32517511E+00 0.64453211E+03</pdfrwt>
<pdfrwt beam="2">  1       -1 0.65180208E-02 0.64453211E+03</pdfrwt>
<totfact> 0.32040765E+02</totfact>
</mgrwt>
</event>
<event>
 4    1  0.6480558E-006  0.6794337E+03  0.7818608E-02  0.9753064E-01
         -1   -1    0    0    0  501 -0.00000000000E+00  0.00000000000E+00  0.13854760009E+03  0.13854760018E+03  0.50400000000E-02 0. -1.
          1   -1    0    0  501    0  0.00000000000E+00 -0.00000000000E+00 -0.83298110600E+03  0.83298110602E+03  0.50400000000E-02 0.  1.
    5000001    1    1    2    0    0 -0.13550228181E+03  0.13703062051E+03 -0.62839774290E+03  0.68674812166E+03  0.19900000000E+03 0.  0.
   -5000001    1    1    2    0    0  0.13550228181E+03 -0.13703062051E+03 -0.66035763016E+02  0.28478058454E+03  0.19900000000E+03 0.  0.
<mgrwt>
<rscale>  0 0.67943369E+03</rscale>
<asrwt>0</asrwt>
<pdfrwt beam="1">  1        1 0.11899730E+00 0.67943369E+03</pdfrwt>
<pdfrwt beam="2">  1       -1 0.19792515E-01 0.67943369E+03</pdfrwt>
<totfact> 0.49004951E+02</totfact>
</mgrwt>
</event>
<event>
 4    1  0.6480558E-006  0.4917335E+03  0.7818608E-02  0.1015959E+00
          1   -1    0    0  501    0  0.00000000000E+00  0.00000000000E+00  0.39935609496E+03  0.39935609500E+03  0.50400000000E-02 0. -1.
         -1   -1    0    0    0  501 -0.00000000000E+00 -0.00000000000E+00 -0.15136982197E+03  0.15136982205E+03  0.50400000000E-02 0.  1.
    5000001    1    1    2    0    0  0.11139183680E+03  0.91840192433E+02  0.12689183770E+03  0.27666821416E+03  0.19900000000E+03 0.  0.
   -5000001    1    1    2    0    0 -0.11139183680E+03 -0.91840192433E+02  0.12109443529E+03  0.27405770288E+03  0.19900000000E+03 0.  0.
<mgrwt>
<rscale>  0 0.49173351E+03</rscale>
<asrwt>0</asrwt>
<pdfrwt beam="1">  1        1 0.57050871E-01 0.49173351E+03</pdfrwt>
<pdfrwt beam="2">  1       -1 0.21624260E-01 0.49173351E+03</pdfrwt>
<totfact> 0.11896185E+03</totfact>
</mgrwt>
</event>
<event>
 4    1  0.6480558E-006  0.4821948E+03  0.7818608E-02  0.1018534E+00
         -1   -1    0    0    0  501 -0.00000000000E+00  0.00000000000E+00  0.39493152854E+02  0.39493153175E+02  0.50400000000E-02 0.  1.
          1   -1    0    0  501    0  0.00000000000E+00 -0.00000000000E+00 -0.14718491651E+04  0.14718491652E+04  0.50400000000E-02 0. -1.
    5000001    1    1    2    0    0 -0.43682987925E+02  0.89711211939E+02 -0.10063445966E+04  0.10306729608E+04  0.19900000000E+03 0.  0.
   -5000001    1    1    2    0    0  0.43682987925E+02 -0.89711211939E+02 -0.42601141565E+03  0.48066935751E+03  0.19900000000E+03 0.  0.
<mgrwt>
<rscale>  0 0.48219483E+03</rscale>
<asrwt>0</asrwt>
<pdfrwt beam="1">  1        1 0.21026413E+00 0.48219483E+03</pdfrwt>
<pdfrwt beam="2">  1       -1 0.56418799E-02 0.48219483E+03</pdfrwt>
<totfact> 0.12797698E+03</totfact>
</mgrwt>
</event>
<event>
 4    1  0.6480558E-006  0.1186606E+04  0.7818608E-02  0.9124661E-01
          1   -1    0    0  501    0  0.00000000000E+00  0.00000000000E+00  0.14058553802E+04  0.14058553802E+04  0.50400000000E-02 0.  1.
         -1   -1    0    0    0  501 -0.00000000000E+00 -0.00000000000E+00 -0.25038754478E+03  0.25038754483E+03  0.50400000000E-02 0. -1.
    5000001    1    1    2    0    0 -0.45580049031E+03  0.32281288816E+03  0.54827568145E+03  0.80757010259E+03  0.19900000000E+03 0.  0.
   -5000001    1    1    2    0    0  0.45580049031E+03 -0.32281288816E+03  0.60719215401E+03  0.84867282248E+03  0.19900000000E+03 0.  0.
<mgrwt>
<rscale>  0 0.11866064E+04</rscale>
<asrwt>0</asrwt>
<pdfrwt beam="1">  1        1 0.20083648E+00 0.11866064E+04</pdfrwt>
<pdfrwt beam="2">  1       -1 0.35769651E-01 0.11866064E+04</pdfrwt>
<totfact> 0.66255145E+01</totfact>
</mgrwt>
</event>
<event>
 4    1  0.6480558E-006  0.1125036E+04  0.7818608E-02  0.9181128E-01
         -1   -1    0    0    0  501 -0.00000000000E+00  0.00000000000E+00  0.12852162668E+03  0.12852162678E+03  0.50400000000E-02 0.  1.
          1   -1    0    0  501    0  0.00000000000E+00 -0.00000000000E+00 -0.24620491293E+04  0.24620491293E+04  0.50400000000E-02 0. -1.
    5000001    1    1    2    0    0  0.29522323465E+03 -0.38245357585E+03 -0.68706987674E+03  0.86318799313E+03  0.19900000000E+03 0.  0.
   -5000001    1    1    2    0    0 -0.29522323465E+03  0.38245357585E+03 -0.16464576259E+04  0.17273827630E+04  0.19900000000E+03 0.  0.
<mgrwt>
<rscale>  0 0.11250361E+04</rscale>
<asrwt>0</asrwt>
<pdfrwt beam="1">  1        1 0.35172128E+00 0.11250361E+04</pdfrwt>
<pdfrwt beam="2">  1       -1 0.18360234E-01 0.11250361E+04</pdfrwt>
<totfact> 0.44913015E+01</totfact>
</mgrwt>
</event>
<event>
 4    1  0.6480558E-006  0.5705103E+03  0.7818608E-02  0.9968550E-01
          1   -1    0    0  501    0  0.00000000000E+00  0.00000000000E+00  0.10084067837E+03  0.10084067850E+03  0.50400000000E-02 0.  1.
         -1   -1    0    0    0  501 -0.00000000000E+00 -0.00000000000E+00 -0.80692135117E+03  0.80692135119E+03  0.50400000000E-02 0. -1.
    5000001    1    1    2    0    0 -0.12097073067E+03 -0.62547263857E+02 -0.59551792789E+03  0.64248632696E+03  0.19900000000E+03 0.  0.
   -5000001    1    1    2    0    0  0.12097073067E+03  0.62547263857E+02 -0.11056274491E+03  0.26527570272E+03  0.19900000000E+03 0.  0.
<mgrwt>
<rscale>  0 0.57051029E+03</rscale>
<asrwt>0</asrwt>
<pdfrwt beam="1">  1        1 0.14405812E-01 0.57051029E+03</pdfrwt>
<pdfrwt beam="2">  1       -1 0.11527447E+00 0.57051029E+03</pdfrwt>
<totfact> 0.28309440E+02</totfact>
</mgrwt>
</event>
<event>
 4    1  0.6480558E-006  0.5261495E+03  0.7818608E-02  0.1007170E+00
          1   -1    0    0  501    0  0.00000000000E+00  0.00000000000E+00  0.49096699465E+02  0.49096699724E+02  0.50400000000E-02 0. -1.
         -1   -1    0    0    0  501 -0.00000000000E+00 -0.00000000000E+00 -0.14096326677E+04  0.14096326677E+04  0.50400000000E-02 0.  1.
    5000001    1    1    2    0    0  0.90816312703E+02 -0.99962245602E+02 -0.97586052483E+03  0.10050596087E+04  0.19900000000E+03 0.  0.
   -5000001    1    1    2    0    0 -0.90816312703E+02  0.99962245602E+02 -0.38467544344E+03  0.45366975873E+03  0.19900000000E+03 0.  0.
<mgrwt>
<rscale>  0 0.52614945E+03</rscale>
<asrwt>0</asrwt>
<pdfrwt beam="1">  1        1 0.70138151E-02 0.52614945E+03</pdfrwt>
<pdfrwt beam="2">  1       -1 0.20137607E+00 0.52614945E+03</pdfrwt>
<totfact> 0.16751911E+02</totfact>
</mgrwt>
</event>
<event>
 4    1  0.6480558E-006  0.4896026E+03  0.7818608E-02  0.1016529E+00
         -1   -1    0    0    0  501 -0.00000000000E+00  0.00000000000E+00  0.17124630196E+03  0.17124630203E+03  0.50400000000E-02 0. -1.
          1   -1    0    0  501    0  0.00000000000E+00 -0.00000000000E+00 -0.34995015587E+03  0.34995015590E+03  0.50400000000E-02 0.  1.
    5000001    1    1    2    0    0  0.13436339209E+03  0.31110619038E+01 -0.13999792791E+03  0.27796334229E+03  0.19900000000E+03 0.  0.
   -5000001    1    1    2    0    0 -0.13436339209E+03 -0.31110619038E+01 -0.38705926000E+02  0.24323311564E+03  0.19900000000E+03 0.  0.
<mgrwt>
<rscale>  0 0.48960257E+03</rscale>
<asrwt>0</asrwt>
<pdfrwt beam="1">  1        1 0.49992879E-01 0.48960257E+03</pdfrwt>
<pdfrwt beam="2">  1       -1 0.24463758E-01 0.48960257E+03</pdfrwt>
<totfact> 0.11477882E+03</totfact>
</mgrwt>
</event>
<event>
 4    1  0.6480558E-006  0.4358345E+03  0.7818608E-02  0.1032033E+00
         -1   -1    0    0    0  501 -0.00000000000E+00  0.00000000000E+00  0.52093505520E+02  0.52093505764E+02  0.50400000000E-02 0. -1.
          1   -1    0    0  501    0  0.00000000000E+00 -0.00000000000E+00 -0.91159004688E+03  0.91159004689E+03  0.50400000000E-02 0.  1.
    5000001    1    1    2    0    0 -0.58863832907E+01  0.75905737245E+02 -0.53084739407E+03  0.57201073962E+03  0.19900000000E+03 0.  0.
   -5000001    1    1    2    0    0  0.58863832907E+01 -0.75905737245E+02 -0.32864914729E+03  0.39167281304E+03  0.19900000000E+03 0.  0.
<mgrwt>
<rscale>  0 0.43583447E+03</rscale>
<asrwt>0</asrwt>
<pdfrwt beam="1">  1        1 0.13022714E+00 0.43583447E+03</pdfrwt>
<pdfrwt beam="2">  1       -1 0.74419300E-02 0.43583447E+03</pdfrwt>
<totfact> 0.20336517E+03</totfact>
</mgrwt>
</event>
<event>
 4    1  0.6480558E-006  0.7552977E+03  0.7818608E-02  0.9627076E-01
          1   -1    0    0  501    0  0.00000000000E+00  0.00000000000E+00  0.13015352001E+04  0.13015352001E+04  0.50400000000E-02 0.  1.
         -1   -1    0    0    0  501 -0.00000000000E+00 -0.00000000000E+00 -0.10957724478E+03  0.10957724490E+03  0.50400000000E-02 0. -1.
    5000001    1    1    2    0    0 -0.29056298955E+03  0.62473293271E+02  0.36955469117E+03  0.51429702802E+03  0.19900000000E+03 0.  0.
   -5000001    1    1    2    0    0  0.29056298955E+03 -0.62473293271E+02  0.82240326417E+03  0.89681541701E+03  0.19900000000E+03 0.  0.
<mgrwt>
<rscale>  0 0.75529767E+03</rscale>
<asrwt>0</asrwt>
<pdfrwt beam="1">  1        1 0.18593360E+00 0.75529767E+03</pdfrwt>
<pdfrwt beam="2">  1       -1 0.15653892E-01 0.75529767E+03</pdfrwt>
<totfact> 0.32717282E+02</totfact>
</mgrwt>
</event>
<event>
 4    1  0.6480558E-006  0.6429692E+03  0.7818608E-02  0.9820062E-01
          1   -1    0    0  501    0  0.00000000000E+00  0.00000000000E+00  0.80692780908E+02  0.80692781065E+02  0.50400000000E-02 0.  1.
         -1   -1    0    0    0  501 -0.00000000000E+00 -0.00000000000E+00 -0.12808127301E+04  0.12808127301E+04  0.50400000000E-02 0. -1.
    5000001    1    1    2    0    0  0.89501717801E+02  0.23514871053E+03 -0.55534714100E+03  0.64133994151E+03  0.19900000000E+03 0.  0.
   -5000001    1    1    2    0    0 -0.89501717801E+02 -0.23514871053E+03 -0.64477280819E+03  0.72016556967E+03  0.19900000000E+03 0.  0.
<mgrwt>
<rscale>  0 0.64296918E+03</rscale>
<asrwt>0</asrwt>
<pdfrwt beam="1">  1        1 0.11527541E-01 0.64296918E+03</pdfrwt>
<pdfrwt beam="2">  1       -1 0.18297323E+00 0.64296918E+03</pdfrwt>
<totfact> 0.11222956E+02</totfact>
</mgrwt>
</event>
<event>
 4    1  0.6480558E-006  0.4472130E+03  0.7818608E-02  0.1028556E+00
         -1   -1    0    0    0  501 -0.00000000000E+00  0.00000000000E+00  0.55165747131E+03  0.55165747133E+03  0.50400000000E-02 0. -1.
          1   -1    0    0  501    0  0.00000000000E+00 -0.00000000000E+00 -0.90635711997E+02  0.90635712137E+02  0.50400000000E-02 0.  1.
    5000001    1    1    2    0    0 -0.94848364017E+02 -0.15142801913E+02  0.27970723035E+03  0.35645848470E+03  0.19900000000E+03 0.  0.
   -5000001    1    1    2    0    0  0.94848364017E+02  0.15142801913E+02  0.18131452897E+03  0.28583469877E+03  0.19900000000E+03 0.  0.
<mgrwt>
<rscale>  0 0.44721300E+03</rscale>
<asrwt>0</asrwt>
<pdfrwt beam="1">  1        1 0.12947959E-01 0.44721300E+03</pdfrwt>
<pdfrwt beam="2">  1       -1 0.78808209E-01 0.44721300E+03</pdfrwt>
<totfact> 0.76476628E+02</totfact>
</mgrwt>
</event>
<event>
 4    1  0.6480558E-006  0.5837385E+03  0.7818608E-02  0.9939730E-01
          1   -1    0    0  501    0  0.00000000000E+00  0.00000000000E+00  0.10484227248E+03  0.10484227261E+03  0.50400000000E-02 0.  1.
         -1   -1    0    0    0  501 -0.00000000000E+00 -0.00000000000E+00 -0.81253163315E+03  0.81253163316E+03  0.50400000000E-02 0. -1.
    5000001    1    1    2    0    0 -0.40859315890E+02  0.17174648213E+03 -0.16512570874E+03  0.31310355716E+03  0.19900000000E+03 0.  0.
   -5000001    1    1    2    0    0  0.40859315890E+02 -0.17174648213E+03 -0.54256365193E+03  0.60427034861E+03  0.19900000000E+03 0.  0.
<mgrwt>
<rscale>  0 0.58373851E+03</rscale>
<asrwt>0</asrwt>
<pdfrwt beam="1">  1        1 0.14977468E-01 0.58373851E+03</pdfrwt>
<pdfrwt beam="2">  1       -1 0.11607594E+00 0.58373851E+03</pdfrwt>
<totfact> 0.26414138E+02</totfact>
</mgrwt>
</event>
<event>
 4    1  0.6480558E-006  0.5505077E+03  0.7818608E-02  0.1001376E+00
         -1   -1    0    0    0  501 -0.00000000000E+00  0.00000000000E+00  0.57820046272E+02  0.57820046491E+02  0.50400000000E-02 0. -1.
          1   -1    0    0  501    0  0.00000000000E+00 -0.00000000000E+00 -0.13103534198E+04  0.13103534198E+04  0.50400000000E-02 0.  1.
    5000001    1    1    2    0    0 -0.27107728317E+02 -0.15414557203E+03 -0.35780883626E+03  0.43831934662E+03  0.19900000000E+03 0.  0.
   -5000001    1    1    2    0    0  0.27107728317E+02  0.15414557203E+03 -0.89472453726E+03  0.92985411968E+03  0.19900000000E+03 0.  0.
<mgrwt>
<rscale>  0 0.55050775E+03</rscale>
<asrwt>0</asrwt>
<pdfrwt beam="1">  1        1 0.18719333E+00 0.55050775E+03</pdfrwt>
<pdfrwt beam="2">  1       -1 0.82600074E-02 0.55050775E+03</pdfrwt>
<totfact> 0.90275641E+02</totfact>
</mgrwt>
</event>
<event>
 4    1  0.6480558E-006  0.4733518E+03  0.7818608E-02  0.1020978E+00
         -1   -1    0    0    0  501 -0.00000000000E+00  0.00000000000E+00  0.27695620547E+03  0.27695620552E+03  0.50400000000E-02 0. -1.
          1   -1    0    0  501    0  0.00000000000E+00 -0.00000000000E+00 -0.20225391345E+03  0.20225391351E+03  0.50400000000E-02 0.  1.
    5000001    1    1    2    0    0 -0.66372224753E+02 -0.10711985298E+03  0.60757437326E+02  0.24325377964E+03  0.19900000000E+03 0.  0.
   -5000001    1    1    2    0    0  0.66372224753E+02  0.10711985298E+03  0.13944854697E+02  0.23595633938E+03  0.19900000000E+03 0.  0.
<mgrwt>
<rscale>  0 0.47335178E+03</rscale>
<asrwt>0</asrwt>
<pdfrwt beam="1">  1        1 0.28893416E-01 0.47335178E+03</pdfrwt>
<pdfrwt beam="2">  1       -1 0.39565172E-01 0.47335178E+03</pdfrwt>
<totfact> 0.10051635E+03</totfact>
</mgrwt>
</event>
<event>
 4    1  0.6480558E-006  0.8374698E+03  0.7818608E-02  0.9507311E-01
         -1   -1    0    0    0  501 -0.00000000000E+00  0.00000000000E+00  0.33906480682E+03  0.33906480686E+03  0.50400000000E-02 0. -1.
          1   -1    0    0  501    0  0.00000000000E+00 -0.00000000000E+00 -0.51712514466E+03  0.51712514468E+03  0.50400000000E-02 0.  1.
    5000001    1    1    2    0    0 -0.50832974014E+02  0.34891711556E+03 -0.19823927451E+03  0.45080700387E+03  0.19900000000E+03 0.  0.
   -5000001    1    1    2    0    0  0.50832974014E+02 -0.34891711556E+03  0.20178936666E+02  0.40538294767E+03  0.19900000000E+03 0.  0.
<mgrwt>
<rscale>  0 0.83746985E+03</rscale>
<asrwt>0</asrwt>
<pdfrwt beam="1">  1        1 0.73875021E-01 0.83746985E+03</pdfrwt>
<pdfrwt beam="2">  1       -1 0.48437829E-01 0.83746985E+03</pdfrwt>
<totfact> 0.20166376E+02</totfact>
</mgrwt>
</event>
<event>
 4    1  0.6480558E-006  0.9940190E+03  0.7818608E-02  0.9315129E-01
         -1   -1    0    0    0  501 -0.00000000000E+00  0.00000000000E+00  0.30636966021E+03  0.30636966025E+03  0.50400000000E-02 0. -1.
          1   -1    0    0  501    0  0.00000000000E+00 -0.00000000000E+00 -0.80627580955E+03  0.80627580957E+03  0.50400000000E-02 0.  1.
    5000001    1    1    2    0    0  0.32670368006E+03  0.26255574048E+03 -0.50513673594E+02  0.46671559074E+03  0.19900000000E+03 0.  0.
   -5000001    1    1    2    0    0 -0.32670368006E+03 -0.26255574048E+03 -0.44939247575E+03  0.64592987908E+03  0.19900000000E+03 0.  0.
<mgrwt>
<rscale>  0 0.99401901E+03</rscale>
<asrwt>0</asrwt>
<pdfrwt beam="1">  1        1 0.11518226E+00 0.99401901E+03</pdfrwt>
<pdfrwt beam="2">  1       -1 0.43767095E-01 0.99401901E+03</pdfrwt>
<totfact> 0.12695462E+02</totfact>
</mgrwt>
</event>
<event>
 4    1  0.6480558E-006  0.4531151E+03  0.7818608E-02  0.1026797E+00
         -1   -1    0    0    0  501 -0.00000000000E+00  0.00000000000E+00  0.10721221179E+03  0.10721221191E+03  0.50400000000E-02 0.  1.
          1   -1    0    0  501    0  0.00000000000E+00 -0.00000000000E+00 -0.47875455448E+03  0.47875455451E+03  0.50400000000E-02 0. -1.
    5000001    1    1    2    0    0 -0.71218762372E+02 -0.70992536015E+02 -0.23774547026E+03  0.32593858457E+03  0.19900000000E+03 0.  0.
   -5000001    1    1    2    0    0  0.71218762372E+02  0.70992536015E+02 -0.13379687243E+03  0.26002818185E+03  0.19900000000E+03 0.  0.
<mgrwt>
<rscale>  0 0.45311515E+03</rscale>
<asrwt>0</asrwt>
<pdfrwt beam="1">  1        1 0.68393507E-01 0.45311515E+03</pdfrwt>
<pdfrwt beam="2">  1       -1 0.15316031E-01 0.45311515E+03</pdfrwt>
<totfact> 0.16488722E+03</totfact>
</mgrwt>
</event>
<event>
 4    1  0.6480558E-006  0.1342705E+04  0.7818608E-02  0.8996369E-01
         -1   -1    0    0    0  501 -0.00000000000E+00  0.00000000000E+00  0.26892818265E+03  0.26892818269E+03  0.50400000000E-02 0.  1.
          1   -1    0    0  501    0  0.00000000000E+00 -0.00000000000E+00 -0.16759643715E+04  0.16759643715E+04  0.50400000000E-02 0. -1.
    5000001    1    1    2    0    0 -0.39284099088E+03  0.36655457973E+03 -0.12103374897E+04  0.13391057251E+04  0.19900000000E+03 0.  0.
   -5000001    1    1    2    0    0  0.39284099088E+03 -0.36655457973E+03 -0.19669869913E+03  0.60578682907E+03  0.19900000000E+03 0.  0.
<mgrwt>
<rscale>  0 0.13427048E+04</rscale>
<asrwt>0</asrwt>
<pdfrwt beam="1">  1        1 0.23942348E+00 0.13427048E+04</pdfrwt>
<pdfrwt beam="2">  1       -1 0.38418313E-01 0.13427048E+04</pdfrwt>
<totfact> 0.38436601E+01</totfact>
</mgrwt>
</event>
<event>
 4    1  0.6480558E-006  0.6542150E+03  0.7818608E-02  0.9798902E-01
          1   -1    0    0  501    0  0.00000000000E+00  0.00000000000E+00  0.19846394055E+03  0.19846394061E+03  0.50400000000E-02 0. -1.
         -1   -1    0    0    0  501 -0.00000000000E+00 -0.00000000000E+00 -0.53913728835E+03  0.53913728838E+03  0.50400000000E-02 0.  1.
    5000001    1    1    2    0    0 -0.20741592702E+02  0.25587528778E+03 -0.21394379267E+03  0.38894128476E+03  0.19900000000E+03 0.  0.
   -5000001    1    1    2    0    0  0.20741592702E+02 -0.25587528778E+03 -0.12672955513E+03  0.34865994423E+03  0.19900000000E+03 0.  0.
<mgrwt>
<rscale>  0 0.65421498E+03</rscale>
<asrwt>0</asrwt>
<pdfrwt beam="1">  1        1 0.28351992E-01 0.65421498E+03</pdfrwt>
<pdfrwt beam="2">  1       -1 0.77019612E-01 0.65421498E+03</pdfrwt>
<totfact> 0.28374124E+02</totfact>
</mgrwt>
</event>
<event>
 4    1  0.6480558E-006  0.5156287E+03  0.7818608E-02  0.1009778E+00
         -1   -1    0    0    0  501 -0.00000000000E+00  0.00000000000E+00  0.14546782290E+03  0.14546782299E+03  0.50400000000E-02 0.  1.
          1   -1    0    0  501    0  0.00000000000E+00 -0.00000000000E+00 -0.45692741019E+03  0.45692741022E+03  0.50400000000E-02 0. -1.
    5000001    1    1    2    0    0 -0.81418230473E+02 -0.12147514441E+03 -0.69229456576E+02  0.25647389072E+03  0.19900000000E+03 0.  0.
   -5000001    1    1    2    0    0  0.81418230473E+02  0.12147514441E+03 -0.24223013072E+03  0.34592134249E+03  0.19900000000E+03 0.  0.
<mgrwt>
<rscale>  0 0.51562869E+03</rscale>
<asrwt>0</asrwt>
<pdfrwt beam="1">  1        1 0.65275344E-01 0.51562869E+03</pdfrwt>
<pdfrwt beam="2">  1       -1 0.20781118E-01 0.51562869E+03</pdfrwt>
<totfact> 0.10652571E+03</totfact>
</mgrwt>
</event>
<event>
 4    1  0.6480558E-006  0.6032117E+03  0.7818608E-02  0.9898765E-01
         -1   -1    0    0    0  501 -0.00000000000E+00  0.00000000000E+00  0.54970444693E+03  0.54970444695E+03  0.50400000000E-02 0. -1.
          1   -1    0    0  501    0  0.00000000000E+00 -0.00000000000E+00 -0.16548180030E+03  0.16548180038E+03  0.50400000000E-02 0.  1.
    5000001    1    1    2    0    0  0.17665934789E+03  0.14040889357E+03  0.16718771585E+03  0.34420330464E+03  0.19900000000E+03 0.  0.
   -5000001    1    1    2    0    0 -0.17665934789E+03 -0.14040889357E+03  0.21703493077E+03  0.37098294269E+03  0.19900000000E+03 0.  0.
<mgrwt>
<rscale>  0 0.60321168E+03</rscale>
<asrwt>0</asrwt>
<pdfrwt beam="1">  1        1 0.23640257E-01 0.60321168E+03</pdfrwt>
<pdfrwt beam="2">  1       -1 0.78529208E-01 0.60321168E+03</pdfrwt>
<totfact> 0.34579784E+02</totfact>
</mgrwt>
</event>
<event>
 4    1  0.6480558E-006  0.5496997E+03  0.7818608E-02  0.1001563E+00
         -1   -1    0    0    0  501 -0.00000000000E+00  0.00000000000E+00  0.47410563868E+02  0.47410564136E+02  0.50400000000E-02 0. -1.
          1   -1    0    0  501    0  0.00000000000E+00 -0.00000000000E+00 -0.15933674350E+04  0.15933674350E+04  0.50400000000E-02 0.  1.
    5000001    1    1    2    0    0 -0.73704120434E+02 -0.17451630151E+03 -0.75120491185E+03  0.79987377532E+03  0.19900000000E+03 0.  0.
   -5000001    1    1    2    0    0  0.73704120434E+02  0.17451630151E+03 -0.79475195928E+03  0.84090422382E+03  0.19900000000E+03 0.  0.
<mgrwt>
<rscale>  0 0.54969973E+03</rscale>
<asrwt>0</asrwt>
<pdfrwt beam="1">  1        1 0.22762389E+00 0.54969973E+03</pdfrwt>
<pdfrwt beam="2">  1       -1 0.67729387E-02 0.54969973E+03</pdfrwt>
<totfact> 0.80662264E+02</totfact>
</mgrwt>
</event>
<event>
 4    1  0.6480558E-006  0.6921410E+03  0.7818608E-02  0.9730767E-01
         -1   -1    0    0    0  501 -0.00000000000E+00  0.00000000000E+00  0.92874026058E+02  0.92874026195E+02  0.50400000000E-02 0. -1.
          1   -1    0    0  501    0  0.00000000000E+00 -0.00000000000E+00 -0.12895401150E+04  0.12895401150E+04  0.50400000000E-02 0.  1.
    5000001    1    1    2    0    0  0.23657648122E+02 -0.19742163969E+03 -0.19574527777E+03  0.34271300224E+03  0.19900000000E+03 0.  0.
   -5000001    1    1    2    0    0 -0.23657648122E+02  0.19742163969E+03 -0.10009208112E+04  0.10397011390E+04  0.19900000000E+03 0.  0.
<mgrwt>
<rscale>  0 0.69214098E+03</rscale>
<asrwt>0</asrwt>
<pdfrwt beam="1">  1        1 0.18422001E+00 0.69214098E+03</pdfrwt>
<pdfrwt beam="2">  1       -1 0.13267719E-01 0.69214098E+03</pdfrwt>
<totfact> 0.43725589E+02</totfact>
</mgrwt>
</event>
<event>
 4    1  0.6480558E-006  0.7642919E+03  0.7818608E-02  0.9613192E-01
          1   -1    0    0  501    0  0.00000000000E+00  0.00000000000E+00  0.30675954208E+04  0.30675954208E+04  0.50400000000E-02 0.  1.
         -1   -1    0    0    0  501 -0.00000000000E+00 -0.00000000000E+00 -0.47605868973E+02  0.47605869239E+02  0.50400000000E-02 0. -1.
    5000001    1    1    2    0    0  0.30770850982E+03 -0.91805710704E+02  0.17449088460E+04  0.17853348976E+04  0.19900000000E+03 0.  0.
   -5000001    1    1    2    0    0 -0.30770850982E+03  0.91805710704E+02  0.12750807058E+04  0.13298663925E+04  0.19900000000E+03 0.  0.
<mgrwt>
<rscale>  0 0.76429195E+03</rscale>
<asrwt>0</asrwt>
<pdfrwt beam="1">  1        1 0.43822783E+00 0.76429195E+03</pdfrwt>
<pdfrwt beam="2">  1       -1 0.68008398E-02 0.76429195E+03</pdfrwt>
<totfact> 0.93439933E+01</totfact>
</mgrwt>
</event>
<event>
 4    1  0.6480558E-006  0.7850314E+03  0.7818608E-02  0.9581940E-01
          1   -1    0    0  501    0  0.00000000000E+00  0.00000000000E+00  0.19378280119E+03  0.19378280126E+03  0.50400000000E-02 0.  1.
         -1   -1    0    0    0  501 -0.00000000000E+00 -0.00000000000E+00 -0.79505794622E+03  0.79505794623E+03  0.50400000000E-02 0. -1.
    5000001    1    1    2    0    0 -0.16490682394E+03  0.27007634213E+03 -0.45143493102E+03  0.58611431318E+03  0.19900000000E+03 0.  0.
   -5000001    1    1    2    0    0  0.16490682394E+03 -0.27007634213E+03 -0.14984021401E+03  0.40272643431E+03  0.19900000000E+03 0.  0.
<mgrwt>
<rscale>  0 0.78503135E+03</rscale>
<asrwt>0</asrwt>
<pdfrwt beam="1">  1        1 0.27683258E-01 0.78503135E+03</pdfrwt>
<pdfrwt beam="2">  1       -1 0.11357970E+00 0.78503135E+03</pdfrwt>
<totfact> 0.12233261E+02</totfact>
</mgrwt>
</event>
<event>
 4    1  0.6480558E-006  0.9236735E+03  0.7818608E-02  0.9396463E-01
          1   -1    0    0  501    0  0.00000000000E+00  0.00000000000E+00  0.25339409036E+04  0.25339409037E+04  0.50400000000E-02 0.  1.
         -1   -1    0    0    0  501 -0.00000000000E+00 -0.00000000000E+00 -0.84174490698E+02  0.84174490849E+02  0.50400000000E-02 0. -1.
    5000001    1    1    2    0    0  0.60480223302E+02 -0.40906498250E+03  0.10775957764E+04  0.11712410831E+04  0.19900000000E+03 0.  0.
   -5000001    1    1    2    0    0 -0.60480223302E+02  0.40906498250E+03  0.13721706365E+04  0.14468743114E+04  0.19900000000E+03 0.  0.
<mgrwt>
<rscale>  0 0.92367350E+03</rscale>
<asrwt>0</asrwt>
<pdfrwt beam="1">  1        1 0.36199162E+00 0.92367350E+03</pdfrwt>
<pdfrwt beam="2">  1       -1 0.12024925E-01 0.92367350E+03</pdfrwt>
<totfact> 0.82212099E+01</totfact>
</mgrwt>
</event>
<event>
 4    1  0.6480558E-006  0.5625072E+03  0.7818608E-02  0.9986397E-01
         -1   -1    0    0    0  501 -0.00000000000E+00  0.00000000000E+00  0.40108515487E+02  0.40108515804E+02  0.50400000000E-02 0. -1.
          1   -1    0    0  501    0  0.00000000000E+00 -0.00000000000E+00 -0.19722394720E+04  0.19722394720E+04  0.50400000000E-02 0.  1.
    5000001    1    1    2    0    0 -0.85071700986E+02 -0.17281327743E+03 -0.11413601639E+04  0.11744810118E+04  0.19900000000E+03 0.  0.
   -5000001    1    1    2    0    0  0.85071700986E+02  0.17281327743E+03 -0.79077079262E+03  0.83786697609E+03  0.19900000000E+03 0.  0.
<mgrwt>
<rscale>  0 0.56250724E+03</rscale>
<asrwt>0</asrwt>
<pdfrwt beam="1">  1        1 0.28174843E+00 0.56250724E+03</pdfrwt>
<pdfrwt beam="2">  1       -1 0.57297892E-02 0.56250724E+03</pdfrwt>
<totfact> 0.60587474E+02</totfact>
</mgrwt>
</event>
<event>
 4    1  0.6480558E-006  0.7400585E+03  0.7818608E-02  0.9651077E-01
          1   -1    0    0  501    0  0.00000000000E+00  0.00000000000E+00  0.44192344973E+03  0.44192344976E+03  0.50400000000E-02 0.  1.
         -1   -1    0    0    0  501 -0.00000000000E+00 -0.00000000000E+00 -0.30983116326E+03  0.30983116330E+03  0.50400000000E-02 0. -1.
    5000001    1    1    2    0    0  0.18279095917E+03 -0.24025466306E+03  0.14593912416E+03  0.38991545986E+03  0.19900000000E+03 0.  0.
   -5000001    1    1    2    0    0 -0.18279095917E+03  0.24025466306E+03 -0.13846837693E+02  0.36183915320E+03  0.19900000000E+03 0.  0.
<mgrwt>
<rscale>  0 0.74005853E+03</rscale>
<asrwt>0</asrwt>
<pdfrwt beam="1">  1        1 0.63131922E-01 0.74005853E+03</pdfrwt>
<pdfrwt beam="2">  1       -1 0.44261595E-01 0.74005853E+03</pdfrwt>
<totfact> 0.29613811E+02</totfact>
</mgrwt>
</event>
<event>
 4    1  0.6480558E-006  0.5064050E+03  0.7818608E-02  0.1012121E+00
          1   -1    0    0  501    0  0.00000000000E+00  0.00000000000E+00  0.62837392047E+03  0.62837392049E+03  0.50400000000E-02 0.  1.
         -1   -1    0    0    0  501 -0.00000000000E+00 -0.00000000000E+00 -0.10202761659E+03  0.10202761672E+03  0.50400000000E-02 0. -1.
    5000001    1    1    2    0    0  0.80055027258E+02  0.10568505374E+03  0.14308389731E+03  0.27866133503E+03  0.19900000000E+03 0.  0.
   -5000001    1    1    2    0    0 -0.80055027258E+02 -0.10568505374E+03  0.38326240657E+03  0.45174020217E+03  0.19900000000E+03 0.  0.
<mgrwt>
<rscale>  0 0.50640495E+03</rscale>
<asrwt>0</asrwt>
<pdfrwt beam="1">  1        1 0.89767704E-01 0.50640495E+03</pdfrwt>
<pdfrwt beam="2">  1       -1 0.14575374E-01 0.50640495E+03</pdfrwt>
<totfact> 0.12326491E+03</totfact>
</mgrwt>
</event>
<event>
 4    1  0.6480558E-006  0.7216909E+03  0.7818608E-02  0.9680840E-01
         -1   -1    0    0    0  501 -0.00000000000E+00  0.00000000000E+00  0.82803047101E+02  0.82803047255E+02  0.50400000000E-02 0.  1.
          1   -1    0    0  501    0  0.00000000000E+00 -0.00000000000E+00 -0.15725197960E+04  0.15725197961E+04  0.50400000000E-02 0. -1.
    5000001    1    1    2    0    0 -0.28083037998E+03 -0.46906630757E+02 -0.52079932049E+03  0.62601826376E+03  0.19900000000E+03 0.  0.
   -5000001    1    1    2    0    0  0.28083037998E+03  0.46906630757E+02 -0.96891742845E+03  0.10293045796E+04  0.19900000000E+03 0.  0.
<mgrwt>
<rscale>  0 0.72169088E+03</rscale>
<asrwt>0</asrwt>
<pdfrwt beam="1">  1        1 0.22464567E+00 0.72169088E+03</pdfrwt>
<pdfrwt beam="2">  1       -1 0.11829008E-01 0.72169088E+03</pdfrwt>
<totfact> 0.34296993E+02</totfact>
</mgrwt>
</event>
<event>
 4    1  0.6480558E-006  0.4981695E+03  0.7818608E-02  0.1014258E+00
          1   -1    0    0  501    0  0.00000000000E+00  0.00000000000E+00  0.15136666023E+04  0.15136666023E+04  0.50400000000E-02 0. -1.
         -1   -1    0    0    0  501 -0.00000000000E+00 -0.00000000000E+00 -0.40988685589E+02  0.40988685898E+02  0.50400000000E-02 0.  1.
    5000001    1    1    2    0    0  0.10148432697E+02  0.13590918668E+03  0.93042531722E+03  0.96117977956E+03  0.19900000000E+03 0.  0.
   -5000001    1    1    2    0    0 -0.10148432697E+02 -0.13590918668E+03  0.54225259952E+03  0.59347550867E+03  0.19900000000E+03 0.  0.
<mgrwt>
<rscale>  0 0.49816947E+03</rscale>
<asrwt>0</asrwt>
<pdfrwt beam="1">  1        1 0.21623812E+00 0.49816947E+03</pdfrwt>
<pdfrwt beam="2">  1       -1 0.58555255E-02 0.49816947E+03</pdfrwt>
<totfact> 0.11362667E+03</totfact>
</mgrwt>
</event>
<event>
 4    1  0.6480558E-006  0.4459697E+03  0.7818608E-02  0.1028931E+00
         -1   -1    0    0    0  501 -0.00000000000E+00  0.00000000000E+00  0.39462388346E+02  0.39462388667E+02  0.50400000000E-02 0. -1.
          1   -1    0    0  501    0  0.00000000000E+00 -0.00000000000E+00 -0.12599904646E+04  0.12599904646E+04  0.50400000000E-02 0.  1.
    5000001    1    1    2    0    0 -0.53275330236E+02  0.16817010176E+02 -0.85405029547E+03  0.87870585512E+03  0.19900000000E+03 0.  0.
   -5000001    1    1    2    0    0  0.53275330236E+02 -0.16817010176E+02 -0.36647778078E+03  0.42074699815E+03  0.19900000000E+03 0.  0.
<mgrwt>
<rscale>  0 0.44596965E+03</rscale>
<asrwt>0</asrwt>
<pdfrwt beam="1">  1        1 0.17999861E+00 0.44596965E+03</pdfrwt>
<pdfrwt beam="2">  1       -1 0.56374848E-02 0.44596965E+03</pdfrwt>
<totfact> 0.17628621E+03</totfact>
</mgrwt>
</event>
<event>
 4    1  0.6480558E-006  0.6438819E+03  0.7818608E-02  0.9818328E-01
         -1   -1    0    0    0  501 -0.00000000000E+00  0.00000000000E+00  0.85326135472E+03  0.85326135474E+03  0.50400000000E-02 0. -1.
          1   -1    0    0  501    0  0.00000000000E+00 -0.00000000000E+00 -0.12147036996E+03  0.12147037007E+03  0.50400000000E-02 0.  1.
    5000001    1    1    2    0    0  0.20127995098E+02  0.25085718517E+03  0.40624736248E+03  0.51766049015E+03  0.19900000000E+03 0.  0.
   -5000001    1    1    2    0    0 -0.20127995098E+02 -0.25085718517E+03  0.32554362228E+03  0.45707123466E+03  0.19900000000E+03 0.  0.
<mgrwt>
<rscale>  0 0.64388189E+03</rscale>
<asrwt>0</asrwt>
<pdfrwt beam="1">  1        1 0.17352910E-01 0.64388189E+03</pdfrwt>
<pdfrwt beam="2">  1       -1 0.12189448E+00 0.64388189E+03</pdfrwt>
<totfact> 0.19223043E+02</totfact>
</mgrwt>
</event>
<event>
 4    1  0.6480558E-006  0.4922081E+03  0.7818608E-02  0.1015833E+00
          1   -1    0    0  501    0  0.00000000000E+00  0.00000000000E+00  0.44311097114E+03  0.44311097117E+03  0.50400000000E-02 0.  1.
         -1   -1    0    0    0  501 -0.00000000000E+00 -0.00000000000E+00 -0.13668630209E+03  0.13668630218E+03  0.50400000000E-02 0. -1.
    5000001    1    1    2    0    0 -0.88200327512E+02  0.11173671730E+03  0.18441823240E+03  0.30639105112E+03  0.19900000000E+03 0.  0.
   -5000001    1    1    2    0    0  0.88200327512E+02 -0.11173671730E+03  0.12200643665E+03  0.27340622223E+03  0.19900000000E+03 0.  0.
<mgrwt>
<rscale>  0 0.49220809E+03</rscale>
<asrwt>0</asrwt>
<pdfrwt beam="1">  1        1 0.63301567E-01 0.49220809E+03</pdfrwt>
<pdfrwt beam="2">  1       -1 0.19526615E-01 0.49220809E+03</pdfrwt>
<totfact> 0.12297013E+03</totfact>
</mgrwt>
</event>
<event>
 4    1  0.6480558E-006  0.4467472E+03  0.7818608E-02  0.1028697E+00
          1   -1    0    0  501    0  0.00000000000E+00  0.00000000000E+00  0.15307646576E+03  0.15307646584E+03  0.50400000000E-02 0.  1.
         -1   -1    0    0    0  501 -0.00000000000E+00 -0.00000000000E+00 -0.32595322510E+03  0.32595322514E+03  0.50400000000E-02 0. -1.
    5000001    1    1    2    0    0 -0.53288214131E+01 -0.10107978619E+03 -0.78913564723E+02  0.23679921920E+03  0.19900000000E+03 0.  0.
   -5000001    1    1    2    0    0  0.53288214131E+01  0.10107978619E+03 -0.93963194617E+02  0.24223047178E+03  0.19900000000E+03 0.  0.
<mgrwt>
<rscale>  0 0.44674721E+03</rscale>
<asrwt>0</asrwt>
<pdfrwt beam="1">  1        1 0.21868067E-01 0.44674721E+03</pdfrwt>
<pdfrwt beam="2">  1       -1 0.46564746E-01 0.44674721E+03</pdfrwt>
<totfact> 0.10710640E+03</totfact>
</mgrwt>
</event>
<event>
 4    1  0.6480558E-006  0.4556054E+03  0.7818608E-02  0.1026064E+00
         -1   -1    0    0    0  501 -0.00000000000E+00  0.00000000000E+00  0.12597648629E+04  0.12597648629E+04  0.50400000000E-02 0. -1.
          1   -1    0    0  501    0  0.00000000000E+00 -0.00000000000E+00 -0.41193457873E+02  0.41193458181E+02  0.50400000000E-02 0.  1.
    5000001    1    1    2    0    0  0.30913974060E+02  0.10525667163E+03  0.56338215670E+03  0.60748258840E+03  0.19900000000E+03 0.  0.
   -5000001    1    1    2    0    0 -0.30913974060E+02 -0.10525667163E+03  0.65518924832E+03  0.69347573269E+03  0.19900000000E+03 0.  0.
<mgrwt>
<rscale>  0 0.45560540E+03</rscale>
<asrwt>0</asrwt>
<pdfrwt beam="1">  1        1 0.58847799E-02 0.45560540E+03</pdfrwt>
<pdfrwt beam="2">  1       -1 0.17996640E+00 0.45560540E+03</pdfrwt>
<totfact> 0.30192362E+02</totfact>
</mgrwt>
</event>
<event>
 4    1  0.6480558E-006  0.7676935E+03  0.7818608E-02  0.9607994E-01
         -1   -1    0    0    0  501 -0.00000000000E+00  0.00000000000E+00  0.76027280250E+03  0.76027280252E+03  0.50400000000E-02 0. -1.
          1   -1    0    0  501    0  0.00000000000E+00 -0.00000000000E+00 -0.19379666144E+03  0.19379666150E+03  0.50400000000E-02 0.  1.
    5000001    1    1    2    0    0  0.30642715573E+03  0.49258251123E+02  0.41600770783E+03  0.55586634189E+03  0.19900000000E+03 0.  0.
   -5000001    1    1    2    0    0 -0.30642715573E+03 -0.49258251123E+02  0.15046843323E+03  0.39820312213E+03  0.19900000000E+03 0.  0.
<mgrwt>
<rscale>  0 0.76769351E+03</rscale>
<asrwt>0</asrwt>
<pdfrwt beam="1">  1        1 0.27685237E-01 0.76769351E+03</pdfrwt>
<pdfrwt beam="2">  1       -1 0.10861040E+00 0.76769351E+03</pdfrwt>
<totfact> 0.13609347E+02</totfact>
</mgrwt>
</event>
<event>
 4    1  0.6480558E-006  0.7042254E+03  0.7818608E-02  0.9710033E-01
         -1   -1    0    0    0  501 -0.00000000000E+00  0.00000000000E+00  0.16605202041E+03  0.16605202049E+03  0.50400000000E-02 0. -1.
          1   -1    0    0  501    0  0.00000000000E+00 -0.00000000000E+00 -0.74665371610E+03  0.74665371612E+03  0.50400000000E-02 0.  1.
    5000001    1    1    2    0    0 -0.20171024745E+03 -0.18595456816E+03 -0.41404560011E+03  0.53507091522E+03  0.19900000000E+03 0.  0.
   -5000001    1    1    2    0    0  0.20171024745E+03  0.18595456816E+03 -0.16655609558E+03  0.37763482139E+03  0.19900000000E+03 0.  0.
<mgrwt>
<rscale>  0 0.70422541E+03</rscale>
<asrwt>0</asrwt>
<pdfrwt beam="1">  1        1 0.10666482E+00 0.70422541E+03</pdfrwt>
<pdfrwt beam="2">  1       -1 0.23721717E-01 0.70422541E+03</pdfrwt>
<totfact> 0.42739815E+02</totfact>
</mgrwt>
</event>
<event>
 4    1  0.6480558E-006  0.4111898E+03  0.7818608E-02  0.1039972E+00
         -1   -1    0    0    0  501 -0.00000000000E+00  0.00000000000E+00  0.45405743575E+02  0.45405743854E+02  0.50400000000E-02 0.  1.
          1   -1    0    0  501    0  0.00000000000E+00 -0.00000000000E+00 -0.93092321086E+03  0.93092321088E+03  0.50400000000E-02 0. -1.
    5000001    1    1    2    0    0  0.31317220570E+01 -0.47968450909E+02 -0.39786557175E+03  0.44744697245E+03  0.19900000000E+03 0.  0.
   -5000001    1    1    2    0    0 -0.31317220570E+01  0.47968450909E+02 -0.48765189554E+03  0.52888198229E+03  0.19900000000E+03 0.  0.
<mgrwt>
<rscale>  0 0.41118979E+03</rscale>
<asrwt>0</asrwt>
<pdfrwt beam="1">  1        1 0.13298902E+00 0.41118979E+03</pdfrwt>
<pdfrwt beam="2">  1       -1 0.64865354E-02 0.41118979E+03</pdfrwt>
<totfact> 0.24278271E+03</totfact>
</mgrwt>
</event>
<event>
 4    1  0.6480558E-006  0.7768361E+03  0.7818608E-02  0.9594165E-01
         -1   -1    0    0    0  501 -0.00000000000E+00  0.00000000000E+00  0.37509788067E+03  0.37509788070E+03  0.50400000000E-02 0.  1.
          1   -1    0    0  501    0  0.00000000000E+00 -0.00000000000E+00 -0.40221124955E+03  0.40221124959E+03  0.50400000000E-02 0. -1.
    5000001    1    1    2    0    0 -0.22588309421E+03  0.26662940389E+02 -0.25770013539E+03  0.39717054828E+03  0.19900000000E+03 0.  0.
   -5000001    1    1    2    0    0  0.22588309421E+03 -0.26662940389E+02  0.23058676651E+03  0.38013858201E+03  0.19900000000E+03 0.  0.
<mgrwt>
<rscale>  0 0.77683611E+03</rscale>
<asrwt>0</asrwt>
<pdfrwt beam="1">  1        1 0.57458750E-01 0.77683611E+03</pdfrwt>
<pdfrwt beam="2">  1       -1 0.53585412E-01 0.77683611E+03</pdfrwt>
<totfact> 0.23358397E+02</totfact>
</mgrwt>
</event>
<event>
 4    1  0.6480558E-006  0.4482818E+03  0.7818608E-02  0.1028236E+00
         -1   -1    0    0    0  501 -0.00000000000E+00  0.00000000000E+00  0.14376857711E+03  0.14376857720E+03  0.50400000000E-02 0.  1.
          1   -1    0    0  501    0  0.00000000000E+00 -0.00000000000E+00 -0.34944459154E+03  0.34944459157E+03  0.50400000000E-02 0. -1.
    5000001    1    1    2    0    0 -0.24093952732E+02  0.10023035397E+03 -0.10657058045E+03  0.24816311377E+03  0.19900000000E+03 0.  0.
   -5000001    1    1    2    0    0  0.24093952732E+02 -0.10023035397E+03 -0.99105433974E+02  0.24505005501E+03  0.19900000000E+03 0.  0.
<mgrwt>
<rscale>  0 0.44828184E+03</rscale>
<asrwt>0</asrwt>
<pdfrwt beam="1">  1        1 0.49920656E-01 0.44828184E+03</pdfrwt>
<pdfrwt beam="2">  1       -1 0.20538368E-01 0.44828184E+03</pdfrwt>
<totfact> 0.15390926E+03</totfact>
</mgrwt>
</event>
<event>
 4    1  0.6480558E-006  0.8232824E+03  0.7818608E-02  0.9526915E-01
         -1   -1    0    0    0  501 -0.00000000000E+00  0.00000000000E+00  0.15604063919E+03  0.15604063927E+03  0.50400000000E-02 0. -1.
          1   -1    0    0  501    0  0.00000000000E+00 -0.00000000000E+00 -0.10859252204E+04  0.10859252205E+04  0.50400000000E-02 0.  1.
    5000001    1    1    2    0    0  0.20626686849E+03  0.29348373447E+03 -0.41336955213E+03  0.58236939314E+03  0.19900000000E+03 0.  0.
   -5000001    1    1    2    0    0 -0.20626686849E+03 -0.29348373447E+03 -0.51651502912E+03  0.65959646659E+03  0.19900000000E+03 0.  0.
<mgrwt>
<rscale>  0 0.82328237E+03</rscale>
<asrwt>0</asrwt>
<pdfrwt beam="1">  1        1 0.15513217E+00 0.82328237E+03</pdfrwt>
<pdfrwt beam="2">  1       -1 0.22291520E-01 0.82328237E+03</pdfrwt>
<totfact> 0.25586176E+02</totfact>
</mgrwt>
</event>
<event>
 4    1  0.6480558E-006  0.8899312E+03  0.7818608E-02  0.9438256E-01
         -1   -1    0    0    0  501 -0.00000000000E+00  0.00000000000E+00  0.21605445373E+03  0.21605445379E+03  0.50400000000E-02 0. -1.
          1   -1    0    0  501    0  0.00000000000E+00 -0.00000000000E+00 -0.91640959072E+03  0.91640959073E+03  0.50400000000E-02 0.  1.
    5000001    1    1    2    0    0 -0.38763007713E+03 -0.37040537836E+01 -0.23549037731E+03  0.49530547596E+03  0.19900000000E+03 0.  0.
   -5000001    1    1    2    0    0  0.38763007713E+03  0.37040537836E+01 -0.46486475968E+03  0.63715856857E+03  0.19900000000E+03 0.  0.
<mgrwt>
<rscale>  0 0.88993117E+03</rscale>
<asrwt>0</asrwt>
<pdfrwt beam="1">  1        1 0.13091565E+00 0.88993117E+03</pdfrwt>
<pdfrwt beam="2">  1       -1 0.30864922E-01 0.88993117E+03</pdfrwt>
<totfact> 0.19510594E+02</totfact>
</mgrwt>
</event>
<event>
 4    1  0.6480558E-006  0.6300240E+03  0.7818608E-02  0.9845002E-01
          1   -1    0    0  501    0  0.00000000000E+00  0.00000000000E+00  0.20429611452E+04  0.20429611452E+04  0.50400000000E-02 0.  1.
         -1   -1    0    0    0  501 -0.00000000000E+00 -0.00000000000E+00 -0.48572905003E+02  0.48572905265E+02  0.50400000000E-02 0. -1.
    5000001    1    1    2    0    0 -0.16832159667E+03  0.17149012140E+03  0.85284958136E+03  0.90812687994E+03  0.19900000000E+03 0.  0.
   -5000001    1    1    2    0    0  0.16832159667E+03 -0.17149012140E+03  0.11415386589E+04  0.11834071706E+04  0.19900000000E+03 0.  0.
<mgrwt>
<rscale>  0 0.63002399E+03</rscale>
<asrwt>0</asrwt>
<pdfrwt beam="1">  1        1 0.29185154E+00 0.63002399E+03</pdfrwt>
<pdfrwt beam="2">  1       -1 0.69389877E-02 0.63002399E+03</pdfrwt>
<totfact> 0.40579918E+02</totfact>
</mgrwt>
</event>
<event>
 4    1  0.6480558E-006  0.4838991E+03  0.7818608E-02  0.1018069E+00
          1   -1    0    0  501    0  0.00000000000E+00  0.00000000000E+00  0.15615476677E+03  0.15615476685E+03  0.50400000000E-02 0. -1.
         -1   -1    0    0    0  501 -0.00000000000E+00 -0.00000000000E+00 -0.37488185836E+03  0.37488185839E+03  0.50400000000E-02 0.  1.
    5000001    1    1    2    0    0 -0.79080684876E+02  0.70573755363E+02 -0.13039915684E+02  0.22584385993E+03  0.19900000000E+03 0.  0.
   -5000001    1    1    2    0    0  0.79080684876E+02 -0.70573755363E+02 -0.20568717591E+03  0.30519276531E+03  0.19900000000E+03 0.  0.
<mgrwt>
<rscale>  0 0.48389912E+03</rscale>
<asrwt>0</asrwt>
<pdfrwt beam="1">  1        1 0.22307824E-01 0.48389912E+03</pdfrwt>
<pdfrwt beam="2">  1       -1 0.53554551E-01 0.48389912E+03</pdfrwt>
<totfact> 0.80295711E+02</totfact>
</mgrwt>
</event>
<event>
 4    1  0.6480558E-006  0.1218020E+04  0.7818608E-02  0.9097229E-01
         -1   -1    0    0    0  501 -0.00000000000E+00  0.00000000000E+00  0.20892552787E+03  0.20892552793E+03  0.50400000000E-02 0. -1.
          1   -1    0    0  501    0  0.00000000000E+00 -0.00000000000E+00 -0.17752398960E+04  0.17752398960E+04  0.50400000000E-02 0.  1.
    5000001    1    1    2    0    0 -0.52940614966E+03  0.17676115790E+03 -0.10122433768E+04  0.11729249900E+04  0.19900000000E+03 0.  0.
   -5000001    1    1    2    0    0  0.52940614966E+03 -0.17676115790E+03 -0.55407099127E+03  0.81124043391E+03  0.19900000000E+03 0.  0.
<mgrwt>
<rscale>  0 0.12180196E+04</rscale>
<asrwt>0</asrwt>
<pdfrwt beam="1">  1        1 0.25360569E+00 0.12180196E+04</pdfrwt>
<pdfrwt beam="2">  1       -1 0.29846505E-01 0.12180196E+04</pdfrwt>
<totfact> 0.52624761E+01</totfact>
</mgrwt>
</event>
<event>
 4    1  0.6480558E-006  0.4871818E+03  0.7818608E-02  0.1017180E+00
          1   -1    0    0  501    0  0.00000000000E+00  0.00000000000E+00  0.11897956272E+03  0.11897956283E+03  0.50400000000E-02 0.  1.
         -1   -1    0    0    0  501 -0.00000000000E+00 -0.00000000000E+00 -0.49871182323E+03  0.49871182326E+03  0.50400000000E-02 0. -1.
    5000001    1    1    2    0    0 -0.23054512290E+02  0.13444069993E+03 -0.14725112462E+03  0.28264767120E+03  0.19900000000E+03 0.  0.
   -5000001    1    1    2    0    0  0.23054512290E+02 -0.13444069993E+03 -0.23248113589E+03  0.33504371488E+03  0.19900000000E+03 0.  0.
<mgrwt>
<rscale>  0 0.48718175E+03</rscale>
<asrwt>0</asrwt>
<pdfrwt beam="1">  1        1 0.16997081E-01 0.48718175E+03</pdfrwt>
<pdfrwt beam="2">  1       -1 0.71244545E-01 0.48718175E+03</pdfrwt>
<totfact> 0.65467730E+02</totfact>
</mgrwt>
</event>
<event>
 4    1  0.6480558E-006  0.5251799E+03  0.7818608E-02  0.1007408E+00
         -1   -1    0    0    0  501 -0.00000000000E+00  0.00000000000E+00  0.21473890654E+03  0.21473890660E+03  0.50400000000E-02 0. -1.
          1   -1    0    0  501    0  0.00000000000E+00 -0.00000000000E+00 -0.32110383603E+03  0.32110383607E+03  0.50400000000E-02 0.  1.
    5000001    1    1    2    0    0 -0.14075068571E+03  0.61936846014E+01 -0.15264695179E+03  0.28766509894E+03  0.19900000000E+03 0.  0.
   -5000001    1    1    2    0    0  0.14075068571E+03 -0.61936846014E+01  0.46282022305E+02  0.24817764373E+03  0.19900000000E+03 0.  0.
<mgrwt>
<rscale>  0 0.52517992E+03</rscale>
<asrwt>0</asrwt>
<pdfrwt beam="1">  1        1 0.45871977E-01 0.52517992E+03</pdfrwt>
<pdfrwt beam="2">  1       -1 0.30676987E-01 0.52517992E+03</pdfrwt>
<totfact> 0.87053191E+02</totfact>
</mgrwt>
</event>
<event>
 4    1  0.6480558E-006  0.1791629E+04  0.7818608E-02  0.8710764E-01
          1   -1    0    0  501    0  0.00000000000E+00  0.00000000000E+00  0.14544119714E+04  0.14544119715E+04  0.50400000000E-02 0.  1.
         -1   -1    0    0    0  501 -0.00000000000E+00 -0.00000000000E+00 -0.55175826670E+03  0.55175826672E+03  0.50400000000E-02 0. -1.
    5000001    1    1    2    0    0  0.45388359534E+03  0.71650882543E+03  0.21781849422E+03  0.89802066316E+03  0.19900000000E+03 0.  0.
   -5000001    1    1    2    0    0 -0.45388359534E+03 -0.71650882543E+03  0.68483521053E+03  0.11081495750E+04  0.19900000000E+03 0.  0.
<mgrwt>
<rscale>  0 0.17916292E+04</rscale>
<asrwt>0</asrwt>
<pdfrwt beam="1">  1        1 0.20777314E+00 0.17916292E+04</pdfrwt>
<pdfrwt beam="2">  1       -1 0.78822610E-01 0.17916292E+04</pdfrwt>
<totfact> 0.12700971E+01</totfact>
</mgrwt>
</event>
<event>
 4    1  0.6480558E-006  0.6313685E+03  0.7818608E-02  0.9842382E-01
         -1   -1    0    0    0  501 -0.00000000000E+00  0.00000000000E+00  0.74280041455E+03  0.74280041457E+03  0.50400000000E-02 0. -1.
          1   -1    0    0  501    0  0.00000000000E+00 -0.00000000000E+00 -0.13416327345E+03  0.13416327355E+03  0.50400000000E-02 0.  1.
    5000001    1    1    2    0    0  0.18534416462E+03  0.13873452144E+03  0.41592110044E+03  0.51593709751E+03  0.19900000000E+03 0.  0.
   -5000001    1    1    2    0    0 -0.18534416462E+03 -0.13873452144E+03  0.19271604066E+03  0.36102659061E+03  0.19900000000E+03 0.  0.
<mgrwt>
<rscale>  0 0.63136847E+03</rscale>
<asrwt>0</asrwt>
<pdfrwt beam="1">  1        1 0.19166182E-01 0.63136847E+03</pdfrwt>
<pdfrwt beam="2">  1       -1 0.10611435E+00 0.63136847E+03</pdfrwt>
<totfact> 0.23438892E+02</totfact>
</mgrwt>
</event>
<event>
 4    1  0.6480558E-006  0.1216709E+04  0.7818608E-02  0.9098356E-01
          1   -1    0    0  501    0  0.00000000000E+00  0.00000000000E+00  0.51901892972E+03  0.51901892974E+03  0.50400000000E-02 0. -1.
         -1   -1    0    0    0  501 -0.00000000000E+00 -0.00000000000E+00 -0.71306654279E+03  0.71306654281E+03  0.50400000000E-02 0.  1.
    5000001    1    1    2    0    0 -0.41118232184E+03  0.14751260820E+03 -0.47546216359E+03  0.67564498102E+03  0.19900000000E+03 0.  0.
   -5000001    1    1    2    0    0  0.41118232184E+03 -0.14751260820E+03  0.28141455052E+03  0.55644049153E+03  0.19900000000E+03 0.  0.
<mgrwt>
<rscale>  0 0.12167087E+04</rscale>
<asrwt>0</asrwt>
<pdfrwt beam="1">  1        1 0.74145562E-01 0.12167087E+04</pdfrwt>
<pdfrwt beam="2">  1       -1 0.10186665E+00 0.12167087E+04</pdfrwt>
<totfact> 0.42176452E+01</totfact>
</mgrwt>
</event>
<event>
 4    1  0.6480558E-006  0.9942952E+03  0.7818608E-02  0.9314824E-01
         -1   -1    0    0    0  501 -0.00000000000E+00  0.00000000000E+00  0.19352673056E+03  0.19352673062E+03  0.50400000000E-02 0. -1.
          1   -1    0    0  501    0  0.00000000000E+00 -0.00000000000E+00 -0.12771141697E+04  0.12771141697E+04  0.50400000000E-02 0.  1.
    5000001    1    1    2    0    0 -0.23820025498E+03  0.21603894801E+03 -0.10191090557E+04  0.10870126292E+04  0.19900000000E+03 0.  0.
   -5000001    1    1    2    0    0  0.23820025498E+03 -0.21603894801E+03 -0.64478383463E+02  0.38362827120E+03  0.19900000000E+03 0.  0.
<mgrwt>
<rscale>  0 0.99429519E+03</rscale>
<asrwt>0</asrwt>
<pdfrwt beam="1">  1        1 0.18244488E+00 0.99429519E+03</pdfrwt>
<pdfrwt beam="2">  1       -1 0.27646676E-01 0.99429519E+03</pdfrwt>
<totfact> 0.12895357E+02</totfact>
</mgrwt>
</event>
<event>
 4    1  0.6480558E-006  0.8933215E+03  0.7818608E-02  0.9433969E-01
         -1   -1    0    0    0  501 -0.00000000000E+00  0.00000000000E+00  0.12023008095E+03  0.12023008105E+03  0.50400000000E-02 0. -1.
          1   -1    0    0  501    0  0.00000000000E+00 -0.00000000000E+00 -0.16593670424E+04  0.16593670424E+04  0.50400000000E-02 0.  1.
    5000001    1    1    2    0    0 -0.22212692862E+03  0.25124072935E+03 -0.12034767687E+04  0.12650769183E+04  0.19900000000E+03 0.  0.
   -5000001    1    1    2    0    0  0.22212692862E+03 -0.25124072935E+03 -0.33566019279E+03  0.51452020516E+03  0.19900000000E+03 0.  0.
<mgrwt>
<rscale>  0 0.89332152E+03</rscale>
<asrwt>0</asrwt>
<pdfrwt beam="1">  1        1 0.23705242E+00 0.89332152E+03</pdfrwt>
<pdfrwt beam="2">  1       -1 0.17175727E-01 0.89332152E+03</pdfrwt>
<totfact> 0.16298643E+02</totfact>
</mgrwt>
</event>
<event>
 4    1  0.6480558E-006  0.4510041E+03  0.7818608E-02  0.1027423E+00
          1   -1    0    0  501    0  0.00000000000E+00  0.00000000000E+00  0.11832295515E+04  0.11832295515E+04  0.50400000000E-02 0.  1.
         -1   -1    0    0    0  501 -0.00000000000E+00 -0.00000000000E+00 -0.42976591945E+02  0.42976592241E+02  0.50400000000E-02 0. -1.
    5000001    1    1    2    0    0 -0.90776542256E+02  0.31107906694E+02  0.69298932834E+03  0.72735362216E+03  0.19900000000E+03 0.  0.
   -5000001    1    1    2    0    0  0.90776542256E+02 -0.31107906694E+02  0.44726363118E+03  0.49885252155E+03  0.19900000000E+03 0.  0.
<mgrwt>
<rscale>  0 0.45100410E+03</rscale>
<asrwt>0</asrwt>
<pdfrwt beam="1">  1        1 0.16903281E+00 0.45100410E+03</pdfrwt>
<pdfrwt beam="2">  1       -1 0.61395127E-02 0.45100410E+03</pdfrwt>
<totfact> 0.17430600E+03</totfact>
</mgrwt>
</event>
<event>
 4    1  0.6480558E-006  0.7580919E+03  0.7818608E-02  0.9622740E-01
          1   -1    0    0  501    0  0.00000000000E+00  0.00000000000E+00  0.20326532946E+04  0.20326532946E+04  0.50400000000E-02 0. -1.
         -1   -1    0    0    0  501 -0.00000000000E+00 -0.00000000000E+00 -0.70683876181E+02  0.70683876360E+02  0.50400000000E-02 0.  1.
    5000001    1    1    2    0    0  0.15920701412E+03 -0.28025908168E+03  0.94347353637E+03  0.10166785825E+04  0.19900000000E+03 0.  0.
   -5000001    1    1    2    0    0 -0.15920701412E+03  0.28025908168E+03  0.10184958820E+04  0.10866585885E+04  0.19900000000E+03 0.  0.
<mgrwt>
<rscale>  0 0.75809185E+03</rscale>
<asrwt>0</asrwt>
<pdfrwt beam="1">  1        1 0.29037902E+00 0.75809185E+03</pdfrwt>
<pdfrwt beam="2">  1       -1 0.10097697E-01 0.75809185E+03</pdfrwt>
<totfact> 0.22649285E+02</totfact>
</mgrwt>
</event>
<event>
 4    1  0.6480558E-006  0.8263631E+03  0.7818608E-02  0.9522623E-01
         -1   -1    0    0    0  501 -0.00000000000E+00  0.00000000000E+00  0.17705126541E+03  0.17705126548E+03  0.50400000000E-02 0. -1.
          1   -1    0    0  501    0  0.00000000000E+00 -0.00000000000E+00 -0.96423476373E+03  0.96423476375E+03  0.50400000000E-02 0.  1.
    5000001    1    1    2    0    0  0.20428486066E+03  0.15095106393E+03 -0.75000918357E+03  0.81647614995E+03  0.19900000000E+03 0.  0.
   -5000001    1    1    2    0    0 -0.20428486066E+03 -0.15095106393E+03 -0.37174314748E+02  0.32480987927E+03  0.19900000000E+03 0.  0.
<mgrwt>
<rscale>  0 0.82636308E+03</rscale>
<asrwt>0</asrwt>
<pdfrwt beam="1">  1        1 0.13774782E+00 0.82636308E+03</pdfrwt>
<pdfrwt beam="2">  1       -1 0.25293038E-01 0.82636308E+03</pdfrwt>
<totfact> 0.25387396E+02</totfact>
</mgrwt>
</event>
<event>
 4    1  0.6480558E-006  0.8674683E+03  0.7818608E-02  0.9467187E-01
          1   -1    0    0  501    0  0.00000000000E+00  0.00000000000E+00  0.74102759205E+03  0.74102759207E+03  0.50400000000E-02 0. -1.
         -1   -1    0    0    0  501 -0.00000000000E+00 -0.00000000000E+00 -0.25387085823E+03  0.25387085828E+03  0.50400000000E-02 0.  1.
    5000001    1    1    2    0    0  0.17185213932E+03  0.29716551265E+03  0.44447830076E+03  0.59582082839E+03  0.19900000000E+03 0.  0.
   -5000001    1    1    2    0    0 -0.17185213932E+03 -0.29716551265E+03  0.42678433062E+02  0.39907762196E+03  0.19900000000E+03 0.  0.
<mgrwt>
<rscale>  0 0.86746830E+03</rscale>
<asrwt>0</asrwt>
<pdfrwt beam="1">  1        1 0.10586109E+00 0.86746830E+03</pdfrwt>
<pdfrwt beam="2">  1       -1 0.36267265E-01 0.86746830E+03</pdfrwt>
<totfact> 0.20495997E+02</totfact>
</mgrwt>
</event>
<event>
 4    1  0.6480558E-006  0.6743969E+03  0.7818608E-02  0.9762047E-01
         -1   -1    0    0    0  501 -0.00000000000E+00  0.00000000000E+00  0.44098939739E+03  0.44098939742E+03  0.50400000000E-02 0. -1.
          1   -1    0    0  501    0  0.00000000000E+00 -0.00000000000E+00 -0.25783565304E+03  0.25783565309E+03  0.50400000000E-02 0.  1.
    5000001    1    1    2    0    0  0.68042795241E+02 -0.26151620262E+03  0.57503542239E+02  0.34048231024E+03  0.19900000000E+03 0.  0.
   -5000001    1    1    2    0    0 -0.68042795241E+02  0.26151620262E+03  0.12565020211E+03  0.35834274027E+03  0.19900000000E+03 0.  0.
<mgrwt>
<rscale>  0 0.67439688E+03</rscale>
<asrwt>0</asrwt>
<pdfrwt beam="1">  1        1 0.36833665E-01 0.67439688E+03</pdfrwt>
<pdfrwt beam="2">  1       -1 0.62998486E-01 0.67439688E+03</pdfrwt>
<totfact> 0.30450225E+02</totfact>
</mgrwt>
</event>
<event>
 4    1  0.6480558E-006  0.6492856E+03  0.7818608E-02  0.9808121E-01
         -1   -1    0    0    0  501 -0.00000000000E+00  0.00000000000E+00  0.17966153725E+03  0.17966153732E+03  0.50400000000E-02 0. -1.
          1   -1    0    0  501    0  0.00000000000E+00 -0.00000000000E+00 -0.58661948270E+03  0.58661948272E+03  0.50400000000E-02 0.  1.
    5000001    1    1    2    0    0  0.92771677073E+02  0.34408000312E+02 -0.48276677233E+03  0.53146519267E+03  0.19900000000E+03 0.  0.
   -5000001    1    1    2    0    0 -0.92771677073E+02 -0.34408000312E+02  0.75808826882E+02  0.23481582737E+03  0.19900000000E+03 0.  0.
<mgrwt>
<rscale>  0 0.64928563E+03</rscale>
<asrwt>0</asrwt>
<pdfrwt beam="1">  1        1 0.83802782E-01 0.64928563E+03</pdfrwt>
<pdfrwt beam="2">  1       -1 0.25665934E-01 0.64928563E+03</pdfrwt>
<totfact> 0.53091773E+02</totfact>
</mgrwt>
</event>
<event>
 4    1  0.6480558E-006  0.5709944E+03  0.7818608E-02  0.9967481E-01
          1   -1    0    0  501    0  0.00000000000E+00  0.00000000000E+00  0.15258813991E+03  0.15258813999E+03  0.50400000000E-02 0.  1.
         -1   -1    0    0    0  501 -0.00000000000E+00 -0.00000000000E+00 -0.53417415794E+03  0.53417415797E+03  0.50400000000E-02 0. -1.
    5000001    1    1    2    0    0 -0.55818694696E+02  0.19605094266E+03 -0.16810144260E+03  0.33077302460E+03  0.19900000000E+03 0.  0.
   -5000001    1    1    2    0    0  0.55818694696E+02 -0.19605094266E+03 -0.21348457544E+03  0.35598927336E+03  0.19900000000E+03 0.  0.
<mgrwt>
<rscale>  0 0.57099436E+03</rscale>
<asrwt>0</asrwt>
<pdfrwt beam="1">  1        1 0.21798306E-01 0.57099436E+03</pdfrwt>
<pdfrwt beam="2">  1       -1 0.76310593E-01 0.57099436E+03</pdfrwt>
<totfact> 0.40869314E+02</totfact>
</mgrwt>
</event>
<event>
 4    1  0.6480558E-006  0.1344474E+04  0.7818608E-02  0.8995022E-01
          1   -1    0    0  501    0  0.00000000000E+00  0.00000000000E+00  0.27823876680E+04  0.27823876680E+04  0.50400000000E-02 0.  1.
         -1   -1    0    0    0  501 -0.00000000000E+00 -0.00000000000E+00 -0.16241528670E+03  0.16241528678E+03  0.50400000000E-02 0. -1.
    5000001    1    1    2    0    0 -0.41550336983E+03 -0.48180709363E+03  0.14999267277E+04  0.16413903601E+04  0.19900000000E+03 0.  0.
   -5000001    1    1    2    0    0  0.41550336983E+03  0.48180709363E+03  0.11200456537E+04  0.13034125947E+04  0.19900000000E+03 0.  0.
<mgrwt>
<rscale>  0 0.13444736E+04</rscale>
<asrwt>0</asrwt>
<pdfrwt beam="1">  1        1 0.39748393E+00 0.13444736E+04</pdfrwt>
<pdfrwt beam="2">  1       -1 0.23202185E-01 0.13444736E+04</pdfrwt>
<totfact> 0.18564555E+01</totfact>
</mgrwt>
</event>
<event>
 4    1  0.6480558E-006  0.4422628E+03  0.7818608E-02  0.1030055E+00
         -1   -1    0    0    0  501 -0.00000000000E+00  0.00000000000E+00  0.27117428671E+03  0.27117428675E+03  0.50400000000E-02 0.  1.
          1   -1    0    0  501    0  0.00000000000E+00 -0.00000000000E+00 -0.18032350352E+03  0.18032350359E+03  0.50400000000E-02 0. -1.
    5000001    1    1    2    0    0  0.77853096755E+02  0.45631152210E+02  0.80117193580E+02  0.23272961013E+03  0.19900000000E+03 0.  0.
   -5000001    1    1    2    0    0 -0.77853096755E+02 -0.45631152210E+02  0.10733589608E+02  0.21876818021E+03  0.19900000000E+03 0.  0.
<mgrwt>
<rscale>  0 0.44226281E+03</rscale>
<asrwt>0</asrwt>
<pdfrwt beam="1">  1        1 0.25760501E-01 0.44226281E+03</pdfrwt>
<pdfrwt beam="2">  1       -1 0.38739184E-01 0.44226281E+03</pdfrwt>
<totfact> 0.12100452E+03</totfact>
</mgrwt>
</event>
<event>
 4    1  0.6480558E-006  0.7357001E+03  0.7818608E-02  0.9658056E-01
         -1   -1    0    0    0  501 -0.00000000000E+00  0.00000000000E+00  0.76687333915E+02  0.76687334081E+02  0.50400000000E-02 0. -1.
          1   -1    0    0  501    0  0.00000000000E+00 -0.00000000000E+00 -0.17644849643E+04  0.17644849643E+04  0.50400000000E-02 0.  1.
    5000001    1    1    2    0    0  0.12455553894E+03 -0.28315198655E+03 -0.83176229563E+03  0.90946063477E+03  0.19900000000E+03 0.  0.
   -5000001    1    1    2    0    0 -0.12455553894E+03  0.28315198655E+03 -0.85603533478E+03  0.93171166364E+03  0.19900000000E+03 0.  0.
<mgrwt>
<rscale>  0 0.73570007E+03</rscale>
<asrwt>0</asrwt>
<pdfrwt beam="1">  1        1 0.25206925E+00 0.73570007E+03</pdfrwt>
<pdfrwt beam="2">  1       -1 0.10955335E-01 0.73570007E+03</pdfrwt>
<totfact> 0.29286690E+02</totfact>
</mgrwt>
</event>
<event>
 4    1  0.6480558E-006  0.1213717E+04  0.7818608E-02  0.9100934E-01
          1   -1    0    0  501    0  0.00000000000E+00  0.00000000000E+00  0.20316616000E+04  0.20316616000E+04  0.50400000000E-02 0. -1.
         -1   -1    0    0    0  501 -0.00000000000E+00 -0.00000000000E+00 -0.18126894662E+03  0.18126894669E+03  0.50400000000E-02 0.  1.
    5000001    1    1    2    0    0 -0.20180097967E+03  0.35444954437E+03  0.16597673552E+04  0.17206936939E+04  0.19900000000E+03 0.  0.
   -5000001    1    1    2    0    0  0.20180097967E+03 -0.35444954437E+03  0.19062529813E+03  0.49223685273E+03  0.19900000000E+03 0.  0.
<mgrwt>
<rscale>  0 0.12137169E+04</rscale>
<asrwt>0</asrwt>
<pdfrwt beam="1">  1        1 0.29023736E+00 0.12137169E+04</pdfrwt>
<pdfrwt beam="2">  1       -1 0.25895565E-01 0.12137169E+04</pdfrwt>
<totfact> 0.46444122E+01</totfact>
</mgrwt>
</event>
<event>
 4    1  0.6480558E-006  0.9538044E+03  0.7818608E-02  0.9360715E-01
         -1   -1    0    0    0  501 -0.00000000000E+00  0.00000000000E+00  0.25059941407E+03  0.25059941412E+03  0.50400000000E-02 0. -1.
          1   -1    0    0  501    0  0.00000000000E+00 -0.00000000000E+00 -0.90756671295E+03  0.90756671296E+03  0.50400000000E-02 0.  1.
    5000001    1    1    2    0    0 -0.23271592594E+03  0.36561805928E+03 -0.32703716502E+03  0.57826254830E+03  0.19900000000E+03 0.  0.
   -5000001    1    1    2    0    0  0.23271592594E+03 -0.36561805928E+03 -0.32993013386E+03  0.57990357878E+03  0.19900000000E+03 0.  0.
<mgrwt>
<rscale>  0 0.95380435E+03</rscale>
<asrwt>0</asrwt>
<pdfrwt beam="1">  1        1 0.12965239E+00 0.95380435E+03</pdfrwt>
<pdfrwt beam="2">  1       -1 0.35799917E-01 0.95380435E+03</pdfrwt>
<totfact> 0.15185989E+02</totfact>
</mgrwt>
</event>
<event>
 4    1  0.6480558E-006  0.6765382E+03  0.7818608E-02  0.9758218E-01
         -1   -1    0    0    0  501 -0.00000000000E+00  0.00000000000E+00  0.52455863885E+02  0.52455864127E+02  0.50400000000E-02 0. -1.
          1   -1    0    0  501    0  0.00000000000E+00 -0.00000000000E+00 -0.21813763225E+04  0.21813763225E+04  0.50400000000E-02 0.  1.
    5000001    1    1    2    0    0 -0.10598676733E+03 -0.23095760754E+03 -0.73016670337E+03  0.79832263280E+03  0.19900000000E+03 0.  0.
   -5000001    1    1    2    0    0  0.10598676733E+03  0.23095760754E+03 -0.13987537553E+04  0.14355095539E+04  0.19900000000E+03 0.  0.
<mgrwt>
<rscale>  0 0.67653819E+03</rscale>
<asrwt>0</asrwt>
<pdfrwt beam="1">  1        1 0.31162513E+00 0.67653819E+03</pdfrwt>
<pdfrwt beam="2">  1       -1 0.74936962E-02 0.67653819E+03</pdfrwt>
<totfact> 0.29458649E+02</totfact>
</mgrwt>
</event>
<event>
 4    1  0.6480558E-006  0.5549502E+03  0.7818608E-02  0.1000355E+00
          1   -1    0    0  501    0  0.00000000000E+00  0.00000000000E+00  0.13755347485E+03  0.13755347495E+03  0.50400000000E-02 0.  1.
         -1   -1    0    0    0  501 -0.00000000000E+00 -0.00000000000E+00 -0.55972717160E+03  0.55972717163E+03  0.50400000000E-02 0. -1.
    5000001    1    1    2    0    0  0.14593902935E+03  0.12523440903E+03 -0.18565883743E+03  0.33324474701E+03  0.19900000000E+03 0.  0.
   -5000001    1    1    2    0    0 -0.14593902935E+03 -0.12523440903E+03 -0.23651485932E+03  0.36403589956E+03  0.19900000000E+03 0.  0.
<mgrwt>
<rscale>  0 0.55495015E+03</rscale>
<asrwt>0</asrwt>
<pdfrwt beam="1">  1        1 0.19650497E-01 0.55495015E+03</pdfrwt>
<pdfrwt beam="2">  1       -1 0.79961024E-01 0.55495015E+03</pdfrwt>
<totfact> 0.42488567E+02</totfact>
</mgrwt>
</event>
<event>
 4    1  0.6480558E-006  0.4708039E+03  0.7818608E-02  0.1021694E+00
          1   -1    0    0  501    0  0.00000000000E+00  0.00000000000E+00  0.18398444760E+04  0.18398444761E+04  0.50400000000E-02 0.  1.
         -1   -1    0    0    0  501 -0.00000000000E+00 -0.00000000000E+00 -0.30118891360E+02  0.30118891782E+02  0.50400000000E-02 0. -1.
    5000001    1    1    2    0    0  0.96191991553E+02  0.53674304796E+02  0.11457825795E+04  0.11681406378E+04  0.19900000000E+03 0.  0.
   -5000001    1    1    2    0    0 -0.96191991553E+02 -0.53674304796E+02  0.66394300519E+03  0.70182273002E+03  0.19900000000E+03 0.  0.
<mgrwt>
<rscale>  0 0.47080389E+03</rscale>
<asrwt>0</asrwt>
<pdfrwt beam="1">  1        1 0.26283490E+00 0.47080389E+03</pdfrwt>
<pdfrwt beam="2">  1       -1 0.43026992E-02 0.47080389E+03</pdfrwt>
<totfact> 0.11377217E+03</totfact>
</mgrwt>
</event>
<event>
 4    1  0.6480558E-006  0.4635393E+03  0.7818608E-02  0.1023760E+00
         -1   -1    0    0    0  501 -0.00000000000E+00  0.00000000000E+00  0.22675473881E+03  0.22675473887E+03  0.50400000000E-02 0.  1.
          1   -1    0    0  501    0  0.00000000000E+00 -0.00000000000E+00 -0.23689552076E+03  0.23689552081E+03  0.50400000000E-02 0. -1.
    5000001    1    1    2    0    0  0.10303617753E+03 -0.57990233448E+02 -0.16771946713E+02  0.23208106181E+03  0.19900000000E+03 0.  0.
   -5000001    1    1    2    0    0 -0.10303617753E+03  0.57990233448E+02  0.66311647714E+01  0.23156919787E+03  0.19900000000E+03 0.  0.
<mgrwt>
<rscale>  0 0.46353935E+03</rscale>
<asrwt>0</asrwt>
<pdfrwt beam="1">  1        1 0.33842217E-01 0.46353935E+03</pdfrwt>
<pdfrwt beam="2">  1       -1 0.32393534E-01 0.46353935E+03</pdfrwt>
<totfact> 0.11690591E+03</totfact>
</mgrwt>
</event>
<event>
 4    1  0.6480558E-006  0.5804416E+03  0.7818608E-02  0.9946835E-01
         -1   -1    0    0    0  501 -0.00000000000E+00  0.00000000000E+00  0.43397693498E+03  0.43397693501E+03  0.50400000000E-02 0. -1.
          1   -1    0    0  501    0  0.00000000000E+00 -0.00000000000E+00 -0.19408428985E+03  0.19408428991E+03  0.50400000000E-02 0.  1.
    5000001    1    1    2    0    0 -0.19878559423E+03 -0.56327563589E+02  0.16758803819E+03  0.33222771925E+03  0.19900000000E+03 0.  0.
   -5000001    1    1    2    0    0  0.19878559423E+03  0.56327563589E+02  0.72304606943E+02  0.29583350568E+03  0.19900000000E+03 0.  0.
<mgrwt>
<rscale>  0 0.58044157E+03</rscale>
<asrwt>0</asrwt>
<pdfrwt beam="1">  1        1 0.27726327E-01 0.58044157E+03</pdfrwt>
<pdfrwt beam="2">  1       -1 0.61996705E-01 0.58044157E+03</pdfrwt>
<totfact> 0.45502129E+02</totfact>
</mgrwt>
</event>
<event>
 4    1  0.6480558E-006  0.4375058E+03  0.7818608E-02  0.1031515E+00
          1   -1    0    0  501    0  0.00000000000E+00  0.00000000000E+00  0.23488745936E+04  0.23488745936E+04  0.50400000000E-02 0.  1.
         -1   -1    0    0    0  501 -0.00000000000E+00 -0.00000000000E+00 -0.20372665917E+02  0.20372666540E+02  0.50400000000E-02 0. -1.
    5000001    1    1    2    0    0  0.14018699209E+02 -0.38441819486E+02  0.16034469004E+04  0.16162664569E+04  0.19900000000E+03 0.  0.
   -5000001    1    1    2    0    0 -0.14018699209E+02  0.38441819486E+02  0.72505502727E+03  0.75298080320E+03  0.19900000000E+03 0.  0.
<mgrwt>
<rscale>  0 0.43750583E+03</rscale>
<asrwt>0</asrwt>
<pdfrwt beam="1">  1        1 0.33555354E+00 0.43750583E+03</pdfrwt>
<pdfrwt beam="2">  1       -1 0.29103807E-02 0.43750583E+03</pdfrwt>
<totfact> 0.10002021E+03</totfact>
</mgrwt>
</event>
<event>
 4    1  0.6480558E-006  0.6708689E+03  0.7818608E-02  0.9768389E-01
          1   -1    0    0  501    0  0.00000000000E+00  0.00000000000E+00  0.16375800559E+04  0.16375800559E+04  0.50400000000E-02 0.  1.
         -1   -1    0    0    0  501 -0.00000000000E+00 -0.00000000000E+00 -0.68708865769E+02  0.68708865954E+02  0.50400000000E-02 0. -1.
    5000001    1    1    2    0    0 -0.26039654578E+03 -0.65154868723E+02  0.85918522650E+03  0.92187405398E+03  0.19900000000E+03 0.  0.
   -5000001    1    1    2    0    0  0.26039654578E+03  0.65154868723E+02  0.70968596362E+03  0.78441486787E+03  0.19900000000E+03 0.  0.
<mgrwt>
<rscale>  0 0.67086889E+03</rscale>
<asrwt>0</asrwt>
<pdfrwt beam="1">  1        1 0.23394003E+00 0.67086889E+03</pdfrwt>
<pdfrwt beam="2">  1       -1 0.98155515E-02 0.67086889E+03</pdfrwt>
<totfact> 0.42080002E+02</totfact>
</mgrwt>
</event>
<event>
 4    1  0.6480558E-006  0.6983537E+03  0.7818608E-02  0.9720052E-01
         -1   -1    0    0    0  501 -0.00000000000E+00  0.00000000000E+00  0.28882670691E+03  0.28882670696E+03  0.50400000000E-02 0. -1.
          1   -1    0    0  501    0  0.00000000000E+00 -0.00000000000E+00 -0.42213710766E+03  0.42213710769E+03  0.50400000000E-02 0.  1.
    5000001    1    1    2    0    0 -0.36972015108E+02 -0.26962159793E+03 -0.15918495283E+03  0.37283184571E+03  0.19900000000E+03 0.  0.
   -5000001    1    1    2    0    0  0.36972015108E+02  0.26962159793E+03  0.25874552076E+02  0.33813196894E+03  0.19900000000E+03 0.  0.
<mgrwt>
<rscale>  0 0.69835369E+03</rscale>
<asrwt>0</asrwt>
<pdfrwt beam="1">  1        1 0.60305301E-01 0.69835369E+03</pdfrwt>
<pdfrwt beam="2">  1       -1 0.41260958E-01 0.69835369E+03</pdfrwt>
<totfact> 0.35855469E+02</totfact>
</mgrwt>
</event>
<event>
 4    1  0.6480558E-006  0.4647866E+03  0.7818608E-02  0.1023402E+00
          1   -1    0    0  501    0  0.00000000000E+00  0.00000000000E+00  0.11087639090E+04  0.11087639090E+04  0.50400000000E-02 0. -1.
         -1   -1    0    0    0  501 -0.00000000000E+00 -0.00000000000E+00 -0.48708874090E+02  0.48708874350E+02  0.50400000000E-02 0.  1.
    5000001    1    1    2    0    0  0.57215368826E+02 -0.10167709058E+03  0.45986321613E+03  0.51447741129E+03  0.19900000000E+03 0.  0.
   -5000001    1    1    2    0    0 -0.57215368826E+02  0.10167709058E+03  0.60019181880E+03  0.64299537210E+03  0.19900000000E+03 0.  0.
<mgrwt>
<rscale>  0 0.46478658E+03</rscale>
<asrwt>0</asrwt>
<pdfrwt beam="1">  1        1 0.15839484E+00 0.46478658E+03</pdfrwt>
<pdfrwt beam="2">  1       -1 0.69584109E-02 0.46478658E+03</pdfrwt>
<totfact> 0.16186572E+03</totfact>
</mgrwt>
</event>
<event>
 4    1  0.6480558E-006  0.6873535E+03  0.7818608E-02  0.9739107E-01
         -1   -1    0    0    0  501 -0.00000000000E+00  0.00000000000E+00  0.64237624597E+02  0.64237624795E+02  0.50400000000E-02 0. -1.
          1   -1    0    0  501    0  0.00000000000E+00 -0.00000000000E+00 -0.18387000321E+04  0.18387000321E+04  0.50400000000E-02 0.  1.
    5000001    1    1    2    0    0  0.97563597794E+02  0.18478093598E+03 -0.14040594369E+04  0.14334038343E+04  0.19900000000E+03 0.  0.
   -5000001    1    1    2    0    0 -0.97563597794E+02 -0.18478093598E+03 -0.37040297063E+03  0.46953382260E+03  0.19900000000E+03 0.  0.
<mgrwt>
<rscale>  0 0.68735354E+03</rscale>
<asrwt>0</asrwt>
<pdfrwt beam="1">  1        1 0.26267140E+00 0.68735354E+03</pdfrwt>
<pdfrwt beam="2">  1       -1 0.91768046E-02 0.68735354E+03</pdfrwt>
<totfact> 0.34957288E+02</totfact>
</mgrwt>
</event>
<event>
 4    1  0.6480558E-006  0.5036224E+03  0.7818608E-02  0.1012838E+00
          1   -1    0    0  501    0  0.00000000000E+00  0.00000000000E+00  0.86942669518E+03  0.86942669519E+03  0.50400000000E-02 0.  1.
         -1   -1    0    0    0  501 -0.00000000000E+00 -0.00000000000E+00 -0.72931838781E+02  0.72931838955E+02  0.50400000000E-02 0. -1.
    5000001    1    1    2    0    0 -0.12673484713E+03  0.65802007533E+02  0.28888033011E+03  0.37874063790E+03  0.19900000000E+03 0.  0.
   -5000001    1    1    2    0    0  0.12673484713E+03 -0.65802007533E+02  0.50761452628E+03  0.56361789624E+03  0.19900000000E+03 0.  0.
<mgrwt>
<rscale>  0 0.50362243E+03</rscale>
<asrwt>0</asrwt>
<pdfrwt beam="1">  1        1 0.12420381E+00 0.50362243E+03</pdfrwt>
<pdfrwt beam="2">  1       -1 0.10418834E-01 0.50362243E+03</pdfrwt>
<totfact> 0.12976879E+03</totfact>
</mgrwt>
</event>
<event>
 4    1  0.6480558E-006  0.1178338E+04  0.7818608E-02  0.9132031E-01
          1   -1    0    0  501    0  0.00000000000E+00  0.00000000000E+00  0.83945295615E+03  0.83945295616E+03  0.50400000000E-02 0. -1.
         -1   -1    0    0    0  501 -0.00000000000E+00 -0.00000000000E+00 -0.41350775219E+03  0.41350775222E+03  0.50400000000E-02 0.  1.
    5000001    1    1    2    0    0  0.53120939672E+03 -0.15249751081E+03  0.26147240041E+03  0.64296790755E+03  0.19900000000E+03 0.  0.
   -5000001    1    1    2    0    0 -0.53120939672E+03  0.15249751081E+03  0.16447280355E+03  0.60999280083E+03  0.19900000000E+03 0.  0.
<mgrwt>
<rscale>  0 0.11783383E+04</rscale>
<asrwt>0</asrwt>
<pdfrwt beam="1">  1        1 0.11992185E+00 0.11783383E+04</pdfrwt>
<pdfrwt beam="2">  1       -1 0.59072537E-01 0.11783383E+04</pdfrwt>
<totfact> 0.66429117E+01</totfact>
</mgrwt>
</event>
<event>
 4    1  0.6480558E-006  0.8695362E+03  0.7818608E-02  0.9464485E-01
          1   -1    0    0  501    0  0.00000000000E+00  0.00000000000E+00  0.15616179545E+04  0.15616179546E+04  0.50400000000E-02 0.  1.
         -1   -1    0    0    0  501 -0.00000000000E+00 -0.00000000000E+00 -0.12104324756E+03  0.12104324767E+03  0.50400000000E-02 0. -1.
    5000001    1    1    2    0    0 -0.30639217261E+03 -0.20179380462E+03  0.48466727357E+03  0.63960946607E+03  0.19900000000E+03 0.  0.
   -5000001    1    1    2    0    0  0.30639217261E+03  0.20179380462E+03  0.95590743342E+03  0.10430517362E+04  0.19900000000E+03 0.  0.
<mgrwt>
<rscale>  0 0.86953622E+03</rscale>
<asrwt>0</asrwt>
<pdfrwt beam="1">  1        1 0.22308826E+00 0.86953622E+03</pdfrwt>
<pdfrwt beam="2">  1       -1 0.17291894E-01 0.86953622E+03</pdfrwt>
<totfact> 0.18641196E+02</totfact>
</mgrwt>
</event>
<event>
 4    1  0.6480558E-006  0.7404530E+03  0.7818608E-02  0.9650448E-01
         -1   -1    0    0    0  501 -0.00000000000E+00  0.00000000000E+00  0.87434697607E+03  0.87434697608E+03  0.50400000000E-02 0. -1.
          1   -1    0    0  501    0  0.00000000000E+00 -0.00000000000E+00 -0.15676573584E+03  0.15676573592E+03  0.50400000000E-02 0.  1.
    5000001    1    1    2    0    0 -0.30563855063E+03 -0.53534843411E+02  0.31083890532E+03  0.48218536700E+03  0.19900000000E+03 0.  0.
   -5000001    1    1    2    0    0  0.30563855063E+03  0.53534843411E+02  0.40674233491E+03  0.54892734500E+03  0.19900000000E+03 0.  0.
<mgrwt>
<rscale>  0 0.74045296E+03</rscale>
<asrwt>0</asrwt>
<pdfrwt beam="1">  1        1 0.22395105E-01 0.74045296E+03</pdfrwt>
<pdfrwt beam="2">  1       -1 0.12490671E+00 0.74045296E+03</pdfrwt>
<totfact> 0.12849604E+02</totfact>
</mgrwt>
</event>
<event>
 4    1  0.6480558E-006  0.6593816E+03  0.7818608E-02  0.9789333E-01
         -1   -1    0    0    0  501 -0.00000000000E+00  0.00000000000E+00  0.15506755131E+03  0.15506755139E+03  0.50400000000E-02 0. -1.
          1   -1    0    0  501    0  0.00000000000E+00 -0.00000000000E+00 -0.70095925022E+03  0.70095925024E+03  0.50400000000E-02 0.  1.
    5000001    1    1    2    0    0  0.21033919955E+03 -0.11285096037E+03 -0.41585174859E+03  0.51914506154E+03  0.19900000000E+03 0.  0.
   -5000001    1    1    2    0    0 -0.21033919955E+03  0.11285096037E+03 -0.13003995032E+03  0.33688174009E+03  0.19900000000E+03 0.  0.
<mgrwt>
<rscale>  0 0.65938163E+03</rscale>
<asrwt>0</asrwt>
<pdfrwt beam="1">  1        1 0.10013703E+00 0.65938163E+03</pdfrwt>
<pdfrwt beam="2">  1       -1 0.22152508E-01 0.65938163E+03</pdfrwt>
<totfact> 0.52773956E+02</totfact>
</mgrwt>
</event>
<event>
 4    1  0.6480558E-006  0.5462428E+03  0.7818608E-02  0.1002367E+00
          1   -1    0    0  501    0  0.00000000000E+00  0.00000000000E+00  0.37492492490E+02  0.37492492829E+02  0.50400000000E-02 0. -1.
         -1   -1    0    0    0  501 -0.00000000000E+00 -0.00000000000E+00 -0.19896060411E+04  0.19896060411E+04  0.50400000000E-02 0.  1.
    5000001    1    1    2    0    0 -0.25628319247E+02 -0.17900148747E+03 -0.11538724548E+04  0.11847873164E+04  0.19900000000E+03 0.  0.
   -5000001    1    1    2    0    0  0.25628319247E+02  0.17900148747E+03 -0.79824109380E+03  0.84231121748E+03  0.19900000000E+03 0.  0.
<mgrwt>
<rscale>  0 0.54624277E+03</rscale>
<asrwt>0</asrwt>
<pdfrwt beam="1">  1        1 0.53560717E-02 0.54624277E+03</pdfrwt>
<pdfrwt beam="2">  1       -1 0.28422937E+00 0.54624277E+03</pdfrwt>
<totfact> 0.70992588E+01</totfact>
</mgrwt>
</event>
<event>
 4    1  0.6480558E-006  0.4432890E+03  0.7818608E-02  0.1029742E+00
          1   -1    0    0  501    0  0.00000000000E+00  0.00000000000E+00  0.19238542935E+04  0.19238542935E+04  0.50400000000E-02 0.  1.
         -1   -1    0    0    0  501 -0.00000000000E+00 -0.00000000000E+00 -0.25535348774E+02  0.25535349271E+02  0.50400000000E-02 0. -1.
    5000001    1    1    2    0    0  0.64907187490E+02  0.72100506839E+02  0.99608470107E+03  0.10203906888E+04  0.19900000000E+03 0.  0.
   -5000001    1    1    2    0    0 -0.64907187490E+02 -0.72100506839E+02  0.90223424367E+03  0.92899895399E+03  0.19900000000E+03 0.  0.
<mgrwt>
<rscale>  0 0.44328903E+03</rscale>
<asrwt>0</asrwt>
<pdfrwt beam="1">  1        1 0.27483630E+00 0.44328903E+03</pdfrwt>
<pdfrwt beam="2">  1       -1 0.36479073E-02 0.44328903E+03</pdfrwt>
<totfact> 0.12976756E+03</totfact>
</mgrwt>
</event>
<event>
 4    1  0.6480558E-006  0.6296090E+03  0.7818608E-02  0.9845812E-01
         -1   -1    0    0    0  501 -0.00000000000E+00  0.00000000000E+00  0.41353415818E+03  0.41353415821E+03  0.50400000000E-02 0. -1.
          1   -1    0    0  501    0  0.00000000000E+00 -0.00000000000E+00 -0.23964616104E+03  0.23964616109E+03  0.50400000000E-02 0.  1.
    5000001    1    1    2    0    0  0.22749273842E+03 -0.23652968148E+02  0.17490298790E+03  0.35000637724E+03  0.19900000000E+03 0.  0.
   -5000001    1    1    2    0    0 -0.22749273842E+03  0.23652968148E+02 -0.10149907633E+01  0.30317394206E+03  0.19900000000E+03 0.  0.
<mgrwt>
<rscale>  0 0.62960900E+03</rscale>
<asrwt>0</asrwt>
<pdfrwt beam="1">  1        1 0.34235166E-01 0.62960900E+03</pdfrwt>
<pdfrwt beam="2">  1       -1 0.59076309E-01 0.62960900E+03</pdfrwt>
<totfact> 0.38045893E+02</totfact>
</mgrwt>
</event>
<event>
 4    1  0.6480558E-006  0.6156542E+03  0.7818608E-02  0.9873450E-01
         -1   -1    0    0    0  501 -0.00000000000E+00  0.00000000000E+00  0.13072202457E+03  0.13072202467E+03  0.50400000000E-02 0. -1.
          1   -1    0    0  501    0  0.00000000000E+00 -0.00000000000E+00 -0.72487803688E+03  0.72487803690E+03  0.50400000000E-02 0.  1.
    5000001    1    1    2    0    0 -0.79713705685E+01 -0.17527098673E+03 -0.51404267313E+03  0.57846722581E+03  0.19900000000E+03 0.  0.
   -5000001    1    1    2    0    0  0.79713705685E+01  0.17527098673E+03 -0.80113339182E+02  0.27713283575E+03  0.19900000000E+03 0.  0.
<mgrwt>
<rscale>  0 0.61565420E+03</rscale>
<asrwt>0</asrwt>
<pdfrwt beam="1">  1        1 0.10355400E+00 0.61565420E+03</pdfrwt>
<pdfrwt beam="2">  1       -1 0.18674575E-01 0.61565420E+03</pdfrwt>
<totfact> 0.66824514E+02</totfact>
</mgrwt>
</event>
<event>
 4    1  0.6480558E-006  0.1309420E+04  0.7818608E-02  0.9022128E-01
          1   -1    0    0  501    0  0.00000000000E+00  0.00000000000E+00  0.15865520147E+04  0.15865520147E+04  0.50400000000E-02 0.  1.
         -1   -1    0    0    0  501 -0.00000000000E+00 -0.00000000000E+00 -0.27017422152E+03  0.27017422156E+03  0.50400000000E-02 0. -1.
    5000001    1    1    2    0    0 -0.26800387231E+03  0.55431260945E+03  0.79967352818E+03  0.10286725894E+04  0.19900000000E+03 0.  0.
   -5000001    1    1    2    0    0  0.26800387231E+03 -0.55431260945E+03  0.51670426498E+03  0.82805364682E+03  0.19900000000E+03 0.  0.
<mgrwt>
<rscale>  0 0.13094204E+04</rscale>
<asrwt>0</asrwt>
<pdfrwt beam="1">  1        1 0.22665029E+00 0.13094204E+04</pdfrwt>
<pdfrwt beam="2">  1       -1 0.38596316E-01 0.13094204E+04</pdfrwt>
<totfact> 0.43612911E+01</totfact>
</mgrwt>
</event>
<event>
 4    1  0.6480558E-006  0.8377827E+03  0.7818608E-02  0.9506883E-01
         -1   -1    0    0    0  501 -0.00000000000E+00  0.00000000000E+00  0.43916155367E+03  0.43916155370E+03  0.50400000000E-02 0. -1.
          1   -1    0    0  501    0  0.00000000000E+00 -0.00000000000E+00 -0.39955673298E+03  0.39955673301E+03  0.50400000000E-02 0.  1.
    5000001    1    1    2    0    0  0.11689482172E+03  0.28577694373E+03  0.22136303076E+03  0.42887696639E+03  0.19900000000E+03 0.  0.
   -5000001    1    1    2    0    0 -0.11689482172E+03 -0.28577694373E+03 -0.18175821007E+03  0.40984132032E+03  0.19900000000E+03 0.  0.
<mgrwt>
<rscale>  0 0.83778268E+03</rscale>
<asrwt>0</asrwt>
<pdfrwt beam="1">  1        1 0.57079534E-01 0.83778268E+03</pdfrwt>
<pdfrwt beam="2">  1       -1 0.62737364E-01 0.83778268E+03</pdfrwt>
<totfact> 0.17259066E+02</totfact>
</mgrwt>
</event>
<event>
 4    1  0.6480558E-006  0.6831441E+03  0.7818608E-02  0.9746500E-01
         -1   -1    0    0    0  501 -0.00000000000E+00  0.00000000000E+00  0.12002061037E+03  0.12002061047E+03  0.50400000000E-02 0. -1.
          1   -1    0    0  501    0  0.00000000000E+00 -0.00000000000E+00 -0.97209531907E+03  0.97209531909E+03  0.50400000000E-02 0.  1.
    5000001    1    1    2    0    0  0.27042333148E+03 -0.13002945449E+02 -0.52422975239E+03  0.62266820064E+03  0.19900000000E+03 0.  0.
   -5000001    1    1    2    0    0 -0.27042333148E+03  0.13002945449E+02 -0.32784495632E+03  0.46944772892E+03  0.19900000000E+03 0.  0.
<mgrwt>
<rscale>  0 0.68314412E+03</rscale>
<asrwt>0</asrwt>
<pdfrwt beam="1">  1        1 0.13887076E+00 0.68314412E+03</pdfrwt>
<pdfrwt beam="2">  1       -1 0.17145802E-01 0.68314412E+03</pdfrwt>
<totfact> 0.48328484E+02</totfact>
</mgrwt>
</event>
<event>
 4    1  0.6480558E-006  0.9670304E+03  0.7818608E-02  0.9345463E-01
         -1   -1    0    0    0  501 -0.00000000000E+00  0.00000000000E+00  0.57742667765E+03  0.57742667768E+03  0.50400000000E-02 0. -1.
          1   -1    0    0  501    0  0.00000000000E+00 -0.00000000000E+00 -0.40487726727E+03  0.40487726730E+03  0.50400000000E-02 0.  1.
    5000001    1    1    2    0    0  0.21967633750E+03  0.35769149470E+03  0.22250115468E+03  0.51508121929E+03  0.19900000000E+03 0.  0.
   -5000001    1    1    2    0    0 -0.21967633750E+03 -0.35769149470E+03 -0.49951744292E+02  0.46722272568E+03  0.19900000000E+03 0.  0.
<mgrwt>
<rscale>  0 0.96703037E+03</rscale>
<asrwt>0</asrwt>
<pdfrwt beam="1">  1        1 0.57839610E-01 0.96703037E+03</pdfrwt>
<pdfrwt beam="2">  1       -1 0.82489525E-01 0.96703037E+03</pdfrwt>
<totfact> 0.95653808E+01</totfact>
</mgrwt>
</event>
<event>
 4    1  0.6480558E-006  0.4819861E+03  0.7818608E-02  0.1018591E+00
          1   -1    0    0  501    0  0.00000000000E+00  0.00000000000E+00  0.52728370646E+03  0.52728370648E+03  0.50400000000E-02 0. -1.
         -1   -1    0    0    0  501 -0.00000000000E+00 -0.00000000000E+00 -0.11014498138E+03  0.11014498149E+03  0.50400000000E-02 0.  1.
    5000001    1    1    2    0    0 -0.73345836973E+02 -0.67261527202E+02  0.86118542986E+02  0.23858149192E+03  0.19900000000E+03 0.  0.
   -5000001    1    1    2    0    0  0.73345836973E+02  0.67261527202E+02  0.33102018209E+03  0.39884719605E+03  0.19900000000E+03 0.  0.
<mgrwt>
<rscale>  0 0.48198612E+03</rscale>
<asrwt>0</asrwt>
<pdfrwt beam="1">  1        1 0.75326246E-01 0.48198612E+03</pdfrwt>
<pdfrwt beam="2">  1       -1 0.15734997E-01 0.48198612E+03</pdfrwt>
<totfact> 0.13875722E+03</totfact>
</mgrwt>
</event>
<event>
 4    1  0.6480558E-006  0.4856072E+03  0.7818608E-02  0.1017605E+00
         -1   -1    0    0    0  501 -0.00000000000E+00  0.00000000000E+00  0.35204714856E+02  0.35204715217E+02  0.50400000000E-02 0. -1.
          1   -1    0    0  501    0  0.00000000000E+00 -0.00000000000E+00 -0.16745937953E+04  0.16745937953E+04  0.50400000000E-02 0.  1.
    5000001    1    1    2    0    0 -0.69530270288E+02 -0.11543712105E+03 -0.94127746411E+03  0.97147539950E+03  0.19900000000E+03 0.  0.
   -5000001    1    1    2    0    0  0.69530270288E+02  0.11543712105E+03 -0.69811161633E+03  0.73832311101E+03  0.19900000000E+03 0.  0.
<mgrwt>
<rscale>  0 0.48560724E+03</rscale>
<asrwt>0</asrwt>
<pdfrwt beam="1">  1        1 0.23922763E+00 0.48560724E+03</pdfrwt>
<pdfrwt beam="2">  1       -1 0.50292461E-02 0.48560724E+03</pdfrwt>
<totfact> 0.11357410E+03</totfact>
</mgrwt>
</event>
<event>
 4    1  0.6480558E-006  0.4990497E+03  0.7818608E-02  0.1014027E+00
         -1   -1    0    0    0  501 -0.00000000000E+00  0.00000000000E+00  0.37438119450E+03  0.37438119453E+03  0.50400000000E-02 0. -1.
          1   -1    0    0  501    0  0.00000000000E+00 -0.00000000000E+00 -0.16630817401E+03  0.16630817409E+03  0.50400000000E-02 0.  1.
    5000001    1    1    2    0    0 -0.35829912533E+02  0.13754666167E+03  0.15776002268E+03  0.29101905698E+03  0.19900000000E+03 0.  0.
   -5000001    1    1    2    0    0  0.35829912533E+02 -0.13754666167E+03  0.50312997808E+02  0.24967031164E+03  0.19900000000E+03 0.  0.
<mgrwt>
<rscale>  0 0.49904971E+03</rscale>
<asrwt>0</asrwt>
<pdfrwt beam="1">  1        1 0.23758311E-01 0.49904971E+03</pdfrwt>
<pdfrwt beam="2">  1       -1 0.53483027E-01 0.49904971E+03</pdfrwt>
<totfact> 0.74152556E+02</totfact>
</mgrwt>
</event>
<event>
 4    1  0.6480558E-006  0.4395083E+03  0.7818608E-02  0.1030898E+00
         -1   -1    0    0    0  501 -0.00000000000E+00  0.00000000000E+00  0.44215538270E+03  0.44215538273E+03  0.50400000000E-02 0.  1.
          1   -1    0    0  501    0  0.00000000000E+00 -0.00000000000E+00 -0.10921925819E+03  0.10921925831E+03  0.50400000000E-02 0. -1.
    5000001    1    1    2    0    0 -0.43507960560E+02  0.10928796672E+02  0.63945549081E+02  0.21378123041E+03  0.19900000000E+03 0.  0.
   -5000001    1    1    2    0    0  0.43507960560E+02 -0.10928796672E+02  0.26899057543E+03  0.33759341063E+03  0.19900000000E+03 0.  0.
<mgrwt>
<rscale>  0 0.43950828E+03</rscale>
<asrwt>0</asrwt>
<pdfrwt beam="1">  1        1 0.15602751E-01 0.43950828E+03</pdfrwt>
<pdfrwt beam="2">  1       -1 0.63165056E-01 0.43950828E+03</pdfrwt>
<totfact> 0.93372415E+02</totfact>
</mgrwt>
</event>
<event>
 4    1  0.6480558E-006  0.5748301E+03  0.7818608E-02  0.9959047E-01
         -1   -1    0    0    0  501 -0.00000000000E+00  0.00000000000E+00  0.51743365248E+03  0.51743365251E+03  0.50400000000E-02 0. -1.
          1   -1    0    0  501    0  0.00000000000E+00 -0.00000000000E+00 -0.15964832003E+03  0.15964832011E+03  0.50400000000E-02 0.  1.
    5000001    1    1    2    0    0 -0.59668265587E+02  0.81105410189E+02 -0.34651907554E+02  0.22569923389E+03  0.19900000000E+03 0.  0.
   -5000001    1    1    2    0    0  0.59668265587E+02 -0.81105410189E+02  0.39243724001E+03  0.45138273873E+03  0.19900000000E+03 0.  0.
<mgrwt>
<rscale>  0 0.57483011E+03</rscale>
<asrwt>0</asrwt>
<pdfrwt beam="1">  1        1 0.22806903E-01 0.57483011E+03</pdfrwt>
<pdfrwt beam="2">  1       -1 0.73919094E-01 0.57483011E+03</pdfrwt>
<totfact> 0.41143622E+02</totfact>
</mgrwt>
</event>
<event>
 4    1  0.6480558E-006  0.4223422E+03  0.7818608E-02  0.1036307E+00
          1   -1    0    0  501    0  0.00000000000E+00  0.00000000000E+00  0.65146060962E+03  0.65146060964E+03  0.50400000000E-02 0. -1.
         -1   -1    0    0    0  501 -0.00000000000E+00 -0.00000000000E+00 -0.68451161319E+02  0.68451161504E+02  0.50400000000E-02 0.  1.
    5000001    1    1    2    0    0  0.60730492634E+02 -0.11841138647E+02  0.23335340489E+03  0.31286293624E+03  0.19900000000E+03 0.  0.
   -5000001    1    1    2    0    0 -0.60730492634E+02  0.11841138647E+02  0.34965604341E+03  0.40704883490E+03  0.19900000000E+03 0.  0.
<mgrwt>
<rscale>  0 0.42234221E+03</rscale>
<asrwt>0</asrwt>
<pdfrwt beam="1">  1        1 0.93065793E-01 0.42234221E+03</pdfrwt>
<pdfrwt beam="2">  1       -1 0.97787382E-02 0.42234221E+03</pdfrwt>
<totfact> 0.22045461E+03</totfact>
</mgrwt>
</event>
<event>
 4    1  0.6480558E-006  0.4792747E+03  0.7818608E-02  0.1019335E+00
          1   -1    0    0  501    0  0.00000000000E+00  0.00000000000E+00  0.66877702425E+02  0.66877702615E+02  0.50400000000E-02 0. -1.
         -1   -1    0    0    0  501 -0.00000000000E+00 -0.00000000000E+00 -0.85867290752E+03  0.85867290754E+03  0.50400000000E-02 0.  1.
    5000001    1    1    2    0    0  0.14826923885E+02 -0.20562202306E+02 -0.64903593078E+03  0.67933149587E+03  0.19900000000E+03 0.  0.
   -5000001    1    1    2    0    0 -0.14826923885E+02  0.20562202306E+02 -0.14275927432E+03  0.24621911429E+03  0.19900000000E+03 0.  0.
<mgrwt>
<rscale>  0 0.47927475E+03</rscale>
<asrwt>0</asrwt>
<pdfrwt beam="1">  1        1 0.95539580E-02 0.47927475E+03</pdfrwt>
<pdfrwt beam="2">  1       -1 0.12266755E+00 0.47927475E+03</pdfrwt>
<totfact> 0.42693093E+02</totfact>
</mgrwt>
</event>
<event>
 4    1  0.6480558E-006  0.5720640E+03  0.7818608E-02  0.9965122E-01
         -1   -1    0    0    0  501 -0.00000000000E+00  0.00000000000E+00  0.31341053642E+02  0.31341054047E+02  0.50400000000E-02 0. -1.
          1   -1    0    0  501    0  0.00000000000E+00 -0.00000000000E+00 -0.26104520504E+04  0.26104520504E+04  0.50400000000E-02 0.  1.
    5000001    1    1    2    0    0 -0.13551338773E+02 -0.19387120229E+03 -0.98171666289E+03  0.10203618417E+04  0.19900000000E+03 0.  0.
   -5000001    1    1    2    0    0  0.13551338773E+02  0.19387120229E+03 -0.15973943339E+04  0.16214312627E+04  0.19900000000E+03 0.  0.
<mgrwt>
<rscale>  0 0.57206405E+03</rscale>
<asrwt>0</asrwt>
<pdfrwt beam="1">  1        1 0.37292158E+00 0.57206405E+03</pdfrwt>
<pdfrwt beam="2">  1       -1 0.44772951E-02 0.57206405E+03</pdfrwt>
<totfact> 0.35545440E+02</totfact>
</mgrwt>
</event>
<event>
 4    1  0.6480558E-006  0.6038799E+03  0.7818608E-02  0.9897389E-01
          1   -1    0    0  501    0  0.00000000000E+00  0.00000000000E+00  0.70640997724E+03  0.70640997726E+03  0.50400000000E-02 0.  1.
         -1   -1    0    0    0  501 -0.00000000000E+00 -0.00000000000E+00 -0.12905781269E+03  0.12905781279E+03  0.50400000000E-02 0. -1.
    5000001    1    1    2    0    0 -0.34420700403E+01  0.19515992905E+03  0.44923052808E+03  0.52868545763E+03  0.19900000000E+03 0.  0.
   -5000001    1    1    2    0    0  0.34420700403E+01 -0.19515992905E+03  0.12812163647E+03  0.30678233242E+03  0.19900000000E+03 0.  0.
<mgrwt>
<rscale>  0 0.60387988E+03</rscale>
<asrwt>0</asrwt>
<pdfrwt beam="1">  1        1 0.10091571E+00 0.60387988E+03</pdfrwt>
<pdfrwt beam="2">  1       -1 0.18436831E-01 0.60387988E+03</pdfrwt>
<totfact> 0.70924613E+02</totfact>
</mgrwt>
</event>
<event>
 4    1  0.6480558E-006  0.4954415E+03  0.7818608E-02  0.1014976E+00
          1   -1    0    0  501    0  0.00000000000E+00  0.00000000000E+00  0.81288041737E+03  0.81288041739E+03  0.50400000000E-02 0.  1.
         -1   -1    0    0    0  501 -0.00000000000E+00 -0.00000000000E+00 -0.75491498710E+02  0.75491498878E+02  0.50400000000E-02 0. -1.
    5000001    1    1    2    0    0 -0.35607965954E+02  0.12084647584E+03  0.50633994155E+03  0.55843794137E+03  0.19900000000E+03 0.  0.
   -5000001    1    1    2    0    0  0.35607965954E+02 -0.12084647584E+03  0.23104897712E+03  0.32993397489E+03  0.19900000000E+03 0.  0.
<mgrwt>
<rscale>  0 0.49544146E+03</rscale>
<asrwt>0</asrwt>
<pdfrwt beam="1">  1        1 0.11612577E+00 0.49544146E+03</pdfrwt>
<pdfrwt beam="2">  1       -1 0.10784500E-01 0.49544146E+03</pdfrwt>
<totfact> 0.13649934E+03</totfact>
</mgrwt>
</event>
<event>
 4    1  0.6480558E-006  0.8102340E+03  0.7818608E-02  0.9545321E-01
         -1   -1    0    0    0  501 -0.00000000000E+00  0.00000000000E+00  0.19352625040E+03  0.19352625047E+03  0.50400000000E-02 0. -1.
          1   -1    0    0  501    0  0.00000000000E+00 -0.00000000000E+00 -0.84804919021E+03  0.84804919023E+03  0.50400000000E-02 0.  1.
    5000001    1    1    2    0    0  0.10735024928E+03 -0.33404155552E+03 -0.37554900419E+03  0.55113146470E+03  0.19900000000E+03 0.  0.
   -5000001    1    1    2    0    0 -0.10735024928E+03  0.33404155552E+03 -0.27897393562E+03  0.49044397599E+03  0.19900000000E+03 0.  0.
<mgrwt>
<rscale>  0 0.81023399E+03</rscale>
<asrwt>0</asrwt>
<pdfrwt beam="1">  1        1 0.12114988E+00 0.81023399E+03</pdfrwt>
<pdfrwt beam="2">  1       -1 0.27646608E-01 0.81023399E+03</pdfrwt>
<totfact> 0.26899607E+02</totfact>
</mgrwt>
</event>
<event>
 4    1  0.6480558E-006  0.6515570E+03  0.7818608E-02  0.9803862E-01
         -1   -1    0    0    0  501 -0.00000000000E+00  0.00000000000E+00  0.23688665564E+03  0.23688665569E+03  0.50400000000E-02 0. -1.
          1   -1    0    0  501    0  0.00000000000E+00 -0.00000000000E+00 -0.44802705337E+03  0.44802705340E+03  0.50400000000E-02 0.  1.
    5000001    1    1    2    0    0 -0.11638572630E+03 -0.20382651637E+03 -0.21800263055E+03  0.37711673656E+03  0.19900000000E+03 0.  0.
   -5000001    1    1    2    0    0  0.11638572630E+03  0.20382651637E+03  0.68622328129E+01  0.30779697254E+03  0.19900000000E+03 0.  0.
<mgrwt>
<rscale>  0 0.65155700E+03</rscale>
<asrwt>0</asrwt>
<pdfrwt beam="1">  1        1 0.64003864E-01 0.65155700E+03</pdfrwt>
<pdfrwt beam="2">  1       -1 0.33840951E-01 0.65155700E+03</pdfrwt>
<totfact> 0.47377370E+02</totfact>
</mgrwt>
</event>
<event>
 4    1  0.6480558E-006  0.5471814E+03  0.7818608E-02  0.1002148E+00
         -1   -1    0    0    0  501 -0.00000000000E+00  0.00000000000E+00  0.12689160745E+03  0.12689160755E+03  0.50400000000E-02 0. -1.
          1   -1    0    0  501    0  0.00000000000E+00 -0.00000000000E+00 -0.58988829957E+03  0.58988829959E+03  0.50400000000E-02 0.  1.
    5000001    1    1    2    0    0  0.25171045299E+02  0.14823265361E+03 -0.84198211400E+02  0.26324292948E+03  0.19900000000E+03 0.  0.
   -5000001    1    1    2    0    0 -0.25171045299E+02 -0.14823265361E+03 -0.37879848072E+03  0.45353697766E+03  0.19900000000E+03 0.  0.
<mgrwt>
<rscale>  0 0.54718141E+03</rscale>
<asrwt>0</asrwt>
<pdfrwt beam="1">  1        1 0.84269756E-01 0.54718141E+03</pdfrwt>
<pdfrwt beam="2">  1       -1 0.18127373E-01 0.54718141E+03</pdfrwt>
<totfact> 0.94441635E+02</totfact>
</mgrwt>
</event>
<event>
 4    1  0.6480558E-006  0.5069069E+03  0.7818608E-02  0.1011992E+00
         -1   -1    0    0    0  501 -0.00000000000E+00  0.00000000000E+00  0.62970438057E+03  0.62970438059E+03  0.50400000000E-02 0. -1.
          1   -1    0    0  501    0  0.00000000000E+00 -0.00000000000E+00 -0.10201397763E+03  0.10201397775E+03  0.50400000000E-02 0.  1.
    5000001    1    1    2    0    0 -0.77125536445E-01  0.15682832504E+03  0.27325776893E+03  0.37264720281E+03  0.19900000000E+03 0.  0.
   -5000001    1    1    2    0    0  0.77125536445E-01 -0.15682832504E+03  0.25443263401E+03  0.35907115553E+03  0.19900000000E+03 0.  0.
<mgrwt>
<rscale>  0 0.50690689E+03</rscale>
<asrwt>0</asrwt>
<pdfrwt beam="1">  1        1 0.14573425E-01 0.50690689E+03</pdfrwt>
<pdfrwt beam="2">  1       -1 0.89957772E-01 0.50690689E+03</pdfrwt>
<totfact> 0.49154074E+02</totfact>
</mgrwt>
</event>
<event>
 4    1  0.6480558E-006  0.1059846E+04  0.7818608E-02  0.9245237E-01
         -1   -1    0    0    0  501 -0.00000000000E+00  0.00000000000E+00  0.34942670302E+03  0.34942670305E+03  0.50400000000E-02 0. -1.
          1   -1    0    0  501    0  0.00000000000E+00 -0.00000000000E+00 -0.80365515790E+03  0.80365515791E+03  0.50400000000E-02 0.  1.
    5000001    1    1    2    0    0  0.48544441967E+03 -0.70311043394E+02 -0.25415297858E+03  0.58719218654E+03  0.19900000000E+03 0.  0.
   -5000001    1    1    2    0    0 -0.48544441967E+03  0.70311043394E+02 -0.20007547630E+03  0.56588967443E+03  0.19900000000E+03 0.  0.
<mgrwt>
<rscale>  0 0.10598464E+04</rscale>
<asrwt>0</asrwt>
<pdfrwt beam="1">  1        1 0.11480788E+00 0.10598464E+04</pdfrwt>
<pdfrwt beam="2">  1       -1 0.49918101E-01 0.10598464E+04</pdfrwt>
<totfact> 0.99299841E+01</totfact>
</mgrwt>
</event>
<event>
 4    1  0.6480558E-006  0.8170680E+03  0.7818608E-02  0.9535635E-01
          1   -1    0    0  501    0  0.00000000000E+00  0.00000000000E+00  0.53064754703E+03  0.53064754705E+03  0.50400000000E-02 0.  1.
         -1   -1    0    0    0  501 -0.00000000000E+00 -0.00000000000E+00 -0.31452145944E+03  0.31452145948E+03  0.50400000000E-02 0. -1.
    5000001    1    1    2    0    0 -0.18450335134E+03  0.19559587382E+03 -0.13452306806E+03  0.36055053508E+03  0.19900000000E+03 0.  0.
   -5000001    1    1    2    0    0  0.18450335134E+03 -0.19559587382E+03  0.35064915565E+03  0.48461847145E+03  0.19900000000E+03 0.  0.
<mgrwt>
<rscale>  0 0.81706803E+03</rscale>
<asrwt>0</asrwt>
<pdfrwt beam="1">  1        1 0.75806792E-01 0.81706803E+03</pdfrwt>
<pdfrwt beam="2">  1       -1 0.44931637E-01 0.81706803E+03</pdfrwt>
<totfact> 0.22426408E+02</totfact>
</mgrwt>
</event>
<event>
 4    1  0.6480558E-006  0.5340997E+03  0.7818608E-02  0.1005243E+00
         -1   -1    0    0    0  501 -0.00000000000E+00  0.00000000000E+00  0.88917692261E+02  0.88917692404E+02  0.50400000000E-02 0. -1.
          1   -1    0    0  501    0  0.00000000000E+00 -0.00000000000E+00 -0.80204070949E+03  0.80204070951E+03  0.50400000000E-02 0.  1.
    5000001    1    1    2    0    0 -0.17636215162E+03 -0.20116710111E+02 -0.33260054778E+03  0.42630085026E+03  0.19900000000E+03 0.  0.
   -5000001    1    1    2    0    0  0.17636215162E+03  0.20116710111E+02 -0.38052246945E+03  0.46465755165E+03  0.19900000000E+03 0.  0.
<mgrwt>
<rscale>  0 0.53409965E+03</rscale>
<asrwt>0</asrwt>
<pdfrwt beam="1">  1        1 0.11457724E+00 0.53409965E+03</pdfrwt>
<pdfrwt beam="2">  1       -1 0.12702528E-01 0.53409965E+03</pdfrwt>
<totfact> 0.10740304E+03</totfact>
</mgrwt>
</event>
<event>
 4    1  0.6480558E-006  0.6051748E+03  0.7818608E-02  0.9894728E-01
          1   -1    0    0  501    0  0.00000000000E+00  0.00000000000E+00  0.22633184118E+03  0.22633184124E+03  0.50400000000E-02 0. -1.
         -1   -1    0    0    0  501 -0.00000000000E+00 -0.00000000000E+00 -0.40453499206E+03  0.40453499209E+03  0.50400000000E-02 0.  1.
    5000001    1    1    2    0    0  0.72261926656E+02 -0.21472353612E+03 -0.62932732889E+02  0.30804141260E+03  0.19900000000E+03 0.  0.
   -5000001    1    1    2    0    0 -0.72261926656E+02  0.21472353612E+03 -0.11527041799E+03  0.32282542073E+03  0.19900000000E+03 0.  0.
<mgrwt>
<rscale>  0 0.60517485E+03</rscale>
<asrwt>0</asrwt>
<pdfrwt beam="1">  1        1 0.32333121E-01 0.60517485E+03</pdfrwt>
<pdfrwt beam="2">  1       -1 0.57790712E-01 0.60517485E+03</pdfrwt>
<totfact> 0.42784702E+02</totfact>
</mgrwt>
</event>
<event>
 4    1  0.6480558E-006  0.4805639E+03  0.7818608E-02  0.1018980E+00
          1   -1    0    0  501    0  0.00000000000E+00  0.00000000000E+00  0.94398871130E+03  0.94398871131E+03  0.50400000000E-02 0.  1.
         -1   -1    0    0    0  501 -0.00000000000E+00 -0.00000000000E+00 -0.61161124536E+02  0.61161124744E+02  0.50400000000E-02 0. -1.
    5000001    1    1    2    0    0  0.53423199305E+02  0.80856268516E+02  0.24584439555E+03  0.33080544313E+03  0.19900000000E+03 0.  0.
   -5000001    1    1    2    0    0 -0.53423199305E+02 -0.80856268516E+02  0.63698319121E+03  0.67434439292E+03  0.19900000000E+03 0.  0.
<mgrwt>
<rscale>  0 0.48056388E+03</rscale>
<asrwt>0</asrwt>
<pdfrwt beam="1">  1        1 0.13485552E+00 0.48056388E+03</pdfrwt>
<pdfrwt beam="2">  1       -1 0.87373044E-02 0.48056388E+03</pdfrwt>
<totfact> 0.14979314E+03</totfact>
</mgrwt>
</event>
<event>
 4    1  0.6480558E-006  0.5921662E+03  0.7818608E-02  0.9921793E-01
          1   -1    0    0  501    0  0.00000000000E+00  0.00000000000E+00  0.83788191708E+03  0.83788191709E+03  0.50400000000E-02 0.  1.
         -1   -1    0    0    0  501 -0.00000000000E+00 -0.00000000000E+00 -0.10462716947E+03  0.10462716959E+03  0.50400000000E-02 0. -1.
    5000001    1    1    2    0    0 -0.15089916879E+03  0.86352023082E+01  0.61938635003E+03  0.66789638153E+03  0.19900000000E+03 0.  0.
   -5000001    1    1    2    0    0  0.15089916879E+03 -0.86352023082E+01  0.11386839758E+03  0.27461270515E+03  0.19900000000E+03 0.  0.
<mgrwt>
<rscale>  0 0.59216624E+03</rscale>
<asrwt>0</asrwt>
<pdfrwt beam="1">  1        1 0.11969741E+00 0.59216624E+03</pdfrwt>
<pdfrwt beam="2">  1       -1 0.14946739E-01 0.59216624E+03</pdfrwt>
<totfact> 0.77171940E+02</totfact>
</mgrwt>
</event>
<event>
 4    1  0.6480558E-006  0.4788050E+03  0.7818608E-02  0.1019464E+00
          1   -1    0    0  501    0  0.00000000000E+00  0.00000000000E+00  0.11201275862E+04  0.11201275862E+04  0.50400000000E-02 0.  1.
         -1   -1    0    0    0  501 -0.00000000000E+00 -0.00000000000E+00 -0.51166981694E+02  0.51166981943E+02  0.50400000000E-02 0. -1.
    5000001    1    1    2    0    0  0.15837108856E+02 -0.80676260267E+02  0.27845934621E+03  0.35199443246E+03  0.19900000000E+03 0.  0.
   -5000001    1    1    2    0    0 -0.15837108856E+02  0.80676260267E+02  0.79050125825E+03  0.81930013566E+03  0.19900000000E+03 0.  0.
<mgrwt>
<rscale>  0 0.47880496E+03</rscale>
<asrwt>0</asrwt>
<pdfrwt beam="1">  1        1 0.16001822E+00 0.47880496E+03</pdfrwt>
<pdfrwt beam="2">  1       -1 0.73095694E-02 0.47880496E+03</pdfrwt>
<totfact> 0.14727034E+03</totfact>
</mgrwt>
</event>
<event>
 4    1  0.6480558E-006  0.4886663E+03  0.7818608E-02  0.1016780E+00
          1   -1    0    0  501    0  0.00000000000E+00  0.00000000000E+00  0.51490604204E+02  0.51490604451E+02  0.50400000000E-02 0.  1.
         -1   -1    0    0    0  501 -0.00000000000E+00 -0.00000000000E+00 -0.11594091862E+04  0.11594091863E+04  0.50400000000E-02 0. -1.
    5000001    1    1    2    0    0  0.50344411942E+02 -0.13156710010E+03 -0.59339077860E+03  0.64152792439E+03  0.19900000000E+03 0.  0.
   -5000001    1    1    2    0    0 -0.50344411942E+02  0.13156710010E+03 -0.51452780344E+03  0.56937186632E+03  0.19900000000E+03 0.  0.
<mgrwt>
<rscale>  0 0.48866627E+03</rscale>
<asrwt>0</asrwt>
<pdfrwt beam="1">  1        1 0.73558013E-02 0.48866627E+03</pdfrwt>
<pdfrwt beam="2">  1       -1 0.16562987E+00 0.48866627E+03</pdfrwt>
<totfact> 0.28008265E+02</totfact>
</mgrwt>
</event>
<event>
 4    1  0.6480558E-006  0.7672182E+03  0.7818608E-02  0.9608718E-01
         -1   -1    0    0    0  501 -0.00000000000E+00  0.00000000000E+00  0.46190926307E+03  0.46190926310E+03  0.50400000000E-02 0.  1.
          1   -1    0    0  501    0  0.00000000000E+00 -0.00000000000E+00 -0.31858188569E+03  0.31858188572E+03  0.50400000000E-02 0. -1.
    5000001    1    1    2    0    0 -0.18627520456E+03  0.10378320181E+03 -0.18181664513E+03  0.34369710103E+03  0.19900000000E+03 0.  0.
   -5000001    1    1    2    0    0  0.18627520456E+03 -0.10378320181E+03  0.32514402251E+03  0.43679404779E+03  0.19900000000E+03 0.  0.
<mgrwt>
<rscale>  0 0.76721815E+03</rscale>
<asrwt>0</asrwt>
<pdfrwt beam="1">  1        1 0.45511698E-01 0.76721815E+03</pdfrwt>
<pdfrwt beam="2">  1       -1 0.65987037E-01 0.76721815E+03</pdfrwt>
<totfact> 0.21033062E+02</totfact>
</mgrwt>
</event>
<event>
 4    1  0.6480558E-006  0.7302390E+03  0.7818608E-02  0.9666873E-01
         -1   -1    0    0    0  501 -0.00000000000E+00  0.00000000000E+00  0.15449170869E+03  0.15449170877E+03  0.50400000000E-02 0. -1.
          1   -1    0    0  501    0  0.00000000000E+00 -0.00000000000E+00 -0.86290881812E+03  0.86290881814E+03  0.50400000000E-02 0.  1.
    5000001    1    1    2    0    0 -0.26817451352E+03 -0.14654410454E+03 -0.37907369181E+03  0.52601388585E+03  0.19900000000E+03 0.  0.
   -5000001    1    1    2    0    0  0.26817451352E+03  0.14654410454E+03 -0.32934341763E+03  0.49138664106E+03  0.19900000000E+03 0.  0.
<mgrwt>
<rscale>  0 0.73023902E+03</rscale>
<asrwt>0</asrwt>
<pdfrwt beam="1">  1        1 0.12327269E+00 0.73023902E+03</pdfrwt>
<pdfrwt beam="2">  1       -1 0.22070245E-01 0.73023902E+03</pdfrwt>
<totfact> 0.38548886E+02</totfact>
</mgrwt>
</event>
<event>
 4    1  0.6480558E-006  0.5952324E+03  0.7818608E-02  0.9915347E-01
          1   -1    0    0  501    0  0.00000000000E+00  0.00000000000E+00  0.57772306585E+03  0.57772306588E+03  0.50400000000E-02 0.  1.
         -1   -1    0    0    0  501 -0.00000000000E+00 -0.00000000000E+00 -0.15331811407E+03  0.15331811415E+03  0.50400000000E-02 0. -1.
    5000001    1    1    2    0    0  0.20875573741E+03  0.34404363166E+02  0.29190806194E+03  0.41179355839E+03  0.19900000000E+03 0.  0.
   -5000001    1    1    2    0    0 -0.20875573741E+03 -0.34404363166E+02  0.13249688985E+03  0.31924762164E+03  0.19900000000E+03 0.  0.
<mgrwt>
<rscale>  0 0.59523243E+03</rscale>
<asrwt>0</asrwt>
<pdfrwt beam="1">  1        1 0.82531867E-01 0.59523243E+03</pdfrwt>
<pdfrwt beam="2">  1       -1 0.21902588E-01 0.59523243E+03</pdfrwt>
<totfact> 0.70991814E+02</totfact>
</mgrwt>
</event>
<event>
 4    1  0.6480558E-006  0.5111833E+03  0.7818608E-02  0.1010900E+00
          1   -1    0    0  501    0  0.00000000000E+00  0.00000000000E+00  0.11916622486E+04  0.11916622487E+04  0.50400000000E-02 0.  1.
         -1   -1    0    0    0  501 -0.00000000000E+00 -0.00000000000E+00 -0.54820139562E+02  0.54820139794E+02  0.50400000000E-02 0. -1.
    5000001    1    1    2    0    0 -0.25854685770E+02 -0.15763922794E+03  0.60354623069E+03  0.65527676865E+03  0.19900000000E+03 0.  0.
   -5000001    1    1    2    0    0  0.25854685770E+02  0.15763922794E+03  0.53329587839E+03  0.59120561979E+03  0.19900000000E+03 0.  0.
<mgrwt>
<rscale>  0 0.51118330E+03</rscale>
<asrwt>0</asrwt>
<pdfrwt beam="1">  1        1 0.17023745E+00 0.51118330E+03</pdfrwt>
<pdfrwt beam="2">  1       -1 0.78314494E-02 0.51118330E+03</pdfrwt>
<totfact> 0.11803102E+03</totfact>
</mgrwt>
</event>
<event>
 4    1  0.6480558E-006  0.4487955E+03  0.7818608E-02  0.1028082E+00
         -1   -1    0    0    0  501 -0.00000000000E+00  0.00000000000E+00  0.41846049688E+02  0.41846049992E+02  0.50400000000E-02 0.  1.
          1   -1    0    0  501    0  0.00000000000E+00 -0.00000000000E+00 -0.12033238252E+04  0.12033238252E+04  0.50400000000E-02 0. -1.
    5000001    1    1    2    0    0  0.87324508687E+02  0.21534774091E+02 -0.72394114835E+03  0.75616208751E+03  0.19900000000E+03 0.  0.
   -5000001    1    1    2    0    0 -0.87324508687E+02 -0.21534774091E+02 -0.43753662713E+03  0.48900778766E+03  0.19900000000E+03 0.  0.
<mgrwt>
<rscale>  0 0.44879549E+03</rscale>
<asrwt>0</asrwt>
<pdfrwt beam="1">  1        1 0.17190338E+00 0.44879549E+03</pdfrwt>
<pdfrwt beam="2">  1       -1 0.59780079E-02 0.44879549E+03</pdfrwt>
<totfact> 0.17594696E+03</totfact>
</mgrwt>
</event>
<event>
 4    1  0.6480558E-006  0.4863040E+03  0.7818608E-02  0.1017417E+00
         -1   -1    0    0    0  501 -0.00000000000E+00  0.00000000000E+00  0.26244511322E+03  0.26244511326E+03  0.50400000000E-02 0. -1.
          1   -1    0    0  501    0  0.00000000000E+00 -0.00000000000E+00 -0.22527719524E+03  0.22527719529E+03  0.50400000000E-02 0.  1.
    5000001    1    1    2    0    0  0.80238983194E+02  0.83964683511E+02  0.96486341126E+02  0.24979787134E+03  0.19900000000E+03 0.  0.
   -5000001    1    1    2    0    0 -0.80238983194E+02 -0.83964683511E+02 -0.59318423145E+02  0.23792443722E+03  0.19900000000E+03 0.  0.
<mgrwt>
<rscale>  0 0.48630402E+03</rscale>
<asrwt>0</asrwt>
<pdfrwt beam="1">  1        1 0.32182457E-01 0.48630402E+03</pdfrwt>
<pdfrwt beam="2">  1       -1 0.37492159E-01 0.48630402E+03</pdfrwt>
<totfact> 0.96371785E+02</totfact>
</mgrwt>
</event>
<event>
 4    1  0.6480558E-006  0.7836832E+03  0.7818608E-02  0.9583940E-01
          1   -1    0    0  501    0  0.00000000000E+00  0.00000000000E+00  0.39412534331E+03  0.39412534334E+03  0.50400000000E-02 0.  1.
         -1   -1    0    0    0  501 -0.00000000000E+00 -0.00000000000E+00 -0.38957105409E+03  0.38957105412E+03  0.50400000000E-02 0. -1.
    5000001    1    1    2    0    0  0.12514098179E+03  0.29503468669E+03 -0.10371093562E+03  0.39123227096E+03  0.19900000000E+03 0.  0.
   -5000001    1    1    2    0    0 -0.12514098179E+03 -0.29503468669E+03  0.10826522484E+03  0.39246412650E+03  0.19900000000E+03 0.  0.
<mgrwt>
<rscale>  0 0.78368316E+03</rscale>
<asrwt>0</asrwt>
<pdfrwt beam="1">  1        1 0.56303620E-01 0.78368316E+03</pdfrwt>
<pdfrwt beam="2">  1       -1 0.55653008E-01 0.78368316E+03</pdfrwt>
<totfact> 0.22294709E+02</totfact>
</mgrwt>
</event>
<event>
 4    1  0.6480558E-006  0.7192468E+03  0.7818608E-02  0.9684872E-01
          1   -1    0    0  501    0  0.00000000000E+00  0.00000000000E+00  0.20286727146E+04  0.20286727146E+04  0.50400000000E-02 0.  1.
         -1   -1    0    0    0  501 -0.00000000000E+00 -0.00000000000E+00 -0.63750552755E+02  0.63750552954E+02  0.50400000000E-02 0. -1.
    5000001    1    1    2    0    0  0.18786840428E+03  0.45115683169E+02  0.16483919006E+04  0.16715641837E+04  0.19900000000E+03 0.  0.
   -5000001    1    1    2    0    0 -0.18786840428E+03 -0.45115683169E+02  0.31653026122E+03  0.42085908385E+03  0.19900000000E+03 0.  0.
<mgrwt>
<rscale>  0 0.71924685E+03</rscale>
<asrwt>0</asrwt>
<pdfrwt beam="1">  1        1 0.28981028E+00 0.71924685E+03</pdfrwt>
<pdfrwt beam="2">  1       -1 0.91072251E-02 0.71924685E+03</pdfrwt>
<totfact> 0.26894925E+02</totfact>
</mgrwt>
</event>
<event>
 4    1  0.6480558E-006  0.1018584E+04  0.7818608E-02  0.9288394E-01
         -1   -1    0    0    0  501 -0.00000000000E+00  0.00000000000E+00  0.18797794668E+03  0.18797794675E+03  0.50400000000E-02 0. -1.
          1   -1    0    0  501    0  0.00000000000E+00 -0.00000000000E+00 -0.13798333687E+04  0.13798333687E+04  0.50400000000E-02 0.  1.
    5000001    1    1    2    0    0 -0.29559813277E+03  0.36369653837E+03 -0.57880059375E+03  0.77088556572E+03  0.19900000000E+03 0.  0.
   -5000001    1    1    2    0    0  0.29559813277E+03 -0.36369653837E+03 -0.61305482827E+03  0.79692574973E+03  0.19900000000E+03 0.  0.
<mgrwt>
<rscale>  0 0.10185838E+04</rscale>
<asrwt>0</asrwt>
<pdfrwt beam="1">  1        1 0.19711905E+00 0.10185838E+04</pdfrwt>
<pdfrwt beam="2">  1       -1 0.26853993E-01 0.10185838E+04</pdfrwt>
<totfact> 0.11550984E+02</totfact>
</mgrwt>
</event>
<event>
 4    1  0.6480558E-006  0.4169769E+03  0.7818608E-02  0.1038055E+00
          1   -1    0    0  501    0  0.00000000000E+00  0.00000000000E+00  0.17957506136E+04  0.17957506136E+04  0.50400000000E-02 0.  1.
         -1   -1    0    0    0  501 -0.00000000000E+00 -0.00000000000E+00 -0.24205718765E+02  0.24205719290E+02  0.50400000000E-02 0. -1.
    5000001    1    1    2    0    0 -0.29914132858E+02 -0.49478668020E+02  0.98563042887E+03  0.10071798927E+04  0.19900000000E+03 0.  0.
   -5000001    1    1    2    0    0  0.29914132858E+02  0.49478668020E+02  0.78591446594E+03  0.81277644018E+03  0.19900000000E+03 0.  0.
<mgrwt>
<rscale>  0 0.41697690E+03</rscale>
<asrwt>0</asrwt>
<pdfrwt beam="1">  1        1 0.25653586E+00 0.41697690E+03</pdfrwt>
<pdfrwt beam="2">  1       -1 0.34579591E-02 0.41697690E+03</pdfrwt>
<totfact> 0.16874488E+03</totfact>
</mgrwt>
</event>
<event>
 4    1  0.6480558E-006  0.4963934E+03  0.7818608E-02  0.1014725E+00
         -1   -1    0    0    0  501 -0.00000000000E+00  0.00000000000E+00  0.26128535671E+03  0.26128535676E+03  0.50400000000E-02 0. -1.
          1   -1    0    0  501    0  0.00000000000E+00 -0.00000000000E+00 -0.23576370744E+03  0.23576370749E+03  0.50400000000E-02 0.  1.
    5000001    1    1    2    0    0  0.10504483036E+03 -0.99538555711E+02 -0.19813112727E+02  0.24685197973E+03  0.19900000000E+03 0.  0.
   -5000001    1    1    2    0    0 -0.10504483036E+03  0.99538555711E+02  0.45334761999E+02  0.25019708452E+03  0.19900000000E+03 0.  0.
<mgrwt>
<rscale>  0 0.49639341E+03</rscale>
<asrwt>0</asrwt>
<pdfrwt beam="1">  1        1 0.33680530E-01 0.49639341E+03</pdfrwt>
<pdfrwt beam="2">  1       -1 0.37326480E-01 0.49639341E+03</pdfrwt>
<totfact> 0.91628568E+02</totfact>
</mgrwt>
</event>
<event>
 4    1  0.6480558E-006  0.6312670E+03  0.7818608E-02  0.9842580E-01
          1   -1    0    0  501    0  0.00000000000E+00  0.00000000000E+00  0.16257191668E+04  0.16257191668E+04  0.50400000000E-02 0.  1.
         -1   -1    0    0    0  501 -0.00000000000E+00 -0.00000000000E+00 -0.61280260082E+02  0.61280260289E+02  0.50400000000E-02 0. -1.
    5000001    1    1    2    0    0  0.10763530225E+03  0.31628672883E+02  0.20016452147E+03  0.30373107660E+03  0.19900000000E+03 0.  0.
   -5000001    1    1    2    0    0 -0.10763530225E+03 -0.31628672883E+02  0.13642743852E+04  0.13832683504E+04  0.19900000000E+03 0.  0.
<mgrwt>
<rscale>  0 0.63126696E+03</rscale>
<asrwt>0</asrwt>
<pdfrwt beam="1">  1        1 0.23224558E+00 0.63126696E+03</pdfrwt>
<pdfrwt beam="2">  1       -1 0.87543236E-02 0.63126696E+03</pdfrwt>
<totfact> 0.51383804E+02</totfact>
</mgrwt>
</event>
<event>
 4    1  0.6480558E-006  0.4888967E+03  0.7818608E-02  0.1016718E+00
         -1   -1    0    0    0  501 -0.00000000000E+00  0.00000000000E+00  0.29527167946E+02  0.29527168376E+02  0.50400000000E-02 0. -1.
          1   -1    0    0  501    0  0.00000000000E+00 -0.00000000000E+00 -0.20237296597E+04  0.20237296597E+04  0.50400000000E-02 0.  1.
    5000001    1    1    2    0    0  0.10811587176E+03  0.91692029097E+02 -0.96524488227E+03  0.99568828088E+03  0.19900000000E+03 0.  0.
   -5000001    1    1    2    0    0 -0.10811587176E+03 -0.91692029097E+02 -0.10289576095E+04  0.10575685472E+04  0.19900000000E+03 0.  0.
<mgrwt>
<rscale>  0 0.48889674E+03</rscale>
<asrwt>0</asrwt>
<pdfrwt beam="1">  1        1 0.28910415E+00 0.48889674E+03</pdfrwt>
<pdfrwt beam="2">  1       -1 0.42181682E-02 0.48889674E+03</pdfrwt>
<totfact> 0.90276195E+02</totfact>
</mgrwt>
</event>
<event>
 4    1  0.6480558E-006  0.1934984E+04  0.7818608E-02  0.8637636E-01
          1   -1    0    0  501    0  0.00000000000E+00  0.00000000000E+00  0.57722900713E+03  0.57722900716E+03  0.50400000000E-02 0. -1.
         -1   -1    0    0    0  501 -0.00000000000E+00 -0.00000000000E+00 -0.16216111398E+04  0.16216111398E+04  0.50400000000E-02 0.  1.
    5000001    1    1    2    0    0 -0.75520000652E+03 -0.34748672426E+03 -0.72228670169E+01  0.85482585548E+03  0.19900000000E+03 0.  0.
   -5000001    1    1    2    0    0  0.75520000652E+03  0.34748672426E+03 -0.10371592656E+04  0.13440142915E+04  0.19900000000E+03 0.  0.
<mgrwt>
<rscale>  0 0.19349842E+04</rscale>
<asrwt>0</asrwt>
<pdfrwt beam="1">  1        1 0.82461287E-01 0.19349842E+04</pdfrwt>
<pdfrwt beam="2">  1       -1 0.23165873E+00 0.19349842E+04</pdfrwt>
<totfact> 0.34662911E+00</totfact>
</mgrwt>
</event>
<event>
 4    1  0.6480558E-006  0.6460134E+03  0.7818608E-02  0.9814289E-01
         -1   -1    0    0    0  501 -0.00000000000E+00  0.00000000000E+00  0.78312398594E+02  0.78312398757E+02  0.50400000000E-02 0. -1.
          1   -1    0    0  501    0  0.00000000000E+00 -0.00000000000E+00 -0.13322706837E+04  0.13322706837E+04  0.50400000000E-02 0.  1.
    5000001    1    1    2    0    0 -0.15467336913E+03 -0.20127499601E+03 -0.66459896822E+03  0.73873423076E+03  0.19900000000E+03 0.  0.
   -5000001    1    1    2    0    0  0.15467336913E+03  0.20127499601E+03 -0.58935931690E+03  0.67184885172E+03  0.19900000000E+03 0.  0.
<mgrwt>
<rscale>  0 0.64601335E+03</rscale>
<asrwt>0</asrwt>
<pdfrwt beam="1">  1        1 0.19032437E+00 0.64601335E+03</pdfrwt>
<pdfrwt beam="2">  1       -1 0.11187486E-01 0.64601335E+03</pdfrwt>
<totfact> 0.53919671E+02</totfact>
</mgrwt>
</event>
<event>
 4    1  0.6480558E-006  0.6259705E+03  0.7818608E-02  0.9852944E-01
         -1   -1    0    0    0  501 -0.00000000000E+00  0.00000000000E+00  0.65878145904E+02  0.65878146097E+02  0.50400000000E-02 0. -1.
          1   -1    0    0  501    0  0.00000000000E+00 -0.00000000000E+00 -0.14869843259E+04  0.14869843259E+04  0.50400000000E-02 0.  1.
    5000001    1    1    2    0    0 -0.67716223118E+02  0.20577841425E+03 -0.44535263459E+03  0.53373234095E+03  0.19900000000E+03 0.  0.
   -5000001    1    1    2    0    0  0.67716223118E+02 -0.20577841425E+03 -0.97575354542E+03  0.10191301311E+04  0.19900000000E+03 0.  0.
<mgrwt>
<rscale>  0 0.62597051E+03</rscale>
<asrwt>0</asrwt>
<pdfrwt beam="1">  1        1 0.21242631E+00 0.62597051E+03</pdfrwt>
<pdfrwt beam="2">  1       -1 0.94111646E-02 0.62597051E+03</pdfrwt>
<totfact> 0.56236413E+02</totfact>
</mgrwt>
</event>
<event>
 4    1  0.6480558E-006  0.7143858E+03  0.7818608E-02  0.9692942E-01
          1   -1    0    0  501    0  0.00000000000E+00  0.00000000000E+00  0.58422368629E+03  0.58422368631E+03  0.50400000000E-02 0.  1.
         -1   -1    0    0    0  501 -0.00000000000E+00 -0.00000000000E+00 -0.21838685721E+03  0.21838685727E+03  0.50400000000E-02 0. -1.
    5000001    1    1    2    0    0 -0.24104708355E+03 -0.50295562639E+02 -0.28919905265E+01  0.31661128173E+03  0.19900000000E+03 0.  0.
   -5000001    1    1    2    0    0  0.24104708355E+03  0.50295562639E+02  0.36872881961E+03  0.48599926185E+03  0.19900000000E+03 0.  0.
<mgrwt>
<rscale>  0 0.71438582E+03</rscale>
<asrwt>0</asrwt>
<pdfrwt beam="1">  1        1 0.83460526E-01 0.71438582E+03</pdfrwt>
<pdfrwt beam="2">  1       -1 0.31198123E-01 0.71438582E+03</pdfrwt>
<totfact> 0.38029765E+02</totfact>
</mgrwt>
</event>
<event>
 4    1  0.6480558E-006  0.8104943E+03  0.7818608E-02  0.9544950E-01
         -1   -1    0    0    0  501 -0.00000000000E+00  0.00000000000E+00  0.17716958122E+03  0.17716958130E+03  0.50400000000E-02 0. -1.
          1   -1    0    0  501    0  0.00000000000E+00 -0.00000000000E+00 -0.92693829768E+03  0.92693829769E+03  0.50400000000E-02 0.  1.
    5000001    1    1    2    0    0  0.14199484232E+03 -0.32316635276E+03 -0.38172874097E+03  0.55670176799E+03  0.19900000000E+03 0.  0.
   -5000001    1    1    2    0    0 -0.14199484232E+03  0.32316635276E+03 -0.36803997549E+03  0.54740611100E+03  0.19900000000E+03 0.  0.
<mgrwt>
<rscale>  0 0.81049434E+03</rscale>
<asrwt>0</asrwt>
<pdfrwt beam="1">  1        1 0.13241975E+00 0.81049434E+03</pdfrwt>
<pdfrwt beam="2">  1       -1 0.25309941E-01 0.81049434E+03</pdfrwt>
<totfact> 0.27106325E+02</totfact>
</mgrwt>
</event>
