<event>
 4    1  0.4305113E-006  0.7235600E+03  0.7818608E-02  0.9677769E-01
         -1   -1    0    0    0  501 -0.00000000000E+00  0.00000000000E+00  0.19591392424E+03  0.19591392430E+03  0.50400000000E-02 0. -1.
          1   -1    0    0  501    0  0.00000000000E+00 -0.00000000000E+00 -0.66807289835E+03  0.66807289837E+03  0.50400000000E-02 0.  1.
   -5000001    1    1    2    0    0  0.20596453801E+03 -0.51101104635E+02 -0.41855106622E+03  0.53171205445E+03  0.25000000000E+03 0.  0.
    5000001    1    1    2    0    0 -0.20596453801E+03  0.51101104635E+02 -0.53607907900E+02  0.33227476823E+03  0.25000000000E+03 0.  0.
<mgrwt>
<rscale>  0 0.72356004E+03</rscale>
<asrwt>0</asrwt>
<pdfrwt beam="1">  1        1 0.10278044E+00 0.72356004E+03</pdfrwt>
<pdfrwt beam="2">  1       -1 0.30140604E-01 0.72356004E+03</pdfrwt>
<totfact> 0.29918536E+02</totfact>
</mgrwt>
</event>
<event>
 4    1  0.4305113E-006  0.9697980E+03  0.7818608E-02  0.9342304E-01
         -1   -1    0    0    0  501 -0.00000000000E+00  0.00000000000E+00  0.29209130861E+03  0.29209130865E+03  0.50400000000E-02 0.  1.
          1   -1    0    0  501    0  0.00000000000E+00 -0.00000000000E+00 -0.80497785957E+03  0.80497785959E+03  0.50400000000E-02 0. -1.
   -5000001    1    1    2    0    0 -0.27638883855E+03  0.76221470404E+02  0.83730375551E+02  0.38950132017E+03  0.25000000000E+03 0.  0.
    5000001    1    1    2    0    0  0.27638883855E+03 -0.76221470404E+02 -0.59661692652E+03  0.70756784807E+03  0.25000000000E+03 0.  0.
<mgrwt>
<rscale>  0 0.96979799E+03</rscale>
<asrwt>0</asrwt>
<pdfrwt beam="1">  1        1 0.12384275E+00 0.96979799E+03</pdfrwt>
<pdfrwt beam="2">  1       -1 0.44937125E-01 0.96979799E+03</pdfrwt>
<totfact> 0.10787384E+02</totfact>
</mgrwt>
</event>
<event>
 4    1  0.4305113E-006  0.9301923E+03  0.7818608E-02  0.9388607E-01
         -1   -1    0    0    0  501 -0.00000000000E+00  0.00000000000E+00  0.24343373753E+03  0.24343373758E+03  0.50400000000E-02 0. -1.
          1   -1    0    0  501    0  0.00000000000E+00 -0.00000000000E+00 -0.88859682728E+03  0.88859682729E+03  0.50400000000E-02 0.  1.
   -5000001    1    1    2    0    0 -0.20169216735E+02  0.39165340912E+03 -0.31782802465E+03  0.56330617202E+03  0.25000000000E+03 0.  0.
    5000001    1    1    2    0    0  0.20169216735E+02 -0.39165340912E+03 -0.32733506510E+03  0.56872439285E+03  0.25000000000E+03 0.  0.
<mgrwt>
<rscale>  0 0.93019234E+03</rscale>
<asrwt>0</asrwt>
<pdfrwt beam="1">  1        1 0.13670720E+00 0.93019234E+03</pdfrwt>
<pdfrwt beam="2">  1       -1 0.37451345E-01 0.93019234E+03</pdfrwt>
<totfact> 0.12835728E+02</totfact>
</mgrwt>
</event>
<event>
 4    1  0.4305113E-006  0.1069260E+04  0.7818608E-02  0.9235682E-01
         -1   -1    0    0    0  501 -0.00000000000E+00  0.00000000000E+00  0.65037551748E+03  0.65037551750E+03  0.50400000000E-02 0.  1.
          1   -1    0    0  501    0  0.00000000000E+00 -0.00000000000E+00 -0.43948331478E+03  0.43948331481E+03  0.50400000000E-02 0. -1.
   -5000001    1    1    2    0    0  0.21294396365E+02  0.24782670648E+03 -0.30411272723E+03  0.46567808476E+03  0.25000000000E+03 0.  0.
    5000001    1    1    2    0    0 -0.21294396365E+02 -0.24782670648E+03  0.51500492993E+03  0.62418074755E+03  0.25000000000E+03 0.  0.
<mgrwt>
<rscale>  0 0.10692599E+04</rscale>
<asrwt>0</asrwt>
<pdfrwt beam="1">  1        1 0.67612818E-01 0.10692599E+04</pdfrwt>
<pdfrwt beam="2">  1       -1 0.10005777E+00 0.10692599E+04</pdfrwt>
<totfact> 0.50276392E+01</totfact>
</mgrwt>
</event>
<event>
 4    1  0.4305113E-006  0.6579480E+03  0.7818608E-02  0.9791979E-01
         -1   -1    0    0    0  501 -0.00000000000E+00  0.00000000000E+00  0.30464497480E+02  0.30464497897E+02  0.50400000000E-02 0. -1.
          1   -1    0    0  501    0  0.00000000000E+00 -0.00000000000E+00 -0.35524596229E+04  0.35524596229E+04  0.50400000000E-02 0.  1.
   -5000001    1    1    2    0    0  0.20263526469E+03 -0.18376337360E+02 -0.14028623673E+04  0.14394170910E+04  0.25000000000E+03 0.  0.
    5000001    1    1    2    0    0 -0.20263526469E+03  0.18376337360E+02 -0.21191327581E+04  0.21435070298E+04  0.25000000000E+03 0.  0.
<mgrwt>
<rscale>  0 0.65794802E+03</rscale>
<asrwt>0</asrwt>
<pdfrwt beam="1">  1        1 0.54653192E+00 0.65794802E+03</pdfrwt>
<pdfrwt beam="2">  1       -1 0.46868486E-02 0.65794802E+03</pdfrwt>
<totfact> 0.50841221E+01</totfact>
</mgrwt>
</event>
<event>
 4    1  0.4305113E-006  0.6744619E+03  0.7818608E-02  0.9761931E-01
          1   -1    0    0  501    0  0.00000000000E+00  0.00000000000E+00  0.75625118838E+03  0.75625118840E+03  0.50400000000E-02 0. -1.
         -1   -1    0    0    0  501 -0.00000000000E+00 -0.00000000000E+00 -0.15037955215E+03  0.15037955223E+03  0.50400000000E-02 0.  1.
   -5000001    1    1    2    0    0 -0.35105549353E+01  0.21895131096E+03  0.37983594855E+03  0.50470520938E+03  0.25000000000E+03 0.  0.
    5000001    1    1    2    0    0  0.35105549353E+01 -0.21895131096E+03  0.22603568768E+03  0.40192553125E+03  0.25000000000E+03 0.  0.
<mgrwt>
<rscale>  0 0.67446190E+03</rscale>
<asrwt>0</asrwt>
<pdfrwt beam="1">  1        1 0.11634634E+00 0.67446190E+03</pdfrwt>
<pdfrwt beam="2">  1       -1 0.23135315E-01 0.67446190E+03</pdfrwt>
<totfact> 0.39092636E+02</totfact>
</mgrwt>
</event>
<event>
 4    1  0.4305113E-006  0.7009813E+03  0.7818608E-02  0.9715555E-01
          1   -1    0    0  501    0  0.00000000000E+00  0.00000000000E+00  0.25703795483E+04  0.25703795483E+04  0.50400000000E-02 0.  1.
         -1   -1    0    0    0  501 -0.00000000000E+00 -0.00000000000E+00 -0.47792046368E+02  0.47792046634E+02  0.50400000000E-02 0. -1.
   -5000001    1    1    2    0    0  0.10665454804E+03 -0.18782095347E+03  0.82425305982E+03  0.88800056858E+03  0.25000000000E+03 0.  0.
    5000001    1    1    2    0    0 -0.10665454804E+03  0.18782095347E+03  0.16983344421E+04  0.17301710263E+04  0.25000000000E+03 0.  0.
<mgrwt>
<rscale>  0 0.70098131E+03</rscale>
<asrwt>0</asrwt>
<pdfrwt beam="1">  1        1 0.39544317E+00 0.70098131E+03</pdfrwt>
<pdfrwt beam="2">  1       -1 0.73526195E-02 0.70098131E+03</pdfrwt>
<totfact> 0.12998987E+02</totfact>
</mgrwt>
</event>
<event>
 4    1  0.4305113E-006  0.1059506E+04  0.7818608E-02  0.9245584E-01
         -1   -1    0    0    0  501 -0.00000000000E+00  0.00000000000E+00  0.13894263049E+03  0.13894263058E+03  0.50400000000E-02 0. -1.
          1   -1    0    0  501    0  0.00000000000E+00 -0.00000000000E+00 -0.20198140288E+04  0.20198140288E+04  0.50400000000E-02 0.  1.
   -5000001    1    1    2    0    0  0.34277690335E+03  0.31188049699E+03 -0.10587663126E+04  0.11824768727E+04  0.25000000000E+03 0.  0.
    5000001    1    1    2    0    0 -0.34277690335E+03 -0.31188049699E+03 -0.82210508577E+03  0.97627978670E+03  0.25000000000E+03 0.  0.
<mgrwt>
<rscale>  0 0.10595061E+04</rscale>
<asrwt>0</asrwt>
<pdfrwt beam="1">  1        1 0.31074060E+00 0.10595061E+04</pdfrwt>
<pdfrwt beam="2">  1       -1 0.21375791E-01 0.10595061E+04</pdfrwt>
<totfact> 0.52986102E+01</totfact>
</mgrwt>
</event>
<event>
 4    1  0.4305113E-006  0.7451584E+03  0.7818608E-02  0.9642977E-01
         -1   -1    0    0    0  501 -0.00000000000E+00  0.00000000000E+00  0.72829992272E+03  0.72829992274E+03  0.50400000000E-02 0. -1.
          1   -1    0    0  501    0  0.00000000000E+00 -0.00000000000E+00 -0.19060177138E+03  0.19060177145E+03  0.50400000000E-02 0.  1.
   -5000001    1    1    2    0    0  0.42689176575E+02  0.26491611407E+03  0.18786920807E+03  0.41206522861E+03  0.25000000000E+03 0.  0.
    5000001    1    1    2    0    0 -0.42689176575E+02 -0.26491611407E+03  0.34982894327E+03  0.50683646557E+03  0.25000000000E+03 0.  0.
<mgrwt>
<rscale>  0 0.74515839E+03</rscale>
<asrwt>0</asrwt>
<pdfrwt beam="1">  1        1 0.29323349E-01 0.74515839E+03</pdfrwt>
<pdfrwt beam="2">  1       -1 0.11204614E+00 0.74515839E+03</pdfrwt>
<totfact> 0.11746678E+02</totfact>
</mgrwt>
</event>
<event>
 4    1  0.4305113E-006  0.7199742E+03  0.7818608E-02  0.9683671E-01
         -1   -1    0    0    0  501 -0.00000000000E+00  0.00000000000E+00  0.93919403476E+02  0.93919403611E+02  0.50400000000E-02 0. -1.
          1   -1    0    0  501    0  0.00000000000E+00 -0.00000000000E+00 -0.13798074944E+04  0.13798074944E+04  0.50400000000E-02 0.  1.
   -5000001    1    1    2    0    0  0.19321353034E+03 -0.15955967988E+03 -0.50871974316E+03  0.61974715557E+03  0.25000000000E+03 0.  0.
    5000001    1    1    2    0    0 -0.19321353034E+03  0.15955967988E+03 -0.77716834775E+03  0.85397974244E+03  0.25000000000E+03 0.  0.
<mgrwt>
<rscale>  0 0.71997416E+03</rscale>
<asrwt>0</asrwt>
<pdfrwt beam="1">  1        1 0.21227806E+00 0.71997416E+03</pdfrwt>
<pdfrwt beam="2">  1       -1 0.14449140E-01 0.71997416E+03</pdfrwt>
<totfact> 0.28249243E+02</totfact>
</mgrwt>
</event>
<event>
 4    1  0.4305113E-006  0.6312122E+03  0.7818608E-02  0.9842686E-01
          1   -1    0    0  501    0  0.00000000000E+00  0.00000000000E+00  0.23180130917E+04  0.23180130917E+04  0.50400000000E-02 0. -1.
         -1   -1    0    0    0  501 -0.00000000000E+00 -0.00000000000E+00 -0.42970946698E+02  0.42970946994E+02  0.50400000000E-02 0.  1.
   -5000001    1    1    2    0    0  0.11485713552E+03 -0.14831493971E+03  0.97372183122E+03  0.10226552144E+04  0.25000000000E+03 0.  0.
    5000001    1    1    2    0    0 -0.11485713552E+03  0.14831493971E+03  0.13013203138E+04  0.13383288244E+04  0.25000000000E+03 0.  0.
<mgrwt>
<rscale>  0 0.63121222E+03</rscale>
<asrwt>0</asrwt>
<pdfrwt beam="1">  1        1 0.35661750E+00 0.63121222E+03</pdfrwt>
<pdfrwt beam="2">  1       -1 0.66109130E-02 0.63121222E+03</pdfrwt>
<totfact> 0.22905403E+02</totfact>
</mgrwt>
</event>
<event>
 4    1  0.4305113E-006  0.9890729E+03  0.7818608E-02  0.9320611E-01
         -1   -1    0    0    0  501 -0.00000000000E+00  0.00000000000E+00  0.28218475043E+03  0.28218475047E+03  0.50400000000E-02 0. -1.
          1   -1    0    0  501    0  0.00000000000E+00 -0.00000000000E+00 -0.86668863623E+03  0.86668863624E+03  0.50400000000E-02 0.  1.
   -5000001    1    1    2    0    0  0.41299552733E+03  0.10719766532E+03 -0.28863958496E+03  0.57259886050E+03  0.25000000000E+03 0.  0.
    5000001    1    1    2    0    0 -0.41299552733E+03 -0.10719766532E+03 -0.29586430084E+03  0.57627452621E+03  0.25000000000E+03 0.  0.
<mgrwt>
<rscale>  0 0.98907293E+03</rscale>
<asrwt>0</asrwt>
<pdfrwt beam="1">  1        1 0.13333671E+00 0.98907293E+03</pdfrwt>
<pdfrwt beam="2">  1       -1 0.43413039E-01 0.98907293E+03</pdfrwt>
<totfact> 0.10179179E+02</totfact>
</mgrwt>
</event>
<event>
 4    1  0.4305113E-006  0.8726630E+03  0.7818608E-02  0.9460414E-01
          1   -1    0    0  501    0  0.00000000000E+00  0.00000000000E+00  0.61302422683E+03  0.61302422685E+03  0.50400000000E-02 0.  1.
         -1   -1    0    0    0  501 -0.00000000000E+00 -0.00000000000E+00 -0.31056712842E+03  0.31056712846E+03  0.50400000000E-02 0. -1.
   -5000001    1    1    2    0    0 -0.15800977239E+03 -0.32078499559E+03  0.15533741685E+03  0.46314124696E+03  0.25000000000E+03 0.  0.
    5000001    1    1    2    0    0  0.15800977239E+03  0.32078499559E+03  0.14711968156E+03  0.46045010834E+03  0.25000000000E+03 0.  0.
<mgrwt>
<rscale>  0 0.87266299E+03</rscale>
<asrwt>0</asrwt>
<pdfrwt beam="1">  1        1 0.94311420E-01 0.87266299E+03</pdfrwt>
<pdfrwt beam="2">  1       -1 0.47779558E-01 0.87266299E+03</pdfrwt>
<totfact> 0.14649912E+02</totfact>
</mgrwt>
</event>
<event>
 4    1  0.4305113E-006  0.6490608E+03  0.7818608E-02  0.9808543E-01
         -1   -1    0    0    0  501 -0.00000000000E+00  0.00000000000E+00  0.24338696175E+03  0.24338696180E+03  0.50400000000E-02 0.  1.
          1   -1    0    0  501    0  0.00000000000E+00 -0.00000000000E+00 -0.43272649188E+03  0.43272649191E+03  0.50400000000E-02 0. -1.
   -5000001    1    1    2    0    0  0.12203680007E+03 -0.16702926789E+03 -0.89135195217E+02  0.33650682003E+03  0.25000000000E+03 0.  0.
    5000001    1    1    2    0    0 -0.12203680007E+03  0.16702926789E+03 -0.10020433491E+03  0.33960663368E+03  0.25000000000E+03 0.  0.
<mgrwt>
<rscale>  0 0.64906082E+03</rscale>
<asrwt>0</asrwt>
<pdfrwt beam="1">  1        1 0.66573306E-01 0.64906082E+03</pdfrwt>
<pdfrwt beam="2">  1       -1 0.37444148E-01 0.64906082E+03</pdfrwt>
<totfact> 0.37548794E+02</totfact>
</mgrwt>
</event>
<event>
 4    1  0.4305113E-006  0.6278300E+03  0.7818608E-02  0.9849293E-01
         -1   -1    0    0    0  501 -0.00000000000E+00  0.00000000000E+00  0.71546757334E+02  0.71546757511E+02  0.50400000000E-02 0. -1.
          1   -1    0    0  501    0  0.00000000000E+00 -0.00000000000E+00 -0.13773178851E+04  0.13773178851E+04  0.50400000000E-02 0.  1.
   -5000001    1    1    2    0    0 -0.11067090466E+03 -0.71066528882E+02 -0.33693555830E+03  0.43968633265E+03  0.25000000000E+03 0.  0.
    5000001    1    1    2    0    0  0.11067090466E+03  0.71066528882E+02 -0.96883556945E+03  0.10091783100E+04  0.25000000000E+03 0.  0.
<mgrwt>
<rscale>  0 0.62783000E+03</rscale>
<asrwt>0</asrwt>
<pdfrwt beam="1">  1        1 0.21189504E+00 0.62783000E+03</pdfrwt>
<pdfrwt beam="2">  1       -1 0.11007194E-01 0.62783000E+03</pdfrwt>
<totfact> 0.44138573E+02</totfact>
</mgrwt>
</event>
<event>
 4    1  0.4305113E-006  0.5227227E+03  0.7818608E-02  0.1008012E+00
         -1   -1    0    0    0  501 -0.00000000000E+00  0.00000000000E+00  0.27854509499E+03  0.27854509503E+03  0.50400000000E-02 0. -1.
          1   -1    0    0  501    0  0.00000000000E+00 -0.00000000000E+00 -0.24523772468E+03  0.24523772474E+03  0.50400000000E-02 0.  1.
   -5000001    1    1    2    0    0 -0.74712613189E+02  0.90936542810E+01  0.28723703011E+02  0.26265894280E+03  0.25000000000E+03 0.  0.
    5000001    1    1    2    0    0  0.74712613189E+02 -0.90936542810E+01  0.45836672929E+01  0.26112387697E+03  0.25000000000E+03 0.  0.
<mgrwt>
<rscale>  0 0.52272274E+03</rscale>
<asrwt>0</asrwt>
<pdfrwt beam="1">  1        1 0.37728881E-01 0.52272274E+03</pdfrwt>
<pdfrwt beam="2">  1       -1 0.42853092E-01 0.52272274E+03</pdfrwt>
<totfact> 0.61715548E+02</totfact>
</mgrwt>
</event>
<event>
 4    1  0.4305113E-006  0.7233993E+03  0.7818608E-02  0.9678032E-01
          1   -1    0    0  501    0  0.00000000000E+00  0.00000000000E+00  0.47643064730E+03  0.47643064733E+03  0.50400000000E-02 0. -1.
         -1   -1    0    0    0  501 -0.00000000000E+00 -0.00000000000E+00 -0.27459742140E+03  0.27459742145E+03  0.50400000000E-02 0.  1.
   -5000001    1    1    2    0    0  0.21737408707E+03 -0.10029910494E+02 -0.49440599288E+02  0.33510664824E+03  0.25000000000E+03 0.  0.
    5000001    1    1    2    0    0 -0.21737408707E+03  0.10029910494E+02  0.25127382519E+03  0.41592142054E+03  0.25000000000E+03 0.  0.
<mgrwt>
<rscale>  0 0.72339927E+03</rscale>
<asrwt>0</asrwt>
<pdfrwt beam="1">  1        1 0.73297022E-01 0.72339927E+03</pdfrwt>
<pdfrwt beam="2">  1       -1 0.42245758E-01 0.72339927E+03</pdfrwt>
<totfact> 0.26421007E+02</totfact>
</mgrwt>
</event>
<event>
 4    1  0.4305113E-006  0.8635702E+03  0.7818608E-02  0.9472302E-01
         -1   -1    0    0    0  501 -0.00000000000E+00  0.00000000000E+00  0.77992354847E+02  0.77992355010E+02  0.50400000000E-02 0. -1.
          1   -1    0    0  501    0  0.00000000000E+00 -0.00000000000E+00 -0.23904697948E+04  0.23904697948E+04  0.50400000000E-02 0.  1.
   -5000001    1    1    2    0    0  0.24165087644E+03  0.24512835666E+03 -0.13673632042E+04  0.14320143817E+04  0.25000000000E+03 0.  0.
    5000001    1    1    2    0    0 -0.24165087644E+03 -0.24512835666E+03 -0.94511423581E+03  0.10364477681E+04  0.25000000000E+03 0.  0.
<mgrwt>
<rscale>  0 0.86357019E+03</rscale>
<asrwt>0</asrwt>
<pdfrwt beam="1">  1        1 0.36776453E+00 0.86357019E+03</pdfrwt>
<pdfrwt beam="2">  1       -1 0.11998826E-01 0.86357019E+03</pdfrwt>
<totfact> 0.78219180E+01</totfact>
</mgrwt>
</event>
<event>
 4    1  0.4305113E-006  0.6735083E+03  0.7818608E-02  0.9763641E-01
          1   -1    0    0  501    0  0.00000000000E+00  0.00000000000E+00  0.14838305824E+04  0.14838305824E+04  0.50400000000E-02 0.  1.
         -1   -1    0    0    0  501 -0.00000000000E+00 -0.00000000000E+00 -0.76426070961E+02  0.76426071127E+02  0.50400000000E-02 0. -1.
   -5000001    1    1    2    0    0 -0.46000008622E+02 -0.19088031729E+03  0.44623467165E+03  0.54788381844E+03  0.25000000000E+03 0.  0.
    5000001    1    1    2    0    0  0.46000008622E+02  0.19088031729E+03  0.96116983974E+03  0.10123728351E+04  0.25000000000E+03 0.  0.
<mgrwt>
<rscale>  0 0.67350825E+03</rscale>
<asrwt>0</asrwt>
<pdfrwt beam="1">  1        1 0.22828161E+00 0.67350825E+03</pdfrwt>
<pdfrwt beam="2">  1       -1 0.11757858E-01 0.67350825E+03</pdfrwt>
<totfact> 0.33465456E+02</totfact>
</mgrwt>
</event>
<event>
 4    1  0.4305113E-006  0.6774572E+03  0.7818608E-02  0.9756579E-01
          1   -1    0    0  501    0  0.00000000000E+00  0.00000000000E+00  0.15485550351E+03  0.15485550359E+03  0.50400000000E-02 0.  1.
         -1   -1    0    0    0  501 -0.00000000000E+00 -0.00000000000E+00 -0.74092983005E+03  0.74092983007E+03  0.50400000000E-02 0. -1.
   -5000001    1    1    2    0    0 -0.92954747498E+02 -0.18927111914E+03 -0.40961451827E+03  0.52416428264E+03  0.25000000000E+03 0.  0.
    5000001    1    1    2    0    0  0.92954747498E+02  0.18927111914E+03 -0.17645980827E+03  0.37162105102E+03  0.25000000000E+03 0.  0.
<mgrwt>
<rscale>  0 0.67745719E+03</rscale>
<asrwt>0</asrwt>
<pdfrwt beam="1">  1        1 0.23823924E-01 0.67745719E+03</pdfrwt>
<pdfrwt beam="2">  1       -1 0.11398920E+00 0.67745719E+03</pdfrwt>
<totfact> 0.14841410E+02</totfact>
</mgrwt>
</event>
<event>
 4    1  0.4305113E-006  0.1248932E+04  0.7818608E-02  0.9071073E-01
          1   -1    0    0  501    0  0.00000000000E+00  0.00000000000E+00  0.70547081357E+03  0.70547081359E+03  0.50400000000E-02 0.  1.
         -1   -1    0    0    0  501 -0.00000000000E+00 -0.00000000000E+00 -0.55276246277E+03  0.55276246279E+03  0.50400000000E-02 0. -1.
   -5000001    1    1    2    0    0 -0.53964511082E+03  0.13558186526E+03 -0.58276746847E+02  0.61277684930E+03  0.25000000000E+03 0.  0.
    5000001    1    1    2    0    0  0.53964511082E+03 -0.13558186526E+03  0.21098509765E+03  0.64545642707E+03  0.25000000000E+03 0.  0.
<mgrwt>
<rscale>  0 0.12489320E+04</rscale>
<asrwt>0</asrwt>
<pdfrwt beam="1">  1        1 0.10853397E+00 0.12489320E+04</pdfrwt>
<pdfrwt beam="2">  1       -1 0.85040379E-01 0.12489320E+04</pdfrwt>
<totfact> 0.36332703E+01</totfact>
</mgrwt>
</event>
<event>
 4    1  0.4305113E-006  0.7058066E+03  0.7818608E-02  0.9707353E-01
         -1   -1    0    0    0  501 -0.00000000000E+00  0.00000000000E+00  0.12410861285E+04  0.12410861286E+04  0.50400000000E-02 0. -1.
          1   -1    0    0  501    0  0.00000000000E+00 -0.00000000000E+00 -0.10034817451E+03  0.10034817463E+03  0.50400000000E-02 0.  1.
   -5000001    1    1    2    0    0 -0.11100876317E+03  0.21893369479E+03  0.49005290370E+03  0.60241742724E+03  0.25000000000E+03 0.  0.
    5000001    1    1    2    0    0  0.11100876317E+03 -0.21893369479E+03  0.65068505033E+03  0.73901687595E+03  0.25000000000E+03 0.  0.
<mgrwt>
<rscale>  0 0.70580657E+03</rscale>
<asrwt>0</asrwt>
<pdfrwt beam="1">  1        1 0.15438182E-01 0.70580657E+03</pdfrwt>
<pdfrwt beam="2">  1       -1 0.19093631E+00 0.70580657E+03</pdfrwt>
<totfact> 0.66147109E+01</totfact>
</mgrwt>
</event>
<event>
 4    1  0.4305113E-006  0.6266492E+03  0.7818608E-02  0.9851609E-01
          1   -1    0    0  501    0  0.00000000000E+00  0.00000000000E+00  0.39361892580E+03  0.39361892584E+03  0.50400000000E-02 0.  1.
         -1   -1    0    0    0  501 -0.00000000000E+00 -0.00000000000E+00 -0.24940954427E+03  0.24940954432E+03  0.50400000000E-02 0. -1.
   -5000001    1    1    2    0    0 -0.17008652568E+03  0.28983887354E+02  0.15094269815E+03  0.33919491457E+03  0.25000000000E+03 0.  0.
    5000001    1    1    2    0    0  0.17008652568E+03 -0.28983887354E+02 -0.67333166105E+01  0.30383355558E+03  0.25000000000E+03 0.  0.
<mgrwt>
<rscale>  0 0.62664924E+03</rscale>
<asrwt>0</asrwt>
<pdfrwt beam="1">  1        1 0.60556757E-01 0.62664924E+03</pdfrwt>
<pdfrwt beam="2">  1       -1 0.38370699E-01 0.62664924E+03</pdfrwt>
<totfact> 0.40774809E+02</totfact>
</mgrwt>
</event>
<event>
 4    1  0.4305113E-006  0.1409575E+04  0.7818608E-02  0.8946917E-01
         -1   -1    0    0    0  501 -0.00000000000E+00  0.00000000000E+00  0.28219415328E+03  0.28219415333E+03  0.50400000000E-02 0. -1.
          1   -1    0    0  501    0  0.00000000000E+00 -0.00000000000E+00 -0.17602263472E+04  0.17602263472E+04  0.50400000000E-02 0.  1.
   -5000001    1    1    2    0    0  0.61125610172E+03  0.24578429426E+03 -0.71948774308E+03  0.10070782262E+04  0.25000000000E+03 0.  0.
    5000001    1    1    2    0    0 -0.61125610172E+03 -0.24578429426E+03 -0.75854445083E+03  0.10353422744E+04  0.25000000000E+03 0.  0.
<mgrwt>
<rscale>  0 0.14095752E+04</rscale>
<asrwt>0</asrwt>
<pdfrwt beam="1">  1        1 0.27080405E+00 0.14095752E+04</pdfrwt>
<pdfrwt beam="2">  1       -1 0.43414486E-01 0.14095752E+04</pdfrwt>
<totfact> 0.22126483E+01</totfact>
</mgrwt>
</event>
<event>
 4    1  0.4305113E-006  0.6596461E+03  0.7818608E-02  0.9788845E-01
         -1   -1    0    0    0  501 -0.00000000000E+00  0.00000000000E+00  0.98863001125E+02  0.98863001254E+02  0.50400000000E-02 0. -1.
          1   -1    0    0  501    0  0.00000000000E+00 -0.00000000000E+00 -0.11003432686E+04  0.11003432686E+04  0.50400000000E-02 0.  1.
   -5000001    1    1    2    0    0 -0.11412489447E+03  0.17136089821E+03 -0.38729355266E+03  0.50486170870E+03  0.25000000000E+03 0.  0.
    5000001    1    1    2    0    0  0.11412489447E+03 -0.17136089821E+03 -0.61418671481E+03  0.69434456116E+03  0.25000000000E+03 0.  0.
<mgrwt>
<rscale>  0 0.65964608E+03</rscale>
<asrwt>0</asrwt>
<pdfrwt beam="1">  1        1 0.16928357E+00 0.65964608E+03</pdfrwt>
<pdfrwt beam="2">  1       -1 0.15209693E-01 0.65964608E+03</pdfrwt>
<totfact> 0.41367876E+02</totfact>
</mgrwt>
</event>
<event>
 4    1  0.4305113E-006  0.7071039E+03  0.7818608E-02  0.9705160E-01
          1   -1    0    0  501    0  0.00000000000E+00  0.00000000000E+00  0.23714197145E+03  0.23714197151E+03  0.50400000000E-02 0.  1.
         -1   -1    0    0    0  501 -0.00000000000E+00 -0.00000000000E+00 -0.52710617178E+03  0.52710617180E+03  0.50400000000E-02 0. -1.
   -5000001    1    1    2    0    0  0.20308309376E+03  0.14025207940E+03 -0.10194440053E+03  0.36579509230E+03  0.25000000000E+03 0.  0.
    5000001    1    1    2    0    0 -0.20308309376E+03 -0.14025207940E+03 -0.18801979979E+03  0.39845305101E+03  0.25000000000E+03 0.  0.
<mgrwt>
<rscale>  0 0.70710394E+03</rscale>
<asrwt>0</asrwt>
<pdfrwt beam="1">  1        1 0.36483380E-01 0.70710394E+03</pdfrwt>
<pdfrwt beam="2">  1       -1 0.81093257E-01 0.70710394E+03</pdfrwt>
<totfact> 0.18320384E+02</totfact>
</mgrwt>
</event>
<event>
 4    1  0.4305113E-006  0.1395351E+04  0.7818608E-02  0.8957190E-01
         -1   -1    0    0    0  501 -0.00000000000E+00  0.00000000000E+00  0.72263827073E+03  0.72263827075E+03  0.50400000000E-02 0.  1.
          1   -1    0    0  501    0  0.00000000000E+00 -0.00000000000E+00 -0.67357552257E+03  0.67357552258E+03  0.50400000000E-02 0. -1.
   -5000001    1    1    2    0    0  0.44268169887E+03 -0.33903833419E+03 -0.31233283500E+03  0.68626953771E+03  0.25000000000E+03 0.  0.
    5000001    1    1    2    0    0 -0.44268169887E+03  0.33903833419E+03  0.36139558317E+03  0.70994425563E+03  0.25000000000E+03 0.  0.
<mgrwt>
<rscale>  0 0.13953515E+04</rscale>
<asrwt>0</asrwt>
<pdfrwt beam="1">  1        1 0.10362700E+00 0.13953515E+04</pdfrwt>
<pdfrwt beam="2">  1       -1 0.11117512E+00 0.13953515E+04</pdfrwt>
<totfact> 0.20970658E+01</totfact>
</mgrwt>
</event>
<event>
 4    1  0.4305113E-006  0.5528784E+03  0.7818608E-02  0.1000830E+00
         -1   -1    0    0    0  501 -0.00000000000E+00  0.00000000000E+00  0.14468596854E+03  0.14468596863E+03  0.50400000000E-02 0.  1.
          1   -1    0    0  501    0  0.00000000000E+00 -0.00000000000E+00 -0.52816882320E+03  0.52816882323E+03  0.50400000000E-02 0. -1.
   -5000001    1    1    2    0    0  0.73018306125E+02 -0.87167952108E+02 -0.23000825555E+03  0.35823696421E+03  0.25000000000E+03 0.  0.
    5000001    1    1    2    0    0 -0.73018306125E+02  0.87167952108E+02 -0.15347459911E+03  0.31461782765E+03  0.25000000000E+03 0.  0.
<mgrwt>
<rscale>  0 0.55287835E+03</rscale>
<asrwt>0</asrwt>
<pdfrwt beam="1">  1        1 0.81256741E-01 0.55287835E+03</pdfrwt>
<pdfrwt beam="2">  1       -1 0.22259380E-01 0.55287835E+03</pdfrwt>
<totfact> 0.70663625E+02</totfact>
</mgrwt>
</event>
<event>
 4    1  0.4305113E-006  0.1224142E+04  0.7818608E-02  0.9091983E-01
          1   -1    0    0  501    0  0.00000000000E+00  0.00000000000E+00  0.10691018053E+04  0.10691018053E+04  0.50400000000E-02 0.  1.
         -1   -1    0    0    0  501 -0.00000000000E+00 -0.00000000000E+00 -0.35041665112E+03  0.35041665115E+03  0.50400000000E-02 0. -1.
   -5000001    1    1    2    0    0 -0.22739350324E+02  0.54435112820E+03  0.21592714247E+03  0.63714971528E+03  0.25000000000E+03 0.  0.
    5000001    1    1    2    0    0  0.22739350324E+02 -0.54435112820E+03  0.50275801168E+03  0.78236874115E+03  0.25000000000E+03 0.  0.
<mgrwt>
<rscale>  0 0.12241423E+04</rscale>
<asrwt>0</asrwt>
<pdfrwt beam="1">  1        1 0.16447720E+00 0.12241423E+04</pdfrwt>
<pdfrwt beam="2">  1       -1 0.53910254E-01 0.12241423E+04</pdfrwt>
<totfact> 0.45912918E+01</totfact>
</mgrwt>
</event>
<event>
 4    1  0.4305113E-006  0.6057762E+03  0.7818608E-02  0.9893494E-01
         -1   -1    0    0    0  501 -0.00000000000E+00  0.00000000000E+00  0.52777007576E+02  0.52777007817E+02  0.50400000000E-02 0. -1.
          1   -1    0    0  501    0  0.00000000000E+00 -0.00000000000E+00 -0.17382798041E+04  0.17382798041E+04  0.50400000000E-02 0.  1.
   -5000001    1    1    2    0    0 -0.15754173368E+03 -0.63444914857E+02 -0.78387422329E+03  0.84012109425E+03  0.25000000000E+03 0.  0.
    5000001    1    1    2    0    0  0.15754173368E+03  0.63444914857E+02 -0.90162857326E+03  0.95093571770E+03  0.25000000000E+03 0.  0.
<mgrwt>
<rscale>  0 0.60577622E+03</rscale>
<asrwt>0</asrwt>
<pdfrwt beam="1">  1        1 0.26742762E+00 0.60577622E+03</pdfrwt>
<pdfrwt beam="2">  1       -1 0.81195410E-02 0.60577622E+03</pdfrwt>
<totfact> 0.40617583E+02</totfact>
</mgrwt>
</event>
<event>
 4    1  0.4305113E-006  0.8427213E+03  0.7818608E-02  0.9500159E-01
          1   -1    0    0  501    0  0.00000000000E+00  0.00000000000E+00  0.23850190700E+04  0.23850190700E+04  0.50400000000E-02 0.  1.
         -1   -1    0    0    0  501 -0.00000000000E+00 -0.00000000000E+00 -0.74441669842E+02  0.74441670013E+02  0.50400000000E-02 0. -1.
   -5000001    1    1    2    0    0 -0.29088125884E+03 -0.64012846586E+02  0.68167457182E+03  0.78478645066E+03  0.25000000000E+03 0.  0.
    5000001    1    1    2    0    0  0.29088125884E+03  0.64012846586E+02  0.16289028284E+04  0.16746742894E+04  0.25000000000E+03 0.  0.
<mgrwt>
<rscale>  0 0.84272131E+03</rscale>
<asrwt>0</asrwt>
<pdfrwt beam="1">  1        1 0.36692593E+00 0.84272131E+03</pdfrwt>
<pdfrwt beam="2">  1       -1 0.11452567E-01 0.84272131E+03</pdfrwt>
<totfact> 0.85180514E+01</totfact>
</mgrwt>
</event>
<event>
 4    1  0.4305113E-006  0.6386798E+03  0.7818608E-02  0.9828256E-01
          1   -1    0    0  501    0  0.00000000000E+00  0.00000000000E+00  0.19569863102E+04  0.19569863102E+04  0.50400000000E-02 0.  1.
         -1   -1    0    0    0  501 -0.00000000000E+00 -0.00000000000E+00 -0.52109695527E+02  0.52109695771E+02  0.50400000000E-02 0. -1.
   -5000001    1    1    2    0    0 -0.14728566822E+03  0.13324117560E+03  0.93473214539E+03  0.98776032648E+03  0.25000000000E+03 0.  0.
    5000001    1    1    2    0    0  0.14728566822E+03 -0.13324117560E+03  0.97014446930E+03  0.10213356795E+04  0.25000000000E+03 0.  0.
<mgrwt>
<rscale>  0 0.63867977E+03</rscale>
<asrwt>0</asrwt>
<pdfrwt beam="1">  1        1 0.30107479E+00 0.63867977E+03</pdfrwt>
<pdfrwt beam="2">  1       -1 0.80168769E-02 0.63867977E+03</pdfrwt>
<totfact> 0.29548075E+02</totfact>
</mgrwt>
</event>
<event>
 4    1  0.4305113E-006  0.6427876E+03  0.7818608E-02  0.9820408E-01
          1   -1    0    0  501    0  0.00000000000E+00  0.00000000000E+00  0.10839435497E+04  0.10839435497E+04  0.50400000000E-02 0.  1.
         -1   -1    0    0    0  501 -0.00000000000E+00 -0.00000000000E+00 -0.95294611453E+02  0.95294611587E+02  0.50400000000E-02 0. -1.
   -5000001    1    1    2    0    0 -0.18446597926E+03  0.53332424205E+01  0.34373509662E+03  0.46336805849E+03  0.25000000000E+03 0.  0.
    5000001    1    1    2    0    0  0.18446597926E+03 -0.53332424205E+01  0.64491384166E+03  0.71587010284E+03  0.25000000000E+03 0.  0.
<mgrwt>
<rscale>  0 0.64278761E+03</rscale>
<asrwt>0</asrwt>
<pdfrwt beam="1">  1        1 0.16676054E+00 0.64278761E+03</pdfrwt>
<pdfrwt beam="2">  1       -1 0.14660710E-01 0.64278761E+03</pdfrwt>
<totfact> 0.45202341E+02</totfact>
</mgrwt>
</event>
<event>
 4    1  0.4305113E-006  0.1578437E+04  0.7818608E-02  0.8833906E-01
          1   -1    0    0  501    0  0.00000000000E+00  0.00000000000E+00  0.62186629693E+03  0.62186629695E+03  0.50400000000E-02 0.  1.
         -1   -1    0    0    0  501 -0.00000000000E+00 -0.00000000000E+00 -0.10016067459E+04  0.10016067459E+04  0.50400000000E-02 0. -1.
   -5000001    1    1    2    0    0  0.72928765521E+03 -0.13361002538E+03 -0.83710163854E+02  0.78690502251E+03  0.25000000000E+03 0.  0.
    5000001    1    1    2    0    0 -0.72928765521E+03  0.13361002538E+03 -0.29603028507E+03  0.83656802031E+03  0.25000000000E+03 0.  0.
<mgrwt>
<rscale>  0 0.15784365E+04</rscale>
<asrwt>0</asrwt>
<pdfrwt beam="1">  1        1 0.95671738E-01 0.15784365E+04</pdfrwt>
<pdfrwt beam="2">  1       -1 0.15409335E+00 0.15784365E+04</pdfrwt>
<totfact> 0.10134057E+01</totfact>
</mgrwt>
</event>
<event>
 4    1  0.4305113E-006  0.1356334E+04  0.7818608E-02  0.8986048E-01
         -1   -1    0    0    0  501 -0.00000000000E+00  0.00000000000E+00  0.45080396806E+03  0.45080396808E+03  0.50400000000E-02 0. -1.
          1   -1    0    0  501    0  0.00000000000E+00 -0.00000000000E+00 -0.10201998960E+04  0.10201998960E+04  0.50400000000E-02 0.  1.
   -5000001    1    1    2    0    0  0.51829730097E+03  0.35329006594E+03 -0.35298291629E+03  0.76193365989E+03  0.25000000000E+03 0.  0.
    5000001    1    1    2    0    0 -0.51829730097E+03 -0.35329006594E+03 -0.21641301167E+03  0.70907020421E+03  0.25000000000E+03 0.  0.
<mgrwt>
<rscale>  0 0.13563335E+04</rscale>
<asrwt>0</asrwt>
<pdfrwt beam="1">  1        1 0.15695383E+00 0.13563335E+04</pdfrwt>
<pdfrwt beam="2">  1       -1 0.69354457E-01 0.13563335E+04</pdfrwt>
<totfact> 0.30025844E+01</totfact>
</mgrwt>
</event>
<event>
 4    1  0.4305113E-006  0.8082992E+03  0.7818608E-02  0.9548081E-01
          1   -1    0    0  501    0  0.00000000000E+00  0.00000000000E+00  0.16292417611E+04  0.16292417611E+04  0.50400000000E-02 0.  1.
         -1   -1    0    0    0  501 -0.00000000000E+00 -0.00000000000E+00 -0.10025332948E+03  0.10025332961E+03  0.50400000000E-02 0. -1.
   -5000001    1    1    2    0    0  0.28129625342E+03 -0.14448842715E+03  0.82622749036E+03  0.91932385676E+03  0.25000000000E+03 0.  0.
    5000001    1    1    2    0    0 -0.28129625342E+03  0.14448842715E+03  0.70276094121E+03  0.81017123392E+03  0.25000000000E+03 0.  0.
<mgrwt>
<rscale>  0 0.80829923E+03</rscale>
<asrwt>0</asrwt>
<pdfrwt beam="1">  1        1 0.25065255E+00 0.80829923E+03</pdfrwt>
<pdfrwt beam="2">  1       -1 0.15423591E-01 0.80829923E+03</pdfrwt>
<totfact> 0.17030797E+02</totfact>
</mgrwt>
</event>
<event>
 4    1  0.4305113E-006  0.7741715E+03  0.7818608E-02  0.9598174E-01
         -1   -1    0    0    0  501 -0.00000000000E+00  0.00000000000E+00  0.45625962766E+02  0.45625963044E+02  0.50400000000E-02 0. -1.
          1   -1    0    0  501    0  0.00000000000E+00 -0.00000000000E+00 -0.32839935309E+04  0.32839935309E+04  0.50400000000E-02 0.  1.
   -5000001    1    1    2    0    0  0.90921576372E+02  0.27752593336E+03 -0.14245485827E+04  0.14755087398E+04  0.25000000000E+03 0.  0.
    5000001    1    1    2    0    0 -0.90921576372E+02 -0.27752593336E+03 -0.18138189854E+04  0.18541107541E+04  0.25000000000E+03 0.  0.
<mgrwt>
<rscale>  0 0.77417147E+03</rscale>
<asrwt>0</asrwt>
<pdfrwt beam="1">  1        1 0.50522959E+00 0.77417147E+03</pdfrwt>
<pdfrwt beam="2">  1       -1 0.70193815E-02 0.77417147E+03</pdfrwt>
<totfact> 0.42973974E+01</totfact>
</mgrwt>
</event>
<event>
 4    1  0.4305113E-006  0.1433322E+04  0.7818608E-02  0.8930046E-01
         -1   -1    0    0    0  501 -0.00000000000E+00  0.00000000000E+00  0.36744605243E+03  0.36744605246E+03  0.50400000000E-02 0. -1.
          1   -1    0    0  501    0  0.00000000000E+00 -0.00000000000E+00 -0.13977636305E+04  0.13977636305E+04  0.50400000000E-02 0.  1.
   -5000001    1    1    2    0    0 -0.46954356078E+03  0.28677230902E+03 -0.98957516024E+03  0.11595121864E+04  0.25000000000E+03 0.  0.
    5000001    1    1    2    0    0  0.46954356078E+03 -0.28677230902E+03 -0.40742417815E+02  0.60569749653E+03  0.25000000000E+03 0.  0.
<mgrwt>
<rscale>  0 0.14333216E+04</rscale>
<asrwt>0</asrwt>
<pdfrwt beam="1">  1        1 0.21504056E+00 0.14333216E+04</pdfrwt>
<pdfrwt beam="2">  1       -1 0.56530163E-01 0.14333216E+04</pdfrwt>
<totfact> 0.23747303E+01</totfact>
</mgrwt>
</event>
<event>
 4    1  0.4305113E-006  0.6107715E+03  0.7818608E-02  0.9883307E-01
         -1   -1    0    0    0  501 -0.00000000000E+00  0.00000000000E+00  0.13100364678E+03  0.13100364688E+03  0.50400000000E-02 0. -1.
          1   -1    0    0  501    0  0.00000000000E+00 -0.00000000000E+00 -0.71189202009E+03  0.71189202011E+03  0.50400000000E-02 0.  1.
   -5000001    1    1    2    0    0  0.11450904399E+03 -0.11700567313E+03 -0.20362372168E+03  0.36161480712E+03  0.25000000000E+03 0.  0.
    5000001    1    1    2    0    0 -0.11450904399E+03  0.11700567313E+03 -0.37726465163E+03  0.48128085987E+03  0.25000000000E+03 0.  0.
<mgrwt>
<rscale>  0 0.61077148E+03</rscale>
<asrwt>0</asrwt>
<pdfrwt beam="1">  1        1 0.10952185E+00 0.61077148E+03</pdfrwt>
<pdfrwt beam="2">  1       -1 0.20154408E-01 0.61077148E+03</pdfrwt>
<totfact> 0.54165195E+02</totfact>
</mgrwt>
</event>
<event>
 4    1  0.4305113E-006  0.6449884E+03  0.7818608E-02  0.9816229E-01
         -1   -1    0    0    0  501 -0.00000000000E+00  0.00000000000E+00  0.95531474918E+02  0.95531475051E+02  0.50400000000E-02 0. -1.
          1   -1    0    0  501    0  0.00000000000E+00 -0.00000000000E+00 -0.10886726727E+04  0.10886726727E+04  0.50400000000E-02 0.  1.
   -5000001    1    1    2    0    0 -0.28704001319E+02  0.18019286117E+03 -0.33022053825E+03  0.45259141705E+03  0.25000000000E+03 0.  0.
    5000001    1    1    2    0    0  0.28704001319E+02 -0.18019286117E+03 -0.66292065955E+03  0.73161273073E+03  0.25000000000E+03 0.  0.
<mgrwt>
<rscale>  0 0.64498839E+03</rscale>
<asrwt>0</asrwt>
<pdfrwt beam="1">  1        1 0.16748809E+00 0.64498839E+03</pdfrwt>
<pdfrwt beam="2">  1       -1 0.14697151E-01 0.64498839E+03</pdfrwt>
<totfact> 0.44651478E+02</totfact>
</mgrwt>
</event>
<event>
 4    1  0.4305113E-006  0.7158746E+03  0.7818608E-02  0.9690463E-01
         -1   -1    0    0    0  501 -0.00000000000E+00  0.00000000000E+00  0.34400566139E+03  0.34400566143E+03  0.50400000000E-02 0. -1.
          1   -1    0    0  501    0  0.00000000000E+00 -0.00000000000E+00 -0.37243311168E+03  0.37243311171E+03  0.50400000000E-02 0.  1.
   -5000001    1    1    2    0    0 -0.75356650170E+02 -0.24284840210E+03 -0.45304715948E+02  0.35945304062E+03  0.25000000000E+03 0.  0.
    5000001    1    1    2    0    0  0.75356650170E+02  0.24284840210E+03  0.16877265662E+02  0.35698573252E+03  0.25000000000E+03 0.  0.
<mgrwt>
<rscale>  0 0.71587457E+03</rscale>
<asrwt>0</asrwt>
<pdfrwt beam="1">  1        1 0.57297402E-01 0.71587457E+03</pdfrwt>
<pdfrwt beam="2">  1       -1 0.52923948E-01 0.71587457E+03</pdfrwt>
<totfact> 0.24071482E+02</totfact>
</mgrwt>
</event>
<event>
 4    1  0.4305113E-006  0.7650767E+03  0.7818608E-02  0.9611990E-01
          1   -1    0    0  501    0  0.00000000000E+00  0.00000000000E+00  0.31837914783E+03  0.31837914787E+03  0.50400000000E-02 0.  1.
         -1   -1    0    0    0  501 -0.00000000000E+00 -0.00000000000E+00 -0.45962683533E+03  0.45962683535E+03  0.50400000000E-02 0. -1.
   -5000001    1    1    2    0    0  0.25070659738E+03  0.14332242793E+03 -0.49281459091E+02  0.38512826244E+03  0.25000000000E+03 0.  0.
    5000001    1    1    2    0    0 -0.25070659738E+03 -0.14332242793E+03 -0.91966228407E+02  0.39287772078E+03  0.25000000000E+03 0.  0.
<mgrwt>
<rscale>  0 0.76507673E+03</rscale>
<asrwt>0</asrwt>
<pdfrwt beam="1">  1        1 0.48981407E-01 0.76507673E+03</pdfrwt>
<pdfrwt beam="2">  1       -1 0.70711821E-01 0.76507673E+03</pdfrwt>
<totfact> 0.16609853E+02</totfact>
</mgrwt>
</event>
<event>
 4    1  0.4305113E-006  0.1356193E+04  0.7818608E-02  0.8986153E-01
          1   -1    0    0  501    0  0.00000000000E+00  0.00000000000E+00  0.42752245854E+03  0.42752245857E+03  0.50400000000E-02 0. -1.
         -1   -1    0    0    0  501 -0.00000000000E+00 -0.00000000000E+00 -0.10755342323E+04  0.10755342323E+04  0.50400000000E-02 0.  1.
   -5000001    1    1    2    0    0  0.30921436967E+03  0.52339447356E+03 -0.13935072163E+03  0.67191809395E+03  0.25000000000E+03 0.  0.
    5000001    1    1    2    0    0 -0.30921436967E+03 -0.52339447356E+03 -0.50866105215E+03  0.83113859695E+03  0.25000000000E+03 0.  0.
<mgrwt>
<rscale>  0 0.13561933E+04</rscale>
<asrwt>0</asrwt>
<pdfrwt beam="1">  1        1 0.65772686E-01 0.13561933E+04</pdfrwt>
<pdfrwt beam="2">  1       -1 0.16546680E+00 0.13561933E+04</pdfrwt>
<totfact> 0.14272225E+01</totfact>
</mgrwt>
</event>
<event>
 4    1  0.4305113E-006  0.8229513E+03  0.7818608E-02  0.9527378E-01
          1   -1    0    0  501    0  0.00000000000E+00  0.00000000000E+00  0.15708830280E+04  0.15708830280E+04  0.50400000000E-02 0.  1.
         -1   -1    0    0    0  501 -0.00000000000E+00 -0.00000000000E+00 -0.10778156454E+03  0.10778156466E+03  0.50400000000E-02 0. -1.
   -5000001    1    1    2    0    0 -0.19076064555E+03  0.17446609148E+03  0.32366931606E+03  0.48382834469E+03  0.25000000000E+03 0.  0.
    5000001    1    1    2    0    0  0.19076064555E+03 -0.17446609148E+03  0.11394321474E+04  0.11948362480E+04  0.25000000000E+03 0.  0.
<mgrwt>
<rscale>  0 0.82295135E+03</rscale>
<asrwt>0</asrwt>
<pdfrwt beam="1">  1        1 0.24167430E+00 0.82295135E+03</pdfrwt>
<pdfrwt beam="2">  1       -1 0.16581780E-01 0.82295135E+03</pdfrwt>
<totfact> 0.16554882E+02</totfact>
</mgrwt>
</event>
<event>
 4    1  0.4305113E-006  0.8212336E+03  0.7818608E-02  0.9529781E-01
         -1   -1    0    0    0  501 -0.00000000000E+00  0.00000000000E+00  0.42026389757E+03  0.42026389760E+03  0.50400000000E-02 0. -1.
          1   -1    0    0  501    0  0.00000000000E+00 -0.00000000000E+00 -0.40119112106E+03  0.40119112109E+03  0.50400000000E-02 0.  1.
   -5000001    1    1    2    0    0 -0.27276653951E+03 -0.51406812781E+02  0.18005786534E+03  0.41468672555E+03  0.25000000000E+03 0.  0.
    5000001    1    1    2    0    0  0.27276653951E+03  0.51406812781E+02 -0.16098508883E+03  0.40676829314E+03  0.25000000000E+03 0.  0.
<mgrwt>
<rscale>  0 0.82123357E+03</rscale>
<asrwt>0</asrwt>
<pdfrwt beam="1">  1        1 0.61721711E-01 0.82123357E+03</pdfrwt>
<pdfrwt beam="2">  1       -1 0.64655984E-01 0.82123357E+03</pdfrwt>
<totfact> 0.14662031E+02</totfact>
</mgrwt>
</event>
<event>
 4    1  0.4305113E-006  0.5749962E+03  0.7818608E-02  0.9958683E-01
          1   -1    0    0  501    0  0.00000000000E+00  0.00000000000E+00  0.15173917807E+04  0.15173917807E+04  0.50400000000E-02 0.  1.
         -1   -1    0    0    0  501 -0.00000000000E+00 -0.00000000000E+00 -0.54471858287E+02  0.54471858520E+02  0.50400000000E-02 0. -1.
   -5000001    1    1    2    0    0 -0.95227409520E+02  0.23664617122E+02  0.45098139510E+03  0.52489283892E+03  0.25000000000E+03 0.  0.
    5000001    1    1    2    0    0  0.95227409520E+02 -0.23664617122E+02  0.10119385273E+04  0.10469708003E+04  0.25000000000E+03 0.  0.
<mgrwt>
<rscale>  0 0.57499617E+03</rscale>
<asrwt>0</asrwt>
<pdfrwt beam="1">  1        1 0.23344489E+00 0.57499617E+03</pdfrwt>
<pdfrwt beam="2">  1       -1 0.83802858E-02 0.57499617E+03</pdfrwt>
<totfact> 0.54537196E+02</totfact>
</mgrwt>
</event>
<event>
 4    1  0.4305113E-006  0.6779265E+03  0.7818608E-02  0.9755744E-01
          1   -1    0    0  501    0  0.00000000000E+00  0.00000000000E+00  0.13367688288E+04  0.13367688288E+04  0.50400000000E-02 0.  1.
         -1   -1    0    0    0  501 -0.00000000000E+00 -0.00000000000E+00 -0.85950610022E+02  0.85950610170E+02  0.50400000000E-02 0. -1.
   -5000001    1    1    2    0    0 -0.22530569824E+03 -0.33470192421E+02  0.67295068765E+03  0.75315704833E+03  0.25000000000E+03 0.  0.
    5000001    1    1    2    0    0  0.22530569824E+03  0.33470192421E+02  0.57786753114E+03  0.66956239066E+03  0.25000000000E+03 0.  0.
<mgrwt>
<rscale>  0 0.67792653E+03</rscale>
<asrwt>0</asrwt>
<pdfrwt beam="1">  1        1 0.20565675E+00 0.67792653E+03</pdfrwt>
<pdfrwt beam="2">  1       -1 0.13223170E-01 0.67792653E+03</pdfrwt>
<totfact> 0.35027727E+02</totfact>
</mgrwt>
</event>
<event>
 4    1  0.4305113E-006  0.7665753E+03  0.7818608E-02  0.9609699E-01
         -1   -1    0    0    0  501 -0.00000000000E+00  0.00000000000E+00  0.68907293305E+02  0.68907293489E+02  0.50400000000E-02 0. -1.
          1   -1    0    0  501    0  0.00000000000E+00 -0.00000000000E+00 -0.21319867286E+04  0.21319867286E+04  0.50400000000E-02 0.  1.
   -5000001    1    1    2    0    0 -0.27032441005E+03  0.53052985159E+02 -0.12965435088E+04  0.13488569147E+04  0.25000000000E+03 0.  0.
    5000001    1    1    2    0    0  0.27032441005E+03 -0.53052985159E+02 -0.76653592644E+03  0.85203710743E+03  0.25000000000E+03 0.  0.
<mgrwt>
<rscale>  0 0.76657533E+03</rscale>
<asrwt>0</asrwt>
<pdfrwt beam="1">  1        1 0.32799791E+00 0.76657533E+03</pdfrwt>
<pdfrwt beam="2">  1       -1 0.10601124E-01 0.76657533E+03</pdfrwt>
<totfact> 0.14374886E+02</totfact>
</mgrwt>
</event>
<event>
 4    1  0.4305113E-006  0.1010933E+04  0.7818608E-02  0.9296635E-01
         -1   -1    0    0    0  501 -0.00000000000E+00  0.00000000000E+00  0.10160145359E+04  0.10160145359E+04  0.50400000000E-02 0.  1.
          1   -1    0    0  501    0  0.00000000000E+00 -0.00000000000E+00 -0.25146897615E+03  0.25146897620E+03  0.50400000000E-02 0. -1.
   -5000001    1    1    2    0    0 -0.13683625906E+03 -0.17214711806E+03  0.85909926836E+03  0.92136330779E+03  0.25000000000E+03 0.  0.
    5000001    1    1    2    0    0  0.13683625906E+03  0.17214711806E+03 -0.94553708575E+02  0.34612020435E+03  0.25000000000E+03 0.  0.
<mgrwt>
<rscale>  0 0.10109325E+04</rscale>
<asrwt>0</asrwt>
<pdfrwt beam="1">  1        1 0.38687534E-01 0.10109325E+04</pdfrwt>
<pdfrwt beam="2">  1       -1 0.15630993E+00 0.10109325E+04</pdfrwt>
<totfact> 0.34492688E+01</totfact>
</mgrwt>
</event>
<event>
 4    1  0.4305113E-006  0.9399040E+03  0.7818608E-02  0.9377030E-01
         -1   -1    0    0    0  501 -0.00000000000E+00  0.00000000000E+00  0.11836057933E+03  0.11836057944E+03  0.50400000000E-02 0. -1.
          1   -1    0    0  501    0  0.00000000000E+00 -0.00000000000E+00 -0.18659496973E+04  0.18659496973E+04  0.50400000000E-02 0.  1.
   -5000001    1    1    2    0    0 -0.20088922514E+03 -0.34254562336E+03 -0.81952019378E+03  0.94435551191E+03  0.25000000000E+03 0.  0.
    5000001    1    1    2    0    0  0.20088922514E+03  0.34254562336E+03 -0.92806892419E+03  0.10399547648E+04  0.25000000000E+03 0.  0.
<mgrwt>
<rscale>  0 0.93990401E+03</rscale>
<asrwt>0</asrwt>
<pdfrwt beam="1">  1        1 0.28706916E+00 0.93990401E+03</pdfrwt>
<pdfrwt beam="2">  1       -1 0.18209321E-01 0.93990401E+03</pdfrwt>
<totfact> 0.88814270E+01</totfact>
</mgrwt>
</event>
<event>
 4    1  0.4305113E-006  0.1024434E+04  0.7818608E-02  0.9282144E-01
          1   -1    0    0  501    0  0.00000000000E+00  0.00000000000E+00  0.13610206387E+04  0.13610206387E+04  0.50400000000E-02 0. -1.
         -1   -1    0    0    0  501 -0.00000000000E+00 -0.00000000000E+00 -0.19277178523E+03  0.19277178529E+03  0.50400000000E-02 0.  1.
   -5000001    1    1    2    0    0 -0.40386217690E+03  0.18141179314E+03  0.67825329395E+03  0.84766881940E+03  0.25000000000E+03 0.  0.
    5000001    1    1    2    0    0  0.40386217690E+03 -0.18141179314E+03  0.48999555951E+03  0.70612360459E+03  0.25000000000E+03 0.  0.
<mgrwt>
<rscale>  0 0.10244342E+04</rscale>
<asrwt>0</asrwt>
<pdfrwt beam="1">  1        1 0.20938778E+00 0.10244342E+04</pdfrwt>
<pdfrwt beam="2">  1       -1 0.29657199E-01 0.10244342E+04</pdfrwt>
<totfact> 0.85264065E+01</totfact>
</mgrwt>
</event>
<event>
 4    1  0.4305113E-006  0.8536037E+03  0.7818608E-02  0.9485513E-01
         -1   -1    0    0    0  501 -0.00000000000E+00  0.00000000000E+00  0.29416462930E+03  0.29416462934E+03  0.50400000000E-02 0. -1.
          1   -1    0    0  501    0  0.00000000000E+00 -0.00000000000E+00 -0.61924450456E+03  0.61924450458E+03  0.50400000000E-02 0.  1.
   -5000001    1    1    2    0    0 -0.10609707922E+03  0.15722335122E+03  0.14700978090E+03  0.34653664751E+03  0.25000000000E+03 0.  0.
    5000001    1    1    2    0    0  0.10609707922E+03 -0.15722335122E+03 -0.47208965617E+03  0.56687248641E+03  0.25000000000E+03 0.  0.
<mgrwt>
<rscale>  0 0.85360373E+03</rscale>
<asrwt>0</asrwt>
<pdfrwt beam="1">  1        1 0.95268385E-01 0.85360373E+03</pdfrwt>
<pdfrwt beam="2">  1       -1 0.45256097E-01 0.85360373E+03</pdfrwt>
<totfact> 0.15996483E+02</totfact>
</mgrwt>
</event>
<event>
 4    1  0.4305113E-006  0.6392840E+03  0.7818608E-02  0.9827097E-01
         -1   -1    0    0    0  501 -0.00000000000E+00  0.00000000000E+00  0.12639088498E+03  0.12639088508E+03  0.50400000000E-02 0. -1.
          1   -1    0    0  501    0  0.00000000000E+00 -0.00000000000E+00 -0.80837323644E+03  0.80837323645E+03  0.50400000000E-02 0.  1.
   -5000001    1    1    2    0    0 -0.37612547729E+02 -0.12234301166E+03 -0.11785042632E+03  0.30458371466E+03  0.25000000000E+03 0.  0.
    5000001    1    1    2    0    0  0.37612547729E+02  0.12234301166E+03 -0.56413192514E+03  0.63018040688E+03  0.25000000000E+03 0.  0.
<mgrwt>
<rscale>  0 0.63928400E+03</rscale>
<asrwt>0</asrwt>
<pdfrwt beam="1">  1        1 0.12436511E+00 0.63928400E+03</pdfrwt>
<pdfrwt beam="2">  1       -1 0.19444752E-01 0.63928400E+03</pdfrwt>
<totfact> 0.47141012E+02</totfact>
</mgrwt>
</event>
<event>
 4    1  0.4305113E-006  0.5849976E+03  0.7818608E-02  0.9937030E-01
         -1   -1    0    0    0  501 -0.00000000000E+00  0.00000000000E+00  0.20404063914E+03  0.20404063920E+03  0.50400000000E-02 0.  1.
          1   -1    0    0  501    0  0.00000000000E+00 -0.00000000000E+00 -0.41930639846E+03  0.41930639849E+03  0.50400000000E-02 0. -1.
   -5000001    1    1    2    0    0  0.10182349684E+03  0.12782255654E+02 -0.22688049196E+03  0.35285431583E+03  0.25000000000E+03 0.  0.
    5000001    1    1    2    0    0 -0.10182349684E+03 -0.12782255654E+02  0.11614732630E+02  0.27049272186E+03  0.25000000000E+03 0.  0.
<mgrwt>
<rscale>  0 0.58499759E+03</rscale>
<asrwt>0</asrwt>
<pdfrwt beam="1">  1        1 0.64508676E-01 0.58499759E+03</pdfrwt>
<pdfrwt beam="2">  1       -1 0.31390868E-01 0.58499759E+03</pdfrwt>
<totfact> 0.53600881E+02</totfact>
</mgrwt>
</event>
<event>
 4    1  0.4305113E-006  0.5625330E+03  0.7818608E-02  0.9986339E-01
         -1   -1    0    0    0  501 -0.00000000000E+00  0.00000000000E+00  0.43788559795E+02  0.43788560085E+02  0.50400000000E-02 0.  1.
          1   -1    0    0  501    0  0.00000000000E+00 -0.00000000000E+00 -0.18066557076E+04  0.18066557077E+04  0.50400000000E-02 0. -1.
   -5000001    1    1    2    0    0  0.11741940938E+03 -0.46857803663E+02 -0.96385998880E+03  0.10037475028E+04  0.25000000000E+03 0.  0.
    5000001    1    1    2    0    0 -0.11741940938E+03  0.46857803663E+02 -0.79900715906E+03  0.84669676490E+03  0.25000000000E+03 0.  0.
<mgrwt>
<rscale>  0 0.56253303E+03</rscale>
<asrwt>0</asrwt>
<pdfrwt beam="1">  1        1 0.27794697E+00 0.56253303E+03</pdfrwt>
<pdfrwt beam="2">  1       -1 0.67367029E-02 0.56253303E+03</pdfrwt>
<totfact> 0.49034499E+02</totfact>
</mgrwt>
</event>
<event>
 4    1  0.4305113E-006  0.6619925E+03  0.7818608E-02  0.9784533E-01
         -1   -1    0    0    0  501 -0.00000000000E+00  0.00000000000E+00  0.11376319898E+03  0.11376319909E+03  0.50400000000E-02 0. -1.
          1   -1    0    0  501    0  0.00000000000E+00 -0.00000000000E+00 -0.96304019232E+03  0.96304019233E+03  0.50400000000E-02 0.  1.
   -5000001    1    1    2    0    0 -0.11474712790E+02  0.99077911846E+02 -0.11128732973E+03  0.29126100221E+03  0.25000000000E+03 0.  0.
    5000001    1    1    2    0    0  0.11474712790E+02 -0.99077911846E+02 -0.73798966361E+03  0.78554238921E+03  0.25000000000E+03 0.  0.
<mgrwt>
<rscale>  0 0.66199255E+03</rscale>
<asrwt>0</asrwt>
<pdfrwt beam="1">  1        1 0.14816002E+00 0.66199255E+03</pdfrwt>
<pdfrwt beam="2">  1       -1 0.17502031E-01 0.66199255E+03</pdfrwt>
<totfact> 0.41858920E+02</totfact>
</mgrwt>
</event>
<event>
 4    1  0.4305113E-006  0.5432269E+03  0.7818608E-02  0.1003074E+00
          1   -1    0    0  501    0  0.00000000000E+00  0.00000000000E+00  0.10721728076E+04  0.10721728076E+04  0.50400000000E-02 0.  1.
         -1   -1    0    0    0  501 -0.00000000000E+00 -0.00000000000E+00 -0.68807815090E+02  0.68807815275E+02  0.50400000000E-02 0. -1.
   -5000001    1    1    2    0    0 -0.84856474388E+02 -0.28578278092E+02  0.62154255369E+03  0.67589384172E+03  0.25000000000E+03 0.  0.
    5000001    1    1    2    0    0  0.84856474388E+02  0.28578278092E+02  0.38182243877E+03  0.46508678112E+03  0.25000000000E+03 0.  0.
<mgrwt>
<rscale>  0 0.54322691E+03</rscale>
<asrwt>0</asrwt>
<pdfrwt beam="1">  1        1 0.16494965E+00 0.54322691E+03</pdfrwt>
<pdfrwt beam="2">  1       -1 0.10585819E-01 0.54322691E+03</pdfrwt>
<totfact> 0.77992129E+02</totfact>
</mgrwt>
</event>
<event>
 4    1  0.4305113E-006  0.8883648E+03  0.7818608E-02  0.9440244E-01
         -1   -1    0    0    0  501 -0.00000000000E+00  0.00000000000E+00  0.65640391897E+03  0.65640391899E+03  0.50400000000E-02 0. -1.
          1   -1    0    0  501    0  0.00000000000E+00 -0.00000000000E+00 -0.30057406949E+03  0.30057406953E+03  0.50400000000E-02 0.  1.
   -5000001    1    1    2    0    0  0.18615574764E+02 -0.32569624089E+03  0.35936887582E+03  0.54595839573E+03  0.25000000000E+03 0.  0.
    5000001    1    1    2    0    0 -0.18615574764E+02  0.32569624089E+03 -0.35390263463E+01  0.41101959279E+03  0.25000000000E+03 0.  0.
<mgrwt>
<rscale>  0 0.88836478E+03</rscale>
<asrwt>0</asrwt>
<pdfrwt beam="1">  1        1 0.46242165E-01 0.88836478E+03</pdfrwt>
<pdfrwt beam="2">  1       -1 0.10098522E+00 0.88836478E+03</pdfrwt>
<totfact> 0.82235400E+01</totfact>
</mgrwt>
</event>
<event>
 4    1  0.4305113E-006  0.6673677E+03  0.7818608E-02  0.9774725E-01
         -1   -1    0    0    0  501 -0.00000000000E+00  0.00000000000E+00  0.14095343135E+03  0.14095343144E+03  0.50400000000E-02 0. -1.
          1   -1    0    0  501    0  0.00000000000E+00 -0.00000000000E+00 -0.78994122880E+03  0.78994122881E+03  0.50400000000E-02 0.  1.
   -5000001    1    1    2    0    0  0.13752991531E+03 -0.23557867594E+02 -0.56356538600E+03  0.63211976320E+03  0.25000000000E+03 0.  0.
    5000001    1    1    2    0    0 -0.13752991531E+03  0.23557867594E+02 -0.85422411453E+02  0.29877489705E+03  0.25000000000E+03 0.  0.
<mgrwt>
<rscale>  0 0.66736775E+03</rscale>
<asrwt>0</asrwt>
<pdfrwt beam="1">  1        1 0.12152942E+00 0.66736775E+03</pdfrwt>
<pdfrwt beam="2">  1       -1 0.21685144E-01 0.66736775E+03</pdfrwt>
<totfact> 0.40724164E+02</totfact>
</mgrwt>
</event>
<event>
 4    1  0.4305113E-006  0.7766780E+03  0.7818608E-02  0.9594402E-01
         -1   -1    0    0    0  501 -0.00000000000E+00  0.00000000000E+00  0.36043811137E+03  0.36043811141E+03  0.50400000000E-02 0. -1.
          1   -1    0    0  501    0  0.00000000000E+00 -0.00000000000E+00 -0.41839968393E+03  0.41839968396E+03  0.50400000000E-02 0.  1.
   -5000001    1    1    2    0    0 -0.13681845396E+03 -0.19017105316E+03  0.15434682785E+03  0.37577554746E+03  0.25000000000E+03 0.  0.
    5000001    1    1    2    0    0  0.13681845396E+03  0.19017105316E+03 -0.21230840040E+03  0.40306224790E+03  0.25000000000E+03 0.  0.
<mgrwt>
<rscale>  0 0.77667803E+03</rscale>
<asrwt>0</asrwt>
<pdfrwt beam="1">  1        1 0.64369182E-01 0.77667803E+03</pdfrwt>
<pdfrwt beam="2">  1       -1 0.55452017E-01 0.77667803E+03</pdfrwt>
<totfact> 0.18809532E+02</totfact>
</mgrwt>
</event>
<event>
 4    1  0.4305113E-006  0.5318854E+03  0.7818608E-02  0.1005776E+00
         -1   -1    0    0    0  501 -0.00000000000E+00  0.00000000000E+00  0.28036109271E+03  0.28036109276E+03  0.50400000000E-02 0.  1.
          1   -1    0    0  501    0  0.00000000000E+00 -0.00000000000E+00 -0.25226581945E+03  0.25226581950E+03  0.50400000000E-02 0. -1.
   -5000001    1    1    2    0    0  0.63251679130E+02 -0.63550760994E+02  0.27706545319E+02  0.26703394314E+03  0.25000000000E+03 0.  0.
    5000001    1    1    2    0    0 -0.63251679130E+02  0.63550760994E+02  0.38872793722E+00  0.26559296912E+03  0.25000000000E+03 0.  0.
<mgrwt>
<rscale>  0 0.53188540E+03</rscale>
<asrwt>0</asrwt>
<pdfrwt beam="1">  1        1 0.38810126E-01 0.53188540E+03</pdfrwt>
<pdfrwt beam="2">  1       -1 0.43132476E-01 0.53188540E+03</pdfrwt>
<totfact> 0.58804746E+02</totfact>
</mgrwt>
</event>
<event>
 4    1  0.4305113E-006  0.5896711E+03  0.7818608E-02  0.9927070E-01
         -1   -1    0    0    0  501 -0.00000000000E+00  0.00000000000E+00  0.41339029234E+02  0.41339029541E+02  0.50400000000E-02 0. -1.
          1   -1    0    0  501    0  0.00000000000E+00 -0.00000000000E+00 -0.21028070035E+04  0.21028070035E+04  0.50400000000E-02 0.  1.
   -5000001    1    1    2    0    0  0.72779359165E+02 -0.13809114318E+03 -0.10593656055E+04  0.10996006025E+04  0.25000000000E+03 0.  0.
    5000001    1    1    2    0    0 -0.72779359165E+02  0.13809114318E+03 -0.10021023687E+04  0.10445454305E+04  0.25000000000E+03 0.  0.
<mgrwt>
<rscale>  0 0.58967110E+03</rscale>
<asrwt>0</asrwt>
<pdfrwt beam="1">  1        1 0.32350869E+00 0.58967110E+03</pdfrwt>
<pdfrwt beam="2">  1       -1 0.63598523E-02 0.58967110E+03</pdfrwt>
<totfact> 0.33997504E+02</totfact>
</mgrwt>
</event>
<event>
 4    1  0.4305113E-006  0.7855857E+03  0.7818608E-02  0.9581119E-01
          1   -1    0    0  501    0  0.00000000000E+00  0.00000000000E+00  0.16004999133E+04  0.16004999134E+04  0.50400000000E-02 0.  1.
         -1   -1    0    0    0  501 -0.00000000000E+00 -0.00000000000E+00 -0.96398775348E+02  0.96398775479E+02  0.50400000000E-02 0. -1.
   -5000001    1    1    2    0    0 -0.30260169891E+03 -0.11621528350E+02  0.73232622064E+03  0.83096602911E+03  0.25000000000E+03 0.  0.
    5000001    1    1    2    0    0  0.30260169891E+03  0.11621528350E+02  0.77177491736E+03  0.86593265972E+03  0.25000000000E+03 0.  0.
<mgrwt>
<rscale>  0 0.78558572E+03</rscale>
<asrwt>0</asrwt>
<pdfrwt beam="1">  1        1 0.24623072E+00 0.78558572E+03</pdfrwt>
<pdfrwt beam="2">  1       -1 0.14830583E-01 0.78558572E+03</pdfrwt>
<totfact> 0.19019876E+02</totfact>
</mgrwt>
</event>
<event>
 4    1  0.4305113E-006  0.6305885E+03  0.7818608E-02  0.9843901E-01
         -1   -1    0    0    0  501 -0.00000000000E+00  0.00000000000E+00  0.19305259993E+03  0.19305259999E+03  0.50400000000E-02 0. -1.
          1   -1    0    0  501    0  0.00000000000E+00 -0.00000000000E+00 -0.51493984163E+03  0.51493984166E+03  0.50400000000E-02 0.  1.
   -5000001    1    1    2    0    0  0.16471866373E+02 -0.10338219136E+03  0.19924448905E+02  0.27176494170E+03  0.25000000000E+03 0.  0.
    5000001    1    1    2    0    0 -0.16471866373E+02  0.10338219136E+03 -0.34181169061E+03  0.43622749995E+03  0.25000000000E+03 0.  0.
<mgrwt>
<rscale>  0 0.63058854E+03</rscale>
<asrwt>0</asrwt>
<pdfrwt beam="1">  1        1 0.79221514E-01 0.63058854E+03</pdfrwt>
<pdfrwt beam="2">  1       -1 0.29700400E-01 0.63058854E+03</pdfrwt>
<totfact> 0.44673689E+02</totfact>
</mgrwt>
</event>
<event>
 4    1  0.4305113E-006  0.7473838E+03  0.7818608E-02  0.9639464E-01
          1   -1    0    0  501    0  0.00000000000E+00  0.00000000000E+00  0.12889834063E+04  0.12889834063E+04  0.50400000000E-02 0.  1.
         -1   -1    0    0    0  501 -0.00000000000E+00 -0.00000000000E+00 -0.10833779875E+03  0.10833779887E+03  0.50400000000E-02 0. -1.
   -5000001    1    1    2    0    0 -0.47029648619E+02  0.25371137794E+03  0.39815772555E+03  0.53629360015E+03  0.25000000000E+03 0.  0.
    5000001    1    1    2    0    0  0.47029648619E+02 -0.25371137794E+03  0.78248788199E+03  0.86102760502E+03  0.25000000000E+03 0.  0.
<mgrwt>
<rscale>  0 0.74738377E+03</rscale>
<asrwt>0</asrwt>
<pdfrwt beam="1">  1        1 0.19830514E+00 0.74738377E+03</pdfrwt>
<pdfrwt beam="2">  1       -1 0.16667354E-01 0.74738377E+03</pdfrwt>
<totfact> 0.25874766E+02</totfact>
</mgrwt>
</event>
<event>
 4    1  0.4305113E-006  0.7593791E+03  0.7818608E-02  0.9620750E-01
          1   -1    0    0  501    0  0.00000000000E+00  0.00000000000E+00  0.15053420070E+03  0.15053420078E+03  0.50400000000E-02 0.  1.
         -1   -1    0    0    0  501 -0.00000000000E+00 -0.00000000000E+00 -0.95768374720E+03  0.95768374721E+03  0.50400000000E-02 0. -1.
   -5000001    1    1    2    0    0 -0.12420127841E+03 -0.40677310522E+02 -0.32699813128E+02  0.28398922326E+03  0.25000000000E+03 0.  0.
    5000001    1    1    2    0    0  0.12420127841E+03  0.40677310522E+02 -0.77444973337E+03  0.82422872473E+03  0.25000000000E+03 0.  0.
<mgrwt>
<rscale>  0 0.75937911E+03</rscale>
<asrwt>0</asrwt>
<pdfrwt beam="1">  1        1 0.23159108E-01 0.75937911E+03</pdfrwt>
<pdfrwt beam="2">  1       -1 0.14733596E+00 0.75937911E+03</pdfrwt>
<totfact> 0.80388363E+01</totfact>
</mgrwt>
</event>
<event>
 4    1  0.4305113E-006  0.5591414E+03  0.7818608E-02  0.9993999E-01
         -1   -1    0    0    0  501 -0.00000000000E+00  0.00000000000E+00  0.11151632121E+03  0.11151632132E+03  0.50400000000E-02 0.  1.
          1   -1    0    0  501    0  0.00000000000E+00 -0.00000000000E+00 -0.70088204813E+03  0.70088204815E+03  0.50400000000E-02 0. -1.
   -5000001    1    1    2    0    0 -0.32336681975E+02  0.45666391171E+02 -0.45731280090E+03  0.52418134090E+03  0.25000000000E+03 0.  0.
    5000001    1    1    2    0    0  0.32336681975E+02 -0.45666391171E+02 -0.13205292603E+03  0.28821702857E+03  0.25000000000E+03 0.  0.
<mgrwt>
<rscale>  0 0.55914144E+03</rscale>
<asrwt>0</asrwt>
<pdfrwt beam="1">  1        1 0.10782801E+00 0.55914144E+03</pdfrwt>
<pdfrwt beam="2">  1       -1 0.17156357E-01 0.55914144E+03</pdfrwt>
<totfact> 0.72424206E+02</totfact>
</mgrwt>
</event>
<event>
 4    1  0.4305113E-006  0.9639914E+03  0.7818608E-02  0.9348945E-01
          1   -1    0    0  501    0  0.00000000000E+00  0.00000000000E+00  0.82758983355E+03  0.82758983357E+03  0.50400000000E-02 0.  1.
         -1   -1    0    0    0  501 -0.00000000000E+00 -0.00000000000E+00 -0.28071859235E+03  0.28071859239E+03  0.50400000000E-02 0. -1.
   -5000001    1    1    2    0    0  0.40465827230E+02 -0.38934709873E+03  0.42152586977E+03  0.62722619951E+03  0.25000000000E+03 0.  0.
    5000001    1    1    2    0    0 -0.40465827230E+02  0.38934709873E+03  0.12534537143E+03  0.48108222645E+03  0.25000000000E+03 0.  0.
<mgrwt>
<rscale>  0 0.96399140E+03</rscale>
<asrwt>0</asrwt>
<pdfrwt beam="1">  1        1 0.12732151E+00 0.96399140E+03</pdfrwt>
<pdfrwt beam="2">  1       -1 0.43187477E-01 0.96399140E+03</pdfrwt>
<totfact> 0.11107261E+02</totfact>
</mgrwt>
</event>
<event>
 4    1  0.4305113E-006  0.1095275E+04  0.7818608E-02  0.9209809E-01
         -1   -1    0    0    0  501 -0.00000000000E+00  0.00000000000E+00  0.42286636664E+03  0.42286636667E+03  0.50400000000E-02 0. -1.
          1   -1    0    0  501    0  0.00000000000E+00 -0.00000000000E+00 -0.70922390558E+03  0.70922390559E+03  0.50400000000E-02 0.  1.
   -5000001    1    1    2    0    0  0.35849543830E+03  0.32993605884E+03 -0.14885460234E+03  0.56748081452E+03  0.25000000000E+03 0.  0.
    5000001    1    1    2    0    0 -0.35849543830E+03 -0.32993605884E+03 -0.13750293660E+03  0.56460945775E+03  0.25000000000E+03 0.  0.
<mgrwt>
<rscale>  0 0.10952752E+04</rscale>
<asrwt>0</asrwt>
<pdfrwt beam="1">  1        1 0.10911137E+00 0.10952752E+04</pdfrwt>
<pdfrwt beam="2">  1       -1 0.65056364E-01 0.10952752E+04</pdfrwt>
<totfact> 0.63782565E+01</totfact>
</mgrwt>
</event>
<event>
 4    1  0.4305113E-006  0.1765709E+04  0.7818608E-02  0.8724750E-01
          1   -1    0    0  501    0  0.00000000000E+00  0.00000000000E+00  0.70613131121E+03  0.70613131123E+03  0.50400000000E-02 0.  1.
         -1   -1    0    0    0  501 -0.00000000000E+00 -0.00000000000E+00 -0.11038064394E+04  0.11038064395E+04  0.50400000000E-02 0. -1.
   -5000001    1    1    2    0    0 -0.52029940232E+03 -0.63475980111E+03  0.14463235273E+02  0.85810294157E+03  0.25000000000E+03 0.  0.
    5000001    1    1    2    0    0  0.52029940232E+03  0.63475980111E+03 -0.41213836351E+03  0.95183480911E+03  0.25000000000E+03 0.  0.
<mgrwt>
<rscale>  0 0.17657092E+04</rscale>
<asrwt>0</asrwt>
<pdfrwt beam="1">  1        1 0.10863559E+00 0.17657092E+04</pdfrwt>
<pdfrwt beam="2">  1       -1 0.16981638E+00 0.17657092E+04</pdfrwt>
<totfact> 0.62795509E+00</totfact>
</mgrwt>
</event>
<event>
 4    1  0.4305113E-006  0.7745589E+03  0.7818608E-02  0.9597590E-01
          1   -1    0    0  501    0  0.00000000000E+00  0.00000000000E+00  0.16241372958E+04  0.16241372958E+04  0.50400000000E-02 0. -1.
         -1   -1    0    0    0  501 -0.00000000000E+00 -0.00000000000E+00 -0.92347722283E+02  0.92347722420E+02  0.50400000000E-02 0.  1.
   -5000001    1    1    2    0    0 -0.17216686038E+03 -0.22576279443E+03  0.58214557912E+03  0.69426489358E+03  0.25000000000E+03 0.  0.
    5000001    1    1    2    0    0  0.17216686038E+03  0.22576279443E+03  0.94964399443E+03  0.10222201247E+04  0.25000000000E+03 0.  0.
<mgrwt>
<rscale>  0 0.77455892E+03</rscale>
<asrwt>0</asrwt>
<pdfrwt beam="1">  1        1 0.24986724E+00 0.77455892E+03</pdfrwt>
<pdfrwt beam="2">  1       -1 0.14207344E-01 0.77455892E+03</pdfrwt>
<totfact> 0.19670765E+02</totfact>
</mgrwt>
</event>
<event>
 4    1  0.4305113E-006  0.9155652E+03  0.7818608E-02  0.9406331E-01
          1   -1    0    0  501    0  0.00000000000E+00  0.00000000000E+00  0.28032957663E+03  0.28032957667E+03  0.50400000000E-02 0.  1.
         -1   -1    0    0    0  501 -0.00000000000E+00 -0.00000000000E+00 -0.74756615056E+03  0.74756615058E+03  0.50400000000E-02 0. -1.
   -5000001    1    1    2    0    0 -0.11391968292E+03 -0.10814782320E+03  0.15914870923E+03  0.33541311463E+03  0.25000000000E+03 0.  0.
    5000001    1    1    2    0    0  0.11391968292E+03  0.10814782320E+03 -0.62638528316E+03  0.69248261262E+03  0.25000000000E+03 0.  0.
<mgrwt>
<rscale>  0 0.91556519E+03</rscale>
<asrwt>0</asrwt>
<pdfrwt beam="1">  1        1 0.43127627E-01 0.91556519E+03</pdfrwt>
<pdfrwt beam="2">  1       -1 0.11501018E+00 0.91556519E+03</pdfrwt>
<totfact> 0.66241489E+01</totfact>
</mgrwt>
</event>
<event>
 4    1  0.4305113E-006  0.6190021E+03  0.7818608E-02  0.9866749E-01
         -1   -1    0    0    0  501 -0.00000000000E+00  0.00000000000E+00  0.10410220662E+03  0.10410220674E+03  0.50400000000E-02 0.  1.
          1   -1    0    0  501    0  0.00000000000E+00 -0.00000000000E+00 -0.92016202543E+03  0.92016202545E+03  0.50400000000E-02 0. -1.
   -5000001    1    1    2    0    0 -0.14185739742E+03 -0.46688517111E+02 -0.23458143213E+03  0.37394088722E+03  0.25000000000E+03 0.  0.
    5000001    1    1    2    0    0  0.14185739742E+03  0.46688517111E+02 -0.58147838668E+03  0.65032334497E+03  0.25000000000E+03 0.  0.
<mgrwt>
<rscale>  0 0.61900209E+03</rscale>
<asrwt>0</asrwt>
<pdfrwt beam="1">  1        1 0.14156338E+00 0.61900209E+03</pdfrwt>
<pdfrwt beam="2">  1       -1 0.16015725E-01 0.61900209E+03</pdfrwt>
<totfact> 0.52444489E+02</totfact>
</mgrwt>
</event>
<event>
 4    1  0.4305113E-006  0.8456988E+03  0.7818608E-02  0.9496128E-01
         -1   -1    0    0    0  501 -0.00000000000E+00  0.00000000000E+00  0.95223474101E+03  0.95223474102E+03  0.50400000000E-02 0. -1.
          1   -1    0    0  501    0  0.00000000000E+00 -0.00000000000E+00 -0.18777052736E+03  0.18777052743E+03  0.50400000000E-02 0.  1.
   -5000001    1    1    2    0    0  0.33951532612E+03 -0.18642533103E+02  0.34699221160E+03  0.54637148134E+03  0.25000000000E+03 0.  0.
    5000001    1    1    2    0    0 -0.33951532612E+03  0.18642533103E+02  0.41747200204E+03  0.59363378711E+03  0.25000000000E+03 0.  0.
<mgrwt>
<rscale>  0 0.84569881E+03</rscale>
<asrwt>0</asrwt>
<pdfrwt beam="1">  1        1 0.28887773E-01 0.84569881E+03</pdfrwt>
<pdfrwt beam="2">  1       -1 0.14649765E+00 0.84569881E+03</pdfrwt>
<totfact> 0.60772632E+01</totfact>
</mgrwt>
</event>
<event>
 4    1  0.4305113E-006  0.7008480E+03  0.7818608E-02  0.9715783E-01
          1   -1    0    0  501    0  0.00000000000E+00  0.00000000000E+00  0.66416822048E+03  0.66416822050E+03  0.50400000000E-02 0.  1.
         -1   -1    0    0    0  501 -0.00000000000E+00 -0.00000000000E+00 -0.18488835288E+03  0.18488835295E+03  0.50400000000E-02 0. -1.
   -5000001    1    1    2    0    0  0.13009524801E+03 -0.20797811317E+03  0.25276073719E+03  0.43193478602E+03  0.25000000000E+03 0.  0.
    5000001    1    1    2    0    0 -0.13009524801E+03  0.20797811317E+03  0.22651913041E+03  0.41712178743E+03  0.25000000000E+03 0.  0.
<mgrwt>
<rscale>  0 0.70084797E+03</rscale>
<asrwt>0</asrwt>
<pdfrwt beam="1">  1        1 0.10217973E+00 0.70084797E+03</pdfrwt>
<pdfrwt beam="2">  1       -1 0.28444362E-01 0.70084797E+03</pdfrwt>
<totfact> 0.33407687E+02</totfact>
</mgrwt>
</event>
<event>
 4    1  0.4305113E-006  0.7264088E+03  0.7818608E-02  0.9673106E-01
         -1   -1    0    0    0  501 -0.00000000000E+00  0.00000000000E+00  0.78934058647E+03  0.78934058649E+03  0.50400000000E-02 0. -1.
          1   -1    0    0  501    0  0.00000000000E+00 -0.00000000000E+00 -0.16712359485E+03  0.16712359492E+03  0.50400000000E-02 0.  1.
   -5000001    1    1    2    0    0  0.21221521227E+03  0.13215663393E+03  0.20160219739E+03  0.40699400266E+03  0.25000000000E+03 0.  0.
    5000001    1    1    2    0    0 -0.21221521227E+03 -0.13215663393E+03  0.42061479423E+03  0.54947017875E+03  0.25000000000E+03 0.  0.
<mgrwt>
<rscale>  0 0.72640880E+03</rscale>
<asrwt>0</asrwt>
<pdfrwt beam="1">  1        1 0.25711322E-01 0.72640880E+03</pdfrwt>
<pdfrwt beam="2">  1       -1 0.12143701E+00 0.72640880E+03</pdfrwt>
<totfact> 0.11498892E+02</totfact>
</mgrwt>
</event>
<event>
 4    1  0.4305113E-006  0.6830150E+03  0.7818608E-02  0.9746728E-01
          1   -1    0    0  501    0  0.00000000000E+00  0.00000000000E+00  0.76345466743E+03  0.76345466745E+03  0.50400000000E-02 0.  1.
         -1   -1    0    0    0  501 -0.00000000000E+00 -0.00000000000E+00 -0.15276268288E+03  0.15276268296E+03  0.50400000000E-02 0. -1.
   -5000001    1    1    2    0    0 -0.14953837387E+03  0.17347635870E+03  0.25050114117E+03  0.42155259935E+03  0.25000000000E+03 0.  0.
    5000001    1    1    2    0    0  0.14953837387E+03 -0.17347635870E+03  0.36019084338E+03  0.49466475106E+03  0.25000000000E+03 0.  0.
<mgrwt>
<rscale>  0 0.68301503E+03</rscale>
<asrwt>0</asrwt>
<pdfrwt beam="1">  1        1 0.11745456E+00 0.68301503E+03</pdfrwt>
<pdfrwt beam="2">  1       -1 0.23501952E-01 0.68301503E+03</pdfrwt>
<totfact> 0.37496687E+02</totfact>
</mgrwt>
</event>
<event>
 4    1  0.4305113E-006  0.8653471E+03  0.7818608E-02  0.9469967E-01
         -1   -1    0    0    0  501 -0.00000000000E+00  0.00000000000E+00  0.42478524590E+03  0.42478524593E+03  0.50400000000E-02 0. -1.
          1   -1    0    0  501    0  0.00000000000E+00 -0.00000000000E+00 -0.44070837915E+03  0.44070837918E+03  0.50400000000E-02 0.  1.
   -5000001    1    1    2    0    0  0.35298711884E+03 -0.92233650157E+01 -0.12592761589E+02  0.43283201611E+03  0.25000000000E+03 0.  0.
    5000001    1    1    2    0    0 -0.35298711884E+03  0.92233650157E+01 -0.33303716663E+01  0.43266160900E+03  0.25000000000E+03 0.  0.
<mgrwt>
<rscale>  0 0.86534714E+03</rscale>
<asrwt>0</asrwt>
<pdfrwt beam="1">  1        1 0.67801290E-01 0.86534714E+03</pdfrwt>
<pdfrwt beam="2">  1       -1 0.65351576E-01 0.86534714E+03</pdfrwt>
<totfact> 0.12625542E+02</totfact>
</mgrwt>
</event>
<event>
 4    1  0.4305113E-006  0.7261244E+03  0.7818608E-02  0.9673570E-01
         -1   -1    0    0    0  501 -0.00000000000E+00  0.00000000000E+00  0.57255698725E+03  0.57255698728E+03  0.50400000000E-02 0. -1.
          1   -1    0    0  501    0  0.00000000000E+00 -0.00000000000E+00 -0.23022018268E+03  0.23022018273E+03  0.50400000000E-02 0.  1.
   -5000001    1    1    2    0    0  0.89399167092E+02  0.63881045784E+02 -0.93339244279E+02  0.28859177675E+03  0.25000000000E+03 0.  0.
    5000001    1    1    2    0    0 -0.89399167092E+02 -0.63881045784E+02  0.43567604886E+03  0.51418539325E+03  0.25000000000E+03 0.  0.
<mgrwt>
<rscale>  0 0.72612444E+03</rscale>
<asrwt>0</asrwt>
<pdfrwt beam="1">  1        1 0.35418490E-01 0.72612444E+03</pdfrwt>
<pdfrwt beam="2">  1       -1 0.88085689E-01 0.72612444E+03</pdfrwt>
<totfact> 0.15912745E+02</totfact>
</mgrwt>
</event>
<event>
 4    1  0.4305113E-006  0.6022777E+03  0.7818608E-02  0.9900692E-01
          1   -1    0    0  501    0  0.00000000000E+00  0.00000000000E+00  0.53561843342E+03  0.53561843345E+03  0.50400000000E-02 0.  1.
         -1   -1    0    0    0  501 -0.00000000000E+00 -0.00000000000E+00 -0.16930821604E+03  0.16930821612E+03  0.50400000000E-02 0. -1.
   -5000001    1    1    2    0    0  0.16144328869E+02  0.16646691074E+03  0.16608401774E+03  0.34359245142E+03  0.25000000000E+03 0.  0.
    5000001    1    1    2    0    0 -0.16144328869E+02 -0.16646691074E+03  0.20022619964E+03  0.36133419814E+03  0.25000000000E+03 0.  0.
<mgrwt>
<rscale>  0 0.60227768E+03</rscale>
<asrwt>0</asrwt>
<pdfrwt beam="1">  1        1 0.82402836E-01 0.60227768E+03</pdfrwt>
<pdfrwt beam="2">  1       -1 0.26047418E-01 0.60227768E+03</pdfrwt>
<totfact> 0.53075654E+02</totfact>
</mgrwt>
</event>
<event>
 4    1  0.4305113E-006  0.7435291E+03  0.7818608E-02  0.9645557E-01
         -1   -1    0    0    0  501 -0.00000000000E+00  0.00000000000E+00  0.23413444736E+03  0.23413444742E+03  0.50400000000E-02 0. -1.
          1   -1    0    0  501    0  0.00000000000E+00 -0.00000000000E+00 -0.59029709641E+03  0.59029709643E+03  0.50400000000E-02 0.  1.
   -5000001    1    1    2    0    0  0.25576767006E+03  0.18576244789E+01 -0.29054936351E+03  0.46080308642E+03  0.25000000000E+03 0.  0.
    5000001    1    1    2    0    0 -0.25576767006E+03 -0.18576244789E+01 -0.65613285537E+02  0.36362845743E+03  0.25000000000E+03 0.  0.
<mgrwt>
<rscale>  0 0.74352911E+03</rscale>
<asrwt>0</asrwt>
<pdfrwt beam="1">  1        1 0.90814937E-01 0.74352911E+03</pdfrwt>
<pdfrwt beam="2">  1       -1 0.36020685E-01 0.74352911E+03</pdfrwt>
<totfact> 0.26137308E+02</totfact>
</mgrwt>
</event>
<event>
 4    1  0.4305113E-006  0.1030683E+04  0.7818608E-02  0.9275518E-01
         -1   -1    0    0    0  501 -0.00000000000E+00  0.00000000000E+00  0.31308435185E+03  0.31308435189E+03  0.50400000000E-02 0. -1.
          1   -1    0    0  501    0  0.00000000000E+00 -0.00000000000E+00 -0.84825940728E+03  0.84825940729E+03  0.50400000000E-02 0.  1.
   -5000001    1    1    2    0    0  0.27494321650E+03  0.34819658138E+03 -0.17856464353E+03  0.53964799963E+03  0.25000000000E+03 0.  0.
    5000001    1    1    2    0    0 -0.27494321650E+03 -0.34819658138E+03 -0.35661041189E+03  0.62169575956E+03  0.25000000000E+03 0.  0.
<mgrwt>
<rscale>  0 0.10306828E+04</rscale>
<asrwt>0</asrwt>
<pdfrwt beam="1">  1        1 0.13050145E+00 0.10306828E+04</pdfrwt>
<pdfrwt beam="2">  1       -1 0.48166824E-01 0.10306828E+04</pdfrwt>
<totfact> 0.86626027E+01</totfact>
</mgrwt>
</event>
<event>
 4    1  0.4305113E-006  0.6218521E+03  0.7818608E-02  0.9861079E-01
         -1   -1    0    0    0  501 -0.00000000000E+00  0.00000000000E+00  0.63112879098E+02  0.63112879299E+02  0.50400000000E-02 0. -1.
          1   -1    0    0  501    0  0.00000000000E+00 -0.00000000000E+00 -0.15317795945E+04  0.15317795945E+04  0.50400000000E-02 0.  1.
   -5000001    1    1    2    0    0 -0.15494152315E+03 -0.33752872125E+02 -0.97803666473E+03  0.10218619523E+04  0.25000000000E+03 0.  0.
    5000001    1    1    2    0    0  0.15494152315E+03  0.33752872125E+02 -0.49063005068E+03  0.57303052153E+03  0.25000000000E+03 0.  0.
<mgrwt>
<rscale>  0 0.62185214E+03</rscale>
<asrwt>0</asrwt>
<pdfrwt beam="1">  1        1 0.23565837E+00 0.62185214E+03</pdfrwt>
<pdfrwt beam="2">  1       -1 0.97096749E-02 0.62185214E+03</pdfrwt>
<totfact> 0.42197097E+02</totfact>
</mgrwt>
</event>
<event>
 4    1  0.4305113E-006  0.1120209E+04  0.7818608E-02  0.9185716E-01
          1   -1    0    0  501    0  0.00000000000E+00  0.00000000000E+00  0.14196918483E+04  0.14196918483E+04  0.50400000000E-02 0.  1.
         -1   -1    0    0    0  501 -0.00000000000E+00 -0.00000000000E+00 -0.22097526839E+03  0.22097526844E+03  0.50400000000E-02 0. -1.
   -5000001    1    1    2    0    0 -0.18980811061E+03 -0.15270976300E+03  0.12408993446E+04  0.12890611211E+04  0.25000000000E+03 0.  0.
    5000001    1    1    2    0    0  0.18980811061E+03  0.15270976300E+03 -0.42182764628E+02  0.35160599568E+03  0.25000000000E+03 0.  0.
<mgrwt>
<rscale>  0 0.11202085E+04</rscale>
<asrwt>0</asrwt>
<pdfrwt beam="1">  1        1 0.21841413E+00 0.11202085E+04</pdfrwt>
<pdfrwt beam="2">  1       -1 0.33996195E-01 0.11202085E+04</pdfrwt>
<totfact> 0.60517825E+01</totfact>
</mgrwt>
</event>
<event>
 4    1  0.4305113E-006  0.5897791E+03  0.7818608E-02  0.9926841E-01
         -1   -1    0    0    0  501 -0.00000000000E+00  0.00000000000E+00  0.27287607078E+02  0.27287607544E+02  0.50400000000E-02 0.  1.
          1   -1    0    0  501    0  0.00000000000E+00 -0.00000000000E+00 -0.31867886806E+04  0.31867886806E+04  0.50400000000E-02 0. -1.
   -5000001    1    1    2    0    0  0.13668324302E+03  0.73899219191E+02 -0.16766918281E+04  0.17023333663E+04  0.25000000000E+03 0.  0.
    5000001    1    1    2    0    0 -0.13668324302E+03 -0.73899219191E+02 -0.14828092454E+04  0.15117429218E+04  0.25000000000E+03 0.  0.
<mgrwt>
<rscale>  0 0.58977907E+03</rscale>
<asrwt>0</asrwt>
<pdfrwt beam="1">  1        1 0.49027489E+00 0.58977907E+03</pdfrwt>
<pdfrwt beam="2">  1       -1 0.41980960E-02 0.58977907E+03</pdfrwt>
<totfact> 0.11455816E+02</totfact>
</mgrwt>
</event>
<event>
 4    1  0.4305113E-006  0.7272108E+03  0.7818608E-02  0.9671797E-01
         -1   -1    0    0    0  501 -0.00000000000E+00  0.00000000000E+00  0.49087422192E+03  0.49087422195E+03  0.50400000000E-02 0. -1.
          1   -1    0    0  501    0  0.00000000000E+00 -0.00000000000E+00 -0.26933353754E+03  0.26933353758E+03  0.50400000000E-02 0.  1.
   -5000001    1    1    2    0    0  0.25037497600E+03  0.77223874739E+02  0.76771786756E+02  0.37019597874E+03  0.25000000000E+03 0.  0.
    5000001    1    1    2    0    0 -0.25037497600E+03 -0.77223874739E+02  0.14476889763E+03  0.39001178079E+03  0.25000000000E+03 0.  0.
<mgrwt>
<rscale>  0 0.72721081E+03</rscale>
<asrwt>0</asrwt>
<pdfrwt beam="1">  1        1 0.41435929E-01 0.72721081E+03</pdfrwt>
<pdfrwt beam="2">  1       -1 0.75519110E-01 0.72721081E+03</pdfrwt>
<totfact> 0.18040258E+02</totfact>
</mgrwt>
</event>
<event>
 4    1  0.4305113E-006  0.1510548E+04  0.7818608E-02  0.8877469E-01
         -1   -1    0    0    0  501 -0.00000000000E+00  0.00000000000E+00  0.11815147594E+04  0.11815147594E+04  0.50400000000E-02 0. -1.
          1   -1    0    0  501    0  0.00000000000E+00 -0.00000000000E+00 -0.48280267314E+03  0.48280267316E+03  0.50400000000E-02 0.  1.
   -5000001    1    1    2    0    0  0.70585989970E+03  0.95674981458E+02  0.32359696812E+03  0.82134456707E+03  0.25000000000E+03 0.  0.
    5000001    1    1    2    0    0 -0.70585989970E+03 -0.95674981458E+02  0.37511511810E+03  0.84297286547E+03  0.25000000000E+03 0.  0.
<mgrwt>
<rscale>  0 0.15105476E+04</rscale>
<asrwt>0</asrwt>
<pdfrwt beam="1">  1        1 0.74277335E-01 0.15105476E+04</pdfrwt>
<pdfrwt beam="2">  1       -1 0.18177150E+00 0.15105476E+04</pdfrwt>
<totfact> 0.90847437E+00</totfact>
</mgrwt>
</event>
<event>
 4    1  0.4305113E-006  0.7620720E+03  0.7818608E-02  0.9616599E-01
          1   -1    0    0  501    0  0.00000000000E+00  0.00000000000E+00  0.15066259780E+03  0.15066259788E+03  0.50400000000E-02 0.  1.
         -1   -1    0    0    0  501 -0.00000000000E+00 -0.00000000000E+00 -0.96366596507E+03  0.96366596509E+03  0.50400000000E-02 0. -1.
   -5000001    1    1    2    0    0 -0.20620841769E+03  0.14962531433E+03 -0.60147184695E+03  0.69941263135E+03  0.25000000000E+03 0.  0.
    5000001    1    1    2    0    0  0.20620841769E+03 -0.14962531433E+03 -0.21153152033E+03  0.41491593162E+03  0.25000000000E+03 0.  0.
<mgrwt>
<rscale>  0 0.76207196E+03</rscale>
<asrwt>0</asrwt>
<pdfrwt beam="1">  1        1 0.23178862E-01 0.76207196E+03</pdfrwt>
<pdfrwt beam="2">  1       -1 0.14825630E+00 0.76207196E+03</pdfrwt>
<totfact> 0.78962738E+01</totfact>
</mgrwt>
</event>
<event>
 4    1  0.4305113E-006  0.8100734E+03  0.7818608E-02  0.9545550E-01
          1   -1    0    0  501    0  0.00000000000E+00  0.00000000000E+00  0.53464407730E+03  0.53464407733E+03  0.50400000000E-02 0.  1.
         -1   -1    0    0    0  501 -0.00000000000E+00 -0.00000000000E+00 -0.30684850520E+03  0.30684850524E+03  0.50400000000E-02 0. -1.
   -5000001    1    1    2    0    0  0.78039617357E+02 -0.91644698099E+02 -0.19261579095E+03  0.33777178018E+03  0.25000000000E+03 0.  0.
    5000001    1    1    2    0    0 -0.78039617357E+02  0.91644698099E+02  0.42041136305E+03  0.50372080238E+03  0.25000000000E+03 0.  0.
<mgrwt>
<rscale>  0 0.81007342E+03</rscale>
<asrwt>0</asrwt>
<pdfrwt beam="1">  1        1 0.82252935E-01 0.81007342E+03</pdfrwt>
<pdfrwt beam="2">  1       -1 0.47207463E-01 0.81007342E+03</pdfrwt>
<totfact> 0.18268737E+02</totfact>
</mgrwt>
</event>
<event>
 4    1  0.4305113E-006  0.5703656E+03  0.7818608E-02  0.9968870E-01
         -1   -1    0    0    0  501 -0.00000000000E+00  0.00000000000E+00  0.28759904765E+03  0.28759904769E+03  0.50400000000E-02 0.  1.
          1   -1    0    0  501    0  0.00000000000E+00 -0.00000000000E+00 -0.28278682464E+03  0.28278682469E+03  0.50400000000E-02 0. -1.
   -5000001    1    1    2    0    0 -0.67779010560E+02 -0.11904709258E+03  0.10344715921E+02  0.28525991249E+03  0.25000000000E+03 0.  0.
    5000001    1    1    2    0    0  0.67779010560E+02  0.11904709258E+03 -0.55324929202E+01  0.28512595989E+03  0.25000000000E+03 0.  0.
<mgrwt>
<rscale>  0 0.57036557E+03</rscale>
<asrwt>0</asrwt>
<pdfrwt beam="1">  1        1 0.43505665E-01 0.57036557E+03</pdfrwt>
<pdfrwt beam="2">  1       -1 0.44246008E-01 0.57036557E+03</pdfrwt>
<totfact> 0.48418844E+02</totfact>
</mgrwt>
</event>
<event>
 4    1  0.4305113E-006  0.6604113E+03  0.7818608E-02  0.9787437E-01
         -1   -1    0    0    0  501 -0.00000000000E+00  0.00000000000E+00  0.45109381319E+03  0.45109381322E+03  0.50400000000E-02 0. -1.
          1   -1    0    0  501    0  0.00000000000E+00 -0.00000000000E+00 -0.24171415506E+03  0.24171415512E+03  0.50400000000E-02 0.  1.
   -5000001    1    1    2    0    0 -0.21243019884E+03 -0.35331918764E+02  0.91386000673E+02  0.34238331586E+03  0.25000000000E+03 0.  0.
    5000001    1    1    2    0    0  0.21243019884E+03  0.35331918764E+02  0.11799365745E+03  0.35042465247E+03  0.25000000000E+03 0.  0.
<mgrwt>
<rscale>  0 0.66041127E+03</rscale>
<asrwt>0</asrwt>
<pdfrwt beam="1">  1        1 0.37186793E-01 0.66041127E+03</pdfrwt>
<pdfrwt beam="2">  1       -1 0.69399048E-01 0.66041127E+03</pdfrwt>
<totfact> 0.24767144E+02</totfact>
</mgrwt>
</event>
<event>
 4    1  0.4305113E-006  0.1224215E+04  0.7818608E-02  0.9091921E-01
         -1   -1    0    0    0  501 -0.00000000000E+00  0.00000000000E+00  0.44572593527E+03  0.44572593529E+03  0.50400000000E-02 0. -1.
          1   -1    0    0  501    0  0.00000000000E+00 -0.00000000000E+00 -0.84059622984E+03  0.84059622986E+03  0.50400000000E-02 0.  1.
   -5000001    1    1    2    0    0 -0.20896583861E+03  0.51762887540E+03 -0.22250268700E+03  0.65085622074E+03  0.25000000000E+03 0.  0.
    5000001    1    1    2    0    0  0.20896583861E+03 -0.51762887540E+03 -0.17236760758E+03  0.63546594441E+03  0.25000000000E+03 0.  0.
<mgrwt>
<rscale>  0 0.12242149E+04</rscale>
<asrwt>0</asrwt>
<pdfrwt beam="1">  1        1 0.12932250E+00 0.12242149E+04</pdfrwt>
<pdfrwt beam="2">  1       -1 0.68573221E-01 0.12242149E+04</pdfrwt>
<totfact> 0.43388713E+01</totfact>
</mgrwt>
</event>
<event>
 4    1  0.4305113E-006  0.6881553E+03  0.7818608E-02  0.9737705E-01
          1   -1    0    0  501    0  0.00000000000E+00  0.00000000000E+00  0.12742541367E+04  0.12742541367E+04  0.50400000000E-02 0.  1.
         -1   -1    0    0    0  501 -0.00000000000E+00 -0.00000000000E+00 -0.92908802106E+02  0.92908802243E+02  0.50400000000E-02 0. -1.
   -5000001    1    1    2    0    0 -0.72244811235E+02  0.21865985104E+03  0.48446311133E+03  0.59180735839E+03  0.25000000000E+03 0.  0.
    5000001    1    1    2    0    0  0.72244811235E+02 -0.21865985104E+03  0.69688222326E+03  0.77535558056E+03  0.25000000000E+03 0.  0.
<mgrwt>
<rscale>  0 0.68815529E+03</rscale>
<asrwt>0</asrwt>
<pdfrwt beam="1">  1        1 0.19603909E+00 0.68815529E+03</pdfrwt>
<pdfrwt beam="2">  1       -1 0.14293663E-01 0.68815529E+03</pdfrwt>
<totfact> 0.34167961E+02</totfact>
</mgrwt>
</event>
<event>
 4    1  0.4305113E-006  0.1161751E+04  0.7818608E-02  0.9147011E-01
         -1   -1    0    0    0  501 -0.00000000000E+00  0.00000000000E+00  0.16730382097E+03  0.16730382105E+03  0.50400000000E-02 0.  1.
          1   -1    0    0  501    0  0.00000000000E+00 -0.00000000000E+00 -0.20167864713E+04  0.20167864713E+04  0.50400000000E-02 0. -1.
   -5000001    1    1    2    0    0 -0.44128352047E+03 -0.21709360774E+03 -0.58293643363E+03  0.80260554796E+03  0.25000000000E+03 0.  0.
    5000001    1    1    2    0    0  0.44128352047E+03  0.21709360774E+03 -0.12665462167E+04  0.13814847444E+04  0.25000000000E+03 0.  0.
<mgrwt>
<rscale>  0 0.11617505E+04</rscale>
<asrwt>0</asrwt>
<pdfrwt beam="1">  1        1 0.31027483E+00 0.11617505E+04</pdfrwt>
<pdfrwt beam="2">  1       -1 0.25739051E-01 0.11617505E+04</pdfrwt>
<totfact> 0.38467520E+01</totfact>
</mgrwt>
</event>
<event>
 4    1  0.4305113E-006  0.6645125E+03  0.7818608E-02  0.9779922E-01
          1   -1    0    0  501    0  0.00000000000E+00  0.00000000000E+00  0.71998111774E+03  0.71998111775E+03  0.50400000000E-02 0. -1.
         -1   -1    0    0    0  501 -0.00000000000E+00 -0.00000000000E+00 -0.15332931629E+03  0.15332931637E+03  0.50400000000E-02 0.  1.
   -5000001    1    1    2    0    0  0.37335207430E+02 -0.20195593424E+03  0.18398244873E+03  0.37219572610E+03  0.25000000000E+03 0.  0.
    5000001    1    1    2    0    0 -0.37335207430E+02  0.20195593424E+03  0.38266935272E+03  0.50111470802E+03  0.25000000000E+03 0.  0.
<mgrwt>
<rscale>  0 0.66451249E+03</rscale>
<asrwt>0</asrwt>
<pdfrwt beam="1">  1        1 0.11076632E+00 0.66451249E+03</pdfrwt>
<pdfrwt beam="2">  1       -1 0.23589126E-01 0.66451249E+03</pdfrwt>
<totfact> 0.40816663E+02</totfact>
</mgrwt>
</event>
<event>
 4    1  0.4305113E-006  0.5411201E+03  0.7818608E-02  0.1003570E+00
          1   -1    0    0  501    0  0.00000000000E+00  0.00000000000E+00  0.59064948352E+03  0.59064948354E+03  0.50400000000E-02 0.  1.
         -1   -1    0    0    0  501 -0.00000000000E+00 -0.00000000000E+00 -0.12393602959E+03  0.12393602970E+03  0.50400000000E-02 0. -1.
   -5000001    1    1    2    0    0  0.82701817481E+02  0.21625848523E+02  0.31030721002E+03  0.40755101832E+03  0.25000000000E+03 0.  0.
    5000001    1    1    2    0    0 -0.82701817481E+02 -0.21625848523E+02  0.15640624390E+03  0.30703449492E+03  0.25000000000E+03 0.  0.
<mgrwt>
<rscale>  0 0.54112014E+03</rscale>
<asrwt>0</asrwt>
<pdfrwt beam="1">  1        1 0.90869150E-01 0.54112014E+03</pdfrwt>
<pdfrwt beam="2">  1       -1 0.19067082E-01 0.54112014E+03</pdfrwt>
<totfact> 0.78178526E+02</totfact>
</mgrwt>
</event>
<event>
 4    1  0.4305113E-006  0.7241501E+03  0.7818608E-02  0.9676801E-01
         -1   -1    0    0    0  501 -0.00000000000E+00  0.00000000000E+00  0.87721609201E+02  0.87721609346E+02  0.50400000000E-02 0. -1.
          1   -1    0    0  501    0  0.00000000000E+00 -0.00000000000E+00 -0.14944815703E+04  0.14944815703E+04  0.50400000000E-02 0.  1.
   -5000001    1    1    2    0    0 -0.16528826500E+03 -0.14798941792E+03 -0.39923563149E+03  0.52068240590E+03  0.25000000000E+03 0.  0.
    5000001    1    1    2    0    0  0.16528826500E+03  0.14798941792E+03 -0.10075243296E+04  0.10615207738E+04  0.25000000000E+03 0.  0.
<mgrwt>
<rscale>  0 0.72415006E+03</rscale>
<asrwt>0</asrwt>
<pdfrwt beam="1">  1        1 0.22992022E+00 0.72415006E+03</pdfrwt>
<pdfrwt beam="2">  1       -1 0.13495633E-01 0.72415006E+03</pdfrwt>
<totfact> 0.26286037E+02</totfact>
</mgrwt>
</event>
<event>
 4    1  0.4305113E-006  0.7632367E+03  0.7818608E-02  0.9614810E-01
          1   -1    0    0  501    0  0.00000000000E+00  0.00000000000E+00  0.46036083735E+03  0.46036083738E+03  0.50400000000E-02 0.  1.
         -1   -1    0    0    0  501 -0.00000000000E+00 -0.00000000000E+00 -0.31634439670E+03  0.31634439674E+03  0.50400000000E-02 0. -1.
   -5000001    1    1    2    0    0 -0.24588635658E+03 -0.80924081842E+02 -0.57211915674E+02  0.36439266001E+03  0.25000000000E+03 0.  0.
    5000001    1    1    2    0    0  0.24588635658E+03  0.80924081842E+02  0.20122835633E+03  0.41231257411E+03  0.25000000000E+03 0.  0.
<mgrwt>
<rscale>  0 0.76323672E+03</rscale>
<asrwt>0</asrwt>
<pdfrwt beam="1">  1        1 0.70824744E-01 0.76323672E+03</pdfrwt>
<pdfrwt beam="2">  1       -1 0.48668369E-01 0.76323672E+03</pdfrwt>
<totfact> 0.21237473E+02</totfact>
</mgrwt>
</event>
<event>
 4    1  0.4305113E-006  0.9943447E+03  0.7818608E-02  0.9314769E-01
          1   -1    0    0  501    0  0.00000000000E+00  0.00000000000E+00  0.10591325474E+04  0.10591325474E+04  0.50400000000E-02 0.  1.
         -1   -1    0    0    0  501 -0.00000000000E+00 -0.00000000000E+00 -0.23337998463E+03  0.23337998468E+03  0.50400000000E-02 0. -1.
   -5000001    1    1    2    0    0  0.22547150171E+03  0.98017548469E+02  0.87103996533E+03  0.93896510004E+03  0.25000000000E+03 0.  0.
    5000001    1    1    2    0    0 -0.22547150171E+03 -0.98017548469E+02 -0.45287402550E+02  0.35354743207E+03  0.25000000000E+03 0.  0.
<mgrwt>
<rscale>  0 0.99434468E+03</rscale>
<asrwt>0</asrwt>
<pdfrwt beam="1">  1        1 0.16294347E+00 0.99434468E+03</pdfrwt>
<pdfrwt beam="2">  1       -1 0.35904612E-01 0.99434468E+03</pdfrwt>
<totfact> 0.10111523E+02</totfact>
</mgrwt>
</event>
<event>
 4    1  0.4305113E-006  0.1095222E+04  0.7818608E-02  0.9209861E-01
         -1   -1    0    0    0  501 -0.00000000000E+00  0.00000000000E+00  0.24964376100E+03  0.24964376105E+03  0.50400000000E-02 0. -1.
          1   -1    0    0  501    0  0.00000000000E+00 -0.00000000000E+00 -0.12012230841E+04  0.12012230841E+04  0.50400000000E-02 0.  1.
   -5000001    1    1    2    0    0 -0.56340916495E+02 -0.48190606306E+03 -0.53458854380E+03  0.76399781651E+03  0.25000000000E+03 0.  0.
    5000001    1    1    2    0    0  0.56340916495E+02  0.48190606306E+03 -0.41699077931E+03  0.68686902864E+03  0.25000000000E+03 0.  0.
<mgrwt>
<rscale>  0 0.10952221E+04</rscale>
<asrwt>0</asrwt>
<pdfrwt beam="1">  1        1 0.18480355E+00 0.10952221E+04</pdfrwt>
<pdfrwt beam="2">  1       -1 0.38406733E-01 0.10952221E+04</pdfrwt>
<totfact> 0.69681578E+01</totfact>
</mgrwt>
</event>
<event>
 4    1  0.4305113E-006  0.6207790E+03  0.7818608E-02  0.9863210E-01
          1   -1    0    0  501    0  0.00000000000E+00  0.00000000000E+00  0.13015181132E+04  0.13015181132E+04  0.50400000000E-02 0. -1.
         -1   -1    0    0    0  501 -0.00000000000E+00 -0.00000000000E+00 -0.74022513249E+02  0.74022513420E+02  0.50400000000E-02 0.  1.
   -5000001    1    1    2    0    0 -0.79841797938E+02  0.16490707115E+03  0.57716398070E+03  0.65512389320E+03  0.25000000000E+03 0.  0.
    5000001    1    1    2    0    0  0.79841797938E+02 -0.16490707115E+03  0.65033161922E+03  0.72041673341E+03  0.25000000000E+03 0.  0.
<mgrwt>
<rscale>  0 0.62077900E+03</rscale>
<asrwt>0</asrwt>
<pdfrwt beam="1">  1        1 0.20023356E+00 0.62077900E+03</pdfrwt>
<pdfrwt beam="2">  1       -1 0.11388079E-01 0.62077900E+03</pdfrwt>
<totfact> 0.47253071E+02</totfact>
</mgrwt>
</event>
<event>
 4    1  0.4305113E-006  0.1078132E+04  0.7818608E-02  0.9226772E-01
         -1   -1    0    0    0  501 -0.00000000000E+00  0.00000000000E+00  0.30192368351E+03  0.30192368355E+03  0.50400000000E-02 0. -1.
          1   -1    0    0  501    0  0.00000000000E+00 -0.00000000000E+00 -0.96246891330E+03  0.96246891332E+03  0.50400000000E-02 0.  1.
   -5000001    1    1    2    0    0 -0.23584055374E+03  0.41528022382E+03 -0.32592729491E+03  0.62992621207E+03  0.25000000000E+03 0.  0.
    5000001    1    1    2    0    0  0.23584055374E+03 -0.41528022382E+03 -0.33461793489E+03  0.63446638479E+03  0.25000000000E+03 0.  0.
<mgrwt>
<rscale>  0 0.10781320E+04</rscale>
<asrwt>0</asrwt>
<pdfrwt beam="1">  1        1 0.14807214E+00 0.10781320E+04</pdfrwt>
<pdfrwt beam="2">  1       -1 0.46449798E-01 0.10781320E+04</pdfrwt>
<totfact> 0.74556047E+01</totfact>
</mgrwt>
</event>
<event>
 4    1  0.4305113E-006  0.6335801E+03  0.7818608E-02  0.9838087E-01
         -1   -1    0    0    0  501 -0.00000000000E+00  0.00000000000E+00  0.24628981275E+03  0.24628981280E+03  0.50400000000E-02 0. -1.
          1   -1    0    0  501    0  0.00000000000E+00 -0.00000000000E+00 -0.40747093855E+03  0.40747093858E+03  0.50400000000E-02 0.  1.
   -5000001    1    1    2    0    0 -0.16537356352E+03 -0.37238743501E+02 -0.17913538504E+03  0.35117606083E+03  0.25000000000E+03 0.  0.
    5000001    1    1    2    0    0  0.16537356352E+03  0.37238743501E+02  0.17954259247E+02  0.30258469055E+03  0.25000000000E+03 0.  0.
<mgrwt>
<rscale>  0 0.63358012E+03</rscale>
<asrwt>0</asrwt>
<pdfrwt beam="1">  1        1 0.62687837E-01 0.63358012E+03</pdfrwt>
<pdfrwt beam="2">  1       -1 0.37890740E-01 0.63358012E+03</pdfrwt>
<totfact> 0.39837458E+02</totfact>
</mgrwt>
</event>
<event>
 4    1  0.4305113E-006  0.6313858E+03  0.7818608E-02  0.9842348E-01
         -1   -1    0    0    0  501 -0.00000000000E+00  0.00000000000E+00  0.14677224521E+03  0.14677224530E+03  0.50400000000E-02 0. -1.
          1   -1    0    0  501    0  0.00000000000E+00 -0.00000000000E+00 -0.67902490642E+03  0.67902490644E+03  0.50400000000E-02 0.  1.
   -5000001    1    1    2    0    0  0.16506310762E+03 -0.82379251584E+02 -0.33929743319E+03  0.46005969043E+03  0.25000000000E+03 0.  0.
    5000001    1    1    2    0    0 -0.16506310762E+03  0.82379251584E+02 -0.19295522802E+03  0.36573746131E+03  0.25000000000E+03 0.  0.
<mgrwt>
<rscale>  0 0.63138581E+03</rscale>
<asrwt>0</asrwt>
<pdfrwt beam="1">  1        1 0.10446537E+00 0.63138581E+03</pdfrwt>
<pdfrwt beam="2">  1       -1 0.22580346E-01 0.63138581E+03</pdfrwt>
<totfact> 0.48050554E+02</totfact>
</mgrwt>
</event>
<event>
 4    1  0.4305113E-006  0.6001263E+03  0.7818608E-02  0.9905144E-01
          1   -1    0    0  501    0  0.00000000000E+00  0.00000000000E+00  0.69407787820E+03  0.69407787822E+03  0.50400000000E-02 0.  1.
         -1   -1    0    0    0  501 -0.00000000000E+00 -0.00000000000E+00 -0.12972303626E+03  0.12972303636E+03  0.50400000000E-02 0. -1.
   -5000001    1    1    2    0    0 -0.12911319477E+03 -0.99546592593E+02  0.32466833430E+03  0.44100937457E+03  0.25000000000E+03 0.  0.
    5000001    1    1    2    0    0  0.12911319477E+03  0.99546592593E+02  0.23968650763E+03  0.38279154001E+03  0.25000000000E+03 0.  0.
<mgrwt>
<rscale>  0 0.60012629E+03</rscale>
<asrwt>0</asrwt>
<pdfrwt beam="1">  1        1 0.10678121E+00 0.60012629E+03</pdfrwt>
<pdfrwt beam="2">  1       -1 0.19957390E-01 0.60012629E+03</pdfrwt>
<totfact> 0.57218000E+02</totfact>
</mgrwt>
</event>
<event>
 4    1  0.4305113E-006  0.8641888E+03  0.7818608E-02  0.9471489E-01
         -1   -1    0    0    0  501 -0.00000000000E+00  0.00000000000E+00  0.11406609635E+03  0.11406609646E+03  0.50400000000E-02 0.  1.
          1   -1    0    0  501    0  0.00000000000E+00 -0.00000000000E+00 -0.16368192968E+04  0.16368192968E+04  0.50400000000E-02 0. -1.
   -5000001    1    1    2    0    0  0.25977973541E+03 -0.20058279057E+03 -0.10215212462E+04  0.11016917097E+04  0.25000000000E+03 0.  0.
    5000001    1    1    2    0    0 -0.25977973541E+03  0.20058279057E+03 -0.50123195424E+03  0.64919368355E+03  0.25000000000E+03 0.  0.
<mgrwt>
<rscale>  0 0.86418884E+03</rscale>
<asrwt>0</asrwt>
<pdfrwt beam="1">  1        1 0.25181834E+00 0.86418884E+03</pdfrwt>
<pdfrwt beam="2">  1       -1 0.17548631E-01 0.86418884E+03</pdfrwt>
<totfact> 0.13559192E+02</totfact>
</mgrwt>
</event>
<event>
 4    1  0.4305113E-006  0.7527943E+03  0.7818608E-02  0.9630977E-01
          1   -1    0    0  501    0  0.00000000000E+00  0.00000000000E+00  0.68587627622E+03  0.68587627624E+03  0.50400000000E-02 0. -1.
         -1   -1    0    0    0  501 -0.00000000000E+00 -0.00000000000E+00 -0.20656033039E+03  0.20656033045E+03  0.50400000000E-02 0.  1.
   -5000001    1    1    2    0    0  0.37513972279E+02  0.25906570561E+03  0.36201436005E+03  0.51193430714E+03  0.25000000000E+03 0.  0.
    5000001    1    1    2    0    0 -0.37513972279E+02 -0.25906570561E+03  0.11730158578E+03  0.38050229955E+03  0.25000000000E+03 0.  0.
<mgrwt>
<rscale>  0 0.75279434E+03</rscale>
<asrwt>0</asrwt>
<pdfrwt beam="1">  1        1 0.10551943E+00 0.75279434E+03</pdfrwt>
<pdfrwt beam="2">  1       -1 0.31778513E-01 0.75279434E+03</pdfrwt>
<totfact> 0.26185029E+02</totfact>
</mgrwt>
</event>
<event>
 4    1  0.4305113E-006  0.5915665E+03  0.7818608E-02  0.9923059E-01
          1   -1    0    0  501    0  0.00000000000E+00  0.00000000000E+00  0.91746330603E+03  0.91746330604E+03  0.50400000000E-02 0.  1.
         -1   -1    0    0    0  501 -0.00000000000E+00 -0.00000000000E+00 -0.95358291705E+02  0.95358291838E+02  0.50400000000E-02 0. -1.
   -5000001    1    1    2    0    0  0.48641738062E+02  0.14332515671E+03  0.33297592667E+03  0.44303621406E+03  0.25000000000E+03 0.  0.
    5000001    1    1    2    0    0 -0.48641738062E+02 -0.14332515671E+03  0.48912908766E+03  0.56978538382E+03  0.25000000000E+03 0.  0.
<mgrwt>
<rscale>  0 0.59156651E+03</rscale>
<asrwt>0</asrwt>
<pdfrwt beam="1">  1        1 0.14114821E+00 0.59156651E+03</pdfrwt>
<pdfrwt beam="2">  1       -1 0.14670506E-01 0.59156651E+03</pdfrwt>
<totfact> 0.60840533E+02</totfact>
</mgrwt>
</event>
<event>
 4    1  0.4305113E-006  0.6356463E+03  0.7818608E-02  0.9834092E-01
         -1   -1    0    0    0  501 -0.00000000000E+00  0.00000000000E+00  0.20245320583E+03  0.20245320590E+03  0.50400000000E-02 0. -1.
          1   -1    0    0  501    0  0.00000000000E+00 -0.00000000000E+00 -0.49893774205E+03  0.49893774208E+03  0.50400000000E-02 0.  1.
   -5000001    1    1    2    0    0 -0.15748211066E+03 -0.13878028137E+02 -0.27653622039E+03  0.40492653165E+03  0.25000000000E+03 0.  0.
    5000001    1    1    2    0    0  0.15748211066E+03  0.13878028137E+02 -0.19948315825E+02  0.29646441632E+03  0.25000000000E+03 0.  0.
<mgrwt>
<rscale>  0 0.63564627E+03</rscale>
<asrwt>0</asrwt>
<pdfrwt beam="1">  1        1 0.76759652E-01 0.63564627E+03</pdfrwt>
<pdfrwt beam="2">  1       -1 0.31146647E-01 0.63564627E+03</pdfrwt>
<totfact> 0.42937470E+02</totfact>
</mgrwt>
</event>
<event>
 4    1  0.4305113E-006  0.1147620E+04  0.7818608E-02  0.9159982E-01
         -1   -1    0    0    0  501 -0.00000000000E+00  0.00000000000E+00  0.53793910246E+03  0.53793910248E+03  0.50400000000E-02 0.  1.
          1   -1    0    0  501    0  0.00000000000E+00 -0.00000000000E+00 -0.61207273522E+03  0.61207273524E+03  0.50400000000E-02 0. -1.
   -5000001    1    1    2    0    0  0.11852492222E+03  0.47130514679E+03 -0.21230599678E+03  0.58630242610E+03  0.25000000000E+03 0.  0.
    5000001    1    1    2    0    0 -0.11852492222E+03 -0.47130514679E+03  0.13817236402E+03  0.56370941163E+03  0.25000000000E+03 0.  0.
<mgrwt>
<rscale>  0 0.11476199E+04</rscale>
<asrwt>0</asrwt>
<pdfrwt beam="1">  1        1 0.94165036E-01 0.11476199E+04</pdfrwt>
<pdfrwt beam="2">  1       -1 0.82759862E-01 0.11476199E+04</pdfrwt>
<totfact> 0.47965509E+01</totfact>
</mgrwt>
</event>
<event>
 4    1  0.4305113E-006  0.7542904E+03  0.7818608E-02  0.9628643E-01
          1   -1    0    0  501    0  0.00000000000E+00  0.00000000000E+00  0.37236639007E+03  0.37236639010E+03  0.50400000000E-02 0.  1.
         -1   -1    0    0    0  501 -0.00000000000E+00 -0.00000000000E+00 -0.38198529137E+03  0.38198529141E+03  0.50400000000E-02 0. -1.
   -5000001    1    1    2    0    0  0.11783795316E+03 -0.25657629580E+03 -0.19331294833E+00  0.37711697939E+03  0.25000000000E+03 0.  0.
    5000001    1    1    2    0    0 -0.11783795316E+03  0.25657629580E+03 -0.94255883549E+01  0.37723470213E+03  0.25000000000E+03 0.  0.
<mgrwt>
<rscale>  0 0.75429035E+03</rscale>
<asrwt>0</asrwt>
<pdfrwt beam="1">  1        1 0.57287137E-01 0.75429035E+03</pdfrwt>
<pdfrwt beam="2">  1       -1 0.58766968E-01 0.75429035E+03</pdfrwt>
<totfact> 0.19622512E+02</totfact>
</mgrwt>
</event>
<event>
 4    1  0.4305113E-006  0.9855057E+03  0.7818608E-02  0.9324586E-01
          1   -1    0    0  501    0  0.00000000000E+00  0.00000000000E+00  0.11868235889E+04  0.11868235889E+04  0.50400000000E-02 0. -1.
         -1   -1    0    0    0  501 -0.00000000000E+00 -0.00000000000E+00 -0.20458420700E+03  0.20458420706E+03  0.50400000000E-02 0.  1.
   -5000001    1    1    2    0    0  0.91113417411E+02  0.25852292436E+03  0.33251554113E+02  0.37248009759E+03  0.25000000000E+03 0.  0.
    5000001    1    1    2    0    0 -0.91113417411E+02 -0.25852292436E+03  0.94898782780E+03  0.10189276984E+04  0.25000000000E+03 0.  0.
<mgrwt>
<rscale>  0 0.98550568E+03</rscale>
<asrwt>0</asrwt>
<pdfrwt beam="1">  1        1 0.18258824E+00 0.98550568E+03</pdfrwt>
<pdfrwt beam="2">  1       -1 0.31474494E-01 0.98550568E+03</pdfrwt>
<totfact> 0.10267966E+02</totfact>
</mgrwt>
</event>
<event>
 4    1  0.4305113E-006  0.5878613E+03  0.7818608E-02  0.9930915E-01
          1   -1    0    0  501    0  0.00000000000E+00  0.00000000000E+00  0.33000314038E+04  0.33000314038E+04  0.50400000000E-02 0.  1.
         -1   -1    0    0    0  501 -0.00000000000E+00 -0.00000000000E+00 -0.26180118605E+02  0.26180119090E+02  0.50400000000E-02 0. -1.
   -5000001    1    1    2    0    0 -0.67271009565E+02 -0.13914378055E+03  0.16537428148E+04  0.16796582027E+04  0.25000000000E+03 0.  0.
    5000001    1    1    2    0    0  0.67271009565E+02  0.13914378055E+03  0.16201084704E+04  0.16465533202E+04  0.25000000000E+03 0.  0.
<mgrwt>
<rscale>  0 0.58786126E+03</rscale>
<asrwt>0</asrwt>
<pdfrwt beam="1">  1        1 0.50769646E+00 0.58786126E+03</pdfrwt>
<pdfrwt beam="2">  1       -1 0.40277160E-02 0.58786126E+03</pdfrwt>
<totfact> 0.10068073E+02</totfact>
</mgrwt>
</event>
<event>
 4    1  0.4305113E-006  0.6437602E+03  0.7818608E-02  0.9818559E-01
         -1   -1    0    0    0  501 -0.00000000000E+00  0.00000000000E+00  0.22787407673E+03  0.22787407679E+03  0.50400000000E-02 0. -1.
          1   -1    0    0  501    0  0.00000000000E+00 -0.00000000000E+00 -0.45466695556E+03  0.45466695558E+03  0.50400000000E-02 0.  1.
   -5000001    1    1    2    0    0  0.74204640721E+02  0.18867193772E+03 -0.11144606808E+03  0.34062245210E+03  0.25000000000E+03 0.  0.
    5000001    1    1    2    0    0 -0.74204640721E+02 -0.18867193772E+03 -0.11534681074E+03  0.34191858027E+03  0.25000000000E+03 0.  0.
<mgrwt>
<rscale>  0 0.64376024E+03</rscale>
<asrwt>0</asrwt>
<pdfrwt beam="1">  1        1 0.69948762E-01 0.64376024E+03</pdfrwt>
<pdfrwt beam="2">  1       -1 0.35057550E-01 0.64376024E+03</pdfrwt>
<totfact> 0.39532831E+02</totfact>
</mgrwt>
</event>
<event>
 4    1  0.4305113E-006  0.6469852E+03  0.7818608E-02  0.9812453E-01
         -1   -1    0    0    0  501 -0.00000000000E+00  0.00000000000E+00  0.40395361213E+02  0.40395361528E+02  0.50400000000E-02 0.  1.
          1   -1    0    0  501    0  0.00000000000E+00 -0.00000000000E+00 -0.25905815422E+04  0.25905815422E+04  0.50400000000E-02 0. -1.
   -5000001    1    1    2    0    0  0.19306376746E+03  0.68429157111E+02 -0.13313390302E+04  0.13700072193E+04  0.25000000000E+03 0.  0.
    5000001    1    1    2    0    0 -0.19306376746E+03 -0.68429157111E+02 -0.12188471508E+04  0.12609696844E+04  0.25000000000E+03 0.  0.
<mgrwt>
<rscale>  0 0.64698525E+03</rscale>
<asrwt>0</asrwt>
<pdfrwt beam="1">  1        1 0.39855088E+00 0.64698525E+03</pdfrwt>
<pdfrwt beam="2">  1       -1 0.62146730E-02 0.64698525E+03</pdfrwt>
<totfact> 0.16439980E+02</totfact>
</mgrwt>
</event>
<event>
 4    1  0.4305113E-006  0.9387797E+03  0.7818608E-02  0.9378362E-01
          1   -1    0    0  501    0  0.00000000000E+00  0.00000000000E+00  0.15597115381E+04  0.15597115381E+04  0.50400000000E-02 0.  1.
         -1   -1    0    0    0  501 -0.00000000000E+00 -0.00000000000E+00 -0.14126125944E+03  0.14126125953E+03  0.50400000000E-02 0. -1.
   -5000001    1    1    2    0    0 -0.39187168648E+03  0.30223589833E+00  0.59091908741E+03  0.75183035179E+03  0.25000000000E+03 0.  0.
    5000001    1    1    2    0    0  0.39187168648E+03 -0.30223589833E+00  0.82753119124E+03  0.94914244583E+03  0.25000000000E+03 0.  0.
<mgrwt>
<rscale>  0 0.93877967E+03</rscale>
<asrwt>0</asrwt>
<pdfrwt beam="1">  1        1 0.23995562E+00 0.93877967E+03</pdfrwt>
<pdfrwt beam="2">  1       -1 0.21732501E-01 0.93877967E+03</pdfrwt>
<totfact> 0.10651610E+02</totfact>
</mgrwt>
</event>
<event>
 4    1  0.4305113E-006  0.6183329E+03  0.7818608E-02  0.9868084E-01
          1   -1    0    0  501    0  0.00000000000E+00  0.00000000000E+00  0.68531632080E+03  0.68531632082E+03  0.50400000000E-02 0.  1.
         -1   -1    0    0    0  501 -0.00000000000E+00 -0.00000000000E+00 -0.13947413002E+03  0.13947413012E+03  0.50400000000E-02 0. -1.
   -5000001    1    1    2    0    0  0.12320379645E+03 -0.11797827954E+03  0.18870761527E+03  0.35666316597E+03  0.25000000000E+03 0.  0.
    5000001    1    1    2    0    0 -0.12320379645E+03  0.11797827954E+03  0.35713457551E+03  0.46812728496E+03  0.25000000000E+03 0.  0.
<mgrwt>
<rscale>  0 0.61833291E+03</rscale>
<asrwt>0</asrwt>
<pdfrwt beam="1">  1        1 0.10543328E+00 0.61833291E+03</pdfrwt>
<pdfrwt beam="2">  1       -1 0.21457559E-01 0.61833291E+03</pdfrwt>
<totfact> 0.51650363E+02</totfact>
</mgrwt>
</event>
<event>
 4    1  0.4305113E-006  0.9708062E+03  0.7818608E-02  0.9341157E-01
          1   -1    0    0  501    0  0.00000000000E+00  0.00000000000E+00  0.79917149201E+03  0.79917149202E+03  0.50400000000E-02 0.  1.
         -1   -1    0    0    0  501 -0.00000000000E+00 -0.00000000000E+00 -0.29482552315E+03  0.29482552319E+03  0.50400000000E-02 0. -1.
   -5000001    1    1    2    0    0 -0.59646268801E+02  0.41177296910E+03  0.25355212444E+03  0.54763430797E+03  0.25000000000E+03 0.  0.
    5000001    1    1    2    0    0  0.59646268801E+02 -0.41177296910E+03  0.25079384442E+03  0.54636270724E+03  0.25000000000E+03 0.  0.
<mgrwt>
<rscale>  0 0.97080617E+03</rscale>
<asrwt>0</asrwt>
<pdfrwt beam="1">  1        1 0.12294946E+00 0.97080617E+03</pdfrwt>
<pdfrwt beam="2">  1       -1 0.45357773E-01 0.97080617E+03</pdfrwt>
<totfact> 0.10724976E+02</totfact>
</mgrwt>
</event>
<event>
 4    1  0.4305113E-006  0.6405026E+03  0.7818608E-02  0.9824765E-01
         -1   -1    0    0    0  501 -0.00000000000E+00  0.00000000000E+00  0.16283182373E+03  0.16283182381E+03  0.50400000000E-02 0. -1.
          1   -1    0    0  501    0  0.00000000000E+00 -0.00000000000E+00 -0.62985773856E+03  0.62985773858E+03  0.50400000000E-02 0.  1.
   -5000001    1    1    2    0    0  0.19832375614E+03  0.26833956194E+02 -0.22990244739E+03  0.39421759065E+03  0.25000000000E+03 0.  0.
    5000001    1    1    2    0    0 -0.19832375614E+03 -0.26833956194E+02 -0.23712346744E+03  0.39847197174E+03  0.25000000000E+03 0.  0.
<mgrwt>
<rscale>  0 0.64050257E+03</rscale>
<asrwt>0</asrwt>
<pdfrwt beam="1">  1        1 0.96901189E-01 0.64050257E+03</pdfrwt>
<pdfrwt beam="2">  1       -1 0.25051050E-01 0.64050257E+03</pdfrwt>
<totfact> 0.45010249E+02</totfact>
</mgrwt>
</event>
<event>
 4    1  0.4305113E-006  0.1547306E+04  0.7818608E-02  0.8853590E-01
         -1   -1    0    0    0  501 -0.00000000000E+00  0.00000000000E+00  0.50801484043E+03  0.50801484045E+03  0.50400000000E-02 0. -1.
          1   -1    0    0  501    0  0.00000000000E+00 -0.00000000000E+00 -0.11781919530E+04  0.11781919530E+04  0.50400000000E-02 0.  1.
   -5000001    1    1    2    0    0 -0.33097727209E+03 -0.49409650577E+03 -0.80046180175E+03  0.10280643986E+04  0.25000000000E+03 0.  0.
    5000001    1    1    2    0    0  0.33097727209E+03  0.49409650577E+03  0.13028468918E+03  0.65814239484E+03  0.25000000000E+03 0.  0.
<mgrwt>
<rscale>  0 0.15473060E+04</rscale>
<asrwt>0</asrwt>
<pdfrwt beam="1">  1        1 0.18126030E+00 0.15473060E+04</pdfrwt>
<pdfrwt beam="2">  1       -1 0.78156129E-01 0.15473060E+04</pdfrwt>
<totfact> 0.17514970E+01</totfact>
</mgrwt>
</event>
<event>
 4    1  0.4305113E-006  0.8608313E+03  0.7818608E-02  0.9475914E-01
          1   -1    0    0  501    0  0.00000000000E+00  0.00000000000E+00  0.60803642256E+03  0.60803642258E+03  0.50400000000E-02 0.  1.
         -1   -1    0    0    0  501 -0.00000000000E+00 -0.00000000000E+00 -0.30468178351E+03  0.30468178355E+03  0.50400000000E-02 0. -1.
   -5000001    1    1    2    0    0  0.27206208060E+03 -0.13495074463E+03  0.33693186208E+03  0.51793103678E+03  0.25000000000E+03 0.  0.
    5000001    1    1    2    0    0 -0.27206208060E+03  0.13495074463E+03 -0.33577223024E+02  0.39478716935E+03  0.25000000000E+03 0.  0.
<mgrwt>
<rscale>  0 0.86083128E+03</rscale>
<asrwt>0</asrwt>
<pdfrwt beam="1">  1        1 0.93544065E-01 0.86083128E+03</pdfrwt>
<pdfrwt beam="2">  1       -1 0.46874121E-01 0.86083128E+03</pdfrwt>
<totfact> 0.15376862E+02</totfact>
</mgrwt>
</event>
<event>
 4    1  0.4305113E-006  0.6729941E+03  0.7818608E-02  0.9764564E-01
          1   -1    0    0  501    0  0.00000000000E+00  0.00000000000E+00  0.52179705811E+03  0.52179705813E+03  0.50400000000E-02 0.  1.
         -1   -1    0    0    0  501 -0.00000000000E+00 -0.00000000000E+00 -0.21700055888E+03  0.21700055894E+03  0.50400000000E-02 0. -1.
   -5000001    1    1    2    0    0  0.22489265092E+03  0.12335281852E+02  0.15369234544E+03  0.36993269747E+03  0.25000000000E+03 0.  0.
    5000001    1    1    2    0    0 -0.22489265092E+03 -0.12335281852E+02  0.15110415380E+03  0.36886491960E+03  0.25000000000E+03 0.  0.
<mgrwt>
<rscale>  0 0.67299407E+03</rscale>
<asrwt>0</asrwt>
<pdfrwt beam="1">  1        1 0.80276470E-01 0.67299407E+03</pdfrwt>
<pdfrwt beam="2">  1       -1 0.33384702E-01 0.67299407E+03</pdfrwt>
<totfact> 0.35691006E+02</totfact>
</mgrwt>
</event>
<event>
 4    1  0.4305113E-006  0.7756162E+03  0.7818608E-02  0.9595998E-01
         -1   -1    0    0    0  501 -0.00000000000E+00  0.00000000000E+00  0.27142375676E+03  0.27142375681E+03  0.50400000000E-02 0. -1.
          1   -1    0    0  501    0  0.00000000000E+00 -0.00000000000E+00 -0.55409706527E+03  0.55409706530E+03  0.50400000000E-02 0.  1.
   -5000001    1    1    2    0    0 -0.11446805227E+03  0.27248525119E+03 -0.16616024831E+03  0.42126046008E+03  0.25000000000E+03 0.  0.
    5000001    1    1    2    0    0  0.11446805227E+03 -0.27248525119E+03 -0.11651306021E+03  0.40426036203E+03  0.25000000000E+03 0.  0.
<mgrwt>
<rscale>  0 0.77561616E+03</rscale>
<asrwt>0</asrwt>
<pdfrwt beam="1">  1        1 0.85245702E-01 0.77561616E+03</pdfrwt>
<pdfrwt beam="2">  1       -1 0.41757501E-01 0.77561616E+03</pdfrwt>
<totfact> 0.21849780E+02</totfact>
</mgrwt>
</event>
<event>
 4    1  0.4305113E-006  0.8123947E+03  0.7818608E-02  0.9542248E-01
          1   -1    0    0  501    0  0.00000000000E+00  0.00000000000E+00  0.22937874022E+04  0.22937874022E+04  0.50400000000E-02 0. -1.
         -1   -1    0    0    0  501 -0.00000000000E+00 -0.00000000000E+00 -0.71931810365E+02  0.71931810542E+02  0.50400000000E-02 0.  1.
   -5000001    1    1    2    0    0  0.17142232131E+03 -0.21155539540E+03  0.16012830356E+04  0.16433954660E+04  0.25000000000E+03 0.  0.
    5000001    1    1    2    0    0 -0.17142232131E+03  0.21155539540E+03  0.62057255624E+03  0.72232374676E+03  0.25000000000E+03 0.  0.
<mgrwt>
<rscale>  0 0.81239468E+03</rscale>
<asrwt>0</asrwt>
<pdfrwt beam="1">  1        1 0.35289044E+00 0.81239468E+03</pdfrwt>
<pdfrwt beam="2">  1       -1 0.11066430E-01 0.81239468E+03</pdfrwt>
<totfact> 0.10404134E+02</totfact>
</mgrwt>
</event>
<event>
 4    1  0.4305113E-006  0.6077425E+03  0.7818608E-02  0.9889472E-01
          1   -1    0    0  501    0  0.00000000000E+00  0.00000000000E+00  0.53713454279E+03  0.53713454282E+03  0.50400000000E-02 0.  1.
         -1   -1    0    0    0  501 -0.00000000000E+00 -0.00000000000E+00 -0.17190802094E+03  0.17190802101E+03  0.50400000000E-02 0. -1.
   -5000001    1    1    2    0    0 -0.10313170836E+03 -0.11518275485E+03  0.27248962555E+03  0.40081643219E+03  0.25000000000E+03 0.  0.
    5000001    1    1    2    0    0  0.10313170836E+03  0.11518275485E+03  0.92736896307E+02  0.30822613163E+03  0.25000000000E+03 0.  0.
<mgrwt>
<rscale>  0 0.60774250E+03</rscale>
<asrwt>0</asrwt>
<pdfrwt beam="1">  1        1 0.82636083E-01 0.60774250E+03</pdfrwt>
<pdfrwt beam="2">  1       -1 0.26447388E-01 0.60774250E+03</pdfrwt>
<totfact> 0.51501063E+02</totfact>
</mgrwt>
</event>
<event>
 4    1  0.4305113E-006  0.6486829E+03  0.7818608E-02  0.9809254E-01
         -1   -1    0    0    0  501 -0.00000000000E+00  0.00000000000E+00  0.63645555170E+03  0.63645555172E+03  0.50400000000E-02 0. -1.
          1   -1    0    0  501    0  0.00000000000E+00 -0.00000000000E+00 -0.16528627055E+03  0.16528627063E+03  0.50400000000E-02 0.  1.
   -5000001    1    1    2    0    0 -0.18174020936E+03 -0.98267292894E+02  0.23141158087E+03  0.39841847888E+03  0.25000000000E+03 0.  0.
    5000001    1    1    2    0    0  0.18174020936E+03  0.98267292894E+02  0.23975770028E+03  0.40332334347E+03  0.25000000000E+03 0.  0.
<mgrwt>
<rscale>  0 0.64868286E+03</rscale>
<asrwt>0</asrwt>
<pdfrwt beam="1">  1        1 0.25428657E-01 0.64868286E+03</pdfrwt>
<pdfrwt beam="2">  1       -1 0.97916239E-01 0.64868286E+03</pdfrwt>
<totfact> 0.19416958E+02</totfact>
</mgrwt>
</event>
<event>
 4    1  0.4305113E-006  0.6290758E+03  0.7818608E-02  0.9846854E-01
          1   -1    0    0  501    0  0.00000000000E+00  0.00000000000E+00  0.20258038563E+03  0.20258038569E+03  0.50400000000E-02 0.  1.
         -1   -1    0    0    0  501 -0.00000000000E+00 -0.00000000000E+00 -0.48836948113E+03  0.48836948115E+03  0.50400000000E-02 0. -1.
   -5000001    1    1    2    0    0 -0.14093044764E+03 -0.88493952796E+02 -0.24558657891E+03  0.38795017527E+03  0.25000000000E+03 0.  0.
    5000001    1    1    2    0    0  0.14093044764E+03  0.88493952796E+02 -0.40202516589E+02  0.30299969157E+03  0.25000000000E+03 0.  0.
<mgrwt>
<rscale>  0 0.62907576E+03</rscale>
<asrwt>0</asrwt>
<pdfrwt beam="1">  1        1 0.31166213E-01 0.62907576E+03</pdfrwt>
<pdfrwt beam="2">  1       -1 0.75133766E-01 0.62907576E+03</pdfrwt>
<totfact> 0.26456777E+02</totfact>
</mgrwt>
</event>
<event>
 4    1  0.4305113E-006  0.8001077E+03  0.7818608E-02  0.9559861E-01
         -1   -1    0    0    0  501 -0.00000000000E+00  0.00000000000E+00  0.15975160669E+03  0.15975160677E+03  0.50400000000E-02 0. -1.
          1   -1    0    0  501    0  0.00000000000E+00 -0.00000000000E+00 -0.10018246809E+04  0.10018246809E+04  0.50400000000E-02 0.  1.
   -5000001    1    1    2    0    0  0.31218540086E+03 -0.82656562938E+01 -0.41540319101E+03  0.57670430611E+03  0.25000000000E+03 0.  0.
    5000001    1    1    2    0    0 -0.31218540086E+03  0.82656562938E+01 -0.42666988315E+03  0.58487198152E+03  0.25000000000E+03 0.  0.
<mgrwt>
<rscale>  0 0.80010775E+03</rscale>
<asrwt>0</asrwt>
<pdfrwt beam="1">  1        1 0.15412687E+00 0.80010775E+03</pdfrwt>
<pdfrwt beam="2">  1       -1 0.24577171E-01 0.80010775E+03</pdfrwt>
<totfact> 0.21965498E+02</totfact>
</mgrwt>
</event>
<event>
 4    1  0.4305113E-006  0.7512768E+03  0.7818608E-02  0.9633349E-01
          1   -1    0    0  501    0  0.00000000000E+00  0.00000000000E+00  0.94285114448E+02  0.94285114583E+02  0.50400000000E-02 0.  1.
         -1   -1    0    0    0  501 -0.00000000000E+00 -0.00000000000E+00 -0.14965694237E+04  0.14965694237E+04  0.50400000000E-02 0. -1.
   -5000001    1    1    2    0    0 -0.82220263019E+02 -0.26411901106E+03 -0.60444718058E+03  0.71019392969E+03  0.25000000000E+03 0.  0.
    5000001    1    1    2    0    0  0.82220263019E+02  0.26411901106E+03 -0.79783712865E+03  0.88066060858E+03  0.25000000000E+03 0.  0.
<mgrwt>
<rscale>  0 0.75127683E+03</rscale>
<asrwt>0</asrwt>
<pdfrwt beam="1">  1        1 0.14505403E-01 0.75127683E+03</pdfrwt>
<pdfrwt beam="2">  1       -1 0.23024143E+00 0.75127683E+03</pdfrwt>
<totfact> 0.38996845E+01</totfact>
</mgrwt>
</event>
<event>
 4    1  0.4305113E-006  0.7447197E+03  0.7818608E-02  0.9643671E-01
         -1   -1    0    0    0  501 -0.00000000000E+00  0.00000000000E+00  0.60746895834E+03  0.60746895836E+03  0.50400000000E-02 0. -1.
          1   -1    0    0  501    0  0.00000000000E+00 -0.00000000000E+00 -0.22824519927E+03  0.22824519932E+03  0.50400000000E-02 0.  1.
   -5000001    1    1    2    0    0 -0.19311899078E+03 -0.15429700544E+03  0.51946748801E+02  0.35538848490E+03  0.25000000000E+03 0.  0.
    5000001    1    1    2    0    0  0.19311899078E+03  0.15429700544E+03  0.32727701027E+03  0.48032567279E+03  0.25000000000E+03 0.  0.
<mgrwt>
<rscale>  0 0.74471974E+03</rscale>
<asrwt>0</asrwt>
<pdfrwt beam="1">  1        1 0.35114647E-01 0.74471974E+03</pdfrwt>
<pdfrwt beam="2">  1       -1 0.93456761E-01 0.74471974E+03</pdfrwt>
<totfact> 0.14109507E+02</totfact>
</mgrwt>
</event>
<event>
 4    1  0.4305113E-006  0.1458693E+04  0.7818608E-02  0.8912396E-01
          1   -1    0    0  501    0  0.00000000000E+00  0.00000000000E+00  0.27699085706E+03  0.27699085711E+03  0.50400000000E-02 0.  1.
         -1   -1    0    0    0  501 -0.00000000000E+00 -0.00000000000E+00 -0.19204459527E+04  0.19204459527E+04  0.50400000000E-02 0. -1.
   -5000001    1    1    2    0    0 -0.53954069168E+03 -0.28531135839E+01 -0.18556321820E+03  0.62293338825E+03  0.25000000000E+03 0.  0.
    5000001    1    1    2    0    0  0.53954069168E+03  0.28531135839E+01 -0.14578918775E+04  0.15745034216E+04  0.25000000000E+03 0.  0.
<mgrwt>
<rscale>  0 0.14586925E+04</rscale>
<asrwt>0</asrwt>
<pdfrwt beam="1">  1        1 0.42613979E-01 0.14586925E+04</pdfrwt>
<pdfrwt beam="2">  1       -1 0.29545321E+00 0.14586925E+04</pdfrwt>
<totfact> 0.33467897E+00</totfact>
</mgrwt>
</event>
<event>
 4    1  0.4305113E-006  0.6690576E+03  0.7818608E-02  0.9771662E-01
          1   -1    0    0  501    0  0.00000000000E+00  0.00000000000E+00  0.26984413230E+03  0.26984413235E+03  0.50400000000E-02 0.  1.
         -1   -1    0    0    0  501 -0.00000000000E+00 -0.00000000000E+00 -0.41471906936E+03  0.41471906939E+03  0.50400000000E-02 0. -1.
   -5000001    1    1    2    0    0  0.19686442251E+03 -0.77616024905E+02 -0.28189820756E+01  0.32754815651E+03  0.25000000000E+03 0.  0.
    5000001    1    1    2    0    0 -0.19686442251E+03  0.77616024905E+02 -0.14205595498E+03  0.35701504523E+03  0.25000000000E+03 0.  0.
<mgrwt>
<rscale>  0 0.66905757E+03</rscale>
<asrwt>0</asrwt>
<pdfrwt beam="1">  1        1 0.41514482E-01 0.66905757E+03</pdfrwt>
<pdfrwt beam="2">  1       -1 0.63802934E-01 0.66905757E+03</pdfrwt>
<totfact> 0.25446853E+02</totfact>
</mgrwt>
</event>
<event>
 4    1  0.4305113E-006  0.7645471E+03  0.7818608E-02  0.9612801E-01
         -1   -1    0    0    0  501 -0.00000000000E+00  0.00000000000E+00  0.50056496427E+02  0.50056496680E+02  0.50400000000E-02 0. -1.
          1   -1    0    0  501    0  0.00000000000E+00 -0.00000000000E+00 -0.29193629156E+04  0.29193629156E+04  0.50400000000E-02 0.  1.
   -5000001    1    1    2    0    0  0.24676046687E+03 -0.15070843630E+03 -0.14136231018E+04  0.14643886215E+04  0.25000000000E+03 0.  0.
    5000001    1    1    2    0    0 -0.24676046687E+03  0.15070843630E+03 -0.14556833173E+04  0.15050307907E+04  0.25000000000E+03 0.  0.
<mgrwt>
<rscale>  0 0.76454713E+03</rscale>
<asrwt>0</asrwt>
<pdfrwt beam="1">  1        1 0.44913262E+00 0.76454713E+03</pdfrwt>
<pdfrwt beam="2">  1       -1 0.77010017E-02 0.76454713E+03</pdfrwt>
<totfact> 0.68574704E+01</totfact>
</mgrwt>
</event>
<event>
 4    1  0.4305113E-006  0.7670997E+03  0.7818608E-02  0.9608899E-01
          1   -1    0    0  501    0  0.00000000000E+00  0.00000000000E+00  0.43370385109E+03  0.43370385112E+03  0.50400000000E-02 0.  1.
         -1   -1    0    0    0  501 -0.00000000000E+00 -0.00000000000E+00 -0.33919575723E+03  0.33919575727E+03  0.50400000000E-02 0. -1.
   -5000001    1    1    2    0    0  0.28382542835E+03  0.16780092899E+02  0.10913551313E+03  0.39401650413E+03  0.25000000000E+03 0.  0.
    5000001    1    1    2    0    0 -0.28382542835E+03 -0.16780092899E+02 -0.14627419269E+02  0.37888310426E+03  0.25000000000E+03 0.  0.
<mgrwt>
<rscale>  0 0.76709975E+03</rscale>
<asrwt>0</asrwt>
<pdfrwt beam="1">  1        1 0.66723670E-01 0.76709975E+03</pdfrwt>
<pdfrwt beam="2">  1       -1 0.52183963E-01 0.76709975E+03</pdfrwt>
<totfact> 0.20157745E+02</totfact>
</mgrwt>
</event>
<event>
 4    1  0.4305113E-006  0.5895792E+03  0.7818608E-02  0.9927265E-01
         -1   -1    0    0    0  501 -0.00000000000E+00  0.00000000000E+00  0.13016335940E+03  0.13016335950E+03  0.50400000000E-02 0. -1.
          1   -1    0    0  501    0  0.00000000000E+00 -0.00000000000E+00 -0.66762966139E+03  0.66762966141E+03  0.50400000000E-02 0.  1.
   -5000001    1    1    2    0    0 -0.13847761112E+03  0.33178004641E+02 -0.35563162741E+03  0.45743926721E+03  0.25000000000E+03 0.  0.
    5000001    1    1    2    0    0  0.13847761112E+03 -0.33178004641E+02 -0.18183467459E+03  0.34035375370E+03  0.25000000000E+03 0.  0.
<mgrwt>
<rscale>  0 0.58957924E+03</rscale>
<asrwt>0</asrwt>
<pdfrwt beam="1">  1        1 0.10271225E+00 0.58957924E+03</pdfrwt>
<pdfrwt beam="2">  1       -1 0.20025133E-01 0.58957924E+03</pdfrwt>
<totfact> 0.60303035E+02</totfact>
</mgrwt>
</event>
<event>
 4    1  0.4305113E-006  0.7922913E+03  0.7818608E-02  0.9571243E-01
          1   -1    0    0  501    0  0.00000000000E+00  0.00000000000E+00  0.81362200928E+03  0.81362200930E+03  0.50400000000E-02 0.  1.
         -1   -1    0    0    0  501 -0.00000000000E+00 -0.00000000000E+00 -0.19287996050E+03  0.19287996056E+03  0.50400000000E-02 0. -1.
   -5000001    1    1    2    0    0  0.60025145539E+02 -0.27648949262E+03  0.46271953794E+03  0.59720919988E+03  0.25000000000E+03 0.  0.
    5000001    1    1    2    0    0 -0.60025145539E+02  0.27648949262E+03  0.15802251085E+03  0.40929276999E+03  0.25000000000E+03 0.  0.
<mgrwt>
<rscale>  0 0.79229131E+03</rscale>
<asrwt>0</asrwt>
<pdfrwt beam="1">  1        1 0.12517261E+00 0.79229131E+03</pdfrwt>
<pdfrwt beam="2">  1       -1 0.29673841E-01 0.79229131E+03</pdfrwt>
<totfact> 0.22599562E+02</totfact>
</mgrwt>
</event>
<event>
 4    1  0.4305113E-006  0.5450307E+03  0.7818608E-02  0.1002651E+00
         -1   -1    0    0    0  501 -0.00000000000E+00  0.00000000000E+00  0.47063756238E+02  0.47063756508E+02  0.50400000000E-02 0. -1.
          1   -1    0    0  501    0  0.00000000000E+00 -0.00000000000E+00 -0.15779578172E+04  0.15779578172E+04  0.50400000000E-02 0.  1.
   -5000001    1    1    2    0    0 -0.19194678354E+02  0.82421188361E+02 -0.96772823725E+03  0.10030750865E+04  0.25000000000E+03 0.  0.
    5000001    1    1    2    0    0  0.19194678354E+02 -0.82421188361E+02 -0.56316582367E+03  0.62194648718E+03  0.25000000000E+03 0.  0.
<mgrwt>
<rscale>  0 0.54503072E+03</rscale>
<asrwt>0</asrwt>
<pdfrwt beam="1">  1        1 0.24276270E+00 0.54503072E+03</pdfrwt>
<pdfrwt beam="2">  1       -1 0.72405791E-02 0.54503072E+03</pdfrwt>
<totfact> 0.62422955E+02</totfact>
</mgrwt>
</event>
<event>
 4    1  0.4305113E-006  0.1056212E+04  0.7818608E-02  0.9248954E-01
         -1   -1    0    0    0  501 -0.00000000000E+00  0.00000000000E+00  0.50025145498E+03  0.50025145501E+03  0.50400000000E-02 0. -1.
          1   -1    0    0  501    0  0.00000000000E+00 -0.00000000000E+00 -0.55751161129E+03  0.55751161131E+03  0.50400000000E-02 0.  1.
   -5000001    1    1    2    0    0 -0.35343570086E+03  0.63491467789E+02  0.26752029799E+03  0.51284994975E+03  0.25000000000E+03 0.  0.
    5000001    1    1    2    0    0  0.35343570086E+03 -0.63491467789E+02 -0.32478045429E+03  0.54491311657E+03  0.25000000000E+03 0.  0.
<mgrwt>
<rscale>  0 0.10562121E+04</rscale>
<asrwt>0</asrwt>
<pdfrwt beam="1">  1        1 0.85771018E-01 0.10562121E+04</pdfrwt>
<pdfrwt beam="2">  1       -1 0.76961762E-01 0.10562121E+04</pdfrwt>
<totfact> 0.64425380E+01</totfact>
</mgrwt>
</event>
<event>
 4    1  0.4305113E-006  0.6642430E+03  0.7818608E-02  0.9780414E-01
         -1   -1    0    0    0  501 -0.00000000000E+00  0.00000000000E+00  0.19367405840E+03  0.19367405847E+03  0.50400000000E-02 0. -1.
          1   -1    0    0  501    0  0.00000000000E+00 -0.00000000000E+00 -0.56953773782E+03  0.56953773785E+03  0.50400000000E-02 0.  1.
   -5000001    1    1    2    0    0 -0.21504769371E+03 -0.38396061972E+02 -0.19851987501E+03  0.38682025402E+03  0.25000000000E+03 0.  0.
    5000001    1    1    2    0    0  0.21504769371E+03  0.38396061972E+02 -0.17734380441E+03  0.37639154229E+03  0.25000000000E+03 0.  0.
<mgrwt>
<rscale>  0 0.66424298E+03</rscale>
<asrwt>0</asrwt>
<pdfrwt beam="1">  1        1 0.87621189E-01 0.66424298E+03</pdfrwt>
<pdfrwt beam="2">  1       -1 0.29796009E-01 0.66424298E+03</pdfrwt>
<totfact> 0.38553207E+02</totfact>
</mgrwt>
</event>
<event>
 4    1  0.4305113E-006  0.9478548E+03  0.7818608E-02  0.9367661E-01
         -1   -1    0    0    0  501 -0.00000000000E+00  0.00000000000E+00  0.10538236215E+04  0.10538236216E+04  0.50400000000E-02 0.  1.
          1   -1    0    0  501    0  0.00000000000E+00 -0.00000000000E+00 -0.21313547018E+03  0.21313547024E+03  0.50400000000E-02 0. -1.
   -5000001    1    1    2    0    0  0.17551680914E+03 -0.24220046068E+03  0.78059791957E+03  0.87252525779E+03  0.25000000000E+03 0.  0.
    5000001    1    1    2    0    0 -0.17551680914E+03  0.24220046068E+03  0.60090231786E+02  0.39443383400E+03  0.25000000000E+03 0.  0.
<mgrwt>
<rscale>  0 0.94785483E+03</rscale>
<asrwt>0</asrwt>
<pdfrwt beam="1">  1        1 0.32790073E-01 0.94785483E+03</pdfrwt>
<pdfrwt beam="2">  1       -1 0.16212671E+00 0.94785483E+03</pdfrwt>
<totfact> 0.38806152E+01</totfact>
</mgrwt>
</event>
<event>
 4    1  0.4305113E-006  0.8241645E+03  0.7818608E-02  0.9525684E-01
         -1   -1    0    0    0  501 -0.00000000000E+00  0.00000000000E+00  0.48761752953E+02  0.48761753213E+02  0.50400000000E-02 0.  1.
          1   -1    0    0  501    0  0.00000000000E+00 -0.00000000000E+00 -0.34824791897E+04  0.34824791897E+04  0.50400000000E-02 0. -1.
   -5000001    1    1    2    0    0  0.20847523702E+03 -0.25259743550E+03 -0.16883083126E+04  0.17378585521E+04  0.25000000000E+03 0.  0.
    5000001    1    1    2    0    0 -0.20847523702E+03  0.25259743550E+03 -0.17454091242E+04  0.17933823908E+04  0.25000000000E+03 0.  0.
<mgrwt>
<rscale>  0 0.82416452E+03</rscale>
<asrwt>0</asrwt>
<pdfrwt beam="1">  1        1 0.53576584E+00 0.82416452E+03</pdfrwt>
<pdfrwt beam="2">  1       -1 0.75018109E-02 0.82416452E+03</pdfrwt>
<totfact> 0.27203590E+01</totfact>
</mgrwt>
</event>
<event>
 4    1  0.4305113E-006  0.5632354E+03  0.7818608E-02  0.9984760E-01
         -1   -1    0    0    0  501 -0.00000000000E+00  0.00000000000E+00  0.91214200047E+02  0.91214200186E+02  0.50400000000E-02 0. -1.
          1   -1    0    0  501    0  0.00000000000E+00 -0.00000000000E+00 -0.86947583580E+03  0.86947583582E+03  0.50400000000E-02 0.  1.
   -5000001    1    1    2    0    0 -0.10573683263E+03  0.73213985742E+02 -0.36120908286E+03  0.45772542754E+03  0.25000000000E+03 0.  0.
    5000001    1    1    2    0    0  0.10573683263E+03 -0.73213985742E+02 -0.41705255290E+03  0.50296460846E+03  0.25000000000E+03 0.  0.
<mgrwt>
<rscale>  0 0.56323545E+03</rscale>
<asrwt>0</asrwt>
<pdfrwt beam="1">  1        1 0.13376551E+00 0.56323545E+03</pdfrwt>
<pdfrwt beam="2">  1       -1 0.14032955E-01 0.56323545E+03</pdfrwt>
<totfact> 0.71562327E+02</totfact>
</mgrwt>
</event>
<event>
 4    1  0.4305113E-006  0.9408300E+03  0.7818608E-02  0.9375934E-01
          1   -1    0    0  501    0  0.00000000000E+00  0.00000000000E+00  0.25999286584E+04  0.25999286584E+04  0.50400000000E-02 0.  1.
         -1   -1    0    0    0  501 -0.00000000000E+00 -0.00000000000E+00 -0.85113979650E+02  0.85113979799E+02  0.50400000000E-02 0. -1.
   -5000001    1    1    2    0    0  0.26559516496E+03  0.28979610710E+03  0.10709682568E+04  0.11679022144E+04  0.25000000000E+03 0.  0.
    5000001    1    1    2    0    0 -0.26559516496E+03 -0.28979610710E+03  0.14438464220E+04  0.15171404238E+04  0.25000000000E+03 0.  0.
<mgrwt>
<rscale>  0 0.94083001E+03</rscale>
<asrwt>0</asrwt>
<pdfrwt beam="1">  1        1 0.39998899E+00 0.94083001E+03</pdfrwt>
<pdfrwt beam="2">  1       -1 0.13094460E-01 0.94083001E+03</pdfrwt>
<totfact> 0.48455294E+01</totfact>
</mgrwt>
</event>
<event>
 4    1  0.4305113E-006  0.1245804E+04  0.7818608E-02  0.9073683E-01
          1   -1    0    0  501    0  0.00000000000E+00  0.00000000000E+00  0.18847340115E+04  0.18847340115E+04  0.50400000000E-02 0.  1.
         -1   -1    0    0    0  501 -0.00000000000E+00 -0.00000000000E+00 -0.20586822125E+03  0.20586822131E+03  0.50400000000E-02 0. -1.
   -5000001    1    1    2    0    0  0.48605942621E+03  0.87446920165E+02  0.36004941989E+03  0.66033045850E+03  0.25000000000E+03 0.  0.
    5000001    1    1    2    0    0 -0.48605942621E+03 -0.87446920165E+02  0.13188163703E+04  0.14302717743E+04  0.25000000000E+03 0.  0.
<mgrwt>
<rscale>  0 0.12458039E+04</rscale>
<asrwt>0</asrwt>
<pdfrwt beam="1">  1        1 0.28995907E+00 0.12458039E+04</pdfrwt>
<pdfrwt beam="2">  1       -1 0.31672035E-01 0.12458039E+04</pdfrwt>
<totfact> 0.32671250E+01</totfact>
</mgrwt>
</event>
<event>
 4    1  0.4305113E-006  0.7358246E+03  0.7818608E-02  0.9657856E-01
          1   -1    0    0  501    0  0.00000000000E+00  0.00000000000E+00  0.20591416808E+04  0.20591416808E+04  0.50400000000E-02 0.  1.
         -1   -1    0    0    0  501 -0.00000000000E+00 -0.00000000000E+00 -0.65735862771E+02  0.65735862964E+02  0.50400000000E-02 0. -1.
   -5000001    1    1    2    0    0  0.15054812457E+03 -0.22389768743E+03  0.10199026916E+04  0.10842031233E+04  0.25000000000E+03 0.  0.
    5000001    1    1    2    0    0 -0.15054812457E+03  0.22389768743E+03  0.97350312647E+03  0.10406744205E+04  0.25000000000E+03 0.  0.
<mgrwt>
<rscale>  0 0.73582459E+03</rscale>
<asrwt>0</asrwt>
<pdfrwt beam="1">  1        1 0.31679104E+00 0.73582459E+03</pdfrwt>
<pdfrwt beam="2">  1       -1 0.10113209E-01 0.73582459E+03</pdfrwt>
<totfact> 0.17379481E+02</totfact>
</mgrwt>
</event>
<event>
 4    1  0.4305113E-006  0.7971258E+03  0.7818608E-02  0.9564187E-01
         -1   -1    0    0    0  501 -0.00000000000E+00  0.00000000000E+00  0.43859918246E+03  0.43859918249E+03  0.50400000000E-02 0. -1.
          1   -1    0    0  501    0  0.00000000000E+00 -0.00000000000E+00 -0.36218125181E+03  0.36218125185E+03  0.50400000000E-02 0.  1.
   -5000001    1    1    2    0    0 -0.23528180659E+03 -0.12289532769E+03  0.19985538949E+03  0.41581602517E+03  0.25000000000E+03 0.  0.
    5000001    1    1    2    0    0  0.23528180659E+03  0.12289532769E+03 -0.12343745884E+03  0.38496440917E+03  0.25000000000E+03 0.  0.
<mgrwt>
<rscale>  0 0.79712584E+03</rscale>
<asrwt>0</asrwt>
<pdfrwt beam="1">  1        1 0.55720193E-01 0.79712584E+03</pdfrwt>
<pdfrwt beam="2">  1       -1 0.67476797E-01 0.79712584E+03</pdfrwt>
<totfact> 0.15416143E+02</totfact>
</mgrwt>
</event>
<event>
 4    1  0.4305113E-006  0.1516138E+04  0.7818608E-02  0.8873792E-01
          1   -1    0    0  501    0  0.00000000000E+00  0.00000000000E+00  0.49602907527E+03  0.49602907529E+03  0.50400000000E-02 0. -1.
         -1   -1    0    0    0  501 -0.00000000000E+00 -0.00000000000E+00 -0.11585385254E+04  0.11585385255E+04  0.50400000000E-02 0.  1.
   -5000001    1    1    2    0    0  0.77100003742E+02 -0.69516011404E+03 -0.16583378935E+03  0.76104719986E+03  0.25000000000E+03 0.  0.
    5000001    1    1    2    0    0 -0.77100003742E+02  0.69516011404E+03 -0.49667566083E+03  0.89352040088E+03  0.25000000000E+03 0.  0.
<mgrwt>
<rscale>  0 0.15161382E+04</rscale>
<asrwt>0</asrwt>
<pdfrwt beam="1">  1        1 0.76312166E-01 0.15161382E+04</pdfrwt>
<pdfrwt beam="2">  1       -1 0.17823670E+00 0.15161382E+04</pdfrwt>
<totfact> 0.92761296E+00</totfact>
</mgrwt>
</event>
<event>
 4    1  0.4305113E-006  0.5771741E+03  0.7818608E-02  0.9953928E-01
          1   -1    0    0  501    0  0.00000000000E+00  0.00000000000E+00  0.39285485042E+03  0.39285485045E+03  0.50400000000E-02 0. -1.
         -1   -1    0    0    0  501 -0.00000000000E+00 -0.00000000000E+00 -0.21199298367E+03  0.21199298373E+03  0.50400000000E-02 0.  1.
   -5000001    1    1    2    0    0  0.15505227522E+02 -0.14196925836E+03  0.11104087108E+03  0.30858670978E+03  0.25000000000E+03 0.  0.
    5000001    1    1    2    0    0 -0.15505227522E+02  0.14196925836E+03  0.69820995673E+02  0.29626112441E+03  0.25000000000E+03 0.  0.
<mgrwt>
<rscale>  0 0.57717405E+03</rscale>
<asrwt>0</asrwt>
<pdfrwt beam="1">  1        1 0.60439208E-01 0.57717405E+03</pdfrwt>
<pdfrwt beam="2">  1       -1 0.32614305E-01 0.57717405E+03</pdfrwt>
<totfact> 0.54643766E+02</totfact>
</mgrwt>
</event>
<event>
 4    1  0.4305113E-006  0.7809108E+03  0.7818608E-02  0.9588067E-01
          1   -1    0    0  501    0  0.00000000000E+00  0.00000000000E+00  0.26820659703E+03  0.26820659708E+03  0.50400000000E-02 0.  1.
         -1   -1    0    0    0  501 -0.00000000000E+00 -0.00000000000E+00 -0.56842528765E+03  0.56842528768E+03  0.50400000000E-02 0. -1.
   -5000001    1    1    2    0    0 -0.29216924957E+03 -0.22248931453E+02 -0.81529912052E+02  0.39370675878E+03  0.25000000000E+03 0.  0.
    5000001    1    1    2    0    0  0.29216924957E+03  0.22248931453E+02 -0.21868877857E+03  0.44292512598E+03  0.25000000000E+03 0.  0.
<mgrwt>
<rscale>  0 0.78091078E+03</rscale>
<asrwt>0</asrwt>
<pdfrwt beam="1">  1        1 0.41262554E-01 0.78091078E+03</pdfrwt>
<pdfrwt beam="2">  1       -1 0.87450044E-01 0.78091078E+03</pdfrwt>
<totfact> 0.13230358E+02</totfact>
</mgrwt>
</event>
<event>
 4    1  0.4305113E-006  0.9443635E+03  0.7818608E-02  0.9371763E-01
         -1   -1    0    0    0  501 -0.00000000000E+00  0.00000000000E+00  0.37808596809E+03  0.37808596813E+03  0.50400000000E-02 0. -1.
          1   -1    0    0  501    0  0.00000000000E+00 -0.00000000000E+00 -0.58969552047E+03  0.58969552050E+03  0.50400000000E-02 0.  1.
   -5000001    1    1    2    0    0 -0.19542150573E+03  0.25223206362E+03  0.14236774983E+03  0.42962676245E+03  0.25000000000E+03 0.  0.
    5000001    1    1    2    0    0  0.19542150573E+03 -0.25223206362E+03 -0.35397730221E+03  0.53815472617E+03  0.25000000000E+03 0.  0.
<mgrwt>
<rscale>  0 0.94436349E+03</rscale>
<asrwt>0</asrwt>
<pdfrwt beam="1">  1        1 0.90722388E-01 0.94436349E+03</pdfrwt>
<pdfrwt beam="2">  1       -1 0.58167072E-01 0.94436349E+03</pdfrwt>
<totfact> 0.10576609E+02</totfact>
</mgrwt>
</event>
<event>
 4    1  0.4305113E-006  0.1024556E+04  0.7818608E-02  0.9282015E-01
          1   -1    0    0  501    0  0.00000000000E+00  0.00000000000E+00  0.30319523897E+03  0.30319523901E+03  0.50400000000E-02 0. -1.
         -1   -1    0    0    0  501 -0.00000000000E+00 -0.00000000000E+00 -0.86554377724E+03  0.86554377725E+03  0.50400000000E-02 0.  1.
   -5000001    1    1    2    0    0 -0.38317712689E+03  0.11081033297E+03 -0.50687749001E+02  0.47346899409E+03  0.25000000000E+03 0.  0.
    5000001    1    1    2    0    0  0.38317712689E+03 -0.11081033297E+03 -0.51166078926E+03  0.69527002217E+03  0.25000000000E+03 0.  0.
<mgrwt>
<rscale>  0 0.10245560E+04</rscale>
<asrwt>0</asrwt>
<pdfrwt beam="1">  1        1 0.46645422E-01 0.10245560E+04</pdfrwt>
<pdfrwt beam="2">  1       -1 0.13316058E+00 0.10245560E+04</pdfrwt>
<totfact> 0.41315061E+01</totfact>
</mgrwt>
</event>
<event>
 4    1  0.4305113E-006  0.5829443E+03  0.7818608E-02  0.9941437E-01
         -1   -1    0    0    0  501 -0.00000000000E+00  0.00000000000E+00  0.30897214132E+03  0.30897214136E+03  0.50400000000E-02 0. -1.
          1   -1    0    0  501    0  0.00000000000E+00 -0.00000000000E+00 -0.27496331707E+03  0.27496331712E+03  0.50400000000E-02 0.  1.
   -5000001    1    1    2    0    0  0.96961194434E+02 -0.10821582795E+03 -0.19716700654E+02  0.28982906502E+03  0.25000000000E+03 0.  0.
    5000001    1    1    2    0    0 -0.96961194434E+02  0.10821582795E+03  0.53725524900E+02  0.29410639345E+03  0.25000000000E+03 0.  0.
<mgrwt>
<rscale>  0 0.58294427E+03</rscale>
<asrwt>0</asrwt>
<pdfrwt beam="1">  1        1 0.42302049E-01 0.58294427E+03</pdfrwt>
<pdfrwt beam="2">  1       -1 0.47534175E-01 0.58294427E+03</pdfrwt>
<totfact> 0.43936994E+02</totfact>
</mgrwt>
</event>
<event>
 4    1  0.4305113E-006  0.6249154E+03  0.7818608E-02  0.9855022E-01
          1   -1    0    0  501    0  0.00000000000E+00  0.00000000000E+00  0.24906393487E+03  0.24906393492E+03  0.50400000000E-02 0. -1.
         -1   -1    0    0    0  501 -0.00000000000E+00 -0.00000000000E+00 -0.39198698348E+03  0.39198698351E+03  0.50400000000E-02 0.  1.
   -5000001    1    1    2    0    0 -0.16715725069E+03 -0.48987788020E+02 -0.14244703376E+03  0.33635176119E+03  0.25000000000E+03 0.  0.
    5000001    1    1    2    0    0  0.16715725069E+03  0.48987788020E+02 -0.47601484570E+00  0.30469915724E+03  0.25000000000E+03 0.  0.
<mgrwt>
<rscale>  0 0.62491542E+03</rscale>
<asrwt>0</asrwt>
<pdfrwt beam="1">  1        1 0.38317529E-01 0.62491542E+03</pdfrwt>
<pdfrwt beam="2">  1       -1 0.60305689E-01 0.62491542E+03</pdfrwt>
<totfact> 0.31603594E+02</totfact>
</mgrwt>
</event>
<event>
 4    1  0.4305113E-006  0.8766888E+03  0.7818608E-02  0.9455200E-01
         -1   -1    0    0    0  501 -0.00000000000E+00  0.00000000000E+00  0.30173263887E+03  0.30173263891E+03  0.50400000000E-02 0. -1.
          1   -1    0    0  501    0  0.00000000000E+00 -0.00000000000E+00 -0.63680819638E+03  0.63680819640E+03  0.50400000000E-02 0.  1.
   -5000001    1    1    2    0    0  0.24743872147E+03 -0.25676757868E+02  0.11113614578E+03  0.36977893352E+03  0.25000000000E+03 0.  0.
    5000001    1    1    2    0    0 -0.24743872147E+03  0.25676757868E+02 -0.44621170329E+03  0.56876190179E+03  0.25000000000E+03 0.  0.
<mgrwt>
<rscale>  0 0.87668881E+03</rscale>
<asrwt>0</asrwt>
<pdfrwt beam="1">  1        1 0.97970492E-01 0.87668881E+03</pdfrwt>
<pdfrwt beam="2">  1       -1 0.46420406E-01 0.87668881E+03</pdfrwt>
<totfact> 0.14625583E+02</totfact>
</mgrwt>
</event>
<event>
 4    1  0.4305113E-006  0.2326094E+04  0.7818608E-02  0.8467703E-01
         -1   -1    0    0    0  501 -0.00000000000E+00  0.00000000000E+00  0.10343774101E+04  0.10343774101E+04  0.50400000000E-02 0. -1.
          1   -1    0    0  501    0  0.00000000000E+00 -0.00000000000E+00 -0.13077216888E+04  0.13077216888E+04  0.50400000000E-02 0.  1.
   -5000001    1    1    2    0    0 -0.38556463192E+03  0.10458955553E+04 -0.35639416303E+03  0.11966931092E+04  0.25000000000E+03 0.  0.
    5000001    1    1    2    0    0  0.38556463192E+03 -0.10458955553E+04  0.83049884305E+02  0.11454059898E+04  0.25000000000E+03 0.  0.
<mgrwt>
<rscale>  0 0.23260935E+04</rscale>
<asrwt>0</asrwt>
<pdfrwt beam="1">  1        1 0.20118795E+00 0.23260935E+04</pdfrwt>
<pdfrwt beam="2">  1       -1 0.15913498E+00 0.23260935E+04</pdfrwt>
<totfact> 0.23899768E+00</totfact>
</mgrwt>
</event>
<event>
 4    1  0.4305113E-006  0.1166401E+04  0.7818608E-02  0.9142785E-01
          1   -1    0    0  501    0  0.00000000000E+00  0.00000000000E+00  0.10245075911E+04  0.10245075911E+04  0.50400000000E-02 0.  1.
         -1   -1    0    0    0  501 -0.00000000000E+00 -0.00000000000E+00 -0.33198682050E+03  0.33198682054E+03  0.50400000000E-02 0. -1.
   -5000001    1    1    2    0    0 -0.96098073353E+02 -0.47855298250E+03  0.57703152961E+03  0.79606104221E+03  0.25000000000E+03 0.  0.
    5000001    1    1    2    0    0  0.96098073353E+02  0.47855298250E+03  0.11548924094E+03  0.56043336940E+03  0.25000000000E+03 0.  0.
<mgrwt>
<rscale>  0 0.11664013E+04</rscale>
<asrwt>0</asrwt>
<pdfrwt beam="1">  1        1 0.15761655E+00 0.11664013E+04</pdfrwt>
<pdfrwt beam="2">  1       -1 0.51074896E-01 0.11664013E+04</pdfrwt>
<totfact> 0.55348253E+01</totfact>
</mgrwt>
</event>
<event>
 4    1  0.4305113E-006  0.6216600E+03  0.7818608E-02  0.9861460E-01
         -1   -1    0    0    0  501 -0.00000000000E+00  0.00000000000E+00  0.78047387167E+02  0.78047387330E+02  0.50400000000E-02 0. -1.
          1   -1    0    0  501    0  0.00000000000E+00 -0.00000000000E+00 -0.12379053054E+04  0.12379053054E+04  0.50400000000E-02 0.  1.
   -5000001    1    1    2    0    0  0.12300726739E+03 -0.13663469544E+03 -0.61752572928E+03  0.69111348862E+03  0.25000000000E+03 0.  0.
    5000001    1    1    2    0    0 -0.12300726739E+03  0.13663469544E+03 -0.54233218896E+03  0.62483920412E+03  0.25000000000E+03 0.  0.
<mgrwt>
<rscale>  0 0.62165995E+03</rscale>
<asrwt>0</asrwt>
<pdfrwt beam="1">  1        1 0.19044696E+00 0.62165995E+03</pdfrwt>
<pdfrwt beam="2">  1       -1 0.12007291E-01 0.62165995E+03</pdfrwt>
<totfact> 0.48173143E+02</totfact>
</mgrwt>
</event>
<event>
 4    1  0.4305113E-006  0.6789767E+03  0.7818608E-02  0.9753876E-01
          1   -1    0    0  501    0  0.00000000000E+00  0.00000000000E+00  0.22148022703E+04  0.22148022703E+04  0.50400000000E-02 0.  1.
         -1   -1    0    0    0  501 -0.00000000000E+00 -0.00000000000E+00 -0.52037301844E+02  0.52037302088E+02  0.50400000000E-02 0. -1.
   -5000001    1    1    2    0    0  0.16399238842E+03  0.16050117713E+03  0.10482976620E+04  0.11018539465E+04  0.25000000000E+03 0.  0.
    5000001    1    1    2    0    0 -0.16399238842E+03 -0.16050117713E+03  0.11144673064E+04  0.11649856258E+04  0.25000000000E+03 0.  0.
<mgrwt>
<rscale>  0 0.67897668E+03</rscale>
<asrwt>0</asrwt>
<pdfrwt beam="1">  1        1 0.34073879E+00 0.67897668E+03</pdfrwt>
<pdfrwt beam="2">  1       -1 0.80057392E-02 0.67897668E+03</pdfrwt>
<totfact> 0.19855299E+02</totfact>
</mgrwt>
</event>
<event>
 4    1  0.4305113E-006  0.7972811E+03  0.7818608E-02  0.9563961E-01
          1   -1    0    0  501    0  0.00000000000E+00  0.00000000000E+00  0.28157831243E+04  0.28157831243E+04  0.50400000000E-02 0.  1.
         -1   -1    0    0    0  501 -0.00000000000E+00 -0.00000000000E+00 -0.56436975885E+02  0.56436976110E+02  0.50400000000E-02 0. -1.
   -5000001    1    1    2    0    0 -0.25471736987E+03  0.15471889732E+03  0.16936385051E+04  0.17377371095E+04  0.25000000000E+03 0.  0.
    5000001    1    1    2    0    0  0.25471736987E+03 -0.15471889732E+03  0.10657076433E+04  0.11344829909E+04  0.25000000000E+03 0.  0.
<mgrwt>
<rscale>  0 0.79728109E+03</rscale>
<asrwt>0</asrwt>
<pdfrwt beam="1">  1        1 0.43319740E+00 0.79728109E+03</pdfrwt>
<pdfrwt beam="2">  1       -1 0.86826117E-02 0.79728109E+03</pdfrwt>
<totfact> 0.66989781E+01</totfact>
</mgrwt>
</event>
<event>
 4    1  0.4305113E-006  0.6657287E+03  0.7818608E-02  0.9777705E-01
          1   -1    0    0  501    0  0.00000000000E+00  0.00000000000E+00  0.13075004343E+04  0.13075004343E+04  0.50400000000E-02 0.  1.
         -1   -1    0    0    0  501 -0.00000000000E+00 -0.00000000000E+00 -0.84740836925E+02  0.84740837075E+02  0.50400000000E-02 0. -1.
   -5000001    1    1    2    0    0  0.11848683123E+03 -0.11264768112E+03  0.91852434490E+03  0.96587556208E+03  0.25000000000E+03 0.  0.
    5000001    1    1    2    0    0 -0.11848683123E+03  0.11264768112E+03  0.30423525251E+03  0.42636570935E+03  0.25000000000E+03 0.  0.
<mgrwt>
<rscale>  0 0.66572872E+03</rscale>
<asrwt>0</asrwt>
<pdfrwt beam="1">  1        1 0.20115390E+00 0.66572872E+03</pdfrwt>
<pdfrwt beam="2">  1       -1 0.13037053E-01 0.66572872E+03</pdfrwt>
<totfact> 0.37599276E+02</totfact>
</mgrwt>
</event>
<event>
 4    1  0.4305113E-006  0.9200067E+03  0.7818608E-02  0.9400912E-01
         -1   -1    0    0    0  501 -0.00000000000E+00  0.00000000000E+00  0.21690288703E+04  0.21690288703E+04  0.50400000000E-02 0. -1.
          1   -1    0    0  501    0  0.00000000000E+00 -0.00000000000E+00 -0.97556604520E+02  0.97556604650E+02  0.50400000000E-02 0.  1.
   -5000001    1    1    2    0    0 -0.14430833664E+03  0.23012613266E+03  0.17118762662E+04  0.17512290780E+04  0.25000000000E+03 0.  0.
    5000001    1    1    2    0    0  0.14430833664E+03 -0.23012613266E+03  0.35959599963E+03  0.51535639698E+03  0.25000000000E+03 0.  0.
<mgrwt>
<rscale>  0 0.92000672E+03</rscale>
<asrwt>0</asrwt>
<pdfrwt beam="1">  1        1 0.15008710E-01 0.92000672E+03</pdfrwt>
<pdfrwt beam="2">  1       -1 0.33369671E+00 0.92000672E+03</pdfrwt>
<totfact> 0.78994814E+00</totfact>
</mgrwt>
</event>
<event>
 4    1  0.4305113E-006  0.9596208E+03  0.7818608E-02  0.9353976E-01
          1   -1    0    0  501    0  0.00000000000E+00  0.00000000000E+00  0.73378779460E+03  0.73378779461E+03  0.50400000000E-02 0.  1.
         -1   -1    0    0    0  501 -0.00000000000E+00 -0.00000000000E+00 -0.31373920914E+03  0.31373920918E+03  0.50400000000E-02 0. -1.
   -5000001    1    1    2    0    0 -0.26644807146E+03 -0.27838699063E+03  0.36137648790E+03  0.58445432443E+03  0.25000000000E+03 0.  0.
    5000001    1    1    2    0    0  0.26644807146E+03  0.27838699063E+03  0.58672097550E+02  0.46307267936E+03  0.25000000000E+03 0.  0.
<mgrwt>
<rscale>  0 0.95962076E+03</rscale>
<asrwt>0</asrwt>
<pdfrwt beam="1">  1        1 0.11289043E+00 0.95962076E+03</pdfrwt>
<pdfrwt beam="2">  1       -1 0.48267571E-01 0.95962076E+03</pdfrwt>
<totfact> 0.10924261E+02</totfact>
</mgrwt>
</event>
<event>
 4    1  0.4305113E-006  0.6393107E+03  0.7818608E-02  0.9827046E-01
         -1   -1    0    0    0  501 -0.00000000000E+00  0.00000000000E+00  0.40795879706E+03  0.40795879709E+03  0.50400000000E-02 0. -1.
          1   -1    0    0  501    0  0.00000000000E+00 -0.00000000000E+00 -0.25046535189E+03  0.25046535194E+03  0.50400000000E-02 0.  1.
   -5000001    1    1    2    0    0 -0.14879765275E+03  0.53953913745E+02 -0.45814524489E+02  0.29941732904E+03  0.25000000000E+03 0.  0.
    5000001    1    1    2    0    0  0.14879765275E+03 -0.53953913745E+02  0.20330796966E+03  0.35900681999E+03  0.25000000000E+03 0.  0.
<mgrwt>
<rscale>  0 0.63931070E+03</rscale>
<asrwt>0</asrwt>
<pdfrwt beam="1">  1        1 0.38533131E-01 0.63931070E+03</pdfrwt>
<pdfrwt beam="2">  1       -1 0.62762892E-01 0.63931070E+03</pdfrwt>
<totfact> 0.28979456E+02</totfact>
</mgrwt>
</event>
<event>
 4    1  0.4305113E-006  0.1540189E+04  0.7818608E-02  0.8858159E-01
         -1   -1    0    0    0  501 -0.00000000000E+00  0.00000000000E+00  0.24376036997E+03  0.24376037002E+03  0.50400000000E-02 0.  1.
          1   -1    0    0  501    0  0.00000000000E+00 -0.00000000000E+00 -0.24329029700E+04  0.24329029700E+04  0.50400000000E-02 0. -1.
   -5000001    1    1    2    0    0 -0.41068812343E+03 -0.44433098648E+03 -0.38981738134E+03  0.76193986053E+03  0.25000000000E+03 0.  0.
    5000001    1    1    2    0    0  0.41068812343E+03  0.44433098648E+03 -0.17993252187E+04  0.19147234794E+04  0.25000000000E+03 0.  0.
<mgrwt>
<rscale>  0 0.15401887E+04</rscale>
<asrwt>0</asrwt>
<pdfrwt beam="1">  1        1 0.37429275E+00 0.15401887E+04</pdfrwt>
<pdfrwt beam="2">  1       -1 0.37501597E-01 0.15401887E+04</pdfrwt>
<totfact> 0.99801417E+00</totfact>
</mgrwt>
</event>
<event>
 4    1  0.4305113E-006  0.8305462E+03  0.7818608E-02  0.9516826E-01
          1   -1    0    0  501    0  0.00000000000E+00  0.00000000000E+00  0.11016491013E+04  0.11016491014E+04  0.50400000000E-02 0.  1.
         -1   -1    0    0    0  501 -0.00000000000E+00 -0.00000000000E+00 -0.15653963659E+03  0.15653963667E+03  0.50400000000E-02 0. -1.
   -5000001    1    1    2    0    0 -0.26388173323E+03 -0.16090955912E+03  0.29060165948E+03  0.49241728223E+03  0.25000000000E+03 0.  0.
    5000001    1    1    2    0    0  0.26388173323E+03  0.16090955912E+03  0.65450780528E+03  0.76577145580E+03  0.25000000000E+03 0.  0.
<mgrwt>
<rscale>  0 0.83054621E+03</rscale>
<asrwt>0</asrwt>
<pdfrwt beam="1">  1        1 0.16948449E+00 0.83054621E+03</pdfrwt>
<pdfrwt beam="2">  1       -1 0.24083020E-01 0.83054621E+03</pdfrwt>
<totfact> 0.19053182E+02</totfact>
</mgrwt>
</event>
<event>
 4    1  0.4305113E-006  0.7406344E+03  0.7818608E-02  0.9650159E-01
         -1   -1    0    0    0  501 -0.00000000000E+00  0.00000000000E+00  0.46097939444E+02  0.46097939719E+02  0.50400000000E-02 0. -1.
          1   -1    0    0  501    0  0.00000000000E+00 -0.00000000000E+00 -0.29748584271E+04  0.29748584271E+04  0.50400000000E-02 0.  1.
   -5000001    1    1    2    0    0 -0.48261028016E+02 -0.26887838386E+03 -0.14513969082E+04  0.14978910832E+04  0.25000000000E+03 0.  0.
    5000001    1    1    2    0    0  0.48261028016E+02  0.26887838386E+03 -0.14773635794E+04  0.15230652836E+04  0.25000000000E+03 0.  0.
<mgrwt>
<rscale>  0 0.74063444E+03</rscale>
<asrwt>0</asrwt>
<pdfrwt beam="1">  1        1 0.45767038E+00 0.74063444E+03</pdfrwt>
<pdfrwt beam="2">  1       -1 0.70919930E-02 0.74063444E+03</pdfrwt>
<totfact> 0.71393770E+01</totfact>
</mgrwt>
</event>
<event>
 4    1  0.4305113E-006  0.9255911E+03  0.7818608E-02  0.9394145E-01
          1   -1    0    0  501    0  0.00000000000E+00  0.00000000000E+00  0.10792521161E+04  0.10792521161E+04  0.50400000000E-02 0.  1.
         -1   -1    0    0    0  501 -0.00000000000E+00 -0.00000000000E+00 -0.19845199786E+03  0.19845199792E+03  0.50400000000E-02 0. -1.
   -5000001    1    1    2    0    0  0.34510427916E+03 -0.16502411891E+03  0.54136730307E+03  0.70845499515E+03  0.25000000000E+03 0.  0.
    5000001    1    1    2    0    0 -0.34510427916E+03  0.16502411891E+03  0.33943281514E+03  0.56924911885E+03  0.25000000000E+03 0.  0.
<mgrwt>
<rscale>  0 0.92559114E+03</rscale>
<asrwt>0</asrwt>
<pdfrwt beam="1">  1        1 0.16603879E+00 0.92559114E+03</pdfrwt>
<pdfrwt beam="2">  1       -1 0.30531076E-01 0.92559114E+03</pdfrwt>
<totfact> 0.13072517E+02</totfact>
</mgrwt>
</event>
<event>
 4    1  0.4305113E-006  0.1472553E+04  0.7818608E-02  0.8902913E-01
          1   -1    0    0  501    0  0.00000000000E+00  0.00000000000E+00  0.33539661339E+04  0.33539661339E+04  0.50400000000E-02 0. -1.
         -1   -1    0    0    0  501 -0.00000000000E+00 -0.00000000000E+00 -0.16163038857E+03  0.16163038865E+03  0.50400000000E-02 0.  1.
   -5000001    1    1    2    0    0  0.43575080768E+02  0.50923735957E+03  0.48049728979E+03  0.74471412068E+03  0.25000000000E+03 0.  0.
    5000001    1    1    2    0    0 -0.43575080768E+02 -0.50923735957E+03  0.27118384556E+04  0.27708824019E+04  0.25000000000E+03 0.  0.
<mgrwt>
<rscale>  0 0.14725527E+04</rscale>
<asrwt>0</asrwt>
<pdfrwt beam="1">  1        1 0.51599478E+00 0.14725527E+04</pdfrwt>
<pdfrwt beam="2">  1       -1 0.24866214E-01 0.14725527E+04</pdfrwt>
<totfact> 0.44974208E+00</totfact>
</mgrwt>
</event>
<event>
 4    1  0.4305113E-006  0.9609543E+03  0.7818608E-02  0.9352438E-01
         -1   -1    0    0    0  501 -0.00000000000E+00  0.00000000000E+00  0.51368964476E+03  0.51368964479E+03  0.50400000000E-02 0. -1.
          1   -1    0    0  501    0  0.00000000000E+00 -0.00000000000E+00 -0.44941202401E+03  0.44941202404E+03  0.50400000000E-02 0.  1.
   -5000001    1    1    2    0    0 -0.34658881809E+03  0.72262528274E+02  0.23999709784E+03  0.49542334300E+03  0.25000000000E+03 0.  0.
    5000001    1    1    2    0    0  0.34658881809E+03 -0.72262528274E+02 -0.17571947709E+03  0.46767832583E+03  0.25000000000E+03 0.  0.
<mgrwt>
<rscale>  0 0.96095432E+03</rscale>
<asrwt>0</asrwt>
<pdfrwt beam="1">  1        1 0.69140311E-01 0.96095432E+03</pdfrwt>
<pdfrwt beam="2">  1       -1 0.79029176E-01 0.96095432E+03</pdfrwt>
<totfact> 0.82566639E+01</totfact>
</mgrwt>
</event>
<event>
 4    1  0.4305113E-006  0.1397243E+04  0.7818608E-02  0.8955817E-01
         -1   -1    0    0    0  501 -0.00000000000E+00  0.00000000000E+00  0.94142885750E+03  0.94142885751E+03  0.50400000000E-02 0. -1.
          1   -1    0    0  501    0  0.00000000000E+00 -0.00000000000E+00 -0.51843733286E+03  0.51843733289E+03  0.50400000000E-02 0.  1.
   -5000001    1    1    2    0    0  0.61007517908E+03 -0.18663875791E+03  0.35378355846E+03  0.77116052565E+03  0.25000000000E+03 0.  0.
    5000001    1    1    2    0    0 -0.61007517908E+03  0.18663875791E+03  0.69207966172E+02  0.68870566475E+03  0.25000000000E+03 0.  0.
<mgrwt>
<rscale>  0 0.13972428E+04</rscale>
<asrwt>0</asrwt>
<pdfrwt beam="1">  1        1 0.79759591E-01 0.13972428E+04</pdfrwt>
<pdfrwt beam="2">  1       -1 0.14483521E+00 0.13972428E+04</pdfrwt>
<totfact> 0.15755235E+01</totfact>
</mgrwt>
</event>
<event>
 4    1  0.4305113E-006  0.5638441E+03  0.7818608E-02  0.9983394E-01
         -1   -1    0    0    0  501 -0.00000000000E+00  0.00000000000E+00  0.12376248176E+03  0.12376248186E+03  0.50400000000E-02 0.  1.
          1   -1    0    0  501    0  0.00000000000E+00 -0.00000000000E+00 -0.64219816365E+03  0.64219816367E+03  0.50400000000E-02 0. -1.
   -5000001    1    1    2    0    0 -0.92944484419E+02 -0.88320893328E+02 -0.29080846540E+03  0.40436223974E+03  0.25000000000E+03 0.  0.
    5000001    1    1    2    0    0  0.92944484419E+02  0.88320893328E+02 -0.22762721650E+03  0.36159840579E+03  0.25000000000E+03 0.  0.
<mgrwt>
<rscale>  0 0.56384409E+03</rscale>
<asrwt>0</asrwt>
<pdfrwt beam="1">  1        1 0.98799716E-01 0.56384409E+03</pdfrwt>
<pdfrwt beam="2">  1       -1 0.19040382E-01 0.56384409E+03</pdfrwt>
<totfact> 0.69444968E+02</totfact>
</mgrwt>
</event>
<event>
 4    1  0.4305113E-006  0.7041290E+03  0.7818608E-02  0.9710197E-01
          1   -1    0    0  501    0  0.00000000000E+00  0.00000000000E+00  0.80541741007E+03  0.80541741009E+03  0.50400000000E-02 0.  1.
         -1   -1    0    0    0  501 -0.00000000000E+00 -0.00000000000E+00 -0.15389464446E+03  0.15389464454E+03  0.50400000000E-02 0. -1.
   -5000001    1    1    2    0    0 -0.24567286263E+03  0.16637250685E+02  0.28680808665E+03  0.45320065326E+03  0.25000000000E+03 0.  0.
    5000001    1    1    2    0    0  0.24567286263E+03 -0.16637250685E+02  0.36471467897E+03  0.50611140137E+03  0.25000000000E+03 0.  0.
<mgrwt>
<rscale>  0 0.70412904E+03</rscale>
<asrwt>0</asrwt>
<pdfrwt beam="1">  1        1 0.12391037E+00 0.70412904E+03</pdfrwt>
<pdfrwt beam="2">  1       -1 0.23676099E-01 0.70412904E+03</pdfrwt>
<totfact> 0.33999178E+02</totfact>
</mgrwt>
</event>
<event>
 4    1  0.4305113E-006  0.6687504E+03  0.7818608E-02  0.9772218E-01
          1   -1    0    0  501    0  0.00000000000E+00  0.00000000000E+00  0.42961539023E+03  0.42961539026E+03  0.50400000000E-02 0.  1.
         -1   -1    0    0    0  501 -0.00000000000E+00 -0.00000000000E+00 -0.26024856219E+03  0.26024856224E+03  0.50400000000E-02 0. -1.
   -5000001    1    1    2    0    0  0.19243731696E+01  0.13382875991E+03  0.26745783563E+03  0.38980448180E+03  0.25000000000E+03 0.  0.
    5000001    1    1    2    0    0 -0.19243731696E+01 -0.13382875991E+03 -0.98091007586E+02  0.30005947071E+03  0.25000000000E+03 0.  0.
<mgrwt>
<rscale>  0 0.66875044E+03</rscale>
<asrwt>0</asrwt>
<pdfrwt beam="1">  1        1 0.66094675E-01 0.66875044E+03</pdfrwt>
<pdfrwt beam="2">  1       -1 0.40038240E-01 0.66875044E+03</pdfrwt>
<totfact> 0.33571063E+02</totfact>
</mgrwt>
</event>
<event>
 4    1  0.4305113E-006  0.8183517E+03  0.7818608E-02  0.9533827E-01
          1   -1    0    0  501    0  0.00000000000E+00  0.00000000000E+00  0.38659854255E+03  0.38659854258E+03  0.50400000000E-02 0.  1.
         -1   -1    0    0    0  501 -0.00000000000E+00 -0.00000000000E+00 -0.43307171437E+03  0.43307171440E+03  0.50400000000E-02 0. -1.
   -5000001    1    1    2    0    0 -0.15598745013E+03  0.26845179012E+03  0.69250942244E+02  0.40459132618E+03  0.25000000000E+03 0.  0.
    5000001    1    1    2    0    0  0.15598745013E+03 -0.26845179012E+03 -0.11572411407E+03  0.41507893080E+03  0.25000000000E+03 0.  0.
<mgrwt>
<rscale>  0 0.81835174E+03</rscale>
<asrwt>0</asrwt>
<pdfrwt beam="1">  1        1 0.59476699E-01 0.81835174E+03</pdfrwt>
<pdfrwt beam="2">  1       -1 0.66626417E-01 0.81835174E+03</pdfrwt>
<totfact> 0.14497954E+02</totfact>
</mgrwt>
</event>
<event>
 4    1  0.4305113E-006  0.6468617E+03  0.7818608E-02  0.9812686E-01
         -1   -1    0    0    0  501 -0.00000000000E+00  0.00000000000E+00  0.10086094685E+04  0.10086094685E+04  0.50400000000E-02 0.  1.
          1   -1    0    0  501    0  0.00000000000E+00 -0.00000000000E+00 -0.10371457284E+03  0.10371457296E+03  0.50400000000E-02 0. -1.
   -5000001    1    1    2    0    0 -0.20137307961E+03 -0.25548263523E+02  0.40075528766E+03  0.51410955209E+03  0.25000000000E+03 0.  0.
    5000001    1    1    2    0    0  0.20137307961E+03  0.25548263523E+02  0.50413960797E+03  0.59821448936E+03  0.25000000000E+03 0.  0.
<mgrwt>
<rscale>  0 0.64686166E+03</rscale>
<asrwt>0</asrwt>
<pdfrwt beam="1">  1        1 0.15956088E-01 0.64686166E+03</pdfrwt>
<pdfrwt beam="2">  1       -1 0.15517069E+00 0.64686166E+03</pdfrwt>
<totfact> 0.11546324E+02</totfact>
</mgrwt>
</event>
<event>
 4    1  0.4305113E-006  0.6445219E+03  0.7818608E-02  0.9817113E-01
          1   -1    0    0  501    0  0.00000000000E+00  0.00000000000E+00  0.10695063067E+04  0.10695063067E+04  0.50400000000E-02 0.  1.
         -1   -1    0    0    0  501 -0.00000000000E+00 -0.00000000000E+00 -0.97102869018E+02  0.97102869149E+02  0.50400000000E-02 0. -1.
   -5000001    1    1    2    0    0  0.18434315972E+03  0.48074828108E+02  0.35746562283E+03  0.47599922388E+03  0.25000000000E+03 0.  0.
    5000001    1    1    2    0    0 -0.18434315972E+03 -0.48074828108E+02  0.61493781486E+03  0.69060995198E+03  0.25000000000E+03 0.  0.
<mgrwt>
<rscale>  0 0.64452193E+03</rscale>
<asrwt>0</asrwt>
<pdfrwt beam="1">  1        1 0.16453943E+00 0.64452193E+03</pdfrwt>
<pdfrwt beam="2">  1       -1 0.14938903E-01 0.64452193E+03</pdfrwt>
<totfact> 0.44947509E+02</totfact>
</mgrwt>
</event>
<event>
 4    1  0.4305113E-006  0.1055696E+04  0.7818608E-02  0.9249483E-01
          1   -1    0    0  501    0  0.00000000000E+00  0.00000000000E+00  0.54563045507E+03  0.54563045509E+03  0.50400000000E-02 0.  1.
         -1   -1    0    0    0  501 -0.00000000000E+00 -0.00000000000E+00 -0.51064460409E+03  0.51064460412E+03  0.50400000000E-02 0. -1.
   -5000001    1    1    2    0    0  0.46469991354E+03  0.23972603216E+00  0.30811154220E+02  0.52857865482E+03  0.25000000000E+03 0.  0.
    5000001    1    1    2    0    0 -0.46469991354E+03 -0.23972603216E+00  0.41746967562E+01  0.52769640439E+03  0.25000000000E+03 0.  0.
<mgrwt>
<rscale>  0 0.10556955E+04</rscale>
<asrwt>0</asrwt>
<pdfrwt beam="1">  1        1 0.83943147E-01 0.10556955E+04</pdfrwt>
<pdfrwt beam="2">  1       -1 0.78560708E-01 0.10556955E+04</pdfrwt>
<totfact> 0.63596226E+01</totfact>
</mgrwt>
</event>
<event>
 4    1  0.4305113E-006  0.7880462E+03  0.7818608E-02  0.9577483E-01
          1   -1    0    0  501    0  0.00000000000E+00  0.00000000000E+00  0.31633544978E+04  0.31633544978E+04  0.50400000000E-02 0.  1.
         -1   -1    0    0    0  501 -0.00000000000E+00 -0.00000000000E+00 -0.49078982927E+02  0.49078983186E+02  0.50400000000E-02 0. -1.
   -5000001    1    1    2    0    0 -0.34710581195E+02  0.15842373502E+03  0.26079720494E+04  0.26249421164E+04  0.25000000000E+03 0.  0.
    5000001    1    1    2    0    0  0.34710581195E+02 -0.15842373502E+03  0.50630346551E+03  0.58749136458E+03  0.25000000000E+03 0.  0.
<mgrwt>
<rscale>  0 0.78804625E+03</rscale>
<asrwt>0</asrwt>
<pdfrwt beam="1">  1        1 0.48667005E+00 0.78804625E+03</pdfrwt>
<pdfrwt beam="2">  1       -1 0.75506108E-02 0.78804625E+03</pdfrwt>
<totfact> 0.47018476E+01</totfact>
</mgrwt>
</event>
<event>
 4    1  0.4305113E-006  0.6097644E+03  0.7818608E-02  0.9885353E-01
         -1   -1    0    0    0  501 -0.00000000000E+00  0.00000000000E+00  0.23787100897E+03  0.23787100903E+03  0.50400000000E-02 0.  1.
          1   -1    0    0  501    0  0.00000000000E+00 -0.00000000000E+00 -0.39077127283E+03  0.39077127286E+03  0.50400000000E-02 0. -1.
   -5000001    1    1    2    0    0 -0.11809471395E+03 -0.12809203505E+03 -0.86719752716E+02  0.31681894896E+03  0.25000000000E+03 0.  0.
    5000001    1    1    2    0    0  0.11809471395E+03  0.12809203505E+03 -0.66180511141E+02  0.31182333293E+03  0.25000000000E+03 0.  0.
<mgrwt>
<rscale>  0 0.60976440E+03</rscale>
<asrwt>0</asrwt>
<pdfrwt beam="1">  1        1 0.60118657E-01 0.60976440E+03</pdfrwt>
<pdfrwt beam="2">  1       -1 0.36595540E-01 0.60976440E+03</pdfrwt>
<totfact> 0.44839365E+02</totfact>
</mgrwt>
</event>
<event>
 4    1  0.4305113E-006  0.1072600E+04  0.7818608E-02  0.9232317E-01
          1   -1    0    0  501    0  0.00000000000E+00  0.00000000000E+00  0.60050207182E+03  0.60050207184E+03  0.50400000000E-02 0.  1.
         -1   -1    0    0    0  501 -0.00000000000E+00 -0.00000000000E+00 -0.47896202453E+03  0.47896202456E+03  0.50400000000E-02 0. -1.
   -5000001    1    1    2    0    0  0.30129203378E+02  0.47273769235E+03  0.87942687446E+02  0.54279149858E+03  0.25000000000E+03 0.  0.
    5000001    1    1    2    0    0 -0.30129203378E+02 -0.47273769235E+03  0.33597359847E+02  0.53667259782E+03  0.25000000000E+03 0.  0.
<mgrwt>
<rscale>  0 0.10726000E+04</rscale>
<asrwt>0</asrwt>
<pdfrwt beam="1">  1        1 0.92384934E-01 0.10726000E+04</pdfrwt>
<pdfrwt beam="2">  1       -1 0.73686466E-01 0.10726000E+04</pdfrwt>
<totfact> 0.63378102E+01</totfact>
</mgrwt>
</event>
<event>
 4    1  0.4305113E-006  0.1016653E+04  0.7818608E-02  0.9290467E-01
          1   -1    0    0  501    0  0.00000000000E+00  0.00000000000E+00  0.49907532532E+03  0.49907532535E+03  0.50400000000E-02 0.  1.
         -1   -1    0    0    0  501 -0.00000000000E+00 -0.00000000000E+00 -0.51774867988E+03  0.51774867990E+03  0.50400000000E-02 0. -1.
   -5000001    1    1    2    0    0  0.26728651513E+02  0.35656515372E+03 -0.27023017342E+03  0.51320315304E+03  0.25000000000E+03 0.  0.
    5000001    1    1    2    0    0 -0.26728651513E+02 -0.35656515372E+03  0.25155681887E+03  0.50362085221E+03  0.25000000000E+03 0.  0.
<mgrwt>
<rscale>  0 0.10166525E+04</rscale>
<asrwt>0</asrwt>
<pdfrwt beam="1">  1        1 0.76780820E-01 0.10166525E+04</pdfrwt>
<pdfrwt beam="2">  1       -1 0.79653643E-01 0.10166525E+04</pdfrwt>
<totfact> 0.70116620E+01</totfact>
</mgrwt>
</event>
<event>
 4    1  0.4305113E-006  0.9517702E+03  0.7818608E-02  0.9363084E-01
          1   -1    0    0  501    0  0.00000000000E+00  0.00000000000E+00  0.93196618073E+03  0.93196618075E+03  0.50400000000E-02 0.  1.
         -1   -1    0    0    0  501 -0.00000000000E+00 -0.00000000000E+00 -0.24299877581E+03  0.24299877586E+03  0.50400000000E-02 0. -1.
   -5000001    1    1    2    0    0  0.17606485392E+03 -0.35695070841E+03  0.25248202668E+03  0.53353520486E+03  0.25000000000E+03 0.  0.
    5000001    1    1    2    0    0 -0.17606485392E+03  0.35695070841E+03  0.43648537824E+03  0.64142975175E+03  0.25000000000E+03 0.  0.
<mgrwt>
<rscale>  0 0.95177023E+03</rscale>
<asrwt>0</asrwt>
<pdfrwt beam="1">  1        1 0.14337941E+00 0.95177023E+03</pdfrwt>
<pdfrwt beam="2">  1       -1 0.37384427E-01 0.95177023E+03</pdfrwt>
<totfact> 0.11855873E+02</totfact>
</mgrwt>
</event>
<event>
 4    1  0.4305113E-006  0.6827718E+03  0.7818608E-02  0.9747157E-01
         -1   -1    0    0    0  501 -0.00000000000E+00  0.00000000000E+00  0.26792366193E+03  0.26792366198E+03  0.50400000000E-02 0. -1.
          1   -1    0    0  501    0  0.00000000000E+00 -0.00000000000E+00 -0.43499087823E+03  0.43499087826E+03  0.50400000000E-02 0.  1.
   -5000001    1    1    2    0    0 -0.19651261949E+03  0.11807811879E+03 -0.43865099192E+02  0.34202894422E+03  0.25000000000E+03 0.  0.
    5000001    1    1    2    0    0  0.19651261949E+03 -0.11807811879E+03 -0.12320211711E+03  0.36088559602E+03  0.25000000000E+03 0.  0.
<mgrwt>
<rscale>  0 0.68277185E+03</rscale>
<asrwt>0</asrwt>
<pdfrwt beam="1">  1        1 0.66921674E-01 0.68277185E+03</pdfrwt>
<pdfrwt beam="2">  1       -1 0.41219025E-01 0.68277185E+03</pdfrwt>
<totfact> 0.31299142E+02</totfact>
</mgrwt>
</event>
<event>
 4    1  0.4305113E-006  0.5820795E+03  0.7818608E-02  0.9943299E-01
          1   -1    0    0  501    0  0.00000000000E+00  0.00000000000E+00  0.28216412581E+03  0.28216412586E+03  0.50400000000E-02 0. -1.
         -1   -1    0    0    0  501 -0.00000000000E+00 -0.00000000000E+00 -0.30019456438E+03  0.30019456442E+03  0.50400000000E-02 0.  1.
   -5000001    1    1    2    0    0 -0.13174943200E+03  0.66722886211E+02  0.10850801795E+02  0.29056427220E+03  0.25000000000E+03 0.  0.
    5000001    1    1    2    0    0  0.13174943200E+03 -0.66722886211E+02 -0.28881240361E+02  0.29179441808E+03  0.25000000000E+03 0.  0.
<mgrwt>
<rscale>  0 0.58207950E+03</rscale>
<asrwt>0</asrwt>
<pdfrwt beam="1">  1        1 0.43409865E-01 0.58207950E+03</pdfrwt>
<pdfrwt beam="2">  1       -1 0.46183779E-01 0.58207950E+03</pdfrwt>
<totfact> 0.44842964E+02</totfact>
</mgrwt>
</event>
<event>
 4    1  0.4305113E-006  0.5510319E+03  0.7818608E-02  0.1001255E+00
          1   -1    0    0  501    0  0.00000000000E+00  0.00000000000E+00  0.26960279635E+04  0.26960279635E+04  0.50400000000E-02 0.  1.
         -1   -1    0    0    0  501 -0.00000000000E+00 -0.00000000000E+00 -0.28155875663E+02  0.28155876114E+02  0.50400000000E-02 0. -1.
   -5000001    1    1    2    0    0  0.23268621269E+02 -0.11296488621E+03  0.13849636061E+04  0.14120646885E+04  0.25000000000E+03 0.  0.
    5000001    1    1    2    0    0 -0.23268621269E+02  0.11296488621E+03  0.12829084817E+04  0.13121191511E+04  0.25000000000E+03 0.  0.
<mgrwt>
<rscale>  0 0.55103186E+03</rscale>
<asrwt>0</asrwt>
<pdfrwt beam="1">  1        1 0.41477353E+00 0.55103186E+03</pdfrwt>
<pdfrwt beam="2">  1       -1 0.43316732E-02 0.55103186E+03</pdfrwt>
<totfact> 0.24448054E+02</totfact>
</mgrwt>
</event>
<event>
 4    1  0.4305113E-006  0.1366039E+04  0.7818608E-02  0.8978775E-01
          1   -1    0    0  501    0  0.00000000000E+00  0.00000000000E+00  0.82215439762E+03  0.82215439763E+03  0.50400000000E-02 0.  1.
         -1   -1    0    0    0  501 -0.00000000000E+00 -0.00000000000E+00 -0.56743095498E+03  0.56743095500E+03  0.50400000000E-02 0. -1.
   -5000001    1    1    2    0    0 -0.15999623492E+03  0.37980276695E+03  0.61961067069E+03  0.78502631816E+03  0.25000000000E+03 0.  0.
    5000001    1    1    2    0    0  0.15999623492E+03 -0.37980276695E+03 -0.36488722805E+03  0.60455903447E+03  0.25000000000E+03 0.  0.
<mgrwt>
<rscale>  0 0.13660393E+04</rscale>
<asrwt>0</asrwt>
<pdfrwt beam="1">  1        1 0.12648529E+00 0.13660393E+04</pdfrwt>
<pdfrwt beam="2">  1       -1 0.87297070E-01 0.13660393E+04</pdfrwt>
<totfact> 0.26724028E+01</totfact>
</mgrwt>
</event>
<event>
 4    1  0.4305113E-006  0.6819461E+03  0.7818608E-02  0.9748615E-01
          1   -1    0    0  501    0  0.00000000000E+00  0.00000000000E+00  0.20699683730E+03  0.20699683736E+03  0.50400000000E-02 0.  1.
         -1   -1    0    0    0  501 -0.00000000000E+00 -0.00000000000E+00 -0.56166380136E+03  0.56166380138E+03  0.50400000000E-02 0. -1.
   -5000001    1    1    2    0    0 -0.12791225080E+03  0.18881520898E+03 -0.13018240435E+03  0.36257438609E+03  0.25000000000E+03 0.  0.
    5000001    1    1    2    0    0  0.12791225080E+03 -0.18881520898E+03 -0.22448455971E+03  0.40608625265E+03  0.25000000000E+03 0.  0.
<mgrwt>
<rscale>  0 0.68194613E+03</rscale>
<asrwt>0</asrwt>
<pdfrwt beam="1">  1        1 0.31845668E-01 0.68194613E+03</pdfrwt>
<pdfrwt beam="2">  1       -1 0.86409815E-01 0.68194613E+03</pdfrwt>
<totfact> 0.19079533E+02</totfact>
</mgrwt>
</event>
<event>
 4    1  0.4305113E-006  0.9211677E+03  0.7818608E-02  0.9399501E-01
          1   -1    0    0  501    0  0.00000000000E+00  0.00000000000E+00  0.60537716774E+03  0.60537716777E+03  0.50400000000E-02 0.  1.
         -1   -1    0    0    0  501 -0.00000000000E+00 -0.00000000000E+00 -0.35042199819E+03  0.35042199823E+03  0.50400000000E-02 0. -1.
   -5000001    1    1    2    0    0  0.30349969317E+03  0.99327079717E+02 -0.99040507193E+02  0.41747689108E+03  0.25000000000E+03 0.  0.
    5000001    1    1    2    0    0 -0.30349969317E+03 -0.99327079717E+02  0.35399567674E+03  0.53832227492E+03  0.25000000000E+03 0.  0.
<mgrwt>
<rscale>  0 0.92116769E+03</rscale>
<asrwt>0</asrwt>
<pdfrwt beam="1">  1        1 0.93134949E-01 0.92116769E+03</pdfrwt>
<pdfrwt beam="2">  1       -1 0.53911076E-01 0.92116769E+03</pdfrwt>
<totfact> 0.11821521E+02</totfact>
</mgrwt>
</event>
<event>
 4    1  0.4305113E-006  0.5714621E+03  0.7818608E-02  0.9966448E-01
          1   -1    0    0  501    0  0.00000000000E+00  0.00000000000E+00  0.12581939127E+04  0.12581939127E+04  0.50400000000E-02 0. -1.
         -1   -1    0    0    0  501 -0.00000000000E+00 -0.00000000000E+00 -0.64888428090E+02  0.64888428286E+02  0.50400000000E-02 0.  1.
   -5000001    1    1    2    0    0 -0.59096925687E+01 -0.13822581037E+03  0.59888098440E+03  0.66355085155E+03  0.25000000000E+03 0.  0.
    5000001    1    1    2    0    0  0.59096925687E+01  0.13822581037E+03  0.59442450020E+03  0.65953148944E+03  0.25000000000E+03 0.  0.
<mgrwt>
<rscale>  0 0.57146207E+03</rscale>
<asrwt>0</asrwt>
<pdfrwt beam="1">  1        1 0.19356827E+00 0.57146207E+03</pdfrwt>
<pdfrwt beam="2">  1       -1 0.99828363E-02 0.57146207E+03</pdfrwt>
<totfact> 0.62621932E+02</totfact>
</mgrwt>
</event>
<event>
 4    1  0.4305113E-006  0.6868747E+03  0.7818608E-02  0.9739945E-01
          1   -1    0    0  501    0  0.00000000000E+00  0.00000000000E+00  0.85438737103E+03  0.85438737104E+03  0.50400000000E-02 0.  1.
         -1   -1    0    0    0  501 -0.00000000000E+00 -0.00000000000E+00 -0.13805121074E+03  0.13805121083E+03  0.50400000000E-02 0. -1.
   -5000001    1    1    2    0    0 -0.11358024594E+03  0.12353469074E+03  0.59684549875E+03  0.66849520676E+03  0.25000000000E+03 0.  0.
    5000001    1    1    2    0    0  0.11358024594E+03 -0.12353469074E+03  0.11949066153E+03  0.32394337511E+03  0.25000000000E+03 0.  0.
<mgrwt>
<rscale>  0 0.68687469E+03</rscale>
<asrwt>0</asrwt>
<pdfrwt beam="1">  1        1 0.13144421E+00 0.68687469E+03</pdfrwt>
<pdfrwt beam="2">  1       -1 0.21238648E-01 0.68687469E+03</pdfrwt>
<totfact> 0.37132888E+02</totfact>
</mgrwt>
</event>
<event>
 4    1  0.4305113E-006  0.8608570E+03  0.7818608E-02  0.9475880E-01
         -1   -1    0    0    0  501 -0.00000000000E+00  0.00000000000E+00  0.30154041387E+03  0.30154041391E+03  0.50400000000E-02 0. -1.
          1   -1    0    0  501    0  0.00000000000E+00 -0.00000000000E+00 -0.61440755312E+03  0.61440755314E+03  0.50400000000E-02 0.  1.
   -5000001    1    1    2    0    0 -0.33690041008E+03  0.93785910000E+02 -0.13334156736E+03  0.45008627708E+03  0.25000000000E+03 0.  0.
    5000001    1    1    2    0    0  0.33690041008E+03 -0.93785910000E+02 -0.17952557189E+03  0.46586168997E+03  0.25000000000E+03 0.  0.
<mgrwt>
<rscale>  0 0.86085703E+03</rscale>
<asrwt>0</asrwt>
<pdfrwt beam="1">  1        1 0.94524239E-01 0.86085703E+03</pdfrwt>
<pdfrwt beam="2">  1       -1 0.46390833E-01 0.86085703E+03</pdfrwt>
<totfact> 0.15442949E+02</totfact>
</mgrwt>
</event>
<event>
 4    1  0.4305113E-006  0.7357506E+03  0.7818608E-02  0.9657974E-01
          1   -1    0    0  501    0  0.00000000000E+00  0.00000000000E+00  0.94830284120E+03  0.94830284122E+03  0.50400000000E-02 0.  1.
         -1   -1    0    0    0  501 -0.00000000000E+00 -0.00000000000E+00 -0.14270992235E+03  0.14270992244E+03  0.50400000000E-02 0. -1.
   -5000001    1    1    2    0    0  0.12253228236E+03  0.23930187144E+03  0.36793579138E+03  0.51976561302E+03  0.25000000000E+03 0.  0.
    5000001    1    1    2    0    0 -0.12253228236E+03 -0.23930187144E+03  0.43765712747E+03  0.57124715064E+03  0.25000000000E+03 0.  0.
<mgrwt>
<rscale>  0 0.73575057E+03</rscale>
<asrwt>0</asrwt>
<pdfrwt beam="1">  1        1 0.14589275E+00 0.73575057E+03</pdfrwt>
<pdfrwt beam="2">  1       -1 0.21955371E-01 0.73575057E+03</pdfrwt>
<totfact> 0.29389596E+02</totfact>
</mgrwt>
</event>
<event>
 4    1  0.4305113E-006  0.6090838E+03  0.7818608E-02  0.9886737E-01
         -1   -1    0    0    0  501 -0.00000000000E+00  0.00000000000E+00  0.21547783632E+03  0.21547783638E+03  0.50400000000E-02 0.  1.
          1   -1    0    0  501    0  0.00000000000E+00 -0.00000000000E+00 -0.43041911173E+03  0.43041911176E+03  0.50400000000E-02 0. -1.
   -5000001    1    1    2    0    0 -0.76174720860E+02  0.15399756869E+03 -0.78859583796E+02  0.31342730133E+03  0.25000000000E+03 0.  0.
    5000001    1    1    2    0    0  0.76174720860E+02 -0.15399756869E+03 -0.13608169162E+03  0.33246964682E+03  0.25000000000E+03 0.  0.
<mgrwt>
<rscale>  0 0.60908383E+03</rscale>
<asrwt>0</asrwt>
<pdfrwt beam="1">  1        1 0.66218325E-01 0.60908383E+03</pdfrwt>
<pdfrwt beam="2">  1       -1 0.33150436E-01 0.60908383E+03</pdfrwt>
<totfact> 0.47017876E+02</totfact>
</mgrwt>
</event>
<event>
 4    1  0.4305113E-006  0.1177145E+04  0.7818608E-02  0.9133100E-01
         -1   -1    0    0    0  501 -0.00000000000E+00  0.00000000000E+00  0.42560144695E+03  0.42560144698E+03  0.50400000000E-02 0. -1.
          1   -1    0    0  501    0  0.00000000000E+00 -0.00000000000E+00 -0.81394872522E+03  0.81394872524E+03  0.50400000000E-02 0.  1.
   -5000001    1    1    2    0    0  0.21702022670E+03 -0.48215475287E+03 -0.12474839603E+03  0.59802436976E+03  0.25000000000E+03 0.  0.
    5000001    1    1    2    0    0 -0.21702022670E+03  0.48215475287E+03 -0.26359888224E+03  0.64152580247E+03  0.25000000000E+03 0.  0.
<mgrwt>
<rscale>  0 0.11771453E+04</rscale>
<asrwt>0</asrwt>
<pdfrwt beam="1">  1        1 0.12522288E+00 0.11771453E+04</pdfrwt>
<pdfrwt beam="2">  1       -1 0.65477146E-01 0.11771453E+04</pdfrwt>
<totfact> 0.50406899E+01</totfact>
</mgrwt>
</event>
<event>
 4    1  0.4305113E-006  0.8089184E+03  0.7818608E-02  0.9547197E-01
          1   -1    0    0  501    0  0.00000000000E+00  0.00000000000E+00  0.18868747367E+04  0.18868747367E+04  0.50400000000E-02 0.  1.
         -1   -1    0    0    0  501 -0.00000000000E+00 -0.00000000000E+00 -0.86697460967E+02  0.86697461113E+02  0.50400000000E-02 0. -1.
   -5000001    1    1    2    0    0  0.53206517610E+02 -0.27988419035E+03  0.55573429803E+03  0.67268618503E+03  0.25000000000E+03 0.  0.
    5000001    1    1    2    0    0 -0.53206517610E+02  0.27988419035E+03  0.12444429777E+04  0.13008860128E+04  0.25000000000E+03 0.  0.
<mgrwt>
<rscale>  0 0.80891841E+03</rscale>
<asrwt>0</asrwt>
<pdfrwt beam="1">  1        1 0.29028840E+00 0.80891841E+03</pdfrwt>
<pdfrwt beam="2">  1       -1 0.13338072E-01 0.80891841E+03</pdfrwt>
<totfact> 0.14464540E+02</totfact>
</mgrwt>
</event>
<event>
 4    1  0.4305113E-006  0.9840707E+03  0.7818608E-02  0.9326190E-01
         -1   -1    0    0    0  501 -0.00000000000E+00  0.00000000000E+00  0.48467889194E+03  0.48467889197E+03  0.50400000000E-02 0. -1.
          1   -1    0    0  501    0  0.00000000000E+00 -0.00000000000E+00 -0.49950350230E+03  0.49950350232E+03  0.50400000000E-02 0.  1.
   -5000001    1    1    2    0    0 -0.38511301221E+03  0.14553425827E+02  0.16888863599E+03  0.48943559918E+03  0.25000000000E+03 0.  0.
    5000001    1    1    2    0    0  0.38511301221E+03 -0.14553425827E+02 -0.18371324635E+03  0.49474679510E+03  0.25000000000E+03 0.  0.
<mgrwt>
<rscale>  0 0.98407074E+03</rscale>
<asrwt>0</asrwt>
<pdfrwt beam="1">  1        1 0.76846692E-01 0.98407074E+03</pdfrwt>
<pdfrwt beam="2">  1       -1 0.74565984E-01 0.98407074E+03</pdfrwt>
<totfact> 0.80650388E+01</totfact>
</mgrwt>
</event>
<event>
 4    1  0.4305113E-006  0.1013458E+04  0.7818608E-02  0.9293906E-01
          1   -1    0    0  501    0  0.00000000000E+00  0.00000000000E+00  0.15841216752E+04  0.15841216752E+04  0.50400000000E-02 0. -1.
         -1   -1    0    0    0  501 -0.00000000000E+00 -0.00000000000E+00 -0.16209245049E+03  0.16209245057E+03  0.50400000000E-02 0.  1.
   -5000001    1    1    2    0    0 -0.18051968108E+03  0.36353134495E+03  0.10071133664E+04  0.11142350411E+04  0.25000000000E+03 0.  0.
    5000001    1    1    2    0    0  0.18051968108E+03 -0.36353134495E+03  0.41491585837E+03  0.63197908474E+03  0.25000000000E+03 0.  0.
<mgrwt>
<rscale>  0 0.10134578E+04</rscale>
<asrwt>0</asrwt>
<pdfrwt beam="1">  1        1 0.24371103E+00 0.10134578E+04</pdfrwt>
<pdfrwt beam="2">  1       -1 0.24937299E-01 0.10134578E+04</pdfrwt>
<totfact> 0.80682272E+01</totfact>
</mgrwt>
</event>
<event>
 4    1  0.4305113E-006  0.7922998E+03  0.7818608E-02  0.9571230E-01
          1   -1    0    0  501    0  0.00000000000E+00  0.00000000000E+00  0.24569148401E+03  0.24569148406E+03  0.50400000000E-02 0.  1.
         -1   -1    0    0    0  501 -0.00000000000E+00 -0.00000000000E+00 -0.63874718686E+03  0.63874718688E+03  0.50400000000E-02 0. -1.
   -5000001    1    1    2    0    0 -0.64578997822E+02 -0.27668117764E+03 -0.32724295727E+03  0.50031077752E+03  0.25000000000E+03 0.  0.
    5000001    1    1    2    0    0  0.64578997822E+02  0.27668117764E+03 -0.65812745586E+02  0.38412789342E+03  0.25000000000E+03 0.  0.
<mgrwt>
<rscale>  0 0.79229980E+03</rscale>
<asrwt>0</asrwt>
<pdfrwt beam="1">  1        1 0.37798690E-01 0.79229980E+03</pdfrwt>
<pdfrwt beam="2">  1       -1 0.98268797E-01 0.79229980E+03</pdfrwt>
<totfact> 0.11429480E+02</totfact>
</mgrwt>
</event>
<event>
 4    1  0.4305113E-006  0.7699822E+03  0.7818608E-02  0.9604513E-01
         -1   -1    0    0    0  501 -0.00000000000E+00  0.00000000000E+00  0.32184036335E+03  0.32184036339E+03  0.50400000000E-02 0. -1.
          1   -1    0    0  501    0  0.00000000000E+00 -0.00000000000E+00 -0.46053313716E+03  0.46053313719E+03  0.50400000000E-02 0.  1.
   -5000001    1    1    2    0    0 -0.50527310887E+02 -0.28386983068E+03 -0.17704645331E+02  0.38203212481E+03  0.25000000000E+03 0.  0.
    5000001    1    1    2    0    0  0.50527310887E+02  0.28386983068E+03 -0.12098812848E+03  0.40034137577E+03  0.25000000000E+03 0.  0.
<mgrwt>
<rscale>  0 0.76998221E+03</rscale>
<asrwt>0</asrwt>
<pdfrwt beam="1">  1        1 0.70851252E-01 0.76998221E+03</pdfrwt>
<pdfrwt beam="2">  1       -1 0.49513902E-01 0.76998221E+03</pdfrwt>
<totfact> 0.20541038E+02</totfact>
</mgrwt>
</event>
<event>
 4    1  0.4305113E-006  0.8392940E+03  0.7818608E-02  0.9504820E-01
         -1   -1    0    0    0  501 -0.00000000000E+00  0.00000000000E+00  0.69466010105E+03  0.69466010107E+03  0.50400000000E-02 0. -1.
          1   -1    0    0  501    0  0.00000000000E+00 -0.00000000000E+00 -0.25351048534E+03  0.25351048539E+03  0.50400000000E-02 0.  1.
   -5000001    1    1    2    0    0 -0.21664519226E+03  0.25111162398E+03  0.28846578906E+03  0.50567252099E+03  0.25000000000E+03 0.  0.
    5000001    1    1    2    0    0  0.21664519226E+03 -0.25111162398E+03  0.15268382665E+03  0.44249806547E+03  0.25000000000E+03 0.  0.
<mgrwt>
<rscale>  0 0.83929404E+03</rscale>
<asrwt>0</asrwt>
<pdfrwt beam="1">  1        1 0.39001613E-01 0.83929404E+03</pdfrwt>
<pdfrwt beam="2">  1       -1 0.10687078E+00 0.83929404E+03</pdfrwt>
<totfact> 0.90212289E+01</totfact>
</mgrwt>
</event>
<event>
 4    1  0.4305113E-006  0.1477567E+04  0.7818608E-02  0.8899509E-01
         -1   -1    0    0    0  501 -0.00000000000E+00  0.00000000000E+00  0.11826662399E+04  0.11826662399E+04  0.50400000000E-02 0. -1.
          1   -1    0    0  501    0  0.00000000000E+00 -0.00000000000E+00 -0.46150051301E+03  0.46150051304E+03  0.50400000000E-02 0.  1.
   -5000001    1    1    2    0    0 -0.61567313203E+03  0.23804516365E+03  0.11785434825E+03  0.71561760239E+03  0.25000000000E+03 0.  0.
    5000001    1    1    2    0    0  0.61567313203E+03 -0.23804516365E+03  0.60331137868E+03  0.92854915060E+03  0.25000000000E+03 0.  0.
<mgrwt>
<rscale>  0 0.14775670E+04</rscale>
<asrwt>0</asrwt>
<pdfrwt beam="1">  1        1 0.71000079E-01 0.14775670E+04</pdfrwt>
<pdfrwt beam="2">  1       -1 0.18194865E+00 0.14775670E+04</pdfrwt>
<totfact> 0.96609070E+00</totfact>
</mgrwt>
</event>
<event>
 4    1  0.4305113E-006  0.6494815E+03  0.7818608E-02  0.9807753E-01
          1   -1    0    0  501    0  0.00000000000E+00  0.00000000000E+00  0.88712254649E+03  0.88712254650E+03  0.50400000000E-02 0.  1.
         -1   -1    0    0    0  501 -0.00000000000E+00 -0.00000000000E+00 -0.11887483523E+03  0.11887483533E+03  0.50400000000E-02 0. -1.
   -5000001    1    1    2    0    0 -0.91117305918E+02 -0.18610924896E+03  0.37763857697E+03  0.49804609305E+03  0.25000000000E+03 0.  0.
    5000001    1    1    2    0    0  0.91117305918E+02  0.18610924896E+03  0.39060913429E+03  0.50795128878E+03  0.25000000000E+03 0.  0.
<mgrwt>
<rscale>  0 0.64948148E+03</rscale>
<asrwt>0</asrwt>
<pdfrwt beam="1">  1        1 0.13648039E+00 0.64948148E+03</pdfrwt>
<pdfrwt beam="2">  1       -1 0.18288436E-01 0.64948148E+03</pdfrwt>
<totfact> 0.44812251E+02</totfact>
</mgrwt>
</event>
<event>
 4    1  0.4305113E-006  0.9170005E+03  0.7818608E-02  0.9404576E-01
         -1   -1    0    0    0  501 -0.00000000000E+00  0.00000000000E+00  0.85362428764E+02  0.85362428913E+02  0.50400000000E-02 0. -1.
          1   -1    0    0  501    0  0.00000000000E+00 -0.00000000000E+00 -0.24627048643E+04  0.24627048643E+04  0.50400000000E-02 0.  1.
   -5000001    1    1    2    0    0 -0.47361378530E+02 -0.37555434067E+03 -0.13737897683E+04  0.14467489383E+04  0.25000000000E+03 0.  0.
    5000001    1    1    2    0    0  0.47361378530E+02  0.37555434067E+03 -0.10035526672E+04  0.11013183549E+04  0.25000000000E+03 0.  0.
<mgrwt>
<rscale>  0 0.91700048E+03</rscale>
<asrwt>0</asrwt>
<pdfrwt beam="1">  1        1 0.37887762E+00 0.91700048E+03</pdfrwt>
<pdfrwt beam="2">  1       -1 0.13132683E-01 0.91700048E+03</pdfrwt>
<totfact> 0.60070067E+01</totfact>
</mgrwt>
</event>
<event>
 4    1  0.4305113E-006  0.8465474E+03  0.7818608E-02  0.9494983E-01
         -1   -1    0    0    0  501 -0.00000000000E+00  0.00000000000E+00  0.61073539239E+03  0.61073539241E+03  0.50400000000E-02 0.  1.
          1   -1    0    0  501    0  0.00000000000E+00 -0.00000000000E+00 -0.29335225897E+03  0.29335225901E+03  0.50400000000E-02 0. -1.
   -5000001    1    1    2    0    0  0.59599752213E+02  0.33232340460E+03  0.21387197671E+03  0.47141510172E+03  0.25000000000E+03 0.  0.
    5000001    1    1    2    0    0 -0.59599752213E+02 -0.33232340460E+03  0.10351115671E+03  0.43267254971E+03  0.25000000000E+03 0.  0.
<mgrwt>
<rscale>  0 0.84654736E+03</rscale>
<asrwt>0</asrwt>
<pdfrwt beam="1">  1        1 0.45131117E-01 0.84654736E+03</pdfrwt>
<pdfrwt beam="2">  1       -1 0.93959290E-01 0.84654736E+03</pdfrwt>
<totfact> 0.10016659E+02</totfact>
</mgrwt>
</event>
<event>
 4    1  0.4305113E-006  0.5717222E+03  0.7818608E-02  0.9965875E-01
          1   -1    0    0  501    0  0.00000000000E+00  0.00000000000E+00  0.10734690207E+03  0.10734690219E+03  0.50400000000E-02 0.  1.
         -1   -1    0    0    0  501 -0.00000000000E+00 -0.00000000000E+00 -0.76123826287E+03  0.76123826288E+03  0.50400000000E-02 0. -1.
   -5000001    1    1    2    0    0 -0.33151878193E+02  0.41291400720E+02 -0.52157814460E+03  0.58081648369E+03  0.25000000000E+03 0.  0.
    5000001    1    1    2    0    0  0.33151878193E+02 -0.41291400720E+02 -0.13231321620E+03  0.28776868138E+03  0.25000000000E+03 0.  0.
<mgrwt>
<rscale>  0 0.57172220E+03</rscale>
<asrwt>0</asrwt>
<pdfrwt beam="1">  1        1 0.16514909E-01 0.57172220E+03</pdfrwt>
<pdfrwt beam="2">  1       -1 0.11711358E+00 0.57172220E+03</pdfrwt>
<totfact> 0.22698614E+02</totfact>
</mgrwt>
</event>
<event>
 4    1  0.4305113E-006  0.1663754E+04  0.7818608E-02  0.8782311E-01
          1   -1    0    0  501    0  0.00000000000E+00  0.00000000000E+00  0.18845393360E+04  0.18845393360E+04  0.50400000000E-02 0.  1.
         -1   -1    0    0    0  501 -0.00000000000E+00 -0.00000000000E+00 -0.36720868615E+03  0.36720868618E+03  0.50400000000E-02 0. -1.
   -5000001    1    1    2    0    0 -0.29829111092E+03 -0.40677029433E+03 -0.70216112194E+02  0.56733584553E+03  0.25000000000E+03 0.  0.
    5000001    1    1    2    0    0  0.29829111092E+03  0.40677029433E+03  0.15875467620E+04  0.16844121767E+04  0.25000000000E+03 0.  0.
<mgrwt>
<rscale>  0 0.16637538E+04</rscale>
<asrwt>0</asrwt>
<pdfrwt beam="1">  1        1 0.28992913E+00 0.16637538E+04</pdfrwt>
<pdfrwt beam="2">  1       -1 0.56493644E-01 0.16637538E+04</pdfrwt>
<totfact> 0.10805218E+01</totfact>
</mgrwt>
</event>
<event>
 4    1  0.4305113E-006  0.6777431E+03  0.7818608E-02  0.9756070E-01
         -1   -1    0    0    0  501 -0.00000000000E+00  0.00000000000E+00  0.91263225070E+03  0.91263225071E+03  0.50400000000E-02 0. -1.
          1   -1    0    0  501    0  0.00000000000E+00 -0.00000000000E+00 -0.12582714900E+03  0.12582714911E+03  0.50400000000E-02 0.  1.
   -5000001    1    1    2    0    0 -0.25043548300E+02 -0.22116101486E+03  0.31240355366E+03  0.45785953539E+03  0.25000000000E+03 0.  0.
    5000001    1    1    2    0    0  0.25043548300E+02  0.22116101486E+03  0.47440154803E+03  0.58059986443E+03  0.25000000000E+03 0.  0.
<mgrwt>
<rscale>  0 0.67774306E+03</rscale>
<asrwt>0</asrwt>
<pdfrwt beam="1">  1        1 0.19358022E-01 0.67774306E+03</pdfrwt>
<pdfrwt beam="2">  1       -1 0.14040497E+00 0.67774306E+03</pdfrwt>
<totfact> 0.11620353E+02</totfact>
</mgrwt>
</event>
<event>
 4    1  0.4305113E-006  0.5845546E+03  0.7818608E-02  0.9937979E-01
         -1   -1    0    0    0  501 -0.00000000000E+00  0.00000000000E+00  0.43899945796E+03  0.43899945799E+03  0.50400000000E-02 0. -1.
          1   -1    0    0  501    0  0.00000000000E+00 -0.00000000000E+00 -0.19459254693E+03  0.19459254700E+03  0.50400000000E-02 0.  1.
   -5000001    1    1    2    0    0 -0.34786691273E+02 -0.12512488089E+03  0.37829347984E+02  0.28424885097E+03  0.25000000000E+03 0.  0.
    5000001    1    1    2    0    0  0.34786691273E+02  0.12512488089E+03  0.20657756304E+03  0.34934315402E+03  0.25000000000E+03 0.  0.
<mgrwt>
<rscale>  0 0.58455461E+03</rscale>
<asrwt>0</asrwt>
<pdfrwt beam="1">  1        1 0.29937315E-01 0.58455461E+03</pdfrwt>
<pdfrwt beam="2">  1       -1 0.67538378E-01 0.58455461E+03</pdfrwt>
<totfact> 0.34721817E+02</totfact>
</mgrwt>
</event>
<event>
 4    1  0.4305113E-006  0.8025740E+03  0.7818608E-02  0.9556299E-01
          1   -1    0    0  501    0  0.00000000000E+00  0.00000000000E+00  0.25150189160E+03  0.25150189165E+03  0.50400000000E-02 0.  1.
         -1   -1    0    0    0  501 -0.00000000000E+00 -0.00000000000E+00 -0.64027848396E+03  0.64027848397E+03  0.50400000000E-02 0. -1.
   -5000001    1    1    2    0    0 -0.22389496439E+03  0.19182366396E+03 -0.74682912803E+02  0.39370396315E+03  0.25000000000E+03 0.  0.
    5000001    1    1    2    0    0  0.22389496439E+03 -0.19182366396E+03 -0.31409367955E+03  0.49807641248E+03  0.25000000000E+03 0.  0.
<mgrwt>
<rscale>  0 0.80257398E+03</rscale>
<asrwt>0</asrwt>
<pdfrwt beam="1">  1        1 0.38692599E-01 0.80257398E+03</pdfrwt>
<pdfrwt beam="2">  1       -1 0.98504381E-01 0.80257398E+03</pdfrwt>
<totfact> 0.11022333E+02</totfact>
</mgrwt>
</event>
<event>
 4    1  0.4305113E-006  0.6062982E+03  0.7818608E-02  0.9892425E-01
          1   -1    0    0  501    0  0.00000000000E+00  0.00000000000E+00  0.28495687702E+03  0.28495687707E+03  0.50400000000E-02 0.  1.
         -1   -1    0    0    0  501 -0.00000000000E+00 -0.00000000000E+00 -0.32250274845E+03  0.32250274849E+03  0.50400000000E-02 0. -1.
   -5000001    1    1    2    0    0 -0.13725023065E+03 -0.10257478173E+03 -0.25122614507E+02  0.30412227380E+03  0.25000000000E+03 0.  0.
    5000001    1    1    2    0    0  0.13725023065E+03  0.10257478173E+03 -0.12423256924E+02  0.30333735176E+03  0.25000000000E+03 0.  0.
<mgrwt>
<rscale>  0 0.60629820E+03</rscale>
<asrwt>0</asrwt>
<pdfrwt beam="1">  1        1 0.43839520E-01 0.60629820E+03</pdfrwt>
<pdfrwt beam="2">  1       -1 0.49615807E-01 0.60629820E+03</pdfrwt>
<totfact> 0.38695599E+02</totfact>
</mgrwt>
</event>
<event>
 4    1  0.4305113E-006  0.1180489E+04  0.7818608E-02  0.9130108E-01
          1   -1    0    0  501    0  0.00000000000E+00  0.00000000000E+00  0.28851896977E+03  0.28851896981E+03  0.50400000000E-02 0. -1.
         -1   -1    0    0    0  501 -0.00000000000E+00 -0.00000000000E+00 -0.12075076387E+04  0.12075076387E+04  0.50400000000E-02 0.  1.
   -5000001    1    1    2    0    0  0.93437212300E+02  0.43947466933E+03 -0.82683538826E+03  0.97366588566E+03  0.25000000000E+03 0.  0.
    5000001    1    1    2    0    0 -0.93437212300E+02 -0.43947466933E+03 -0.92153280637E+02  0.52236072283E+03  0.25000000000E+03 0.  0.
<mgrwt>
<rscale>  0 0.11804895E+04</rscale>
<asrwt>0</asrwt>
<pdfrwt beam="1">  1        1 0.44387535E-01 0.11804895E+04</pdfrwt>
<pdfrwt beam="2">  1       -1 0.18577040E+00 0.11804895E+04</pdfrwt>
<totfact> 0.17308873E+01</totfact>
</mgrwt>
</event>
<event>
 4    1  0.4305113E-006  0.8675357E+03  0.7818608E-02  0.9467099E-01
         -1   -1    0    0    0  501 -0.00000000000E+00  0.00000000000E+00  0.16095838306E+03  0.16095838314E+03  0.50400000000E-02 0. -1.
          1   -1    0    0  501    0  0.00000000000E+00 -0.00000000000E+00 -0.11689638952E+04  0.11689638952E+04  0.50400000000E-02 0.  1.
   -5000001    1    1    2    0    0 -0.64463335380E+02  0.27732616156E+03 -0.82771105924E+03  0.91031363776E+03  0.25000000000E+03 0.  0.
    5000001    1    1    2    0    0  0.64463335380E+02 -0.27732616156E+03 -0.18029445285E+03  0.41960864055E+03  0.25000000000E+03 0.  0.
<mgrwt>
<rscale>  0 0.86753568E+03</rscale>
<asrwt>0</asrwt>
<pdfrwt beam="1">  1        1 0.17984059E+00 0.86753568E+03</pdfrwt>
<pdfrwt beam="2">  1       -1 0.24762829E-01 0.86753568E+03</pdfrwt>
<totfact> 0.16162964E+02</totfact>
</mgrwt>
</event>
<event>
 4    1  0.4305113E-006  0.6869282E+03  0.7818608E-02  0.9739852E-01
         -1   -1    0    0    0  501 -0.00000000000E+00  0.00000000000E+00  0.18318337193E+03  0.18318337200E+03  0.50400000000E-02 0. -1.
          1   -1    0    0  501    0  0.00000000000E+00 -0.00000000000E+00 -0.64398626707E+03  0.64398626709E+03  0.50400000000E-02 0.  1.
   -5000001    1    1    2    0    0 -0.21338113151E+03  0.46432869772E+01 -0.35030135759E+03  0.48037912999E+03  0.25000000000E+03 0.  0.
    5000001    1    1    2    0    0  0.21338113151E+03 -0.46432869772E+01 -0.11050153755E+03  0.34679050910E+03  0.25000000000E+03 0.  0.
<mgrwt>
<rscale>  0 0.68692816E+03</rscale>
<asrwt>0</asrwt>
<pdfrwt beam="1">  1        1 0.99074809E-01 0.68692816E+03</pdfrwt>
<pdfrwt beam="2">  1       -1 0.28182057E-01 0.68692816E+03</pdfrwt>
<totfact> 0.35548095E+02</totfact>
</mgrwt>
</event>
<event>
 4    1  0.4305113E-006  0.9317775E+03  0.7818608E-02  0.9386707E-01
         -1   -1    0    0    0  501 -0.00000000000E+00  0.00000000000E+00  0.13611165241E+03  0.13611165251E+03  0.50400000000E-02 0. -1.
          1   -1    0    0  501    0  0.00000000000E+00 -0.00000000000E+00 -0.15946637567E+04  0.15946637567E+04  0.50400000000E-02 0.  1.
   -5000001    1    1    2    0    0 -0.35608290619E+02 -0.31614902363E+03 -0.11582503277E+04  0.12268911839E+04  0.25000000000E+03 0.  0.
    5000001    1    1    2    0    0  0.35608290619E+02  0.31614902363E+03 -0.30030177657E+03  0.50388422531E+03  0.25000000000E+03 0.  0.
<mgrwt>
<rscale>  0 0.93177748E+03</rscale>
<asrwt>0</asrwt>
<pdfrwt beam="1">  1        1 0.24533287E+00 0.93177748E+03</pdfrwt>
<pdfrwt beam="2">  1       -1 0.20940255E-01 0.93177748E+03</pdfrwt>
<totfact> 0.10737723E+02</totfact>
</mgrwt>
</event>
<event>
 4    1  0.4305113E-006  0.8075218E+03  0.7818608E-02  0.9549193E-01
          1   -1    0    0  501    0  0.00000000000E+00  0.00000000000E+00  0.47558071824E+03  0.47558071827E+03  0.50400000000E-02 0.  1.
         -1   -1    0    0    0  501 -0.00000000000E+00 -0.00000000000E+00 -0.34278695455E+03  0.34278695459E+03  0.50400000000E-02 0. -1.
   -5000001    1    1    2    0    0 -0.30291974765E+01  0.82126666315E+02 -0.24393301722E+03  0.35882764978E+03  0.25000000000E+03 0.  0.
    5000001    1    1    2    0    0  0.30291974765E+01 -0.82126666315E+02  0.37672678091E+03  0.45954002308E+03  0.25000000000E+03 0.  0.
<mgrwt>
<rscale>  0 0.80752180E+03</rscale>
<asrwt>0</asrwt>
<pdfrwt beam="1">  1        1 0.73166264E-01 0.80752180E+03</pdfrwt>
<pdfrwt beam="2">  1       -1 0.52736455E-01 0.80752180E+03</pdfrwt>
<totfact> 0.17406963E+02</totfact>
</mgrwt>
</event>
<event>
 4    1  0.4305113E-006  0.6379116E+03  0.7818608E-02  0.9829730E-01
         -1   -1    0    0    0  501 -0.00000000000E+00  0.00000000000E+00  0.73604264282E+02  0.73604264455E+02  0.50400000000E-02 0. -1.
          1   -1    0    0  501    0  0.00000000000E+00 -0.00000000000E+00 -0.13821589460E+04  0.13821589460E+04  0.50400000000E-02 0.  1.
   -5000001    1    1    2    0    0 -0.10856238410E+03 -0.60035425964E+02 -0.10066550465E+04  0.10446264530E+04  0.25000000000E+03 0.  0.
    5000001    1    1    2    0    0  0.10856238410E+03  0.60035425964E+02 -0.30189963522E+03  0.41113675749E+03  0.25000000000E+03 0.  0.
<mgrwt>
<rscale>  0 0.63791157E+03</rscale>
<asrwt>0</asrwt>
<pdfrwt beam="1">  1        1 0.21263982E+00 0.63791157E+03</pdfrwt>
<pdfrwt beam="2">  1       -1 0.11323734E-01 0.63791157E+03</pdfrwt>
<totfact> 0.41842957E+02</totfact>
</mgrwt>
</event>
<event>
 4    1  0.4305113E-006  0.6116917E+03  0.7818608E-02  0.9881442E-01
         -1   -1    0    0    0  501 -0.00000000000E+00  0.00000000000E+00  0.11509729769E+03  0.11509729780E+03  0.50400000000E-02 0.  1.
          1   -1    0    0  501    0  0.00000000000E+00 -0.00000000000E+00 -0.81271827151E+03  0.81271827153E+03  0.50400000000E-02 0. -1.
   -5000001    1    1    2    0    0  0.12012394118E+03 -0.11038825509E+03 -0.44972459846E+03  0.53978471873E+03  0.25000000000E+03 0.  0.
    5000001    1    1    2    0    0 -0.12012394118E+03  0.11038825509E+03 -0.24789637536E+03  0.38803085061E+03  0.25000000000E+03 0.  0.
<mgrwt>
<rscale>  0 0.61169168E+03</rscale>
<asrwt>0</asrwt>
<pdfrwt beam="1">  1        1 0.12503358E+00 0.61169168E+03</pdfrwt>
<pdfrwt beam="2">  1       -1 0.17707277E-01 0.61169168E+03</pdfrwt>
<totfact> 0.54604102E+02</totfact>
</mgrwt>
</event>
<event>
 4    1  0.4305113E-006  0.1257150E+04  0.7818608E-02  0.9064253E-01
         -1   -1    0    0    0  501 -0.00000000000E+00  0.00000000000E+00  0.15499645368E+04  0.15499645368E+04  0.50400000000E-02 0.  1.
          1   -1    0    0  501    0  0.00000000000E+00 -0.00000000000E+00 -0.25491330380E+03  0.25491330385E+03  0.50400000000E-02 0. -1.
   -5000001    1    1    2    0    0  0.56277286043E+03 -0.53274194743E+02  0.81156630965E+03  0.10201427877E+04  0.25000000000E+03 0.  0.
    5000001    1    1    2    0    0 -0.56277286043E+03  0.53274194743E+02  0.48348492333E+03  0.78473505297E+03  0.25000000000E+03 0.  0.
<mgrwt>
<rscale>  0 0.12571501E+04</rscale>
<asrwt>0</asrwt>
<pdfrwt beam="1">  1        1 0.39217431E-01 0.12571501E+04</pdfrwt>
<pdfrwt beam="2">  1       -1 0.23845608E+00 0.12571501E+04</pdfrwt>
<totfact> 0.88809623E+00</totfact>
</mgrwt>
</event>
<event>
 4    1  0.4305113E-006  0.6808563E+03  0.7818608E-02  0.9750542E-01
         -1   -1    0    0    0  501 -0.00000000000E+00  0.00000000000E+00  0.18826361527E+03  0.18826361534E+03  0.50400000000E-02 0. -1.
          1   -1    0    0  501    0  0.00000000000E+00 -0.00000000000E+00 -0.61557997880E+03  0.61557997882E+03  0.50400000000E-02 0.  1.
   -5000001    1    1    2    0    0 -0.10622590967E+03  0.17681970068E+03 -0.90723601383E+02  0.33657082803E+03  0.25000000000E+03 0.  0.
    5000001    1    1    2    0    0  0.10622590967E+03 -0.17681970068E+03 -0.33659276215E+03  0.46727276613E+03  0.25000000000E+03 0.  0.
<mgrwt>
<rscale>  0 0.68085626E+03</rscale>
<asrwt>0</asrwt>
<pdfrwt beam="1">  1        1 0.94704611E-01 0.68085626E+03</pdfrwt>
<pdfrwt beam="2">  1       -1 0.28963633E-01 0.68085626E+03</pdfrwt>
<totfact> 0.36214855E+02</totfact>
</mgrwt>
</event>
<event>
 4    1  0.4305113E-006  0.9101001E+03  0.7818608E-02  0.9413043E-01
          1   -1    0    0  501    0  0.00000000000E+00  0.00000000000E+00  0.21362907473E+04  0.21362907473E+04  0.50400000000E-02 0.  1.
         -1   -1    0    0    0  501 -0.00000000000E+00 -0.00000000000E+00 -0.96929938006E+02  0.96929938137E+02  0.50400000000E-02 0. -1.
   -5000001    1    1    2    0    0 -0.10761151443E+03 -0.24503878676E+03  0.16824217847E+04  0.17218209276E+04  0.25000000000E+03 0.  0.
    5000001    1    1    2    0    0  0.10761151443E+03  0.24503878676E+03  0.35693902460E+03  0.51139975786E+03  0.25000000000E+03 0.  0.
<mgrwt>
<rscale>  0 0.91010006E+03</rscale>
<asrwt>0</asrwt>
<pdfrwt beam="1">  1        1 0.32866008E+00 0.91010006E+03</pdfrwt>
<pdfrwt beam="2">  1       -1 0.14912300E-01 0.91010006E+03</pdfrwt>
<totfact> 0.81381701E+01</totfact>
</mgrwt>
</event>
<event>
 4    1  0.4305113E-006  0.8475262E+03  0.7818608E-02  0.9493663E-01
         -1   -1    0    0    0  501 -0.00000000000E+00  0.00000000000E+00  0.62546121202E+02  0.62546121405E+02  0.50400000000E-02 0.  1.
          1   -1    0    0  501    0  0.00000000000E+00 -0.00000000000E+00 -0.28710838766E+04  0.28710838766E+04  0.50400000000E-02 0. -1.
   -5000001    1    1    2    0    0 -0.68373280388E+02  0.38280086185E+02 -0.25571546752E+04  0.25705408582E+04  0.25000000000E+03 0.  0.
    5000001    1    1    2    0    0  0.68373280388E+02 -0.38280086185E+02 -0.25138308014E+03  0.36308913981E+03  0.25000000000E+03 0.  0.
<mgrwt>
<rscale>  0 0.84752619E+03</rscale>
<asrwt>0</asrwt>
<pdfrwt beam="1">  1        1 0.44170511E+00 0.84752619E+03</pdfrwt>
<pdfrwt beam="2">  1       -1 0.96224824E-02 0.84752619E+03</pdfrwt>
<totfact> 0.51765575E+01</totfact>
</mgrwt>
</event>
<event>
 4    1  0.4305113E-006  0.9548617E+03  0.7818608E-02  0.9359486E-01
         -1   -1    0    0    0  501 -0.00000000000E+00  0.00000000000E+00  0.28582527089E+03  0.28582527093E+03  0.50400000000E-02 0. -1.
          1   -1    0    0  501    0  0.00000000000E+00 -0.00000000000E+00 -0.79748098166E+03  0.79748098168E+03  0.50400000000E-02 0.  1.
   -5000001    1    1    2    0    0  0.40030938247E+03 -0.54576467263E+02 -0.30921074174E+03  0.56686636457E+03  0.25000000000E+03 0.  0.
    5000001    1    1    2    0    0 -0.40030938247E+03  0.54576467263E+02 -0.20244496904E+03  0.51643988804E+03  0.25000000000E+03 0.  0.
<mgrwt>
<rscale>  0 0.95486170E+03</rscale>
<asrwt>0</asrwt>
<pdfrwt beam="1">  1        1 0.12268938E+00 0.95486170E+03</pdfrwt>
<pdfrwt beam="2">  1       -1 0.43973119E-01 0.95486170E+03</pdfrwt>
<totfact> 0.11411704E+02</totfact>
</mgrwt>
</event>
<event>
 4    1  0.4305113E-006  0.8309779E+03  0.7818608E-02  0.9516229E-01
          1   -1    0    0  501    0  0.00000000000E+00  0.00000000000E+00  0.10987714705E+04  0.10987714706E+04  0.50400000000E-02 0.  1.
         -1   -1    0    0    0  501 -0.00000000000E+00 -0.00000000000E+00 -0.15711282323E+03  0.15711282331E+03  0.50400000000E-02 0. -1.
   -5000001    1    1    2    0    0 -0.18934748132E+03 -0.15762271737E+03  0.13480425338E+03  0.37599145794E+03  0.25000000000E+03 0.  0.
    5000001    1    1    2    0    0  0.18934748132E+03  0.15762271737E+03  0.80685439392E+03  0.87989283592E+03  0.25000000000E+03 0.  0.
<mgrwt>
<rscale>  0 0.83097795E+03</rscale>
<asrwt>0</asrwt>
<pdfrwt beam="1">  1        1 0.16904176E+00 0.83097795E+03</pdfrwt>
<pdfrwt beam="2">  1       -1 0.24171204E-01 0.83097795E+03</pdfrwt>
<totfact> 0.19028674E+02</totfact>
</mgrwt>
</event>
<event>
 4    1  0.4305113E-006  0.5979947E+03  0.7818608E-02  0.9909575E-01
         -1   -1    0    0    0  501 -0.00000000000E+00  0.00000000000E+00  0.53963243157E+03  0.53963243160E+03  0.50400000000E-02 0. -1.
          1   -1    0    0  501    0  0.00000000000E+00 -0.00000000000E+00 -0.16566724320E+03  0.16566724328E+03  0.50400000000E-02 0.  1.
   -5000001    1    1    2    0    0  0.13166407911E+03  0.26297547486E+02  0.29807837128E+03  0.41155522856E+03  0.25000000000E+03 0.  0.
    5000001    1    1    2    0    0 -0.13166407911E+03 -0.26297547486E+02  0.75886817093E+02  0.29374444632E+03  0.25000000000E+03 0.  0.
<mgrwt>
<rscale>  0 0.59799471E+03</rscale>
<asrwt>0</asrwt>
<pdfrwt beam="1">  1        1 0.25487269E-01 0.59799471E+03</pdfrwt>
<pdfrwt beam="2">  1       -1 0.83020373E-01 0.59799471E+03</pdfrwt>
<totfact> 0.27865571E+02</totfact>
</mgrwt>
</event>
<event>
 4    1  0.4305113E-006  0.5292869E+03  0.7818608E-02  0.1006405E+00
         -1   -1    0    0    0  501 -0.00000000000E+00  0.00000000000E+00  0.53281472218E+02  0.53281472457E+02  0.50400000000E-02 0. -1.
          1   -1    0    0  501    0  0.00000000000E+00 -0.00000000000E+00 -0.13144562065E+04  0.13144562065E+04  0.50400000000E-02 0.  1.
   -5000001    1    1    2    0    0 -0.20467616529E+02 -0.67158535947E+02 -0.49864640660E+03  0.56220764055E+03  0.25000000000E+03 0.  0.
    5000001    1    1    2    0    0  0.20467616529E+02  0.67158535947E+02 -0.76252832770E+03  0.80553003843E+03  0.25000000000E+03 0.  0.
<mgrwt>
<rscale>  0 0.52928692E+03</rscale>
<asrwt>0</asrwt>
<pdfrwt beam="1">  1        1 0.20222401E+00 0.52928692E+03</pdfrwt>
<pdfrwt beam="2">  1       -1 0.81971506E-02 0.52928692E+03</pdfrwt>
<totfact> 0.78016646E+02</totfact>
</mgrwt>
</event>
<event>
 4    1  0.4305113E-006  0.9970072E+03  0.7818608E-02  0.9311833E-01
         -1   -1    0    0    0  501 -0.00000000000E+00  0.00000000000E+00  0.67533186911E+03  0.67533186913E+03  0.50400000000E-02 0.  1.
          1   -1    0    0  501    0  0.00000000000E+00 -0.00000000000E+00 -0.36797586953E+03  0.36797586957E+03  0.50400000000E-02 0. -1.
   -5000001    1    1    2    0    0  0.12915880554E+03  0.40663197465E+03  0.21964745995E+03  0.54108831675E+03  0.25000000000E+03 0.  0.
    5000001    1    1    2    0    0 -0.12915880554E+03 -0.40663197465E+03  0.87708539623E+02  0.50221942195E+03  0.25000000000E+03 0.  0.
<mgrwt>
<rscale>  0 0.99700719E+03</rscale>
<asrwt>0</asrwt>
<pdfrwt beam="1">  1        1 0.56611672E-01 0.99700719E+03</pdfrwt>
<pdfrwt beam="2">  1       -1 0.10389721E+00 0.99700719E+03</pdfrwt>
<totfact> 0.58686279E+01</totfact>
</mgrwt>
</event>
<event>
 4    1  0.4305113E-006  0.1200851E+04  0.7818608E-02  0.9112112E-01
          1   -1    0    0  501    0  0.00000000000E+00  0.00000000000E+00  0.61799808238E+03  0.61799808240E+03  0.50400000000E-02 0.  1.
         -1   -1    0    0    0  501 -0.00000000000E+00 -0.00000000000E+00 -0.58335243370E+03  0.58335243372E+03  0.50400000000E-02 0. -1.
   -5000001    1    1    2    0    0 -0.30419832469E+03  0.41276704487E+03 -0.17009821389E+03  0.59527023816E+03  0.25000000000E+03 0.  0.
    5000001    1    1    2    0    0  0.30419832469E+03 -0.41276704487E+03  0.20474386258E+03  0.60608027796E+03  0.25000000000E+03 0.  0.
<mgrwt>
<rscale>  0 0.12008508E+04</rscale>
<asrwt>0</asrwt>
<pdfrwt beam="1">  1        1 0.95076628E-01 0.12008508E+04</pdfrwt>
<pdfrwt beam="2">  1       -1 0.89746528E-01 0.12008508E+04</pdfrwt>
<totfact> 0.39486747E+01</totfact>
</mgrwt>
</event>
<event>
 4    1  0.4305113E-006  0.6968628E+03  0.7818608E-02  0.9722612E-01
         -1   -1    0    0    0  501 -0.00000000000E+00  0.00000000000E+00  0.34186878898E+03  0.34186878902E+03  0.50400000000E-02 0. -1.
          1   -1    0    0  501    0  0.00000000000E+00 -0.00000000000E+00 -0.35511995929E+03  0.35511995933E+03  0.50400000000E-02 0.  1.
   -5000001    1    1    2    0    0 -0.12553835534E+02 -0.22694668368E+03  0.78489942597E+02  0.34687615529E+03  0.25000000000E+03 0.  0.
    5000001    1    1    2    0    0  0.12553835534E+02  0.22694668368E+03 -0.91741112909E+02  0.35011259306E+03  0.25000000000E+03 0.  0.
<mgrwt>
<rscale>  0 0.69686277E+03</rscale>
<asrwt>0</asrwt>
<pdfrwt beam="1">  1        1 0.54633840E-01 0.69686277E+03</pdfrwt>
<pdfrwt beam="2">  1       -1 0.52595198E-01 0.69686277E+03</pdfrwt>
<totfact> 0.25950225E+02</totfact>
</mgrwt>
</event>
<event>
 4    1  0.4305113E-006  0.8639049E+03  0.7818608E-02  0.9471862E-01
         -1   -1    0    0    0  501 -0.00000000000E+00  0.00000000000E+00  0.61917431752E+03  0.61917431754E+03  0.50400000000E-02 0. -1.
          1   -1    0    0  501    0  0.00000000000E+00 -0.00000000000E+00 -0.30134147854E+03  0.30134147859E+03  0.50400000000E-02 0.  1.
   -5000001    1    1    2    0    0  0.33240362206E+03  0.58374760730E+02  0.26644052415E+03  0.49738348742E+03  0.25000000000E+03 0.  0.
    5000001    1    1    2    0    0 -0.33240362206E+03 -0.58374760730E+02  0.51392314824E+02  0.42313230871E+03  0.25000000000E+03 0.  0.
<mgrwt>
<rscale>  0 0.86390487E+03</rscale>
<asrwt>0</asrwt>
<pdfrwt beam="1">  1        1 0.46360228E-01 0.86390487E+03</pdfrwt>
<pdfrwt beam="2">  1       -1 0.95257587E-01 0.86390487E+03</pdfrwt>
<totfact> 0.93707337E+01</totfact>
</mgrwt>
</event>
<event>
 4    1  0.4305113E-006  0.5956842E+03  0.7818608E-02  0.9914401E-01
          1   -1    0    0  501    0  0.00000000000E+00  0.00000000000E+00  0.12462375844E+04  0.12462375844E+04  0.50400000000E-02 0.  1.
         -1   -1    0    0    0  501 -0.00000000000E+00 -0.00000000000E+00 -0.71182194300E+02  0.71182194478E+02  0.50400000000E-02 0. -1.
   -5000001    1    1    2    0    0  0.43825074108E+02 -0.14297878405E+03  0.45036600587E+03  0.53637030963E+03  0.25000000000E+03 0.  0.
    5000001    1    1    2    0    0 -0.43825074108E+02  0.14297878405E+03  0.72468938419E+03  0.78104946921E+03  0.25000000000E+03 0.  0.
<mgrwt>
<rscale>  0 0.59568423E+03</rscale>
<asrwt>0</asrwt>
<pdfrwt beam="1">  1        1 0.19172886E+00 0.59568423E+03</pdfrwt>
<pdfrwt beam="2">  1       -1 0.10951107E-01 0.59568423E+03</pdfrwt>
<totfact> 0.55093041E+02</totfact>
</mgrwt>
</event>
<event>
 4    1  0.4305113E-006  0.1419739E+04  0.7818608E-02  0.8939653E-01
          1   -1    0    0  501    0  0.00000000000E+00  0.00000000000E+00  0.27643643623E+04  0.27643643623E+04  0.50400000000E-02 0.  1.
         -1   -1    0    0    0  501 -0.00000000000E+00 -0.00000000000E+00 -0.18228941585E+03  0.18228941592E+03  0.50400000000E-02 0. -1.
   -5000001    1    1    2    0    0 -0.36922243772E+03 -0.21992862818E+03  0.23943628765E+03  0.55183652095E+03  0.25000000000E+03 0.  0.
    5000001    1    1    2    0    0  0.36922243772E+03  0.21992862818E+03  0.23426386588E+04  0.23948172573E+04  0.25000000000E+03 0.  0.
<mgrwt>
<rscale>  0 0.14197385E+04</rscale>
<asrwt>0</asrwt>
<pdfrwt beam="1">  1        1 0.42528681E+00 0.14197385E+04</pdfrwt>
<pdfrwt beam="2">  1       -1 0.28044526E-01 0.14197385E+04</pdfrwt>
<totfact> 0.99291133E+00</totfact>
</mgrwt>
</event>
<event>
 4    1  0.4305113E-006  0.6380153E+03  0.7818608E-02  0.9829531E-01
         -1   -1    0    0    0  501 -0.00000000000E+00  0.00000000000E+00  0.59091769446E+03  0.59091769449E+03  0.50400000000E-02 0.  1.
          1   -1    0    0  501    0  0.00000000000E+00 -0.00000000000E+00 -0.17221667284E+03  0.17221667291E+03  0.50400000000E-02 0. -1.
   -5000001    1    1    2    0    0 -0.52669269684E+02 -0.18660156401E+03  0.16044621974E+03  0.35473537333E+03  0.25000000000E+03 0.  0.
    5000001    1    1    2    0    0  0.52669269684E+02  0.18660156401E+03  0.25825480188E+03  0.40839899407E+03  0.25000000000E+03 0.  0.
<mgrwt>
<rscale>  0 0.63801530E+03</rscale>
<asrwt>0</asrwt>
<pdfrwt beam="1">  1        1 0.26494873E-01 0.63801530E+03</pdfrwt>
<pdfrwt beam="2">  1       -1 0.90910413E-01 0.63801530E+03</pdfrwt>
<totfact> 0.21724109E+02</totfact>
</mgrwt>
</event>
<event>
 4    1  0.4305113E-006  0.5915661E+03  0.7818608E-02  0.9923060E-01
          1   -1    0    0  501    0  0.00000000000E+00  0.00000000000E+00  0.25816042693E+03  0.25816042698E+03  0.50400000000E-02 0.  1.
         -1   -1    0    0    0  501 -0.00000000000E+00 -0.00000000000E+00 -0.33888852530E+03  0.33888852534E+03  0.50400000000E-02 0. -1.
   -5000001    1    1    2    0    0  0.15294105231E+03  0.39248923791E+02 -0.47927699176E+02  0.29954717133E+03  0.25000000000E+03 0.  0.
    5000001    1    1    2    0    0 -0.15294105231E+03 -0.39248923791E+02 -0.32800399194E+02  0.29750178098E+03  0.25000000000E+03 0.  0.
<mgrwt>
<rscale>  0 0.59156608E+03</rscale>
<asrwt>0</asrwt>
<pdfrwt beam="1">  1        1 0.39716989E-01 0.59156608E+03</pdfrwt>
<pdfrwt beam="2">  1       -1 0.52136697E-01 0.59156608E+03</pdfrwt>
<totfact> 0.40025641E+02</totfact>
</mgrwt>
</event>
<event>
 4    1  0.4305113E-006  0.1617302E+04  0.7818608E-02  0.8809989E-01
         -1   -1    0    0    0  501 -0.00000000000E+00  0.00000000000E+00  0.23822791718E+04  0.23822791718E+04  0.50400000000E-02 0. -1.
          1   -1    0    0  501    0  0.00000000000E+00 -0.00000000000E+00 -0.27449191790E+03  0.27449191795E+03  0.50400000000E-02 0.  1.
   -5000001    1    1    2    0    0 -0.10915830926E+03  0.69558968272E+03  0.15619580311E+04  0.17314656895E+04  0.25000000000E+03 0.  0.
    5000001    1    1    2    0    0  0.10915830926E+03 -0.69558968272E+03  0.54582922282E+03  0.92530540022E+03  0.25000000000E+03 0.  0.
<mgrwt>
<rscale>  0 0.16173019E+04</rscale>
<asrwt>0</asrwt>
<pdfrwt beam="1">  1        1 0.42229526E-01 0.16173019E+04</pdfrwt>
<pdfrwt beam="2">  1       -1 0.36650448E+00 0.16173019E+04</pdfrwt>
<totfact> 0.11427386E+00</totfact>
</mgrwt>
</event>
<event>
 4    1  0.4305113E-006  0.7151156E+03  0.7818608E-02  0.9691726E-01
          1   -1    0    0  501    0  0.00000000000E+00  0.00000000000E+00  0.22935642813E+03  0.22935642818E+03  0.50400000000E-02 0.  1.
         -1   -1    0    0    0  501 -0.00000000000E+00 -0.00000000000E+00 -0.55741870915E+03  0.55741870917E+03  0.50400000000E-02 0. -1.
   -5000001    1    1    2    0    0 -0.23241173907E+03  0.97902546276E+02 -0.21002241330E+03  0.41256458780E+03  0.25000000000E+03 0.  0.
    5000001    1    1    2    0    0  0.23241173907E+03 -0.97902546276E+02 -0.11803986772E+03  0.37421054955E+03  0.25000000000E+03 0.  0.
<mgrwt>
<rscale>  0 0.71511555E+03</rscale>
<asrwt>0</asrwt>
<pdfrwt beam="1">  1        1 0.35285604E-01 0.71511555E+03</pdfrwt>
<pdfrwt beam="2">  1       -1 0.85756724E-01 0.71511555E+03</pdfrwt>
<totfact> 0.16958660E+02</totfact>
</mgrwt>
</event>
<event>
 4    1  0.4305113E-006  0.7737251E+03  0.7818608E-02  0.9598847E-01
          1   -1    0    0  501    0  0.00000000000E+00  0.00000000000E+00  0.10133160355E+04  0.10133160355E+04  0.50400000000E-02 0.  1.
         -1   -1    0    0    0  501 -0.00000000000E+00 -0.00000000000E+00 -0.14769590519E+03  0.14769590527E+03  0.50400000000E-02 0. -1.
   -5000001    1    1    2    0    0  0.25699050593E+03 -0.10145583460E+03  0.58893361749E+03  0.69690760673E+03  0.25000000000E+03 0.  0.
    5000001    1    1    2    0    0 -0.25699050593E+03  0.10145583460E+03  0.27668651282E+03  0.46410433406E+03  0.25000000000E+03 0.  0.
<mgrwt>
<rscale>  0 0.77372509E+03</rscale>
<asrwt>0</asrwt>
<pdfrwt beam="1">  1        1 0.15589477E+00 0.77372509E+03</pdfrwt>
<pdfrwt beam="2">  1       -1 0.22722447E-01 0.77372509E+03</pdfrwt>
<totfact> 0.24620867E+02</totfact>
</mgrwt>
</event>
<event>
 4    1  0.4305113E-006  0.5817837E+03  0.7818608E-02  0.9943937E-01
          1   -1    0    0  501    0  0.00000000000E+00  0.00000000000E+00  0.19651427034E+04  0.19651427034E+04  0.50400000000E-02 0.  1.
         -1   -1    0    0    0  501 -0.00000000000E+00 -0.00000000000E+00 -0.43059499891E+02  0.43059500186E+02  0.50400000000E-02 0. -1.
   -5000001    1    1    2    0    0 -0.84197386574E+02 -0.11618582461E+03  0.82603612326E+03  0.87488514828E+03  0.25000000000E+03 0.  0.
    5000001    1    1    2    0    0  0.84197386574E+02  0.11618582461E+03  0.10960470803E+04  0.11333170553E+04  0.25000000000E+03 0.  0.
<mgrwt>
<rscale>  0 0.58178368E+03</rscale>
<asrwt>0</asrwt>
<pdfrwt beam="1">  1        1 0.30232961E+00 0.58178368E+03</pdfrwt>
<pdfrwt beam="2">  1       -1 0.66245393E-02 0.58178368E+03</pdfrwt>
<totfact> 0.39433512E+02</totfact>
</mgrwt>
</event>
<event>
 4    1  0.4305113E-006  0.2853744E+04  0.7818608E-02  0.8286775E-01
         -1   -1    0    0    0  501 -0.00000000000E+00  0.00000000000E+00  0.12676514714E+04  0.12676514714E+04  0.50400000000E-02 0. -1.
          1   -1    0    0  501    0  0.00000000000E+00 -0.00000000000E+00 -0.16060909056E+04  0.16060909056E+04  0.50400000000E-02 0.  1.
   -5000001    1    1    2    0    0 -0.13059430483E+04 -0.12603998974E+03  0.33638463414E+03  0.13773263761E+04  0.25000000000E+03 0.  0.
    5000001    1    1    2    0    0  0.13059430483E+04  0.12603998974E+03 -0.67482406831E+03  0.14964160008E+04  0.25000000000E+03 0.  0.
<mgrwt>
<rscale>  0 0.28537439E+04</rscale>
<asrwt>0</asrwt>
<pdfrwt beam="1">  1        1 0.24709091E+00 0.28537439E+04</pdfrwt>
<pdfrwt beam="2">  1       -1 0.19502330E+00 0.28537439E+04</pdfrwt>
<totfact> 0.77613978E-01</totfact>
</mgrwt>
</event>
<event>
 4    1  0.4305113E-006  0.8419156E+03  0.7818608E-02  0.9501252E-01
          1   -1    0    0  501    0  0.00000000000E+00  0.00000000000E+00  0.14226242481E+04  0.14226242481E+04  0.50400000000E-02 0.  1.
         -1   -1    0    0    0  501 -0.00000000000E+00 -0.00000000000E+00 -0.12456239917E+03  0.12456239927E+03  0.50400000000E-02 0. -1.
   -5000001    1    1    2    0    0  0.19493550073E+03 -0.24840197751E+03  0.87411777351E+03  0.96243715319E+03  0.25000000000E+03 0.  0.
    5000001    1    1    2    0    0 -0.19493550073E+03  0.24840197751E+03  0.42394407542E+03  0.58474949419E+03  0.25000000000E+03 0.  0.
<mgrwt>
<rscale>  0 0.84191565E+03</rscale>
<asrwt>0</asrwt>
<pdfrwt beam="1">  1        1 0.21886525E+00 0.84191565E+03</pdfrwt>
<pdfrwt beam="2">  1       -1 0.19163447E-01 0.84191565E+03</pdfrwt>
<totfact> 0.16457875E+02</totfact>
</mgrwt>
</event>
<event>
 4    1  0.4305113E-006  0.1044258E+04  0.7818608E-02  0.9261292E-01
          1   -1    0    0  501    0  0.00000000000E+00  0.00000000000E+00  0.22633433049E+04  0.22633433049E+04  0.50400000000E-02 0.  1.
         -1   -1    0    0    0  501 -0.00000000000E+00 -0.00000000000E+00 -0.12044963691E+03  0.12044963702E+03  0.50400000000E-02 0. -1.
   -5000001    1    1    2    0    0  0.35424891587E+03 -0.28996525672E+03  0.11248231967E+04  0.12398787716E+04  0.25000000000E+03 0.  0.
    5000001    1    1    2    0    0 -0.35424891587E+03  0.28996525672E+03  0.10180704713E+04  0.11439141703E+04  0.25000000000E+03 0.  0.
<mgrwt>
<rscale>  0 0.10442584E+04</rscale>
<asrwt>0</asrwt>
<pdfrwt beam="1">  1        1 0.34820664E+00 0.10442584E+04</pdfrwt>
<pdfrwt beam="2">  1       -1 0.18530715E-01 0.10442584E+04</pdfrwt>
<totfact> 0.46143322E+01</totfact>
</mgrwt>
</event>
<event>
 4    1  0.4305113E-006  0.5597411E+03  0.7818608E-02  0.9992641E-01
          1   -1    0    0  501    0  0.00000000000E+00  0.00000000000E+00  0.61445368591E+03  0.61445368594E+03  0.50400000000E-02 0.  1.
         -1   -1    0    0    0  501 -0.00000000000E+00 -0.00000000000E+00 -0.12747505380E+03  0.12747505390E+03  0.50400000000E-02 0. -1.
   -5000001    1    1    2    0    0 -0.33849750879E+02 -0.11822916623E+03  0.20833081742E+03  0.34788743994E+03  0.25000000000E+03 0.  0.
    5000001    1    1    2    0    0  0.33849750879E+02  0.11822916623E+03  0.27864781470E+03  0.39404129989E+03  0.25000000000E+03 0.  0.
<mgrwt>
<rscale>  0 0.55974107E+03</rscale>
<asrwt>0</asrwt>
<pdfrwt beam="1">  1        1 0.94531335E-01 0.55974107E+03</pdfrwt>
<pdfrwt beam="2">  1       -1 0.19611547E-01 0.55974107E+03</pdfrwt>
<totfact> 0.70503594E+02</totfact>
</mgrwt>
</event>
<event>
 4    1  0.4305113E-006  0.1152066E+04  0.7818608E-02  0.9155880E-01
          1   -1    0    0  501    0  0.00000000000E+00  0.00000000000E+00  0.80692843082E+03  0.80692843083E+03  0.50400000000E-02 0.  1.
         -1   -1    0    0    0  501 -0.00000000000E+00 -0.00000000000E+00 -0.41120630907E+03  0.41120630910E+03  0.50400000000E-02 0. -1.
   -5000001    1    1    2    0    0 -0.12744839455E+02 -0.48457205200E+03  0.19188823645E+01  0.54541377560E+03  0.25000000000E+03 0.  0.
    5000001    1    1    2    0    0  0.12744839455E+02  0.48457205200E+03  0.39380323938E+03  0.67272096433E+03  0.25000000000E+03 0.  0.
<mgrwt>
<rscale>  0 0.11520661E+04</rscale>
<asrwt>0</asrwt>
<pdfrwt beam="1">  1        1 0.12414284E+00 0.11520661E+04</pdfrwt>
<pdfrwt beam="2">  1       -1 0.63262509E-01 0.11520661E+04</pdfrwt>
<totfact> 0.54880948E+01</totfact>
</mgrwt>
</event>
<event>
 4    1  0.4305113E-006  0.9504536E+03  0.7818608E-02  0.9364621E-01
         -1   -1    0    0    0  501 -0.00000000000E+00  0.00000000000E+00  0.11645221599E+03  0.11645221610E+03  0.50400000000E-02 0. -1.
          1   -1    0    0  501    0  0.00000000000E+00 -0.00000000000E+00 -0.19393407162E+04  0.19393407162E+04  0.50400000000E-02 0.  1.
   -5000001    1    1    2    0    0  0.23316899104E+03  0.24551423252E+03 -0.13887458433E+04  0.14511237142E+04  0.25000000000E+03 0.  0.
    5000001    1    1    2    0    0 -0.23316899104E+03 -0.24551423252E+03 -0.43414265699E+03  0.60466921815E+03  0.25000000000E+03 0.  0.
<mgrwt>
<rscale>  0 0.95045363E+03</rscale>
<asrwt>0</asrwt>
<pdfrwt beam="1">  1        1 0.29836009E+00 0.95045363E+03</pdfrwt>
<pdfrwt beam="2">  1       -1 0.17915727E-01 0.95045363E+03</pdfrwt>
<totfact> 0.81369244E+01</totfact>
</mgrwt>
</event>
<event>
 4    1  0.4305113E-006  0.6041473E+03  0.7818608E-02  0.9896839E-01
         -1   -1    0    0    0  501 -0.00000000000E+00  0.00000000000E+00  0.11365071473E+04  0.11365071473E+04  0.50400000000E-02 0. -1.
          1   -1    0    0  501    0  0.00000000000E+00 -0.00000000000E+00 -0.80288526016E+02  0.80288526174E+02  0.50400000000E-02 0.  1.
   -5000001    1    1    2    0    0  0.88061767043E+02 -0.12022901240E+03  0.36524834596E+03  0.46702916875E+03  0.25000000000E+03 0.  0.
    5000001    1    1    2    0    0 -0.88061767043E+02  0.12022901240E+03  0.69097027530E+03  0.74976650471E+03  0.25000000000E+03 0.  0.
<mgrwt>
<rscale>  0 0.60414728E+03</rscale>
<asrwt>0</asrwt>
<pdfrwt beam="1">  1        1 0.12352081E-01 0.60414728E+03</pdfrwt>
<pdfrwt beam="2">  1       -1 0.17484726E+00 0.60414728E+03</pdfrwt>
<totfact> 0.11698852E+02</totfact>
</mgrwt>
</event>
<event>
 4    1  0.4305113E-006  0.7639630E+03  0.7818608E-02  0.9613696E-01
         -1   -1    0    0    0  501 -0.00000000000E+00  0.00000000000E+00  0.46978205532E+03  0.46978205535E+03  0.50400000000E-02 0. -1.
          1   -1    0    0  501    0  0.00000000000E+00 -0.00000000000E+00 -0.31059051165E+03  0.31059051169E+03  0.50400000000E-02 0.  1.
   -5000001    1    1    2    0    0  0.16239517221E+03  0.65061945494E+02 -0.15513259329E+03  0.34230303856E+03  0.25000000000E+03 0.  0.
    5000001    1    1    2    0    0 -0.16239517221E+03 -0.65061945494E+02  0.31432413695E+03  0.43806952848E+03  0.25000000000E+03 0.  0.
<mgrwt>
<rscale>  0 0.76396295E+03</rscale>
<asrwt>0</asrwt>
<pdfrwt beam="1">  1        1 0.47783155E-01 0.76396295E+03</pdfrwt>
<pdfrwt beam="2">  1       -1 0.72274163E-01 0.76396295E+03</pdfrwt>
<totfact> 0.16400110E+02</totfact>
</mgrwt>
</event>
<event>
 4    1  0.4305113E-006  0.6236191E+03  0.7818608E-02  0.9857580E-01
         -1   -1    0    0    0  501 -0.00000000000E+00  0.00000000000E+00  0.86078624042E+02  0.86078624190E+02  0.50400000000E-02 0. -1.
          1   -1    0    0  501    0  0.00000000000E+00 -0.00000000000E+00 -0.11294929703E+04  0.11294929703E+04  0.50400000000E-02 0.  1.
   -5000001    1    1    2    0    0  0.86808702835E+02 -0.16482699933E+03 -0.51266685166E+03  0.60002582560E+03  0.25000000000E+03 0.  0.
    5000001    1    1    2    0    0 -0.86808702835E+02  0.16482699933E+03 -0.53074749463E+03  0.61554576894E+03  0.25000000000E+03 0.  0.
<mgrwt>
<rscale>  0 0.62361912E+03</rscale>
<asrwt>0</asrwt>
<pdfrwt beam="1">  1        1 0.17376814E+00 0.62361912E+03</pdfrwt>
<pdfrwt beam="2">  1       -1 0.13242866E-01 0.62361912E+03</pdfrwt>
<totfact> 0.49327987E+02</totfact>
</mgrwt>
</event>
<event>
 4    1  0.4305113E-006  0.8245605E+03  0.7818608E-02  0.9525132E-01
         -1   -1    0    0    0  501 -0.00000000000E+00  0.00000000000E+00  0.24931028703E+03  0.24931028708E+03  0.50400000000E-02 0. -1.
          1   -1    0    0  501    0  0.00000000000E+00 -0.00000000000E+00 -0.68178102515E+03  0.68178102517E+03  0.50400000000E-02 0.  1.
   -5000001    1    1    2    0    0  0.17501817360E+03  0.21131435365E+03 -0.13639970049E+02  0.37144470104E+03  0.25000000000E+03 0.  0.
    5000001    1    1    2    0    0 -0.17501817360E+03 -0.21131435365E+03 -0.41883076807E+03  0.55964661120E+03  0.25000000000E+03 0.  0.
<mgrwt>
<rscale>  0 0.82456055E+03</rscale>
<asrwt>0</asrwt>
<pdfrwt beam="1">  1        1 0.10488939E+00 0.82456055E+03</pdfrwt>
<pdfrwt beam="2">  1       -1 0.38355429E-01 0.82456055E+03</pdfrwt>
<totfact> 0.18827653E+02</totfact>
</mgrwt>
</event>
<event>
 4    1  0.4305113E-006  0.6870958E+03  0.7818608E-02  0.9739558E-01
          1   -1    0    0  501    0  0.00000000000E+00  0.00000000000E+00  0.73604684765E+03  0.73604684767E+03  0.50400000000E-02 0.  1.
         -1   -1    0    0    0  501 -0.00000000000E+00 -0.00000000000E+00 -0.16035004816E+03  0.16035004824E+03  0.50400000000E-02 0. -1.
   -5000001    1    1    2    0    0 -0.12616439561E+03 -0.16011091931E+03  0.13363743420E+03  0.34915888220E+03  0.25000000000E+03 0.  0.
    5000001    1    1    2    0    0  0.12616439561E+03  0.16011091931E+03  0.44205936529E+03  0.54723801371E+03  0.25000000000E+03 0.  0.
<mgrwt>
<rscale>  0 0.68709576E+03</rscale>
<asrwt>0</asrwt>
<pdfrwt beam="1">  1        1 0.11323798E+00 0.68709576E+03</pdfrwt>
<pdfrwt beam="2">  1       -1 0.24669238E-01 0.68709576E+03</pdfrwt>
<totfact> 0.36542371E+02</totfact>
</mgrwt>
</event>
<event>
 4    1  0.4305113E-006  0.8031562E+03  0.7818608E-02  0.9555460E-01
         -1   -1    0    0    0  501 -0.00000000000E+00  0.00000000000E+00  0.56845366889E+03  0.56845366892E+03  0.50400000000E-02 0. -1.
          1   -1    0    0  501    0  0.00000000000E+00 -0.00000000000E+00 -0.28369060367E+03  0.28369060371E+03  0.50400000000E-02 0.  1.
   -5000001    1    1    2    0    0  0.10820698004E+03  0.29419587577E+03  0.16622443361E+03  0.43403977488E+03  0.25000000000E+03 0.  0.
    5000001    1    1    2    0    0 -0.10820698004E+03 -0.29419587577E+03  0.11853863162E+03  0.41810449775E+03  0.25000000000E+03 0.  0.
<mgrwt>
<rscale>  0 0.80315619E+03</rscale>
<asrwt>0</asrwt>
<pdfrwt beam="1">  1        1 0.43644709E-01 0.80315619E+03</pdfrwt>
<pdfrwt beam="2">  1       -1 0.87454410E-01 0.80315619E+03</pdfrwt>
<totfact> 0.12286625E+02</totfact>
</mgrwt>
</event>
<event>
 4    1  0.4305113E-006  0.5834293E+03  0.7818608E-02  0.9940394E-01
         -1   -1    0    0    0  501 -0.00000000000E+00  0.00000000000E+00  0.10371016178E+03  0.10371016190E+03  0.50400000000E-02 0. -1.
          1   -1    0    0  501    0  0.00000000000E+00 -0.00000000000E+00 -0.82053139174E+03  0.82053139176E+03  0.50400000000E-02 0.  1.
   -5000001    1    1    2    0    0 -0.10922549243E+03  0.10321815338E+03 -0.36417659869E+03  0.46659274578E+03  0.25000000000E+03 0.  0.
    5000001    1    1    2    0    0  0.10922549243E+03 -0.10321815338E+03 -0.35264463127E+03  0.45764880787E+03  0.25000000000E+03 0.  0.
<mgrwt>
<rscale>  0 0.58342932E+03</rscale>
<asrwt>0</asrwt>
<pdfrwt beam="1">  1        1 0.12623559E+00 0.58342932E+03</pdfrwt>
<pdfrwt beam="2">  1       -1 0.15955410E-01 0.58342932E+03</pdfrwt>
<totfact> 0.63822453E+02</totfact>
</mgrwt>
</event>
<event>
 4    1  0.4305113E-006  0.9639016E+03  0.7818608E-02  0.9349048E-01
         -1   -1    0    0    0  501 -0.00000000000E+00  0.00000000000E+00  0.39068616303E+03  0.39068616306E+03  0.50400000000E-02 0. -1.
          1   -1    0    0  501    0  0.00000000000E+00 -0.00000000000E+00 -0.59453488527E+03  0.59453488529E+03  0.50400000000E-02 0.  1.
   -5000001    1    1    2    0    0 -0.33367263635E+03  0.21177976813E+03  0.17223440883E+02  0.46795805940E+03  0.25000000000E+03 0.  0.
    5000001    1    1    2    0    0  0.33367263635E+03 -0.21177976813E+03 -0.22107216312E+03  0.51726298896E+03  0.25000000000E+03 0.  0.
<mgrwt>
<rscale>  0 0.96390156E+03</rscale>
<asrwt>0</asrwt>
<pdfrwt beam="1">  1        1 0.91466905E-01 0.96390156E+03</pdfrwt>
<pdfrwt beam="2">  1       -1 0.60105564E-01 0.96390156E+03</pdfrwt>
<totfact> 0.97875335E+01</totfact>
</mgrwt>
</event>
<event>
 4    1  0.4305113E-006  0.5364476E+03  0.7818608E-02  0.1004680E+00
          1   -1    0    0  501    0  0.00000000000E+00  0.00000000000E+00  0.22233139075E+03  0.22233139081E+03  0.50400000000E-02 0.  1.
         -1   -1    0    0    0  501 -0.00000000000E+00 -0.00000000000E+00 -0.32358911423E+03  0.32358911427E+03  0.50400000000E-02 0. -1.
   -5000001    1    1    2    0    0 -0.52805759106E+02 -0.36467733877E+02 -0.12489474613E+03  0.28673514158E+03  0.25000000000E+03 0.  0.
    5000001    1    1    2    0    0  0.52805759106E+02  0.36467733877E+02  0.23637022648E+02  0.25918536349E+03  0.25000000000E+03 0.  0.
<mgrwt>
<rscale>  0 0.53644764E+03</rscale>
<asrwt>0</asrwt>
<pdfrwt beam="1">  1        1 0.34204829E-01 0.53644764E+03</pdfrwt>
<pdfrwt beam="2">  1       -1 0.49782941E-01 0.53644764E+03</pdfrwt>
<totfact> 0.53004765E+02</totfact>
</mgrwt>
</event>
<event>
 4    1  0.4305113E-006  0.6165538E+03  0.7818608E-02  0.9871645E-01
         -1   -1    0    0    0  501 -0.00000000000E+00  0.00000000000E+00  0.22787266349E+03  0.22787266355E+03  0.50400000000E-02 0. -1.
          1   -1    0    0  501    0  0.00000000000E+00 -0.00000000000E+00 -0.41705161098E+03  0.41705161101E+03  0.50400000000E-02 0.  1.
   -5000001    1    1    2    0    0  0.62490565397E+02 -0.12421646738E+03 -0.21476675453E+03  0.35771435585E+03  0.25000000000E+03 0.  0.
    5000001    1    1    2    0    0 -0.62490565397E+02  0.12421646738E+03  0.25587807042E+02  0.28720991870E+03  0.25000000000E+03 0.  0.
<mgrwt>
<rscale>  0 0.61655385E+03</rscale>
<asrwt>0</asrwt>
<pdfrwt beam="1">  1        1 0.64161786E-01 0.61655385E+03</pdfrwt>
<pdfrwt beam="2">  1       -1 0.35057333E-01 0.61655385E+03</pdfrwt>
<totfact> 0.44405650E+02</totfact>
</mgrwt>
</event>
<event>
 4    1  0.4305113E-006  0.8793374E+03  0.7818608E-02  0.9451786E-01
          1   -1    0    0  501    0  0.00000000000E+00  0.00000000000E+00  0.70174629352E+03  0.70174629354E+03  0.50400000000E-02 0.  1.
         -1   -1    0    0    0  501 -0.00000000000E+00 -0.00000000000E+00 -0.27546790318E+03  0.27546790323E+03  0.50400000000E-02 0. -1.
   -5000001    1    1    2    0    0 -0.36070159792E+03  0.23873967143E+01  0.24248355415E+03  0.50140763500E+03  0.25000000000E+03 0.  0.
    5000001    1    1    2    0    0  0.36070159792E+03 -0.23873967143E+01  0.18379483620E+03  0.47580656177E+03  0.25000000000E+03 0.  0.
<mgrwt>
<rscale>  0 0.87933743E+03</rscale>
<asrwt>0</asrwt>
<pdfrwt beam="1">  1        1 0.10796097E+00 0.87933743E+03</pdfrwt>
<pdfrwt beam="2">  1       -1 0.42379677E-01 0.87933743E+03</pdfrwt>
<totfact> 0.14978817E+02</totfact>
</mgrwt>
</event>
<event>
 4    1  0.4305113E-006  0.6734217E+03  0.7818608E-02  0.9763796E-01
          1   -1    0    0  501    0  0.00000000000E+00  0.00000000000E+00  0.13307718414E+04  0.13307718414E+04  0.50400000000E-02 0. -1.
         -1   -1    0    0    0  501 -0.00000000000E+00 -0.00000000000E+00 -0.85194326546E+02  0.85194326695E+02  0.50400000000E-02 0.  1.
   -5000001    1    1    2    0    0  0.19629486886E+03  0.10776969052E+03  0.67953012302E+03  0.75789654296E+03  0.25000000000E+03 0.  0.
    5000001    1    1    2    0    0 -0.19629486886E+03 -0.10776969052E+03  0.56604739182E+03  0.65806962513E+03  0.25000000000E+03 0.  0.
<mgrwt>
<rscale>  0 0.67342174E+03</rscale>
<asrwt>0</asrwt>
<pdfrwt beam="1">  1        1 0.20473412E+00 0.67342174E+03</pdfrwt>
<pdfrwt beam="2">  1       -1 0.13106820E-01 0.67342174E+03</pdfrwt>
<totfact> 0.35884620E+02</totfact>
</mgrwt>
</event>
<event>
 4    1  0.4305113E-006  0.7879169E+03  0.7818608E-02  0.9577673E-01
         -1   -1    0    0    0  501 -0.00000000000E+00  0.00000000000E+00  0.12959328663E+03  0.12959328673E+03  0.50400000000E-02 0. -1.
          1   -1    0    0  501    0  0.00000000000E+00 -0.00000000000E+00 -0.11976179983E+04  0.11976179983E+04  0.50400000000E-02 0.  1.
   -5000001    1    1    2    0    0  0.29240135171E+03  0.65340338654E+02 -0.44275055493E+03  0.59016604801E+03  0.25000000000E+03 0.  0.
    5000001    1    1    2    0    0 -0.29240135171E+03 -0.65340338654E+02 -0.62527415671E+03  0.73704523700E+03  0.25000000000E+03 0.  0.
<mgrwt>
<rscale>  0 0.78791688E+03</rscale>
<asrwt>0</asrwt>
<pdfrwt beam="1">  1        1 0.18424892E+00 0.78791688E+03</pdfrwt>
<pdfrwt beam="2">  1       -1 0.19937430E-01 0.78791688E+03</pdfrwt>
<totfact> 0.22315944E+02</totfact>
</mgrwt>
</event>
<event>
 4    1  0.4305113E-006  0.9642774E+03  0.7818608E-02  0.9348616E-01
         -1   -1    0    0    0  501 -0.00000000000E+00  0.00000000000E+00  0.17378391433E+03  0.17378391440E+03  0.50400000000E-02 0. -1.
          1   -1    0    0  501    0  0.00000000000E+00 -0.00000000000E+00 -0.13376252322E+04  0.13376252322E+04  0.50400000000E-02 0.  1.
   -5000001    1    1    2    0    0  0.29238886494E+03  0.35100326463E+02 -0.10341217850E+04  0.11039162774E+04  0.25000000000E+03 0.  0.
    5000001    1    1    2    0    0 -0.29238886494E+03 -0.35100326463E+02 -0.12971953288E+03  0.40749286923E+03  0.25000000000E+03 0.  0.
<mgrwt>
<rscale>  0 0.96427745E+03</rscale>
<asrwt>0</asrwt>
<pdfrwt beam="1">  1        1 0.20578849E+00 0.96427745E+03</pdfrwt>
<pdfrwt beam="2">  1       -1 0.26735988E-01 0.96427745E+03</pdfrwt>
<totfact> 0.10649971E+02</totfact>
</mgrwt>
</event>
<event>
 4    1  0.4305113E-006  0.6103306E+03  0.7818608E-02  0.9884202E-01
          1   -1    0    0  501    0  0.00000000000E+00  0.00000000000E+00  0.63721546192E+03  0.63721546194E+03  0.50400000000E-02 0.  1.
         -1   -1    0    0    0  501 -0.00000000000E+00 -0.00000000000E+00 -0.14614499767E+03  0.14614499775E+03  0.50400000000E-02 0. -1.
   -5000001    1    1    2    0    0 -0.53111492335E+02 -0.13404197499E+03  0.37284005756E+03  0.47148466592E+03  0.25000000000E+03 0.  0.
    5000001    1    1    2    0    0  0.53111492335E+02  0.13404197499E+03  0.11823040670E+03  0.31187579378E+03  0.25000000000E+03 0.  0.
<mgrwt>
<rscale>  0 0.61033057E+03</rscale>
<asrwt>0</asrwt>
<pdfrwt beam="1">  1        1 0.98033151E-01 0.61033057E+03</pdfrwt>
<pdfrwt beam="2">  1       -1 0.22483845E-01 0.61033057E+03</pdfrwt>
<totfact> 0.53184780E+02</totfact>
</mgrwt>
</event>
<event>
 4    1  0.4305113E-006  0.6752710E+03  0.7818608E-02  0.9760482E-01
         -1   -1    0    0    0  501 -0.00000000000E+00  0.00000000000E+00  0.79340827565E+02  0.79340827725E+02  0.50400000000E-02 0. -1.
          1   -1    0    0  501    0  0.00000000000E+00 -0.00000000000E+00 -0.14368106480E+04  0.14368106480E+04  0.50400000000E-02 0.  1.
   -5000001    1    1    2    0    0 -0.82734430952E+02  0.20980185869E+03 -0.62211456117E+03  0.70738132092E+03  0.25000000000E+03 0.  0.
    5000001    1    1    2    0    0  0.82734430952E+02 -0.20980185869E+03 -0.73535525927E+03  0.80877015481E+03  0.25000000000E+03 0.  0.
<mgrwt>
<rscale>  0 0.67527104E+03</rscale>
<asrwt>0</asrwt>
<pdfrwt beam="1">  1        1 0.22104777E+00 0.67527104E+03</pdfrwt>
<pdfrwt beam="2">  1       -1 0.12206282E-01 0.67527104E+03</pdfrwt>
<totfact> 0.33949190E+02</totfact>
</mgrwt>
</event>
<event>
 4    1  0.4305113E-006  0.7269784E+03  0.7818608E-02  0.9672176E-01
         -1   -1    0    0    0  501 -0.00000000000E+00  0.00000000000E+00  0.52702352202E+03  0.52702352205E+03  0.50400000000E-02 0. -1.
          1   -1    0    0  501    0  0.00000000000E+00 -0.00000000000E+00 -0.25069925681E+03  0.25069925686E+03  0.50400000000E-02 0.  1.
   -5000001    1    1    2    0    0 -0.16556844576E+03  0.17619383957E+03  0.25121353480E+03  0.42902845989E+03  0.25000000000E+03 0.  0.
    5000001    1    1    2    0    0  0.16556844576E+03 -0.17619383957E+03  0.25110730414E+02  0.34869431902E+03  0.25000000000E+03 0.  0.
<mgrwt>
<rscale>  0 0.72697842E+03</rscale>
<asrwt>0</asrwt>
<pdfrwt beam="1">  1        1 0.38569117E-01 0.72697842E+03</pdfrwt>
<pdfrwt beam="2">  1       -1 0.81080541E-01 0.72697842E+03</pdfrwt>
<totfact> 0.17039385E+02</totfact>
</mgrwt>
</event>
<event>
 4    1  0.4305113E-006  0.1104376E+04  0.7818608E-02  0.9200937E-01
         -1   -1    0    0    0  501 -0.00000000000E+00  0.00000000000E+00  0.20801543497E+03  0.20801543503E+03  0.50400000000E-02 0. -1.
          1   -1    0    0  501    0  0.00000000000E+00 -0.00000000000E+00 -0.14658131990E+04  0.14658131990E+04  0.50400000000E-02 0.  1.
   -5000001    1    1    2    0    0  0.26683540371E+03  0.40022436568E+03 -0.78808427311E+03  0.95653410660E+03  0.25000000000E+03 0.  0.
    5000001    1    1    2    0    0 -0.26683540371E+03 -0.40022436568E+03 -0.46971349095E+03  0.71729452747E+03  0.25000000000E+03 0.  0.
<mgrwt>
<rscale>  0 0.11043763E+04</rscale>
<asrwt>0</asrwt>
<pdfrwt beam="1">  1        1 0.22550972E+00 0.11043763E+04</pdfrwt>
<pdfrwt beam="2">  1       -1 0.32002376E-01 0.11043763E+04</pdfrwt>
<totfact> 0.62643609E+01</totfact>
</mgrwt>
</event>
<event>
 4    1  0.4305113E-006  0.6756057E+03  0.7818608E-02  0.9759884E-01
         -1   -1    0    0    0  501 -0.00000000000E+00  0.00000000000E+00  0.64066264460E+03  0.64066264462E+03  0.50400000000E-02 0. -1.
          1   -1    0    0  501    0  0.00000000000E+00 -0.00000000000E+00 -0.17811365000E+03  0.17811365007E+03  0.50400000000E-02 0.  1.
   -5000001    1    1    2    0    0 -0.42604591040E+02 -0.20175613287E+03  0.11572829780E+03  0.34411295709E+03  0.25000000000E+03 0.  0.
    5000001    1    1    2    0    0  0.42604591040E+02  0.20175613287E+03  0.34682069680E+03  0.47466333759E+03  0.25000000000E+03 0.  0.
<mgrwt>
<rscale>  0 0.67560569E+03</rscale>
<asrwt>0</asrwt>
<pdfrwt beam="1">  1        1 0.27402100E-01 0.67560569E+03</pdfrwt>
<pdfrwt beam="2">  1       -1 0.98563482E-01 0.67560569E+03</pdfrwt>
<totfact> 0.17332414E+02</totfact>
</mgrwt>
</event>
<event>
 4    1  0.4305113E-006  0.1042823E+04  0.7818608E-02  0.9262786E-01
          1   -1    0    0  501    0  0.00000000000E+00  0.00000000000E+00  0.11642039540E+04  0.11642039540E+04  0.50400000000E-02 0. -1.
         -1   -1    0    0    0  501 -0.00000000000E+00 -0.00000000000E+00 -0.23352423014E+03  0.23352423020E+03  0.50400000000E-02 0.  1.
   -5000001    1    1    2    0    0 -0.30846188711E+03  0.24044652070E+03  0.78366948251E+03  0.91082441938E+03  0.25000000000E+03 0.  0.
    5000001    1    1    2    0    0  0.30846188711E+03 -0.24044652070E+03  0.14701024131E+03  0.48690376479E+03  0.25000000000E+03 0.  0.
<mgrwt>
<rscale>  0 0.10428228E+04</rscale>
<asrwt>0</asrwt>
<pdfrwt beam="1">  1        1 0.17910830E+00 0.10428228E+04</pdfrwt>
<pdfrwt beam="2">  1       -1 0.35926805E-01 0.10428228E+04</pdfrwt>
<totfact> 0.83984007E+01</totfact>
</mgrwt>
</event>
<event>
 4    1  0.4305113E-006  0.9159524E+03  0.7818608E-02  0.9405857E-01
         -1   -1    0    0    0  501 -0.00000000000E+00  0.00000000000E+00  0.18847952458E+03  0.18847952465E+03  0.50400000000E-02 0. -1.
          1   -1    0    0  501    0  0.00000000000E+00 -0.00000000000E+00 -0.11128115793E+04  0.11128115793E+04  0.50400000000E-02 0.  1.
   -5000001    1    1    2    0    0 -0.15228960378E+03  0.35047726554E+03 -0.41262950076E+03  0.61545880608E+03  0.25000000000E+03 0.  0.
    5000001    1    1    2    0    0  0.15228960378E+03 -0.35047726554E+03 -0.51170255396E+03  0.68583229787E+03  0.25000000000E+03 0.  0.
<mgrwt>
<rscale>  0 0.91595239E+03</rscale>
<asrwt>0</asrwt>
<pdfrwt beam="1">  1        1 0.17120178E+00 0.91595239E+03</pdfrwt>
<pdfrwt beam="2">  1       -1 0.28996851E-01 0.91595239E+03</pdfrwt>
<totfact> 0.13506515E+02</totfact>
</mgrwt>
</event>
<event>
 4    1  0.4305113E-006  0.7569179E+03  0.7818608E-02  0.9624559E-01
         -1   -1    0    0    0  501 -0.00000000000E+00  0.00000000000E+00  0.23383809435E+03  0.23383809441E+03  0.50400000000E-02 0. -1.
          1   -1    0    0  501    0  0.00000000000E+00 -0.00000000000E+00 -0.61252287841E+03  0.61252287843E+03  0.50400000000E-02 0.  1.
   -5000001    1    1    2    0    0 -0.13211757916E+03 -0.20193262256E+03 -0.35706506355E+03  0.49822414473E+03  0.25000000000E+03 0.  0.
    5000001    1    1    2    0    0  0.13211757916E+03  0.20193262256E+03 -0.21619720506E+02  0.34813682812E+03  0.25000000000E+03 0.  0.
<mgrwt>
<rscale>  0 0.75691792E+03</rscale>
<asrwt>0</asrwt>
<pdfrwt beam="1">  1        1 0.94234288E-01 0.75691792E+03</pdfrwt>
<pdfrwt beam="2">  1       -1 0.35975092E-01 0.75691792E+03</pdfrwt>
<totfact> 0.24823923E+02</totfact>
</mgrwt>
</event>
<event>
 4    1  0.4305113E-006  0.6664810E+03  0.7818608E-02  0.9776336E-01
          1   -1    0    0  501    0  0.00000000000E+00  0.00000000000E+00  0.37977301415E+03  0.37977301418E+03  0.50400000000E-02 0.  1.
         -1   -1    0    0    0  501 -0.00000000000E+00 -0.00000000000E+00 -0.29240950328E+03  0.29240950332E+03  0.50400000000E-02 0. -1.
   -5000001    1    1    2    0    0 -0.63367183609E+02  0.15698049949E+03 -0.98560067949E+02  0.31760409974E+03  0.25000000000E+03 0.  0.
    5000001    1    1    2    0    0  0.63367183609E+02 -0.15698049949E+03  0.18592357882E+03  0.35457841776E+03  0.25000000000E+03 0.  0.
<mgrwt>
<rscale>  0 0.66648102E+03</rscale>
<asrwt>0</asrwt>
<pdfrwt beam="1">  1        1 0.58426618E-01 0.66648102E+03</pdfrwt>
<pdfrwt beam="2">  1       -1 0.44986077E-01 0.66648102E+03</pdfrwt>
<totfact> 0.31922370E+02</totfact>
</mgrwt>
</event>
<event>
 4    1  0.4305113E-006  0.7004799E+03  0.7818608E-02  0.9716412E-01
         -1   -1    0    0    0  501 -0.00000000000E+00  0.00000000000E+00  0.77351072474E+02  0.77351072638E+02  0.50400000000E-02 0. -1.
          1   -1    0    0  501    0  0.00000000000E+00 -0.00000000000E+00 -0.15858605458E+04  0.15858605459E+04  0.50400000000E-02 0.  1.
   -5000001    1    1    2    0    0 -0.38780409551E+02 -0.22790311013E+03 -0.55955099293E+03  0.65501226054E+03  0.25000000000E+03 0.  0.
    5000001    1    1    2    0    0  0.38780409551E+02  0.22790311013E+03 -0.94895848044E+03  0.10081993579E+04  0.25000000000E+03 0.  0.
<mgrwt>
<rscale>  0 0.70047988E+03</rscale>
<asrwt>0</asrwt>
<pdfrwt beam="1">  1        1 0.24397852E+00 0.70047988E+03</pdfrwt>
<pdfrwt beam="2">  1       -1 0.11900166E-01 0.70047988E+03</pdfrwt>
<totfact> 0.27925030E+02</totfact>
</mgrwt>
</event>
<event>
 4    1  0.4305113E-006  0.9212313E+03  0.7818608E-02  0.9399424E-01
         -1   -1    0    0    0  501 -0.00000000000E+00  0.00000000000E+00  0.13569818139E+03  0.13569818148E+03  0.50400000000E-02 0. -1.
          1   -1    0    0  501    0  0.00000000000E+00 -0.00000000000E+00 -0.15635196297E+04  0.15635196297E+04  0.50400000000E-02 0.  1.
   -5000001    1    1    2    0    0 -0.37454425467E+03  0.75902242716E+02 -0.82492219576E+03  0.94288980174E+03  0.25000000000E+03 0.  0.
    5000001    1    1    2    0    0  0.37454425467E+03 -0.75902242716E+02 -0.60289925251E+03  0.75632800942E+03  0.25000000000E+03 0.  0.
<mgrwt>
<rscale>  0 0.92123129E+03</rscale>
<asrwt>0</asrwt>
<pdfrwt beam="1">  1        1 0.24054147E+00 0.92123129E+03</pdfrwt>
<pdfrwt beam="2">  1       -1 0.20876644E-01 0.92123129E+03</pdfrwt>
<totfact> 0.11343258E+02</totfact>
</mgrwt>
</event>
<event>
 4    1  0.4305113E-006  0.6014926E+03  0.7818608E-02  0.9902314E-01
         -1   -1    0    0    0  501 -0.00000000000E+00  0.00000000000E+00  0.39170440695E+03  0.39170440698E+03  0.50400000000E-02 0.  1.
          1   -1    0    0  501    0  0.00000000000E+00 -0.00000000000E+00 -0.23090969540E+03  0.23090969546E+03  0.50400000000E-02 0. -1.
   -5000001    1    1    2    0    0  0.29823036714E+02 -0.14934461185E+03  0.90185419339E+01  0.29287294294E+03  0.25000000000E+03 0.  0.
    5000001    1    1    2    0    0 -0.29823036714E+02  0.14934461185E+03  0.15177616961E+03  0.32974115950E+03  0.25000000000E+03 0.  0.
<mgrwt>
<rscale>  0 0.60149263E+03</rscale>
<asrwt>0</asrwt>
<pdfrwt beam="1">  1        1 0.35524569E-01 0.60149263E+03</pdfrwt>
<pdfrwt beam="2">  1       -1 0.60262216E-01 0.60149263E+03</pdfrwt>
<totfact> 0.34918660E+02</totfact>
</mgrwt>
</event>
<event>
 4    1  0.4305113E-006  0.1054149E+04  0.7818608E-02  0.9251071E-01
          1   -1    0    0  501    0  0.00000000000E+00  0.00000000000E+00  0.19755534537E+04  0.19755534537E+04  0.50400000000E-02 0.  1.
         -1   -1    0    0    0  501 -0.00000000000E+00 -0.00000000000E+00 -0.14062258119E+03  0.14062258128E+03  0.50400000000E-02 0. -1.
   -5000001    1    1    2    0    0 -0.44847721655E+03  0.10089489396E+03  0.79056780456E+03  0.94805540292E+03  0.25000000000E+03 0.  0.
    5000001    1    1    2    0    0  0.44847721655E+03 -0.10089489396E+03  0.10443630680E+04  0.11681206321E+04  0.25000000000E+03 0.  0.
<mgrwt>
<rscale>  0 0.10541488E+04</rscale>
<asrwt>0</asrwt>
<pdfrwt beam="1">  1        1 0.30393128E+00 0.10541488E+04</pdfrwt>
<pdfrwt beam="2">  1       -1 0.21634245E-01 0.10541488E+04</pdfrwt>
<totfact> 0.55637643E+01</totfact>
</mgrwt>
</event>
<event>
 4    1  0.4305113E-006  0.6407142E+03  0.7818608E-02  0.9824361E-01
         -1   -1    0    0    0  501 -0.00000000000E+00  0.00000000000E+00  0.89077585006E+02  0.89077585148E+02  0.50400000000E-02 0. -1.
          1   -1    0    0  501    0  0.00000000000E+00 -0.00000000000E+00 -0.11521268821E+04  0.11521268821E+04  0.50400000000E-02 0.  1.
   -5000001    1    1    2    0    0 -0.39575486694E+02 -0.19462302162E+03 -0.48084715337E+03  0.57719868728E+03  0.25000000000E+03 0.  0.
    5000001    1    1    2    0    0  0.39575486694E+02  0.19462302162E+03 -0.58220214374E+03  0.66400578000E+03  0.25000000000E+03 0.  0.
<mgrwt>
<rscale>  0 0.64071423E+03</rscale>
<asrwt>0</asrwt>
<pdfrwt beam="1">  1        1 0.17725028E+00 0.64071423E+03</pdfrwt>
<pdfrwt beam="2">  1       -1 0.13704245E-01 0.64071423E+03</pdfrwt>
<totfact> 0.44893677E+02</totfact>
</mgrwt>
</event>
<event>
 4    1  0.4305113E-006  0.8696333E+03  0.7818608E-02  0.9464358E-01
          1   -1    0    0  501    0  0.00000000000E+00  0.00000000000E+00  0.10594541970E+04  0.10594541971E+04  0.50400000000E-02 0. -1.
         -1   -1    0    0    0  501 -0.00000000000E+00 -0.00000000000E+00 -0.17845557528E+03  0.17845557535E+03  0.50400000000E-02 0.  1.
   -5000001    1    1    2    0    0  0.23796145119E+02  0.35309145093E+03  0.38867040565E+03  0.58206916554E+03  0.25000000000E+03 0.  0.
    5000001    1    1    2    0    0 -0.23796145119E+02 -0.35309145093E+03  0.49232821611E+03  0.65584060687E+03  0.25000000000E+03 0.  0.
<mgrwt>
<rscale>  0 0.86963328E+03</rscale>
<asrwt>0</asrwt>
<pdfrwt beam="1">  1        1 0.16299295E+00 0.86963328E+03</pdfrwt>
<pdfrwt beam="2">  1       -1 0.27454704E-01 0.86963328E+03</pdfrwt>
<totfact> 0.16337379E+02</totfact>
</mgrwt>
</event>
<event>
 4    1  0.4305113E-006  0.6138840E+03  0.7818608E-02  0.9877013E-01
          1   -1    0    0  501    0  0.00000000000E+00  0.00000000000E+00  0.56930713828E+03  0.56930713830E+03  0.50400000000E-02 0.  1.
         -1   -1    0    0    0  501 -0.00000000000E+00 -0.00000000000E+00 -0.16548781772E+03  0.16548781780E+03  0.50400000000E-02 0. -1.
   -5000001    1    1    2    0    0 -0.16320176012E+03  0.29234493465E+02  0.27970220612E+03  0.41014972171E+03  0.25000000000E+03 0.  0.
    5000001    1    1    2    0    0  0.16320176012E+03 -0.29234493465E+02  0.12411711444E+03  0.32464523439E+03  0.25000000000E+03 0.  0.
<mgrwt>
<rscale>  0 0.61388401E+03</rscale>
<asrwt>0</asrwt>
<pdfrwt beam="1">  1        1 0.87585713E-01 0.61388401E+03</pdfrwt>
<pdfrwt beam="2">  1       -1 0.25459664E-01 0.61388401E+03</pdfrwt>
<totfact> 0.50648536E+02</totfact>
</mgrwt>
</event>
<event>
 4    1  0.4305113E-006  0.6607403E+03  0.7818608E-02  0.9786832E-01
          1   -1    0    0  501    0  0.00000000000E+00  0.00000000000E+00  0.29676365210E+04  0.29676365210E+04  0.50400000000E-02 0.  1.
         -1   -1    0    0    0  501 -0.00000000000E+00 -0.00000000000E+00 -0.36778231846E+02  0.36778232191E+02  0.50400000000E-02 0. -1.
   -5000001    1    1    2    0    0 -0.72693700392E+02  0.19178235782E+03  0.11577189905E+04  0.12020308265E+04  0.25000000000E+03 0.  0.
    5000001    1    1    2    0    0  0.72693700392E+02 -0.19178235782E+03  0.17731392986E+04  0.18023839266E+04  0.25000000000E+03 0.  0.
<mgrwt>
<rscale>  0 0.66074027E+03</rscale>
<asrwt>0</asrwt>
<pdfrwt beam="1">  1        1 0.45655962E+00 0.66074027E+03</pdfrwt>
<pdfrwt beam="2">  1       -1 0.56581876E-02 0.66074027E+03</pdfrwt>
<totfact> 0.10349327E+02</totfact>
</mgrwt>
</event>
<event>
 4    1  0.4305113E-006  0.6795937E+03  0.7818608E-02  0.9752780E-01
         -1   -1    0    0    0  501 -0.00000000000E+00  0.00000000000E+00  0.28375740134E+03  0.28375740139E+03  0.50400000000E-02 0. -1.
          1   -1    0    0  501    0  0.00000000000E+00 -0.00000000000E+00 -0.40690358545E+03  0.40690358548E+03  0.50400000000E-02 0.  1.
   -5000001    1    1    2    0    0  0.18706957212E+03  0.79089792848E+02 -0.17155601122E+03  0.36494065974E+03  0.25000000000E+03 0.  0.
    5000001    1    1    2    0    0 -0.18706957212E+03 -0.79089792848E+02  0.48409827116E+02  0.32572032713E+03  0.25000000000E+03 0.  0.
<mgrwt>
<rscale>  0 0.67959371E+03</rscale>
<asrwt>0</asrwt>
<pdfrwt beam="1">  1        1 0.62600552E-01 0.67959371E+03</pdfrwt>
<pdfrwt beam="2">  1       -1 0.43654985E-01 0.67959371E+03</pdfrwt>
<totfact> 0.30791947E+02</totfact>
</mgrwt>
</event>
<event>
 4    1  0.4305113E-006  0.6719629E+03  0.7818608E-02  0.9766418E-01
         -1   -1    0    0    0  501 -0.00000000000E+00  0.00000000000E+00  0.57719739518E+02  0.57719739738E+02  0.50400000000E-02 0. -1.
          1   -1    0    0  501    0  0.00000000000E+00 -0.00000000000E+00 -0.19557182568E+04  0.19557182568E+04  0.50400000000E-02 0.  1.
   -5000001    1    1    2    0    0 -0.17566109288E+02 -0.14961727576E+03 -0.45039994060E+03  0.53670662740E+03  0.25000000000E+03 0.  0.
    5000001    1    1    2    0    0  0.17566109288E+02  0.14961727576E+03 -0.14475985767E+04  0.14767313691E+04  0.25000000000E+03 0.  0.
<mgrwt>
<rscale>  0 0.67196294E+03</rscale>
<asrwt>0</asrwt>
<pdfrwt beam="1">  1        1 0.30087968E+00 0.67196294E+03</pdfrwt>
<pdfrwt beam="2">  1       -1 0.88799615E-02 0.67196294E+03</pdfrwt>
<totfact> 0.25153790E+02</totfact>
</mgrwt>
</event>
<event>
 4    1  0.4305113E-006  0.5713234E+03  0.7818608E-02  0.9966754E-01
          1   -1    0    0  501    0  0.00000000000E+00  0.00000000000E+00  0.15491751455E+03  0.15491751464E+03  0.50400000000E-02 0. -1.
         -1   -1    0    0    0  501 -0.00000000000E+00 -0.00000000000E+00 -0.52674867586E+03  0.52674867588E+03  0.50400000000E-02 0.  1.
   -5000001    1    1    2    0    0  0.88643539163E+02 -0.98311957076E+01 -0.31189321189E+03  0.40955061356E+03  0.25000000000E+03 0.  0.
    5000001    1    1    2    0    0 -0.88643539163E+02  0.98311957076E+01 -0.59937949419E+02  0.27211557696E+03  0.25000000000E+03 0.  0.
<mgrwt>
<rscale>  0 0.57132336E+03</rscale>
<asrwt>0</asrwt>
<pdfrwt beam="1">  1        1 0.23833464E-01 0.57132336E+03</pdfrwt>
<pdfrwt beam="2">  1       -1 0.81038257E-01 0.57132336E+03</pdfrwt>
<totfact> 0.32048389E+02</totfact>
</mgrwt>
</event>
<event>
 4    1  0.4305113E-006  0.8555223E+03  0.7818608E-02  0.9482955E-01
         -1   -1    0    0    0  501 -0.00000000000E+00  0.00000000000E+00  0.30661863323E+03  0.30661863327E+03  0.50400000000E-02 0. -1.
          1   -1    0    0  501    0  0.00000000000E+00 -0.00000000000E+00 -0.59676609496E+03  0.59676609498E+03  0.50400000000E-02 0.  1.
   -5000001    1    1    2    0    0  0.11797795313E+03 -0.29588197187E+03  0.53444263826E+00  0.40492619615E+03  0.25000000000E+03 0.  0.
    5000001    1    1    2    0    0 -0.11797795313E+03  0.29588197187E+03 -0.29068190436E+03  0.49845853210E+03  0.25000000000E+03 0.  0.
<mgrwt>
<rscale>  0 0.85552231E+03</rscale>
<asrwt>0</asrwt>
<pdfrwt beam="1">  1        1 0.91810168E-01 0.85552231E+03</pdfrwt>
<pdfrwt beam="2">  1       -1 0.47172098E-01 0.85552231E+03</pdfrwt>
<totfact> 0.15615874E+02</totfact>
</mgrwt>
</event>
<event>
 4    1  0.4305113E-006  0.5944651E+03  0.7818608E-02  0.9916956E-01
         -1   -1    0    0    0  501 -0.00000000000E+00  0.00000000000E+00  0.61009724786E+02  0.61009724994E+02  0.50400000000E-02 0. -1.
          1   -1    0    0  501    0  0.00000000000E+00 -0.00000000000E+00 -0.14480837032E+04  0.14480837033E+04  0.50400000000E-02 0.  1.
   -5000001    1    1    2    0    0 -0.10390689735E+03 -0.11703438772E+03 -0.78693087327E+03  0.84038913042E+03  0.25000000000E+03 0.  0.
    5000001    1    1    2    0    0  0.10390689735E+03  0.11703438772E+03 -0.60014310519E+03  0.66870429783E+03  0.25000000000E+03 0.  0.
<mgrwt>
<rscale>  0 0.59446510E+03</rscale>
<asrwt>0</asrwt>
<pdfrwt beam="1">  1        1 0.22278208E+00 0.59446510E+03</pdfrwt>
<pdfrwt beam="2">  1       -1 0.93861126E-02 0.59446510E+03</pdfrwt>
<totfact> 0.50846574E+02</totfact>
</mgrwt>
</event>
<event>
 4    1  0.4305113E-006  0.6647307E+03  0.7818608E-02  0.9779524E-01
          1   -1    0    0  501    0  0.00000000000E+00  0.00000000000E+00  0.16816022510E+04  0.16816022510E+04  0.50400000000E-02 0.  1.
         -1   -1    0    0    0  501 -0.00000000000E+00 -0.00000000000E+00 -0.65691355297E+02  0.65691355491E+02  0.50400000000E-02 0. -1.
   -5000001    1    1    2    0    0 -0.16288610350E+03 -0.11963172946E+03  0.10298029747E+04  0.10788131442E+04  0.25000000000E+03 0.  0.
    5000001    1    1    2    0    0  0.16288610350E+03  0.11963172946E+03  0.58610792099E+03  0.66848046229E+03  0.25000000000E+03 0.  0.
<mgrwt>
<rscale>  0 0.66473072E+03</rscale>
<asrwt>0</asrwt>
<pdfrwt beam="1">  1        1 0.25870797E+00 0.66473072E+03</pdfrwt>
<pdfrwt beam="2">  1       -1 0.10106365E-01 0.66473072E+03</pdfrwt>
<totfact> 0.31290323E+02</totfact>
</mgrwt>
</event>
<event>
 4    1  0.4305113E-006  0.5952546E+03  0.7818608E-02  0.9915301E-01
          1   -1    0    0  501    0  0.00000000000E+00  0.00000000000E+00  0.52724147065E+03  0.52724147068E+03  0.50400000000E-02 0. -1.
         -1   -1    0    0    0  501 -0.00000000000E+00 -0.00000000000E+00 -0.16801029904E+03  0.16801029911E+03  0.50400000000E-02 0.  1.
   -5000001    1    1    2    0    0  0.72938768021E+02 -0.11291230554E+03  0.75064144905E+02  0.29360497011E+03  0.25000000000E+03 0.  0.
    5000001    1    1    2    0    0 -0.72938768021E+02  0.11291230554E+03  0.28416702671E+03  0.40164679968E+03  0.25000000000E+03 0.  0.
<mgrwt>
<rscale>  0 0.59525456E+03</rscale>
<asrwt>0</asrwt>
<pdfrwt beam="1">  1        1 0.81114072E-01 0.59525456E+03</pdfrwt>
<pdfrwt beam="2">  1       -1 0.25847739E-01 0.59525456E+03</pdfrwt>
<totfact> 0.54974990E+02</totfact>
</mgrwt>
</event>
<event>
 4    1  0.4305113E-006  0.9204646E+03  0.7818608E-02  0.9400355E-01
          1   -1    0    0  501    0  0.00000000000E+00  0.00000000000E+00  0.86484996494E+03  0.86484996495E+03  0.50400000000E-02 0. -1.
         -1   -1    0    0    0  501 -0.00000000000E+00 -0.00000000000E+00 -0.24491386470E+03  0.24491386475E+03  0.50400000000E-02 0.  1.
   -5000001    1    1    2    0    0  0.11750710300E+03 -0.36098587851E+03  0.39686754675E+03  0.60342569832E+03  0.25000000000E+03 0.  0.
    5000001    1    1    2    0    0 -0.11750710300E+03  0.36098587851E+03  0.22306855349E+03  0.50633813138E+03  0.25000000000E+03 0.  0.
<mgrwt>
<rscale>  0 0.92046455E+03</rscale>
<asrwt>0</asrwt>
<pdfrwt beam="1">  1        1 0.13305384E+00 0.92046455E+03</pdfrwt>
<pdfrwt beam="2">  1       -1 0.37679056E-01 0.92046455E+03</pdfrwt>
<totfact> 0.13292423E+02</totfact>
</mgrwt>
</event>
<event>
 4    1  0.4305113E-006  0.9883953E+03  0.7818608E-02  0.9321365E-01
         -1   -1    0    0    0  501 -0.00000000000E+00  0.00000000000E+00  0.20697428111E+03  0.20697428117E+03  0.50400000000E-02 0.  1.
          1   -1    0    0  501    0  0.00000000000E+00 -0.00000000000E+00 -0.11800079658E+04  0.11800079658E+04  0.50400000000E-02 0. -1.
   -5000001    1    1    2    0    0  0.16724847667E+03  0.34567990891E+03 -0.74627152392E+03  0.87572132541E+03  0.25000000000E+03 0.  0.
    5000001    1    1    2    0    0 -0.16724847667E+03 -0.34567990891E+03 -0.22676216078E+03  0.51126092158E+03  0.25000000000E+03 0.  0.
<mgrwt>
<rscale>  0 0.98839527E+03</rscale>
<asrwt>0</asrwt>
<pdfrwt beam="1">  1        1 0.18153968E+00 0.98839527E+03</pdfrwt>
<pdfrwt beam="2">  1       -1 0.31842198E-01 0.98839527E+03</pdfrwt>
<totfact> 0.10174118E+02</totfact>
</mgrwt>
</event>
<event>
 4    1  0.4305113E-006  0.6178733E+03  0.7818608E-02  0.9869003E-01
         -1   -1    0    0    0  501 -0.00000000000E+00  0.00000000000E+00  0.20854717071E+03  0.20854717077E+03  0.50400000000E-02 0. -1.
          1   -1    0    0  501    0  0.00000000000E+00 -0.00000000000E+00 -0.45765114624E+03  0.45765114627E+03  0.50400000000E-02 0.  1.
   -5000001    1    1    2    0    0  0.16266556336E+03  0.76144099209E+02 -0.96356337136E+02  0.32255627889E+03  0.25000000000E+03 0.  0.
    5000001    1    1    2    0    0 -0.16266556336E+03 -0.76144099209E+02 -0.15274763839E+03  0.34364203815E+03  0.25000000000E+03 0.  0.
<mgrwt>
<rscale>  0 0.61787329E+03</rscale>
<asrwt>0</asrwt>
<pdfrwt beam="1">  1        1 0.70407868E-01 0.61787329E+03</pdfrwt>
<pdfrwt beam="2">  1       -1 0.32084180E-01 0.61787329E+03</pdfrwt>
<totfact> 0.45859444E+02</totfact>
</mgrwt>
</event>
<event>
 4    1  0.4305113E-006  0.7111004E+03  0.7818608E-02  0.9698435E-01
         -1   -1    0    0    0  501 -0.00000000000E+00  0.00000000000E+00  0.38766772488E+03  0.38766772492E+03  0.50400000000E-02 0. -1.
          1   -1    0    0  501    0  0.00000000000E+00 -0.00000000000E+00 -0.32609355039E+03  0.32609355042E+03  0.50400000000E-02 0.  1.
   -5000001    1    1    2    0    0 -0.14057657469E+03 -0.20620521892E+03 -0.97817115378E+01  0.35338088169E+03  0.25000000000E+03 0.  0.
    5000001    1    1    2    0    0  0.14057657469E+03  0.20620521892E+03  0.71355886037E+02  0.36038039366E+03  0.25000000000E+03 0.  0.
<mgrwt>
<rscale>  0 0.71110040E+03</rscale>
<asrwt>0</asrwt>
<pdfrwt beam="1">  1        1 0.50168239E-01 0.71110040E+03</pdfrwt>
<pdfrwt beam="2">  1       -1 0.59641188E-01 0.71110040E+03</pdfrwt>
<totfact> 0.22719891E+02</totfact>
</mgrwt>
</event>
<event>
 4    1  0.4305113E-006  0.7599677E+03  0.7818608E-02  0.9619841E-01
         -1   -1    0    0    0  501 -0.00000000000E+00  0.00000000000E+00  0.29163473971E+03  0.29163473976E+03  0.50400000000E-02 0. -1.
          1   -1    0    0  501    0  0.00000000000E+00 -0.00000000000E+00 -0.49509783919E+03  0.49509783921E+03  0.50400000000E-02 0.  1.
   -5000001    1    1    2    0    0  0.17398260719E+03  0.21463235293E+03 -0.17885869217E+03  0.41331274635E+03  0.25000000000E+03 0.  0.
    5000001    1    1    2    0    0 -0.17398260719E+03 -0.21463235293E+03 -0.24604407299E+02  0.37341983262E+03  0.25000000000E+03 0.  0.
<mgrwt>
<rscale>  0 0.75996771E+03</rscale>
<asrwt>0</asrwt>
<pdfrwt beam="1">  1        1 0.76168898E-01 0.75996771E+03</pdfrwt>
<pdfrwt beam="2">  1       -1 0.44866883E-01 0.75996771E+03</pdfrwt>
<totfact> 0.22396387E+02</totfact>
</mgrwt>
</event>
<event>
 4    1  0.4305113E-006  0.9545492E+03  0.7818608E-02  0.9359849E-01
         -1   -1    0    0    0  501 -0.00000000000E+00  0.00000000000E+00  0.10220724420E+03  0.10220724432E+03  0.50400000000E-02 0. -1.
          1   -1    0    0  501    0  0.00000000000E+00 -0.00000000000E+00 -0.22287171555E+04  0.22287171555E+04  0.50400000000E-02 0.  1.
   -5000001    1    1    2    0    0  0.29653212159E+03 -0.24858230868E+03 -0.75858725527E+03  0.88751286592E+03  0.25000000000E+03 0.  0.
    5000001    1    1    2    0    0 -0.29653212159E+03  0.24858230868E+03 -0.13679226561E+04  0.14434115339E+04  0.25000000000E+03 0.  0.
<mgrwt>
<rscale>  0 0.95454919E+03</rscale>
<asrwt>0</asrwt>
<pdfrwt beam="1">  1        1 0.34287953E+00 0.95454919E+03</pdfrwt>
<pdfrwt beam="2">  1       -1 0.15724193E-01 0.95454919E+03</pdfrwt>
<totfact> 0.64391042E+01</totfact>
</mgrwt>
</event>
<event>
 4    1  0.4305113E-006  0.1103181E+04  0.7818608E-02  0.9202097E-01
         -1   -1    0    0    0  501 -0.00000000000E+00  0.00000000000E+00  0.12853568774E+04  0.12853568775E+04  0.50400000000E-02 0. -1.
          1   -1    0    0  501    0  0.00000000000E+00 -0.00000000000E+00 -0.23670637903E+03  0.23670637908E+03  0.50400000000E-02 0.  1.
   -5000001    1    1    2    0    0  0.43774524186E+03 -0.15681220048E+03  0.30382626644E+03  0.60911522980E+03  0.25000000000E+03 0.  0.
    5000001    1    1    2    0    0 -0.43774524186E+03  0.15681220048E+03  0.74482423198E+03  0.91294802674E+03  0.25000000000E+03 0.  0.
<mgrwt>
<rscale>  0 0.11031812E+04</rscale>
<asrwt>0</asrwt>
<pdfrwt beam="1">  1        1 0.36416366E-01 0.11031812E+04</pdfrwt>
<pdfrwt beam="2">  1       -1 0.19774721E+00 0.11031812E+04</pdfrwt>
<totfact> 0.18574361E+01</totfact>
</mgrwt>
</event>
<event>
 4    1  0.4305113E-006  0.1321784E+04  0.7818608E-02  0.9012467E-01
         -1   -1    0    0    0  501 -0.00000000000E+00  0.00000000000E+00  0.24813744231E+03  0.24813744236E+03  0.50400000000E-02 0. -1.
          1   -1    0    0  501    0  0.00000000000E+00 -0.00000000000E+00 -0.17602257332E+04  0.17602257332E+04  0.50400000000E-02 0.  1.
   -5000001    1    1    2    0    0 -0.48566078760E+03 -0.58214727903E+02 -0.19772170540E+03  0.58382294229E+03  0.25000000000E+03 0.  0.
    5000001    1    1    2    0    0  0.48566078760E+03  0.58214727903E+02 -0.13143665855E+04  0.14245402333E+04  0.25000000000E+03 0.  0.
<mgrwt>
<rscale>  0 0.13217835E+04</rscale>
<asrwt>0</asrwt>
<pdfrwt beam="1">  1        1 0.27080395E+00 0.13217835E+04</pdfrwt>
<pdfrwt beam="2">  1       -1 0.38174992E-01 0.13217835E+04</pdfrwt>
<totfact> 0.28221664E+01</totfact>
</mgrwt>
</event>
<event>
 4    1  0.4305113E-006  0.1345947E+04  0.7818608E-02  0.8993902E-01
         -1   -1    0    0    0  501 -0.00000000000E+00  0.00000000000E+00  0.50812929117E+03  0.50812929120E+03  0.50400000000E-02 0. -1.
          1   -1    0    0  501    0  0.00000000000E+00 -0.00000000000E+00 -0.89129579500E+03  0.89129579501E+03  0.50400000000E-02 0.  1.
   -5000001    1    1    2    0    0  0.47420175933E+03 -0.10111748324E+03  0.21815769393E+03  0.58752432579E+03  0.25000000000E+03 0.  0.
    5000001    1    1    2    0    0 -0.47420175933E+03  0.10111748324E+03 -0.60132419776E+03  0.81190076043E+03  0.25000000000E+03 0.  0.
<mgrwt>
<rscale>  0 0.13459473E+04</rscale>
<asrwt>0</asrwt>
<pdfrwt beam="1">  1        1 0.13712243E+00 0.13459473E+04</pdfrwt>
<pdfrwt beam="2">  1       -1 0.78173737E-01 0.13459473E+04</pdfrwt>
<totfact> 0.29686196E+01</totfact>
</mgrwt>
</event>
<event>
 4    1  0.4305113E-006  0.1105076E+04  0.7818608E-02  0.9200258E-01
         -1   -1    0    0    0  501 -0.00000000000E+00  0.00000000000E+00  0.39624125657E+03  0.39624125660E+03  0.50400000000E-02 0. -1.
          1   -1    0    0  501    0  0.00000000000E+00 -0.00000000000E+00 -0.77048611885E+03  0.77048611886E+03  0.50400000000E-02 0.  1.
   -5000001    1    1    2    0    0 -0.42152827837E+03  0.19258000887E+03 -0.36386932758E+03  0.64005783866E+03  0.25000000000E+03 0.  0.
    5000001    1    1    2    0    0  0.42152827837E+03 -0.19258000887E+03 -0.10375534697E+02  0.52666953680E+03  0.25000000000E+03 0.  0.
<mgrwt>
<rscale>  0 0.11050763E+04</rscale>
<asrwt>0</asrwt>
<pdfrwt beam="1">  1        1 0.11853633E+00 0.11050763E+04</pdfrwt>
<pdfrwt beam="2">  1       -1 0.60960193E-01 0.11050763E+04</pdfrwt>
<totfact> 0.63830259E+01</totfact>
</mgrwt>
</event>
<event>
 4    1  0.4305113E-006  0.5455641E+03  0.7818608E-02  0.1002526E+00
          1   -1    0    0  501    0  0.00000000000E+00  0.00000000000E+00  0.27765934265E+03  0.27765934270E+03  0.50400000000E-02 0.  1.
         -1   -1    0    0    0  501 -0.00000000000E+00 -0.00000000000E+00 -0.26799047023E+03  0.26799047028E+03  0.50400000000E-02 0. -1.
   -5000001    1    1    2    0    0  0.71186278607E+02 -0.77313964279E+02  0.34252019785E+02  0.27334618379E+03  0.25000000000E+03 0.  0.
    5000001    1    1    2    0    0 -0.71186278607E+02  0.77313964279E+02 -0.24583147362E+02  0.27230362919E+03  0.25000000000E+03 0.  0.
<mgrwt>
<rscale>  0 0.54556414E+03</rscale>
<asrwt>0</asrwt>
<pdfrwt beam="1">  1        1 0.42716822E-01 0.54556414E+03</pdfrwt>
<pdfrwt beam="2">  1       -1 0.41229304E-01 0.54556414E+03</pdfrwt>
<totfact> 0.56438862E+02</totfact>
</mgrwt>
</event>
<event>
 4    1  0.4305113E-006  0.6500943E+03  0.7818608E-02  0.9806602E-01
          1   -1    0    0  501    0  0.00000000000E+00  0.00000000000E+00  0.10336729228E+04  0.10336729228E+04  0.50400000000E-02 0.  1.
         -1   -1    0    0    0  501 -0.00000000000E+00 -0.00000000000E+00 -0.10221379620E+03  0.10221379633E+03  0.50400000000E-02 0. -1.
   -5000001    1    1    2    0    0  0.19020576800E+03  0.16212436251E+02  0.60890461738E+03  0.68535093955E+03  0.25000000000E+03 0.  0.
    5000001    1    1    2    0    0 -0.19020576800E+03 -0.16212436251E+02  0.32255450918E+03  0.45053577956E+03  0.25000000000E+03 0.  0.
<mgrwt>
<rscale>  0 0.65009425E+03</rscale>
<asrwt>0</asrwt>
<pdfrwt beam="1">  1        1 0.15902660E+00 0.65009425E+03</pdfrwt>
<pdfrwt beam="2">  1       -1 0.15725199E-01 0.65009425E+03</pdfrwt>
<totfact> 0.44002555E+02</totfact>
</mgrwt>
</event>
<event>
 4    1  0.4305113E-006  0.9388859E+03  0.7818608E-02  0.9378236E-01
          1   -1    0    0  501    0  0.00000000000E+00  0.00000000000E+00  0.85382142925E+03  0.85382142926E+03  0.50400000000E-02 0. -1.
         -1   -1    0    0    0  501 -0.00000000000E+00 -0.00000000000E+00 -0.25810628577E+03  0.25810628582E+03  0.50400000000E-02 0.  1.
   -5000001    1    1    2    0    0  0.27425316786E+03  0.28023827379E+03  0.22176294689E+03  0.51519617117E+03  0.25000000000E+03 0.  0.
    5000001    1    1    2    0    0 -0.27425316786E+03 -0.28023827379E+03  0.37395219659E+03  0.59673154392E+03  0.25000000000E+03 0.  0.
<mgrwt>
<rscale>  0 0.93888589E+03</rscale>
<asrwt>0</asrwt>
<pdfrwt beam="1">  1        1 0.13135714E+00 0.93888589E+03</pdfrwt>
<pdfrwt beam="2">  1       -1 0.39708659E-01 0.93888589E+03</pdfrwt>
<totfact> 0.12331557E+02</totfact>
</mgrwt>
</event>
<event>
 4    1  0.4305113E-006  0.9214234E+03  0.7818608E-02  0.9399190E-01
          1   -1    0    0  501    0  0.00000000000E+00  0.00000000000E+00  0.83967037819E+03  0.83967037820E+03  0.50400000000E-02 0. -1.
         -1   -1    0    0    0  501 -0.00000000000E+00 -0.00000000000E+00 -0.25278403948E+03  0.25278403954E+03  0.50400000000E-02 0.  1.
   -5000001    1    1    2    0    0  0.34593289716E+03 -0.13205601916E+03  0.16011059104E+03  0.47459852812E+03  0.25000000000E+03 0.  0.
    5000001    1    1    2    0    0 -0.34593289716E+03  0.13205601916E+03  0.42677574766E+03  0.61785588961E+03  0.25000000000E+03 0.  0.
<mgrwt>
<rscale>  0 0.92142340E+03</rscale>
<asrwt>0</asrwt>
<pdfrwt beam="1">  1        1 0.12918006E+00 0.92142340E+03</pdfrwt>
<pdfrwt beam="2">  1       -1 0.38889852E-01 0.92142340E+03</pdfrwt>
<totfact> 0.13178939E+02</totfact>
</mgrwt>
</event>
<event>
 4    1  0.4305113E-006  0.9420373E+03  0.7818608E-02  0.9374506E-01
         -1   -1    0    0    0  501 -0.00000000000E+00  0.00000000000E+00  0.23257707098E+03  0.23257707104E+03  0.50400000000E-02 0.  1.
          1   -1    0    0  501    0  0.00000000000E+00 -0.00000000000E+00 -0.95391419518E+03  0.95391419519E+03  0.50400000000E-02 0. -1.
   -5000001    1    1    2    0    0 -0.20893116096E+03  0.25464287560E+03 -0.64472125217E+03  0.76593780238E+03  0.25000000000E+03 0.  0.
    5000001    1    1    2    0    0  0.20893116096E+03 -0.25464287560E+03 -0.76615872028E+02  0.42055346386E+03  0.25000000000E+03 0.  0.
<mgrwt>
<rscale>  0 0.94203730E+03</rscale>
<asrwt>0</asrwt>
<pdfrwt beam="1">  1        1 0.14675603E+00 0.94203730E+03</pdfrwt>
<pdfrwt beam="2">  1       -1 0.35781088E-01 0.94203730E+03</pdfrwt>
<totfact> 0.12327341E+02</totfact>
</mgrwt>
</event>
<event>
 4    1  0.4305113E-006  0.8036603E+03  0.7818608E-02  0.9554734E-01
         -1   -1    0    0    0  501 -0.00000000000E+00  0.00000000000E+00  0.12770454680E+04  0.12770454681E+04  0.50400000000E-02 0. -1.
          1   -1    0    0  501    0  0.00000000000E+00 -0.00000000000E+00 -0.12643830945E+03  0.12643830955E+03  0.50400000000E-02 0.  1.
   -5000001    1    1    2    0    0 -0.28967565556E+03 -0.30477459276E+02  0.78286844673E+03  0.87190817512E+03  0.25000000000E+03 0.  0.
    5000001    1    1    2    0    0  0.28967565556E+03  0.30477459276E+02  0.36773871186E+03  0.53157560248E+03  0.25000000000E+03 0.  0.
<mgrwt>
<rscale>  0 0.80366030E+03</rscale>
<asrwt>0</asrwt>
<pdfrwt beam="1">  1        1 0.19452048E-01 0.80366030E+03</pdfrwt>
<pdfrwt beam="2">  1       -1 0.19646853E+00 0.80366030E+03</pdfrwt>
<totfact> 0.44143767E+01</totfact>
</mgrwt>
</event>
<event>
 4    1  0.4305113E-006  0.8170400E+03  0.7818608E-02  0.9535675E-01
         -1   -1    0    0    0  501 -0.00000000000E+00  0.00000000000E+00  0.26265755811E+03  0.26265755816E+03  0.50400000000E-02 0. -1.
          1   -1    0    0  501    0  0.00000000000E+00 -0.00000000000E+00 -0.63538465205E+03  0.63538465207E+03  0.50400000000E-02 0.  1.
   -5000001    1    1    2    0    0  0.28325855085E+03  0.10289740224E+02 -0.35680944976E+03  0.51976366632E+03  0.25000000000E+03 0.  0.
    5000001    1    1    2    0    0 -0.28325855085E+03 -0.10289740224E+02 -0.15917644173E+02  0.37827854390E+03  0.25000000000E+03 0.  0.
<mgrwt>
<rscale>  0 0.81703998E+03</rscale>
<asrwt>0</asrwt>
<pdfrwt beam="1">  1        1 0.97751484E-01 0.81703998E+03</pdfrwt>
<pdfrwt beam="2">  1       -1 0.40408855E-01 0.81703998E+03</pdfrwt>
<totfact> 0.19021054E+02</totfact>
</mgrwt>
</event>
<event>
 4    1  0.4305113E-006  0.6452666E+03  0.7818608E-02  0.9815702E-01
         -1   -1    0    0    0  501 -0.00000000000E+00  0.00000000000E+00  0.29863800564E+03  0.29863800568E+03  0.50400000000E-02 0. -1.
          1   -1    0    0  501    0  0.00000000000E+00 -0.00000000000E+00 -0.34855662607E+03  0.34855662611E+03  0.50400000000E-02 0.  1.
   -5000001    1    1    2    0    0 -0.13411863956E+03  0.94578665919E+02  0.96478141523E+02  0.31423075171E+03  0.25000000000E+03 0.  0.
    5000001    1    1    2    0    0  0.13411863956E+03 -0.94578665919E+02 -0.14639676196E+03  0.33296388008E+03  0.25000000000E+03 0.  0.
<mgrwt>
<rscale>  0 0.64526663E+03</rscale>
<asrwt>0</asrwt>
<pdfrwt beam="1">  1        1 0.53624096E-01 0.64526663E+03</pdfrwt>
<pdfrwt beam="2">  1       -1 0.45944309E-01 0.64526663E+03</pdfrwt>
<totfact> 0.34372978E+02</totfact>
</mgrwt>
</event>
<event>
 4    1  0.4305113E-006  0.7359027E+03  0.7818608E-02  0.9657730E-01
          1   -1    0    0  501    0  0.00000000000E+00  0.00000000000E+00  0.26169180907E+03  0.26169180912E+03  0.50400000000E-02 0.  1.
         -1   -1    0    0    0  501 -0.00000000000E+00 -0.00000000000E+00 -0.51735745675E+03  0.51735745677E+03  0.50400000000E-02 0. -1.
   -5000001    1    1    2    0    0  0.18245237389E+03  0.18555825258E+03 -0.20393265568E+03  0.41449880807E+03  0.25000000000E+03 0.  0.
    5000001    1    1    2    0    0 -0.18245237389E+03 -0.18555825258E+03 -0.51732992000E+02  0.36455045782E+03  0.25000000000E+03 0.  0.
<mgrwt>
<rscale>  0 0.73590273E+03</rscale>
<asrwt>0</asrwt>
<pdfrwt beam="1">  1        1 0.40260278E-01 0.73590273E+03</pdfrwt>
<pdfrwt beam="2">  1       -1 0.79593455E-01 0.73590273E+03</pdfrwt>
<totfact> 0.16758782E+02</totfact>
</mgrwt>
</event>
<event>
 4    1  0.4305113E-006  0.7411657E+03  0.7818608E-02  0.9649313E-01
         -1   -1    0    0    0  501 -0.00000000000E+00  0.00000000000E+00  0.66577419771E+02  0.66577419962E+02  0.50400000000E-02 0.  1.
          1   -1    0    0  501    0  0.00000000000E+00 -0.00000000000E+00 -0.20627361713E+04  0.20627361713E+04  0.50400000000E-02 0. -1.
   -5000001    1    1    2    0    0 -0.21319650658E+03 -0.14985154001E+03 -0.75903167261E+03  0.84055774013E+03  0.25000000000E+03 0.  0.
    5000001    1    1    2    0    0  0.21319650658E+03  0.14985154001E+03 -0.12371270789E+04  0.12887558511E+04  0.25000000000E+03 0.  0.
<mgrwt>
<rscale>  0 0.74116571E+03</rscale>
<asrwt>0</asrwt>
<pdfrwt beam="1">  1        1 0.31734398E+00 0.74116571E+03</pdfrwt>
<pdfrwt beam="2">  1       -1 0.10242682E-01 0.74116571E+03</pdfrwt>
<totfact> 0.16930530E+02</totfact>
</mgrwt>
</event>
<event>
 4    1  0.4305113E-006  0.8452149E+03  0.7818608E-02  0.9496782E-01
          1   -1    0    0  501    0  0.00000000000E+00  0.00000000000E+00  0.34843528713E+03  0.34843528716E+03  0.50400000000E-02 0.  1.
         -1   -1    0    0    0  501 -0.00000000000E+00 -0.00000000000E+00 -0.51256884446E+03  0.51256884448E+03  0.50400000000E-02 0. -1.
   -5000001    1    1    2    0    0  0.15989449750E+02 -0.31260588802E+03  0.55054486080E+02  0.40436258502E+03  0.25000000000E+03 0.  0.
    5000001    1    1    2    0    0 -0.15989449750E+02  0.31260588802E+03 -0.21918804341E+03  0.45664154662E+03  0.25000000000E+03 0.  0.
<mgrwt>
<rscale>  0 0.84521494E+03</rscale>
<asrwt>0</asrwt>
<pdfrwt beam="1">  1        1 0.53605429E-01 0.84521494E+03</pdfrwt>
<pdfrwt beam="2">  1       -1 0.78856745E-01 0.84521494E+03</pdfrwt>
<totfact> 0.11713957E+02</totfact>
</mgrwt>
</event>
<event>
 4    1  0.4305113E-006  0.1135334E+04  0.7818608E-02  0.9171422E-01
          1   -1    0    0  501    0  0.00000000000E+00  0.00000000000E+00  0.72373348410E+03  0.72373348411E+03  0.50400000000E-02 0.  1.
         -1   -1    0    0    0  501 -0.00000000000E+00 -0.00000000000E+00 -0.44525448129E+03  0.44525448131E+03  0.50400000000E-02 0. -1.
   -5000001    1    1    2    0    0 -0.31441151995E+03 -0.60324984384E+02  0.54754428730E+03  0.68176128827E+03  0.25000000000E+03 0.  0.
    5000001    1    1    2    0    0  0.31441151995E+03  0.60324984384E+02 -0.26906528449E+03  0.48722667716E+03  0.25000000000E+03 0.  0.
<mgrwt>
<rscale>  0 0.11353336E+04</rscale>
<asrwt>0</asrwt>
<pdfrwt beam="1">  1        1 0.11134361E+00 0.11353336E+04</pdfrwt>
<pdfrwt beam="2">  1       -1 0.68500690E-01 0.11353336E+04</pdfrwt>
<totfact> 0.55528457E+01</totfact>
</mgrwt>
</event>
<event>
 4    1  0.4305113E-006  0.5962673E+03  0.7818608E-02  0.9913181E-01
          1   -1    0    0  501    0  0.00000000000E+00  0.00000000000E+00  0.84678541999E+03  0.84678542000E+03  0.50400000000E-02 0.  1.
         -1   -1    0    0    0  501 -0.00000000000E+00 -0.00000000000E+00 -0.10496601071E+03  0.10496601083E+03  0.50400000000E-02 0. -1.
   -5000001    1    1    2    0    0  0.64318823175E+01  0.13791644997E+03  0.23433234097E+03  0.36942382477E+03  0.25000000000E+03 0.  0.
    5000001    1    1    2    0    0 -0.64318823175E+01 -0.13791644997E+03  0.50748706831E+03  0.58232760606E+03  0.25000000000E+03 0.  0.
<mgrwt>
<rscale>  0 0.59626735E+03</rscale>
<asrwt>0</asrwt>
<pdfrwt beam="1">  1        1 0.13027468E+00 0.59626735E+03</pdfrwt>
<pdfrwt beam="2">  1       -1 0.16148617E-01 0.59626735E+03</pdfrwt>
<totfact> 0.59454868E+02</totfact>
</mgrwt>
</event>
<event>
 4    1  0.4305113E-006  0.6676330E+03  0.7818608E-02  0.9774243E-01
          1   -1    0    0  501    0  0.00000000000E+00  0.00000000000E+00  0.21738019010E+04  0.21738019010E+04  0.50400000000E-02 0. -1.
         -1   -1    0    0    0  501 -0.00000000000E+00 -0.00000000000E+00 -0.51262004302E+02  0.51262004550E+02  0.50400000000E-02 0.  1.
   -5000001    1    1    2    0    0  0.75421122125E+02  0.20106561519E+03  0.12381803150E+04  0.12812908412E+04  0.25000000000E+03 0.  0.
    5000001    1    1    2    0    0 -0.75421122125E+02 -0.20106561519E+03  0.88435958172E+03  0.94377306438E+03  0.25000000000E+03 0.  0.
<mgrwt>
<rscale>  0 0.66763296E+03</rscale>
<asrwt>0</asrwt>
<pdfrwt beam="1">  1        1 0.33443107E+00 0.66763296E+03</pdfrwt>
<pdfrwt beam="2">  1       -1 0.78864621E-02 0.66763296E+03</pdfrwt>
<totfact> 0.21675744E+02</totfact>
</mgrwt>
</event>
<event>
 4    1  0.4305113E-006  0.1020842E+04  0.7818608E-02  0.9285977E-01
          1   -1    0    0  501    0  0.00000000000E+00  0.00000000000E+00  0.18851341178E+04  0.18851341178E+04  0.50400000000E-02 0.  1.
         -1   -1    0    0    0  501 -0.00000000000E+00 -0.00000000000E+00 -0.13820214462E+03  0.13820214471E+03  0.50400000000E-02 0. -1.
   -5000001    1    1    2    0    0 -0.42542330380E+03  0.69088814318E+01  0.61506517426E+03  0.78856698425E+03  0.25000000000E+03 0.  0.
    5000001    1    1    2    0    0  0.42542330380E+03 -0.69088814318E+01  0.11318667989E+04  0.12347692783E+04  0.25000000000E+03 0.  0.
<mgrwt>
<rscale>  0 0.10208420E+04</rscale>
<asrwt>0</asrwt>
<pdfrwt beam="1">  1        1 0.29002062E+00 0.10208420E+04</pdfrwt>
<pdfrwt beam="2">  1       -1 0.21261870E-01 0.10208420E+04</pdfrwt>
<totfact> 0.66098435E+01</totfact>
</mgrwt>
</event>
<event>
 4    1  0.4305113E-006  0.5300458E+03  0.7818608E-02  0.1006221E+00
         -1   -1    0    0    0  501 -0.00000000000E+00  0.00000000000E+00  0.69410114065E+02  0.69410114248E+02  0.50400000000E-02 0.  1.
          1   -1    0    0  501    0  0.00000000000E+00 -0.00000000000E+00 -0.10119150675E+04  0.10119150675E+04  0.50400000000E-02 0. -1.
   -5000001    1    1    2    0    0 -0.83618146992E+02  0.26065079900E+02 -0.48779552174E+03  0.55508184435E+03  0.25000000000E+03 0.  0.
    5000001    1    1    2    0    0  0.83618146992E+02 -0.26065079900E+02 -0.45470943170E+03  0.52624333741E+03  0.25000000000E+03 0.  0.
<mgrwt>
<rscale>  0 0.53004581E+03</rscale>
<asrwt>0</asrwt>
<pdfrwt beam="1">  1        1 0.15567923E+00 0.53004581E+03</pdfrwt>
<pdfrwt beam="2">  1       -1 0.10678480E-01 0.53004581E+03</pdfrwt>
<totfact> 0.85458774E+02</totfact>
</mgrwt>
</event>
<event>
 4    1  0.4305113E-006  0.6319716E+03  0.7818608E-02  0.9841209E-01
          1   -1    0    0  501    0  0.00000000000E+00  0.00000000000E+00  0.90057085014E+03  0.90057085015E+03  0.50400000000E-02 0.  1.
         -1   -1    0    0    0  501 -0.00000000000E+00 -0.00000000000E+00 -0.11087082870E+03  0.11087082882E+03  0.50400000000E-02 0. -1.
   -5000001    1    1    2    0    0  0.16153429337E+03 -0.94643481570E+02  0.31815635077E+03  0.44584098070E+03  0.25000000000E+03 0.  0.
    5000001    1    1    2    0    0 -0.16153429337E+03  0.94643481570E+02  0.47154367066E+03  0.56560069827E+03  0.25000000000E+03 0.  0.
<mgrwt>
<rscale>  0 0.63197163E+03</rscale>
<asrwt>0</asrwt>
<pdfrwt beam="1">  1        1 0.13854935E+00 0.63197163E+03</pdfrwt>
<pdfrwt beam="2">  1       -1 0.17057051E-01 0.63197163E+03</pdfrwt>
<totfact> 0.49039154E+02</totfact>
</mgrwt>
</event>
<event>
 4    1  0.4305113E-006  0.7257577E+03  0.7818608E-02  0.9674170E-01
         -1   -1    0    0    0  501 -0.00000000000E+00  0.00000000000E+00  0.12912303550E+03  0.12912303560E+03  0.50400000000E-02 0. -1.
          1   -1    0    0  501    0  0.00000000000E+00 -0.00000000000E+00 -0.10198106957E+04  0.10198106957E+04  0.50400000000E-02 0.  1.
   -5000001    1    1    2    0    0  0.27679494307E+02 -0.12817952550E+03 -0.84398042764E+02  0.29465093719E+03  0.25000000000E+03 0.  0.
    5000001    1    1    2    0    0 -0.27679494307E+02  0.12817952550E+03 -0.80628961740E+03  0.85428279409E+03  0.25000000000E+03 0.  0.
<mgrwt>
<rscale>  0 0.72575768E+03</rscale>
<asrwt>0</asrwt>
<pdfrwt beam="1">  1        1 0.15689395E+00 0.72575768E+03</pdfrwt>
<pdfrwt beam="2">  1       -1 0.19865083E-01 0.72575768E+03</pdfrwt>
<totfact> 0.30571337E+02</totfact>
</mgrwt>
</event>
<event>
 4    1  0.4305113E-006  0.5448654E+03  0.7818608E-02  0.1002689E+00
          1   -1    0    0  501    0  0.00000000000E+00  0.00000000000E+00  0.12514121809E+03  0.12514121819E+03  0.50400000000E-02 0.  1.
         -1   -1    0    0    0  501 -0.00000000000E+00 -0.00000000000E+00 -0.59308648053E+03  0.59308648055E+03  0.50400000000E-02 0. -1.
   -5000001    1    1    2    0    0  0.18953011456E+02  0.10655318035E+03 -0.23054341022E+03  0.35687961679E+03  0.25000000000E+03 0.  0.
    5000001    1    1    2    0    0 -0.18953011456E+02 -0.10655318035E+03 -0.23740185223E+03  0.36134808195E+03  0.25000000000E+03 0.  0.
<mgrwt>
<rscale>  0 0.54486536E+03</rscale>
<asrwt>0</asrwt>
<pdfrwt beam="1">  1        1 0.19252495E-01 0.54486536E+03</pdfrwt>
<pdfrwt beam="2">  1       -1 0.91244073E-01 0.54486536E+03</pdfrwt>
<totfact> 0.32866165E+02</totfact>
</mgrwt>
</event>
<event>
 4    1  0.4305113E-006  0.8957518E+03  0.7818608E-02  0.9430908E-01
          1   -1    0    0  501    0  0.00000000000E+00  0.00000000000E+00  0.13225966887E+04  0.13225966887E+04  0.50400000000E-02 0.  1.
         -1   -1    0    0    0  501 -0.00000000000E+00 -0.00000000000E+00 -0.15166589648E+03  0.15166589656E+03  0.50400000000E-02 0. -1.
   -5000001    1    1    2    0    0 -0.56426333116E+02 -0.31778145839E+03  0.28232795589E+03  0.49636484670E+03  0.25000000000E+03 0.  0.
    5000001    1    1    2    0    0  0.56426333116E+02  0.31778145839E+03  0.88860283637E+03  0.97789773861E+03  0.25000000000E+03 0.  0.
<mgrwt>
<rscale>  0 0.89575178E+03</rscale>
<asrwt>0</asrwt>
<pdfrwt beam="1">  1        1 0.20347640E+00 0.89575178E+03</pdfrwt>
<pdfrwt beam="2">  1       -1 0.23333216E-01 0.89575178E+03</pdfrwt>
<totfact> 0.13841085E+02</totfact>
</mgrwt>
</event>
<event>
 4    1  0.4305113E-006  0.7940506E+03  0.7818608E-02  0.9568669E-01
         -1   -1    0    0    0  501 -0.00000000000E+00  0.00000000000E+00  0.17917588326E+03  0.17917588333E+03  0.50400000000E-02 0. -1.
          1   -1    0    0  501    0  0.00000000000E+00 -0.00000000000E+00 -0.87974504606E+03  0.87974504608E+03  0.50400000000E-02 0.  1.
   -5000001    1    1    2    0    0  0.17968210436E+03 -0.20931593223E+03 -0.16631843710E+03  0.40775070893E+03  0.25000000000E+03 0.  0.
    5000001    1    1    2    0    0 -0.17968210436E+03  0.20931593223E+03 -0.53425072571E+03  0.65117022048E+03  0.25000000000E+03 0.  0.
<mgrwt>
<rscale>  0 0.79405062E+03</rscale>
<asrwt>0</asrwt>
<pdfrwt beam="1">  1        1 0.13534539E+00 0.79405062E+03</pdfrwt>
<pdfrwt beam="2">  1       -1 0.27565521E-01 0.79405062E+03</pdfrwt>
<totfact> 0.22592344E+02</totfact>
</mgrwt>
</event>
<event>
 4    1  0.4305113E-006  0.5814572E+03  0.7818608E-02  0.9944641E-01
          1   -1    0    0  501    0  0.00000000000E+00  0.00000000000E+00  0.13618219487E+04  0.13618219487E+04  0.50400000000E-02 0.  1.
         -1   -1    0    0    0  501 -0.00000000000E+00 -0.00000000000E+00 -0.62066206046E+02  0.62066206250E+02  0.50400000000E-02 0. -1.
   -5000001    1    1    2    0    0 -0.55929871143E+02  0.11312926642E+03  0.84108627204E+03  0.88648321948E+03  0.25000000000E+03 0.  0.
    5000001    1    1    2    0    0  0.55929871143E+02 -0.11312926642E+03  0.45866947064E+03  0.53740493551E+03  0.25000000000E+03 0.  0.
<mgrwt>
<rscale>  0 0.58145721E+03</rscale>
<asrwt>0</asrwt>
<pdfrwt beam="1">  1        1 0.20951109E+00 0.58145721E+03</pdfrwt>
<pdfrwt beam="2">  1       -1 0.95486461E-02 0.58145721E+03</pdfrwt>
<totfact> 0.56795035E+02</totfact>
</mgrwt>
</event>
<event>
 4    1  0.4305113E-006  0.6130337E+03  0.7818608E-02  0.9878728E-01
         -1   -1    0    0    0  501 -0.00000000000E+00  0.00000000000E+00  0.64030177232E+02  0.64030177430E+02  0.50400000000E-02 0.  1.
          1   -1    0    0  501    0  0.00000000000E+00 -0.00000000000E+00 -0.14673170005E+04  0.14673170005E+04  0.50400000000E-02 0. -1.
   -5000001    1    1    2    0    0 -0.14583874724E+03 -0.91554994147E+02 -0.80766239681E+03  0.86282663633E+03  0.25000000000E+03 0.  0.
    5000001    1    1    2    0    0  0.14583874724E+03  0.91554994147E+02 -0.59562442645E+03  0.66852054159E+03  0.25000000000E+03 0.  0.
<mgrwt>
<rscale>  0 0.61303366E+03</rscale>
<asrwt>0</asrwt>
<pdfrwt beam="1">  1        1 0.22574105E+00 0.61303366E+03</pdfrwt>
<pdfrwt beam="2">  1       -1 0.98507976E-02 0.61303366E+03</pdfrwt>
<totfact> 0.45661978E+02</totfact>
</mgrwt>
</event>
<event>
 4    1  0.4305113E-006  0.1336765E+04  0.7818608E-02  0.9000908E-01
         -1   -1    0    0    0  501 -0.00000000000E+00  0.00000000000E+00  0.20640658913E+03  0.20640658919E+03  0.50400000000E-02 0. -1.
          1   -1    0    0  501    0  0.00000000000E+00 -0.00000000000E+00 -0.21643443465E+04  0.21643443465E+04  0.50400000000E-02 0.  1.
   -5000001    1    1    2    0    0 -0.29742784268E+03 -0.52999767843E+03 -0.76267414759E+03  0.10067436199E+04  0.25000000000E+03 0.  0.
    5000001    1    1    2    0    0  0.29742784268E+03  0.52999767843E+03 -0.11952636097E+04  0.13640073158E+04  0.25000000000E+03 0.  0.
<mgrwt>
<rscale>  0 0.13367647E+04</rscale>
<asrwt>0</asrwt>
<pdfrwt beam="1">  1        1 0.33297604E+00 0.13367647E+04</pdfrwt>
<pdfrwt beam="2">  1       -1 0.31754861E-01 0.13367647E+04</pdfrwt>
<totfact> 0.20876822E+01</totfact>
</mgrwt>
</event>
<event>
 4    1  0.4305113E-006  0.7033779E+03  0.7818608E-02  0.9711473E-01
          1   -1    0    0  501    0  0.00000000000E+00  0.00000000000E+00  0.26477532117E+04  0.26477532117E+04  0.50400000000E-02 0.  1.
         -1   -1    0    0    0  501 -0.00000000000E+00 -0.00000000000E+00 -0.46713239612E+02  0.46713239884E+02  0.50400000000E-02 0. -1.
   -5000001    1    1    2    0    0 -0.48003689078E+01 -0.11455930996E+03  0.21401300488E+04  0.21577311011E+04  0.25000000000E+03 0.  0.
    5000001    1    1    2    0    0  0.48003689078E+01  0.11455930996E+03  0.46090992330E+03  0.53673535046E+03  0.25000000000E+03 0.  0.
<mgrwt>
<rscale>  0 0.70337794E+03</rscale>
<asrwt>0</asrwt>
<pdfrwt beam="1">  1        1 0.40734655E+00 0.70337794E+03</pdfrwt>
<pdfrwt beam="2">  1       -1 0.71866539E-02 0.70337794E+03</pdfrwt>
<totfact> 0.11913569E+02</totfact>
</mgrwt>
</event>
<event>
 4    1  0.4305113E-006  0.8005685E+03  0.7818608E-02  0.9559195E-01
          1   -1    0    0  501    0  0.00000000000E+00  0.00000000000E+00  0.43409928001E+03  0.43409928004E+03  0.50400000000E-02 0.  1.
         -1   -1    0    0    0  501 -0.00000000000E+00 -0.00000000000E+00 -0.36910328131E+03  0.36910328134E+03  0.50400000000E-02 0. -1.
   -5000001    1    1    2    0    0  0.21529970488E+03 -0.16804370338E+03  0.18509980106E+03  0.41394997949E+03  0.25000000000E+03 0.  0.
    5000001    1    1    2    0    0 -0.21529970488E+03  0.16804370338E+03 -0.12010380237E+03  0.38925258189E+03  0.25000000000E+03 0.  0.
<mgrwt>
<rscale>  0 0.80056847E+03</rscale>
<asrwt>0</asrwt>
<pdfrwt beam="1">  1        1 0.66784505E-01 0.80056847E+03</pdfrwt>
<pdfrwt beam="2">  1       -1 0.56785120E-01 0.80056847E+03</pdfrwt>
<totfact> 0.17077826E+02</totfact>
</mgrwt>
</event>
<event>
 4    1  0.4305113E-006  0.9941984E+03  0.7818608E-02  0.9314931E-01
          1   -1    0    0  501    0  0.00000000000E+00  0.00000000000E+00  0.23400646335E+04  0.23400646335E+04  0.50400000000E-02 0.  1.
         -1   -1    0    0    0  501 -0.00000000000E+00 -0.00000000000E+00 -0.10559863278E+03  0.10559863290E+03  0.50400000000E-02 0. -1.
   -5000001    1    1    2    0    0  0.26551999900E+03 -0.31974170725E+03  0.84920172262E+03  0.97794641721E+03  0.25000000000E+03 0.  0.
    5000001    1    1    2    0    0 -0.26551999900E+03  0.31974170725E+03  0.13852642781E+04  0.14677168492E+04  0.25000000000E+03 0.  0.
<mgrwt>
<rscale>  0 0.99419842E+03</rscale>
<asrwt>0</asrwt>
<pdfrwt beam="1">  1        1 0.36000995E+00 0.99419842E+03</pdfrwt>
<pdfrwt beam="2">  1       -1 0.16245943E-01 0.99419842E+03</pdfrwt>
<totfact> 0.51109228E+01</totfact>
</mgrwt>
</event>
<event>
 4    1  0.4305113E-006  0.7065094E+03  0.7818608E-02  0.9706164E-01
         -1   -1    0    0    0  501 -0.00000000000E+00  0.00000000000E+00  0.14469916856E+03  0.14469916865E+03  0.50400000000E-02 0.  1.
          1   -1    0    0  501    0  0.00000000000E+00 -0.00000000000E+00 -0.86240230686E+03  0.86240230688E+03  0.50400000000E-02 0. -1.
   -5000001    1    1    2    0    0  0.23133536994E+03 -0.50030610181E+02 -0.24598080477E+03  0.42311425367E+03  0.25000000000E+03 0.  0.
    5000001    1    1    2    0    0 -0.23133536994E+03  0.50030610181E+02 -0.47172233353E+03  0.58398722186E+03  0.25000000000E+03 0.  0.
<mgrwt>
<rscale>  0 0.70650944E+03</rscale>
<asrwt>0</asrwt>
<pdfrwt beam="1">  1        1 0.13267727E+00 0.70650944E+03</pdfrwt>
<pdfrwt beam="2">  1       -1 0.22261411E-01 0.70650944E+03</pdfrwt>
<totfact> 0.33760301E+02</totfact>
</mgrwt>
</event>
<event>
 4    1  0.4305113E-006  0.7252129E+03  0.7818608E-02  0.9675060E-01
          1   -1    0    0  501    0  0.00000000000E+00  0.00000000000E+00  0.70286967392E+03  0.70286967394E+03  0.50400000000E-02 0.  1.
         -1   -1    0    0    0  501 -0.00000000000E+00 -0.00000000000E+00 -0.18706661303E+03  0.18706661310E+03  0.50400000000E-02 0. -1.
   -5000001    1    1    2    0    0  0.21406254304E+03  0.14769519902E+03  0.30293607410E+03  0.47106996204E+03  0.25000000000E+03 0.  0.
    5000001    1    1    2    0    0 -0.21406254304E+03 -0.14769519902E+03  0.21286698679E+03  0.41886632499E+03  0.25000000000E+03 0.  0.
<mgrwt>
<rscale>  0 0.72521293E+03</rscale>
<asrwt>0</asrwt>
<pdfrwt beam="1">  1        1 0.10813380E+00 0.72521293E+03</pdfrwt>
<pdfrwt beam="2">  1       -1 0.28779479E-01 0.72521293E+03</pdfrwt>
<totfact> 0.30042101E+02</totfact>
</mgrwt>
</event>
<event>
 4    1  0.4305113E-006  0.7752299E+03  0.7818608E-02  0.9596579E-01
         -1   -1    0    0    0  501 -0.00000000000E+00  0.00000000000E+00  0.22575308203E+03  0.22575308209E+03  0.50400000000E-02 0. -1.
          1   -1    0    0  501    0  0.00000000000E+00 -0.00000000000E+00 -0.66552962486E+03  0.66552962488E+03  0.50400000000E-02 0.  1.
   -5000001    1    1    2    0    0  0.24934345099E+03 -0.15841722173E+03 -0.24500315782E+03  0.45803353593E+03  0.25000000000E+03 0.  0.
    5000001    1    1    2    0    0 -0.24934345099E+03  0.15841722173E+03 -0.19477338501E+03  0.43324917103E+03  0.25000000000E+03 0.  0.
<mgrwt>
<rscale>  0 0.77522994E+03</rscale>
<asrwt>0</asrwt>
<pdfrwt beam="1">  1        1 0.10238917E+00 0.77522994E+03</pdfrwt>
<pdfrwt beam="2">  1       -1 0.34731244E-01 0.77522994E+03</pdfrwt>
<totfact> 0.23382227E+02</totfact>
</mgrwt>
</event>
<event>
 4    1  0.4305113E-006  0.8916020E+03  0.7818608E-02  0.9436141E-01
          1   -1    0    0  501    0  0.00000000000E+00  0.00000000000E+00  0.42544379618E+03  0.42544379621E+03  0.50400000000E-02 0.  1.
         -1   -1    0    0    0  501 -0.00000000000E+00 -0.00000000000E+00 -0.46713223104E+03  0.46713223107E+03  0.50400000000E-02 0. -1.
   -5000001    1    1    2    0    0 -0.34974621315E+03 -0.77756668795E+01 -0.13868277754E+03  0.45179175224E+03  0.25000000000E+03 0.  0.
    5000001    1    1    2    0    0  0.34974621315E+03  0.77756668795E+01  0.96994342687E+02  0.44078427504E+03  0.25000000000E+03 0.  0.
<mgrwt>
<rscale>  0 0.89160195E+03</rscale>
<asrwt>0</asrwt>
<pdfrwt beam="1">  1        1 0.65452892E-01 0.89160195E+03</pdfrwt>
<pdfrwt beam="2">  1       -1 0.71866497E-01 0.89160195E+03</pdfrwt>
<totfact> 0.10889324E+02</totfact>
</mgrwt>
</event>
<event>
 4    1  0.4305113E-006  0.6598677E+03  0.7818608E-02  0.9788437E-01
          1   -1    0    0  501    0  0.00000000000E+00  0.00000000000E+00  0.15690040412E+04  0.15690040412E+04  0.50400000000E-02 0. -1.
         -1   -1    0    0    0  501 -0.00000000000E+00 -0.00000000000E+00 -0.69379260109E+02  0.69379260293E+02  0.50400000000E-02 0.  1.
   -5000001    1    1    2    0    0  0.10553842260E+03 -0.62465795053E+02  0.31043082307E+03  0.41702233766E+03  0.25000000000E+03 0.  0.
    5000001    1    1    2    0    0 -0.10553842260E+03  0.62465795053E+02  0.11891939580E+04  0.12213609638E+04  0.25000000000E+03 0.  0.
<mgrwt>
<rscale>  0 0.65986768E+03</rscale>
<asrwt>0</asrwt>
<pdfrwt beam="1">  1        1 0.24138523E+00 0.65986768E+03</pdfrwt>
<pdfrwt beam="2">  1       -1 0.10673733E-01 0.65986768E+03</pdfrwt>
<totfact> 0.34190119E+02</totfact>
</mgrwt>
</event>
<event>
 4    1  0.4305113E-006  0.8474112E+03  0.7818608E-02  0.9493818E-01
          1   -1    0    0  501    0  0.00000000000E+00  0.00000000000E+00  0.21453172065E+04  0.21453172065E+04  0.50400000000E-02 0. -1.
         -1   -1    0    0    0  501 -0.00000000000E+00 -0.00000000000E+00 -0.83682936290E+02  0.83682936441E+02  0.50400000000E-02 0.  1.
   -5000001    1    1    2    0    0 -0.21675109515E+03  0.20000628290E+03  0.14867351589E+04  0.15361852047E+04  0.25000000000E+03 0.  0.
    5000001    1    1    2    0    0  0.21675109515E+03 -0.20000628290E+03  0.57489911123E+03  0.69281493817E+03  0.25000000000E+03 0.  0.
<mgrwt>
<rscale>  0 0.84741122E+03</rscale>
<asrwt>0</asrwt>
<pdfrwt beam="1">  1        1 0.33004876E+00 0.84741122E+03</pdfrwt>
<pdfrwt beam="2">  1       -1 0.12874299E-01 0.84741122E+03</pdfrwt>
<totfact> 0.10242135E+02</totfact>
</mgrwt>
</event>
<event>
 4    1  0.4305113E-006  0.7040087E+03  0.7818608E-02  0.9710401E-01
          1   -1    0    0  501    0  0.00000000000E+00  0.00000000000E+00  0.70978743901E+03  0.70978743902E+03  0.50400000000E-02 0.  1.
         -1   -1    0    0    0  501 -0.00000000000E+00 -0.00000000000E+00 -0.17456923227E+03  0.17456923234E+03  0.50400000000E-02 0. -1.
   -5000001    1    1    2    0    0  0.21213611907E+02 -0.22720289881E+03  0.38898345996E+03  0.51563485790E+03  0.25000000000E+03 0.  0.
    5000001    1    1    2    0    0 -0.21213611907E+02  0.22720289881E+03  0.14623474678E+03  0.36872181347E+03  0.25000000000E+03 0.  0.
<mgrwt>
<rscale>  0 0.70400866E+03</rscale>
<asrwt>0</asrwt>
<pdfrwt beam="1">  1        1 0.10919807E+00 0.70400866E+03</pdfrwt>
<pdfrwt beam="2">  1       -1 0.26856805E-01 0.70400866E+03</pdfrwt>
<totfact> 0.33382644E+02</totfact>
</mgrwt>
</event>
<event>
 4    1  0.4305113E-006  0.6351069E+03  0.7818608E-02  0.9835133E-01
         -1   -1    0    0    0  501 -0.00000000000E+00  0.00000000000E+00  0.23774375152E+03  0.23774375157E+03  0.50400000000E-02 0. -1.
          1   -1    0    0  501    0  0.00000000000E+00 -0.00000000000E+00 -0.42415492145E+03  0.42415492148E+03  0.50400000000E-02 0.  1.
   -5000001    1    1    2    0    0  0.10725132307E+03  0.10492570747E+03 -0.22432191662E+03  0.36787575710E+03  0.25000000000E+03 0.  0.
    5000001    1    1    2    0    0 -0.10725132307E+03 -0.10492570747E+03  0.37910746694E+02  0.29402291595E+03  0.25000000000E+03 0.  0.
<mgrwt>
<rscale>  0 0.63510686E+03</rscale>
<asrwt>0</asrwt>
<pdfrwt beam="1">  1        1 0.65254603E-01 0.63510686E+03</pdfrwt>
<pdfrwt beam="2">  1       -1 0.36575962E-01 0.63510686E+03</pdfrwt>
<totfact> 0.40237481E+02</totfact>
</mgrwt>
</event>
<event>
 4    1  0.4305113E-006  0.1602896E+04  0.7818608E-02  0.8818771E-01
         -1   -1    0    0    0  501 -0.00000000000E+00  0.00000000000E+00  0.18964164642E+03  0.18964164648E+03  0.50400000000E-02 0.  1.
          1   -1    0    0  501    0  0.00000000000E+00 -0.00000000000E+00 -0.33870139344E+04  0.33870139344E+04  0.50400000000E-02 0. -1.
   -5000001    1    1    2    0    0 -0.71809861703E+03 -0.19740883814E+03 -0.12445863031E+04  0.14717781555E+04  0.25000000000E+03 0.  0.
    5000001    1    1    2    0    0  0.71809861703E+03  0.19740883814E+03 -0.19527859849E+04  0.21048774254E+04  0.25000000000E+03 0.  0.
<mgrwt>
<rscale>  0 0.16028960E+04</rscale>
<asrwt>0</asrwt>
<pdfrwt beam="1">  1        1 0.52107902E+00 0.16028960E+04</pdfrwt>
<pdfrwt beam="2">  1       -1 0.29175640E-01 0.16028960E+04</pdfrwt>
<totfact> 0.31740757E+00</totfact>
</mgrwt>
</event>
<event>
 4    1  0.4305113E-006  0.6520296E+03  0.7818608E-02  0.9802978E-01
         -1   -1    0    0    0  501 -0.00000000000E+00  0.00000000000E+00  0.23359980738E+03  0.23359980744E+03  0.50400000000E-02 0. -1.
          1   -1    0    0  501    0  0.00000000000E+00 -0.00000000000E+00 -0.45499024915E+03  0.45499024917E+03  0.50400000000E-02 0.  1.
   -5000001    1    1    2    0    0 -0.10693815747E+03 -0.31940528972E+02  0.76231488412E+02  0.28419571907E+03  0.25000000000E+03 0.  0.
    5000001    1    1    2    0    0  0.10693815747E+03  0.31940528972E+02 -0.29762193018E+03  0.40439433754E+03  0.25000000000E+03 0.  0.
<mgrwt>
<rscale>  0 0.65202955E+03</rscale>
<asrwt>0</asrwt>
<pdfrwt beam="1">  1        1 0.69998499E-01 0.65202955E+03</pdfrwt>
<pdfrwt beam="2">  1       -1 0.35938432E-01 0.65202955E+03</pdfrwt>
<totfact> 0.37777461E+02</totfact>
</mgrwt>
</event>
<event>
 4    1  0.4305113E-006  0.9731412E+03  0.7818608E-02  0.9338504E-01
          1   -1    0    0  501    0  0.00000000000E+00  0.00000000000E+00  0.10040030415E+03  0.10040030428E+03  0.50400000000E-02 0.  1.
         -1   -1    0    0    0  501 -0.00000000000E+00 -0.00000000000E+00 -0.23580699784E+04  0.23580699785E+04  0.50400000000E-02 0. -1.
   -5000001    1    1    2    0    0  0.16251346176E+03 -0.36601218071E+03 -0.83124925347E+03  0.95595547128E+03  0.25000000000E+03 0.  0.
    5000001    1    1    2    0    0 -0.16251346176E+03  0.36601218071E+03 -0.14264204208E+04  0.15025148115E+04  0.25000000000E+03 0.  0.
<mgrwt>
<rscale>  0 0.97314119E+03</rscale>
<asrwt>0</asrwt>
<pdfrwt beam="1">  1        1 0.15446203E-01 0.97314119E+03</pdfrwt>
<pdfrwt beam="2">  1       -1 0.36277995E+00 0.97314119E+03</pdfrwt>
<totfact> 0.48678816E+00</totfact>
</mgrwt>
</event>
<event>
 4    1  0.4305113E-006  0.6506164E+03  0.7818608E-02  0.9805623E-01
         -1   -1    0    0    0  501 -0.00000000000E+00  0.00000000000E+00  0.31558460938E+02  0.31558461341E+02  0.50400000000E-02 0. -1.
          1   -1    0    0  501    0  0.00000000000E+00 -0.00000000000E+00 -0.33533135420E+04  0.33533135420E+04  0.50400000000E-02 0.  1.
   -5000001    1    1    2    0    0 -0.60690971423E+02  0.19696024707E+03 -0.15093157223E+04  0.15437003215E+04  0.25000000000E+03 0.  0.
    5000001    1    1    2    0    0  0.60690971423E+02 -0.19696024707E+03 -0.18124393588E+04  0.18411716819E+04  0.25000000000E+03 0.  0.
<mgrwt>
<rscale>  0 0.65061637E+03</rscale>
<asrwt>0</asrwt>
<pdfrwt beam="1">  1        1 0.51589411E+00 0.65061637E+03</pdfrwt>
<pdfrwt beam="2">  1       -1 0.48551505E-02 0.65061637E+03</pdfrwt>
<totfact> 0.68485289E+01</totfact>
</mgrwt>
</event>
<event>
 4    1  0.4305113E-006  0.5702375E+03  0.7818608E-02  0.9969153E-01
         -1   -1    0    0    0  501 -0.00000000000E+00  0.00000000000E+00  0.11129156948E+03  0.11129156959E+03  0.50400000000E-02 0. -1.
          1   -1    0    0  501    0  0.00000000000E+00 -0.00000000000E+00 -0.73044809670E+03  0.73044809672E+03  0.50400000000E-02 0.  1.
   -5000001    1    1    2    0    0  0.37408696273E+02  0.11959137833E+03 -0.39164856257E+03  0.48123809585E+03  0.25000000000E+03 0.  0.
    5000001    1    1    2    0    0 -0.37408696273E+02 -0.11959137833E+03 -0.22750796465E+03  0.36050157046E+03  0.25000000000E+03 0.  0.
<mgrwt>
<rscale>  0 0.57023755E+03</rscale>
<asrwt>0</asrwt>
<pdfrwt beam="1">  1        1 0.11237663E+00 0.57023755E+03</pdfrwt>
<pdfrwt beam="2">  1       -1 0.17121780E-01 0.57023755E+03</pdfrwt>
<totfact> 0.68242023E+02</totfact>
</mgrwt>
</event>
<event>
 4    1  0.4305113E-006  0.7834054E+03  0.7818608E-02  0.9584353E-01
         -1   -1    0    0    0  501 -0.00000000000E+00  0.00000000000E+00  0.37446542088E+02  0.37446542427E+02  0.50400000000E-02 0.  1.
          1   -1    0    0  501    0  0.00000000000E+00 -0.00000000000E+00 -0.40973346328E+04  0.40973346328E+04  0.50400000000E-02 0. -1.
   -5000001    1    1    2    0    0  0.28782097748E+03 -0.47746882524E+02 -0.16276287644E+04  0.16723624232E+04  0.25000000000E+03 0.  0.
    5000001    1    1    2    0    0 -0.28782097748E+03  0.47746882524E+02 -0.24322593263E+04  0.24624187520E+04  0.25000000000E+03 0.  0.
<mgrwt>
<rscale>  0 0.78340542E+03</rscale>
<asrwt>0</asrwt>
<pdfrwt beam="1">  1        1 0.63035882E+00 0.78340542E+03</pdfrwt>
<pdfrwt beam="2">  1       -1 0.57610097E-02 0.78340542E+03</pdfrwt>
<totfact> 0.12853748E+01</totfact>
</mgrwt>
</event>
<event>
 4    1  0.4305113E-006  0.6260856E+03  0.7818608E-02  0.9852717E-01
          1   -1    0    0  501    0  0.00000000000E+00  0.00000000000E+00  0.11819641954E+03  0.11819641964E+03  0.50400000000E-02 0.  1.
         -1   -1    0    0    0  501 -0.00000000000E+00 -0.00000000000E+00 -0.82909267587E+03  0.82909267588E+03  0.50400000000E-02 0. -1.
   -5000001    1    1    2    0    0  0.14307986530E+03  0.10186475212E+03 -0.25230055373E+03  0.39623710703E+03  0.25000000000E+03 0.  0.
    5000001    1    1    2    0    0 -0.14307986530E+03 -0.10186475212E+03 -0.45859570260E+03  0.55105198849E+03  0.25000000000E+03 0.  0.
<mgrwt>
<rscale>  0 0.62608557E+03</rscale>
<asrwt>0</asrwt>
<pdfrwt beam="1">  1        1 0.18184065E-01 0.62608557E+03</pdfrwt>
<pdfrwt beam="2">  1       -1 0.12755272E+00 0.62608557E+03</pdfrwt>
<totfact> 0.16161594E+02</totfact>
</mgrwt>
</event>
<event>
 4    1  0.4305113E-006  0.1141796E+04  0.7818608E-02  0.9165385E-01
          1   -1    0    0  501    0  0.00000000000E+00  0.00000000000E+00  0.23152647975E+04  0.23152647975E+04  0.50400000000E-02 0.  1.
         -1   -1    0    0    0  501 -0.00000000000E+00 -0.00000000000E+00 -0.14077213332E+03  0.14077213341E+03  0.50400000000E-02 0. -1.
   -5000001    1    1    2    0    0 -0.45814873825E+03  0.32465785174E+02  0.15799703123E+04  0.16642597397E+04  0.25000000000E+03 0.  0.
    5000001    1    1    2    0    0  0.45814873825E+03 -0.32465785174E+02  0.59452235187E+03  0.79177719116E+03  0.25000000000E+03 0.  0.
<mgrwt>
<rscale>  0 0.11417964E+04</rscale>
<asrwt>0</asrwt>
<pdfrwt beam="1">  1        1 0.35619460E+00 0.11417964E+04</pdfrwt>
<pdfrwt beam="2">  1       -1 0.21657251E-01 0.11417964E+04</pdfrwt>
<totfact> 0.32474451E+01</totfact>
</mgrwt>
</event>
<event>
 4    1  0.4305113E-006  0.9558982E+03  0.7818608E-02  0.9358283E-01
         -1   -1    0    0    0  501 -0.00000000000E+00  0.00000000000E+00  0.22093494072E+03  0.22093494077E+03  0.50400000000E-02 0. -1.
          1   -1    0    0  501    0  0.00000000000E+00 -0.00000000000E+00 -0.10339484885E+04  0.10339484885E+04  0.50400000000E-02 0.  1.
   -5000001    1    1    2    0    0  0.34946614986E+03 -0.12695669324E+03 -0.62496034217E+03  0.76897335528E+03  0.25000000000E+03 0.  0.
    5000001    1    1    2    0    0 -0.34946614986E+03  0.12695669324E+03 -0.18805320557E+03  0.48591007396E+03  0.25000000000E+03 0.  0.
<mgrwt>
<rscale>  0 0.95589821E+03</rscale>
<asrwt>0</asrwt>
<pdfrwt beam="1">  1        1 0.15906900E+00 0.95589821E+03</pdfrwt>
<pdfrwt beam="2">  1       -1 0.33989991E-01 0.95589821E+03</pdfrwt>
<totfact> 0.11687590E+02</totfact>
</mgrwt>
</event>
<event>
 4    1  0.4305113E-006  0.7390791E+03  0.7818608E-02  0.9652641E-01
          1   -1    0    0  501    0  0.00000000000E+00  0.00000000000E+00  0.27033783522E+03  0.27033783527E+03  0.50400000000E-02 0. -1.
         -1   -1    0    0    0  501 -0.00000000000E+00 -0.00000000000E+00 -0.50514378958E+03  0.50514378961E+03  0.50400000000E-02 0.  1.
   -5000001    1    1    2    0    0  0.60035064414E+02  0.26120839553E+03 -0.67904834961E+02  0.37275340571E+03  0.25000000000E+03 0.  0.
    5000001    1    1    2    0    0 -0.60035064414E+02 -0.26120839553E+03 -0.16690111940E+03  0.40272821917E+03  0.25000000000E+03 0.  0.
<mgrwt>
<rscale>  0 0.73907910E+03</rscale>
<asrwt>0</asrwt>
<pdfrwt beam="1">  1        1 0.41590436E-01 0.73907910E+03</pdfrwt>
<pdfrwt beam="2">  1       -1 0.77714429E-01 0.73907910E+03</pdfrwt>
<totfact> 0.16897698E+02</totfact>
</mgrwt>
</event>
<event>
 4    1  0.4305113E-006  0.6488785E+03  0.7818608E-02  0.9808886E-01
         -1   -1    0    0    0  501 -0.00000000000E+00  0.00000000000E+00  0.23695184914E+03  0.23695184920E+03  0.50400000000E-02 0. -1.
          1   -1    0    0  501    0  0.00000000000E+00 -0.00000000000E+00 -0.44422878459E+03  0.44422878462E+03  0.50400000000E-02 0.  1.
   -5000001    1    1    2    0    0  0.45298182742E+02 -0.18059810500E+03 -0.19807931357E+03  0.36932778849E+03  0.25000000000E+03 0.  0.
    5000001    1    1    2    0    0 -0.45298182742E+02  0.18059810500E+03 -0.91976218786E+01  0.31185284532E+03  0.25000000000E+03 0.  0.
<mgrwt>
<rscale>  0 0.64887852E+03</rscale>
<asrwt>0</asrwt>
<pdfrwt beam="1">  1        1 0.68342890E-01 0.64887852E+03</pdfrwt>
<pdfrwt beam="2">  1       -1 0.36454131E-01 0.64887852E+03</pdfrwt>
<totfact> 0.38036190E+02</totfact>
</mgrwt>
</event>
<event>
 4    1  0.4305113E-006  0.6708204E+03  0.7818608E-02  0.9768477E-01
         -1   -1    0    0    0  501 -0.00000000000E+00  0.00000000000E+00  0.98838107267E+03  0.98838107268E+03  0.50400000000E-02 0. -1.
          1   -1    0    0  501    0  0.00000000000E+00 -0.00000000000E+00 -0.11382249600E+03  0.11382249611E+03  0.50400000000E-02 0.  1.
   -5000001    1    1    2    0    0 -0.12711739859E+03  0.16814086181E+03  0.31465512163E+03  0.45380395327E+03  0.25000000000E+03 0.  0.
    5000001    1    1    2    0    0  0.12711739859E+03 -0.16814086181E+03  0.55990345504E+03  0.64839961552E+03  0.25000000000E+03 0.  0.
<mgrwt>
<rscale>  0 0.67082040E+03</rscale>
<asrwt>0</asrwt>
<pdfrwt beam="1">  1        1 0.17511153E-01 0.67082040E+03</pdfrwt>
<pdfrwt beam="2">  1       -1 0.15205863E+00 0.67082040E+03</pdfrwt>
<totfact> 0.10755411E+02</totfact>
</mgrwt>
</event>
<event>
 4    1  0.4305113E-006  0.3456945E+04  0.7818608E-02  0.8124070E-01
          1   -1    0    0  501    0  0.00000000000E+00  0.00000000000E+00  0.20637960144E+04  0.20637960144E+04  0.50400000000E-02 0. -1.
         -1   -1    0    0    0  501 -0.00000000000E+00 -0.00000000000E+00 -0.14476317920E+04  0.14476317920E+04  0.50400000000E-02 0.  1.
   -5000001    1    1    2    0    0  0.31968301512E+03 -0.16187583810E+04  0.76522036429E+03  0.18359297732E+04  0.25000000000E+03 0.  0.
    5000001    1    1    2    0    0 -0.31968301512E+03  0.16187583810E+04 -0.14905614187E+03  0.16754980333E+04  0.25000000000E+03 0.  0.
<mgrwt>
<rscale>  0 0.34569447E+04</rscale>
<asrwt>0</asrwt>
<pdfrwt beam="1">  1        1 0.31750708E+00 0.34569447E+04</pdfrwt>
<pdfrwt beam="2">  1       -1 0.22271258E+00 0.34569447E+04</pdfrwt>
<totfact> 0.23309029E-01</totfact>
</mgrwt>
</event>
<event>
 4    1  0.4305113E-006  0.8815485E+03  0.7818608E-02  0.9448945E-01
          1   -1    0    0  501    0  0.00000000000E+00  0.00000000000E+00  0.30241864744E+03  0.30241864748E+03  0.50400000000E-02 0.  1.
         -1   -1    0    0    0  501 -0.00000000000E+00 -0.00000000000E+00 -0.64242712907E+03  0.64242712909E+03  0.50400000000E-02 0. -1.
   -5000001    1    1    2    0    0  0.51856947627E+01 -0.20440840221E+03 -0.49149538830E+03  0.58811342702E+03  0.25000000000E+03 0.  0.
    5000001    1    1    2    0    0 -0.51856947627E+01  0.20440840221E+03  0.15148690666E+03  0.35673234955E+03  0.25000000000E+03 0.  0.
<mgrwt>
<rscale>  0 0.88154851E+03</rscale>
<asrwt>0</asrwt>
<pdfrwt beam="1">  1        1 0.46525946E-01 0.88154851E+03</pdfrwt>
<pdfrwt beam="2">  1       -1 0.98834943E-01 0.88154851E+03</pdfrwt>
<totfact> 0.85730846E+01</totfact>
</mgrwt>
</event>
<event>
 4    1  0.4305113E-006  0.5519545E+03  0.7818608E-02  0.1001043E+00
          1   -1    0    0  501    0  0.00000000000E+00  0.00000000000E+00  0.28278356644E+04  0.28278356644E+04  0.50400000000E-02 0. -1.
         -1   -1    0    0    0  501 -0.00000000000E+00 -0.00000000000E+00 -0.26933478054E+02  0.26933478526E+02  0.50400000000E-02 0.  1.
   -5000001    1    1    2    0    0  0.22438841232E+02  0.11208094229E+03  0.12739920938E+04  0.13033117410E+04  0.25000000000E+03 0.  0.
    5000001    1    1    2    0    0 -0.22438841232E+02 -0.11208094229E+03  0.15269100926E+04  0.15514574019E+04  0.25000000000E+03 0.  0.
<mgrwt>
<rscale>  0 0.55195453E+03</rscale>
<asrwt>0</asrwt>
<pdfrwt beam="1">  1        1 0.43505154E+00 0.55195453E+03</pdfrwt>
<pdfrwt beam="2">  1       -1 0.41436130E-02 0.55195453E+03</pdfrwt>
<totfact> 0.21186802E+02</totfact>
</mgrwt>
</event>
<event>
 4    1  0.4305113E-006  0.1016277E+04  0.7818608E-02  0.9290870E-01
         -1   -1    0    0    0  501 -0.00000000000E+00  0.00000000000E+00  0.32845582904E+03  0.32845582908E+03  0.50400000000E-02 0.  1.
          1   -1    0    0  501    0  0.00000000000E+00 -0.00000000000E+00 -0.78611781786E+03  0.78611781788E+03  0.50400000000E-02 0. -1.
   -5000001    1    1    2    0    0  0.15393283256E+03  0.41466271597E+03 -0.22002337849E+03  0.55367027375E+03  0.25000000000E+03 0.  0.
    5000001    1    1    2    0    0 -0.15393283256E+03 -0.41466271597E+03 -0.23763861034E+03  0.56090337321E+03  0.25000000000E+03 0.  0.
<mgrwt>
<rscale>  0 0.10162775E+04</rscale>
<asrwt>0</asrwt>
<pdfrwt beam="1">  1        1 0.12094120E+00 0.10162775E+04</pdfrwt>
<pdfrwt beam="2">  1       -1 0.50531666E-01 0.10162775E+04</pdfrwt>
<totfact> 0.89566189E+01</totfact>
</mgrwt>
</event>
<event>
 4    1  0.4305113E-006  0.6096489E+03  0.7818608E-02  0.9885587E-01
          1   -1    0    0  501    0  0.00000000000E+00  0.00000000000E+00  0.24007857625E+04  0.24007857625E+04  0.50400000000E-02 0.  1.
         -1   -1    0    0    0  501 -0.00000000000E+00 -0.00000000000E+00 -0.38703143492E+02  0.38703143820E+02  0.50400000000E-02 0. -1.
   -5000001    1    1    2    0    0 -0.12009618422E+03  0.11119000042E+03  0.93990044255E+03  0.98625511485E+03  0.25000000000E+03 0.  0.
    5000001    1    1    2    0    0  0.12009618422E+03 -0.11119000042E+03  0.14221821764E+04  0.14532337914E+04  0.25000000000E+03 0.  0.
<mgrwt>
<rscale>  0 0.60964894E+03</rscale>
<asrwt>0</asrwt>
<pdfrwt beam="1">  1        1 0.36935163E+00 0.60964894E+03</pdfrwt>
<pdfrwt beam="2">  1       -1 0.59543303E-02 0.60964894E+03</pdfrwt>
<totfact> 0.23728328E+02</totfact>
</mgrwt>
</event>
<event>
 4    1  0.4305113E-006  0.7296194E+03  0.7818608E-02  0.9667878E-01
          1   -1    0    0  501    0  0.00000000000E+00  0.00000000000E+00  0.17046373985E+04  0.17046373985E+04  0.50400000000E-02 0.  1.
         -1   -1    0    0    0  501 -0.00000000000E+00 -0.00000000000E+00 -0.78072968543E+02  0.78072968706E+02  0.50400000000E-02 0. -1.
   -5000001    1    1    2    0    0 -0.10361975316E+03 -0.19502398481E+03  0.45240537864E+03  0.56208721256E+03  0.25000000000E+03 0.  0.
    5000001    1    1    2    0    0  0.10361975316E+03  0.19502398481E+03  0.11741590513E+04  0.12206231546E+04  0.25000000000E+03 0.  0.
<mgrwt>
<rscale>  0 0.72961936E+03</rscale>
<asrwt>0</asrwt>
<pdfrwt beam="1">  1        1 0.26225192E+00 0.72961936E+03</pdfrwt>
<pdfrwt beam="2">  1       -1 0.12011225E-01 0.72961936E+03</pdfrwt>
<totfact> 0.22827510E+02</totfact>
</mgrwt>
</event>
<event>
 4    1  0.4305113E-006  0.1267791E+04  0.7818608E-02  0.9055505E-01
         -1   -1    0    0    0  501 -0.00000000000E+00  0.00000000000E+00  0.33435031291E+03  0.33435031294E+03  0.50400000000E-02 0. -1.
          1   -1    0    0  501    0  0.00000000000E+00 -0.00000000000E+00 -0.12018030648E+04  0.12018030648E+04  0.50400000000E-02 0.  1.
   -5000001    1    1    2    0    0 -0.37353264215E+03 -0.22685448621E+03  0.32940405962E+02  0.50455392477E+03  0.25000000000E+03 0.  0.
    5000001    1    1    2    0    0  0.37353264215E+03  0.22685448621E+03 -0.90039315781E+03  0.10315994529E+04  0.25000000000E+03 0.  0.
<mgrwt>
<rscale>  0 0.12677906E+04</rscale>
<asrwt>0</asrwt>
<pdfrwt beam="1">  1        1 0.18489278E+00 0.12677906E+04</pdfrwt>
<pdfrwt beam="2">  1       -1 0.51438510E-01 0.12677906E+04</pdfrwt>
<totfact> 0.39881868E+01</totfact>
</mgrwt>
</event>
<event>
 4    1  0.4305113E-006  0.6325274E+03  0.7818608E-02  0.9840129E-01
         -1   -1    0    0    0  501 -0.00000000000E+00  0.00000000000E+00  0.52373473470E+02  0.52373473712E+02  0.50400000000E-02 0.  1.
          1   -1    0    0  501    0  0.00000000000E+00 -0.00000000000E+00 -0.19097975817E+04  0.19097975817E+04  0.50400000000E-02 0. -1.
   -5000001    1    1    2    0    0 -0.60730874025E+02 -0.14622876670E+03 -0.12748672241E+04  0.13087618310E+04  0.25000000000E+03 0.  0.
    5000001    1    1    2    0    0  0.60730874025E+02  0.14622876670E+03 -0.58255688411E+03  0.65340922438E+03  0.25000000000E+03 0.  0.
<mgrwt>
<rscale>  0 0.63252742E+03</rscale>
<asrwt>0</asrwt>
<pdfrwt beam="1">  1        1 0.29381496E+00 0.63252742E+03</pdfrwt>
<pdfrwt beam="2">  1       -1 0.80574590E-02 0.63252742E+03</pdfrwt>
<totfact> 0.31530492E+02</totfact>
</mgrwt>
</event>
<event>
 4    1  0.4305113E-006  0.9378930E+03  0.7818608E-02  0.9379415E-01
          1   -1    0    0  501    0  0.00000000000E+00  0.00000000000E+00  0.53084996572E+03  0.53084996574E+03  0.50400000000E-02 0.  1.
         -1   -1    0    0    0  501 -0.00000000000E+00 -0.00000000000E+00 -0.41426170006E+03  0.41426170009E+03  0.50400000000E-02 0. -1.
   -5000001    1    1    2    0    0 -0.26697621620E+03 -0.29260181092E+03  0.35344085822E+02  0.46972473234E+03  0.25000000000E+03 0.  0.
    5000001    1    1    2    0    0  0.26697621620E+03  0.29260181092E+03  0.81244179841E+02  0.47538693349E+03  0.25000000000E+03 0.  0.
<mgrwt>
<rscale>  0 0.93789298E+03</rscale>
<asrwt>0</asrwt>
<pdfrwt beam="1">  1        1 0.81669225E-01 0.93789298E+03</pdfrwt>
<pdfrwt beam="2">  1       -1 0.63732570E-01 0.93789298E+03</pdfrwt>
<totfact> 0.10245585E+02</totfact>
</mgrwt>
</event>
<event>
 4    1  0.4305113E-006  0.5600028E+03  0.7818608E-02  0.9992048E-01
         -1   -1    0    0    0  501 -0.00000000000E+00  0.00000000000E+00  0.41855268141E+02  0.41855268445E+02  0.50400000000E-02 0. -1.
          1   -1    0    0  501    0  0.00000000000E+00 -0.00000000000E+00 -0.18731398977E+04  0.18731398977E+04  0.50400000000E-02 0.  1.
   -5000001    1    1    2    0    0  0.95999346128E+02 -0.81541997493E+02 -0.89518134946E+03  0.93793103171E+03  0.25000000000E+03 0.  0.
    5000001    1    1    2    0    0 -0.95999346128E+02  0.81541997493E+02 -0.93610328010E+03  0.97706413444E+03  0.25000000000E+03 0.  0.
<mgrwt>
<rscale>  0 0.56000276E+03</rscale>
<asrwt>0</asrwt>
<pdfrwt beam="1">  1        1 0.28817530E+00 0.56000276E+03</pdfrwt>
<pdfrwt beam="2">  1       -1 0.64392735E-02 0.56000276E+03</pdfrwt>
<totfact> 0.47502075E+02</totfact>
</mgrwt>
</event>
<event>
 4    1  0.4305113E-006  0.7191608E+03  0.7818608E-02  0.9685014E-01
          1   -1    0    0  501    0  0.00000000000E+00  0.00000000000E+00  0.32462609128E+03  0.32462609132E+03  0.50400000000E-02 0.  1.
         -1   -1    0    0    0  501 -0.00000000000E+00 -0.00000000000E+00 -0.39829846365E+03  0.39829846368E+03  0.50400000000E-02 0. -1.
   -5000001    1    1    2    0    0 -0.11196567569E+03  0.14210244740E+03  0.14870676077E+03  0.34255381882E+03  0.25000000000E+03 0.  0.
    5000001    1    1    2    0    0  0.11196567569E+03 -0.14210244740E+03 -0.22237913314E+03  0.38037073618E+03  0.25000000000E+03 0.  0.
<mgrwt>
<rscale>  0 0.71916083E+03</rscale>
<asrwt>0</asrwt>
<pdfrwt beam="1">  1        1 0.49942476E-01 0.71916083E+03</pdfrwt>
<pdfrwt beam="2">  1       -1 0.61276686E-01 0.71916083E+03</pdfrwt>
<totfact> 0.21658450E+02</totfact>
</mgrwt>
</event>
<event>
 4    1  0.4305113E-006  0.1153397E+04  0.7818608E-02  0.9154655E-01
          1   -1    0    0  501    0  0.00000000000E+00  0.00000000000E+00  0.43723608401E+03  0.43723608404E+03  0.50400000000E-02 0.  1.
         -1   -1    0    0    0  501 -0.00000000000E+00 -0.00000000000E+00 -0.76064464005E+03  0.76064464006E+03  0.50400000000E-02 0. -1.
   -5000001    1    1    2    0    0  0.42375350898E+03 -0.15611936455E+03  0.10539334818E+03  0.52682829290E+03  0.25000000000E+03 0.  0.
    5000001    1    1    2    0    0 -0.42375350898E+03  0.15611936455E+03 -0.42880190422E+03  0.67105243120E+03  0.25000000000E+03 0.  0.
<mgrwt>
<rscale>  0 0.11533972E+04</rscale>
<asrwt>0</asrwt>
<pdfrwt beam="1">  1        1 0.67267090E-01 0.11533972E+04</pdfrwt>
<pdfrwt beam="2">  1       -1 0.11702225E+00 0.11533972E+04</pdfrwt>
<totfact> 0.34806667E+01</totfact>
</mgrwt>
</event>
<event>
 4    1  0.4305113E-006  0.7500096E+03  0.7818608E-02  0.9635335E-01
         -1   -1    0    0    0  501 -0.00000000000E+00  0.00000000000E+00  0.57983942524E+02  0.57983942743E+02  0.50400000000E-02 0. -1.
          1   -1    0    0  501    0  0.00000000000E+00 -0.00000000000E+00 -0.24253024061E+04  0.24253024061E+04  0.50400000000E-02 0.  1.
   -5000001    1    1    2    0    0  0.57010943134E+02  0.26518712400E+03 -0.96021814134E+03  0.10286366401E+04  0.25000000000E+03 0.  0.
    5000001    1    1    2    0    0 -0.57010943134E+02 -0.26518712400E+03 -0.14071003223E+04  0.14546497088E+04  0.25000000000E+03 0.  0.
<mgrwt>
<rscale>  0 0.75000959E+03</rscale>
<asrwt>0</asrwt>
<pdfrwt beam="1">  1        1 0.37312337E+00 0.75000959E+03</pdfrwt>
<pdfrwt beam="2">  1       -1 0.89206084E-02 0.75000959E+03</pdfrwt>
<totfact> 0.12000083E+02</totfact>
</mgrwt>
</event>
<event>
 4    1  0.4305113E-006  0.9572172E+03  0.7818608E-02  0.9356754E-01
          1   -1    0    0  501    0  0.00000000000E+00  0.00000000000E+00  0.21060148397E+04  0.21060148397E+04  0.50400000000E-02 0.  1.
         -1   -1    0    0    0  501 -0.00000000000E+00 -0.00000000000E+00 -0.10876759786E+03  0.10876759797E+03  0.50400000000E-02 0. -1.
   -5000001    1    1    2    0    0 -0.11025795270E+03  0.28154757849E+03  0.16328687110E+04  0.16793409667E+04  0.25000000000E+03 0.  0.
    5000001    1    1    2    0    0  0.11025795270E+03 -0.28154757849E+03  0.36437853080E+03  0.53544147094E+03  0.25000000000E+03 0.  0.
<mgrwt>
<rscale>  0 0.95721717E+03</rscale>
<asrwt>0</asrwt>
<pdfrwt beam="1">  1        1 0.32400228E+00 0.95721717E+03</pdfrwt>
<pdfrwt beam="2">  1       -1 0.16733477E-01 0.95721717E+03</pdfrwt>
<totfact> 0.70321945E+01</totfact>
</mgrwt>
</event>
<event>
 4    1  0.4305113E-006  0.6456254E+03  0.7818608E-02  0.9815023E-01
          1   -1    0    0  501    0  0.00000000000E+00  0.00000000000E+00  0.11308010298E+04  0.11308010298E+04  0.50400000000E-02 0.  1.
         -1   -1    0    0    0  501 -0.00000000000E+00 -0.00000000000E+00 -0.92154189427E+02  0.92154189565E+02  0.50400000000E-02 0. -1.
   -5000001    1    1    2    0    0  0.70069597471E+00 -0.17481978134E+03  0.31934563568E+03  0.44163795348E+03  0.25000000000E+03 0.  0.
    5000001    1    1    2    0    0 -0.70069597471E+00  0.17481978134E+03  0.71930120468E+03  0.78131726589E+03  0.25000000000E+03 0.  0.
<mgrwt>
<rscale>  0 0.64562544E+03</rscale>
<asrwt>0</asrwt>
<pdfrwt beam="1">  1        1 0.17396938E+00 0.64562544E+03</pdfrwt>
<pdfrwt beam="2">  1       -1 0.14177568E-01 0.64562544E+03</pdfrwt>
<totfact> 0.44046307E+02</totfact>
</mgrwt>
</event>
<event>
 4    1  0.4305113E-006  0.8602608E+03  0.7818608E-02  0.9476668E-01
         -1   -1    0    0    0  501 -0.00000000000E+00  0.00000000000E+00  0.72531009864E+02  0.72531010039E+02  0.50400000000E-02 0.  1.
          1   -1    0    0  501    0  0.00000000000E+00 -0.00000000000E+00 -0.25508011231E+04  0.25508011231E+04  0.50400000000E-02 0. -1.
   -5000001    1    1    2    0    0  0.28288262647E+03  0.10955334887E+03 -0.17715928687E+04  0.18146806356E+04  0.25000000000E+03 0.  0.
    5000001    1    1    2    0    0 -0.28288262647E+03 -0.10955334887E+03 -0.70667724449E+03  0.80865149755E+03  0.25000000000E+03 0.  0.
<mgrwt>
<rscale>  0 0.86026085E+03</rscale>
<asrwt>0</asrwt>
<pdfrwt beam="1">  1        1 0.39243087E+00 0.86026085E+03</pdfrwt>
<pdfrwt beam="2">  1       -1 0.11158619E-01 0.86026085E+03</pdfrwt>
<totfact> 0.68293029E+01</totfact>
</mgrwt>
</event>
<event>
 4    1  0.4305113E-006  0.8692923E+03  0.7818608E-02  0.9464803E-01
          1   -1    0    0  501    0  0.00000000000E+00  0.00000000000E+00  0.23382141395E+03  0.23382141400E+03  0.50400000000E-02 0.  1.
         -1   -1    0    0    0  501 -0.00000000000E+00 -0.00000000000E+00 -0.80795545052E+03  0.80795545054E+03  0.50400000000E-02 0. -1.
   -5000001    1    1    2    0    0  0.30481915107E+03  0.14550022520E+03 -0.15398170816E+03  0.44754373735E+03  0.25000000000E+03 0.  0.
    5000001    1    1    2    0    0 -0.30481915107E+03 -0.14550022520E+03 -0.42015232841E+03  0.59423312720E+03  0.25000000000E+03 0.  0.
<mgrwt>
<rscale>  0 0.86929232E+03</rscale>
<asrwt>0</asrwt>
<pdfrwt beam="1">  1        1 0.35972526E-01 0.86929232E+03</pdfrwt>
<pdfrwt beam="2">  1       -1 0.12430084E+00 0.86929232E+03</pdfrwt>
<totfact> 0.69548969E+01</totfact>
</mgrwt>
</event>
<event>
 4    1  0.4305113E-006  0.1213981E+04  0.7818608E-02  0.9100706E-01
          1   -1    0    0  501    0  0.00000000000E+00  0.00000000000E+00  0.40586388716E+04  0.40586388716E+04  0.50400000000E-02 0.  1.
         -1   -1    0    0    0  501 -0.00000000000E+00 -0.00000000000E+00 -0.90778588018E+02  0.90778588158E+02  0.50400000000E-02 0. -1.
   -5000001    1    1    2    0    0  0.51017644547E+03 -0.10557947979E+03  0.26188964488E+04  0.26818921756E+04  0.25000000000E+03 0.  0.
    5000001    1    1    2    0    0 -0.51017644547E+03  0.10557947979E+03  0.13489638348E+04  0.14675252841E+04  0.25000000000E+03 0.  0.
<mgrwt>
<rscale>  0 0.12139811E+04</rscale>
<asrwt>0</asrwt>
<pdfrwt beam="1">  1        1 0.62440598E+00 0.12139811E+04</pdfrwt>
<pdfrwt beam="2">  1       -1 0.13965937E-01 0.12139811E+04</pdfrwt>
<totfact> 0.32213085E+00</totfact>
</mgrwt>
</event>
<event>
 4    1  0.4305113E-006  0.5720794E+03  0.7818608E-02  0.9965088E-01
          1   -1    0    0  501    0  0.00000000000E+00  0.00000000000E+00  0.24165956765E+04  0.24165956765E+04  0.50400000000E-02 0.  1.
         -1   -1    0    0    0  501 -0.00000000000E+00 -0.00000000000E+00 -0.33857007669E+02  0.33857008044E+02  0.50400000000E-02 0. -1.
   -5000001    1    1    2    0    0 -0.99361160384E+02 -0.94495727282E+02  0.12887278695E+04  0.13198945429E+04  0.25000000000E+03 0.  0.
    5000001    1    1    2    0    0  0.99361160384E+02  0.94495727282E+02  0.10940107993E+04  0.11305581416E+04  0.25000000000E+03 0.  0.
<mgrwt>
<rscale>  0 0.57207936E+03</rscale>
<asrwt>0</asrwt>
<pdfrwt beam="1">  1        1 0.37178393E+00 0.57207936E+03</pdfrwt>
<pdfrwt beam="2">  1       -1 0.52087708E-02 0.57207936E+03</pdfrwt>
<totfact> 0.28540665E+02</totfact>
</mgrwt>
</event>
<event>
 4    1  0.4305113E-006  0.7265806E+03  0.7818608E-02  0.9672825E-01
         -1   -1    0    0    0  501 -0.00000000000E+00  0.00000000000E+00  0.14107178538E+03  0.14107178547E+03  0.50400000000E-02 0. -1.
          1   -1    0    0  501    0  0.00000000000E+00 -0.00000000000E+00 -0.93555081739E+03  0.93555081740E+03  0.50400000000E-02 0.  1.
   -5000001    1    1    2    0    0 -0.15495042824E+03  0.19057094736E+03 -0.53900129495E+03  0.64292248144E+03  0.25000000000E+03 0.  0.
    5000001    1    1    2    0    0  0.15495042824E+03 -0.19057094736E+03 -0.25547773706E+03  0.43370012142E+03  0.25000000000E+03 0.  0.
<mgrwt>
<rscale>  0 0.72658055E+03</rscale>
<asrwt>0</asrwt>
<pdfrwt beam="1">  1        1 0.14393089E+00 0.72658055E+03</pdfrwt>
<pdfrwt beam="2">  1       -1 0.21703352E-01 0.72658055E+03</pdfrwt>
<totfact> 0.30688610E+02</totfact>
</mgrwt>
</event>
<event>
 4    1  0.4305113E-006  0.1473299E+04  0.7818608E-02  0.8902405E-01
          1   -1    0    0  501    0  0.00000000000E+00  0.00000000000E+00  0.49110324712E+03  0.49110324714E+03  0.50400000000E-02 0.  1.
         -1   -1    0    0    0  501 -0.00000000000E+00 -0.00000000000E+00 -0.11049668763E+04  0.11049668764E+04  0.50400000000E-02 0. -1.
   -5000001    1    1    2    0    0 -0.67295360091E+03  0.64442722028E+01 -0.48574613666E+03  0.86680873721E+03  0.25000000000E+03 0.  0.
    5000001    1    1    2    0    0  0.67295360091E+03 -0.64442722028E+01 -0.12811749256E+03  0.72926138629E+03  0.25000000000E+03 0.  0.
<mgrwt>
<rscale>  0 0.14732995E+04</rscale>
<asrwt>0</asrwt>
<pdfrwt beam="1">  1        1 0.75554346E-01 0.14732995E+04</pdfrwt>
<pdfrwt beam="2">  1       -1 0.16999490E+00 0.14732995E+04</pdfrwt>
<totfact> 0.10838104E+01</totfact>
</mgrwt>
</event>
<event>
 4    1  0.4305113E-006  0.7147171E+03  0.7818608E-02  0.9692390E-01
          1   -1    0    0  501    0  0.00000000000E+00  0.00000000000E+00  0.57933350170E+03  0.57933350172E+03  0.50400000000E-02 0.  1.
         -1   -1    0    0    0  501 -0.00000000000E+00 -0.00000000000E+00 -0.22043455039E+03  0.22043455045E+03  0.50400000000E-02 0. -1.
   -5000001    1    1    2    0    0  0.12086712547E+03  0.21672242312E+03  0.24684678349E+03  0.43012882398E+03  0.25000000000E+03 0.  0.
    5000001    1    1    2    0    0 -0.12086712547E+03 -0.21672242312E+03  0.11205216782E+03  0.36963922819E+03  0.25000000000E+03 0.  0.
<mgrwt>
<rscale>  0 0.71471706E+03</rscale>
<asrwt>0</asrwt>
<pdfrwt beam="1">  1        1 0.89128230E-01 0.71471706E+03</pdfrwt>
<pdfrwt beam="2">  1       -1 0.33913008E-01 0.71471706E+03</pdfrwt>
<totfact> 0.29925772E+02</totfact>
</mgrwt>
</event>
<event>
 4    1  0.4305113E-006  0.1383864E+04  0.7818608E-02  0.8965582E-01
          1   -1    0    0  501    0  0.00000000000E+00  0.00000000000E+00  0.24352270699E+03  0.24352270704E+03  0.50400000000E-02 0.  1.
         -1   -1    0    0    0  501 -0.00000000000E+00 -0.00000000000E+00 -0.19660178026E+04  0.19660178026E+04  0.50400000000E-02 0. -1.
   -5000001    1    1    2    0    0 -0.64001681864E+03 -0.48895564464E+02 -0.96543002253E+03  0.11859879564E+04  0.25000000000E+03 0.  0.
    5000001    1    1    2    0    0  0.64001681864E+03  0.48895564464E+02 -0.75706507313E+03  0.10235525533E+04  0.25000000000E+03 0.  0.
<mgrwt>
<rscale>  0 0.13838641E+04</rscale>
<asrwt>0</asrwt>
<pdfrwt beam="1">  1        1 0.37465033E-01 0.13838641E+04</pdfrwt>
<pdfrwt beam="2">  1       -1 0.30246427E+00 0.13838641E+04</pdfrwt>
<totfact> 0.35899900E+00</totfact>
</mgrwt>
</event>
<event>
 4    1  0.4305113E-006  0.7308560E+03  0.7818608E-02  0.9665872E-01
         -1   -1    0    0    0  501 -0.00000000000E+00  0.00000000000E+00  0.26218034669E+03  0.26218034673E+03  0.50400000000E-02 0. -1.
          1   -1    0    0  501    0  0.00000000000E+00 -0.00000000000E+00 -0.50933500873E+03  0.50933500875E+03  0.50400000000E-02 0.  1.
   -5000001    1    1    2    0    0 -0.69005637154E+02 -0.18792872514E+03  0.62161934320E+02  0.32625617200E+03  0.25000000000E+03 0.  0.
    5000001    1    1    2    0    0  0.69005637154E+02  0.18792872514E+03 -0.30931659636E+03  0.44525918349E+03  0.25000000000E+03 0.  0.
<mgrwt>
<rscale>  0 0.73085602E+03</rscale>
<asrwt>0</asrwt>
<pdfrwt beam="1">  1        1 0.78359232E-01 0.73085602E+03</pdfrwt>
<pdfrwt beam="2">  1       -1 0.40335438E-01 0.73085602E+03</pdfrwt>
<totfact> 0.26231661E+02</totfact>
</mgrwt>
</event>
<event>
 4    1  0.4305113E-006  0.7227693E+03  0.7818608E-02  0.9679067E-01
         -1   -1    0    0    0  501 -0.00000000000E+00  0.00000000000E+00  0.39037767150E+02  0.39037767475E+02  0.50400000000E-02 0. -1.
          1   -1    0    0  501    0  0.00000000000E+00 -0.00000000000E+00 -0.33454488887E+04  0.33454488888E+04  0.50400000000E-02 0.  1.
   -5000001    1    1    2    0    0  0.75015419070E+02 -0.23433172546E+03 -0.12460509791E+04  0.12944812525E+04  0.25000000000E+03 0.  0.
    5000001    1    1    2    0    0 -0.75015419070E+02  0.23433172546E+03 -0.20603601425E+04  0.20900054037E+04  0.25000000000E+03 0.  0.
<mgrwt>
<rscale>  0 0.72276927E+03</rscale>
<asrwt>0</asrwt>
<pdfrwt beam="1">  1        1 0.51468422E+00 0.72276927E+03</pdfrwt>
<pdfrwt beam="2">  1       -1 0.60058130E-02 0.72276927E+03</pdfrwt>
<totfact> 0.49558129E+01</totfact>
</mgrwt>
</event>
<event>
 4    1  0.4305113E-006  0.8099312E+03  0.7818608E-02  0.9545752E-01
          1   -1    0    0  501    0  0.00000000000E+00  0.00000000000E+00  0.18467774577E+03  0.18467774583E+03  0.50400000000E-02 0.  1.
         -1   -1    0    0    0  501 -0.00000000000E+00 -0.00000000000E+00 -0.88801784576E+03  0.88801784578E+03  0.50400000000E-02 0. -1.
   -5000001    1    1    2    0    0  0.84039110973E+02 -0.29823829064E+03 -0.44978937803E+03  0.60068222444E+03  0.25000000000E+03 0.  0.
    5000001    1    1    2    0    0 -0.84039110973E+02  0.29823829064E+03 -0.25355072197E+03  0.47201336717E+03  0.25000000000E+03 0.  0.
<mgrwt>
<rscale>  0 0.80993119E+03</rscale>
<asrwt>0</asrwt>
<pdfrwt beam="1">  1        1 0.28411961E-01 0.80993119E+03</pdfrwt>
<pdfrwt beam="2">  1       -1 0.13661813E+00 0.80993119E+03</pdfrwt>
<totfact> 0.74737686E+01</totfact>
</mgrwt>
</event>
<event>
 4    1  0.4305113E-006  0.5779887E+03  0.7818608E-02  0.9952155E-01
         -1   -1    0    0    0  501 -0.00000000000E+00  0.00000000000E+00  0.25265591161E+03  0.25265591167E+03  0.50400000000E-02 0. -1.
          1   -1    0    0  501    0  0.00000000000E+00 -0.00000000000E+00 -0.33055923225E+03  0.33055923229E+03  0.50400000000E-02 0.  1.
   -5000001    1    1    2    0    0  0.13743387178E+03  0.18340073207E+02 -0.81682155629E+02  0.29731532410E+03  0.25000000000E+03 0.  0.
    5000001    1    1    2    0    0 -0.13743387178E+03 -0.18340073207E+02  0.37788349966E+01  0.28589981985E+03  0.25000000000E+03 0.  0.
<mgrwt>
<rscale>  0 0.57798873E+03</rscale>
<asrwt>0</asrwt>
<pdfrwt beam="1">  1        1 0.50855266E-01 0.57798873E+03</pdfrwt>
<pdfrwt beam="2">  1       -1 0.38870140E-01 0.57798873E+03</pdfrwt>
<totfact> 0.50108005E+02</totfact>
</mgrwt>
</event>
<event>
 4    1  0.4305113E-006  0.6565815E+03  0.7818608E-02  0.9794507E-01
         -1   -1    0    0    0  501 -0.00000000000E+00  0.00000000000E+00  0.28062561697E+03  0.28062561702E+03  0.50400000000E-02 0. -1.
          1   -1    0    0  501    0  0.00000000000E+00 -0.00000000000E+00 -0.38405196484E+03  0.38405196487E+03  0.50400000000E-02 0.  1.
   -5000001    1    1    2    0    0  0.17366610309E+03  0.85661580504E+01  0.72443000048E+02  0.31301962028E+03  0.25000000000E+03 0.  0.
    5000001    1    1    2    0    0 -0.17366610309E+03 -0.85661580504E+01 -0.17586934792E+03  0.35165796161E+03  0.25000000000E+03 0.  0.
<mgrwt>
<rscale>  0 0.65658151E+03</rscale>
<asrwt>0</asrwt>
<pdfrwt beam="1">  1        1 0.59084918E-01 0.65658151E+03</pdfrwt>
<pdfrwt beam="2">  1       -1 0.43173172E-01 0.65658151E+03</pdfrwt>
<totfact> 0.33949134E+02</totfact>
</mgrwt>
</event>
<event>
 4    1  0.4305113E-006  0.5989638E+03  0.7818608E-02  0.9907558E-01
         -1   -1    0    0    0  501 -0.00000000000E+00  0.00000000000E+00  0.82057661370E+02  0.82057661525E+02  0.50400000000E-02 0. -1.
          1   -1    0    0  501    0  0.00000000000E+00 -0.00000000000E+00 -0.10930046674E+04  0.10930046674E+04  0.50400000000E-02 0.  1.
   -5000001    1    1    2    0    0  0.14583887585E+02  0.14274959638E+03 -0.66484412870E+03  0.72464325879E+03  0.25000000000E+03 0.  0.
    5000001    1    1    2    0    0 -0.14583887585E+02 -0.14274959638E+03 -0.34610287728E+03  0.45041907010E+03  0.25000000000E+03 0.  0.
<mgrwt>
<rscale>  0 0.59896380E+03</rscale>
<asrwt>0</asrwt>
<pdfrwt beam="1">  1        1 0.16815455E+00 0.59896380E+03</pdfrwt>
<pdfrwt beam="2">  1       -1 0.12624256E-01 0.59896380E+03</pdfrwt>
<totfact> 0.56741367E+02</totfact>
</mgrwt>
</event>
<event>
 4    1  0.4305113E-006  0.8331087E+03  0.7818608E-02  0.9513293E-01
         -1   -1    0    0    0  501 -0.00000000000E+00  0.00000000000E+00  0.12760563413E+03  0.12760563423E+03  0.50400000000E-02 0. -1.
          1   -1    0    0  501    0  0.00000000000E+00 -0.00000000000E+00 -0.13597950251E+04  0.13597950251E+04  0.50400000000E-02 0.  1.
   -5000001    1    1    2    0    0 -0.10419720795E+03  0.58496297407E+02 -0.60796458297E+02  0.28368130763E+03  0.25000000000E+03 0.  0.
    5000001    1    1    2    0    0  0.10419720795E+03 -0.58496297407E+02 -0.11713929327E+04  0.12037193517E+04  0.25000000000E+03 0.  0.
<mgrwt>
<rscale>  0 0.83310865E+03</rscale>
<asrwt>0</asrwt>
<pdfrwt beam="1">  1        1 0.20919922E+00 0.83310865E+03</pdfrwt>
<pdfrwt beam="2">  1       -1 0.19631637E-01 0.83310865E+03</pdfrwt>
<totfact> 0.17498480E+02</totfact>
</mgrwt>
</event>
<event>
 4    1  0.4305113E-006  0.1717440E+04  0.7818608E-02  0.8751480E-01
          1   -1    0    0  501    0  0.00000000000E+00  0.00000000000E+00  0.27276458250E+04  0.27276458250E+04  0.50400000000E-02 0.  1.
         -1   -1    0    0    0  501 -0.00000000000E+00 -0.00000000000E+00 -0.27034302171E+03  0.27034302176E+03  0.50400000000E-02 0. -1.
   -5000001    1    1    2    0    0 -0.88909049447E+02  0.81647020601E+03  0.12623014156E+04  0.15265756713E+04  0.25000000000E+03 0.  0.
    5000001    1    1    2    0    0  0.88909049447E+02 -0.81647020601E+03  0.11950013877E+04  0.14714131755E+04  0.25000000000E+03 0.  0.
<mgrwt>
<rscale>  0 0.17174400E+04</rscale>
<asrwt>0</asrwt>
<pdfrwt beam="1">  1        1 0.41963782E+00 0.17174400E+04</pdfrwt>
<pdfrwt beam="2">  1       -1 0.41591234E-01 0.17174400E+04</pdfrwt>
<totfact> 0.50659880E+00</totfact>
</mgrwt>
</event>
<event>
 4    1  0.4305113E-006  0.8221839E+03  0.7818608E-02  0.9528451E-01
         -1   -1    0    0    0  501 -0.00000000000E+00  0.00000000000E+00  0.60490213005E+03  0.60490213008E+03  0.50400000000E-02 0. -1.
          1   -1    0    0  501    0  0.00000000000E+00 -0.00000000000E+00 -0.27937837521E+03  0.27937837525E+03  0.50400000000E-02 0.  1.
   -5000001    1    1    2    0    0  0.22190200405E+03  0.23337023882E+03  0.21961651523E+03  0.46306973722E+03  0.25000000000E+03 0.  0.
    5000001    1    1    2    0    0 -0.22190200405E+03 -0.23337023882E+03  0.10590723961E+03  0.42121076811E+03  0.25000000000E+03 0.  0.
<mgrwt>
<rscale>  0 0.82218386E+03</rscale>
<asrwt>0</asrwt>
<pdfrwt beam="1">  1        1 0.42981289E-01 0.82218386E+03</pdfrwt>
<pdfrwt beam="2">  1       -1 0.93061864E-01 0.82218386E+03</pdfrwt>
<totfact> 0.10917473E+02</totfact>
</mgrwt>
</event>
<event>
 4    1  0.4305113E-006  0.7272937E+03  0.7818608E-02  0.9671662E-01
         -1   -1    0    0    0  501 -0.00000000000E+00  0.00000000000E+00  0.21686542834E+04  0.21686542834E+04  0.50400000000E-02 0. -1.
          1   -1    0    0  501    0  0.00000000000E+00 -0.00000000000E+00 -0.60977458936E+02  0.60977459144E+02  0.50400000000E-02 0.  1.
   -5000001    1    1    2    0    0 -0.17262703354E+03 -0.19983604203E+03  0.10473414305E+04  0.11086742571E+04  0.25000000000E+03 0.  0.
    5000001    1    1    2    0    0  0.17262703354E+03  0.19983604203E+03  0.10603353940E+04  0.11209574854E+04  0.25000000000E+03 0.  0.
<mgrwt>
<rscale>  0 0.72729369E+03</rscale>
<asrwt>0</asrwt>
<pdfrwt beam="1">  1        1 0.93811485E-02 0.72729369E+03</pdfrwt>
<pdfrwt beam="2">  1       -1 0.33363909E+00 0.72729369E+03</pdfrwt>
<totfact> 0.15366595E+01</totfact>
</mgrwt>
</event>
<event>
 4    1  0.4305113E-006  0.1022561E+04  0.7818608E-02  0.9284141E-01
          1   -1    0    0  501    0  0.00000000000E+00  0.00000000000E+00  0.25331068557E+04  0.25331068557E+04  0.50400000000E-02 0.  1.
         -1   -1    0    0    0  501 -0.00000000000E+00 -0.00000000000E+00 -0.10319644590E+03  0.10319644603E+03  0.50400000000E-02 0. -1.
   -5000001    1    1    2    0    0  0.36300982231E+03 -0.86253667803E+02  0.18448435671E+04  0.18987268401E+04  0.25000000000E+03 0.  0.
    5000001    1    1    2    0    0 -0.36300982231E+03  0.86253667803E+02  0.58506684269E+03  0.73757646161E+03  0.25000000000E+03 0.  0.
<mgrwt>
<rscale>  0 0.10225608E+04</rscale>
<asrwt>0</asrwt>
<pdfrwt beam="1">  1        1 0.38970870E+00 0.10225608E+04</pdfrwt>
<pdfrwt beam="2">  1       -1 0.15876378E-01 0.10225608E+04</pdfrwt>
<totfact> 0.39053386E+01</totfact>
</mgrwt>
</event>
<event>
 4    1  0.4305113E-006  0.5944381E+03  0.7818608E-02  0.9917013E-01
          1   -1    0    0  501    0  0.00000000000E+00  0.00000000000E+00  0.80704158783E+03  0.80704158784E+03  0.50400000000E-02 0.  1.
         -1   -1    0    0    0  501 -0.00000000000E+00 -0.00000000000E+00 -0.10946047666E+03  0.10946047677E+03  0.50400000000E-02 0. -1.
   -5000001    1    1    2    0    0 -0.14004461389E+03  0.62724211969E+02  0.27497192356E+03  0.40206514322E+03  0.25000000000E+03 0.  0.
    5000001    1    1    2    0    0  0.14004461389E+03 -0.62724211969E+02  0.42260918761E+03  0.51443692140E+03  0.25000000000E+03 0.  0.
<mgrwt>
<rscale>  0 0.59443808E+03</rscale>
<asrwt>0</asrwt>
<pdfrwt beam="1">  1        1 0.12416025E+00 0.59443808E+03</pdfrwt>
<pdfrwt beam="2">  1       -1 0.16840073E-01 0.59443808E+03</pdfrwt>
<totfact> 0.59990939E+02</totfact>
</mgrwt>
</event>
<event>
 4    1  0.4305113E-006  0.7632215E+03  0.7818608E-02  0.9614833E-01
          1   -1    0    0  501    0  0.00000000000E+00  0.00000000000E+00  0.17668793200E+03  0.17668793207E+03  0.50400000000E-02 0.  1.
         -1   -1    0    0    0  501 -0.00000000000E+00 -0.00000000000E+00 -0.82420330875E+03  0.82420330877E+03  0.50400000000E-02 0. -1.
   -5000001    1    1    2    0    0  0.24374908365E+03  0.10420387185E+03 -0.17507256854E+03  0.40425544764E+03  0.25000000000E+03 0.  0.
    5000001    1    1    2    0    0 -0.24374908365E+03 -0.10420387185E+03 -0.47244280822E+03  0.59663579320E+03  0.25000000000E+03 0.  0.
<mgrwt>
<rscale>  0 0.76322154E+03</rscale>
<asrwt>0</asrwt>
<pdfrwt beam="1">  1        1 0.27182759E-01 0.76322154E+03</pdfrwt>
<pdfrwt beam="2">  1       -1 0.12680051E+00 0.76322154E+03</pdfrwt>
<totfact> 0.95888625E+01</totfact>
</mgrwt>
</event>
<event>
 4    1  0.4305113E-006  0.1247927E+04  0.7818608E-02  0.9071910E-01
         -1   -1    0    0    0  501 -0.00000000000E+00  0.00000000000E+00  0.51930372642E+03  0.51930372644E+03  0.50400000000E-02 0. -1.
          1   -1    0    0  501    0  0.00000000000E+00 -0.00000000000E+00 -0.74971615456E+03  0.74971615458E+03  0.50400000000E-02 0.  1.
   -5000001    1    1    2    0    0  0.45184330286E+03  0.29258158904E+02 -0.47012115499E+03  0.69895086421E+03  0.25000000000E+03 0.  0.
    5000001    1    1    2    0    0 -0.45184330286E+03 -0.29258158904E+02  0.23970872685E+03  0.57006901682E+03  0.25000000000E+03 0.  0.
<mgrwt>
<rscale>  0 0.12479269E+04</rscale>
<asrwt>0</asrwt>
<pdfrwt beam="1">  1        1 0.11534095E+00 0.12479269E+04</pdfrwt>
<pdfrwt beam="2">  1       -1 0.79892882E-01 0.12479269E+04</pdfrwt>
<totfact> 0.37829911E+01</totfact>
</mgrwt>
</event>
<event>
 4    1  0.4305113E-006  0.1339197E+04  0.7818608E-02  0.8999046E-01
         -1   -1    0    0    0  501 -0.00000000000E+00  0.00000000000E+00  0.59021177065E+03  0.59021177067E+03  0.50400000000E-02 0. -1.
          1   -1    0    0  501    0  0.00000000000E+00 -0.00000000000E+00 -0.75966347789E+03  0.75966347790E+03  0.50400000000E-02 0.  1.
   -5000001    1    1    2    0    0 -0.24884869770E+03 -0.55823438327E+03  0.27113898320E+02  0.66089822552E+03  0.25000000000E+03 0.  0.
    5000001    1    1    2    0    0  0.24884869770E+03  0.55823438327E+03 -0.19656560556E+03  0.68897702306E+03  0.25000000000E+03 0.  0.
<mgrwt>
<rscale>  0 0.13391973E+04</rscale>
<asrwt>0</asrwt>
<pdfrwt beam="1">  1        1 0.11687131E+00 0.13391973E+04</pdfrwt>
<pdfrwt beam="2">  1       -1 0.90801810E-01 0.13391973E+04</pdfrwt>
<totfact> 0.27867533E+01</totfact>
</mgrwt>
</event>
<event>
 4    1  0.4305113E-006  0.8401561E+03  0.7818608E-02  0.9503645E-01
          1   -1    0    0  501    0  0.00000000000E+00  0.00000000000E+00  0.13019165198E+04  0.13019165198E+04  0.50400000000E-02 0.  1.
         -1   -1    0    0    0  501 -0.00000000000E+00 -0.00000000000E+00 -0.13554292529E+03  0.13554292539E+03  0.50400000000E-02 0. -1.
   -5000001    1    1    2    0    0  0.12524280598E+03  0.28806179577E+03  0.79482027869E+03  0.89045192686E+03  0.25000000000E+03 0.  0.
    5000001    1    1    2    0    0 -0.12524280598E+03 -0.28806179577E+03  0.37155331585E+03  0.54700751837E+03  0.25000000000E+03 0.  0.
<mgrwt>
<rscale>  0 0.84015611E+03</rscale>
<asrwt>0</asrwt>
<pdfrwt beam="1">  1        1 0.20029485E+00 0.84015611E+03</pdfrwt>
<pdfrwt beam="2">  1       -1 0.20852757E-01 0.84015611E+03</pdfrwt>
<totfact> 0.17369260E+02</totfact>
</mgrwt>
</event>
<event>
 4    1  0.4305113E-006  0.7877033E+03  0.7818608E-02  0.9577989E-01
         -1   -1    0    0    0  501 -0.00000000000E+00  0.00000000000E+00  0.12986210148E+03  0.12986210157E+03  0.50400000000E-02 0. -1.
          1   -1    0    0  501    0  0.00000000000E+00 -0.00000000000E+00 -0.11944912129E+04  0.11944912129E+04  0.50400000000E-02 0.  1.
   -5000001    1    1    2    0    0  0.99703947134E+02  0.22149426721E+03 -0.22404497334E+03  0.41436305043E+03  0.25000000000E+03 0.  0.
    5000001    1    1    2    0    0 -0.99703947134E+02 -0.22149426721E+03 -0.84058413812E+03  0.90999026409E+03  0.25000000000E+03 0.  0.
<mgrwt>
<rscale>  0 0.78770334E+03</rscale>
<asrwt>0</asrwt>
<pdfrwt beam="1">  1        1 0.18376787E+00 0.78770334E+03</pdfrwt>
<pdfrwt beam="2">  1       -1 0.19978786E-01 0.78770334E+03</pdfrwt>
<totfact> 0.22355761E+02</totfact>
</mgrwt>
</event>
<event>
 4    1  0.4305113E-006  0.7956689E+03  0.7818608E-02  0.9566307E-01
         -1   -1    0    0    0  501 -0.00000000000E+00  0.00000000000E+00  0.36496998058E+03  0.36496998062E+03  0.50400000000E-02 0. -1.
          1   -1    0    0  501    0  0.00000000000E+00 -0.00000000000E+00 -0.43365823436E+03  0.43365823438E+03  0.50400000000E-02 0.  1.
   -5000001    1    1    2    0    0 -0.22688381615E+03 -0.19098661544E+03 -0.12310427013E+03  0.40694817192E+03  0.25000000000E+03 0.  0.
    5000001    1    1    2    0    0  0.22688381615E+03  0.19098661544E+03  0.54416016359E+02  0.39168004308E+03  0.25000000000E+03 0.  0.
<mgrwt>
<rscale>  0 0.79566887E+03</rscale>
<asrwt>0</asrwt>
<pdfrwt beam="1">  1        1 0.66716651E-01 0.79566887E+03</pdfrwt>
<pdfrwt beam="2">  1       -1 0.56149228E-01 0.79566887E+03</pdfrwt>
<totfact> 0.17483934E+02</totfact>
</mgrwt>
</event>
<event>
 4    1  0.4305113E-006  0.6045043E+03  0.7818608E-02  0.9896105E-01
         -1   -1    0    0    0  501 -0.00000000000E+00  0.00000000000E+00  0.63139377859E+03  0.63139377861E+03  0.50400000000E-02 0. -1.
          1   -1    0    0  501    0  0.00000000000E+00 -0.00000000000E+00 -0.14469000810E+03  0.14469000819E+03  0.50400000000E-02 0.  1.
   -5000001    1    1    2    0    0  0.14446914877E+03  0.89156249349E+02  0.25107618152E+03  0.39288601485E+03  0.25000000000E+03 0.  0.
    5000001    1    1    2    0    0 -0.14446914877E+03 -0.89156249349E+02  0.23562758897E+03  0.38319777195E+03  0.25000000000E+03 0.  0.
<mgrwt>
<rscale>  0 0.60450433E+03</rscale>
<asrwt>0</asrwt>
<pdfrwt beam="1">  1        1 0.22260001E-01 0.60450433E+03</pdfrwt>
<pdfrwt beam="2">  1       -1 0.97137505E-01 0.60450433E+03</pdfrwt>
<totfact> 0.23575688E+02</totfact>
</mgrwt>
</event>
<event>
 4    1  0.4305113E-006  0.7102435E+03  0.7818608E-02  0.9699873E-01
          1   -1    0    0  501    0  0.00000000000E+00  0.00000000000E+00  0.74102955345E+03  0.74102955346E+03  0.50400000000E-02 0.  1.
         -1   -1    0    0    0  501 -0.00000000000E+00 -0.00000000000E+00 -0.17018411967E+03  0.17018411974E+03  0.50400000000E-02 0. -1.
   -5000001    1    1    2    0    0  0.15249745640E+03  0.85413744158E+02  0.51869735869E+03  0.60174573685E+03  0.25000000000E+03 0.  0.
    5000001    1    1    2    0    0 -0.15249745640E+03 -0.85413744158E+02  0.52148075087E+02  0.30946793636E+03  0.25000000000E+03 0.  0.
<mgrwt>
<rscale>  0 0.71024351E+03</rscale>
<asrwt>0</asrwt>
<pdfrwt beam="1">  1        1 0.11400455E+00 0.71024351E+03</pdfrwt>
<pdfrwt beam="2">  1       -1 0.26182172E-01 0.71024351E+03</pdfrwt>
<totfact> 0.32638712E+02</totfact>
</mgrwt>
</event>
<event>
 4    1  0.4305113E-006  0.7624620E+03  0.7818608E-02  0.9616000E-01
          1   -1    0    0  501    0  0.00000000000E+00  0.00000000000E+00  0.59999425725E+03  0.59999425727E+03  0.50400000000E-02 0. -1.
         -1   -1    0    0    0  501 -0.00000000000E+00 -0.00000000000E+00 -0.24223074700E+03  0.24223074705E+03  0.50400000000E-02 0.  1.
   -5000001    1    1    2    0    0  0.24989428923E+03  0.11179908834E+03  0.27700508250E+03  0.46279369882E+03  0.25000000000E+03 0.  0.
    5000001    1    1    2    0    0 -0.24989428923E+03 -0.11179908834E+03  0.80758427755E+02  0.37943130550E+03  0.25000000000E+03 0.  0.
<mgrwt>
<rscale>  0 0.76246195E+03</rscale>
<asrwt>0</asrwt>
<pdfrwt beam="1">  1        1 0.92306808E-01 0.76246195E+03</pdfrwt>
<pdfrwt beam="2">  1       -1 0.37266269E-01 0.76246195E+03</pdfrwt>
<totfact> 0.24001810E+02</totfact>
</mgrwt>
</event>
<event>
 4    1  0.4305113E-006  0.9679462E+03  0.7818608E-02  0.9344417E-01
         -1   -1    0    0    0  501 -0.00000000000E+00  0.00000000000E+00  0.26873564901E+03  0.26873564906E+03  0.50400000000E-02 0. -1.
          1   -1    0    0  501    0  0.00000000000E+00 -0.00000000000E+00 -0.87159986977E+03  0.87159986979E+03  0.50400000000E-02 0.  1.
   -5000001    1    1    2    0    0 -0.51512393390E+02  0.39253423081E+03 -0.44568687412E+03  0.64643131019E+03  0.25000000000E+03 0.  0.
    5000001    1    1    2    0    0  0.51512393390E+02 -0.39253423081E+03 -0.15717734665E+03  0.49390420866E+03  0.25000000000E+03 0.  0.
<mgrwt>
<rscale>  0 0.96794619E+03</rscale>
<asrwt>0</asrwt>
<pdfrwt beam="1">  1        1 0.13409229E+00 0.96794619E+03</pdfrwt>
<pdfrwt beam="2">  1       -1 0.41343946E-01 0.96794619E+03</pdfrwt>
<totfact> 0.11048562E+02</totfact>
</mgrwt>
</event>
<event>
 4    1  0.4305113E-006  0.5558261E+03  0.7818608E-02  0.1000154E+00
         -1   -1    0    0    0  501 -0.00000000000E+00  0.00000000000E+00  0.14325859062E+04  0.14325859062E+04  0.50400000000E-02 0. -1.
          1   -1    0    0  501    0  0.00000000000E+00 -0.00000000000E+00 -0.53913464208E+02  0.53913464444E+02  0.50400000000E-02 0.  1.
   -5000001    1    1    2    0    0  0.11058708325E+03 -0.22375936195E+01  0.55558539943E+03  0.61920081223E+03  0.25000000000E+03 0.  0.
    5000001    1    1    2    0    0 -0.11058708325E+03  0.22375936195E+01  0.82308704252E+03  0.86729855838E+03  0.25000000000E+03 0.  0.
<mgrwt>
<rscale>  0 0.55582612E+03</rscale>
<asrwt>0</asrwt>
<pdfrwt beam="1">  1        1 0.82943775E-02 0.55582612E+03</pdfrwt>
<pdfrwt beam="2">  1       -1 0.22039788E+00 0.55582612E+03</pdfrwt>
<totfact> 0.98845117E+01</totfact>
</mgrwt>
</event>
<event>
 4    1  0.4305113E-006  0.1664202E+04  0.7818608E-02  0.8782049E-01
          1   -1    0    0  501    0  0.00000000000E+00  0.00000000000E+00  0.15990571325E+04  0.15990571325E+04  0.50400000000E-02 0.  1.
         -1   -1    0    0    0  501 -0.00000000000E+00 -0.00000000000E+00 -0.43300034996E+03  0.43300034999E+03  0.50400000000E-02 0. -1.
   -5000001    1    1    2    0    0  0.76063026644E+03  0.30911945536E+02  0.85709229389E+03  0.11732949974E+04  0.25000000000E+03 0.  0.
    5000001    1    1    2    0    0 -0.76063026644E+03 -0.30911945536E+02  0.30896448863E+03  0.85876248512E+03  0.25000000000E+03 0.  0.
<mgrwt>
<rscale>  0 0.16642023E+04</rscale>
<asrwt>0</asrwt>
<pdfrwt beam="1">  1        1 0.24600879E+00 0.16642023E+04</pdfrwt>
<pdfrwt beam="2">  1       -1 0.66615438E-01 0.16642023E+04</pdfrwt>
<totfact> 0.12178251E+01</totfact>
</mgrwt>
</event>
<event>
 4    1  0.4305113E-006  0.6513227E+03  0.7818608E-02  0.9804300E-01
         -1   -1    0    0    0  501 -0.00000000000E+00  0.00000000000E+00  0.35880456552E+03  0.35880456556E+03  0.50400000000E-02 0. -1.
          1   -1    0    0  501    0  0.00000000000E+00 -0.00000000000E+00 -0.29557962068E+03  0.29557962072E+03  0.50400000000E-02 0.  1.
   -5000001    1    1    2    0    0 -0.38494172005E+02  0.11894574078E+03  0.19950697893E+03  0.34341363568E+03  0.25000000000E+03 0.  0.
    5000001    1    1    2    0    0  0.38494172005E+02 -0.11894574078E+03 -0.13628203409E+03  0.31097055060E+03  0.25000000000E+03 0.  0.
<mgrwt>
<rscale>  0 0.65132271E+03</rscale>
<asrwt>0</asrwt>
<pdfrwt beam="1">  1        1 0.45473788E-01 0.65132271E+03</pdfrwt>
<pdfrwt beam="2">  1       -1 0.55200703E-01 0.65132271E+03</pdfrwt>
<totfact> 0.30074528E+02</totfact>
</mgrwt>
</event>
<event>
 4    1  0.4305113E-006  0.5508204E+03  0.7818608E-02  0.1001304E+00
          1   -1    0    0  501    0  0.00000000000E+00  0.00000000000E+00  0.10623862764E+04  0.10623862764E+04  0.50400000000E-02 0.  1.
         -1   -1    0    0    0  501 -0.00000000000E+00 -0.00000000000E+00 -0.71396601558E+02  0.71396601736E+02  0.50400000000E-02 0. -1.
   -5000001    1    1    2    0    0  0.95328791726E+02 -0.32717056590E+02  0.37918812747E+03  0.46523286679E+03  0.25000000000E+03 0.  0.
    5000001    1    1    2    0    0 -0.95328791726E+02  0.32717056590E+02  0.61180154734E+03  0.66855001133E+03  0.25000000000E+03 0.  0.
<mgrwt>
<rscale>  0 0.55082037E+03</rscale>
<asrwt>0</asrwt>
<pdfrwt beam="1">  1        1 0.16344404E+00 0.55082037E+03</pdfrwt>
<pdfrwt beam="2">  1       -1 0.10984093E-01 0.55082037E+03</pdfrwt>
<totfact> 0.74794248E+02</totfact>
</mgrwt>
</event>
<event>
 4    1  0.4305113E-006  0.7410259E+03  0.7818608E-02  0.9649535E-01
          1   -1    0    0  501    0  0.00000000000E+00  0.00000000000E+00  0.52406329207E+03  0.52406329210E+03  0.50400000000E-02 0.  1.
         -1   -1    0    0    0  501 -0.00000000000E+00 -0.00000000000E+00 -0.26195276382E+03  0.26195276387E+03  0.50400000000E-02 0. -1.
   -5000001    1    1    2    0    0 -0.27153063319E+03 -0.32150624225E+02  0.12664590962E+03  0.39153765314E+03  0.25000000000E+03 0.  0.
    5000001    1    1    2    0    0  0.27153063319E+03  0.32150624225E+02  0.13546461863E+03  0.39447840283E+03  0.25000000000E+03 0.  0.
<mgrwt>
<rscale>  0 0.74102585E+03</rscale>
<asrwt>0</asrwt>
<pdfrwt beam="1">  1        1 0.80625122E-01 0.74102585E+03</pdfrwt>
<pdfrwt beam="2">  1       -1 0.40300425E-01 0.74102585E+03</pdfrwt>
<totfact> 0.25245588E+02</totfact>
</mgrwt>
</event>
<event>
 4    1  0.4305113E-006  0.1094719E+04  0.7818608E-02  0.9210354E-01
          1   -1    0    0  501    0  0.00000000000E+00  0.00000000000E+00  0.65483288953E+03  0.65483288955E+03  0.50400000000E-02 0.  1.
         -1   -1    0    0    0  501 -0.00000000000E+00 -0.00000000000E+00 -0.45752531406E+03  0.45752531409E+03  0.50400000000E-02 0. -1.
   -5000001    1    1    2    0    0 -0.33925675858E+03  0.13112563691E+03 -0.23031186855E+03  0.49782791976E+03  0.25000000000E+03 0.  0.
    5000001    1    1    2    0    0  0.33925675858E+03 -0.13112563691E+03  0.42761944402E+03  0.61453028388E+03  0.25000000000E+03 0.  0.
<mgrwt>
<rscale>  0 0.10947194E+04</rscale>
<asrwt>0</asrwt>
<pdfrwt beam="1">  1        1 0.10074352E+00 0.10947194E+04</pdfrwt>
<pdfrwt beam="2">  1       -1 0.70388510E-01 0.10947194E+04</pdfrwt>
<totfact> 0.61275826E+01</totfact>
</mgrwt>
</event>
<event>
 4    1  0.4305113E-006  0.7672045E+03  0.7818608E-02  0.9608739E-01
         -1   -1    0    0    0  501 -0.00000000000E+00  0.00000000000E+00  0.52343616923E+03  0.52343616925E+03  0.50400000000E-02 0. -1.
          1   -1    0    0  501    0  0.00000000000E+00 -0.00000000000E+00 -0.28112441151E+03  0.28112441156E+03  0.50400000000E-02 0.  1.
   -5000001    1    1    2    0    0 -0.12127638860E+03 -0.14625144546E+03  0.35223287158E+03  0.47187439383E+03  0.25000000000E+03 0.  0.
    5000001    1    1    2    0    0  0.12127638860E+03  0.14625144546E+03 -0.10992111386E+03  0.33268618698E+03  0.25000000000E+03 0.  0.
<mgrwt>
<rscale>  0 0.76720450E+03</rscale>
<asrwt>0</asrwt>
<pdfrwt beam="1">  1        1 0.43249910E-01 0.76720450E+03</pdfrwt>
<pdfrwt beam="2">  1       -1 0.80528641E-01 0.76720450E+03</pdfrwt>
<totfact> 0.14878139E+02</totfact>
</mgrwt>
</event>
<event>
 4    1  0.4305113E-006  0.6796326E+03  0.7818608E-02  0.9752711E-01
         -1   -1    0    0    0  501 -0.00000000000E+00  0.00000000000E+00  0.10707894084E+04  0.10707894084E+04  0.50400000000E-02 0. -1.
          1   -1    0    0  501    0  0.00000000000E+00 -0.00000000000E+00 -0.10784109527E+03  0.10784109539E+03  0.50400000000E-02 0.  1.
   -5000001    1    1    2    0    0  0.16655494187E+03  0.63629663514E+02  0.22905277410E+03  0.38308544225E+03  0.25000000000E+03 0.  0.
    5000001    1    1    2    0    0 -0.16655494187E+03 -0.63629663514E+02  0.73389553903E+03  0.79554506155E+03  0.25000000000E+03 0.  0.
<mgrwt>
<rscale>  0 0.67963256E+03</rscale>
<asrwt>0</asrwt>
<pdfrwt beam="1">  1        1 0.16590937E-01 0.67963256E+03</pdfrwt>
<pdfrwt beam="2">  1       -1 0.16473684E+00 0.67963256E+03</pdfrwt>
<totfact> 0.92674900E+01</totfact>
</mgrwt>
</event>
<event>
 4    1  0.4305113E-006  0.7505240E+03  0.7818608E-02  0.9634529E-01
         -1   -1    0    0    0  501 -0.00000000000E+00  0.00000000000E+00  0.10126103702E+03  0.10126103715E+03  0.50400000000E-02 0. -1.
          1   -1    0    0  501    0  0.00000000000E+00 -0.00000000000E+00 -0.13906786011E+04  0.13906786011E+04  0.50400000000E-02 0.  1.
   -5000001    1    1    2    0    0  0.51142786066E+02  0.26987546431E+03 -0.53815469468E+03  0.65387982551E+03  0.25000000000E+03 0.  0.
    5000001    1    1    2    0    0 -0.51142786066E+02 -0.26987546431E+03 -0.75126286940E+03  0.83805981275E+03  0.25000000000E+03 0.  0.
<mgrwt>
<rscale>  0 0.75052397E+03</rscale>
<asrwt>0</asrwt>
<pdfrwt beam="1">  1        1 0.21395054E+00 0.75052397E+03</pdfrwt>
<pdfrwt beam="2">  1       -1 0.15578622E-01 0.75052397E+03</pdfrwt>
<totfact> 0.24513913E+02</totfact>
</mgrwt>
</event>
<event>
 4    1  0.4305113E-006  0.7216436E+03  0.7818608E-02  0.9680918E-01
          1   -1    0    0  501    0  0.00000000000E+00  0.00000000000E+00  0.13242175212E+04  0.13242175212E+04  0.50400000000E-02 0.  1.
         -1   -1    0    0    0  501 -0.00000000000E+00 -0.00000000000E+00 -0.98316450849E+02  0.98316450979E+02  0.50400000000E-02 0. -1.
   -5000001    1    1    2    0    0  0.57312479824E+02  0.16860550530E+03  0.98686257051E+03  0.10334942041E+04  0.25000000000E+03 0.  0.
    5000001    1    1    2    0    0 -0.57312479824E+02 -0.16860550530E+03  0.23903849979E+03  0.38903976807E+03  0.25000000000E+03 0.  0.
<mgrwt>
<rscale>  0 0.72164359E+03</rscale>
<asrwt>0</asrwt>
<pdfrwt beam="1">  1        1 0.20372575E+00 0.72164359E+03</pdfrwt>
<pdfrwt beam="2">  1       -1 0.15125609E-01 0.72164359E+03</pdfrwt>
<totfact> 0.28679139E+02</totfact>
</mgrwt>
</event>
<event>
 4    1  0.4305113E-006  0.8721693E+03  0.7818608E-02  0.9461056E-01
         -1   -1    0    0    0  501 -0.00000000000E+00  0.00000000000E+00  0.22305440939E+03  0.22305440945E+03  0.50400000000E-02 0. -1.
          1   -1    0    0  501    0  0.00000000000E+00 -0.00000000000E+00 -0.85257149769E+03  0.85257149770E+03  0.50400000000E-02 0.  1.
   -5000001    1    1    2    0    0  0.25077064776E+03 -0.24321740445E+03 -0.40728887330E+03  0.59196693313E+03  0.25000000000E+03 0.  0.
    5000001    1    1    2    0    0 -0.25077064776E+03  0.24321740445E+03 -0.22222821500E+03  0.48365897402E+03  0.25000000000E+03 0.  0.
<mgrwt>
<rscale>  0 0.87216932E+03</rscale>
<asrwt>0</asrwt>
<pdfrwt beam="1">  1        1 0.13116484E+00 0.87216932E+03</pdfrwt>
<pdfrwt beam="2">  1       -1 0.34316064E-01 0.87216932E+03</pdfrwt>
<totfact> 0.16140696E+02</totfact>
</mgrwt>
</event>
<event>
 4    1  0.4305113E-006  0.1233171E+04  0.7818608E-02  0.9084307E-01
         -1   -1    0    0    0  501 -0.00000000000E+00  0.00000000000E+00  0.26511692049E+03  0.26511692053E+03  0.50400000000E-02 0.  1.
          1   -1    0    0  501    0  0.00000000000E+00 -0.00000000000E+00 -0.14340003116E+04  0.14340003116E+04  0.50400000000E-02 0. -1.
   -5000001    1    1    2    0    0  0.14977492492E+03 -0.53541528331E+03 -0.71203697668E+03  0.93733596426E+03  0.25000000000E+03 0.  0.
    5000001    1    1    2    0    0 -0.14977492492E+03  0.53541528331E+03 -0.45684641446E+03  0.76178126791E+03  0.25000000000E+03 0.  0.
<mgrwt>
<rscale>  0 0.12331711E+04</rscale>
<asrwt>0</asrwt>
<pdfrwt beam="1">  1        1 0.22061543E+00 0.12331711E+04</pdfrwt>
<pdfrwt beam="2">  1       -1 0.40787219E-01 0.12331711E+04</pdfrwt>
<totfact> 0.42185992E+01</totfact>
</mgrwt>
</event>
<event>
 4    1  0.4305113E-006  0.9180599E+03  0.7818608E-02  0.9403283E-01
          1   -1    0    0  501    0  0.00000000000E+00  0.00000000000E+00  0.11919880478E+04  0.11919880478E+04  0.50400000000E-02 0.  1.
         -1   -1    0    0    0  501 -0.00000000000E+00 -0.00000000000E+00 -0.17677063755E+03  0.17677063762E+03  0.50400000000E-02 0. -1.
   -5000001    1    1    2    0    0  0.20308425938E+03 -0.32083315051E+03  0.60227201536E+03  0.75459174880E+03  0.25000000000E+03 0.  0.
    5000001    1    1    2    0    0 -0.20308425938E+03  0.32083315051E+03  0.41294539485E+03  0.61416693659E+03  0.25000000000E+03 0.  0.
<mgrwt>
<rscale>  0 0.91805988E+03</rscale>
<asrwt>0</asrwt>
<pdfrwt beam="1">  1        1 0.18338278E+00 0.91805988E+03</pdfrwt>
<pdfrwt beam="2">  1       -1 0.27195482E-01 0.91805988E+03</pdfrwt>
<totfact> 0.13194144E+02</totfact>
</mgrwt>
</event>
<event>
 4    1  0.4305113E-006  0.7920434E+03  0.7818608E-02  0.9571606E-01
          1   -1    0    0  501    0  0.00000000000E+00  0.00000000000E+00  0.56248314052E+03  0.56248314055E+03  0.50400000000E-02 0.  1.
         -1   -1    0    0    0  501 -0.00000000000E+00 -0.00000000000E+00 -0.27882290869E+03  0.27882290873E+03  0.50400000000E-02 0. -1.
   -5000001    1    1    2    0    0 -0.19483577347E+03 -0.20068112024E+03  0.70553892618E+01  0.37521149924E+03  0.25000000000E+03 0.  0.
    5000001    1    1    2    0    0  0.19483577347E+03  0.20068112024E+03  0.27660484257E+03  0.46609455004E+03  0.25000000000E+03 0.  0.
<mgrwt>
<rscale>  0 0.79204340E+03</rscale>
<asrwt>0</asrwt>
<pdfrwt beam="1">  1        1 0.86535866E-01 0.79204340E+03</pdfrwt>
<pdfrwt beam="2">  1       -1 0.42895833E-01 0.79204340E+03</pdfrwt>
<totfact> 0.20343006E+02</totfact>
</mgrwt>
</event>
<event>
 4    1  0.4305113E-006  0.7358233E+03  0.7818608E-02  0.9657858E-01
         -1   -1    0    0    0  501 -0.00000000000E+00  0.00000000000E+00  0.17493111272E+03  0.17493111280E+03  0.50400000000E-02 0. -1.
          1   -1    0    0  501    0  0.00000000000E+00 -0.00000000000E+00 -0.77378458276E+03  0.77378458278E+03  0.50400000000E-02 0.  1.
   -5000001    1    1    2    0    0  0.16169550005E+03  0.16522019926E+03 -0.47908231836E+03  0.58776102009E+03  0.25000000000E+03 0.  0.
    5000001    1    1    2    0    0 -0.16169550005E+03 -0.16522019926E+03 -0.11977115168E+03  0.36095467548E+03  0.25000000000E+03 0.  0.
<mgrwt>
<rscale>  0 0.73582334E+03</rscale>
<asrwt>0</asrwt>
<pdfrwt beam="1">  1        1 0.11904378E+00 0.73582334E+03</pdfrwt>
<pdfrwt beam="2">  1       -1 0.26912479E-01 0.73582334E+03</pdfrwt>
<totfact> 0.29071695E+02</totfact>
</mgrwt>
</event>
<event>
 4    1  0.4305113E-006  0.8048324E+03  0.7818608E-02  0.9553049E-01
          1   -1    0    0  501    0  0.00000000000E+00  0.00000000000E+00  0.12390428472E+04  0.12390428472E+04  0.50400000000E-02 0.  1.
         -1   -1    0    0    0  501 -0.00000000000E+00 -0.00000000000E+00 -0.13069669288E+03  0.13069669298E+03  0.50400000000E-02 0. -1.
   -5000001    1    1    2    0    0  0.17729859196E+03 -0.25781419806E+03  0.62087019901E+03  0.73883878854E+03  0.25000000000E+03 0.  0.
    5000001    1    1    2    0    0 -0.17729859196E+03  0.25781419806E+03  0.48747595534E+03  0.63090075168E+03  0.25000000000E+03 0.  0.
<mgrwt>
<rscale>  0 0.80483241E+03</rscale>
<asrwt>0</asrwt>
<pdfrwt beam="1">  1        1 0.19062197E+00 0.80483241E+03</pdfrwt>
<pdfrwt beam="2">  1       -1 0.20107184E-01 0.80483241E+03</pdfrwt>
<totfact> 0.20516574E+02</totfact>
</mgrwt>
</event>
<event>
 4    1  0.4305113E-006  0.8625729E+03  0.7818608E-02  0.9473616E-01
          1   -1    0    0  501    0  0.00000000000E+00  0.00000000000E+00  0.60985919005E+03  0.60985919007E+03  0.50400000000E-02 0.  1.
         -1   -1    0    0    0  501 -0.00000000000E+00 -0.00000000000E+00 -0.30500155542E+03  0.30500155546E+03  0.50400000000E-02 0. -1.
   -5000001    1    1    2    0    0 -0.59621051686E+02 -0.34181609796E+03  0.93232557005E+02  0.43770449428E+03  0.25000000000E+03 0.  0.
    5000001    1    1    2    0    0  0.59621051686E+02  0.34181609796E+03  0.21162507763E+03  0.47715625125E+03  0.25000000000E+03 0.  0.
<mgrwt>
<rscale>  0 0.86257290E+03</rscale>
<asrwt>0</asrwt>
<pdfrwt beam="1">  1        1 0.93824490E-01 0.86257290E+03</pdfrwt>
<pdfrwt beam="2">  1       -1 0.46923317E-01 0.86257290E+03</pdfrwt>
<totfact> 0.15278785E+02</totfact>
</mgrwt>
</event>
<event>
 4    1  0.4305113E-006  0.1063662E+04  0.7818608E-02  0.9241352E-01
         -1   -1    0    0    0  501 -0.00000000000E+00  0.00000000000E+00  0.11844619254E+04  0.11844619254E+04  0.50400000000E-02 0. -1.
          1   -1    0    0  501    0  0.00000000000E+00 -0.00000000000E+00 -0.23879549783E+03  0.23879549789E+03  0.50400000000E-02 0.  1.
   -5000001    1    1    2    0    0  0.42910540462E+03 -0.88302855535E+02  0.69839016423E+03  0.86149733839E+03  0.25000000000E+03 0.  0.
    5000001    1    1    2    0    0 -0.42910540462E+03  0.88302855535E+02  0.24727626331E+03  0.56176008488E+03  0.25000000000E+03 0.  0.
<mgrwt>
<rscale>  0 0.10636619E+04</rscale>
<asrwt>0</asrwt>
<pdfrwt beam="1">  1        1 0.36737769E-01 0.10636619E+04</pdfrwt>
<pdfrwt beam="2">  1       -1 0.18222491E+00 0.10636619E+04</pdfrwt>
<totfact> 0.23667236E+01</totfact>
</mgrwt>
</event>
<event>
 4    1  0.4305113E-006  0.1095795E+04  0.7818608E-02  0.9209300E-01
         -1   -1    0    0    0  501 -0.00000000000E+00  0.00000000000E+00  0.16938918367E+03  0.16938918375E+03  0.50400000000E-02 0. -1.
          1   -1    0    0  501    0  0.00000000000E+00 -0.00000000000E+00 -0.17721994772E+04  0.17721994772E+04  0.50400000000E-02 0.  1.
   -5000001    1    1    2    0    0  0.28147985255E+03 -0.55487477223E+02 -0.14998433133E+04  0.15473654164E+04  0.25000000000E+03 0.  0.
    5000001    1    1    2    0    0 -0.28147985255E+03  0.55487477223E+02 -0.10296698027E+03  0.39422324456E+03  0.25000000000E+03 0.  0.
<mgrwt>
<rscale>  0 0.10957945E+04</rscale>
<asrwt>0</asrwt>
<pdfrwt beam="1">  1        1 0.27264606E+00 0.10957945E+04</pdfrwt>
<pdfrwt beam="2">  1       -1 0.26059876E-01 0.10957945E+04</pdfrwt>
<totfact> 0.55375539E+01</totfact>
</mgrwt>
</event>
<event>
 4    1  0.4305113E-006  0.9461518E+03  0.7818608E-02  0.9369660E-01
         -1   -1    0    0    0  501 -0.00000000000E+00  0.00000000000E+00  0.17724281054E+03  0.17724281061E+03  0.50400000000E-02 0. -1.
          1   -1    0    0  501    0  0.00000000000E+00 -0.00000000000E+00 -0.12626792185E+04  0.12626792185E+04  0.50400000000E-02 0.  1.
   -5000001    1    1    2    0    0  0.33962882038E+03 -0.14879206421E+03 -0.30786617294E+03  0.54292577250E+03  0.25000000000E+03 0.  0.
    5000001    1    1    2    0    0 -0.33962882038E+03  0.14879206421E+03 -0.77757023505E+03  0.89699625665E+03  0.25000000000E+03 0.  0.
<mgrwt>
<rscale>  0 0.94615181E+03</rscale>
<asrwt>0</asrwt>
<pdfrwt beam="1">  1        1 0.19425834E+00 0.94615181E+03</pdfrwt>
<pdfrwt beam="2">  1       -1 0.27268126E-01 0.94615181E+03</pdfrwt>
<totfact> 0.11653173E+02</totfact>
</mgrwt>
</event>
<event>
 4    1  0.4305113E-006  0.8927723E+03  0.7818608E-02  0.9434662E-01
          1   -1    0    0  501    0  0.00000000000E+00  0.00000000000E+00  0.16189127248E+04  0.16189127248E+04  0.50400000000E-02 0. -1.
         -1   -1    0    0    0  501 -0.00000000000E+00 -0.00000000000E+00 -0.12308298244E+03  0.12308298254E+03  0.50400000000E-02 0.  1.
   -5000001    1    1    2    0    0  0.54407286163E+02  0.21619776215E+03  0.13236373037E+04  0.13653634450E+04  0.25000000000E+03 0.  0.
    5000001    1    1    2    0    0 -0.54407286163E+02 -0.21619776215E+03  0.17219243872E+03  0.37663226243E+03  0.25000000000E+03 0.  0.
<mgrwt>
<rscale>  0 0.89277233E+03</rscale>
<asrwt>0</asrwt>
<pdfrwt beam="1">  1        1 0.24906347E+00 0.89277233E+03</pdfrwt>
<pdfrwt beam="2">  1       -1 0.18935845E-01 0.89277233E+03</pdfrwt>
<totfact> 0.12266330E+02</totfact>
</mgrwt>
</event>
<event>
 4    1  0.4305113E-006  0.6296403E+03  0.7818608E-02  0.9845751E-01
          1   -1    0    0  501    0  0.00000000000E+00  0.00000000000E+00  0.35667729548E+03  0.35667729551E+03  0.50400000000E-02 0.  1.
         -1   -1    0    0    0  501 -0.00000000000E+00 -0.00000000000E+00 -0.27787507313E+03  0.27787507318E+03  0.50400000000E-02 0. -1.
   -5000001    1    1    2    0    0  0.11542439679E+03 -0.14680616042E+03  0.81402247324E+02  0.32249211771E+03  0.25000000000E+03 0.  0.
    5000001    1    1    2    0    0 -0.11542439679E+03  0.14680616042E+03 -0.26000249770E+01  0.31206025098E+03  0.25000000000E+03 0.  0.
<mgrwt>
<rscale>  0 0.62964031E+03</rscale>
<asrwt>0</asrwt>
<pdfrwt beam="1">  1        1 0.54873430E-01 0.62964031E+03</pdfrwt>
<pdfrwt beam="2">  1       -1 0.42750011E-01 0.62964031E+03</pdfrwt>
<totfact> 0.38122401E+02</totfact>
</mgrwt>
</event>
<event>
 4    1  0.4305113E-006  0.6059935E+03  0.7818608E-02  0.9893049E-01
          1   -1    0    0  501    0  0.00000000000E+00  0.00000000000E+00  0.67465662305E+03  0.67465662307E+03  0.50400000000E-02 0.  1.
         -1   -1    0    0    0  501 -0.00000000000E+00 -0.00000000000E+00 -0.13607961952E+03  0.13607961961E+03  0.50400000000E-02 0. -1.
   -5000001    1    1    2    0    0 -0.13451755501E+03  0.72719534110E+02  0.16631724717E+03  0.33696369233E+03  0.25000000000E+03 0.  0.
    5000001    1    1    2    0    0  0.13451755501E+03 -0.72719534110E+02  0.37225975637E+03  0.47377255034E+03  0.25000000000E+03 0.  0.
<mgrwt>
<rscale>  0 0.60599345E+03</rscale>
<asrwt>0</asrwt>
<pdfrwt beam="1">  1        1 0.10379333E+00 0.60599345E+03</pdfrwt>
<pdfrwt beam="2">  1       -1 0.20935326E-01 0.60599345E+03</pdfrwt>
<totfact> 0.55114006E+02</totfact>
</mgrwt>
</event>
<event>
 4    1  0.4305113E-006  0.8097830E+03  0.7818608E-02  0.9545964E-01
          1   -1    0    0  501    0  0.00000000000E+00  0.00000000000E+00  0.11496602950E+04  0.11496602950E+04  0.50400000000E-02 0.  1.
         -1   -1    0    0    0  501 -0.00000000000E+00 -0.00000000000E+00 -0.14259615886E+03  0.14259615895E+03  0.50400000000E-02 0. -1.
   -5000001    1    1    2    0    0  0.23621279388E+03  0.10538281260E+03  0.80009066952E+03  0.87723833742E+03  0.25000000000E+03 0.  0.
    5000001    1    1    2    0    0 -0.23621279388E+03 -0.10538281260E+03  0.20697346662E+03  0.41501811655E+03  0.25000000000E+03 0.  0.
<mgrwt>
<rscale>  0 0.80978304E+03</rscale>
<asrwt>0</asrwt>
<pdfrwt beam="1">  1        1 0.17687081E+00 0.80978304E+03</pdfrwt>
<pdfrwt beam="2">  1       -1 0.21937871E-01 0.80978304E+03</pdfrwt>
<totfact> 0.20581554E+02</totfact>
</mgrwt>
</event>
<event>
 4    1  0.4305113E-006  0.6220560E+03  0.7818608E-02  0.9860675E-01
         -1   -1    0    0    0  501 -0.00000000000E+00  0.00000000000E+00  0.86147754486E+02  0.86147754634E+02  0.50400000000E-02 0. -1.
          1   -1    0    0  501    0  0.00000000000E+00 -0.00000000000E+00 -0.11229360757E+04  0.11229360758E+04  0.50400000000E-02 0.  1.
   -5000001    1    1    2    0    0 -0.17669440515E+03 -0.19434816081E+02 -0.41852942675E+03  0.51890799372E+03  0.25000000000E+03 0.  0.
    5000001    1    1    2    0    0  0.17669440515E+03  0.19434816081E+02 -0.61825889451E+03  0.69017583667E+03  0.25000000000E+03 0.  0.
<mgrwt>
<rscale>  0 0.62205602E+03</rscale>
<asrwt>0</asrwt>
<pdfrwt beam="1">  1        1 0.17275939E+00 0.62205602E+03</pdfrwt>
<pdfrwt beam="2">  1       -1 0.13253502E-01 0.62205602E+03</pdfrwt>
<totfact> 0.49818686E+02</totfact>
</mgrwt>
</event>
<event>
 4    1  0.4305113E-006  0.1031795E+04  0.7818608E-02  0.9274344E-01
          1   -1    0    0  501    0  0.00000000000E+00  0.00000000000E+00  0.24085054954E+04  0.24085054954E+04  0.50400000000E-02 0. -1.
         -1   -1    0    0    0  501 -0.00000000000E+00 -0.00000000000E+00 -0.11050434435E+03  0.11050434447E+03  0.50400000000E-02 0.  1.
   -5000001    1    1    2    0    0  0.25811650097E+03 -0.37013325230E+03  0.11618191863E+04  0.12711988728E+04  0.25000000000E+03 0.  0.
    5000001    1    1    2    0    0 -0.25811650097E+03  0.37013325230E+03  0.11361819647E+04  0.12478109670E+04  0.25000000000E+03 0.  0.
<mgrwt>
<rscale>  0 0.10317952E+04</rscale>
<asrwt>0</asrwt>
<pdfrwt beam="1">  1        1 0.37053928E+00 0.10317952E+04</pdfrwt>
<pdfrwt beam="2">  1       -1 0.17000670E-01 0.10317952E+04</pdfrwt>
<totfact> 0.42445618E+01</totfact>
</mgrwt>
</event>
<event>
 4    1  0.4305113E-006  0.1343556E+04  0.7818608E-02  0.8995721E-01
         -1   -1    0    0    0  501 -0.00000000000E+00  0.00000000000E+00  0.45068623211E+03  0.45068623213E+03  0.50400000000E-02 0. -1.
          1   -1    0    0  501    0  0.00000000000E+00 -0.00000000000E+00 -0.10013294391E+04  0.10013294391E+04  0.50400000000E-02 0.  1.
   -5000001    1    1    2    0    0 -0.18486409049E+03  0.52051830892E+03  0.37289254615E+02  0.60745743092E+03  0.25000000000E+03 0.  0.
    5000001    1    1    2    0    0  0.18486409049E+03 -0.52051830892E+03 -0.58793246158E+03  0.84455824030E+03  0.25000000000E+03 0.  0.
<mgrwt>
<rscale>  0 0.13435556E+04</rscale>
<asrwt>0</asrwt>
<pdfrwt beam="1">  1        1 0.15405068E+00 0.13435556E+04</pdfrwt>
<pdfrwt beam="2">  1       -1 0.69336344E-01 0.13435556E+04</pdfrwt>
<totfact> 0.31107563E+01</totfact>
</mgrwt>
</event>
<event>
 4    1  0.4305113E-006  0.7440747E+03  0.7818608E-02  0.9644692E-01
          1   -1    0    0  501    0  0.00000000000E+00  0.00000000000E+00  0.16951089323E+03  0.16951089331E+03  0.50400000000E-02 0. -1.
         -1   -1    0    0    0  501 -0.00000000000E+00 -0.00000000000E+00 -0.81653617517E+03  0.81653617518E+03  0.50400000000E-02 0.  1.
   -5000001    1    1    2    0    0  0.53004581740E+02  0.23601674400E+03 -0.49831030587E+03  0.60772242848E+03  0.25000000000E+03 0.  0.
    5000001    1    1    2    0    0 -0.53004581740E+02 -0.23601674400E+03 -0.14871497606E+03  0.37832464001E+03  0.25000000000E+03 0.  0.
<mgrwt>
<rscale>  0 0.74407466E+03</rscale>
<asrwt>0</asrwt>
<pdfrwt beam="1">  1        1 0.26078600E-01 0.74407466E+03</pdfrwt>
<pdfrwt beam="2">  1       -1 0.12562095E+00 0.74407466E+03</pdfrwt>
<totfact> 0.10372300E+02</totfact>
</mgrwt>
</event>
<event>
 4    1  0.4305113E-006  0.6077255E+03  0.7818608E-02  0.9889507E-01
         -1   -1    0    0    0  501 -0.00000000000E+00  0.00000000000E+00  0.27245385210E+02  0.27245385676E+02  0.50400000000E-02 0. -1.
          1   -1    0    0  501    0  0.00000000000E+00 -0.00000000000E+00 -0.33889248772E+04  0.33889248772E+04  0.50400000000E-02 0.  1.
   -5000001    1    1    2    0    0  0.10676282362E+01 -0.84006337694E+02 -0.25291508527E+04  0.25428649669E+04  0.25000000000E+03 0.  0.
    5000001    1    1    2    0    0 -0.10676282362E+01  0.84006337694E+02 -0.83252863931E+03  0.87330529592E+03  0.25000000000E+03 0.  0.
<mgrwt>
<rscale>  0 0.60772548E+03</rscale>
<asrwt>0</asrwt>
<pdfrwt beam="1">  1        1 0.52137272E+00 0.60772548E+03</pdfrwt>
<pdfrwt beam="2">  1       -1 0.41916004E-02 0.60772548E+03</pdfrwt>
<totfact> 0.81050824E+01</totfact>
</mgrwt>
</event>
<event>
 4    1  0.4305113E-006  0.6040691E+03  0.7818608E-02  0.9897000E-01
         -1   -1    0    0    0  501 -0.00000000000E+00  0.00000000000E+00  0.13926920122E+03  0.13926920131E+03  0.50400000000E-02 0. -1.
          1   -1    0    0  501    0  0.00000000000E+00 -0.00000000000E+00 -0.65502546585E+03  0.65502546587E+03  0.50400000000E-02 0.  1.
   -5000001    1    1    2    0    0 -0.12820742948E+03  0.70772673951E+02 -0.37006179008E+03  0.46999111144E+03  0.25000000000E+03 0.  0.
    5000001    1    1    2    0    0  0.12820742948E+03 -0.70772673951E+02 -0.14569447455E+03  0.32430355574E+03  0.25000000000E+03 0.  0.
<mgrwt>
<rscale>  0 0.60406911E+03</rscale>
<asrwt>0</asrwt>
<pdfrwt beam="1">  1        1 0.10077315E+00 0.60406911E+03</pdfrwt>
<pdfrwt beam="2">  1       -1 0.21426031E-01 0.60406911E+03</pdfrwt>
<totfact> 0.55390013E+02</totfact>
</mgrwt>
</event>
<event>
 4    1  0.4305113E-006  0.6515467E+03  0.7818608E-02  0.9803881E-01
         -1   -1    0    0    0  501 -0.00000000000E+00  0.00000000000E+00  0.44913933942E+03  0.44913933945E+03  0.50400000000E-02 0. -1.
          1   -1    0    0  501    0  0.00000000000E+00 -0.00000000000E+00 -0.23629250701E+03  0.23629250707E+03  0.50400000000E-02 0.  1.
   -5000001    1    1    2    0    0  0.12443178657E+03  0.16297882849E+03  0.14827813900E+03  0.35571305085E+03  0.25000000000E+03 0.  0.
    5000001    1    1    2    0    0 -0.12443178657E+03 -0.16297882849E+03  0.64568693412E+02  0.32971879566E+03  0.25000000000E+03 0.  0.
<mgrwt>
<rscale>  0 0.65154665E+03</rscale>
<asrwt>0</asrwt>
<pdfrwt beam="1">  1        1 0.36352694E-01 0.65154665E+03</pdfrwt>
<pdfrwt beam="2">  1       -1 0.69098360E-01 0.65154665E+03</pdfrwt>
<totfact> 0.25738587E+02</totfact>
</mgrwt>
</event>
<event>
 4    1  0.4305113E-006  0.1185109E+04  0.7818608E-02  0.9125992E-01
         -1   -1    0    0    0  501 -0.00000000000E+00  0.00000000000E+00  0.35096828707E+03  0.35096828710E+03  0.50400000000E-02 0. -1.
          1   -1    0    0  501    0  0.00000000000E+00 -0.00000000000E+00 -0.10004339587E+04  0.10004339587E+04  0.50400000000E-02 0.  1.
   -5000001    1    1    2    0    0  0.48476064955E+03 -0.17066944151E+03 -0.14624591159E+03  0.58992271720E+03  0.25000000000E+03 0.  0.
    5000001    1    1    2    0    0 -0.48476064955E+03  0.17066944151E+03 -0.50321976005E+03  0.76147952863E+03  0.25000000000E+03 0.  0.
<mgrwt>
<rscale>  0 0.11851086E+04</rscale>
<asrwt>0</asrwt>
<pdfrwt beam="1">  1        1 0.15391292E+00 0.11851086E+04</pdfrwt>
<pdfrwt beam="2">  1       -1 0.53995121E-01 0.11851086E+04</pdfrwt>
<totfact> 0.51861554E+01</totfact>
</mgrwt>
</event>
<event>
 4    1  0.4305113E-006  0.8485192E+03  0.7818608E-02  0.9492327E-01
         -1   -1    0    0    0  501 -0.00000000000E+00  0.00000000000E+00  0.23920500362E+03  0.23920500367E+03  0.50400000000E-02 0. -1.
          1   -1    0    0  501    0  0.00000000000E+00 -0.00000000000E+00 -0.75247674587E+03  0.75247674589E+03  0.50400000000E-02 0.  1.
   -5000001    1    1    2    0    0 -0.59518137180E+02  0.19726231715E+03 -0.57679142295E+03  0.66154604980E+03  0.25000000000E+03 0.  0.
    5000001    1    1    2    0    0  0.59518137180E+02 -0.19726231715E+03  0.63519680692E+02  0.33013569976E+03  0.25000000000E+03 0.  0.
<mgrwt>
<rscale>  0 0.84851919E+03</rscale>
<asrwt>0</asrwt>
<pdfrwt beam="1">  1        1 0.11576565E+00 0.84851919E+03</pdfrwt>
<pdfrwt beam="2">  1       -1 0.36800770E-01 0.84851919E+03</pdfrwt>
<totfact> 0.17422597E+02</totfact>
</mgrwt>
</event>
<event>
 4    1  0.4305113E-006  0.8101634E+03  0.7818608E-02  0.9545421E-01
          1   -1    0    0  501    0  0.00000000000E+00  0.00000000000E+00  0.87898073857E+02  0.87898074002E+02  0.50400000000E-02 0.  1.
         -1   -1    0    0    0  501 -0.00000000000E+00 -0.00000000000E+00 -0.18668348064E+04  0.18668348064E+04  0.50400000000E-02 0. -1.
   -5000001    1    1    2    0    0  0.25604143965E+03  0.18503876470E+03 -0.78725654645E+03  0.88434689641E+03  0.25000000000E+03 0.  0.
    5000001    1    1    2    0    0 -0.25604143965E+03 -0.18503876470E+03 -0.99168018610E+03  0.10703859840E+04  0.25000000000E+03 0.  0.
<mgrwt>
<rscale>  0 0.81016340E+03</rscale>
<asrwt>0</asrwt>
<pdfrwt beam="1">  1        1 0.13522782E-01 0.81016340E+03</pdfrwt>
<pdfrwt beam="2">  1       -1 0.28720532E+00 0.81016340E+03</pdfrwt>
<totfact> 0.18324725E+01</totfact>
</mgrwt>
</event>
<event>
 4    1  0.4305113E-006  0.8141585E+03  0.7818608E-02  0.9539746E-01
         -1   -1    0    0    0  501 -0.00000000000E+00  0.00000000000E+00  0.18173937158E+03  0.18173937165E+03  0.50400000000E-02 0. -1.
          1   -1    0    0  501    0  0.00000000000E+00 -0.00000000000E+00 -0.91181965457E+03  0.91181965458E+03  0.50400000000E-02 0.  1.
   -5000001    1    1    2    0    0 -0.46268477778E+02  0.29665026926E+03 -0.21147455076E+03  0.44425627729E+03  0.25000000000E+03 0.  0.
    5000001    1    1    2    0    0  0.46268477778E+02 -0.29665026926E+03 -0.51860573223E+03  0.64930274894E+03  0.25000000000E+03 0.  0.
<mgrwt>
<rscale>  0 0.81415854E+03</rscale>
<asrwt>0</asrwt>
<pdfrwt beam="1">  1        1 0.14027994E+00 0.81415854E+03</pdfrwt>
<pdfrwt beam="2">  1       -1 0.27959904E-01 0.81415854E+03</pdfrwt>
<totfact> 0.20729593E+02</totfact>
</mgrwt>
</event>
<event>
 4    1  0.4305113E-006  0.2429292E+04  0.7818608E-02  0.8428618E-01
          1   -1    0    0  501    0  0.00000000000E+00  0.00000000000E+00  0.32173919871E+04  0.32173919871E+04  0.50400000000E-02 0.  1.
         -1   -1    0    0    0  501 -0.00000000000E+00 -0.00000000000E+00 -0.45855920031E+03  0.45855920033E+03  0.50400000000E-02 0. -1.
   -5000001    1    1    2    0    0 -0.63311548898E+03 -0.81615041418E+03  0.48943097884E+03  0.11700339328E+04  0.25000000000E+03 0.  0.
    5000001    1    1    2    0    0  0.63311548898E+03  0.81615041418E+03  0.22694018080E+04  0.25059172546E+04  0.25000000000E+03 0.  0.
<mgrwt>
<rscale>  0 0.24292918E+04</rscale>
<asrwt>0</asrwt>
<pdfrwt beam="1">  1        1 0.49498340E+00 0.24292918E+04</pdfrwt>
<pdfrwt beam="2">  1       -1 0.70547567E-01 0.24292918E+04</pdfrwt>
<totfact> 0.74900538E-01</totfact>
</mgrwt>
</event>
<event>
 4    1  0.4305113E-006  0.5685072E+03  0.7818608E-02  0.9972987E-01
          1   -1    0    0  501    0  0.00000000000E+00  0.00000000000E+00  0.11426323401E+04  0.11426323401E+04  0.50400000000E-02 0. -1.
         -1   -1    0    0    0  501 -0.00000000000E+00 -0.00000000000E+00 -0.70714000913E+02  0.70714001093E+02  0.50400000000E-02 0.  1.
   -5000001    1    1    2    0    0 -0.38497361368E+02  0.12697928097E+03  0.47972133212E+03  0.55699043180E+03  0.25000000000E+03 0.  0.
    5000001    1    1    2    0    0  0.38497361368E+02 -0.12697928097E+03  0.59219700706E+03  0.65635590940E+03  0.25000000000E+03 0.  0.
<mgrwt>
<rscale>  0 0.56850718E+03</rscale>
<asrwt>0</asrwt>
<pdfrwt beam="1">  1        1 0.17578959E+00 0.56850718E+03</pdfrwt>
<pdfrwt beam="2">  1       -1 0.10879077E-01 0.56850718E+03</pdfrwt>
<totfact> 0.66194184E+02</totfact>
</mgrwt>
</event>
<event>
 4    1  0.4305113E-006  0.7608078E+03  0.7818608E-02  0.9618546E-01
          1   -1    0    0  501    0  0.00000000000E+00  0.00000000000E+00  0.27289099489E+03  0.27289099494E+03  0.50400000000E-02 0.  1.
         -1   -1    0    0    0  501 -0.00000000000E+00 -0.00000000000E+00 -0.53027447324E+03  0.53027447327E+03  0.50400000000E-02 0. -1.
   -5000001    1    1    2    0    0 -0.48359167224E+02  0.19979558031E+03  0.82311827386E+02  0.33396424943E+03  0.25000000000E+03 0.  0.
    5000001    1    1    2    0    0  0.48359167224E+02 -0.19979558031E+03 -0.33969530573E+03  0.46920121878E+03  0.25000000000E+03 0.  0.
<mgrwt>
<rscale>  0 0.76080780E+03</rscale>
<asrwt>0</asrwt>
<pdfrwt beam="1">  1        1 0.41983230E-01 0.76080780E+03</pdfrwt>
<pdfrwt beam="2">  1       -1 0.81580688E-01 0.76080780E+03</pdfrwt>
<totfact> 0.15045003E+02</totfact>
</mgrwt>
</event>
<event>
 4    1  0.4305113E-006  0.7386835E+03  0.7818608E-02  0.9653273E-01
         -1   -1    0    0    0  501 -0.00000000000E+00  0.00000000000E+00  0.92007823013E+02  0.92007823151E+02  0.50400000000E-02 0. -1.
          1   -1    0    0  501    0  0.00000000000E+00 -0.00000000000E+00 -0.14826274660E+04  0.14826274660E+04  0.50400000000E-02 0.  1.
   -5000001    1    1    2    0    0  0.49080898271E+02 -0.25390906889E+03 -0.51652092584E+03  0.62942244691E+03  0.25000000000E+03 0.  0.
    5000001    1    1    2    0    0 -0.49080898271E+02  0.25390906889E+03 -0.87409871711E+03  0.94521284222E+03  0.25000000000E+03 0.  0.
<mgrwt>
<rscale>  0 0.73868349E+03</rscale>
<asrwt>0</asrwt>
<pdfrwt beam="1">  1        1 0.22809652E+00 0.73868349E+03</pdfrwt>
<pdfrwt beam="2">  1       -1 0.14155051E-01 0.73868349E+03</pdfrwt>
<totfact> 0.24769742E+02</totfact>
</mgrwt>
</event>
<event>
 4    1  0.4305113E-006  0.6349474E+03  0.7818608E-02  0.9835442E-01
         -1   -1    0    0    0  501 -0.00000000000E+00  0.00000000000E+00  0.10537949543E+03  0.10537949555E+03  0.50400000000E-02 0.  1.
          1   -1    0    0  501    0  0.00000000000E+00 -0.00000000000E+00 -0.95644352219E+03  0.95644352220E+03  0.50400000000E-02 0. -1.
   -5000001    1    1    2    0    0  0.11465307046E+03 -0.93990427482E+02 -0.63910263673E+03  0.70209095372E+03  0.25000000000E+03 0.  0.
    5000001    1    1    2    0    0 -0.11465307046E+03  0.93990427482E+02 -0.21196139003E+03  0.35973206403E+03  0.25000000000E+03 0.  0.
<mgrwt>
<rscale>  0 0.63494735E+03</rscale>
<asrwt>0</asrwt>
<pdfrwt beam="1">  1        1 0.14714515E+00 0.63494735E+03</pdfrwt>
<pdfrwt beam="2">  1       -1 0.16212231E-01 0.63494735E+03</pdfrwt>
<totfact> 0.48079190E+02</totfact>
</mgrwt>
</event>
<event>
 4    1  0.4305113E-006  0.6772054E+03  0.7818608E-02  0.9757028E-01
          1   -1    0    0  501    0  0.00000000000E+00  0.00000000000E+00  0.22875729765E+04  0.22875729765E+04  0.50400000000E-02 0.  1.
         -1   -1    0    0    0  501 -0.00000000000E+00 -0.00000000000E+00 -0.50119402548E+02  0.50119402801E+02  0.50400000000E-02 0. -1.
   -5000001    1    1    2    0    0 -0.12378044185E+03  0.93938950139E+02  0.16964102081E+04  0.17217589024E+04  0.25000000000E+03 0.  0.
    5000001    1    1    2    0    0  0.12378044185E+03 -0.93938950139E+02  0.54104336587E+03  0.61593347684E+03  0.25000000000E+03 0.  0.
<mgrwt>
<rscale>  0 0.67720541E+03</rscale>
<asrwt>0</asrwt>
<pdfrwt beam="1">  1        1 0.35193436E+00 0.67720541E+03</pdfrwt>
<pdfrwt beam="2">  1       -1 0.77106762E-02 0.67720541E+03</pdfrwt>
<totfact> 0.18818488E+02</totfact>
</mgrwt>
</event>
<event>
 4    1  0.4305113E-006  0.9942591E+03  0.7818608E-02  0.9314864E-01
          1   -1    0    0  501    0  0.00000000000E+00  0.00000000000E+00  0.11188121776E+04  0.11188121776E+04  0.50400000000E-02 0. -1.
         -1   -1    0    0    0  501 -0.00000000000E+00 -0.00000000000E+00 -0.22089302770E+03  0.22089302776E+03  0.50400000000E-02 0.  1.
   -5000001    1    1    2    0    0  0.25239799960E+03  0.28381757594E+03  0.17819224239E+03  0.48837448936E+03  0.25000000000E+03 0.  0.
    5000001    1    1    2    0    0 -0.25239799960E+03 -0.28381757594E+03  0.71972690751E+03  0.85133071600E+03  0.25000000000E+03 0.  0.
<mgrwt>
<rscale>  0 0.99425914E+03</rscale>
<asrwt>0</asrwt>
<pdfrwt beam="1">  1        1 0.17212495E+00 0.99425914E+03</pdfrwt>
<pdfrwt beam="2">  1       -1 0.33983542E-01 0.99425914E+03</pdfrwt>
<totfact> 0.10057545E+02</totfact>
</mgrwt>
</event>
<event>
 4    1  0.4305113E-006  0.7032552E+03  0.7818608E-02  0.9711682E-01
         -1   -1    0    0    0  501 -0.00000000000E+00  0.00000000000E+00  0.88919127670E+02  0.88919127813E+02  0.50400000000E-02 0. -1.
          1   -1    0    0  501    0  0.00000000000E+00 -0.00000000000E+00 -0.13904989769E+04  0.13904989769E+04  0.50400000000E-02 0.  1.
   -5000001    1    1    2    0    0  0.18869494535E+03 -0.10599465343E+03 -0.90236398981E+03  0.96104184044E+03  0.25000000000E+03 0.  0.
    5000001    1    1    2    0    0 -0.18869494535E+03  0.10599465343E+03 -0.39921585939E+03  0.51837626426E+03  0.25000000000E+03 0.  0.
<mgrwt>
<rscale>  0 0.70325516E+03</rscale>
<asrwt>0</asrwt>
<pdfrwt beam="1">  1        1 0.21392290E+00 0.70325516E+03</pdfrwt>
<pdfrwt beam="2">  1       -1 0.13679867E-01 0.70325516E+03</pdfrwt>
<totfact> 0.30373198E+02</totfact>
</mgrwt>
</event>
<event>
 4    1  0.4305113E-006  0.6609193E+03  0.7818608E-02  0.9786503E-01
          1   -1    0    0  501    0  0.00000000000E+00  0.00000000000E+00  0.13163224248E+04  0.13163224249E+04  0.50400000000E-02 0.  1.
         -1   -1    0    0    0  501 -0.00000000000E+00 -0.00000000000E+00 -0.82961113749E+02  0.82961113902E+02  0.50400000000E-02 0. -1.
   -5000001    1    1    2    0    0  0.19333407937E+02  0.17078116802E+03  0.89405182916E+03  0.94412322354E+03  0.25000000000E+03 0.  0.
    5000001    1    1    2    0    0 -0.19333407937E+02 -0.17078116802E+03  0.33930948194E+03  0.45516031522E+03  0.25000000000E+03 0.  0.
<mgrwt>
<rscale>  0 0.66091928E+03</rscale>
<asrwt>0</asrwt>
<pdfrwt beam="1">  1        1 0.20251112E+00 0.66091928E+03</pdfrwt>
<pdfrwt beam="2">  1       -1 0.12763249E-01 0.66091928E+03</pdfrwt>
<totfact> 0.38362475E+02</totfact>
</mgrwt>
</event>
<event>
 4    1  0.4305113E-006  0.6316832E+03  0.7818608E-02  0.9841770E-01
          1   -1    0    0  501    0  0.00000000000E+00  0.00000000000E+00  0.36533351657E+03  0.36533351661E+03  0.50400000000E-02 0.  1.
         -1   -1    0    0    0  501 -0.00000000000E+00 -0.00000000000E+00 -0.27305434176E+03  0.27305434181E+03  0.50400000000E-02 0. -1.
   -5000001    1    1    2    0    0 -0.17862012220E+03 -0.55525775202E+02 -0.19856269914E+01  0.31223741364E+03  0.25000000000E+03 0.  0.
    5000001    1    1    2    0    0  0.17862012220E+03  0.55525775202E+02  0.94264801804E+02  0.32615044477E+03  0.25000000000E+03 0.  0.
<mgrwt>
<rscale>  0 0.63168316E+03</rscale>
<asrwt>0</asrwt>
<pdfrwt beam="1">  1        1 0.56205157E-01 0.63168316E+03</pdfrwt>
<pdfrwt beam="2">  1       -1 0.42008360E-01 0.63168316E+03</pdfrwt>
<totfact> 0.38146694E+02</totfact>
</mgrwt>
</event>
<event>
 4    1  0.4305113E-006  0.7455160E+03  0.7818608E-02  0.9642411E-01
          1   -1    0    0  501    0  0.00000000000E+00  0.00000000000E+00  0.23282218503E+03  0.23282218509E+03  0.50400000000E-02 0.  1.
         -1   -1    0    0    0  501 -0.00000000000E+00 -0.00000000000E+00 -0.59680099303E+03  0.59680099305E+03  0.50400000000E-02 0. -1.
   -5000001    1    1    2    0    0  0.14102124027E+03  0.13841872599E+03  0.33224364643E+02  0.32039131124E+03  0.25000000000E+03 0.  0.
    5000001    1    1    2    0    0 -0.14102124027E+03 -0.13841872599E+03 -0.39720317264E+03  0.50923186690E+03  0.25000000000E+03 0.  0.
<mgrwt>
<rscale>  0 0.74551596E+03</rscale>
<asrwt>0</asrwt>
<pdfrwt beam="1">  1        1 0.35818798E-01 0.74551596E+03</pdfrwt>
<pdfrwt beam="2">  1       -1 0.91815537E-01 0.74551596E+03</pdfrwt>
<totfact> 0.14302497E+02</totfact>
</mgrwt>
</event>
<event>
 4    1  0.4305113E-006  0.5109890E+03  0.7818608E-02  0.1010950E+00
          1   -1    0    0  501    0  0.00000000000E+00  0.00000000000E+00  0.16376557484E+03  0.16376557492E+03  0.50400000000E-02 0.  1.
         -1   -1    0    0    0  501 -0.00000000000E+00 -0.00000000000E+00 -0.39860297499E+03  0.39860297502E+03  0.50400000000E-02 0. -1.
   -5000001    1    1    2    0    0 -0.13332029897E+02  0.42879324994E+02 -0.14778001427E+03  0.29386274373E+03  0.25000000000E+03 0.  0.
    5000001    1    1    2    0    0  0.13332029897E+02 -0.42879324994E+02 -0.87057385880E+02  0.26850580621E+03  0.25000000000E+03 0.  0.
<mgrwt>
<rscale>  0 0.51098902E+03</rscale>
<asrwt>0</asrwt>
<pdfrwt beam="1">  1        1 0.25194704E-01 0.51098902E+03</pdfrwt>
<pdfrwt beam="2">  1       -1 0.61323534E-01 0.51098902E+03</pdfrwt>
<totfact> 0.52717183E+02</totfact>
</mgrwt>
</event>
<event>
 4    1  0.4305113E-006  0.6370839E+03  0.7818608E-02  0.9831322E-01
         -1   -1    0    0    0  501 -0.00000000000E+00  0.00000000000E+00  0.32376086580E+02  0.32376086972E+02  0.50400000000E-02 0. -1.
          1   -1    0    0  501    0  0.00000000000E+00 -0.00000000000E+00 -0.31340712205E+04  0.31340712205E+04  0.50400000000E-02 0.  1.
   -5000001    1    1    2    0    0  0.19294634623E+03  0.15329791811E+02 -0.17437066482E+04  0.17721388687E+04  0.25000000000E+03 0.  0.
    5000001    1    1    2    0    0 -0.19294634623E+03 -0.15329791811E+02 -0.13579884857E+04  0.13943084387E+04  0.25000000000E+03 0.  0.
<mgrwt>
<rscale>  0 0.63708386E+03</rscale>
<asrwt>0</asrwt>
<pdfrwt beam="1">  1        1 0.48216456E+00 0.63708386E+03</pdfrwt>
<pdfrwt beam="2">  1       -1 0.49809389E-02 0.63708386E+03</pdfrwt>
<totfact> 0.95820075E+01</totfact>
</mgrwt>
</event>
<event>
 4    1  0.4305113E-006  0.1992793E+04  0.7818608E-02  0.8609998E-01
          1   -1    0    0  501    0  0.00000000000E+00  0.00000000000E+00  0.12373015238E+04  0.12373015238E+04  0.50400000000E-02 0.  1.
         -1   -1    0    0    0  501 -0.00000000000E+00 -0.00000000000E+00 -0.80239601106E+03  0.80239601108E+03  0.50400000000E-02 0. -1.
   -5000001    1    1    2    0    0  0.25266311887E+03  0.76806120888E+03  0.75570986371E+03  0.11346162657E+04  0.25000000000E+03 0.  0.
    5000001    1    1    2    0    0 -0.25266311887E+03 -0.76806120888E+03 -0.32080435099E+03  0.90508126919E+03  0.25000000000E+03 0.  0.
<mgrwt>
<rscale>  0 0.19927928E+04</rscale>
<asrwt>0</asrwt>
<pdfrwt beam="1">  1        1 0.19035408E+00 0.19927928E+04</pdfrwt>
<pdfrwt beam="2">  1       -1 0.12344554E+00 0.19927928E+04</pdfrwt>
<totfact> 0.53791740E+00</totfact>
</mgrwt>
</event>
<event>
 4    1  0.4305113E-006  0.6238962E+03  0.7818608E-02  0.9857033E-01
          1   -1    0    0  501    0  0.00000000000E+00  0.00000000000E+00  0.35721743311E+03  0.35721743314E+03  0.50400000000E-02 0.  1.
         -1   -1    0    0    0  501 -0.00000000000E+00 -0.00000000000E+00 -0.27241566217E+03  0.27241566222E+03  0.50400000000E-02 0. -1.
   -5000001    1    1    2    0    0 -0.35802396266E+02 -0.18181334118E+03  0.64366153556E+02  0.31777492717E+03  0.25000000000E+03 0.  0.
    5000001    1    1    2    0    0  0.35802396266E+02  0.18181334118E+03  0.20435617378E+02  0.31185816819E+03  0.25000000000E+03 0.  0.
<mgrwt>
<rscale>  0 0.62389622E+03</rscale>
<asrwt>0</asrwt>
<pdfrwt beam="1">  1        1 0.54956528E-01 0.62389622E+03</pdfrwt>
<pdfrwt beam="2">  1       -1 0.41910102E-01 0.62389622E+03</pdfrwt>
<totfact> 0.39462290E+02</totfact>
</mgrwt>
</event>
<event>
 4    1  0.4305113E-006  0.9713623E+03  0.7818608E-02  0.9340524E-01
         -1   -1    0    0    0  501 -0.00000000000E+00  0.00000000000E+00  0.96643597707E+02  0.96643597839E+02  0.50400000000E-02 0.  1.
          1   -1    0    0  501    0  0.00000000000E+00 -0.00000000000E+00 -0.24407843418E+04  0.24407843418E+04  0.50400000000E-02 0. -1.
   -5000001    1    1    2    0    0  0.25282554021E+03 -0.13867527938E+03 -0.38737876828E+03  0.54379582291E+03  0.25000000000E+03 0.  0.
    5000001    1    1    2    0    0 -0.25282554021E+03  0.13867527938E+03 -0.19567619758E+04  0.19936321167E+04  0.25000000000E+03 0.  0.
<mgrwt>
<rscale>  0 0.97136230E+03</rscale>
<asrwt>0</asrwt>
<pdfrwt beam="1">  1        1 0.37550524E+00 0.97136230E+03</pdfrwt>
<pdfrwt beam="2">  1       -1 0.14868248E-01 0.97136230E+03</pdfrwt>
<totfact> 0.50560099E+01</totfact>
</mgrwt>
</event>
<event>
 4    1  0.4305113E-006  0.1222105E+04  0.7818608E-02  0.9093725E-01
          1   -1    0    0  501    0  0.00000000000E+00  0.00000000000E+00  0.75436392563E+03  0.75436392565E+03  0.50400000000E-02 0.  1.
         -1   -1    0    0    0  501 -0.00000000000E+00 -0.00000000000E+00 -0.49496715282E+03  0.49496715284E+03  0.50400000000E-02 0. -1.
   -5000001    1    1    2    0    0  0.13328074319E+03 -0.51551669650E+03 -0.39407931347E+02  0.58955424341E+03  0.25000000000E+03 0.  0.
    5000001    1    1    2    0    0 -0.13328074319E+03  0.51551669650E+03  0.29880470416E+03  0.65977683508E+03  0.25000000000E+03 0.  0.
<mgrwt>
<rscale>  0 0.12221053E+04</rscale>
<asrwt>0</asrwt>
<pdfrwt beam="1">  1        1 0.11605599E+00 0.12221053E+04</pdfrwt>
<pdfrwt beam="2">  1       -1 0.76148793E-01 0.12221053E+04</pdfrwt>
<totfact> 0.41550919E+01</totfact>
</mgrwt>
</event>
<event>
 4    1  0.4305113E-006  0.7108464E+03  0.7818608E-02  0.9698861E-01
         -1   -1    0    0    0  501 -0.00000000000E+00  0.00000000000E+00  0.14205667405E+03  0.14205667414E+03  0.50400000000E-02 0. -1.
          1   -1    0    0  501    0  0.00000000000E+00 -0.00000000000E+00 -0.88926224410E+03  0.88926224411E+03  0.50400000000E-02 0.  1.
   -5000001    1    1    2    0    0  0.20454207428E+03  0.63620653990E+02 -0.56793087842E+03  0.65645299179E+03  0.25000000000E+03 0.  0.
    5000001    1    1    2    0    0 -0.20454207428E+03 -0.63620653990E+02 -0.17927469162E+03  0.37486592646E+03  0.25000000000E+03 0.  0.
<mgrwt>
<rscale>  0 0.71084636E+03</rscale>
<asrwt>0</asrwt>
<pdfrwt beam="1">  1        1 0.13680957E+00 0.71084636E+03</pdfrwt>
<pdfrwt beam="2">  1       -1 0.21854874E-01 0.71084636E+03</pdfrwt>
<totfact> 0.33086027E+02</totfact>
</mgrwt>
</event>
<event>
 4    1  0.4305113E-006  0.7814066E+03  0.7818608E-02  0.9587327E-01
          1   -1    0    0  501    0  0.00000000000E+00  0.00000000000E+00  0.80373357932E+03  0.80373357934E+03  0.50400000000E-02 0.  1.
         -1   -1    0    0    0  501 -0.00000000000E+00 -0.00000000000E+00 -0.18992496988E+03  0.18992496995E+03  0.50400000000E-02 0. -1.
   -5000001    1    1    2    0    0 -0.27985773386E+02 -0.28613994791E+03  0.41695562913E+03  0.56481082671E+03  0.25000000000E+03 0.  0.
    5000001    1    1    2    0    0  0.27985773386E+02  0.28613994791E+03  0.19685298031E+03  0.42884772258E+03  0.25000000000E+03 0.  0.
<mgrwt>
<rscale>  0 0.78140662E+03</rscale>
<asrwt>0</asrwt>
<pdfrwt beam="1">  1        1 0.12365132E+00 0.78140662E+03</pdfrwt>
<pdfrwt beam="2">  1       -1 0.29219226E-01 0.78140662E+03</pdfrwt>
<totfact> 0.23689017E+02</totfact>
</mgrwt>
</event>
<event>
 4    1  0.4305113E-006  0.5565186E+03  0.7818608E-02  0.9999963E-01
         -1   -1    0    0    0  501 -0.00000000000E+00  0.00000000000E+00  0.12840096695E+03  0.12840096705E+03  0.50400000000E-02 0. -1.
          1   -1    0    0  501    0  0.00000000000E+00 -0.00000000000E+00 -0.60301921904E+03  0.60301921906E+03  0.50400000000E-02 0.  1.
   -5000001    1    1    2    0    0  0.45822569072E+01 -0.12194479583E+03 -0.22934493259E+03  0.36054213126E+03  0.25000000000E+03 0.  0.
    5000001    1    1    2    0    0 -0.45822569072E+01  0.12194479583E+03 -0.24527331950E+03  0.37087805485E+03  0.25000000000E+03 0.  0.
<mgrwt>
<rscale>  0 0.55651865E+03</rscale>
<asrwt>0</asrwt>
<pdfrwt beam="1">  1        1 0.92772186E-01 0.55651865E+03</pdfrwt>
<pdfrwt beam="2">  1       -1 0.19753995E-01 0.55651865E+03</pdfrwt>
<totfact> 0.71569486E+02</totfact>
</mgrwt>
</event>
<event>
 4    1  0.4305113E-006  0.7182303E+03  0.7818608E-02  0.9686554E-01
          1   -1    0    0  501    0  0.00000000000E+00  0.00000000000E+00  0.10960997310E+03  0.10960997322E+03  0.50400000000E-02 0.  1.
         -1   -1    0    0    0  501 -0.00000000000E+00 -0.00000000000E+00 -0.11765690427E+04  0.11765690428E+04  0.50400000000E-02 0. -1.
   -5000001    1    1    2    0    0  0.19215127352E+03 -0.10339411752E+03 -0.77935076115E+03  0.84705375529E+03  0.25000000000E+03 0.  0.
    5000001    1    1    2    0    0 -0.19215127352E+03  0.10339411752E+03 -0.28760830849E+03  0.43912526068E+03  0.25000000000E+03 0.  0.
<mgrwt>
<rscale>  0 0.71823033E+03</rscale>
<asrwt>0</asrwt>
<pdfrwt beam="1">  1        1 0.16863074E-01 0.71823033E+03</pdfrwt>
<pdfrwt beam="2">  1       -1 0.18101061E+00 0.71823033E+03</pdfrwt>
<totfact> 0.68928341E+01</totfact>
</mgrwt>
</event>
<event>
 4    1  0.4305113E-006  0.5355273E+03  0.7818608E-02  0.1004900E+00
          1   -1    0    0  501    0  0.00000000000E+00  0.00000000000E+00  0.17786726410E+03  0.17786726417E+03  0.50400000000E-02 0.  1.
         -1   -1    0    0    0  501 -0.00000000000E+00 -0.00000000000E+00 -0.40309483617E+03  0.40309483620E+03  0.50400000000E-02 0. -1.
   -5000001    1    1    2    0    0  0.75123080741E+02  0.33352451735E+02 -0.59009977810E+02  0.26969990875E+03  0.25000000000E+03 0.  0.
    5000001    1    1    2    0    0 -0.75123080741E+02 -0.33352451735E+02 -0.16621759426E+03  0.31126219163E+03  0.25000000000E+03 0.  0.
<mgrwt>
<rscale>  0 0.53552731E+03</rscale>
<asrwt>0</asrwt>
<pdfrwt beam="1">  1        1 0.27364195E-01 0.53552731E+03</pdfrwt>
<pdfrwt beam="2">  1       -1 0.62014590E-01 0.53552731E+03</pdfrwt>
<totfact> 0.46303952E+02</totfact>
</mgrwt>
</event>
<event>
 4    1  0.4305113E-006  0.6110534E+03  0.7818608E-02  0.9882735E-01
         -1   -1    0    0    0  501 -0.00000000000E+00  0.00000000000E+00  0.81425771974E+03  0.81425771976E+03  0.50400000000E-02 0. -1.
          1   -1    0    0  501    0  0.00000000000E+00 -0.00000000000E+00 -0.11464007741E+03  0.11464007752E+03  0.50400000000E-02 0.  1.
   -5000001    1    1    2    0    0  0.30960734078E+02  0.16558376615E+03  0.27425807336E+03  0.40754636727E+03  0.25000000000E+03 0.  0.
    5000001    1    1    2    0    0 -0.30960734078E+02 -0.16558376615E+03  0.42535956896E+03  0.52135143001E+03  0.25000000000E+03 0.  0.
<mgrwt>
<rscale>  0 0.61105341E+03</rscale>
<asrwt>0</asrwt>
<pdfrwt beam="1">  1        1 0.17636936E-01 0.61105341E+03</pdfrwt>
<pdfrwt beam="2">  1       -1 0.12527041E+00 0.61105341E+03</pdfrwt>
<totfact> 0.17616061E+02</totfact>
</mgrwt>
</event>
<event>
 4    1  0.4305113E-006  0.6257627E+03  0.7818608E-02  0.9853353E-01
          1   -1    0    0  501    0  0.00000000000E+00  0.00000000000E+00  0.20614439683E+04  0.20614439683E+04  0.50400000000E-02 0.  1.
         -1   -1    0    0    0  501 -0.00000000000E+00 -0.00000000000E+00 -0.47488436463E+02  0.47488436730E+02  0.50400000000E-02 0. -1.
   -5000001    1    1    2    0    0 -0.27972110431E+02 -0.18410309800E+03  0.91664932846E+03  0.96820575346E+03  0.25000000000E+03 0.  0.
    5000001    1    1    2    0    0  0.27972110431E+02  0.18410309800E+03  0.10973062033E+04  0.11407266515E+04  0.25000000000E+03 0.  0.
<mgrwt>
<rscale>  0 0.62576274E+03</rscale>
<asrwt>0</asrwt>
<pdfrwt beam="1">  1        1 0.31714520E+00 0.62576274E+03</pdfrwt>
<pdfrwt beam="2">  1       -1 0.73059139E-02 0.62576274E+03</pdfrwt>
<totfact> 0.29128574E+02</totfact>
</mgrwt>
</event>
<event>
 4    1  0.4305113E-006  0.9514292E+03  0.7818608E-02  0.9363482E-01
          1   -1    0    0  501    0  0.00000000000E+00  0.00000000000E+00  0.13409782701E+03  0.13409782711E+03  0.50400000000E-02 0.  1.
         -1   -1    0    0    0  501 -0.00000000000E+00 -0.00000000000E+00 -0.16876065486E+04  0.16876065486E+04  0.50400000000E-02 0. -1.
   -5000001    1    1    2    0    0  0.75599295520E+02 -0.20761016740E+03 -0.14260254473E+04  0.14645360396E+04  0.25000000000E+03 0.  0.
    5000001    1    1    2    0    0 -0.75599295520E+02  0.20761016740E+03 -0.12748327435E+03  0.35716833612E+03  0.25000000000E+03 0.  0.
<mgrwt>
<rscale>  0 0.95142918E+03</rscale>
<asrwt>0</asrwt>
<pdfrwt beam="1">  1        1 0.20630436E-01 0.95142918E+03</pdfrwt>
<pdfrwt beam="2">  1       -1 0.25963176E+00 0.95142918E+03</pdfrwt>
<totfact> 0.15408670E+01</totfact>
</mgrwt>
</event>
<event>
 4    1  0.4305113E-006  0.7142190E+03  0.7818608E-02  0.9693220E-01
          1   -1    0    0  501    0  0.00000000000E+00  0.00000000000E+00  0.12556692463E+04  0.12556692463E+04  0.50400000000E-02 0. -1.
         -1   -1    0    0    0  501 -0.00000000000E+00 -0.00000000000E+00 -0.10156114494E+03  0.10156114506E+03  0.50400000000E-02 0.  1.
   -5000001    1    1    2    0    0  0.18860657029E+03 -0.17146736564E+03  0.59098087459E+03  0.69045773945E+03  0.25000000000E+03 0.  0.
    5000001    1    1    2    0    0 -0.18860657029E+03  0.17146736564E+03  0.56312722680E+03  0.66677265196E+03  0.25000000000E+03 0.  0.
<mgrwt>
<rscale>  0 0.71421903E+03</rscale>
<asrwt>0</asrwt>
<pdfrwt beam="1">  1        1 0.19317989E+00 0.71421903E+03</pdfrwt>
<pdfrwt beam="2">  1       -1 0.15624791E-01 0.71421903E+03</pdfrwt>
<totfact> 0.30431714E+02</totfact>
</mgrwt>
</event>
<event>
 4    1  0.4305113E-006  0.5933147E+03  0.7818608E-02  0.9919374E-01
         -1   -1    0    0    0  501 -0.00000000000E+00  0.00000000000E+00  0.39810908022E+03  0.39810908026E+03  0.50400000000E-02 0. -1.
          1   -1    0    0  501    0  0.00000000000E+00 -0.00000000000E+00 -0.22105899651E+03  0.22105899656E+03  0.50400000000E-02 0.  1.
   -5000001    1    1    2    0    0  0.73499057116E+02 -0.12501854758E+03  0.15832640390E+03  0.32954362201E+03  0.25000000000E+03 0.  0.
    5000001    1    1    2    0    0 -0.73499057116E+02  0.12501854758E+03  0.18723679818E+02  0.28962445481E+03  0.25000000000E+03 0.  0.
<mgrwt>
<rscale>  0 0.59331474E+03</rscale>
<asrwt>0</asrwt>
<pdfrwt beam="1">  1        1 0.34009077E-01 0.59331474E+03</pdfrwt>
<pdfrwt beam="2">  1       -1 0.61247550E-01 0.59331474E+03</pdfrwt>
<totfact> 0.35785516E+02</totfact>
</mgrwt>
</event>
<event>
 4    1  0.4305113E-006  0.5185257E+03  0.7818608E-02  0.1009053E+00
          1   -1    0    0  501    0  0.00000000000E+00  0.00000000000E+00  0.81249427494E+03  0.81249427495E+03  0.50400000000E-02 0.  1.
         -1   -1    0    0    0  501 -0.00000000000E+00 -0.00000000000E+00 -0.82729472137E+02  0.82729472290E+02  0.50400000000E-02 0. -1.
   -5000001    1    1    2    0    0 -0.97194037499E+01 -0.52834021010E+02  0.43876525645E+03  0.50783939475E+03  0.25000000000E+03 0.  0.
    5000001    1    1    2    0    0  0.97194037499E+01  0.52834021010E+02  0.29099954635E+03  0.38738435250E+03  0.25000000000E+03 0.  0.
<mgrwt>
<rscale>  0 0.51852569E+03</rscale>
<asrwt>0</asrwt>
<pdfrwt beam="1">  1        1 0.12499911E+00 0.51852569E+03</pdfrwt>
<pdfrwt beam="2">  1       -1 0.12727612E-01 0.51852569E+03</pdfrwt>
<totfact> 0.93497534E+02</totfact>
</mgrwt>
</event>
<event>
 4    1  0.4305113E-006  0.9544490E+03  0.7818608E-02  0.9359965E-01
          1   -1    0    0  501    0  0.00000000000E+00  0.00000000000E+00  0.21680689219E+03  0.21680689225E+03  0.50400000000E-02 0. -1.
         -1   -1    0    0    0  501 -0.00000000000E+00 -0.00000000000E+00 -0.10504427526E+04  0.10504427526E+04  0.50400000000E-02 0.  1.
   -5000001    1    1    2    0    0  0.22989962269E+03 -0.24990145961E+03 -0.71352497380E+03  0.82880785727E+03  0.25000000000E+03 0.  0.
    5000001    1    1    2    0    0 -0.22989962269E+03  0.24990145961E+03 -0.12011088660E+03  0.43844178759E+03  0.25000000000E+03 0.  0.
<mgrwt>
<rscale>  0 0.95444901E+03</rscale>
<asrwt>0</asrwt>
<pdfrwt beam="1">  1        1 0.33354907E-01 0.95444901E+03</pdfrwt>
<pdfrwt beam="2">  1       -1 0.16160657E+00 0.95444901E+03</pdfrwt>
<totfact> 0.38279174E+01</totfact>
</mgrwt>
</event>
<event>
 4    1  0.4305113E-006  0.6353759E+03  0.7818608E-02  0.9834614E-01
         -1   -1    0    0    0  501 -0.00000000000E+00  0.00000000000E+00  0.17057049379E+03  0.17057049387E+03  0.50400000000E-02 0. -1.
          1   -1    0    0  501    0  0.00000000000E+00 -0.00000000000E+00 -0.59169452520E+03  0.59169452522E+03  0.50400000000E-02 0.  1.
   -5000001    1    1    2    0    0  0.17158944177E+02 -0.16342821896E+03 -0.33878156263E+03  0.45196920171E+03  0.25000000000E+03 0.  0.
    5000001    1    1    2    0    0 -0.17158944177E+02  0.16342821896E+03 -0.82342468772E+02  0.31029581737E+03  0.25000000000E+03 0.  0.
<mgrwt>
<rscale>  0 0.63537588E+03</rscale>
<asrwt>0</asrwt>
<pdfrwt beam="1">  1        1 0.91029926E-01 0.63537588E+03</pdfrwt>
<pdfrwt beam="2">  1       -1 0.26241615E-01 0.63537588E+03</pdfrwt>
<totfact> 0.45507566E+02</totfact>
</mgrwt>
</event>
<event>
 4    1  0.4305113E-006  0.9305969E+03  0.7818608E-02  0.9388122E-01
          1   -1    0    0  501    0  0.00000000000E+00  0.00000000000E+00  0.11531413917E+04  0.11531413917E+04  0.50400000000E-02 0.  1.
         -1   -1    0    0    0  501 -0.00000000000E+00 -0.00000000000E+00 -0.18775029173E+03  0.18775029180E+03  0.50400000000E-02 0. -1.
   -5000001    1    1    2    0    0 -0.27789061049E+02  0.27362339677E+03  0.88604464889E+03  0.96084187825E+03  0.25000000000E+03 0.  0.
    5000001    1    1    2    0    0  0.27789061049E+02 -0.27362339677E+03  0.79346451064E+02  0.38004980525E+03  0.25000000000E+03 0.  0.
<mgrwt>
<rscale>  0 0.93059687E+03</rscale>
<asrwt>0</asrwt>
<pdfrwt beam="1">  1        1 0.17740637E+00 0.93059687E+03</pdfrwt>
<pdfrwt beam="2">  1       -1 0.28884660E-01 0.93059687E+03</pdfrwt>
<totfact> 0.12680243E+02</totfact>
</mgrwt>
</event>
<event>
 4    1  0.4305113E-006  0.6445632E+03  0.7818608E-02  0.9817035E-01
         -1   -1    0    0    0  501 -0.00000000000E+00  0.00000000000E+00  0.18368674391E+03  0.18368674398E+03  0.50400000000E-02 0. -1.
          1   -1    0    0  501    0  0.00000000000E+00 -0.00000000000E+00 -0.56544874381E+03  0.56544874383E+03  0.50400000000E-02 0.  1.
   -5000001    1    1    2    0    0 -0.15764857256E+03  0.78784115018E+02 -0.72895702401E+02  0.31444203383E+03  0.25000000000E+03 0.  0.
    5000001    1    1    2    0    0  0.15764857256E+03 -0.78784115018E+02 -0.30886629750E+03  0.43469345399E+03  0.25000000000E+03 0.  0.
<mgrwt>
<rscale>  0 0.64456323E+03</rscale>
<asrwt>0</asrwt>
<pdfrwt beam="1">  1        1 0.86992114E-01 0.64456323E+03</pdfrwt>
<pdfrwt beam="2">  1       -1 0.28259499E-01 0.64456323E+03</pdfrwt>
<totfact> 0.42718969E+02</totfact>
</mgrwt>
</event>
<event>
 4    1  0.4305113E-006  0.8650659E+03  0.7818608E-02  0.9470336E-01
          1   -1    0    0  501    0  0.00000000000E+00  0.00000000000E+00  0.74815720387E+03  0.74815720388E+03  0.50400000000E-02 0.  1.
         -1   -1    0    0    0  501 -0.00000000000E+00 -0.00000000000E+00 -0.25006077870E+03  0.25006077875E+03  0.50400000000E-02 0. -1.
   -5000001    1    1    2    0    0 -0.34998948966E+03  0.23004953779E+02  0.29466682603E+03  0.52187202371E+03  0.25000000000E+03 0.  0.
    5000001    1    1    2    0    0  0.34998948966E+03 -0.23004953779E+02  0.20342959914E+03  0.47634595892E+03  0.25000000000E+03 0.  0.
<mgrwt>
<rscale>  0 0.86506595E+03</rscale>
<asrwt>0</asrwt>
<pdfrwt beam="1">  1        1 0.11510111E+00 0.86506595E+03</pdfrwt>
<pdfrwt beam="2">  1       -1 0.38470890E-01 0.86506595E+03</pdfrwt>
<totfact> 0.16211721E+02</totfact>
</mgrwt>
</event>
<event>
 4    1  0.4305113E-006  0.6135988E+03  0.7818608E-02  0.9877588E-01
          1   -1    0    0  501    0  0.00000000000E+00  0.00000000000E+00  0.66152929197E+02  0.66152929389E+02  0.50400000000E-02 0.  1.
         -1   -1    0    0    0  501 -0.00000000000E+00 -0.00000000000E+00 -0.14228526545E+04  0.14228526545E+04  0.50400000000E-02 0. -1.
   -5000001    1    1    2    0    0  0.16177775488E+03  0.48698442990E+02 -0.54362472777E+03  0.62174868313E+03  0.25000000000E+03 0.  0.
    5000001    1    1    2    0    0 -0.16177775488E+03 -0.48698442990E+02 -0.81307499753E+03  0.86725690077E+03  0.25000000000E+03 0.  0.
<mgrwt>
<rscale>  0 0.61359880E+03</rscale>
<asrwt>0</asrwt>
<pdfrwt beam="1">  1        1 0.10177375E-01 0.61359880E+03</pdfrwt>
<pdfrwt beam="2">  1       -1 0.21890039E+00 0.61359880E+03</pdfrwt>
<totfact> 0.75908749E+01</totfact>
</mgrwt>
</event>
<event>
 4    1  0.4305113E-006  0.7105336E+03  0.7818608E-02  0.9699386E-01
         -1   -1    0    0    0  501 -0.00000000000E+00  0.00000000000E+00  0.40092248305E+03  0.40092248308E+03  0.50400000000E-02 0.  1.
          1   -1    0    0  501    0  0.00000000000E+00 -0.00000000000E+00 -0.31481026598E+03  0.31481026602E+03  0.50400000000E-02 0. -1.
   -5000001    1    1    2    0    0  0.17441893089E+03 -0.73334909659E+02  0.21135509139E+03  0.37811499188E+03  0.25000000000E+03 0.  0.
    5000001    1    1    2    0    0 -0.17441893089E+03  0.73334909659E+02 -0.12524287432E+03  0.33761775723E+03  0.25000000000E+03 0.  0.
<mgrwt>
<rscale>  0 0.71053364E+03</rscale>
<asrwt>0</asrwt>
<pdfrwt beam="1">  1        1 0.48432349E-01 0.71053364E+03</pdfrwt>
<pdfrwt beam="2">  1       -1 0.61680382E-01 0.71053364E+03</pdfrwt>
<totfact> 0.22257601E+02</totfact>
</mgrwt>
</event>
<event>
 4    1  0.4305113E-006  0.8455335E+03  0.7818608E-02  0.9496351E-01
          1   -1    0    0  501    0  0.00000000000E+00  0.00000000000E+00  0.17232068725E+03  0.17232068732E+03  0.50400000000E-02 0.  1.
         -1   -1    0    0    0  501 -0.00000000000E+00 -0.00000000000E+00 -0.10372042281E+04  0.10372042281E+04  0.50400000000E-02 0. -1.
   -5000001    1    1    2    0    0  0.56002438543E+02 -0.32748569433E+03 -0.54183983795E+03  0.68298869910E+03  0.25000000000E+03 0.  0.
    5000001    1    1    2    0    0 -0.56002438543E+02  0.32748569433E+03 -0.32304370288E+03  0.52653621630E+03  0.25000000000E+03 0.  0.
<mgrwt>
<rscale>  0 0.84553355E+03</rscale>
<asrwt>0</asrwt>
<pdfrwt beam="1">  1        1 0.26510876E-01 0.84553355E+03</pdfrwt>
<pdfrwt beam="2">  1       -1 0.15956988E+00 0.84553355E+03</pdfrwt>
<totfact> 0.53902515E+01</totfact>
</mgrwt>
</event>
<event>
 4    1  0.4305113E-006  0.6600337E+03  0.7818608E-02  0.9788132E-01
         -1   -1    0    0    0  501 -0.00000000000E+00  0.00000000000E+00  0.16397180923E+03  0.16397180930E+03  0.50400000000E-02 0. -1.
          1   -1    0    0  501    0  0.00000000000E+00 -0.00000000000E+00 -0.66420630296E+03  0.66420630298E+03  0.50400000000E-02 0.  1.
   -5000001    1    1    2    0    0 -0.72647118971E+02 -0.10469638202E+03 -0.46806929588E+03  0.54573601865E+03  0.25000000000E+03 0.  0.
    5000001    1    1    2    0    0  0.72647118971E+02  0.10469638202E+03 -0.32165197854E+02  0.28244209363E+03  0.25000000000E+03 0.  0.
<mgrwt>
<rscale>  0 0.66003366E+03</rscale>
<asrwt>0</asrwt>
<pdfrwt beam="1">  1        1 0.10218558E+00 0.66003366E+03</pdfrwt>
<pdfrwt beam="2">  1       -1 0.25226433E-01 0.66003366E+03</pdfrwt>
<totfact> 0.41116903E+02</totfact>
</mgrwt>
</event>
<event>
 4    1  0.4305113E-006  0.6257243E+03  0.7818608E-02  0.9853428E-01
          1   -1    0    0  501    0  0.00000000000E+00  0.00000000000E+00  0.24329018700E+03  0.24329018706E+03  0.50400000000E-02 0.  1.
         -1   -1    0    0    0  501 -0.00000000000E+00 -0.00000000000E+00 -0.40232906803E+03  0.40232906806E+03  0.50400000000E-02 0. -1.
   -5000001    1    1    2    0    0 -0.14380575860E+03  0.12045236965E+03 -0.93884929116E+02  0.32634835602E+03  0.25000000000E+03 0.  0.
    5000001    1    1    2    0    0  0.14380575860E+03 -0.12045236965E+03 -0.65153951909E+02  0.31927089910E+03  0.25000000000E+03 0.  0.
<mgrwt>
<rscale>  0 0.62572427E+03</rscale>
<asrwt>0</asrwt>
<pdfrwt beam="1">  1        1 0.37429259E-01 0.62572427E+03</pdfrwt>
<pdfrwt beam="2">  1       -1 0.61896780E-01 0.62572427E+03</pdfrwt>
<totfact> 0.30941785E+02</totfact>
</mgrwt>
</event>
<event>
 4    1  0.4305113E-006  0.9399306E+03  0.7818608E-02  0.9376998E-01
         -1   -1    0    0    0  501 -0.00000000000E+00  0.00000000000E+00  0.25071615915E+03  0.25071615921E+03  0.50400000000E-02 0. -1.
          1   -1    0    0  501    0  0.00000000000E+00 -0.00000000000E+00 -0.88094585964E+03  0.88094585966E+03  0.50400000000E-02 0.  1.
   -5000001    1    1    2    0    0 -0.15734850433E+03  0.36443406560E+03 -0.34909671679E+03  0.58475572478E+03  0.25000000000E+03 0.  0.
    5000001    1    1    2    0    0  0.15734850433E+03 -0.36443406560E+03 -0.28113298369E+03  0.54690629408E+03  0.25000000000E+03 0.  0.
<mgrwt>
<rscale>  0 0.93993056E+03</rscale>
<asrwt>0</asrwt>
<pdfrwt beam="1">  1        1 0.13553013E+00 0.93993056E+03</pdfrwt>
<pdfrwt beam="2">  1       -1 0.38571717E-01 0.93993056E+03</pdfrwt>
<totfact> 0.12339987E+02</totfact>
</mgrwt>
</event>
<event>
 4    1  0.4305113E-006  0.7185827E+03  0.7818608E-02  0.9685971E-01
         -1   -1    0    0    0  501 -0.00000000000E+00  0.00000000000E+00  0.15153446916E+03  0.15153446924E+03  0.50400000000E-02 0.  1.
          1   -1    0    0  501    0  0.00000000000E+00 -0.00000000000E+00 -0.85188721998E+03  0.85188721999E+03  0.50400000000E-02 0. -1.
   -5000001    1    1    2    0    0 -0.21041025559E+03 -0.14923173830E+03 -0.34053315901E+03  0.49498022158E+03  0.25000000000E+03 0.  0.
    5000001    1    1    2    0    0  0.21041025559E+03  0.14923173830E+03 -0.35981959181E+03  0.50844146765E+03  0.25000000000E+03 0.  0.
<mgrwt>
<rscale>  0 0.71858271E+03</rscale>
<asrwt>0</asrwt>
<pdfrwt beam="1">  1        1 0.13105957E+00 0.71858271E+03</pdfrwt>
<pdfrwt beam="2">  1       -1 0.23312996E-01 0.71858271E+03</pdfrwt>
<totfact> 0.31849168E+02</totfact>
</mgrwt>
</event>
<event>
 4    1  0.4305113E-006  0.9564890E+03  0.7818608E-02  0.9357598E-01
         -1   -1    0    0    0  501 -0.00000000000E+00  0.00000000000E+00  0.57726576074E+03  0.57726576076E+03  0.50400000000E-02 0. -1.
          1   -1    0    0  501    0  0.00000000000E+00 -0.00000000000E+00 -0.39620884473E+03  0.39620884476E+03  0.50400000000E-02 0.  1.
   -5000001    1    1    2    0    0 -0.17130403132E+03 -0.17875192294E+03 -0.23913801442E+03  0.42542250885E+03  0.25000000000E+03 0.  0.
    5000001    1    1    2    0    0  0.17130403132E+03  0.17875192294E+03  0.42019493043E+03  0.54805209667E+03  0.25000000000E+03 0.  0.
<mgrwt>
<rscale>  0 0.95648900E+03</rscale>
<asrwt>0</asrwt>
<pdfrwt beam="1">  1        1 0.60955207E-01 0.95648900E+03</pdfrwt>
<pdfrwt beam="2">  1       -1 0.88810117E-01 0.95648900E+03</pdfrwt>
<totfact> 0.76015111E+01</totfact>
</mgrwt>
</event>
<event>
 4    1  0.4305113E-006  0.8116550E+03  0.7818608E-02  0.9543298E-01
         -1   -1    0    0    0  501 -0.00000000000E+00  0.00000000000E+00  0.22991930353E+03  0.22991930359E+03  0.50400000000E-02 0. -1.
          1   -1    0    0  501    0  0.00000000000E+00 -0.00000000000E+00 -0.71632079319E+03  0.71632079320E+03  0.50400000000E-02 0.  1.
   -5000001    1    1    2    0    0  0.22973271992E+03 -0.14686996829E+03 -0.43774902152E+03  0.57312486949E+03  0.25000000000E+03 0.  0.
    5000001    1    1    2    0    0 -0.22973271992E+03  0.14686996829E+03 -0.48652468134E+02  0.37311522730E+03  0.25000000000E+03 0.  0.
<mgrwt>
<rscale>  0 0.81165504E+03</rscale>
<asrwt>0</asrwt>
<pdfrwt beam="1">  1        1 0.11020320E+00 0.81165504E+03</pdfrwt>
<pdfrwt beam="2">  1       -1 0.35372201E-01 0.81165504E+03</pdfrwt>
<totfact> 0.20220008E+02</totfact>
</mgrwt>
</event>
<event>
 4    1  0.4305113E-006  0.6635753E+03  0.7818608E-02  0.9781634E-01
          1   -1    0    0  501    0  0.00000000000E+00  0.00000000000E+00  0.87275735478E+03  0.87275735480E+03  0.50400000000E-02 0.  1.
         -1   -1    0    0    0  501 -0.00000000000E+00 -0.00000000000E+00 -0.12613247159E+03  0.12613247169E+03  0.50400000000E-02 0. -1.
   -5000001    1    1    2    0    0  0.18527617007E+03  0.44092784402E+02  0.21321308586E+03  0.37977789932E+03  0.25000000000E+03 0.  0.
    5000001    1    1    2    0    0 -0.18527617007E+03 -0.44092784402E+02  0.53341179734E+03  0.61911192717E+03  0.25000000000E+03 0.  0.
<mgrwt>
<rscale>  0 0.66357529E+03</rscale>
<asrwt>0</asrwt>
<pdfrwt beam="1">  1        1 0.13427036E+00 0.66357529E+03</pdfrwt>
<pdfrwt beam="2">  1       -1 0.19404996E-01 0.66357529E+03</pdfrwt>
<totfact> 0.41719573E+02</totfact>
</mgrwt>
</event>
<event>
 4    1  0.4305113E-006  0.9797530E+03  0.7818608E-02  0.9331034E-01
          1   -1    0    0  501    0  0.00000000000E+00  0.00000000000E+00  0.27489729405E+03  0.27489729410E+03  0.50400000000E-02 0.  1.
         -1   -1    0    0    0  501 -0.00000000000E+00 -0.00000000000E+00 -0.87297682636E+03  0.87297682638E+03  0.50400000000E-02 0. -1.
   -5000001    1    1    2    0    0 -0.24338962147E+03  0.27587951329E+03 -0.58560120244E+02  0.44863938901E+03  0.25000000000E+03 0.  0.
    5000001    1    1    2    0    0  0.24338962147E+03 -0.27587951329E+03 -0.53951941206E+03  0.69923473146E+03  0.25000000000E+03 0.  0.
<mgrwt>
<rscale>  0 0.97975296E+03</rscale>
<asrwt>0</asrwt>
<pdfrwt beam="1">  1        1 0.42291892E-01 0.97975296E+03</pdfrwt>
<pdfrwt beam="2">  1       -1 0.13430413E+00 0.97975296E+03</pdfrwt>
<totfact> 0.46058604E+01</totfact>
</mgrwt>
</event>
<event>
 4    1  0.4305113E-006  0.7733009E+03  0.7818608E-02  0.9599488E-01
          1   -1    0    0  501    0  0.00000000000E+00  0.00000000000E+00  0.19660211997E+03  0.19660212003E+03  0.50400000000E-02 0.  1.
         -1   -1    0    0    0  501 -0.00000000000E+00 -0.00000000000E+00 -0.76041173583E+03  0.76041173585E+03  0.50400000000E-02 0. -1.
   -5000001    1    1    2    0    0 -0.46219134143E+02 -0.26880562413E+03 -0.42085413199E+03  0.56036673022E+03  0.25000000000E+03 0.  0.
    5000001    1    1    2    0    0  0.46219134143E+02  0.26880562413E+03 -0.14295548387E+03  0.39664712566E+03  0.25000000000E+03 0.  0.
<mgrwt>
<rscale>  0 0.77330087E+03</rscale>
<asrwt>0</asrwt>
<pdfrwt beam="1">  1        1 0.30246480E-01 0.77330087E+03</pdfrwt>
<pdfrwt beam="2">  1       -1 0.11698642E+00 0.77330087E+03</pdfrwt>
<totfact> 0.10161989E+02</totfact>
</mgrwt>
</event>
<event>
 4    1  0.4305113E-006  0.7485690E+03  0.7818608E-02  0.9637598E-01
         -1   -1    0    0    0  501 -0.00000000000E+00  0.00000000000E+00  0.32170692951E+03  0.32170692955E+03  0.50400000000E-02 0. -1.
          1   -1    0    0  501    0  0.00000000000E+00 -0.00000000000E+00 -0.43545500099E+03  0.43545500102E+03  0.50400000000E-02 0.  1.
   -5000001    1    1    2    0    0  0.25071491162E+03  0.12137089341E+03 -0.57051138204E+02  0.37860757130E+03  0.25000000000E+03 0.  0.
    5000001    1    1    2    0    0 -0.25071491162E+03 -0.12137089341E+03 -0.56696933281E+02  0.37855435927E+03  0.25000000000E+03 0.  0.
<mgrwt>
<rscale>  0 0.74856901E+03</rscale>
<asrwt>0</asrwt>
<pdfrwt beam="1">  1        1 0.66993077E-01 0.74856901E+03</pdfrwt>
<pdfrwt beam="2">  1       -1 0.49493374E-01 0.74856901E+03</pdfrwt>
<totfact> 0.22190224E+02</totfact>
</mgrwt>
</event>
<event>
 4    1  0.4305113E-006  0.5196379E+03  0.7818608E-02  0.1008777E+00
          1   -1    0    0  501    0  0.00000000000E+00  0.00000000000E+00  0.78231090092E+03  0.78231090094E+03  0.50400000000E-02 0.  1.
         -1   -1    0    0    0  501 -0.00000000000E+00 -0.00000000000E+00 -0.86290347200E+02  0.86290347347E+02  0.50400000000E-02 0. -1.
   -5000001    1    1    2    0    0  0.27681525475E+01  0.53101816394E+02  0.26999317028E+03  0.37178458490E+03  0.25000000000E+03 0.  0.
    5000001    1    1    2    0    0 -0.27681525475E+01 -0.53101816394E+02  0.42602738344E+03  0.49681666338E+03  0.25000000000E+03 0.  0.
<mgrwt>
<rscale>  0 0.51963787E+03</rscale>
<asrwt>0</asrwt>
<pdfrwt beam="1">  1        1 0.12035553E+00 0.51963787E+03</pdfrwt>
<pdfrwt beam="2">  1       -1 0.13275437E-01 0.51963787E+03</pdfrwt>
<totfact> 0.92776517E+02</totfact>
</mgrwt>
</event>
<event>
 4    1  0.4305113E-006  0.5429648E+03  0.7818608E-02  0.1003136E+00
         -1   -1    0    0    0  501 -0.00000000000E+00  0.00000000000E+00  0.32111604123E+02  0.32111604518E+02  0.50400000000E-02 0.  1.
          1   -1    0    0  501    0  0.00000000000E+00 -0.00000000000E+00 -0.22952045051E+04  0.22952045051E+04  0.50400000000E-02 0. -1.
   -5000001    1    1    2    0    0 -0.14934300107E+02 -0.52450795959E+02 -0.74272866575E+03  0.78556985065E+03  0.25000000000E+03 0.  0.
    5000001    1    1    2    0    0  0.14934300107E+02  0.52450795959E+02 -0.15203642353E+04  0.15417462590E+04  0.25000000000E+03 0.  0.
<mgrwt>
<rscale>  0 0.54296482E+03</rscale>
<asrwt>0</asrwt>
<pdfrwt beam="1">  1        1 0.35310826E+00 0.54296482E+03</pdfrwt>
<pdfrwt beam="2">  1       -1 0.49402486E-02 0.54296482E+03</pdfrwt>
<totfact> 0.37442754E+02</totfact>
</mgrwt>
</event>
<event>
 4    1  0.4305113E-006  0.6799379E+03  0.7818608E-02  0.9752170E-01
         -1   -1    0    0    0  501 -0.00000000000E+00  0.00000000000E+00  0.10038195022E+03  0.10038195035E+03  0.50400000000E-02 0. -1.
          1   -1    0    0  501    0  0.00000000000E+00 -0.00000000000E+00 -0.11513910314E+04  0.11513910314E+04  0.50400000000E-02 0.  1.
   -5000001    1    1    2    0    0 -0.20377355688E+03  0.18845460452E+02 -0.72033936441E+03  0.78947299750E+03  0.25000000000E+03 0.  0.
    5000001    1    1    2    0    0  0.20377355688E+03 -0.18845460452E+02 -0.33066971676E+03  0.46229998426E+03  0.25000000000E+03 0.  0.
<mgrwt>
<rscale>  0 0.67993787E+03</rscale>
<asrwt>0</asrwt>
<pdfrwt beam="1">  1        1 0.17713707E+00 0.67993787E+03</pdfrwt>
<pdfrwt beam="2">  1       -1 0.15443378E-01 0.67993787E+03</pdfrwt>
<totfact> 0.36962801E+02</totfact>
</mgrwt>
</event>
<event>
 4    1  0.4305113E-006  0.5529401E+03  0.7818608E-02  0.1000816E+00
          1   -1    0    0  501    0  0.00000000000E+00  0.00000000000E+00  0.13044290384E+03  0.13044290393E+03  0.50400000000E-02 0.  1.
         -1   -1    0    0    0  501 -0.00000000000E+00 -0.00000000000E+00 -0.58597036647E+03  0.58597036649E+03  0.50400000000E-02 0. -1.
   -5000001    1    1    2    0    0 -0.65197786681E+02 -0.97937405740E+02 -0.24027118123E+03  0.36615942889E+03  0.25000000000E+03 0.  0.
    5000001    1    1    2    0    0  0.65197786681E+02  0.97937405740E+02 -0.21525628140E+03  0.35025384154E+03  0.25000000000E+03 0.  0.
<mgrwt>
<rscale>  0 0.55294006E+03</rscale>
<asrwt>0</asrwt>
<pdfrwt beam="1">  1        1 0.20068139E-01 0.55294006E+03</pdfrwt>
<pdfrwt beam="2">  1       -1 0.90149285E-01 0.55294006E+03</pdfrwt>
<totfact> 0.31942166E+02</totfact>
</mgrwt>
</event>
<event>
 4    1  0.4305113E-006  0.5891931E+03  0.7818608E-02  0.9928084E-01
         -1   -1    0    0    0  501 -0.00000000000E+00  0.00000000000E+00  0.91619619688E+03  0.91619619689E+03  0.50400000000E-02 0. -1.
          1   -1    0    0  501    0  0.00000000000E+00 -0.00000000000E+00 -0.94725477363E+02  0.94725477497E+02  0.50400000000E-02 0.  1.
   -5000001    1    1    2    0    0 -0.14518291575E+03 -0.49686647954E+02  0.36405244901E+03  0.46752649940E+03  0.25000000000E+03 0.  0.
    5000001    1    1    2    0    0  0.14518291575E+03  0.49686647954E+02  0.45741827051E+03  0.54339517499E+03  0.25000000000E+03 0.  0.
<mgrwt>
<rscale>  0 0.58919308E+03</rscale>
<asrwt>0</asrwt>
<pdfrwt beam="1">  1        1 0.14573150E-01 0.58919308E+03</pdfrwt>
<pdfrwt beam="2">  1       -1 0.14095326E+00 0.58919308E+03</pdfrwt>
<totfact> 0.16889454E+02</totfact>
</mgrwt>
</event>
<event>
 4    1  0.4305113E-006  0.8060869E+03  0.7818608E-02  0.9551248E-01
          1   -1    0    0  501    0  0.00000000000E+00  0.00000000000E+00  0.80620673171E+03  0.80620673173E+03  0.50400000000E-02 0.  1.
         -1   -1    0    0    0  501 -0.00000000000E+00 -0.00000000000E+00 -0.20149177792E+03  0.20149177798E+03  0.50400000000E-02 0. -1.
   -5000001    1    1    2    0    0 -0.74812236304E+02  0.14186851991E+03  0.64293079907E+03  0.70822564203E+03  0.25000000000E+03 0.  0.
    5000001    1    1    2    0    0  0.74812236304E+02 -0.14186851991E+03 -0.38215845277E+02  0.29947286767E+03  0.25000000000E+03 0.  0.
<mgrwt>
<rscale>  0 0.80608691E+03</rscale>
<asrwt>0</asrwt>
<pdfrwt beam="1">  1        1 0.12403180E+00 0.80608691E+03</pdfrwt>
<pdfrwt beam="2">  1       -1 0.30998735E-01 0.80608691E+03</pdfrwt>
<totfact> 0.21232941E+02</totfact>
</mgrwt>
</event>
<event>
 4    1  0.4305113E-006  0.1272191E+04  0.7818608E-02  0.9051913E-01
         -1   -1    0    0    0  501 -0.00000000000E+00  0.00000000000E+00  0.69537634308E+03  0.69537634310E+03  0.50400000000E-02 0. -1.
          1   -1    0    0  501    0  0.00000000000E+00 -0.00000000000E+00 -0.58186861349E+03  0.58186861351E+03  0.50400000000E-02 0.  1.
   -5000001    1    1    2    0    0  0.50950697987E+03 -0.28665549994E+03  0.37999981482E+02  0.63695583581E+03  0.25000000000E+03 0.  0.
    5000001    1    1    2    0    0 -0.50950697987E+03  0.28665549994E+03  0.75507748105E+02  0.64028912079E+03  0.25000000000E+03 0.  0.
<mgrwt>
<rscale>  0 0.12721913E+04</rscale>
<asrwt>0</asrwt>
<pdfrwt beam="1">  1        1 0.89518248E-01 0.12721913E+04</pdfrwt>
<pdfrwt beam="2">  1       -1 0.10698098E+00 0.12721913E+04</pdfrwt>
<totfact> 0.28736746E+01</totfact>
</mgrwt>
</event>
<event>
 4    1  0.4305113E-006  0.5939148E+03  0.7818608E-02  0.9918112E-01
          1   -1    0    0  501    0  0.00000000000E+00  0.00000000000E+00  0.50864243075E+03  0.50864243077E+03  0.50400000000E-02 0.  1.
         -1   -1    0    0    0  501 -0.00000000000E+00 -0.00000000000E+00 -0.17337069962E+03  0.17337069970E+03  0.50400000000E-02 0. -1.
   -5000001    1    1    2    0    0  0.13688106750E+03 -0.71195860062E+02  0.21740551697E+03  0.36547289358E+03  0.25000000000E+03 0.  0.
    5000001    1    1    2    0    0 -0.13688106750E+03  0.71195860062E+02  0.11786621415E+03  0.31654023689E+03  0.25000000000E+03 0.  0.
<mgrwt>
<rscale>  0 0.59391479E+03</rscale>
<asrwt>0</asrwt>
<pdfrwt beam="1">  1        1 0.78252679E-01 0.59391479E+03</pdfrwt>
<pdfrwt beam="2">  1       -1 0.26672416E-01 0.59391479E+03</pdfrwt>
<totfact> 0.54747576E+02</totfact>
</mgrwt>
</event>
<event>
 4    1  0.4305113E-006  0.1410198E+04  0.7818608E-02  0.8946469E-01
         -1   -1    0    0    0  501 -0.00000000000E+00  0.00000000000E+00  0.33737094190E+03  0.33737094194E+03  0.50400000000E-02 0. -1.
          1   -1    0    0  501    0  0.00000000000E+00 -0.00000000000E+00 -0.14736444828E+04  0.14736444828E+04  0.50400000000E-02 0.  1.
   -5000001    1    1    2    0    0 -0.33803522257E+03  0.56536563143E+03 -0.60351061380E+03  0.92770209112E+03  0.25000000000E+03 0.  0.
    5000001    1    1    2    0    0  0.33803522257E+03 -0.56536563143E+03 -0.53276292711E+03  0.88331333365E+03  0.25000000000E+03 0.  0.
<mgrwt>
<rscale>  0 0.14101983E+04</rscale>
<asrwt>0</asrwt>
<pdfrwt beam="1">  1        1 0.22671453E+00 0.14101983E+04</pdfrwt>
<pdfrwt beam="2">  1       -1 0.51903223E-01 0.14101983E+04</pdfrwt>
<totfact> 0.24840966E+01</totfact>
</mgrwt>
</event>
<event>
 4    1  0.4305113E-006  0.8255235E+03  0.7818608E-02  0.9523790E-01
         -1   -1    0    0    0  501 -0.00000000000E+00  0.00000000000E+00  0.19880154475E+03  0.19880154481E+03  0.50400000000E-02 0. -1.
          1   -1    0    0  501    0  0.00000000000E+00 -0.00000000000E+00 -0.85699659587E+03  0.85699659589E+03  0.50400000000E-02 0.  1.
   -5000001    1    1    2    0    0 -0.23028990800E+03 -0.31130000607E+02 -0.62593851101E+03  0.71295269003E+03  0.25000000000E+03 0.  0.
    5000001    1    1    2    0    0  0.23028990800E+03  0.31130000607E+02 -0.32256540113E+02  0.34284545067E+03  0.25000000000E+03 0.  0.
<mgrwt>
<rscale>  0 0.82552346E+03</rscale>
<asrwt>0</asrwt>
<pdfrwt beam="1">  1        1 0.13184563E+00 0.82552346E+03</pdfrwt>
<pdfrwt beam="2">  1       -1 0.30584854E-01 0.82552346E+03</pdfrwt>
<totfact> 0.19661166E+02</totfact>
</mgrwt>
</event>
<event>
 4    1  0.4305113E-006  0.5768429E+03  0.7818608E-02  0.9954650E-01
          1   -1    0    0  501    0  0.00000000000E+00  0.00000000000E+00  0.54819408238E+02  0.54819408470E+02  0.50400000000E-02 0.  1.
         -1   -1    0    0    0  501 -0.00000000000E+00 -0.00000000000E+00 -0.15174724269E+04  0.15174724269E+04  0.50400000000E-02 0. -1.
   -5000001    1    1    2    0    0 -0.66357082978E+01  0.75342374536E+02 -0.10647796127E+04  0.10963467196E+04  0.25000000000E+03 0.  0.
    5000001    1    1    2    0    0  0.66357082978E+01 -0.75342374536E+02 -0.39787340593E+03  0.47594511571E+03  0.25000000000E+03 0.  0.
<mgrwt>
<rscale>  0 0.57684293E+03</rscale>
<asrwt>0</asrwt>
<pdfrwt beam="1">  1        1 0.84337563E-02 0.57684293E+03</pdfrwt>
<pdfrwt beam="2">  1       -1 0.23345726E+00 0.57684293E+03</pdfrwt>
<totfact> 0.79215692E+01</totfact>
</mgrwt>
</event>
<event>
 4    1  0.4305113E-006  0.1245724E+04  0.7818608E-02  0.9073750E-01
         -1   -1    0    0    0  501 -0.00000000000E+00  0.00000000000E+00  0.22907577717E+03  0.22907577723E+03  0.50400000000E-02 0. -1.
          1   -1    0    0  501    0  0.00000000000E+00 -0.00000000000E+00 -0.16935739159E+04  0.16935739159E+04  0.50400000000E-02 0.  1.
   -5000001    1    1    2    0    0  0.46848197382E+03  0.30328382987E+03 -0.91486870952E+03  0.11004277336E+04  0.25000000000E+03 0.  0.
    5000001    1    1    2    0    0 -0.46848197382E+03 -0.30328382987E+03 -0.54962942916E+03  0.82222195948E+03  0.25000000000E+03 0.  0.
<mgrwt>
<rscale>  0 0.12457235E+04</rscale>
<asrwt>0</asrwt>
<pdfrwt beam="1">  1        1 0.26054983E+00 0.12457235E+04</pdfrwt>
<pdfrwt beam="2">  1       -1 0.35242428E-01 0.12457235E+04</pdfrwt>
<totfact> 0.36407557E+01</totfact>
</mgrwt>
</event>
<event>
 4    1  0.4305113E-006  0.5537851E+03  0.7818608E-02  0.1000622E+00
         -1   -1    0    0    0  501 -0.00000000000E+00  0.00000000000E+00  0.14122733403E+03  0.14122733412E+03  0.50400000000E-02 0. -1.
          1   -1    0    0  501    0  0.00000000000E+00 -0.00000000000E+00 -0.54287989841E+03  0.54287989844E+03  0.50400000000E-02 0.  1.
   -5000001    1    1    2    0    0 -0.41859662664E+02  0.91589590708E+02 -0.27923417820E+03  0.38808840586E+03  0.25000000000E+03 0.  0.
    5000001    1    1    2    0    0  0.41859662664E+02 -0.91589590708E+02 -0.12241838618E+03  0.29601882670E+03  0.25000000000E+03 0.  0.
<mgrwt>
<rscale>  0 0.55378509E+03</rscale>
<asrwt>0</asrwt>
<pdfrwt beam="1">  1        1 0.83519984E-01 0.55378509E+03</pdfrwt>
<pdfrwt beam="2">  1       -1 0.21727282E-01 0.55378509E+03</pdfrwt>
<totfact> 0.70834592E+02</totfact>
</mgrwt>
</event>
<event>
 4    1  0.4305113E-006  0.1071535E+04  0.7818608E-02  0.9233389E-01
          1   -1    0    0  501    0  0.00000000000E+00  0.00000000000E+00  0.53361795884E+03  0.53361795886E+03  0.50400000000E-02 0.  1.
         -1   -1    0    0    0  501 -0.00000000000E+00 -0.00000000000E+00 -0.53792575234E+03  0.53792575237E+03  0.50400000000E-02 0. -1.
   -5000001    1    1    2    0    0  0.38662549559E+03  0.29013670016E+02 -0.27460017541E+03  0.53686713740E+03  0.25000000000E+03 0.  0.
    5000001    1    1    2    0    0 -0.38662549559E+03 -0.29013670016E+02  0.27029238190E+03  0.53467657383E+03  0.25000000000E+03 0.  0.
<mgrwt>
<rscale>  0 0.10715351E+04</rscale>
<asrwt>0</asrwt>
<pdfrwt beam="1">  1        1 0.82095070E-01 0.10715351E+04</pdfrwt>
<pdfrwt beam="2">  1       -1 0.82757808E-01 0.10715351E+04</pdfrwt>
<totfact> 0.58654716E+01</totfact>
</mgrwt>
</event>
<event>
 4    1  0.4305113E-006  0.9597362E+03  0.7818608E-02  0.9353842E-01
         -1   -1    0    0    0  501 -0.00000000000E+00  0.00000000000E+00  0.29634458749E+03  0.29634458754E+03  0.50400000000E-02 0. -1.
          1   -1    0    0  501    0  0.00000000000E+00 -0.00000000000E+00 -0.77704609249E+03  0.77704609250E+03  0.50400000000E-02 0.  1.
   -5000001    1    1    2    0    0  0.18994785537E+03 -0.34892478369E+03 -0.35188340349E+03  0.58664352215E+03  0.25000000000E+03 0.  0.
    5000001    1    1    2    0    0 -0.18994785537E+03  0.34892478369E+03 -0.12881810150E+03  0.48674715788E+03  0.25000000000E+03 0.  0.
<mgrwt>
<rscale>  0 0.95973622E+03</rscale>
<asrwt>0</asrwt>
<pdfrwt beam="1">  1        1 0.11954555E+00 0.95973622E+03</pdfrwt>
<pdfrwt beam="2">  1       -1 0.45591475E-01 0.95973622E+03</pdfrwt>
<totfact> 0.11116482E+02</totfact>
</mgrwt>
</event>
<event>
 4    1  0.4305113E-006  0.6354161E+03  0.7818608E-02  0.9834536E-01
          1   -1    0    0  501    0  0.00000000000E+00  0.00000000000E+00  0.14395915515E+04  0.14395915515E+04  0.50400000000E-02 0.  1.
         -1   -1    0    0    0  501 -0.00000000000E+00 -0.00000000000E+00 -0.70115999263E+02  0.70115999445E+02  0.50400000000E-02 0. -1.
   -5000001    1    1    2    0    0 -0.44783157610E+01 -0.17954239317E+03  0.87156055275E+03  0.92432317042E+03  0.25000000000E+03 0.  0.
    5000001    1    1    2    0    0  0.44783157610E+01  0.17954239317E+03  0.49791499945E+03  0.58538438051E+03  0.25000000000E+03 0.  0.
<mgrwt>
<rscale>  0 0.63541609E+03</rscale>
<asrwt>0</asrwt>
<pdfrwt beam="1">  1        1 0.22147558E+00 0.63541609E+03</pdfrwt>
<pdfrwt beam="2">  1       -1 0.10787079E-01 0.63541609E+03</pdfrwt>
<totfact> 0.41263389E+02</totfact>
</mgrwt>
</event>
<event>
 4    1  0.4305113E-006  0.6155929E+03  0.7818608E-02  0.9873574E-01
          1   -1    0    0  501    0  0.00000000000E+00  0.00000000000E+00  0.28355220052E+03  0.28355220057E+03  0.50400000000E-02 0.  1.
         -1   -1    0    0    0  501 -0.00000000000E+00 -0.00000000000E+00 -0.33411360600E+03  0.33411360604E+03  0.50400000000E-02 0. -1.
   -5000001    1    1    2    0    0 -0.13301908227E+03 -0.10846605873E+03 -0.78180967896E+02  0.31316325756E+03  0.25000000000E+03 0.  0.
    5000001    1    1    2    0    0  0.13301908227E+03  0.10846605873E+03  0.27619562415E+02  0.30450254904E+03  0.25000000000E+03 0.  0.
<mgrwt>
<rscale>  0 0.61559288E+03</rscale>
<asrwt>0</asrwt>
<pdfrwt beam="1">  1        1 0.43623415E-01 0.61559288E+03</pdfrwt>
<pdfrwt beam="2">  1       -1 0.51402093E-01 0.61559288E+03</pdfrwt>
<totfact> 0.36412966E+02</totfact>
</mgrwt>
</event>
<event>
 4    1  0.4305113E-006  0.1088956E+04  0.7818608E-02  0.9216023E-01
         -1   -1    0    0    0  501 -0.00000000000E+00  0.00000000000E+00  0.18714689119E+03  0.18714689125E+03  0.50400000000E-02 0. -1.
          1   -1    0    0  501    0  0.00000000000E+00 -0.00000000000E+00 -0.15840840675E+04  0.15840840675E+04  0.50400000000E-02 0.  1.
   -5000001    1    1    2    0    0 -0.23245658661E+03 -0.14898789082E+02 -0.13879726775E+04  0.14294146326E+04  0.25000000000E+03 0.  0.
    5000001    1    1    2    0    0  0.23245658661E+03  0.14898789082E+02 -0.89644988515E+01  0.34181632614E+03  0.25000000000E+03 0.  0.
<mgrwt>
<rscale>  0 0.10889562E+04</rscale>
<asrwt>0</asrwt>
<pdfrwt beam="1">  1        1 0.24370523E+00 0.10889562E+04</pdfrwt>
<pdfrwt beam="2">  1       -1 0.28791830E-01 0.10889562E+04</pdfrwt>
<totfact> 0.62586266E+01</totfact>
</mgrwt>
</event>
<event>
 4    1  0.4305113E-006  0.1373673E+04  0.7818608E-02  0.8973099E-01
          1   -1    0    0  501    0  0.00000000000E+00  0.00000000000E+00  0.86832754506E+03  0.86832754507E+03  0.50400000000E-02 0.  1.
         -1   -1    0    0    0  501 -0.00000000000E+00 -0.00000000000E+00 -0.54327945680E+03  0.54327945682E+03  0.50400000000E-02 0. -1.
   -5000001    1    1    2    0    0 -0.21804342992E+03 -0.59060382359E+03  0.45860547184E+02  0.67893961702E+03  0.25000000000E+03 0.  0.
    5000001    1    1    2    0    0  0.21804342992E+03  0.59060382359E+03  0.27918754108E+03  0.73266738488E+03  0.25000000000E+03 0.  0.
<mgrwt>
<rscale>  0 0.13736732E+04</rscale>
<asrwt>0</asrwt>
<pdfrwt beam="1">  1        1 0.13358885E+00 0.13736732E+04</pdfrwt>
<pdfrwt beam="2">  1       -1 0.83581456E-01 0.13736732E+04</pdfrwt>
<totfact> 0.26826787E+01</totfact>
</mgrwt>
</event>
<event>
 4    1  0.4305113E-006  0.9022156E+03  0.7818608E-02  0.9422816E-01
         -1   -1    0    0    0  501 -0.00000000000E+00  0.00000000000E+00  0.28436840120E+03  0.28436840124E+03  0.50400000000E-02 0. -1.
          1   -1    0    0  501    0  0.00000000000E+00 -0.00000000000E+00 -0.71561478969E+03  0.71561478970E+03  0.50400000000E-02 0.  1.
   -5000001    1    1    2    0    0 -0.16025712687E+03  0.32480267126E+03 -0.10579382689E+03  0.45262728130E+03  0.25000000000E+03 0.  0.
    5000001    1    1    2    0    0  0.16025712687E+03 -0.32480267126E+03 -0.32545256160E+03  0.54735590964E+03  0.25000000000E+03 0.  0.
<mgrwt>
<rscale>  0 0.90221557E+03</rscale>
<asrwt>0</asrwt>
<pdfrwt beam="1">  1        1 0.11009458E+00 0.90221557E+03</pdfrwt>
<pdfrwt beam="2">  1       -1 0.43748985E-01 0.90221557E+03</pdfrwt>
<totfact> 0.13691227E+02</totfact>
</mgrwt>
</event>
<event>
 4    1  0.4305113E-006  0.7606986E+03  0.7818608E-02  0.9618714E-01
          1   -1    0    0  501    0  0.00000000000E+00  0.00000000000E+00  0.28287907301E+04  0.28287907301E+04  0.50400000000E-02 0.  1.
         -1   -1    0    0    0  501 -0.00000000000E+00 -0.00000000000E+00 -0.51140438597E+02  0.51140438846E+02  0.50400000000E-02 0. -1.
   -5000001    1    1    2    0    0  0.65696997321E+02  0.27845593450E+03  0.14556756683E+04  0.15044419078E+04  0.25000000000E+03 0.  0.
    5000001    1    1    2    0    0 -0.65696997321E+02 -0.27845593450E+03  0.13219746232E+04  0.13754892611E+04  0.25000000000E+03 0.  0.
<mgrwt>
<rscale>  0 0.76069862E+03</rscale>
<asrwt>0</asrwt>
<pdfrwt beam="1">  1        1 0.43519874E+00 0.76069862E+03</pdfrwt>
<pdfrwt beam="2">  1       -1 0.78677567E-02 0.76069862E+03</pdfrwt>
<totfact> 0.76881155E+01</totfact>
</mgrwt>
</event>
<event>
 4    1  0.4305113E-006  0.5951490E+03  0.7818608E-02  0.9915522E-01
          1   -1    0    0  501    0  0.00000000000E+00  0.00000000000E+00  0.51380136116E+03  0.51380136118E+03  0.50400000000E-02 0.  1.
         -1   -1    0    0    0  501 -0.00000000000E+00 -0.00000000000E+00 -0.17234398672E+03  0.17234398679E+03  0.50400000000E-02 0. -1.
   -5000001    1    1    2    0    0 -0.11574794933E+03  0.11119532473E+03  0.15114345150E+03  0.33332616301E+03  0.25000000000E+03 0.  0.
    5000001    1    1    2    0    0  0.11574794933E+03 -0.11119532473E+03  0.19031392293E+03  0.35281918496E+03  0.25000000000E+03 0.  0.
<mgrwt>
<rscale>  0 0.59514897E+03</rscale>
<asrwt>0</asrwt>
<pdfrwt beam="1">  1        1 0.79046362E-01 0.59514897E+03</pdfrwt>
<pdfrwt beam="2">  1       -1 0.26514460E-01 0.59514897E+03</pdfrwt>
<totfact> 0.54543726E+02</totfact>
</mgrwt>
</event>
<event>
 4    1  0.4305113E-006  0.6136261E+03  0.7818608E-02  0.9877533E-01
          1   -1    0    0  501    0  0.00000000000E+00  0.00000000000E+00  0.16389348524E+03  0.16389348532E+03  0.50400000000E-02 0. -1.
         -1   -1    0    0    0  501 -0.00000000000E+00 -0.00000000000E+00 -0.57436237133E+03  0.57436237135E+03  0.50400000000E-02 0.  1.
   -5000001    1    1    2    0    0  0.76644198145E+02 -0.11082556488E+03 -0.65562381443E+02  0.29147052132E+03  0.25000000000E+03 0.  0.
    5000001    1    1    2    0    0 -0.76644198145E+02  0.11082556488E+03 -0.34490650464E+03  0.44678533535E+03  0.25000000000E+03 0.  0.
<mgrwt>
<rscale>  0 0.61362611E+03</rscale>
<asrwt>0</asrwt>
<pdfrwt beam="1">  1        1 0.25214383E-01 0.61362611E+03</pdfrwt>
<pdfrwt beam="2">  1       -1 0.88363441E-01 0.61362611E+03</pdfrwt>
<totfact> 0.24685740E+02</totfact>
</mgrwt>
</event>
<event>
 4    1  0.4305113E-006  0.6938765E+03  0.7818608E-02  0.9727762E-01
         -1   -1    0    0    0  501 -0.00000000000E+00  0.00000000000E+00  0.38006474936E+03  0.38006474939E+03  0.50400000000E-02 0. -1.
          1   -1    0    0  501    0  0.00000000000E+00 -0.00000000000E+00 -0.31669909946E+03  0.31669909950E+03  0.50400000000E-02 0.  1.
   -5000001    1    1    2    0    0 -0.10273537855E+03 -0.20668561048E+03 -0.36368369897E+02  0.34219315878E+03  0.25000000000E+03 0.  0.
    5000001    1    1    2    0    0  0.10273537855E+03  0.20668561048E+03  0.99734019793E+02  0.35457069012E+03  0.25000000000E+03 0.  0.
<mgrwt>
<rscale>  0 0.69387654E+03</rscale>
<asrwt>0</asrwt>
<pdfrwt beam="1">  1        1 0.48722938E-01 0.69387654E+03</pdfrwt>
<pdfrwt beam="2">  1       -1 0.58471500E-01 0.69387654E+03</pdfrwt>
<totfact> 0.24552556E+02</totfact>
</mgrwt>
</event>
<event>
 4    1  0.4305113E-006  0.6140861E+03  0.7818608E-02  0.9876605E-01
         -1   -1    0    0    0  501 -0.00000000000E+00  0.00000000000E+00  0.41938340612E+03  0.41938340615E+03  0.50400000000E-02 0.  1.
          1   -1    0    0  501    0  0.00000000000E+00 -0.00000000000E+00 -0.22479533196E+03  0.22479533202E+03  0.50400000000E-02 0. -1.
   -5000001    1    1    2    0    0  0.36185826220E+02 -0.15492283760E+03  0.18163899366E+03  0.34756758141E+03  0.25000000000E+03 0.  0.
    5000001    1    1    2    0    0 -0.36185826220E+02  0.15492283760E+03  0.12949080501E+02  0.29661115676E+03  0.25000000000E+03 0.  0.
<mgrwt>
<rscale>  0 0.61408609E+03</rscale>
<asrwt>0</asrwt>
<pdfrwt beam="1">  1        1 0.34583898E-01 0.61408609E+03</pdfrwt>
<pdfrwt beam="2">  1       -1 0.64520523E-01 0.61408609E+03</pdfrwt>
<totfact> 0.31560964E+02</totfact>
</mgrwt>
</event>
<event>
 4    1  0.4305113E-006  0.1476610E+04  0.7818608E-02  0.8900157E-01
         -1   -1    0    0    0  501 -0.00000000000E+00  0.00000000000E+00  0.33287125791E+03  0.33287125794E+03  0.50400000000E-02 0.  1.
          1   -1    0    0  501    0  0.00000000000E+00 -0.00000000000E+00 -0.16375534813E+04  0.16375534813E+04  0.50400000000E-02 0. -1.
   -5000001    1    1    2    0    0  0.36823207794E+03  0.56729268406E+03 -0.44059763041E+03  0.84501013280E+03  0.25000000000E+03 0.  0.
    5000001    1    1    2    0    0 -0.36823207794E+03 -0.56729268406E+03 -0.86408459300E+03  0.11254146065E+04  0.25000000000E+03 0.  0.
<mgrwt>
<rscale>  0 0.14766103E+04</rscale>
<asrwt>0</asrwt>
<pdfrwt beam="1">  1        1 0.25193130E+00 0.14766103E+04</pdfrwt>
<pdfrwt beam="2">  1       -1 0.51210964E-01 0.14766103E+04</pdfrwt>
<totfact> 0.19542431E+01</totfact>
</mgrwt>
</event>
<event>
 4    1  0.4305113E-006  0.6683326E+03  0.7818608E-02  0.9772975E-01
          1   -1    0    0  501    0  0.00000000000E+00  0.00000000000E+00  0.15447672985E+04  0.15447672985E+04  0.50400000000E-02 0.  1.
         -1   -1    0    0    0  501 -0.00000000000E+00 -0.00000000000E+00 -0.72287340129E+02  0.72287340305E+02  0.50400000000E-02 0. -1.
   -5000001    1    1    2    0    0 -0.16234458990E+03 -0.67588179549E+02  0.40943967674E+03  0.51094498410E+03  0.25000000000E+03 0.  0.
    5000001    1    1    2    0    0  0.16234458990E+03  0.67588179549E+02  0.10630402816E+04  0.11061096547E+04  0.25000000000E+03 0.  0.
<mgrwt>
<rscale>  0 0.66833261E+03</rscale>
<asrwt>0</asrwt>
<pdfrwt beam="1">  1        1 0.23765651E+00 0.66833261E+03</pdfrwt>
<pdfrwt beam="2">  1       -1 0.11121129E-01 0.66833261E+03</pdfrwt>
<totfact> 0.33246975E+02</totfact>
</mgrwt>
</event>
<event>
 4    1  0.4305113E-006  0.5537391E+03  0.7818608E-02  0.1000632E+00
         -1   -1    0    0    0  501 -0.00000000000E+00  0.00000000000E+00  0.52063049672E+02  0.52063049915E+02  0.50400000000E-02 0. -1.
          1   -1    0    0  501    0  0.00000000000E+00 -0.00000000000E+00 -0.14723827797E+04  0.14723827797E+04  0.50400000000E-02 0.  1.
   -5000001    1    1    2    0    0  0.92197295280E+02  0.70294175460E+02 -0.63653949360E+03  0.69363112623E+03  0.25000000000E+03 0.  0.
    5000001    1    1    2    0    0 -0.92197295280E+02 -0.70294175460E+02 -0.78378023641E+03  0.83081470338E+03  0.25000000000E+03 0.  0.
<mgrwt>
<rscale>  0 0.55373906E+03</rscale>
<asrwt>0</asrwt>
<pdfrwt beam="1">  1        1 0.22652040E+00 0.55373906E+03</pdfrwt>
<pdfrwt beam="2">  1       -1 0.80097011E-02 0.55373906E+03</pdfrwt>
<totfact> 0.62874948E+02</totfact>
</mgrwt>
</event>
<event>
 4    1  0.4305113E-006  0.1106383E+04  0.7818608E-02  0.9198993E-01
         -1   -1    0    0    0  501 -0.00000000000E+00  0.00000000000E+00  0.32229040577E+03  0.32229040581E+03  0.50400000000E-02 0. -1.
          1   -1    0    0  501    0  0.00000000000E+00 -0.00000000000E+00 -0.94951903738E+03  0.94951903739E+03  0.50400000000E-02 0.  1.
   -5000001    1    1    2    0    0 -0.96597193154E+02 -0.47936744208E+03 -0.38983636354E+03  0.67349577029E+03  0.25000000000E+03 0.  0.
    5000001    1    1    2    0    0  0.96597193154E+02  0.47936744208E+03 -0.23739226807E+03  0.59831367291E+03  0.25000000000E+03 0.  0.
<mgrwt>
<rscale>  0 0.11063831E+04</rscale>
<asrwt>0</asrwt>
<pdfrwt beam="1">  1        1 0.14607985E+00 0.11063831E+04</pdfrwt>
<pdfrwt beam="2">  1       -1 0.49583140E-01 0.11063831E+04</pdfrwt>
<totfact> 0.67368552E+01</totfact>
</mgrwt>
</event>
<event>
 4    1  0.4305113E-006  0.8442338E+03  0.7818608E-02  0.9498109E-01
         -1   -1    0    0    0  501 -0.00000000000E+00  0.00000000000E+00  0.22794684386E+03  0.22794684391E+03  0.50400000000E-02 0. -1.
          1   -1    0    0  501    0  0.00000000000E+00 -0.00000000000E+00 -0.78168525956E+03  0.78168525958E+03  0.50400000000E-02 0.  1.
   -5000001    1    1    2    0    0  0.18459323115E+03 -0.28313417428E+03 -0.23143912464E+03  0.47989966664E+03  0.25000000000E+03 0.  0.
    5000001    1    1    2    0    0 -0.18459323115E+03  0.28313417428E+03 -0.32229929107E+03  0.52973243685E+03  0.25000000000E+03 0.  0.
<mgrwt>
<rscale>  0 0.84423383E+03</rscale>
<asrwt>0</asrwt>
<pdfrwt beam="1">  1        1 0.12025927E+00 0.84423383E+03</pdfrwt>
<pdfrwt beam="2">  1       -1 0.35068745E-01 0.84423383E+03</pdfrwt>
<totfact> 0.17895004E+02</totfact>
</mgrwt>
</event>
<event>
 4    1  0.4305113E-006  0.5934383E+03  0.7818608E-02  0.9919114E-01
         -1   -1    0    0    0  501 -0.00000000000E+00  0.00000000000E+00  0.45531785445E+03  0.45531785448E+03  0.50400000000E-02 0. -1.
          1   -1    0    0  501    0  0.00000000000E+00 -0.00000000000E+00 -0.19336437738E+03  0.19336437745E+03  0.50400000000E-02 0.  1.
   -5000001    1    1    2    0    0  0.10118595346E+03  0.12120554546E+03  0.10391589468E+03  0.31341329677E+03  0.25000000000E+03 0.  0.
    5000001    1    1    2    0    0 -0.10118595346E+03 -0.12120554546E+03  0.15803758239E+03  0.33526893515E+03  0.25000000000E+03 0.  0.
<mgrwt>
<rscale>  0 0.59343830E+03</rscale>
<asrwt>0</asrwt>
<pdfrwt beam="1">  1        1 0.29748366E-01 0.59343830E+03</pdfrwt>
<pdfrwt beam="2">  1       -1 0.70048900E-01 0.59343830E+03</pdfrwt>
<totfact> 0.32500366E+02</totfact>
</mgrwt>
</event>
<event>
 4    1  0.4305113E-006  0.6901887E+03  0.7818608E-02  0.9734159E-01
          1   -1    0    0  501    0  0.00000000000E+00  0.00000000000E+00  0.52551251209E+02  0.52551251450E+02  0.50400000000E-02 0.  1.
         -1   -1    0    0    0  501 -0.00000000000E+00 -0.00000000000E+00 -0.22661709829E+04  0.22661709829E+04  0.50400000000E-02 0. -1.
   -5000001    1    1    2    0    0  0.16400596902E+03  0.15622523482E+03 -0.86255803425E+03  0.92618067585E+03  0.25000000000E+03 0.  0.
    5000001    1    1    2    0    0 -0.16400596902E+03 -0.15622523482E+03 -0.13510616974E+04  0.13925415585E+04  0.25000000000E+03 0.  0.
<mgrwt>
<rscale>  0 0.69018873E+03</rscale>
<asrwt>0</asrwt>
<pdfrwt beam="1">  1        1 0.80848096E-02 0.69018873E+03</pdfrwt>
<pdfrwt beam="2">  1       -1 0.34864162E+00 0.69018873E+03</pdfrwt>
<totfact> 0.15158179E+01</totfact>
</mgrwt>
</event>
<event>
 4    1  0.4305113E-006  0.6452204E+03  0.7818608E-02  0.9815789E-01
          1   -1    0    0  501    0  0.00000000000E+00  0.00000000000E+00  0.13849114774E+04  0.13849114775E+04  0.50400000000E-02 0.  1.
         -1   -1    0    0    0  501 -0.00000000000E+00 -0.00000000000E+00 -0.75150892981E+02  0.75150893150E+02  0.50400000000E-02 0. -1.
   -5000001    1    1    2    0    0 -0.77166833132E+02  0.16088207955E+03  0.43155740205E+03  0.52969760706E+03  0.25000000000E+03 0.  0.
    5000001    1    1    2    0    0  0.77166833132E+02 -0.16088207955E+03  0.87820318241E+03  0.93036476355E+03  0.25000000000E+03 0.  0.
<mgrwt>
<rscale>  0 0.64522038E+03</rscale>
<asrwt>0</asrwt>
<pdfrwt beam="1">  1        1 0.21306331E+00 0.64522038E+03</pdfrwt>
<pdfrwt beam="2">  1       -1 0.11561675E-01 0.64522038E+03</pdfrwt>
<totfact> 0.40284469E+02</totfact>
</mgrwt>
</event>
<event>
 4    1  0.4305113E-006  0.7463665E+03  0.7818608E-02  0.9641068E-01
         -1   -1    0    0    0  501 -0.00000000000E+00  0.00000000000E+00  0.19912189198E+03  0.19912189204E+03  0.50400000000E-02 0. -1.
          1   -1    0    0  501    0  0.00000000000E+00 -0.00000000000E+00 -0.69939949478E+03  0.69939949480E+03  0.50400000000E-02 0.  1.
   -5000001    1    1    2    0    0 -0.24136303569E+03  0.11259589533E+03 -0.15820450151E+03  0.39807363005E+03  0.25000000000E+03 0.  0.
    5000001    1    1    2    0    0  0.24136303569E+03 -0.11259589533E+03 -0.34207310130E+03  0.50044775679E+03  0.25000000000E+03 0.  0.
<mgrwt>
<rscale>  0 0.74636653E+03</rscale>
<asrwt>0</asrwt>
<pdfrwt beam="1">  1        1 0.10759992E+00 0.74636653E+03</pdfrwt>
<pdfrwt beam="2">  1       -1 0.30634138E-01 0.74636653E+03</pdfrwt>
<totfact> 0.27122508E+02</totfact>
</mgrwt>
</event>
<event>
 4    1  0.4305113E-006  0.6703569E+03  0.7818608E-02  0.9769313E-01
          1   -1    0    0  501    0  0.00000000000E+00  0.00000000000E+00  0.20954195142E+03  0.20954195148E+03  0.50400000000E-02 0.  1.
         -1   -1    0    0    0  501 -0.00000000000E+00 -0.00000000000E+00 -0.53614360910E+03  0.53614360912E+03  0.50400000000E-02 0. -1.
   -5000001    1    1    2    0    0  0.34085018008E+02 -0.18796619507E+03 -0.34767813599E+02  0.31654680507E+03  0.25000000000E+03 0.  0.
    5000001    1    1    2    0    0 -0.34085018008E+02  0.18796619507E+03 -0.29183384408E+03  0.42913875552E+03  0.25000000000E+03 0.  0.
<mgrwt>
<rscale>  0 0.67035685E+03</rscale>
<asrwt>0</asrwt>
<pdfrwt beam="1">  1        1 0.32237223E-01 0.67035685E+03</pdfrwt>
<pdfrwt beam="2">  1       -1 0.82483632E-01 0.67035685E+03</pdfrwt>
<totfact> 0.20768128E+02</totfact>
</mgrwt>
</event>
<event>
 4    1  0.4305113E-006  0.9048063E+03  0.7818608E-02  0.9419593E-01
          1   -1    0    0  501    0  0.00000000000E+00  0.00000000000E+00  0.13367295715E+04  0.13367295715E+04  0.50400000000E-02 0.  1.
         -1   -1    0    0    0  501 -0.00000000000E+00 -0.00000000000E+00 -0.15311145311E+03  0.15311145319E+03  0.50400000000E-02 0. -1.
   -5000001    1    1    2    0    0 -0.11425786475E+03  0.12982971355E+03  0.40121801778E+02  0.30662741749E+03  0.25000000000E+03 0.  0.
    5000001    1    1    2    0    0  0.11425786475E+03 -0.12982971355E+03  0.11434963166E+04  0.11832136072E+04  0.25000000000E+03 0.  0.
<mgrwt>
<rscale>  0 0.90480629E+03</rscale>
<asrwt>0</asrwt>
<pdfrwt beam="1">  1        1 0.20565071E+00 0.90480629E+03</pdfrwt>
<pdfrwt beam="2">  1       -1 0.23555607E-01 0.90480629E+03</pdfrwt>
<totfact> 0.13302169E+02</totfact>
</mgrwt>
</event>
<event>
 4    1  0.4305113E-006  0.1593791E+04  0.7818608E-02  0.8824371E-01
          1   -1    0    0  501    0  0.00000000000E+00  0.00000000000E+00  0.16725483300E+03  0.16725483308E+03  0.50400000000E-02 0.  1.
         -1   -1    0    0    0  501 -0.00000000000E+00 -0.00000000000E+00 -0.37968568668E+04  0.37968568668E+04  0.50400000000E-02 0. -1.
   -5000001    1    1    2    0    0 -0.13608352106E+03 -0.46770515960E+03 -0.37462506807E+03  0.66340845838E+03  0.25000000000E+03 0.  0.
    5000001    1    1    2    0    0  0.13608352106E+03  0.46770515960E+03 -0.32549769658E+04  0.33007032415E+04  0.25000000000E+03 0.  0.
<mgrwt>
<rscale>  0 0.15937913E+04</rscale>
<asrwt>0</asrwt>
<pdfrwt beam="1">  1        1 0.25731516E-01 0.15937913E+04</pdfrwt>
<pdfrwt beam="2">  1       -1 0.58413176E+00 0.15937913E+04</pdfrwt>
<totfact> 0.90697489E-02</totfact>
</mgrwt>
</event>
<event>
 4    1  0.4305113E-006  0.5657470E+03  0.7818608E-02  0.9979134E-01
          1   -1    0    0  501    0  0.00000000000E+00  0.00000000000E+00  0.10217017619E+03  0.10217017632E+03  0.50400000000E-02 0.  1.
         -1   -1    0    0    0  501 -0.00000000000E+00 -0.00000000000E+00 -0.78317775438E+03  0.78317775439E+03  0.50400000000E-02 0. -1.
   -5000001    1    1    2    0    0 -0.56637275492E+02 -0.94022337921E+02 -0.45623825222E+03  0.53169664640E+03  0.25000000000E+03 0.  0.
    5000001    1    1    2    0    0  0.56637275492E+02  0.94022337921E+02 -0.22476932596E+03  0.35365128431E+03  0.25000000000E+03 0.  0.
<mgrwt>
<rscale>  0 0.56574697E+03</rscale>
<asrwt>0</asrwt>
<pdfrwt beam="1">  1        1 0.15718489E-01 0.56574697E+03</pdfrwt>
<pdfrwt beam="2">  1       -1 0.12048888E+00 0.56574697E+03</pdfrwt>
<totfact> 0.22646091E+02</totfact>
</mgrwt>
</event>
<event>
 4    1  0.4305113E-006  0.8273423E+03  0.7818608E-02  0.9521262E-01
          1   -1    0    0  501    0  0.00000000000E+00  0.00000000000E+00  0.26606420152E+04  0.26606420152E+04  0.50400000000E-02 0. -1.
         -1   -1    0    0    0  501 -0.00000000000E+00 -0.00000000000E+00 -0.64316744412E+02  0.64316744609E+02  0.50400000000E-02 0.  1.
   -5000001    1    1    2    0    0  0.68725551486E+02 -0.31678105370E+03  0.14944141628E+04  0.15494667235E+04  0.25000000000E+03 0.  0.
    5000001    1    1    2    0    0 -0.68725551486E+02  0.31678105370E+03  0.11019111080E+04  0.11754920363E+04  0.25000000000E+03 0.  0.
<mgrwt>
<rscale>  0 0.82734233E+03</rscale>
<asrwt>0</asrwt>
<pdfrwt beam="1">  1        1 0.40932940E+00 0.82734233E+03</pdfrwt>
<pdfrwt beam="2">  1       -1 0.98948871E-02 0.82734233E+03</pdfrwt>
<totfact> 0.69690491E+01</totfact>
</mgrwt>
</event>
<event>
 4    1  0.4305113E-006  0.6784858E+03  0.7818608E-02  0.9754749E-01
         -1   -1    0    0    0  501 -0.00000000000E+00  0.00000000000E+00  0.15267898337E+04  0.15267898337E+04  0.50400000000E-02 0. -1.
          1   -1    0    0  501    0  0.00000000000E+00 -0.00000000000E+00 -0.75377584669E+02  0.75377584837E+02  0.50400000000E-02 0.  1.
   -5000001    1    1    2    0    0  0.18013492868E+03  0.23523209367E+02  0.39524863298E+03  0.50172045581E+03  0.25000000000E+03 0.  0.
    5000001    1    1    2    0    0 -0.18013492868E+03 -0.23523209367E+02  0.10561636161E+04  0.11004469628E+04  0.25000000000E+03 0.  0.
<mgrwt>
<rscale>  0 0.67848576E+03</rscale>
<asrwt>0</asrwt>
<pdfrwt beam="1">  1        1 0.11596552E-01 0.67848576E+03</pdfrwt>
<pdfrwt beam="2">  1       -1 0.23489073E+00 0.67848576E+03</pdfrwt>
<totfact> 0.49593245E+01</totfact>
</mgrwt>
</event>
<event>
 4    1  0.4305113E-006  0.5770051E+03  0.7818608E-02  0.9954296E-01
         -1   -1    0    0    0  501 -0.00000000000E+00  0.00000000000E+00  0.42609141367E+03  0.42609141370E+03  0.50400000000E-02 0.  1.
          1   -1    0    0  501    0  0.00000000000E+00 -0.00000000000E+00 -0.19534238740E+03  0.19534238746E+03  0.50400000000E-02 0. -1.
   -5000001    1    1    2    0    0 -0.43674805268E+02  0.12145471471E+03  0.46623697244E+02  0.28518854375E+03  0.25000000000E+03 0.  0.
    5000001    1    1    2    0    0  0.43674805268E+02 -0.12145471471E+03  0.18412532902E+03  0.33624525741E+03  0.25000000000E+03 0.  0.
<mgrwt>
<rscale>  0 0.57700507E+03</rscale>
<asrwt>0</asrwt>
<pdfrwt beam="1">  1        1 0.30052676E-01 0.57700507E+03</pdfrwt>
<pdfrwt beam="2">  1       -1 0.65552524E-01 0.57700507E+03</pdfrwt>
<totfact> 0.36694732E+02</totfact>
</mgrwt>
</event>
<event>
 4    1  0.4305113E-006  0.9916342E+03  0.7818608E-02  0.9317768E-01
         -1   -1    0    0    0  501 -0.00000000000E+00  0.00000000000E+00  0.29100521534E+03  0.29100521539E+03  0.50400000000E-02 0. -1.
          1   -1    0    0  501    0  0.00000000000E+00 -0.00000000000E+00 -0.84477723936E+03  0.84477723937E+03  0.50400000000E-02 0.  1.
   -5000001    1    1    2    0    0  0.36536701664E+03  0.13694010904E+03 -0.74934748689E+02  0.46942610374E+03  0.25000000000E+03 0.  0.
    5000001    1    1    2    0    0 -0.36536701664E+03 -0.13694010904E+03 -0.47883727532E+03  0.66635635102E+03  0.25000000000E+03 0.  0.
<mgrwt>
<rscale>  0 0.99163417E+03</rscale>
<asrwt>0</asrwt>
<pdfrwt beam="1">  1        1 0.12996573E+00 0.99163417E+03</pdfrwt>
<pdfrwt beam="2">  1       -1 0.44770033E-01 0.99163417E+03</pdfrwt>
<totfact> 0.10028380E+02</totfact>
</mgrwt>
</event>
<event>
 4    1  0.4305113E-006  0.1289282E+04  0.7818608E-02  0.9038108E-01
         -1   -1    0    0    0  501 -0.00000000000E+00  0.00000000000E+00  0.30175710815E+03  0.30175710819E+03  0.50400000000E-02 0. -1.
          1   -1    0    0  501    0  0.00000000000E+00 -0.00000000000E+00 -0.13771405801E+04  0.13771405801E+04  0.50400000000E-02 0.  1.
   -5000001    1    1    2    0    0  0.12862095391E+03 -0.32097657268E+03 -0.11669268487E+04  0.12424924869E+04  0.25000000000E+03 0.  0.
    5000001    1    1    2    0    0 -0.12862095391E+03  0.32097657268E+03  0.91543376670E+02  0.43640520140E+03  0.25000000000E+03 0.  0.
<mgrwt>
<rscale>  0 0.12892819E+04</rscale>
<asrwt>0</asrwt>
<pdfrwt beam="1">  1        1 0.21186778E+00 0.12892819E+04</pdfrwt>
<pdfrwt beam="2">  1       -1 0.46424171E-01 0.12892819E+04</pdfrwt>
<totfact> 0.36207988E+01</totfact>
</mgrwt>
</event>
<event>
 4    1  0.4305113E-006  0.5664193E+03  0.7818608E-02  0.9977634E-01
          1   -1    0    0  501    0  0.00000000000E+00  0.00000000000E+00  0.28858944019E+03  0.28858944024E+03  0.50400000000E-02 0.  1.
         -1   -1    0    0    0  501 -0.00000000000E+00 -0.00000000000E+00 -0.27793012151E+03  0.27793012156E+03  0.50400000000E-02 0. -1.
   -5000001    1    1    2    0    0  0.12217913907E+03  0.28043537715E+02 -0.39327055412E+02  0.28241954486E+03  0.25000000000E+03 0.  0.
    5000001    1    1    2    0    0 -0.12217913907E+03 -0.28043537715E+02  0.49986374090E+02  0.28410001694E+03  0.25000000000E+03 0.  0.
<mgrwt>
<rscale>  0 0.56641927E+03</rscale>
<asrwt>0</asrwt>
<pdfrwt beam="1">  1        1 0.44398375E-01 0.56641927E+03</pdfrwt>
<pdfrwt beam="2">  1       -1 0.42758480E-01 0.56641927E+03</pdfrwt>
<totfact> 0.50230852E+02</totfact>
</mgrwt>
</event>
<event>
 4    1  0.4305113E-006  0.6177184E+03  0.7818608E-02  0.9869313E-01
          1   -1    0    0  501    0  0.00000000000E+00  0.00000000000E+00  0.44680145092E+04  0.44680145092E+04  0.50400000000E-02 0.  1.
         -1   -1    0    0    0  501 -0.00000000000E+00 -0.00000000000E+00 -0.21350426861E+02  0.21350427456E+02  0.50400000000E-02 0. -1.
   -5000001    1    1    2    0    0 -0.14546118791E+03  0.10809965951E+03  0.21721867662E+04  0.21940236646E+04  0.25000000000E+03 0.  0.
    5000001    1    1    2    0    0  0.14546118791E+03 -0.10809965951E+03  0.22744773161E+04  0.22953412721E+04  0.25000000000E+03 0.  0.
<mgrwt>
<rscale>  0 0.61771844E+03</rscale>
<asrwt>0</asrwt>
<pdfrwt beam="1">  1        1 0.68738641E+00 0.61771844E+03</pdfrwt>
<pdfrwt beam="2">  1       -1 0.32846832E-02 0.61771844E+03</pdfrwt>
<totfact> 0.14074676E+01</totfact>
</mgrwt>
</event>
<event>
 4    1  0.4305113E-006  0.5695886E+03  0.7818608E-02  0.9970589E-01
          1   -1    0    0  501    0  0.00000000000E+00  0.00000000000E+00  0.48171274230E+03  0.48171274233E+03  0.50400000000E-02 0.  1.
         -1   -1    0    0    0  501 -0.00000000000E+00 -0.00000000000E+00 -0.16837379561E+03  0.16837379568E+03  0.50400000000E-02 0. -1.
   -5000001    1    1    2    0    0 -0.12169691091E+03  0.20355725239E+02  0.22305611538E+03  0.35704134814E+03  0.25000000000E+03 0.  0.
    5000001    1    1    2    0    0  0.12169691091E+03 -0.20355725239E+02  0.90282831310E+02  0.29304518987E+03  0.25000000000E+03 0.  0.
<mgrwt>
<rscale>  0 0.56958863E+03</rscale>
<asrwt>0</asrwt>
<pdfrwt beam="1">  1        1 0.74109652E-01 0.56958863E+03</pdfrwt>
<pdfrwt beam="2">  1       -1 0.25903661E-01 0.56958863E+03</pdfrwt>
<totfact> 0.62015566E+02</totfact>
</mgrwt>
</event>
<event>
 4    1  0.4305113E-006  0.6020095E+03  0.7818608E-02  0.9901246E-01
          1   -1    0    0  501    0  0.00000000000E+00  0.00000000000E+00  0.12227589250E+04  0.12227589250E+04  0.50400000000E-02 0.  1.
         -1   -1    0    0    0  501 -0.00000000000E+00 -0.00000000000E+00 -0.74097883162E+02  0.74097883333E+02  0.50400000000E-02 0. -1.
   -5000001    1    1    2    0    0  0.74020095986E+02  0.14435062075E+03  0.48324596510E+03  0.56775235720E+03  0.25000000000E+03 0.  0.
    5000001    1    1    2    0    0 -0.74020095986E+02 -0.14435062075E+03  0.66541507669E+03  0.72910445109E+03  0.25000000000E+03 0.  0.
<mgrwt>
<rscale>  0 0.60200946E+03</rscale>
<asrwt>0</asrwt>
<pdfrwt beam="1">  1        1 0.18811675E+00 0.60200946E+03</pdfrwt>
<pdfrwt beam="2">  1       -1 0.11399675E-01 0.60200946E+03</pdfrwt>
<totfact> 0.53704192E+02</totfact>
</mgrwt>
</event>
<event>
 4    1  0.4305113E-006  0.1023953E+04  0.7818608E-02  0.9282657E-01
         -1   -1    0    0    0  501 -0.00000000000E+00  0.00000000000E+00  0.20039522551E+03  0.20039522557E+03  0.50400000000E-02 0. -1.
          1   -1    0    0  501    0  0.00000000000E+00 -0.00000000000E+00 -0.13080140117E+04  0.13080140117E+04  0.50400000000E-02 0.  1.
   -5000001    1    1    2    0    0  0.39071293099E+03 -0.15270050535E+03 -0.32728466718E+03  0.58786843099E+03  0.25000000000E+03 0.  0.
    5000001    1    1    2    0    0 -0.39071293099E+03  0.15270050535E+03 -0.78033411902E+03  0.92054080632E+03  0.25000000000E+03 0.  0.
<mgrwt>
<rscale>  0 0.10239527E+04</rscale>
<asrwt>0</asrwt>
<pdfrwt beam="1">  1        1 0.20123292E+00 0.10239527E+04</pdfrwt>
<pdfrwt beam="2">  1       -1 0.30830035E-01 0.10239527E+04</pdfrwt>
<totfact> 0.86848843E+01</totfact>
</mgrwt>
</event>
<event>
 4    1  0.4305113E-006  0.5789817E+03  0.7818608E-02  0.9949998E-01
         -1   -1    0    0    0  501 -0.00000000000E+00  0.00000000000E+00  0.83118615972E+03  0.83118615974E+03  0.50400000000E-02 0. -1.
          1   -1    0    0  501    0  0.00000000000E+00 -0.00000000000E+00 -0.10082572198E+03  0.10082572210E+03  0.50400000000E-02 0.  1.
   -5000001    1    1    2    0    0 -0.81449058751E+02  0.12009750187E+03  0.33985114479E+03  0.44615710209E+03  0.25000000000E+03 0.  0.
    5000001    1    1    2    0    0  0.81449058751E+02 -0.12009750187E+03  0.39050929295E+03  0.48585477975E+03  0.25000000000E+03 0.  0.
<mgrwt>
<rscale>  0 0.57898167E+03</rscale>
<asrwt>0</asrwt>
<pdfrwt beam="1">  1        1 0.15511650E-01 0.57898167E+03</pdfrwt>
<pdfrwt beam="2">  1       -1 0.12787479E+00 0.57898167E+03</pdfrwt>
<totfact> 0.19900955E+02</totfact>
</mgrwt>
</event>
<event>
 4    1  0.4305113E-006  0.7085765E+03  0.7818608E-02  0.9702677E-01
         -1   -1    0    0    0  501 -0.00000000000E+00  0.00000000000E+00  0.11269062907E+03  0.11269062918E+03  0.50400000000E-02 0. -1.
          1   -1    0    0  501    0  0.00000000000E+00 -0.00000000000E+00 -0.11138474081E+04  0.11138474081E+04  0.50400000000E-02 0.  1.
   -5000001    1    1    2    0    0 -0.17299014136E+03  0.17471322179E+03 -0.58832887734E+03  0.68489500421E+03  0.25000000000E+03 0.  0.
    5000001    1    1    2    0    0  0.17299014136E+03 -0.17471322179E+03 -0.41282790167E+03  0.54164303307E+03  0.25000000000E+03 0.  0.
<mgrwt>
<rscale>  0 0.70857650E+03</rscale>
<asrwt>0</asrwt>
<pdfrwt beam="1">  1        1 0.17136113E+00 0.70857650E+03</pdfrwt>
<pdfrwt beam="2">  1       -1 0.17337021E-01 0.70857650E+03</pdfrwt>
<totfact> 0.32551484E+02</totfact>
</mgrwt>
</event>
<event>
 4    1  0.4305113E-006  0.1062431E+04  0.7818608E-02  0.9242604E-01
         -1   -1    0    0    0  501 -0.00000000000E+00  0.00000000000E+00  0.32119493604E+03  0.32119493608E+03  0.50400000000E-02 0. -1.
          1   -1    0    0  501    0  0.00000000000E+00 -0.00000000000E+00 -0.87856196848E+03  0.87856196849E+03  0.50400000000E-02 0.  1.
   -5000001    1    1    2    0    0 -0.35734177742E+03  0.30180193451E+03 -0.24457880623E+03  0.58403454180E+03  0.25000000000E+03 0.  0.
    5000001    1    1    2    0    0  0.35734177742E+03 -0.30180193451E+03 -0.31278822621E+03  0.61572236277E+03  0.25000000000E+03 0.  0.
<mgrwt>
<rscale>  0 0.10624305E+04</rscale>
<asrwt>0</asrwt>
<pdfrwt beam="1">  1        1 0.13516338E+00 0.10624305E+04</pdfrwt>
<pdfrwt beam="2">  1       -1 0.49414606E-01 0.10624305E+04</pdfrwt>
<totfact> 0.77687226E+01</totfact>
</mgrwt>
</event>
<event>
 4    1  0.4305113E-006  0.8164346E+03  0.7818608E-02  0.9536529E-01
         -1   -1    0    0    0  501 -0.00000000000E+00  0.00000000000E+00  0.71256732236E+02  0.71256732414E+02  0.50400000000E-02 0. -1.
          1   -1    0    0  501    0  0.00000000000E+00 -0.00000000000E+00 -0.23386053134E+04  0.23386053134E+04  0.50400000000E-02 0.  1.
   -5000001    1    1    2    0    0 -0.90431455867E+02 -0.16587572658E+03 -0.36143199088E+03  0.47835728165E+03  0.25000000000E+03 0.  0.
    5000001    1    1    2    0    0  0.90431455867E+02  0.16587572658E+03 -0.19059165902E+04  0.19315047641E+04  0.25000000000E+03 0.  0.
<mgrwt>
<rscale>  0 0.81643462E+03</rscale>
<asrwt>0</asrwt>
<pdfrwt beam="1">  1        1 0.35978537E+00 0.81643462E+03</pdfrwt>
<pdfrwt beam="2">  1       -1 0.10962576E-01 0.81643462E+03</pdfrwt>
<totfact> 0.98461658E+01</totfact>
</mgrwt>
</event>
<event>
 4    1  0.4305113E-006  0.5215372E+03  0.7818608E-02  0.1008305E+00
         -1   -1    0    0    0  501 -0.00000000000E+00  0.00000000000E+00  0.27973881014E+03  0.27973881018E+03  0.50400000000E-02 0. -1.
          1   -1    0    0  501    0  0.00000000000E+00 -0.00000000000E+00 -0.24308483468E+03  0.24308483473E+03  0.50400000000E-02 0.  1.
   -5000001    1    1    2    0    0 -0.56140547314E+02  0.33526863086E+02  0.53405454866E+02  0.26387109393E+03  0.25000000000E+03 0.  0.
    5000001    1    1    2    0    0  0.56140547314E+02 -0.33526863086E+02 -0.16751479409E+02  0.25895255099E+03  0.25000000000E+03 0.  0.
<mgrwt>
<rscale>  0 0.52153720E+03</rscale>
<asrwt>0</asrwt>
<pdfrwt beam="1">  1        1 0.37397667E-01 0.52153720E+03</pdfrwt>
<pdfrwt beam="2">  1       -1 0.43036740E-01 0.52153720E+03</pdfrwt>
<totfact> 0.61932847E+02</totfact>
</mgrwt>
</event>
<event>
 4    1  0.4305113E-006  0.8729100E+03  0.7818608E-02  0.9460094E-01
          1   -1    0    0  501    0  0.00000000000E+00  0.00000000000E+00  0.48502984134E+03  0.48502984136E+03  0.50400000000E-02 0.  1.
         -1   -1    0    0    0  501 -0.00000000000E+00 -0.00000000000E+00 -0.39274482153E+03  0.39274482156E+03  0.50400000000E-02 0. -1.
   -5000001    1    1    2    0    0 -0.27710296181E+03  0.22606435400E+03  0.56289080258E+02  0.43995409322E+03  0.25000000000E+03 0.  0.
    5000001    1    1    2    0    0  0.27710296181E+03 -0.22606435400E+03  0.35995939550E+02  0.43782056970E+03  0.25000000000E+03 0.  0.
<mgrwt>
<rscale>  0 0.87290998E+03</rscale>
<asrwt>0</asrwt>
<pdfrwt beam="1">  1        1 0.74619975E-01 0.87290998E+03</pdfrwt>
<pdfrwt beam="2">  1       -1 0.60422280E-01 0.87290998E+03</pdfrwt>
<totfact> 0.12958012E+02</totfact>
</mgrwt>
</event>
<event>
 4    1  0.4305113E-006  0.7129419E+03  0.7818608E-02  0.9695352E-01
          1   -1    0    0  501    0  0.00000000000E+00  0.00000000000E+00  0.34026779254E+03  0.34026779258E+03  0.50400000000E-02 0.  1.
         -1   -1    0    0    0  501 -0.00000000000E+00 -0.00000000000E+00 -0.37344568488E+03  0.37344568491E+03  0.50400000000E-02 0. -1.
   -5000001    1    1    2    0    0 -0.19602231083E+03 -0.13339660281E+03 -0.10807788933E+03  0.36110972037E+03  0.25000000000E+03 0.  0.
    5000001    1    1    2    0    0  0.19602231083E+03  0.13339660281E+03  0.74899996997E+02  0.35260375712E+03  0.25000000000E+03 0.  0.
<mgrwt>
<rscale>  0 0.71294190E+03</rscale>
<asrwt>0</asrwt>
<pdfrwt beam="1">  1        1 0.52348891E-01 0.71294190E+03</pdfrwt>
<pdfrwt beam="2">  1       -1 0.57453183E-01 0.71294190E+03</pdfrwt>
<totfact> 0.23124603E+02</totfact>
</mgrwt>
</event>
<event>
 4    1  0.4305113E-006  0.6887734E+03  0.7818608E-02  0.9736626E-01
          1   -1    0    0  501    0  0.00000000000E+00  0.00000000000E+00  0.14222137345E+04  0.14222137345E+04  0.50400000000E-02 0.  1.
         -1   -1    0    0    0  501 -0.00000000000E+00 -0.00000000000E+00 -0.83392669289E+02  0.83392669441E+02  0.50400000000E-02 0. -1.
   -5000001    1    1    2    0    0  0.46419516638E+02  0.13384842366E+03  0.25447613680E+03  0.38383365699E+03  0.25000000000E+03 0.  0.
    5000001    1    1    2    0    0 -0.46419516638E+02 -0.13384842366E+03  0.10843449284E+04  0.11217727470E+04  0.25000000000E+03 0.  0.
<mgrwt>
<rscale>  0 0.68877340E+03</rscale>
<asrwt>0</asrwt>
<pdfrwt beam="1">  1        1 0.21880209E+00 0.68877340E+03</pdfrwt>
<pdfrwt beam="2">  1       -1 0.12829643E-01 0.68877340E+03</pdfrwt>
<totfact> 0.32049900E+02</totfact>
</mgrwt>
</event>
<event>
 4    1  0.4305113E-006  0.6889513E+03  0.7818608E-02  0.9736316E-01
         -1   -1    0    0    0  501 -0.00000000000E+00  0.00000000000E+00  0.73595441896E+02  0.73595442068E+02  0.50400000000E-02 0.  1.
          1   -1    0    0  501    0  0.00000000000E+00 -0.00000000000E+00 -0.16123755045E+04  0.16123755045E+04  0.50400000000E-02 0. -1.
   -5000001    1    1    2    0    0  0.19764706342E+03  0.97011048093E+02 -0.55482065595E+03  0.64714871970E+03  0.25000000000E+03 0.  0.
    5000001    1    1    2    0    0 -0.19764706342E+03 -0.97011048093E+02 -0.98395940668E+03  0.10388222269E+04  0.25000000000E+03 0.  0.
<mgrwt>
<rscale>  0 0.68895134E+03</rscale>
<asrwt>0</asrwt>
<pdfrwt beam="1">  1        1 0.24805774E+00 0.68895134E+03</pdfrwt>
<pdfrwt beam="2">  1       -1 0.11322377E-01 0.68895134E+03</pdfrwt>
<totfact> 0.29034956E+02</totfact>
</mgrwt>
</event>
<event>
 4    1  0.4305113E-006  0.7962849E+03  0.7818608E-02  0.9565410E-01
         -1   -1    0    0    0  501 -0.00000000000E+00  0.00000000000E+00  0.62440061625E+03  0.62440061627E+03  0.50400000000E-02 0. -1.
          1   -1    0    0  501    0  0.00000000000E+00 -0.00000000000E+00 -0.25387132048E+03  0.25387132053E+03  0.50400000000E-02 0.  1.
   -5000001    1    1    2    0    0  0.85704346864E+02 -0.29373382644E+03  0.23921530862E+03  0.46189691463E+03  0.25000000000E+03 0.  0.
    5000001    1    1    2    0    0 -0.85704346864E+02  0.29373382644E+03  0.13131398715E+03  0.41637502217E+03  0.25000000000E+03 0.  0.
<mgrwt>
<rscale>  0 0.79628490E+03</rscale>
<asrwt>0</asrwt>
<pdfrwt beam="1">  1        1 0.39057127E-01 0.79628490E+03</pdfrwt>
<pdfrwt beam="2">  1       -1 0.96061633E-01 0.79628490E+03</pdfrwt>
<totfact> 0.11528588E+02</totfact>
</mgrwt>
</event>
<event>
 4    1  0.4305113E-006  0.9291787E+03  0.7818608E-02  0.9389824E-01
         -1   -1    0    0    0  501 -0.00000000000E+00  0.00000000000E+00  0.40286000980E+03  0.40286000983E+03  0.50400000000E-02 0. -1.
          1   -1    0    0  501    0  0.00000000000E+00 -0.00000000000E+00 -0.53577732715E+03  0.53577732717E+03  0.50400000000E-02 0.  1.
   -5000001    1    1    2    0    0  0.23873885936E+03 -0.30084534096E+03  0.10733188749E+02  0.45838778724E+03  0.25000000000E+03 0.  0.
    5000001    1    1    2    0    0 -0.23873885936E+03  0.30084534096E+03 -0.14365050610E+03  0.48024954977E+03  0.25000000000E+03 0.  0.
<mgrwt>
<rscale>  0 0.92917869E+03</rscale>
<asrwt>0</asrwt>
<pdfrwt beam="1">  1        1 0.82427282E-01 0.92917869E+03</pdfrwt>
<pdfrwt beam="2">  1       -1 0.61978463E-01 0.92917869E+03</pdfrwt>
<totfact> 0.10699402E+02</totfact>
</mgrwt>
</event>
<event>
 4    1  0.4305113E-006  0.5511874E+03  0.7818608E-02  0.1001219E+00
         -1   -1    0    0    0  501 -0.00000000000E+00  0.00000000000E+00  0.48628374308E+02  0.48628374569E+02  0.50400000000E-02 0. -1.
          1   -1    0    0  501    0  0.00000000000E+00 -0.00000000000E+00 -0.15618841610E+04  0.15618841610E+04  0.50400000000E-02 0.  1.
   -5000001    1    1    2    0    0 -0.71263460173E+02 -0.37654540973E+02 -0.51294203028E+03  0.57628627577E+03  0.25000000000E+03 0.  0.
    5000001    1    1    2    0    0  0.71263460173E+02  0.37654540973E+02 -0.10003137564E+04  0.10342262598E+04  0.25000000000E+03 0.  0.
<mgrwt>
<rscale>  0 0.55118740E+03</rscale>
<asrwt>0</asrwt>
<pdfrwt beam="1">  1        1 0.24028983E+00 0.55118740E+03</pdfrwt>
<pdfrwt beam="2">  1       -1 0.74812896E-02 0.55118740E+03</pdfrwt>
<totfact> 0.60810680E+02</totfact>
</mgrwt>
</event>
<event>
 4    1  0.4305113E-006  0.1109592E+04  0.7818608E-02  0.9195893E-01
          1   -1    0    0  501    0  0.00000000000E+00  0.00000000000E+00  0.84434073453E+03  0.84434073454E+03  0.50400000000E-02 0.  1.
         -1   -1    0    0    0  501 -0.00000000000E+00 -0.00000000000E+00 -0.36454333921E+03  0.36454333925E+03  0.50400000000E-02 0. -1.
   -5000001    1    1    2    0    0 -0.16151679395E+03 -0.32545270970E+03  0.60660650507E+03  0.74998572851E+03  0.25000000000E+03 0.  0.
    5000001    1    1    2    0    0  0.16151679395E+03  0.32545270970E+03 -0.12680910975E+03  0.45889834528E+03  0.25000000000E+03 0.  0.
<mgrwt>
<rscale>  0 0.11095923E+04</rscale>
<asrwt>0</asrwt>
<pdfrwt beam="1">  1        1 0.12989857E+00 0.11095923E+04</pdfrwt>
<pdfrwt beam="2">  1       -1 0.56083591E-01 0.11095923E+04</pdfrwt>
<totfact> 0.64859687E+01</totfact>
</mgrwt>
</event>
<event>
 4    1  0.4305113E-006  0.6672201E+03  0.7818608E-02  0.9774993E-01
         -1   -1    0    0    0  501 -0.00000000000E+00  0.00000000000E+00  0.22811224668E+03  0.22811224674E+03  0.50400000000E-02 0. -1.
          1   -1    0    0  501    0  0.00000000000E+00 -0.00000000000E+00 -0.48789868129E+03  0.48789868131E+03  0.50400000000E-02 0.  1.
   -5000001    1    1    2    0    0  0.48007052466E+01  0.22072083637E+03 -0.13784666276E+03  0.36089117031E+03  0.25000000000E+03 0.  0.
    5000001    1    1    2    0    0 -0.48007052466E+01 -0.22072083637E+03 -0.12193977185E+03  0.35511975774E+03  0.25000000000E+03 0.  0.
<mgrwt>
<rscale>  0 0.66722010E+03</rscale>
<asrwt>0</asrwt>
<pdfrwt beam="1">  1        1 0.75061335E-01 0.66722010E+03</pdfrwt>
<pdfrwt beam="2">  1       -1 0.35094192E-01 0.66722010E+03</pdfrwt>
<totfact> 0.35833909E+02</totfact>
</mgrwt>
</event>
<event>
 4    1  0.4305113E-006  0.7380404E+03  0.7818608E-02  0.9654302E-01
         -1   -1    0    0    0  501 -0.00000000000E+00  0.00000000000E+00  0.14761085809E+03  0.14761085818E+03  0.50400000000E-02 0. -1.
          1   -1    0    0  501    0  0.00000000000E+00 -0.00000000000E+00 -0.92253310286E+03  0.92253310287E+03  0.50400000000E-02 0.  1.
   -5000001    1    1    2    0    0 -0.21407605839E+03  0.13720279088E+03 -0.24973026212E+03  0.43533707448E+03  0.25000000000E+03 0.  0.
    5000001    1    1    2    0    0  0.21407605839E+03 -0.13720279088E+03 -0.52519198265E+03  0.63480688657E+03  0.25000000000E+03 0.  0.
<mgrwt>
<rscale>  0 0.73804039E+03</rscale>
<asrwt>0</asrwt>
<pdfrwt beam="1">  1        1 0.14192817E+00 0.73804039E+03</pdfrwt>
<pdfrwt beam="2">  1       -1 0.22709363E-01 0.73804039E+03</pdfrwt>
<totfact> 0.29108832E+02</totfact>
</mgrwt>
</event>
<event>
 4    1  0.4305113E-006  0.1674604E+04  0.7818608E-02  0.8775982E-01
          1   -1    0    0  501    0  0.00000000000E+00  0.00000000000E+00  0.15741977886E+04  0.15741977886E+04  0.50400000000E-02 0. -1.
         -1   -1    0    0    0  501 -0.00000000000E+00 -0.00000000000E+00 -0.44535385100E+03  0.44535385103E+03  0.50400000000E-02 0.  1.
   -5000001    1    1    2    0    0 -0.60774966840E+03  0.51518135222E+03  0.63879885294E+03  0.10513493518E+04  0.25000000000E+03 0.  0.
    5000001    1    1    2    0    0  0.60774966840E+03 -0.51518135222E+03  0.49004508470E+03  0.96820228783E+03  0.25000000000E+03 0.  0.
<mgrwt>
<rscale>  0 0.16746045E+04</rscale>
<asrwt>0</asrwt>
<pdfrwt beam="1">  1        1 0.24218428E+00 0.16746045E+04</pdfrwt>
<pdfrwt beam="2">  1       -1 0.68515977E-01 0.16746045E+04</pdfrwt>
<totfact> 0.11950908E+01</totfact>
</mgrwt>
</event>
<event>
 4    1  0.4305113E-006  0.5706263E+03  0.7818608E-02  0.9968294E-01
          1   -1    0    0  501    0  0.00000000000E+00  0.00000000000E+00  0.25568409998E+04  0.25568409998E+04  0.50400000000E-02 0.  1.
         -1   -1    0    0    0  501 -0.00000000000E+00 -0.00000000000E+00 -0.31837562835E+02  0.31837563234E+02  0.50400000000E-02 0. -1.
   -5000001    1    1    2    0    0 -0.27672203776E+02 -0.13394522917E+03  0.13260962915E+04  0.13563695844E+04  0.25000000000E+03 0.  0.
    5000001    1    1    2    0    0  0.27672203776E+02  0.13394522917E+03  0.11989071455E+04  0.12323089786E+04  0.25000000000E+03 0.  0.
<mgrwt>
<rscale>  0 0.57062628E+03</rscale>
<asrwt>0</asrwt>
<pdfrwt beam="1">  1        1 0.39336022E+00 0.57062628E+03</pdfrwt>
<pdfrwt beam="2">  1       -1 0.48980858E-02 0.57062628E+03</pdfrwt>
<totfact> 0.25195321E+02</totfact>
</mgrwt>
</event>
<event>
 4    1  0.4305113E-006  0.9122584E+03  0.7818608E-02  0.9410386E-01
         -1   -1    0    0    0  501 -0.00000000000E+00  0.00000000000E+00  0.14682006818E+04  0.14682006818E+04  0.50400000000E-02 0.  1.
          1   -1    0    0  501    0  0.00000000000E+00 -0.00000000000E+00 -0.14170667546E+03  0.14170667555E+03  0.50400000000E-02 0. -1.
   -5000001    1    1    2    0    0 -0.28854887419E+03  0.19832490826E+03  0.93065524440E+03  0.10252864995E+04  0.25000000000E+03 0.  0.
    5000001    1    1    2    0    0  0.28854887419E+03 -0.19832490826E+03  0.39583876190E+03  0.58462085787E+03  0.25000000000E+03 0.  0.
<mgrwt>
<rscale>  0 0.91225838E+03</rscale>
<asrwt>0</asrwt>
<pdfrwt beam="1">  1        1 0.21801029E-01 0.91225838E+03</pdfrwt>
<pdfrwt beam="2">  1       -1 0.22587701E+00 0.91225838E+03</pdfrwt>
<totfact> 0.23844189E+01</totfact>
</mgrwt>
</event>
<event>
 4    1  0.4305113E-006  0.7734918E+03  0.7818608E-02  0.9599200E-01
         -1   -1    0    0    0  501 -0.00000000000E+00  0.00000000000E+00  0.54862873555E+02  0.54862873787E+02  0.50400000000E-02 0. -1.
          1   -1    0    0  501    0  0.00000000000E+00 -0.00000000000E+00 -0.27262950547E+04  0.27262950547E+04  0.50400000000E-02 0.  1.
   -5000001    1    1    2    0    0  0.22975603941E+03  0.17536496441E+03 -0.15493942734E+04  0.15958268462E+04  0.25000000000E+03 0.  0.
    5000001    1    1    2    0    0 -0.22975603941E+03 -0.17536496441E+03 -0.11220379077E+04  0.11853310823E+04  0.25000000000E+03 0.  0.
<mgrwt>
<rscale>  0 0.77349177E+03</rscale>
<asrwt>0</asrwt>
<pdfrwt beam="1">  1        1 0.41942990E+00 0.77349177E+03</pdfrwt>
<pdfrwt beam="2">  1       -1 0.84404442E-02 0.77349177E+03</pdfrwt>
<totfact> 0.81110799E+01</totfact>
</mgrwt>
</event>
<event>
 4    1  0.4305113E-006  0.7197053E+03  0.7818608E-02  0.9684115E-01
          1   -1    0    0  501    0  0.00000000000E+00  0.00000000000E+00  0.23231680462E+03  0.23231680467E+03  0.50400000000E-02 0.  1.
         -1   -1    0    0    0  501 -0.00000000000E+00 -0.00000000000E+00 -0.55740227265E+03  0.55740227267E+03  0.50400000000E-02 0. -1.
   -5000001    1    1    2    0    0 -0.78925210825E+02 -0.18243881105E+03 -0.34444272948E+03  0.46973812127E+03  0.25000000000E+03 0.  0.
    5000001    1    1    2    0    0  0.78925210825E+02  0.18243881105E+03  0.19357261453E+02  0.31998095608E+03  0.25000000000E+03 0.  0.
<mgrwt>
<rscale>  0 0.71970526E+03</rscale>
<asrwt>0</asrwt>
<pdfrwt beam="1">  1        1 0.35741047E-01 0.71970526E+03</pdfrwt>
<pdfrwt beam="2">  1       -1 0.85754196E-01 0.71970526E+03</pdfrwt>
<totfact> 0.16677064E+02</totfact>
</mgrwt>
</event>
<event>
 4    1  0.4305113E-006  0.6193672E+03  0.7818608E-02  0.9866020E-01
         -1   -1    0    0    0  501 -0.00000000000E+00  0.00000000000E+00  0.15989587740E+03  0.15989587748E+03  0.50400000000E-02 0. -1.
          1   -1    0    0  501    0  0.00000000000E+00 -0.00000000000E+00 -0.59978997026E+03  0.59978997028E+03  0.50400000000E-02 0.  1.
   -5000001    1    1    2    0    0 -0.19218935766E+02 -0.18134314735E+03 -0.20496307356E+03  0.37116649378E+03  0.25000000000E+03 0.  0.
    5000001    1    1    2    0    0  0.19218935766E+02  0.18134314735E+03 -0.23493101930E+03  0.38851935398E+03  0.25000000000E+03 0.  0.
<mgrwt>
<rscale>  0 0.61936724E+03</rscale>
<asrwt>0</asrwt>
<pdfrwt beam="1">  1        1 0.92275379E-01 0.61936724E+03</pdfrwt>
<pdfrwt beam="2">  1       -1 0.24599366E-01 0.61936724E+03</pdfrwt>
<totfact> 0.49851823E+02</totfact>
</mgrwt>
</event>
<event>
 4    1  0.4305113E-006  0.7312895E+03  0.7818608E-02  0.9665170E-01
          1   -1    0    0  501    0  0.00000000000E+00  0.00000000000E+00  0.27416457917E+03  0.27416457922E+03  0.50400000000E-02 0.  1.
         -1   -1    0    0    0  501 -0.00000000000E+00 -0.00000000000E+00 -0.48764895071E+03  0.48764895073E+03  0.50400000000E-02 0. -1.
   -5000001    1    1    2    0    0  0.25118281574E+02 -0.25683886490E+03 -0.36096087540E+02  0.36110948219E+03  0.25000000000E+03 0.  0.
    5000001    1    1    2    0    0 -0.25118281574E+02  0.25683886490E+03 -0.17738828400E+03  0.40070404776E+03  0.25000000000E+03 0.  0.
<mgrwt>
<rscale>  0 0.73128946E+03</rscale>
<asrwt>0</asrwt>
<pdfrwt beam="1">  1        1 0.42179166E-01 0.73128946E+03</pdfrwt>
<pdfrwt beam="2">  1       -1 0.75022916E-01 0.73128946E+03</pdfrwt>
<totfact> 0.17870801E+02</totfact>
</mgrwt>
</event>
<event>
 4    1  0.4305113E-006  0.6317492E+03  0.7818608E-02  0.9841641E-01
          1   -1    0    0  501    0  0.00000000000E+00  0.00000000000E+00  0.18672296458E+04  0.18672296458E+04  0.50400000000E-02 0.  1.
         -1   -1    0    0    0  501 -0.00000000000E+00 -0.00000000000E+00 -0.53435725146E+02  0.53435725384E+02  0.50400000000E-02 0. -1.
   -5000001    1    1    2    0    0 -0.18591726753E+03 -0.52011833842E+02  0.91453342529E+03  0.96754423527E+03  0.25000000000E+03 0.  0.
    5000001    1    1    2    0    0  0.18591726753E+03  0.52011833842E+02  0.89926049539E+03  0.95312113595E+03  0.25000000000E+03 0.  0.
<mgrwt>
<rscale>  0 0.63174922E+03</rscale>
<asrwt>0</asrwt>
<pdfrwt beam="1">  1        1 0.28726609E+00 0.63174922E+03</pdfrwt>
<pdfrwt beam="2">  1       -1 0.82208812E-02 0.63174922E+03</pdfrwt>
<totfact> 0.32618913E+02</totfact>
</mgrwt>
</event>
<event>
 4    1  0.4305113E-006  0.6388328E+03  0.7818608E-02  0.9827962E-01
          1   -1    0    0  501    0  0.00000000000E+00  0.00000000000E+00  0.16069571554E+03  0.16069571562E+03  0.50400000000E-02 0.  1.
         -1   -1    0    0    0  501 -0.00000000000E+00 -0.00000000000E+00 -0.63490697577E+03  0.63490697579E+03  0.50400000000E-02 0. -1.
   -5000001    1    1    2    0    0  0.11254042922E+01  0.19738908264E+03 -0.20755223770E+03  0.38018633307E+03  0.25000000000E+03 0.  0.
    5000001    1    1    2    0    0 -0.11254042922E+01 -0.19738908264E+03 -0.26665902253E+03  0.41541635834E+03  0.25000000000E+03 0.  0.
<mgrwt>
<rscale>  0 0.63883278E+03</rscale>
<asrwt>0</asrwt>
<pdfrwt beam="1">  1        1 0.24722418E-01 0.63883278E+03</pdfrwt>
<pdfrwt beam="2">  1       -1 0.97677995E-01 0.63883278E+03</pdfrwt>
<totfact> 0.20264444E+02</totfact>
</mgrwt>
</event>
<event>
 4    1  0.4305113E-006  0.1040427E+04  0.7818608E-02  0.9265284E-01
         -1   -1    0    0    0  501 -0.00000000000E+00  0.00000000000E+00  0.35996672700E+03  0.35996672703E+03  0.50400000000E-02 0. -1.
          1   -1    0    0  501    0  0.00000000000E+00 -0.00000000000E+00 -0.75179773823E+03  0.75179773824E+03  0.50400000000E-02 0.  1.
   -5000001    1    1    2    0    0  0.10946580553E+03  0.43466031287E+03 -0.28664810420E+03  0.58786009033E+03  0.25000000000E+03 0.  0.
    5000001    1    1    2    0    0 -0.10946580553E+03 -0.43466031287E+03 -0.10518290703E+03  0.52390437495E+03  0.25000000000E+03 0.  0.
<mgrwt>
<rscale>  0 0.10404272E+04</rscale>
<asrwt>0</asrwt>
<pdfrwt beam="1">  1        1 0.11566119E+00 0.10404272E+04</pdfrwt>
<pdfrwt beam="2">  1       -1 0.55379496E-01 0.10404272E+04</pdfrwt>
<totfact> 0.80454341E+01</totfact>
</mgrwt>
</event>
<event>
 4    1  0.4305113E-006  0.5165388E+03  0.7818608E-02  0.1009550E+00
          1   -1    0    0  501    0  0.00000000000E+00  0.00000000000E+00  0.16350949468E+04  0.16350949468E+04  0.50400000000E-02 0.  1.
         -1   -1    0    0    0  501 -0.00000000000E+00 -0.00000000000E+00 -0.40794621281E+02  0.40794621592E+02  0.50400000000E-02 0. -1.
   -5000001    1    1    2    0    0 -0.10975815259E+02  0.61070009425E+02  0.85811363228E+03  0.89594029961E+03  0.25000000000E+03 0.  0.
    5000001    1    1    2    0    0  0.10975815259E+02 -0.61070009425E+02  0.73618669323E+03  0.77994926877E+03  0.25000000000E+03 0.  0.
<mgrwt>
<rscale>  0 0.51653879E+03</rscale>
<asrwt>0</asrwt>
<pdfrwt beam="1">  1        1 0.25155312E+00 0.51653879E+03</pdfrwt>
<pdfrwt beam="2">  1       -1 0.62760943E-02 0.51653879E+03</pdfrwt>
<totfact> 0.71388346E+02</totfact>
</mgrwt>
</event>
<event>
 4    1  0.4305113E-006  0.8162606E+03  0.7818608E-02  0.9536774E-01
         -1   -1    0    0    0  501 -0.00000000000E+00  0.00000000000E+00  0.39236402366E+03  0.39236402369E+03  0.50400000000E-02 0. -1.
          1   -1    0    0  501    0  0.00000000000E+00 -0.00000000000E+00 -0.42453012426E+03  0.42453012429E+03  0.50400000000E-02 0.  1.
   -5000001    1    1    2    0    0  0.30329170949E+03  0.15933145715E+02  0.92770030300E+02  0.40416086488E+03  0.25000000000E+03 0.  0.
    5000001    1    1    2    0    0 -0.30329170949E+03 -0.15933145715E+02 -0.12493613090E+03  0.41273328310E+03  0.25000000000E+03 0.  0.
<mgrwt>
<rscale>  0 0.81626061E+03</rscale>
<asrwt>0</asrwt>
<pdfrwt beam="1">  1        1 0.65312327E-01 0.81626061E+03</pdfrwt>
<pdfrwt beam="2">  1       -1 0.60363696E-01 0.81626061E+03</pdfrwt>
<totfact> 0.15595270E+02</totfact>
</mgrwt>
</event>
<event>
 4    1  0.4305113E-006  0.9780227E+03  0.7818608E-02  0.9332983E-01
         -1   -1    0    0    0  501 -0.00000000000E+00  0.00000000000E+00  0.98017942667E+02  0.98017942797E+02  0.50400000000E-02 0. -1.
          1   -1    0    0  501    0  0.00000000000E+00 -0.00000000000E+00 -0.24396770114E+04  0.24396770114E+04  0.50400000000E-02 0.  1.
   -5000001    1    1    2    0    0  0.29684847309E+03 -0.27720994445E+03 -0.89055472701E+03  0.10102237827E+04  0.25000000000E+03 0.  0.
    5000001    1    1    2    0    0 -0.29684847309E+03  0.27720994445E+03 -0.14511043417E+04  0.15274711715E+04  0.25000000000E+03 0.  0.
<mgrwt>
<rscale>  0 0.97802274E+03</rscale>
<asrwt>0</asrwt>
<pdfrwt beam="1">  1        1 0.37533488E+00 0.97802274E+03</pdfrwt>
<pdfrwt beam="2">  1       -1 0.15079685E-01 0.97802274E+03</pdfrwt>
<totfact> 0.49462047E+01</totfact>
</mgrwt>
</event>
<event>
 4    1  0.4305113E-006  0.9116667E+03  0.7818608E-02  0.9411114E-01
          1   -1    0    0  501    0  0.00000000000E+00  0.00000000000E+00  0.14486928757E+04  0.14486928757E+04  0.50400000000E-02 0. -1.
         -1   -1    0    0    0  501 -0.00000000000E+00 -0.00000000000E+00 -0.14342864607E+03  0.14342864616E+03  0.50400000000E-02 0.  1.
   -5000001    1    1    2    0    0  0.18449706364E+03  0.22331700777E+03  0.10852791724E+04  0.11507565053E+04  0.25000000000E+03 0.  0.
    5000001    1    1    2    0    0 -0.18449706364E+03 -0.22331700777E+03  0.21998505726E+03  0.44136501660E+03  0.25000000000E+03 0.  0.
<mgrwt>
<rscale>  0 0.91166673E+03</rscale>
<asrwt>0</asrwt>
<pdfrwt beam="1">  1        1 0.22287583E+00 0.91166673E+03</pdfrwt>
<pdfrwt beam="2">  1       -1 0.22065945E-01 0.91166673E+03</pdfrwt>
<totfact> 0.12402972E+02</totfact>
</mgrwt>
</event>
<event>
 4    1  0.4305113E-006  0.6382027E+03  0.7818608E-02  0.9829171E-01
          1   -1    0    0  501    0  0.00000000000E+00  0.00000000000E+00  0.21798208632E+03  0.21798208638E+03  0.50400000000E-02 0. -1.
         -1   -1    0    0    0  501 -0.00000000000E+00 -0.00000000000E+00 -0.46712859419E+03  0.46712859421E+03  0.50400000000E-02 0.  1.
   -5000001    1    1    2    0    0  0.19793687231E+03 -0.54211335973E+01 -0.13619839636E+03  0.34678292530E+03  0.25000000000E+03 0.  0.
    5000001    1    1    2    0    0 -0.19793687231E+03  0.54211335973E+01 -0.11294811151E+03  0.33832775529E+03  0.25000000000E+03 0.  0.
<mgrwt>
<rscale>  0 0.63820268E+03</rscale>
<asrwt>0</asrwt>
<pdfrwt beam="1">  1        1 0.33535706E-01 0.63820268E+03</pdfrwt>
<pdfrwt beam="2">  1       -1 0.71865938E-01 0.63820268E+03</pdfrwt>
<totfact> 0.26373306E+02</totfact>
</mgrwt>
</event>
<event>
 4    1  0.4305113E-006  0.7535333E+03  0.7818608E-02  0.9629823E-01
          1   -1    0    0  501    0  0.00000000000E+00  0.00000000000E+00  0.11860563173E+04  0.11860563173E+04  0.50400000000E-02 0.  1.
         -1   -1    0    0    0  501 -0.00000000000E+00 -0.00000000000E+00 -0.11968496938E+03  0.11968496949E+03  0.50400000000E-02 0. -1.
   -5000001    1    1    2    0    0 -0.25758421611E+03 -0.53021213014E+02  0.35738944248E+03  0.50930157178E+03  0.25000000000E+03 0.  0.
    5000001    1    1    2    0    0  0.25758421611E+03  0.53021213014E+02  0.70898190544E+03  0.79643971502E+03  0.25000000000E+03 0.  0.
<mgrwt>
<rscale>  0 0.75353331E+03</rscale>
<asrwt>0</asrwt>
<pdfrwt beam="1">  1        1 0.18247021E+00 0.75353331E+03</pdfrwt>
<pdfrwt beam="2">  1       -1 0.18413072E-01 0.75353331E+03</pdfrwt>
<totfact> 0.26019874E+02</totfact>
</mgrwt>
</event>
<event>
 4    1  0.4305113E-006  0.7354204E+03  0.7818608E-02  0.9658505E-01
         -1   -1    0    0    0  501 -0.00000000000E+00  0.00000000000E+00  0.60163439741E+03  0.60163439743E+03  0.50400000000E-02 0. -1.
          1   -1    0    0  501    0  0.00000000000E+00 -0.00000000000E+00 -0.22473915541E+03  0.22473915547E+03  0.50400000000E-02 0.  1.
   -5000001    1    1    2    0    0 -0.25855975689E+02  0.25627784149E+03  0.27808803387E+03  0.45407027881E+03  0.25000000000E+03 0.  0.
    5000001    1    1    2    0    0  0.25855975689E+02 -0.25627784149E+03  0.98807208128E+02  0.37230327409E+03  0.25000000000E+03 0.  0.
<mgrwt>
<rscale>  0 0.73542044E+03</rscale>
<asrwt>0</asrwt>
<pdfrwt beam="1">  1        1 0.34575255E-01 0.73542044E+03</pdfrwt>
<pdfrwt beam="2">  1       -1 0.92559136E-01 0.73542044E+03</pdfrwt>
<totfact> 0.14714173E+02</totfact>
</mgrwt>
</event>
<event>
 4    1  0.4305113E-006  0.6354641E+03  0.7818608E-02  0.9834444E-01
         -1   -1    0    0    0  501 -0.00000000000E+00  0.00000000000E+00  0.97081738861E+02  0.97081738992E+02  0.50400000000E-02 0. -1.
          1   -1    0    0  501    0  0.00000000000E+00 -0.00000000000E+00 -0.10398829573E+04  0.10398829573E+04  0.50400000000E-02 0.  1.
   -5000001    1    1    2    0    0  0.16862018002E+03  0.98349863415E+02 -0.43801486709E+03  0.54079800715E+03  0.25000000000E+03 0.  0.
    5000001    1    1    2    0    0 -0.16862018002E+03 -0.98349863415E+02 -0.50478635131E+03  0.59616668912E+03  0.25000000000E+03 0.  0.
<mgrwt>
<rscale>  0 0.63546407E+03</rscale>
<asrwt>0</asrwt>
<pdfrwt beam="1">  1        1 0.15998199E+00 0.63546407E+03</pdfrwt>
<pdfrwt beam="2">  1       -1 0.14935653E-01 0.63546407E+03</pdfrwt>
<totfact> 0.47360889E+02</totfact>
</mgrwt>
</event>
<event>
 4    1  0.4305113E-006  0.7335880E+03  0.7818608E-02  0.9661456E-01
          1   -1    0    0  501    0  0.00000000000E+00  0.00000000000E+00  0.26026485387E+03  0.26026485392E+03  0.50400000000E-02 0.  1.
         -1   -1    0    0    0  501 -0.00000000000E+00 -0.00000000000E+00 -0.51692668733E+03  0.51692668735E+03  0.50400000000E-02 0. -1.
   -5000001    1    1    2    0    0  0.22426818791E+03  0.11250673089E+03 -0.27356548235E+02  0.35524972250E+03  0.25000000000E+03 0.  0.
    5000001    1    1    2    0    0 -0.22426818791E+03 -0.11250673089E+03 -0.22930528522E+03  0.42194181878E+03  0.25000000000E+03 0.  0.
<mgrwt>
<rscale>  0 0.73358803E+03</rscale>
<asrwt>0</asrwt>
<pdfrwt beam="1">  1        1 0.40040747E-01 0.73358803E+03</pdfrwt>
<pdfrwt beam="2">  1       -1 0.79527183E-01 0.73358803E+03</pdfrwt>
<totfact> 0.16909355E+02</totfact>
</mgrwt>
</event>
<event>
 4    1  0.4305113E-006  0.6373025E+03  0.7818608E-02  0.9830901E-01
          1   -1    0    0  501    0  0.00000000000E+00  0.00000000000E+00  0.24978453581E+04  0.24978453581E+04  0.50400000000E-02 0.  1.
         -1   -1    0    0    0  501 -0.00000000000E+00 -0.00000000000E+00 -0.40650487950E+02  0.40650488262E+02  0.50400000000E-02 0. -1.
   -5000001    1    1    2    0    0 -0.16811158338E+03  0.71078304459E+02  0.15299803800E+04  0.15609784089E+04  0.25000000000E+03 0.  0.
    5000001    1    1    2    0    0  0.16811158338E+03 -0.71078304459E+02  0.92721449016E+03  0.97751743749E+03  0.25000000000E+03 0.  0.
<mgrwt>
<rscale>  0 0.63730254E+03</rscale>
<asrwt>0</asrwt>
<pdfrwt beam="1">  1        1 0.38428391E+00 0.63730254E+03</pdfrwt>
<pdfrwt beam="2">  1       -1 0.62539211E-02 0.63730254E+03</pdfrwt>
<totfact> 0.18854600E+02</totfact>
</mgrwt>
</event>
<event>
 4    1  0.4305113E-006  0.5378098E+03  0.7818608E-02  0.1004356E+00
          1   -1    0    0  501    0  0.00000000000E+00  0.00000000000E+00  0.10932402106E+03  0.10932402117E+03  0.50400000000E-02 0.  1.
         -1   -1    0    0    0  501 -0.00000000000E+00 -0.00000000000E+00 -0.66142677242E+03  0.66142677244E+03  0.50400000000E-02 0. -1.
   -5000001    1    1    2    0    0  0.31196383385E+02  0.60636950801E+02 -0.17310740710E+03  0.31163476785E+03  0.25000000000E+03 0.  0.
    5000001    1    1    2    0    0 -0.31196383385E+02 -0.60636950801E+02 -0.37899534426E+03  0.45911602576E+03  0.25000000000E+03 0.  0.
<mgrwt>
<rscale>  0 0.53780976E+03</rscale>
<asrwt>0</asrwt>
<pdfrwt beam="1">  1        1 0.16819081E-01 0.53780976E+03</pdfrwt>
<pdfrwt beam="2">  1       -1 0.10175796E+00 0.53780976E+03</pdfrwt>
<totfact> 0.30810855E+02</totfact>
</mgrwt>
</event>
<event>
 4    1  0.4305113E-006  0.1566947E+04  0.7818608E-02  0.8841115E-01
          1   -1    0    0  501    0  0.00000000000E+00  0.00000000000E+00  0.24525517247E+04  0.24525517247E+04  0.50400000000E-02 0.  1.
         -1   -1    0    0    0  501 -0.00000000000E+00 -0.00000000000E+00 -0.25028246294E+03  0.25028246299E+03  0.50400000000E-02 0. -1.
   -5000001    1    1    2    0    0 -0.26328025765E+03  0.59687177889E+03  0.17128274614E+04  0.18498244044E+04  0.25000000000E+03 0.  0.
    5000001    1    1    2    0    0  0.26328025765E+03 -0.59687177889E+03  0.48944180037E+03  0.85300978333E+03  0.25000000000E+03 0.  0.
<mgrwt>
<rscale>  0 0.15669470E+04</rscale>
<asrwt>0</asrwt>
<pdfrwt beam="1">  1        1 0.37731566E+00 0.15669470E+04</pdfrwt>
<pdfrwt beam="2">  1       -1 0.38504993E-01 0.15669470E+04</pdfrwt>
<totfact> 0.91991224E+00</totfact>
</mgrwt>
</event>
<event>
 4    1  0.4305113E-006  0.9411132E+03  0.7818608E-02  0.9375599E-01
         -1   -1    0    0    0  501 -0.00000000000E+00  0.00000000000E+00  0.12728424185E+03  0.12728424195E+03  0.50400000000E-02 0. -1.
          1   -1    0    0  501    0  0.00000000000E+00 -0.00000000000E+00 -0.17395989193E+04  0.17395989193E+04  0.50400000000E-02 0.  1.
   -5000001    1    1    2    0    0 -0.38526710493E+03 -0.89622395091E+02 -0.90455776669E+03  0.10184241106E+04  0.25000000000E+03 0.  0.
    5000001    1    1    2    0    0  0.38526710493E+03  0.89622395091E+02 -0.70775691071E+03  0.84845905058E+03  0.25000000000E+03 0.  0.
<mgrwt>
<rscale>  0 0.94111323E+03</rscale>
<asrwt>0</asrwt>
<pdfrwt beam="1">  1        1 0.26763059E+00 0.94111323E+03</pdfrwt>
<pdfrwt beam="2">  1       -1 0.19582192E-01 0.94111323E+03</pdfrwt>
<totfact> 0.95731267E+01</totfact>
</mgrwt>
</event>
<event>
 4    1  0.4305113E-006  0.5444285E+03  0.7818608E-02  0.1002792E+00
         -1   -1    0    0    0  501 -0.00000000000E+00  0.00000000000E+00  0.74807394253E+03  0.74807394254E+03  0.50400000000E-02 0. -1.
          1   -1    0    0  501    0  0.00000000000E+00 -0.00000000000E+00 -0.99055188004E+02  0.99055188132E+02  0.50400000000E-02 0.  1.
   -5000001    1    1    2    0    0 -0.22435027133E+02 -0.10522367233E+03  0.31669006007E+03  0.41757388066E+03  0.25000000000E+03 0.  0.
    5000001    1    1    2    0    0  0.22435027133E+02  0.10522367233E+03  0.33232869445E+03  0.42955525002E+03  0.25000000000E+03 0.  0.
<mgrwt>
<rscale>  0 0.54442853E+03</rscale>
<asrwt>0</asrwt>
<pdfrwt beam="1">  1        1 0.15239259E-01 0.54442853E+03</pdfrwt>
<pdfrwt beam="2">  1       -1 0.11508830E+00 0.54442853E+03</pdfrwt>
<totfact> 0.26377303E+02</totfact>
</mgrwt>
</event>
<event>
 4    1  0.4305113E-006  0.5558677E+03  0.7818608E-02  0.1000145E+00
          1   -1    0    0  501    0  0.00000000000E+00  0.00000000000E+00  0.11715822182E+04  0.11715822182E+04  0.50400000000E-02 0. -1.
         -1   -1    0    0    0  501 -0.00000000000E+00 -0.00000000000E+00 -0.65934094762E+02  0.65934094955E+02  0.50400000000E-02 0.  1.
   -5000001    1    1    2    0    0 -0.70498492863E+02  0.89678988493E+02  0.64555210034E+03  0.70160521144E+03  0.25000000000E+03 0.  0.
    5000001    1    1    2    0    0  0.70498492863E+02 -0.89678988493E+02  0.46009602307E+03  0.53591110170E+03  0.25000000000E+03 0.  0.
<mgrwt>
<rscale>  0 0.55586766E+03</rscale>
<asrwt>0</asrwt>
<pdfrwt beam="1">  1        1 0.18024341E+00 0.55586766E+03</pdfrwt>
<pdfrwt beam="2">  1       -1 0.10143707E-01 0.55586766E+03</pdfrwt>
<totfact> 0.70479962E+02</totfact>
</mgrwt>
</event>
<event>
 4    1  0.4305113E-006  0.1264868E+04  0.7818608E-02  0.9057899E-01
         -1   -1    0    0    0  501 -0.00000000000E+00  0.00000000000E+00  0.34535819475E+03  0.34535819479E+03  0.50400000000E-02 0. -1.
          1   -1    0    0  501    0  0.00000000000E+00 -0.00000000000E+00 -0.11581380044E+04  0.11581380044E+04  0.50400000000E-02 0.  1.
   -5000001    1    1    2    0    0 -0.10613924377E+03  0.56395803201E+03 -0.51375319021E+03  0.80978796076E+03  0.25000000000E+03 0.  0.
    5000001    1    1    2    0    0  0.10613924377E+03 -0.56395803201E+03 -0.29902661943E+03  0.69370823843E+03  0.25000000000E+03 0.  0.
<mgrwt>
<rscale>  0 0.12648675E+04</rscale>
<asrwt>0</asrwt>
<pdfrwt beam="1">  1        1 0.17817508E+00 0.12648675E+04</pdfrwt>
<pdfrwt beam="2">  1       -1 0.53132030E-01 0.12648675E+04</pdfrwt>
<totfact> 0.40361925E+01</totfact>
</mgrwt>
</event>
<event>
 4    1  0.4305113E-006  0.7334247E+03  0.7818608E-02  0.9661719E-01
          1   -1    0    0  501    0  0.00000000000E+00  0.00000000000E+00  0.76208931237E+02  0.76208931404E+02  0.50400000000E-02 0.  1.
         -1   -1    0    0    0  501 -0.00000000000E+00 -0.00000000000E+00 -0.17645956033E+04  0.17645956033E+04  0.50400000000E-02 0. -1.
   -5000001    1    1    2    0    0 -0.13391983420E+03 -0.23227717589E+03 -0.82028531218E+03  0.89847381810E+03  0.25000000000E+03 0.  0.
    5000001    1    1    2    0    0  0.13391983420E+03  0.23227717589E+03 -0.86810135985E+03  0.94233071658E+03  0.25000000000E+03 0.  0.
<mgrwt>
<rscale>  0 0.73342469E+03</rscale>
<asrwt>0</asrwt>
<pdfrwt beam="1">  1        1 0.11724452E-01 0.73342469E+03</pdfrwt>
<pdfrwt beam="2">  1       -1 0.27147622E+00 0.73342469E+03</pdfrwt>
<totfact> 0.28265252E+01</totfact>
</mgrwt>
</event>
<event>
 4    1  0.4305113E-006  0.7906309E+03  0.7818608E-02  0.9573678E-01
         -1   -1    0    0    0  501 -0.00000000000E+00  0.00000000000E+00  0.11361748662E+03  0.11361748673E+03  0.50400000000E-02 0.  1.
          1   -1    0    0  501    0  0.00000000000E+00 -0.00000000000E+00 -0.13754424198E+04  0.13754424198E+04  0.50400000000E-02 0. -1.
   -5000001    1    1    2    0    0  0.15743741952E+03 -0.25467753233E+03 -0.75190599767E+03  0.84705951141E+03  0.25000000000E+03 0.  0.
    5000001    1    1    2    0    0 -0.15743741952E+03  0.25467753233E+03 -0.50991893549E+03  0.64200039510E+03  0.25000000000E+03 0.  0.
<mgrwt>
<rscale>  0 0.79063091E+03</rscale>
<asrwt>0</asrwt>
<pdfrwt beam="1">  1        1 0.21160651E+00 0.79063091E+03</pdfrwt>
<pdfrwt beam="2">  1       -1 0.17479614E-01 0.79063091E+03</pdfrwt>
<totfact> 0.20743128E+02</totfact>
</mgrwt>
</event>
<event>
 4    1  0.4305113E-006  0.7673886E+03  0.7818608E-02  0.9608459E-01
         -1   -1    0    0    0  501 -0.00000000000E+00  0.00000000000E+00  0.12889944478E+03  0.12889944488E+03  0.50400000000E-02 0. -1.
          1   -1    0    0  501    0  0.00000000000E+00 -0.00000000000E+00 -0.11421407781E+04  0.11421407781E+04  0.50400000000E-02 0.  1.
   -5000001    1    1    2    0    0 -0.20514972817E+02 -0.28569798048E+03 -0.59231995815E+03  0.70383743363E+03  0.25000000000E+03 0.  0.
    5000001    1    1    2    0    0  0.20514972817E+02  0.28569798048E+03 -0.42092137513E+03  0.56720278931E+03  0.25000000000E+03 0.  0.
<mgrwt>
<rscale>  0 0.76738859E+03</rscale>
<asrwt>0</asrwt>
<pdfrwt beam="1">  1        1 0.17571396E+00 0.76738859E+03</pdfrwt>
<pdfrwt beam="2">  1       -1 0.19830685E-01 0.76738859E+03</pdfrwt>
<totfact> 0.24751237E+02</totfact>
</mgrwt>
</event>
<event>
 4    1  0.4305113E-006  0.5309964E+03  0.7818608E-02  0.1005991E+00
          1   -1    0    0  501    0  0.00000000000E+00  0.00000000000E+00  0.36880937582E+03  0.36880937586E+03  0.50400000000E-02 0.  1.
         -1   -1    0    0    0  501 -0.00000000000E+00 -0.00000000000E+00 -0.19112665281E+03  0.19112665287E+03  0.50400000000E-02 0. -1.
   -5000001    1    1    2    0    0 -0.77461990840E+02  0.32733253794E+02  0.56900687177E+02  0.26983238154E+03  0.25000000000E+03 0.  0.
    5000001    1    1    2    0    0  0.77461990840E+02 -0.32733253794E+02  0.12078203584E+03  0.29010364718E+03  0.25000000000E+03 0.  0.
<mgrwt>
<rscale>  0 0.53099643E+03</rscale>
<asrwt>0</asrwt>
<pdfrwt beam="1">  1        1 0.56739904E-01 0.53099643E+03</pdfrwt>
<pdfrwt beam="2">  1       -1 0.29404101E-01 0.53099643E+03</pdfrwt>
<totfact> 0.71149577E+02</totfact>
</mgrwt>
</event>
<event>
 4    1  0.4305113E-006  0.5840526E+03  0.7818608E-02  0.9939056E-01
          1   -1    0    0  501    0  0.00000000000E+00  0.00000000000E+00  0.11033491718E+03  0.11033491729E+03  0.50400000000E-02 0.  1.
         -1   -1    0    0    0  501 -0.00000000000E+00 -0.00000000000E+00 -0.77291361525E+03  0.77291361527E+03  0.50400000000E-02 0. -1.
   -5000001    1    1    2    0    0  0.97439534600E+02 -0.99005186333E+01 -0.50495020388E+03  0.57189788562E+03  0.25000000000E+03 0.  0.
    5000001    1    1    2    0    0 -0.97439534600E+02  0.99005186333E+01 -0.15762849420E+03  0.31135064695E+03  0.25000000000E+03 0.  0.
<mgrwt>
<rscale>  0 0.58405260E+03</rscale>
<asrwt>0</asrwt>
<pdfrwt beam="1">  1        1 0.16974603E-01 0.58405260E+03</pdfrwt>
<pdfrwt beam="2">  1       -1 0.11890978E+00 0.58405260E+03</pdfrwt>
<totfact> 0.21084658E+02</totfact>
</mgrwt>
</event>
<event>
 4    1  0.4305113E-006  0.5776173E+03  0.7818608E-02  0.9952963E-01
         -1   -1    0    0    0  501 -0.00000000000E+00  0.00000000000E+00  0.19973813485E+03  0.19973813491E+03  0.50400000000E-02 0.  1.
          1   -1    0    0  501    0  0.00000000000E+00 -0.00000000000E+00 -0.41759892366E+03  0.41759892369E+03  0.50400000000E-02 0. -1.
   -5000001    1    1    2    0    0 -0.36958324917E+02  0.71350935159E+02 -0.23742045484E+03  0.35401320047E+03  0.25000000000E+03 0.  0.
    5000001    1    1    2    0    0  0.36958324917E+02 -0.71350935159E+02  0.19559666026E+02  0.26332385814E+03  0.25000000000E+03 0.  0.
<mgrwt>
<rscale>  0 0.57761728E+03</rscale>
<asrwt>0</asrwt>
<pdfrwt beam="1">  1        1 0.64245988E-01 0.57761728E+03</pdfrwt>
<pdfrwt beam="2">  1       -1 0.30728944E-01 0.57761728E+03</pdfrwt>
<totfact> 0.55941380E+02</totfact>
</mgrwt>
</event>
<event>
 4    1  0.4305113E-006  0.1039021E+04  0.7818608E-02  0.9266753E-01
          1   -1    0    0  501    0  0.00000000000E+00  0.00000000000E+00  0.24865010100E+03  0.24865010105E+03  0.50400000000E-02 0. -1.
         -1   -1    0    0    0  501 -0.00000000000E+00 -0.00000000000E+00 -0.10854264968E+04  0.10854264968E+04  0.50400000000E-02 0.  1.
   -5000001    1    1    2    0    0 -0.91567327466E+02  0.43656492068E+03 -0.30058469869E+03  0.59314809830E+03  0.25000000000E+03 0.  0.
    5000001    1    1    2    0    0  0.91567327466E+02 -0.43656492068E+03 -0.53619169714E+03  0.74092849960E+03  0.25000000000E+03 0.  0.
<mgrwt>
<rscale>  0 0.10390215E+04</rscale>
<asrwt>0</asrwt>
<pdfrwt beam="1">  1        1 0.38253862E-01 0.10390215E+04</pdfrwt>
<pdfrwt beam="2">  1       -1 0.16698869E+00 0.10390215E+04</pdfrwt>
<totfact> 0.29027046E+01</totfact>
</mgrwt>
</event>
<event>
 4    1  0.4305113E-006  0.6761248E+03  0.7818608E-02  0.9758956E-01
          1   -1    0    0  501    0  0.00000000000E+00  0.00000000000E+00  0.32907582376E+04  0.32907582376E+04  0.50400000000E-02 0.  1.
         -1   -1    0    0    0  501 -0.00000000000E+00 -0.00000000000E+00 -0.34729434948E+02  0.34729435313E+02  0.50400000000E-02 0. -1.
   -5000001    1    1    2    0    0  0.22204774234E+03 -0.24891436198E+02  0.18402153572E+04  0.18705125886E+04  0.25000000000E+03 0.  0.
    5000001    1    1    2    0    0 -0.22204774234E+03  0.24891436198E+02  0.14158134455E+04  0.14549750843E+04  0.25000000000E+03 0.  0.
<mgrwt>
<rscale>  0 0.67612477E+03</rscale>
<asrwt>0</asrwt>
<pdfrwt beam="1">  1        1 0.50627042E+00 0.67612477E+03</pdfrwt>
<pdfrwt beam="2">  1       -1 0.53429909E-02 0.67612477E+03</pdfrwt>
<totfact> 0.65632671E+01</totfact>
</mgrwt>
</event>
<event>
 4    1  0.4305113E-006  0.7381409E+03  0.7818608E-02  0.9654141E-01
         -1   -1    0    0    0  501 -0.00000000000E+00  0.00000000000E+00  0.72934498202E+02  0.72934498376E+02  0.50400000000E-02 0. -1.
          1   -1    0    0  501    0  0.00000000000E+00 -0.00000000000E+00 -0.18676071571E+04  0.18676071572E+04  0.50400000000E-02 0.  1.
   -5000001    1    1    2    0    0 -0.14367308532E+03  0.16041893437E+03 -0.13320042161E+04  0.13722650697E+04  0.25000000000E+03 0.  0.
    5000001    1    1    2    0    0  0.14367308532E+03 -0.16041893437E+03 -0.46266844288E+03  0.56827658581E+03  0.25000000000E+03 0.  0.
<mgrwt>
<rscale>  0 0.73814088E+03</rscale>
<asrwt>0</asrwt>
<pdfrwt beam="1">  1        1 0.28732414E+00 0.73814088E+03</pdfrwt>
<pdfrwt beam="2">  1       -1 0.11220693E-01 0.73814088E+03</pdfrwt>
<totfact> 0.19778427E+02</totfact>
</mgrwt>
</event>
<event>
 4    1  0.4305113E-006  0.9635391E+03  0.7818608E-02  0.9349464E-01
         -1   -1    0    0    0  501 -0.00000000000E+00  0.00000000000E+00  0.79900807077E+03  0.79900807078E+03  0.50400000000E-02 0. -1.
          1   -1    0    0  501    0  0.00000000000E+00 -0.00000000000E+00 -0.29048752901E+03  0.29048752905E+03  0.50400000000E-02 0.  1.
   -5000001    1    1    2    0    0  0.27416747546E+03 -0.72457665409E+02 -0.83415218059E+02  0.38713823950E+03  0.25000000000E+03 0.  0.
    5000001    1    1    2    0    0 -0.27416747546E+03  0.72457665409E+02  0.59193575982E+03  0.70235736034E+03  0.25000000000E+03 0.  0.
<mgrwt>
<rscale>  0 0.96353906E+03</rscale>
<asrwt>0</asrwt>
<pdfrwt beam="1">  1        1 0.44690390E-01 0.96353906E+03</pdfrwt>
<pdfrwt beam="2">  1       -1 0.12292432E+00 0.96353906E+03</pdfrwt>
<totfact> 0.53619147E+01</totfact>
</mgrwt>
</event>
<event>
 4    1  0.4305113E-006  0.9199824E+03  0.7818608E-02  0.9400941E-01
          1   -1    0    0  501    0  0.00000000000E+00  0.00000000000E+00  0.25598699656E+04  0.25598699656E+04  0.50400000000E-02 0. -1.
         -1   -1    0    0    0  501 -0.00000000000E+00 -0.00000000000E+00 -0.82657293453E+02  0.82657293607E+02  0.50400000000E-02 0.  1.
   -5000001    1    1    2    0    0  0.28552154913E+03  0.16103927889E+03  0.65250464999E+03  0.77182803954E+03  0.25000000000E+03 0.  0.
    5000001    1    1    2    0    0 -0.28552154913E+03 -0.16103927889E+03  0.18247080222E+04  0.18706992197E+04  0.25000000000E+03 0.  0.
<mgrwt>
<rscale>  0 0.91998244E+03</rscale>
<asrwt>0</asrwt>
<pdfrwt beam="1">  1        1 0.39382613E+00 0.91998244E+03</pdfrwt>
<pdfrwt beam="2">  1       -1 0.12716507E-01 0.91998244E+03</pdfrwt>
<totfact> 0.54253719E+01</totfact>
</mgrwt>
</event>
<event>
 4    1  0.4305113E-006  0.6562952E+03  0.7818608E-02  0.9795038E-01
          1   -1    0    0  501    0  0.00000000000E+00  0.00000000000E+00  0.21386328787E+03  0.21386328793E+03  0.50400000000E-02 0.  1.
         -1   -1    0    0    0  501 -0.00000000000E+00 -0.00000000000E+00 -0.50350320799E+03  0.50350320801E+03  0.50400000000E-02 0. -1.
   -5000001    1    1    2    0    0  0.43603470833E+02 -0.19234239229E+03 -0.58171729274E+02  0.32369863859E+03  0.25000000000E+03 0.  0.
    5000001    1    1    2    0    0 -0.43603470833E+02  0.19234239229E+03 -0.23146819084E+03  0.39366785735E+03  0.25000000000E+03 0.  0.
<mgrwt>
<rscale>  0 0.65629521E+03</rscale>
<asrwt>0</asrwt>
<pdfrwt beam="1">  1        1 0.32902044E-01 0.65629521E+03</pdfrwt>
<pdfrwt beam="2">  1       -1 0.77462032E-01 0.65629521E+03</pdfrwt>
<totfact> 0.23117924E+02</totfact>
</mgrwt>
</event>
<event>
 4    1  0.4305113E-006  0.1027085E+04  0.7818608E-02  0.9279327E-01
          1   -1    0    0  501    0  0.00000000000E+00  0.00000000000E+00  0.86357136827E+03  0.86357136828E+03  0.50400000000E-02 0.  1.
         -1   -1    0    0    0  501 -0.00000000000E+00 -0.00000000000E+00 -0.30538989857E+03  0.30538989861E+03  0.50400000000E-02 0. -1.
   -5000001    1    1    2    0    0  0.42294936292E+03  0.14942862749E+03  0.28284731768E+03  0.58627440967E+03  0.25000000000E+03 0.  0.
    5000001    1    1    2    0    0 -0.42294936292E+03 -0.14942862749E+03  0.27533415202E+03  0.58268685722E+03  0.25000000000E+03 0.  0.
<mgrwt>
<rscale>  0 0.10270851E+04</rscale>
<asrwt>0</asrwt>
<pdfrwt beam="1">  1        1 0.13285713E+00 0.10270851E+04</pdfrwt>
<pdfrwt beam="2">  1       -1 0.46983062E-01 0.10270851E+04</pdfrwt>
<totfact> 0.88152221E+01</totfact>
</mgrwt>
</event>
<event>
 4    1  0.4305113E-006  0.6605920E+03  0.7818608E-02  0.9787105E-01
          1   -1    0    0  501    0  0.00000000000E+00  0.00000000000E+00  0.26565786714E+03  0.26565786719E+03  0.50400000000E-02 0. -1.
         -1   -1    0    0    0  501 -0.00000000000E+00 -0.00000000000E+00 -0.41066144872E+03  0.41066144875E+03  0.50400000000E-02 0.  1.
   -5000001    1    1    2    0    0  0.32595058594E+02  0.20849932473E+03 -0.26022282603E+02  0.32819440192E+03  0.25000000000E+03 0.  0.
    5000001    1    1    2    0    0 -0.32595058594E+02 -0.20849932473E+03 -0.11898129898E+03  0.34812491402E+03  0.25000000000E+03 0.  0.
<mgrwt>
<rscale>  0 0.66059199E+03</rscale>
<asrwt>0</asrwt>
<pdfrwt beam="1">  1        1 0.40870441E-01 0.66059199E+03</pdfrwt>
<pdfrwt beam="2">  1       -1 0.63178684E-01 0.66059199E+03</pdfrwt>
<totfact> 0.26488138E+02</totfact>
</mgrwt>
</event>
<event>
 4    1  0.4305113E-006  0.6578583E+03  0.7818608E-02  0.9792144E-01
         -1   -1    0    0    0  501 -0.00000000000E+00  0.00000000000E+00  0.13753350075E+03  0.13753350084E+03  0.50400000000E-02 0. -1.
          1   -1    0    0  501    0  0.00000000000E+00 -0.00000000000E+00 -0.78667649349E+03  0.78667649351E+03  0.50400000000E-02 0.  1.
   -5000001    1    1    2    0    0 -0.13992862302E+03  0.30474940303E+02 -0.54752522733E+03  0.61870236470E+03  0.25000000000E+03 0.  0.
    5000001    1    1    2    0    0  0.13992862302E+03 -0.30474940303E+02 -0.10161776542E+03  0.30550762965E+03  0.25000000000E+03 0.  0.
<mgrwt>
<rscale>  0 0.65785826E+03</rscale>
<asrwt>0</asrwt>
<pdfrwt beam="1">  1        1 0.12102715E+00 0.65785826E+03</pdfrwt>
<pdfrwt beam="2">  1       -1 0.21159001E-01 0.65785826E+03</pdfrwt>
<totfact> 0.42729679E+02</totfact>
</mgrwt>
</event>
<event>
 4    1  0.4305113E-006  0.1021972E+04  0.7818608E-02  0.9284769E-01
          1   -1    0    0  501    0  0.00000000000E+00  0.00000000000E+00  0.68462337351E+03  0.68462337353E+03  0.50400000000E-02 0.  1.
         -1   -1    0    0    0  501 -0.00000000000E+00 -0.00000000000E+00 -0.38138732393E+03  0.38138732396E+03  0.50400000000E-02 0. -1.
   -5000001    1    1    2    0    0 -0.39583366882E+03 -0.11510866808E+03 -0.25007893170E+02  0.48276256437E+03  0.25000000000E+03 0.  0.
    5000001    1    1    2    0    0  0.39583366882E+03  0.11510866808E+03  0.32824394275E+03  0.58324813312E+03  0.25000000000E+03 0.  0.
<mgrwt>
<rscale>  0 0.10219720E+04</rscale>
<asrwt>0</asrwt>
<pdfrwt beam="1">  1        1 0.10532667E+00 0.10219720E+04</pdfrwt>
<pdfrwt beam="2">  1       -1 0.58674974E-01 0.10219720E+04</pdfrwt>
<totfact> 0.83065384E+01</totfact>
</mgrwt>
</event>
<event>
 4    1  0.4305113E-006  0.8752113E+03  0.7818608E-02  0.9457110E-01
         -1   -1    0    0    0  501 -0.00000000000E+00  0.00000000000E+00  0.16363039924E+03  0.16363039931E+03  0.50400000000E-02 0. -1.
          1   -1    0    0  501    0  0.00000000000E+00 -0.00000000000E+00 -0.11703124436E+04  0.11703124436E+04  0.50400000000E-02 0.  1.
   -5000001    1    1    2    0    0  0.33671927548E+03 -0.66873949790E+02 -0.66425634959E+03  0.78840883659E+03  0.25000000000E+03 0.  0.
    5000001    1    1    2    0    0 -0.33671927548E+03  0.66873949790E+02 -0.34242569480E+03  0.54553400636E+03  0.25000000000E+03 0.  0.
<mgrwt>
<rscale>  0 0.87521127E+03</rscale>
<asrwt>0</asrwt>
<pdfrwt beam="1">  1        1 0.18004806E+00 0.87521127E+03</pdfrwt>
<pdfrwt beam="2">  1       -1 0.25173908E-01 0.87521127E+03</pdfrwt>
<totfact> 0.15671084E+02</totfact>
</mgrwt>
</event>
<event>
 4    1  0.4305113E-006  0.8500599E+03  0.7818608E-02  0.9490257E-01
          1   -1    0    0  501    0  0.00000000000E+00  0.00000000000E+00  0.33768687707E+03  0.33768687711E+03  0.50400000000E-02 0. -1.
         -1   -1    0    0    0  501 -0.00000000000E+00 -0.00000000000E+00 -0.53496444682E+03  0.53496444685E+03  0.50400000000E-02 0.  1.
   -5000001    1    1    2    0    0 -0.18241332955E+03 -0.19077946120E+03  0.12739233919E+03  0.38522750900E+03  0.25000000000E+03 0.  0.
    5000001    1    1    2    0    0  0.18241332955E+03  0.19077946120E+03 -0.32466990894E+03  0.48742381495E+03  0.25000000000E+03 0.  0.
<mgrwt>
<rscale>  0 0.85005994E+03</rscale>
<asrwt>0</asrwt>
<pdfrwt beam="1">  1        1 0.51951828E-01 0.85005994E+03</pdfrwt>
<pdfrwt beam="2">  1       -1 0.82302222E-01 0.85005994E+03</pdfrwt>
<totfact> 0.11139070E+02</totfact>
</mgrwt>
</event>
<event>
 4    1  0.4305113E-006  0.7137444E+03  0.7818608E-02  0.9694012E-01
          1   -1    0    0  501    0  0.00000000000E+00  0.00000000000E+00  0.55273974926E+03  0.55273974928E+03  0.50400000000E-02 0. -1.
         -1   -1    0    0    0  501 -0.00000000000E+00 -0.00000000000E+00 -0.23041181911E+03  0.23041181916E+03  0.50400000000E-02 0.  1.
   -5000001    1    1    2    0    0 -0.11143002519E+03 -0.20877409407E+03  0.57915149022E+02  0.34908084645E+03  0.25000000000E+03 0.  0.
    5000001    1    1    2    0    0  0.11143002519E+03  0.20877409407E+03  0.26441278113E+03  0.43407072200E+03  0.25000000000E+03 0.  0.
<mgrwt>
<rscale>  0 0.71374441E+03</rscale>
<asrwt>0</asrwt>
<pdfrwt beam="1">  1        1 0.85036884E-01 0.71374441E+03</pdfrwt>
<pdfrwt beam="2">  1       -1 0.35447972E-01 0.71374441E+03</pdfrwt>
<totfact> 0.29563458E+02</totfact>
</mgrwt>
</event>
<event>
 4    1  0.4305113E-006  0.6397977E+03  0.7818608E-02  0.9826114E-01
          1   -1    0    0  501    0  0.00000000000E+00  0.00000000000E+00  0.73597548002E+03  0.73597548003E+03  0.50400000000E-02 0.  1.
         -1   -1    0    0    0  501 -0.00000000000E+00 -0.00000000000E+00 -0.13904710287E+03  0.13904710296E+03  0.50400000000E-02 0. -1.
   -5000001    1    1    2    0    0 -0.80781926893E+02 -0.17984901448E+03  0.34092477503E+03  0.46647731987E+03  0.25000000000E+03 0.  0.
    5000001    1    1    2    0    0  0.80781926893E+02  0.17984901448E+03  0.25600360212E+03  0.40854526312E+03  0.25000000000E+03 0.  0.
<mgrwt>
<rscale>  0 0.63979765E+03</rscale>
<asrwt>0</asrwt>
<pdfrwt beam="1">  1        1 0.11322700E+00 0.63979765E+03</pdfrwt>
<pdfrwt beam="2">  1       -1 0.21391862E-01 0.63979765E+03</pdfrwt>
<totfact> 0.46569062E+02</totfact>
</mgrwt>
</event>
<event>
 4    1  0.4305113E-006  0.6314555E+03  0.7818608E-02  0.9842213E-01
         -1   -1    0    0    0  501 -0.00000000000E+00  0.00000000000E+00  0.74237619201E+02  0.74237619373E+02  0.50400000000E-02 0. -1.
          1   -1    0    0  501    0  0.00000000000E+00 -0.00000000000E+00 -0.13427696261E+04  0.13427696261E+04  0.50400000000E-02 0.  1.
   -5000001    1    1    2    0    0 -0.96630091026E+02 -0.16617804931E+03 -0.66840937736E+03  0.73906942455E+03  0.25000000000E+03 0.  0.
    5000001    1    1    2    0    0  0.96630091026E+02  0.16617804931E+03 -0.60012262954E+03  0.67793782093E+03  0.25000000000E+03 0.  0.
<mgrwt>
<rscale>  0 0.63145553E+03</rscale>
<asrwt>0</asrwt>
<pdfrwt beam="1">  1        1 0.20657993E+00 0.63145553E+03</pdfrwt>
<pdfrwt beam="2">  1       -1 0.11421173E-01 0.63145553E+03</pdfrwt>
<totfact> 0.43980727E+02</totfact>
</mgrwt>
</event>
<event>
 4    1  0.4305113E-006  0.6297468E+03  0.7818608E-02  0.9845543E-01
         -1   -1    0    0    0  501 -0.00000000000E+00  0.00000000000E+00  0.47478138581E+03  0.47478138583E+03  0.50400000000E-02 0. -1.
          1   -1    0    0  501    0  0.00000000000E+00 -0.00000000000E+00 -0.20882299994E+03  0.20882300000E+03  0.50400000000E-02 0.  1.
   -5000001    1    1    2    0    0  0.81960389118E+02  0.17095280963E+03  0.10419943741E+03  0.33060534064E+03  0.25000000000E+03 0.  0.
    5000001    1    1    2    0    0 -0.81960389118E+02 -0.17095280963E+03  0.16175894846E+03  0.35299904520E+03  0.25000000000E+03 0.  0.
<mgrwt>
<rscale>  0 0.62974685E+03</rscale>
<asrwt>0</asrwt>
<pdfrwt beam="1">  1        1 0.32126616E-01 0.62974685E+03</pdfrwt>
<pdfrwt beam="2">  1       -1 0.73043289E-01 0.62974685E+03</pdfrwt>
<totfact> 0.26968787E+02</totfact>
</mgrwt>
</event>
<event>
 4    1  0.4305113E-006  0.5243985E+03  0.7818608E-02  0.1007600E+00
          1   -1    0    0  501    0  0.00000000000E+00  0.00000000000E+00  0.30900347349E+04  0.30900347349E+04  0.50400000000E-02 0.  1.
         -1   -1    0    0    0  501 -0.00000000000E+00 -0.00000000000E+00 -0.22248433755E+02  0.22248434326E+02  0.50400000000E-02 0. -1.
   -5000001    1    1    2    0    0  0.71384924385E+02  0.28956026034E+02  0.14286960914E+04  0.14524485465E+04  0.25000000000E+03 0.  0.
    5000001    1    1    2    0    0 -0.71384924385E+02 -0.28956026034E+02  0.16390902098E+04  0.16598346227E+04  0.25000000000E+03 0.  0.
<mgrwt>
<rscale>  0 0.52439845E+03</rscale>
<asrwt>0</asrwt>
<pdfrwt beam="1">  1        1 0.47538965E+00 0.52439845E+03</pdfrwt>
<pdfrwt beam="2">  1       -1 0.34228382E-02 0.52439845E+03</pdfrwt>
<totfact> 0.18506407E+02</totfact>
</mgrwt>
</event>
<event>
 4    1  0.4305113E-006  0.7777545E+03  0.7818608E-02  0.9592787E-01
          1   -1    0    0  501    0  0.00000000000E+00  0.00000000000E+00  0.20264758348E+04  0.20264758348E+04  0.50400000000E-02 0.  1.
         -1   -1    0    0    0  501 -0.00000000000E+00 -0.00000000000E+00 -0.74624882235E+02  0.74624882405E+02  0.50400000000E-02 0. -1.
   -5000001    1    1    2    0    0 -0.20552291399E+03  0.14721050068E+02  0.15570243850E+04  0.15903714386E+04  0.25000000000E+03 0.  0.
    5000001    1    1    2    0    0  0.20552291399E+03 -0.14721050068E+02  0.39482656756E+03  0.51072927853E+03  0.25000000000E+03 0.  0.
<mgrwt>
<rscale>  0 0.77775451E+03</rscale>
<asrwt>0</asrwt>
<pdfrwt beam="1">  1        1 0.31176556E+00 0.77775451E+03</pdfrwt>
<pdfrwt beam="2">  1       -1 0.11480750E-01 0.77775451E+03</pdfrwt>
<totfact> 0.14881041E+02</totfact>
</mgrwt>
</event>
<event>
 4    1  0.4305113E-006  0.6998658E+03  0.7818608E-02  0.9717462E-01
         -1   -1    0    0    0  501 -0.00000000000E+00  0.00000000000E+00  0.14929617019E+03  0.14929617028E+03  0.50400000000E-02 0. -1.
          1   -1    0    0  501    0  0.00000000000E+00 -0.00000000000E+00 -0.82020218748E+03  0.82020218750E+03  0.50400000000E-02 0.  1.
   -5000001    1    1    2    0    0 -0.23215300528E+03 -0.70728441243E+02 -0.38045839824E+03  0.51589351910E+03  0.25000000000E+03 0.  0.
    5000001    1    1    2    0    0  0.23215300528E+03  0.70728441243E+02 -0.29044761905E+03  0.45360483867E+03  0.25000000000E+03 0.  0.
<mgrwt>
<rscale>  0 0.69986583E+03</rscale>
<asrwt>0</asrwt>
<pdfrwt beam="1">  1        1 0.12618495E+00 0.69986583E+03</pdfrwt>
<pdfrwt beam="2">  1       -1 0.22968642E-01 0.69986583E+03</pdfrwt>
<totfact> 0.34765995E+02</totfact>
</mgrwt>
</event>
<event>
 4    1  0.4305113E-006  0.7722130E+03  0.7818608E-02  0.9601132E-01
         -1   -1    0    0    0  501 -0.00000000000E+00  0.00000000000E+00  0.14476962973E+04  0.14476962973E+04  0.50400000000E-02 0. -1.
          1   -1    0    0  501    0  0.00000000000E+00 -0.00000000000E+00 -0.10297617322E+03  0.10297617334E+03  0.50400000000E-02 0.  1.
   -5000001    1    1    2    0    0 -0.13341124529E+03 -0.21915491749E+03  0.38309215289E+03  0.52448740293E+03  0.25000000000E+03 0.  0.
    5000001    1    1    2    0    0  0.13341124529E+03  0.21915491749E+03  0.96162797116E+03  0.10261850677E+04  0.25000000000E+03 0.  0.
<mgrwt>
<rscale>  0 0.77221299E+03</rscale>
<asrwt>0</asrwt>
<pdfrwt beam="1">  1        1 0.15842489E-01 0.77221299E+03</pdfrwt>
<pdfrwt beam="2">  1       -1 0.22272250E+00 0.77221299E+03</pdfrwt>
<totfact> 0.38737917E+01</totfact>
</mgrwt>
</event>
<event>
 4    1  0.4305113E-006  0.9869903E+03  0.7818608E-02  0.9322930E-01
          1   -1    0    0  501    0  0.00000000000E+00  0.00000000000E+00  0.62613952454E+03  0.62613952456E+03  0.50400000000E-02 0.  1.
         -1   -1    0    0    0  501 -0.00000000000E+00 -0.00000000000E+00 -0.38895076515E+03  0.38895076518E+03  0.50400000000E-02 0. -1.
   -5000001    1    1    2    0    0 -0.25505119772E+03  0.32346984938E+03  0.90075377517E+01  0.48193878517E+03  0.25000000000E+03 0.  0.
    5000001    1    1    2    0    0  0.25505119772E+03 -0.32346984938E+03  0.22818122164E+03  0.53315150457E+03  0.25000000000E+03 0.  0.
<mgrwt>
<rscale>  0 0.98699027E+03</rscale>
<asrwt>0</asrwt>
<pdfrwt beam="1">  1        1 0.96329158E-01 0.98699027E+03</pdfrwt>
<pdfrwt beam="2">  1       -1 0.59838579E-01 0.98699027E+03</pdfrwt>
<totfact> 0.91454003E+01</totfact>
</mgrwt>
</event>
<event>
 4    1  0.4305113E-006  0.6492435E+03  0.7818608E-02  0.9808200E-01
          1   -1    0    0  501    0  0.00000000000E+00  0.00000000000E+00  0.21919152719E+04  0.21919152719E+04  0.50400000000E-02 0.  1.
         -1   -1    0    0    0  501 -0.00000000000E+00 -0.00000000000E+00 -0.48076343213E+02  0.48076343477E+02  0.50400000000E-02 0. -1.
   -5000001    1    1    2    0    0 -0.12842999109E+03  0.14502383452E+03  0.13243496685E+04  0.13615903274E+04  0.25000000000E+03 0.  0.
    5000001    1    1    2    0    0  0.12842999109E+03 -0.14502383452E+03  0.81948926023E+03  0.87840128803E+03  0.25000000000E+03 0.  0.
<mgrwt>
<rscale>  0 0.64924347E+03</rscale>
<asrwt>0</asrwt>
<pdfrwt beam="1">  1        1 0.33721770E+00 0.64924347E+03</pdfrwt>
<pdfrwt beam="2">  1       -1 0.73963613E-02 0.64924347E+03</pdfrwt>
<totfact> 0.23336948E+02</totfact>
</mgrwt>
</event>
<event>
 4    1  0.4305113E-006  0.9030442E+03  0.7818608E-02  0.9421784E-01
         -1   -1    0    0    0  501 -0.00000000000E+00  0.00000000000E+00  0.29465367243E+03  0.29465367248E+03  0.50400000000E-02 0.  1.
          1   -1    0    0  501    0  0.00000000000E+00 -0.00000000000E+00 -0.69190447832E+03  0.69190447834E+03  0.50400000000E-02 0. -1.
   -5000001    1    1    2    0    0  0.81076742593E+02  0.35391737338E+03 -0.30533815861E+03  0.53624839065E+03  0.25000000000E+03 0.  0.
    5000001    1    1    2    0    0 -0.81076742593E+02 -0.35391737338E+03 -0.91912647279E+02  0.45030976017E+03  0.25000000000E+03 0.  0.
<mgrwt>
<rscale>  0 0.90304418E+03</rscale>
<asrwt>0</asrwt>
<pdfrwt beam="1">  1        1 0.10644684E+00 0.90304418E+03</pdfrwt>
<pdfrwt beam="2">  1       -1 0.45331334E-01 0.90304418E+03</pdfrwt>
<totfact> 0.13489900E+02</totfact>
</mgrwt>
</event>
<event>
 4    1  0.4305113E-006  0.6199138E+03  0.7818608E-02  0.9864931E-01
          1   -1    0    0  501    0  0.00000000000E+00  0.00000000000E+00  0.11412311806E+04  0.11412311806E+04  0.50400000000E-02 0.  1.
         -1   -1    0    0    0  501 -0.00000000000E+00 -0.00000000000E+00 -0.84183902514E+02  0.84183902665E+02  0.50400000000E-02 0. -1.
   -5000001    1    1    2    0    0  0.10809127311E+03 -0.10529436589E+03  0.32306831802E+03  0.43548107298E+03  0.25000000000E+03 0.  0.
    5000001    1    1    2    0    0 -0.10809127311E+03  0.10529436589E+03  0.73397896005E+03  0.78993401028E+03  0.25000000000E+03 0.  0.
<mgrwt>
<rscale>  0 0.61991385E+03</rscale>
<asrwt>0</asrwt>
<pdfrwt beam="1">  1        1 0.17557402E+00 0.61991385E+03</pdfrwt>
<pdfrwt beam="2">  1       -1 0.12951370E-01 0.61991385E+03</pdfrwt>
<totfact> 0.50128390E+02</totfact>
</mgrwt>
</event>
<event>
 4    1  0.4305113E-006  0.8488642E+03  0.7818608E-02  0.9491863E-01
         -1   -1    0    0    0  501 -0.00000000000E+00  0.00000000000E+00  0.25292332565E+04  0.25292332565E+04  0.50400000000E-02 0. -1.
          1   -1    0    0  501    0  0.00000000000E+00 -0.00000000000E+00 -0.71224205098E+02  0.71224205276E+02  0.50400000000E-02 0.  1.
   -5000001    1    1    2    0    0 -0.27003283667E+03  0.18524479716E+03  0.91645312230E+03  0.10047983346E+04  0.25000000000E+03 0.  0.
    5000001    1    1    2    0    0  0.27003283667E+03 -0.18524479716E+03  0.15415559291E+04  0.15956591272E+04  0.25000000000E+03 0.  0.
<mgrwt>
<rscale>  0 0.84886425E+03</rscale>
<asrwt>0</asrwt>
<pdfrwt beam="1">  1        1 0.10957570E-01 0.84886425E+03</pdfrwt>
<pdfrwt beam="2">  1       -1 0.38911281E+00 0.84886425E+03</pdfrwt>
<totfact> 0.52588872E+00</totfact>
</mgrwt>
</event>
<event>
 4    1  0.4305113E-006  0.1069587E+04  0.7818608E-02  0.9235352E-01
         -1   -1    0    0    0  501 -0.00000000000E+00  0.00000000000E+00  0.31400395124E+03  0.31400395128E+03  0.50400000000E-02 0. -1.
          1   -1    0    0  501    0  0.00000000000E+00 -0.00000000000E+00 -0.91082933762E+03  0.91082933763E+03  0.50400000000E-02 0.  1.
   -5000001    1    1    2    0    0  0.33348994006E+03  0.27536730993E+03 -0.79748792934E+02  0.50586813051E+03  0.25000000000E+03 0.  0.
    5000001    1    1    2    0    0 -0.33348994006E+03 -0.27536730993E+03 -0.51707659345E+03  0.71896515840E+03  0.25000000000E+03 0.  0.
<mgrwt>
<rscale>  0 0.10695869E+04</rscale>
<asrwt>0</asrwt>
<pdfrwt beam="1">  1        1 0.14012759E+00 0.10695869E+04</pdfrwt>
<pdfrwt beam="2">  1       -1 0.48308301E-01 0.10695869E+04</pdfrwt>
<totfact> 0.76246565E+01</totfact>
</mgrwt>
</event>
<event>
 4    1  0.4305113E-006  0.1194945E+04  0.7818608E-02  0.9117293E-01
          1   -1    0    0  501    0  0.00000000000E+00  0.00000000000E+00  0.27118519050E+04  0.27118519050E+04  0.50400000000E-02 0.  1.
         -1   -1    0    0    0  501 -0.00000000000E+00 -0.00000000000E+00 -0.13163450448E+03  0.13163450458E+03  0.50400000000E-02 0. -1.
   -5000001    1    1    2    0    0 -0.32370301765E+03  0.27709162098E+03  0.49051518663E+03  0.69618141197E+03  0.25000000000E+03 0.  0.
    5000001    1    1    2    0    0  0.32370301765E+03 -0.27709162098E+03  0.20897022139E+04  0.21473049976E+04  0.25000000000E+03 0.  0.
<mgrwt>
<rscale>  0 0.11949448E+04</rscale>
<asrwt>0</asrwt>
<pdfrwt beam="1">  1        1 0.41720797E+00 0.11949448E+04</pdfrwt>
<pdfrwt beam="2">  1       -1 0.20251463E-01 0.11949448E+04</pdfrwt>
<totfact> 0.19264888E+01</totfact>
</mgrwt>
</event>
